Title
42773
    1SAPS     N    1   3.244   3.475   6.993 -0.2275 -0.1640  0.0203
    1SAPS   HN1    2   3.310   3.554   6.978  0.1380 -0.4825 -0.0924
    1SAPS   HN2    3   3.198   3.430   6.911 -0.2733 -0.5346  0.2454
    1SAPS   HN3    4   3.181   3.514   7.065  1.5497  1.2396  0.8971
    1SAPS   C12    5   3.323   3.373   7.049  0.3700  0.3853 -0.1505
    1SAPS  H12A    6   3.409   3.350   6.988 -0.6677  0.0116 -1.5425
    1SAPS   C13    7   3.381   3.393   7.190  0.4532 -0.3562 -0.4900
    1SAPS  O13A    8   3.372   3.506   7.244  0.5101  0.5732 -0.2923
    1SAPS  O13B    9   3.455   3.305   7.244 -0.1665 -0.2634 -0.3261
    1SAPS   C11   10   3.244   3.241   7.054  0.3836 -0.3967  0.2300
    1SAPS  H11A   11   3.159   3.241   7.126 -1.3880  0.0857 -1.7504
    1SAPS  H11B   12   3.311   3.161   7.091 -0.4009 -0.2726  1.9806
    1SAPS     P   13   3.128   3.079   6.892 -0.0013  0.1230  0.2526
    1SAPS   O13   14   3.041   3.044   7.008  0.0962 -0.0573 -0.4913
    1SAPS   O14   15   3.055   3.082   6.763  0.3191  0.3132  0.3343
    1SAPS   O12   16   3.199   3.218   6.920  0.5461  0.3672  0.2287
    1SAPS   O11   17   3.247   2.980   6.885  0.7555 -0.5363 -0.2065
    1SAPS    C1   18   3.262   2.872   6.799 -0.7738  0.4953  0.1286
    1SAPS    HA   19   3.287   2.780   6.858  2.9663  2.5114  2.0465
    1SAPS    HB   20   3.171   2.850   6.739 -0.5911  1.4406 -0.5057
    1SAPS    C2   21   3.384   2.911   6.700  0.1116 -0.3139 -0.5805
    1SAPS    HS   22   3.467   2.952   6.762 -0.3522 -1.3015  0.7377
    1SAPS   O21   23   3.343   3.007   6.603  0.2433  0.1053 -0.0230
    1SAPS   C21   24   3.429   3.094   6.565 -0.7094  0.2712 -0.3472
    1SAPS   O22   25   3.540   3.114   6.608  0.0582 -0.2941  0.2176
    1SAPS   C22   26   3.381   3.170   6.446  0.0096 -0.1772 -0.2368
    1SAPS   H2R   27   3.319   3.094   6.393 -0.5188 -0.2365  0.4499
    1SAPS   H2S   28   3.320   3.249   6.495  1.5007 -1.1692  3.5575
    1SAPS    C3   29   3.449   2.782   6.627  0.7061  0.3173  0.5511
    1SAPS    HX   30   3.361   2.752   6.565 -0.6369  2.8507  1.0899
    1SAPS    HY   31   3.472   2.699   6.698  3.1518  1.4589  1.1899
    1SAPS   O31   32   3.555   2.810   6.536 -0.2139  0.1885  0.3593
    1SAPS   C31   33   3.677   2.824   6.594  0.4451  0.2924  0.5763
    1SAPS   O32   34   3.686   2.827   6.714  0.4226  0.5498 -0.2957
    1SAPS   C32   35   3.778   2.836   6.490 -0.2571  0.4068 -0.2780
    1SAPS   H2X   36   3.742   2.826   6.386  1.0832 -1.1466 -0.6295
    1SAPS   H2Y   37   3.844   2.750   6.512  0.3397  0.9931  0.2535
    1SAPS   C23   38   3.493   3.231   6.355 -0.1706 -0.6599 -0.8117
    1SAPS   H3R   39   3.567   3.281   6.421 -2.2092  1.1439  0.1963
    1SAPS   H3S   40   3.456   3.314   6.291  2.8670  2.1083  0.7093
    1SAPS   C24   41   3.584   3.133   6.277  0.2280 -0.5602 -0.3373
    1SAPS   H4R   42   3.615   3.049   6.342  2.8998  0.8551  0.3735
    1SAPS   H4S   43   3.675   3.189   6.246 -0.0850  0.9434  1.3298
    1SAPS   C25   44   3.497   3.069   6.168  0.2104 -0.2241 -0.4307
    1SAPS   H5R   45   3.409   3.011   6.202  1.0124 -1.7637 -0.8960
    1SAPS   C26   46   3.517   3.061   6.043  0.0323 -0.2667  0.9093
    1SAPS   H6R   47   3.441   3.010   5.982 -1.0588  0.5572  1.5441
    1SAPS   C27   48   3.642   3.122   5.968  0.1029  0.2155  0.0485
    1SAPS   H7R   49   3.697   3.040   5.917 -0.2879 -0.0681  0.0755
    1SAPS   H7S   50   3.721   3.158   6.039  0.0709  2.2220 -0.8691
    1SAPS   C28   51   3.590   3.229   5.881  0.1018  0.3281 -0.2629
    1SAPS   H8R   52   3.602   3.329   5.926 -2.9101  0.5268  0.3143
    1SAPS   C29   53   3.568   3.209   5.749  0.3373 -0.5017 -0.0072
    1SAPS   H9R   54   3.547   3.300   5.690  2.4163 -0.5822 -0.9628
    1SAPS  C210   55   3.567   3.084   5.671 -1.1853 -0.0981 -0.4115
    1SAPS  H10R   56   3.476   3.084   5.608 -0.6858  1.0696 -1.1947
    1SAPS  H10S   57   3.547   2.999   5.739 -0.0881  0.2843  0.4171
    1SAPS  C211   58   3.697   3.051   5.594  0.0926  0.8174  0.4858
    1SAPS  H11R   59   3.768   2.981   5.639 -0.2946  0.0780 -0.0231
    1SAPS  C212   60   3.720   3.081   5.464  0.5144  0.1744  0.0853
    1SAPS  H12R   61   3.810   3.049   5.410  0.9721  0.1707  0.8511
    1SAPS  C213   62   3.641   3.171   5.368 -0.9179  0.4259  0.2978
    1SAPS  H13R   63   3.538   3.184   5.408 -0.6783  1.3057  0.6353
    1SAPS  H13S   64   3.646   3.118   5.270  1.3633 -0.8422  1.0403
    1SAPS  C214   65   3.694   3.306   5.350 -0.1378 -0.2778  0.0657
    1SAPS  H14R   66   3.641   3.388   5.400  2.2380  0.0595  2.2058
    1SAPS  C215   67   3.800   3.349   5.288  0.4107  0.2364  0.3736
    1SAPS  H15R   68   3.826   3.456   5.291  0.7307  0.2600 -1.8566
    1SAPS  C216   69   3.898   3.270   5.210 -0.1844 -0.0306  0.4414
    1SAPS  H16R   70   3.857   3.167   5.201 -1.7985  0.4373  2.0325
    1SAPS  H16S   71   3.998   3.259   5.257 -0.0859  0.0857  0.2613
    1SAPS  C217   72   3.929   3.323   5.061  0.0218 -0.0492 -0.0263
    1SAPS  H17R   73   4.022   3.284   5.015  0.9579  2.8544 -0.7734
    1SAPS  H17S   74   3.938   3.433   5.067 -0.0331 -0.1369  3.1698
    1SAPS  C218   75   3.825   3.272   4.959 -0.3980  0.3420 -0.7331
    1SAPS  H18R   76   3.724   3.296   4.999 -0.5906  0.0853 -1.0612
    1SAPS  H18S   77   3.836   3.166   4.929 -0.2415  0.7974 -2.3835
    1SAPS  C219   78   3.817   3.364   4.834  0.3285  0.3286  0.9195
    1SAPS  H19R   79   3.787   3.466   4.865  0.1170  0.6931 -0.4325
    1SAPS  H19S   80   3.729   3.320   4.782 -0.5200  1.3460  1.4504
    1SAPS  C220   81   3.945   3.382   4.759  0.2961 -0.5717  0.6193
    1SAPS  H20R   82   3.927   3.458   4.680  1.1930  0.4916  1.4019
    1SAPS  H20S   83   3.979   3.284   4.718  0.7403  0.1074 -0.7052
    1SAPS  H20T   84   4.027   3.438   4.810  0.9470 -0.7871 -0.1589
    1SAPS   C33   85   3.872   2.960   6.505 -0.5912 -0.6290 -0.2990
    1SAPS   H3X   86   3.918   2.966   6.606  0.0593  1.3384 -0.6708
    1SAPS   H3Y   87   3.811   3.051   6.485 -1.4594 -0.6791  1.9125
    1SAPS   C34   88   3.986   2.954   6.405  0.0141  1.1160  0.0944
    1SAPS   H4X   89   4.038   2.857   6.419 -0.6365  0.8884  1.0408
    1SAPS   H4Y   90   4.058   3.038   6.422  2.5403 -0.9822  0.4652
    1SAPS   C35   91   3.936   2.954   6.260 -0.7010 -0.1897  0.1589
    1SAPS   H5X   92   3.860   3.030   6.232 -0.7825 -0.8076 -1.4161
    1SAPS   H5Y   93   3.900   2.855   6.226  1.0992 -0.7094 -0.3450
    1SAPS   C36   94   4.048   2.991   6.157 -0.7194  0.3451 -0.1134
    1SAPS   H6X   95   4.124   2.911   6.172 -1.2060 -0.0416  0.3323
    1SAPS   H6Y   96   4.089   3.090   6.186  1.1160 -0.1293 -0.9134
    1SAPS   C37   97   3.997   2.996   6.015 -0.7489  1.0047  0.6570
    1SAPS   H7X   98   3.907   3.060   6.019 -2.7692 -1.6770  0.7660
    1SAPS   H7Y   99   3.970   2.892   5.987 -0.9721  1.2228  0.0333
    1SAPS   C38  100   4.106   3.043   5.914  0.6429 -0.1489 -0.5180
    1SAPS   H8X  101   4.196   2.978   5.919 -0.7174 -2.0337  0.4179
    1SAPS   H8Y  102   4.148   3.142   5.944  2.9588 -1.3747  0.5668
    1SAPS   C39  103   4.057   3.029   5.772 -0.3693 -0.3563 -0.0223
    1SAPS   H9X  104   3.966   3.090   5.751 -0.4205 -0.6741 -0.7492
    1SAPS   H9Y  105   4.029   2.923   5.757  0.7758 -0.6032 -0.4800
    1SAPS  C310  106   4.157   3.081   5.668  0.3073 -0.6044 -0.6086
    1SAPS  H10X  107   4.260   3.082   5.709  0.0039 -0.1562  0.1478
    1SAPS  H10Y  108   4.136   3.185   5.637 -1.2706 -1.1488 -1.4731
    1SAPS  C311  109   4.138   2.995   5.544  0.3641  0.3623  0.5535
    1SAPS  H11X  110   4.028   2.999   5.524  0.1255  1.5985  1.9655
    1SAPS  H11Y  111   4.150   2.885   5.556  1.2823  0.1941 -1.5805
    1SAPS  C312  112   4.232   3.047   5.436  0.0276 -1.2705  0.3889
    1SAPS  H12X  113   4.221   3.156   5.415  1.0994 -1.8585 -4.4776
    1SAPS  H12Y  114   4.197   3.001   5.341  0.8344 -0.9308 -0.0929
    1SAPS  C313  115   4.383   3.010   5.456 -0.2353  0.4922 -0.2823
    1SAPS  H13X  116   4.400   2.927   5.528  3.2816  1.8126  0.6125
    1SAPS  H13Y  117   4.423   3.108   5.490 -2.1760  1.6656 -1.1917
    1SAPS  C314  118   4.460   2.957   5.336  0.0756 -0.1281  0.0065
    1SAPS  H14X  119   4.568   2.957   5.362  0.1533 -0.5945 -0.3135
    1SAPS  H14Y  120   4.444   3.028   5.252  1.3849 -0.6661 -0.7162
    1SAPS  C315  121   4.430   2.812   5.297  0.4072  0.5491  0.4803
    1SAPS  H15X  122   4.330   2.807   5.250  0.9584 -0.6949 -0.6308
    1SAPS  H15Y  123   4.429   2.743   5.384  0.8414  1.0095  0.8559
    1SAPS  C316  124   4.536   2.765   5.189  0.2757 -0.0561 -0.2506
    1SAPS  H16X  125   4.544   2.655   5.172 -0.2523 -0.3663  1.3319
    1SAPS  H16Y  126   4.638   2.788   5.224 -0.4668  1.3449  1.0983
    1SAPS  C317  127   4.510   2.831   5.063 -1.0406 -0.5099 -0.3740
    1SAPS  H17X  128   4.593   2.805   4.993  0.1208  2.0862 -0.0927
    1SAPS  H17Y  129   4.502   2.942   5.072 -1.6558 -0.6839  1.4211
    1SAPS  C318  130   4.385   2.792   4.993 -0.0654  0.4219 -0.3020
    1SAPS  H18X  131   4.303   2.853   5.037 -1.0266  2.0646 -3.9703
    1SAPS  H18Y  132   4.359   2.685   5.006  2.1948 -0.0340  0.9234
    1SAPS  H18Z  133   4.386   2.825   4.887  0.0801  4.5054  0.8232
    2SAPS     N  134   4.124   4.878   7.668  0.9705  0.1673  0.0428
    2SAPS   HN1  135   4.117   4.939   7.752  0.6461  0.1840  0.0041
    2SAPS   HN2  136   4.206   4.822   7.699  1.1591  0.6725  0.4665
    2SAPS   HN3  137   4.148   4.943   7.591 -0.2776 -0.2894 -0.7616
    2SAPS   C12  138   4.001   4.799   7.636 -0.1187 -0.3969 -0.3588
    2SAPS  H12A  139   3.984   4.737   7.723  0.7705  1.7498  1.4344
    2SAPS   C13  140   3.873   4.893   7.622 -0.8346  0.3135 -0.3963
    2SAPS  O13A  141   3.882   5.018   7.635 -0.5022  0.1619  0.3474
    2SAPS  O13B  142   3.766   4.838   7.610  0.0275  0.4142  0.0739
    2SAPS   C11  143   4.013   4.708   7.505  0.7031  0.2147 -0.0832
    2SAPS  H11A  144   4.040   4.761   7.412  2.2198 -0.6970 -0.1937
    2SAPS  H11B  145   3.916   4.655   7.492  0.2830  0.8300  0.5013
    2SAPS     P  146   4.066   4.472   7.594 -0.4060  0.4520 -0.4554
    2SAPS   O13  147   4.183   4.370   7.592  0.4817 -0.2667 -0.2472
    2SAPS   O14  148   4.002   4.499   7.723 -0.4677 -0.3762 -0.8539
    2SAPS   O12  149   4.108   4.609   7.530  0.4016  0.6001 -0.0322
    2SAPS   O11  150   3.955   4.420   7.495 -0.3770  0.8149  0.4704
    2SAPS    C1  151   3.974   4.315   7.395  0.9756 -0.4094  0.3394
    2SAPS    HA  152   4.025   4.226   7.437  1.9274 -1.7777 -3.3196
    2SAPS    HB  153   3.872   4.286   7.365 -0.1983  1.4029  2.3114
    2SAPS    C2  154   4.038   4.378   7.266 -0.1704  0.2706 -0.0430
    2SAPS    HS  155   4.126   4.434   7.302 -0.4308  0.4482  0.3247
    2SAPS   O21  156   3.957   4.471   7.199 -0.3208 -0.5329  0.0901
    2SAPS   C21  157   4.013   4.573   7.137  0.6675 -0.0575 -0.1682
    2SAPS   O22  158   4.125   4.609   7.157  0.3824 -0.1892  0.0885
    2SAPS   C22  159   3.899   4.628   7.048 -0.3545  0.2018  0.2093
    2SAPS   H2R  160   3.807   4.567   7.060  0.5579 -0.9415  1.7717
    2SAPS   H2S  161   3.890   4.731   7.089 -1.0064  2.0613 -4.0426
    2SAPS    C3  162   4.073   4.262   7.163  0.4717 -0.3230 -0.0753
    2SAPS    HX  163   3.981   4.209   7.130  0.2946  0.8432 -1.5609
    2SAPS    HY  164   4.129   4.179   7.211 -0.6457 -1.6630 -1.0206
    2SAPS   O31  165   4.121   4.303   7.035 -0.0008  0.3904  0.6785
    2SAPS   C31  166   4.246   4.282   7.002  1.1383  0.7861 -0.0019
    2SAPS   O32  167   4.318   4.200   7.056  0.2797  0.4792  0.0159
    2SAPS   C32  168   4.278   4.384   6.887  0.0676 -0.2551 -0.1458
    2SAPS   H2X  169   4.311   4.478   6.937 -0.8945  0.8544 -1.5424
    2SAPS   H2Y  170   4.191   4.388   6.818 -0.4195 -2.7920  0.2156
    2SAPS   C23  171   3.939   4.633   6.897  0.8824  0.4155 -0.7923
    2SAPS   H3R  172   3.953   4.526   6.873 -0.0750  0.0198  0.3108
    2SAPS   H3S  173   4.037   4.675   6.866  0.9802 -0.6041 -1.9392
    2SAPS   C24  174   3.828   4.694   6.812  0.0557 -0.2066  0.2195
    2SAPS   H4R  175   3.725   4.659   6.834 -0.7479  1.9215  0.1359
    2SAPS   H4S  176   3.842   4.657   6.708 -2.2643  1.2385 -0.6965
    2SAPS   C25  177   3.824   4.847   6.818  0.2795  0.0859  0.1823
    2SAPS   H5R  178   3.828   4.880   6.922  2.1606  1.8776 -0.3984
    2SAPS   C26  179   3.789   4.927   6.722 -0.1649 -1.4943 -0.7478
    2SAPS   H6R  180   3.796   5.034   6.746 -2.5175 -1.8482  2.2267
    2SAPS   C27  181   3.769   4.891   6.580 -0.3209  0.2179  0.3949
    2SAPS   H7R  182   3.832   4.805   6.551 -1.8449 -1.7517  2.6012
    2SAPS   H7S  183   3.791   4.977   6.513  3.7532 -2.5106 -2.1679
    2SAPS   C28  184   3.622   4.872   6.561  0.3896  0.6367  0.7814
    2SAPS   H8R  185   3.554   4.889   6.645 -1.5701  0.2637 -0.6518
    2SAPS   C29  186   3.562   4.870   6.440  0.0701  0.1410  0.1860
    2SAPS   H9R  187   3.452   4.863   6.436  0.0900 -0.4098  0.4831
    2SAPS  C210  188   3.640   4.881   6.307  0.1707 -0.4735 -0.3249
    2SAPS  H10R  189   3.728   4.949   6.311 -0.9300  0.9592  0.0219
    2SAPS  H10S  190   3.571   4.921   6.230  0.1169 -2.3331 -1.3116
    2SAPS  C211  191   3.697   4.750   6.262 -0.5252 -0.2667 -0.2502
    2SAPS  H11R  192   3.697   4.669   6.337  1.3219 -1.6030 -1.6146
    2SAPS  C212  193   3.725   4.721   6.133  0.3050 -0.1180  0.2991
    2SAPS  H12R  194   3.768   4.621   6.118 -0.7815 -0.7272  1.1260
    2SAPS  C213  195   3.725   4.820   6.016 -0.6625 -0.0714 -0.0358
    2SAPS  H13R  196   3.691   4.923   6.042 -1.0607 -0.2244  0.0546
    2SAPS  H13S  197   3.648   4.779   5.947 -1.0044  1.8491 -0.8607
    2SAPS  C214  198   3.869   4.822   5.967  0.0341  0.1862  0.1362
    2SAPS  H14R  199   3.948   4.857   6.035  0.4295 -0.6576  0.1160
    2SAPS  C215  200   3.917   4.790   5.842  0.2457  0.0225 -0.2541
    2SAPS  H15R  201   4.020   4.822   5.821  0.4675  0.7046  1.6267
    2SAPS  C216  202   3.850   4.764   5.709  0.3272 -0.7335 -0.6307
    2SAPS  H16R  203   3.743   4.767   5.737  0.8745 -0.8327  1.7455
    2SAPS  H16S  204   3.867   4.665   5.662  0.0271 -1.1317  0.0836
    2SAPS  C217  205   3.880   4.863   5.601 -1.1127 -0.5361  0.3177
    2SAPS  H17R  206   3.880   4.967   5.640  0.8646 -0.5024  0.3316
    2SAPS  H17S  207   3.800   4.854   5.524 -0.7755 -0.6406 -0.0241
    2SAPS  C218  208   4.015   4.833   5.534 -0.2343  0.3240  0.4339
    2SAPS  H18R  209   4.016   4.730   5.491 -0.9425 -0.6710  2.6375
    2SAPS  H18S  210   4.098   4.831   5.608  0.4268 -1.9962 -0.2809
    2SAPS  C219  211   4.050   4.928   5.418  0.2791 -0.5119  0.2169
    2SAPS  H19R  212   4.062   5.032   5.456 -0.1240 -0.4556  0.2027
    2SAPS  H19S  213   3.970   4.936   5.341 -0.2975  0.4523  0.8874
    2SAPS  C220  214   4.184   4.890   5.357 -0.5151  0.1675 -0.1510
    2SAPS  H20R  215   4.195   4.793   5.304  2.6040  0.0779  0.4582
    2SAPS  H20S  216   4.262   4.894   5.436  0.0699 -0.2234 -0.6957
    2SAPS  H20T  217   4.204   4.959   5.272 -0.4308  0.9626  0.4979
    2SAPS   C33  218   4.396   4.320   6.808 -0.5110 -0.0087  0.1174
    2SAPS   H3X  219   4.358   4.223   6.769  0.0258 -0.4040  0.5783
    2SAPS   H3Y  220   4.476   4.304   6.882 -3.0629  0.6125  3.2436
    2SAPS   C34  221   4.435   4.411   6.697 -0.6270  0.1327  0.0302
    2SAPS   H4X  222   4.497   4.491   6.742 -2.0315  0.3968  1.5885
    2SAPS   H4Y  223   4.345   4.464   6.657  1.2532  1.4922 -2.7004
    2SAPS   C35  224   4.525   4.364   6.584  0.1015 -0.2553  0.2143
    2SAPS   H5X  225   4.480   4.289   6.515 -1.5479 -0.8533  1.8288
    2SAPS   H5Y  226   4.609   4.307   6.629  0.8740  0.4703 -0.3088
    2SAPS   C36  227   4.584   4.474   6.487 -0.1562  0.5115  0.0322
    2SAPS   H6X  228   4.639   4.532   6.564 -1.8717 -1.2226  2.7515
    2SAPS   H6Y  229   4.507   4.536   6.438  0.6556  1.6550  0.1575
    2SAPS   C37  230   4.683   4.412   6.383 -1.0198 -0.6635 -0.3773
    2SAPS   H7X  231   4.728   4.323   6.432 -1.8710 -0.7341  0.3086
    2SAPS   H7Y  232   4.756   4.494   6.372 -0.4523 -1.0170  0.6372
    2SAPS   C38  233   4.608   4.379   6.250  0.8385 -0.2890 -0.8457
    2SAPS   H8X  234   4.584   4.474   6.196  0.0803 -0.1527 -0.2871
    2SAPS   H8Y  235   4.521   4.319   6.284  0.4431  0.3774 -0.6523
    2SAPS   C39  236   4.690   4.305   6.144  0.5932 -0.6207 -0.0568
    2SAPS   H9X  237   4.622   4.281   6.060 -1.1835  1.1973  0.7705
    2SAPS   H9Y  238   4.726   4.215   6.197  2.3013  1.0897  1.8912
    2SAPS  C310  239   4.811   4.376   6.096  0.2014 -0.3957 -0.1161
    2SAPS  H10X  240   4.862   4.292   6.046 -3.0596 -2.9971  0.5400
    2SAPS  H10Y  241   4.866   4.408   6.187  1.0760 -1.1281 -0.3764
    2SAPS  C311  242   4.781   4.492   5.999  0.2463 -0.2526  0.0613
    2SAPS  H11X  243   4.722   4.563   6.060 -2.5025 -2.0409 -0.3430
    2SAPS  H11Y  244   4.717   4.452   5.917 -0.5967  1.8933 -0.3826
    2SAPS  C312  245   4.899   4.569   5.925  0.1909 -0.3539  0.1240
    2SAPS  H12X  246   4.964   4.628   5.993  0.2130 -0.0893 -0.1243
    2SAPS  H12Y  247   4.858   4.647   5.858  0.9448 -1.1392 -1.2889
    2SAPS  C313  248   4.987   4.478   5.842 -0.5752  0.8483 -0.1581
    2SAPS  H13X  249   4.920   4.440   5.761  1.0471  0.4536 -1.3618
    2SAPS  H13Y  250   5.017   4.391   5.905 -0.0828  1.5872  0.6348
    2SAPS  C314  251   5.114   4.547   5.791  0.3082  0.2754 -0.1648
    2SAPS  H14X  252   5.092   4.642   5.738  1.1254  0.8635  0.5124
    2SAPS  H14Y  253   5.153   4.481   5.710 -1.4645 -1.4079  0.2602
    2SAPS  C315  254   5.221   4.581   5.893 -0.8757 -0.3625  0.2659
    2SAPS  H15X  255   5.262   4.487   5.936 -0.1163 -1.0382 -1.8181
    2SAPS  H15Y  256   5.171   4.639   5.973  0.2931 -0.5057  1.1356
    2SAPS  C316  257   5.334   4.658   5.831  0.3552  0.9583  0.3218
    2SAPS  H16X  258   5.381   4.727   5.904  2.7522 -1.8725  1.6884
    2SAPS  H16Y  259   5.316   4.722   5.743 -2.1633 -0.1022 -0.0117
    2SAPS  C317  260   5.444   4.554   5.781 -0.5087 -0.0156  0.4447
    2SAPS  H17X  261   5.403   4.473   5.718 -0.9628 -0.3064  1.1115
    2SAPS  H17Y  262   5.489   4.518   5.876 -0.4854  1.1322  0.8892
    2SAPS  C318  263   5.564   4.623   5.708  0.1318  0.4720 -0.2255
    2SAPS  H18X  264   5.537   4.676   5.614  0.0247 -1.3275 -1.2515
    2SAPS  H18Y  265   5.643   4.545   5.700 -0.3360  0.1693 -2.3366
    2SAPS  H18Z  266   5.607   4.695   5.781 -0.3725 -0.1260  0.6800
    3SAPS     N  267   4.394   3.955   7.551  0.1969  0.0546  0.5247
    3SAPS   HN1  268   4.379   3.982   7.452  1.6780  0.8776  0.4849
    3SAPS   HN2  269   4.311   3.970   7.611 -0.6273 -2.6774  0.1727
    3SAPS   HN3  270   4.455   4.037   7.571  0.3488  0.4722 -1.4732
    3SAPS   C12  271   4.444   3.819   7.571 -0.1815 -0.1083 -0.5135
    3SAPS  H12A  272   4.547   3.819   7.539  0.5352  0.2002  1.6703
    3SAPS   C13  273   4.430   3.767   7.717  0.0675 -1.0306  0.4288
    3SAPS  O13A  274   4.367   3.838   7.804  0.1990  0.3872 -0.6097
    3SAPS  O13B  275   4.466   3.652   7.736  0.5494  0.1348 -0.2165
    3SAPS   C11  276   4.361   3.720   7.476 -0.0045 -0.3231  0.1118
    3SAPS  H11A  277   4.253   3.726   7.500  0.2446  0.3766  1.1161
    3SAPS  H11B  278   4.392   3.619   7.509 -0.1153 -0.5187 -0.3772
    3SAPS     P  279   4.474   3.666   7.247 -0.2506 -0.5848 -0.0862
    3SAPS   O13  280   4.616   3.705   7.275  0.2531  0.1758  0.1270
    3SAPS   O14  281   4.447   3.521   7.264 -0.1306  0.2923  0.2207
    3SAPS   O12  282   4.376   3.744   7.335  0.2850 -0.2741  0.0626
    3SAPS   O11  283   4.443   3.711   7.105 -0.4756  0.4651  0.5024
    3SAPS    C1  284   4.313   3.718   7.047  0.3817  0.0445 -0.1260
    3SAPS    HA  285   4.253   3.626   7.065 -0.5189  0.9624  1.8809
    3SAPS    HB  286   4.257   3.795   7.103 -0.3262 -1.1645  0.8735
    3SAPS    C2  287   4.313   3.754   6.887 -0.1607 -0.3817 -0.3550
    3SAPS    HS  288   4.206   3.769   6.862 -0.1448  0.5421  0.0878
    3SAPS   O21  289   4.355   3.649   6.791  0.4302  0.0652 -0.3055
    3SAPS   C21  290   4.268   3.543   6.776 -1.2079 -0.0151 -0.6856
    3SAPS   O22  291   4.175   3.522   6.849  0.0792  0.1918 -0.1387
    3SAPS   C22  292   4.322   3.451   6.661  0.1622 -0.1736  0.0105
    3SAPS   H2R  293   4.240   3.458   6.586 -0.3815 -2.5733  0.2857
    3SAPS   H2S  294   4.406   3.508   6.614 -0.1924  2.4901  2.3654
    3SAPS    C3  295   4.381   3.889   6.875  0.9448  0.1055 -0.1986
    3SAPS    HX  296   4.484   3.895   6.915  0.2384  0.8875  1.5936
    3SAPS    HY  297   4.324   3.954   6.944  0.1683 -1.0118  0.2337
    3SAPS   O31  298   4.360   3.952   6.751 -0.5797  0.3542  0.3447
    3SAPS   C31  299   4.455   3.946   6.658  0.8551 -0.2840 -0.2949
    3SAPS   O32  300   4.573   3.925   6.680 -0.2500 -0.0044 -0.0533
    3SAPS   C32  301   4.387   3.976   6.523 -0.4494  0.1280 -0.3560
    3SAPS   H2X  302   4.469   3.993   6.451  0.4559 -0.4251  0.5297
    3SAPS   H2Y  303   4.322   4.065   6.537 -0.1747  0.2570  0.0934
    3SAPS   C23  304   4.341   3.307   6.697 -0.0529  0.0559 -0.0488
    3SAPS   H3R  305   4.236   3.268   6.694 -0.5608  1.4289 -0.7494
    3SAPS   H3S  306   4.375   3.292   6.801 -0.2917  0.1020  0.0357
    3SAPS   C24  307   4.413   3.210   6.594  0.1104 -0.5021  0.2453
    3SAPS   H4R  308   4.344   3.205   6.508 -1.0850  1.2297  1.0546
    3SAPS   H4S  309   4.402   3.113   6.648  2.3248 -0.7605  0.3309
    3SAPS   C25  310   4.561   3.232   6.562 -0.6420 -0.1325 -0.0272
    3SAPS   H5R  311   4.623   3.223   6.652 -0.0256 -0.1137 -0.4466
    3SAPS   C26  312   4.613   3.256   6.440 -0.2156 -0.2039 -0.4212
    3SAPS   H6R  313   4.723   3.257   6.432 -0.1188  0.6228  0.8183
    3SAPS   C27  314   4.537   3.277   6.315 -1.2426 -0.6007  0.2778
    3SAPS   H7R  315   4.453   3.348   6.335 -2.0640 -2.0210  2.2090
    3SAPS   H7S  316   4.495   3.178   6.287  0.6840 -1.2231 -0.5280
    3SAPS   C28  317   4.609   3.335   6.195 -0.1913 -0.7574  0.3763
    3SAPS   H8R  318   4.699   3.393   6.216  0.8439 -2.2812  0.3242
    3SAPS   C29  319   4.573   3.326   6.063  0.4952 -0.4322  0.1723
    3SAPS   H9R  320   4.634   3.375   5.986 -1.6350  2.8754  0.4011
    3SAPS  C210  321   4.464   3.234   6.011  0.2744  0.2979  0.3216
    3SAPS  H10R  322   4.392   3.199   6.088 -1.4734  2.5391 -0.1889
    3SAPS  H10S  323   4.511   3.142   5.970 -1.7460  0.0407 -1.5740
    3SAPS  C211  324   4.389   3.298   5.900 -0.3458 -0.2986  0.8719
    3SAPS  H11R  325   4.285   3.331   5.917 -0.5048  1.2576 -2.3648
    3SAPS  C212  326   4.429   3.316   5.778 -0.5000 -0.0756  0.2624
    3SAPS  H12R  327   4.356   3.365   5.712 -0.1694 -1.3197 -1.0694
    3SAPS  C213  328   4.560   3.272   5.709 -0.2140  0.3482  0.2941
    3SAPS  H13R  329   4.531   3.205   5.626  0.0305  0.7343 -0.1068
    3SAPS  H13S  330   4.633   3.212   5.767  1.5065  0.1688 -1.9240
    3SAPS  C214  331   4.638   3.400   5.667 -0.8648  0.8842 -0.3495
    3SAPS  H14R  332   4.672   3.450   5.759 -0.1137 -1.8558  0.9417
    3SAPS  C215  333   4.692   3.418   5.545  0.1388 -0.1054 -0.3759
    3SAPS  H15R  334   4.742   3.514   5.524 -1.0651  0.8540  0.9198
    3SAPS  C216  335   4.661   3.338   5.427 -1.0223  0.4223  0.0690
    3SAPS  H16R  336   4.630   3.233   5.445  1.2846 -0.2663  0.4149
    3SAPS  H16S  337   4.758   3.317   5.377 -0.5579 -2.1991  1.8602
    3SAPS  C217  338   4.571   3.405   5.326 -0.4136  0.3130 -0.7806
    3SAPS  H17R  339   4.540   3.325   5.256  2.1253 -1.8531  0.3914
    3SAPS  H17S  340   4.615   3.487   5.264 -1.3533 -0.4546 -2.5382
    3SAPS  C218  341   4.435   3.458   5.378 -0.2236 -0.0205 -0.5614
    3SAPS  H18R  342   4.457   3.542   5.448 -2.5455 -0.1039  0.3725
    3SAPS  H18S  343   4.380   3.371   5.420 -2.4330  0.1475 -2.8177
    3SAPS  C219  344   4.352   3.513   5.263  0.2662 -0.9998  0.9225
    3SAPS  H19R  345   4.394   3.603   5.213 -1.9308  0.2859  1.2637
    3SAPS  H19S  346   4.345   3.434   5.185 -1.7104 -1.4375  1.4749
    3SAPS  C220  347   4.204   3.533   5.288 -0.4291 -0.2417  0.0957
    3SAPS  H20R  348   4.188   3.627   5.345 -1.1010  0.8888 -1.8569
    3SAPS  H20S  349   4.169   3.439   5.335  0.5744 -2.0756 -2.5814
    3SAPS  H20T  350   4.145   3.541   5.194 -0.0560  1.1365 -0.0464
    3SAPS   C33  351   4.302   3.857   6.476 -0.4312  0.9064  0.2082
    3SAPS   H3X  352   4.232   3.890   6.396 -1.2645  0.1266  0.6007
    3SAPS   H3Y  353   4.242   3.811   6.557 -1.2124 -0.2397 -0.9697
    3SAPS   C34  354   4.391   3.740   6.403  0.0578 -1.0284 -0.1120
    3SAPS   H4X  355   4.457   3.687   6.475 -0.3098 -2.5427 -0.8418
    3SAPS   H4Y  356   4.449   3.786   6.321 -0.5149  3.3678  1.6689
    3SAPS   C35  357   4.298   3.627   6.349  0.2445  0.1979 -0.5033
    3SAPS   H5X  358   4.339   3.525   6.364  0.3802  0.4285  0.7978
    3SAPS   H5Y  359   4.206   3.630   6.411  1.5845 -3.2167  1.9026
    3SAPS   C36  360   4.249   3.645   6.205  0.4299 -0.3304  0.3226
    3SAPS   H6X  361   4.205   3.747   6.194 -2.0973 -1.1320  2.1675
    3SAPS   H6Y  362   4.175   3.564   6.189  0.1020 -0.1950  1.1023
    3SAPS   C37  363   4.352   3.635   6.091 -0.0174 -0.1448 -0.7495
    3SAPS   H7X  364   4.417   3.545   6.083 -0.2568 -0.4155  0.1866
    3SAPS   H7Y  365   4.421   3.722   6.100  0.5123 -0.6600  0.4498
    3SAPS   C38  366   4.283   3.648   5.958  0.0264  0.0259  0.2821
    3SAPS   H8X  367   4.198   3.577   5.953  1.6618 -2.0764  0.9191
    3SAPS   H8Y  368   4.363   3.618   5.887  1.0468  4.4536 -0.7256
    3SAPS   C39  369   4.235   3.789   5.939 -0.1487  0.0304 -0.0286
    3SAPS   H9X  370   4.323   3.849   5.970  1.1411 -0.9855 -1.5360
    3SAPS   H9Y  371   4.152   3.820   6.005 -0.4944 -0.8606 -0.0271
    3SAPS  C310  372   4.215   3.811   5.791 -0.6654 -0.3280  0.6536
    3SAPS  H10X  373   4.172   3.910   5.764 -1.6119 -0.5935  1.1394
    3SAPS  H10Y  374   4.141   3.743   5.744 -0.1817  0.4001 -1.2582
    3SAPS  C311  375   4.346   3.815   5.712  0.2774  0.1094 -0.1835
    3SAPS  H11X  376   4.370   3.707   5.701 -1.1250 -0.1088 -1.3593
    3SAPS  H11Y  377   4.426   3.867   5.770 -1.5879  0.4882  2.1840
    3SAPS  C312  378   4.319   3.878   5.571 -0.6787 -0.3549 -0.0565
    3SAPS  H12X  379   4.296   3.985   5.586  3.1191  0.3873  1.5644
    3SAPS  H12Y  380   4.248   3.824   5.505 -2.6457  0.1440  1.5549
    3SAPS  C313  381   4.449   3.892   5.485 -0.4266  0.1774  0.1964
    3SAPS  H13X  382   4.497   3.793   5.467 -0.6597  0.1401 -0.2365
    3SAPS  H13Y  383   4.514   3.947   5.557 -0.5133 -1.0334  1.2459
    3SAPS  C314  384   4.419   3.977   5.358  0.6152  0.2469 -0.5278
    3SAPS  H14X  385   4.515   4.011   5.313  1.8471 -0.5073  1.3887
    3SAPS  H14Y  386   4.354   4.066   5.374  0.4553  0.4922 -2.2945
    3SAPS  C315  387   4.346   3.895   5.250 -0.0444 -0.9728  0.4696
    3SAPS  H15X  388   4.281   3.823   5.305 -0.3347 -0.9181  0.2023
    3SAPS  H15Y  389   4.409   3.830   5.186  0.1153 -3.1451  2.6926
    3SAPS  C316  390   4.251   3.973   5.151 -0.1799  0.5573 -0.3459
    3SAPS  H16X  391   4.319   4.045   5.100  1.1153 -0.5384 -0.2308
    3SAPS  H16Y  392   4.188   4.035   5.218  2.4178 -0.5603  3.4109
    3SAPS  C317  393   4.186   3.891   5.043 -0.7877  0.4097  0.1348
    3SAPS  H17X  394   4.095   3.844   5.085  0.2095 -2.5939 -0.8580
    3SAPS  H17Y  395   4.258   3.816   5.006 -0.5696  0.5213  0.3284
    3SAPS  C318  396   4.150   3.984   4.928  0.7709  0.1767  0.6236
    3SAPS  H18X  397   4.063   3.941   4.874 -0.3044  2.1632  0.7079
    3SAPS  H18Y  398   4.222   4.015   4.849  0.2466  2.3705  0.9440
    3SAPS  H18Z  399   4.119   4.084   4.966  0.5446  0.2183  0.3368
    4SAPS     N  400   3.105   1.894   6.951 -0.1995 -0.8161 -0.1285
    4SAPS   HN1  401   3.047   1.909   7.036 -1.6864  1.9273 -1.4750
    4SAPS   HN2  402   3.167   1.976   6.939 -0.7862 -0.5893 -1.9202
    4SAPS   HN3  403   3.039   1.905   6.872 -1.8087  0.8141  1.3642
    4SAPS   C12  404   3.178   1.760   6.966  0.3031  1.3168  0.0249
    4SAPS  H12A  405   3.145   1.694   6.887  0.8569 -0.1085  0.9471
    4SAPS   C13  406   3.333   1.776   6.973 -0.3261 -0.6526 -0.3135
    4SAPS  O13A  407   3.380   1.891   6.962  0.8127 -0.7231 -0.1180
    4SAPS  O13B  408   3.400   1.674   6.982 -0.5518 -0.6330  0.0150
    4SAPS   C11  409   3.127   1.683   7.094 -0.2728 -0.4417 -0.6401
    4SAPS  H11A  410   3.177   1.737   7.177  1.7649  1.1005 -2.7261
    4SAPS  H11B  411   3.167   1.579   7.096  0.9342 -0.0033 -0.8486
    4SAPS     P  412   2.878   1.578   7.096  0.0926 -0.5517  0.1815
    4SAPS   O13  413   2.917   1.485   7.198  0.3195 -0.3470  0.0665
    4SAPS   O14  414   2.736   1.615   7.089 -0.1545 -0.5640  0.1235
    4SAPS   O12  415   2.981   1.691   7.109  0.0791 -0.0482  0.6604
    4SAPS   O11  416   2.914   1.506   6.956  0.2949  0.2525 -0.4787
    4SAPS    C1  417   2.890   1.572   6.835 -0.3095  0.0067  0.1570
    4SAPS    HA  418   2.780   1.567   6.816 -0.3041  1.2720 -0.3410
    4SAPS    HB  419   2.918   1.680   6.839 -1.1348  0.1983  2.2070
    4SAPS    C2  420   2.935   1.497   6.714 -0.3810  0.6964  0.3455
    4SAPS    HS  421   2.919   1.387   6.717  1.4198  0.2899 -2.0088
    4SAPS   O21  422   3.081   1.517   6.703 -0.1509  0.7031  1.0497
    4SAPS   C21  423   3.155   1.419   6.649 -0.2037 -0.1045  0.1428
    4SAPS   O22  424   3.119   1.310   6.611 -0.1150 -0.1760  0.2671
    4SAPS   C22  425   3.302   1.475   6.652  0.4692  0.2952  0.1465
    4SAPS   H2R  426   3.303   1.540   6.742 -0.1886  2.1518 -1.1222
    4SAPS   H2S  427   3.367   1.386   6.669 -1.1159 -0.9166  0.0642
    4SAPS    C3  428   2.888   1.561   6.582  0.1944  0.6779  0.0549
    4SAPS    HX  429   2.929   1.665   6.587  0.4305  0.5521  1.1329
    4SAPS    HY  430   2.778   1.568   6.594  0.1320  0.1683 -0.2446
    4SAPS   O31  431   2.930   1.496   6.459  0.1377 -0.0047  0.1180
    4SAPS   C31  432   2.861   1.382   6.435  0.2036  0.1369 -0.4675
    4SAPS   O32  433   2.776   1.335   6.506  0.1479  0.5659  0.4406
    4SAPS   C32  434   2.880   1.344   6.285  0.2515 -0.3531  0.0953
    4SAPS   H2X  435   2.945   1.423   6.241  2.1459  0.2505  3.6380
    4SAPS   H2Y  436   2.779   1.347   6.239  1.3709  3.7164 -2.6489
    4SAPS   C23  437   3.332   1.553   6.521  0.4738 -0.0623  0.4050
    4SAPS   H3R  438   3.310   1.485   6.436  2.1216 -0.5035  0.2948
    4SAPS   H3S  439   3.435   1.594   6.523  0.7123 -0.6326  0.0125
    4SAPS   C24  440   3.242   1.685   6.495 -0.1453 -0.5255 -0.9964
    4SAPS   H4R  441   3.227   1.719   6.600 -0.9826 -0.5777 -1.0968
    4SAPS   H4S  442   3.147   1.647   6.453 -0.7414 -0.1261 -0.0379
    4SAPS   C25  443   3.309   1.787   6.405 -0.0161  0.5326  0.3142
    4SAPS   H5R  444   3.366   1.860   6.464 -0.5836  1.1178  0.1443
    4SAPS   C26  445   3.295   1.804   6.270 -0.6259 -0.3366 -0.1442
    4SAPS   H6R  446   3.341   1.887   6.214 -1.2732  2.2491  2.8516
    4SAPS   C27  447   3.202   1.725   6.189  1.0406  0.0597 -0.2512
    4SAPS   H7R  448   3.205   1.622   6.232 -0.8795 -0.7325 -1.7953
    4SAPS   H7S  449   3.228   1.717   6.081  1.1379  0.6782 -0.2744
    4SAPS   C28  450   3.058   1.778   6.190 -0.5639  0.5919  0.4160
    4SAPS   H8R  451   3.045   1.856   6.267 -0.8392  1.1351 -0.1737
    4SAPS   C29  452   2.951   1.758   6.115 -0.2162 -0.0566 -0.0182
    4SAPS   H9R  453   2.864   1.824   6.129  0.1665  0.8132 -1.5735
    4SAPS  C210  454   2.940   1.648   6.015 -0.4713  0.0774 -0.5277
    4SAPS  H10R  455   2.863   1.573   6.045 -0.8001  0.6855  0.2037
    4SAPS  H10S  456   3.033   1.588   6.003  0.0857  0.9414 -0.5979
    4SAPS  C211  457   2.895   1.699   5.871 -0.2500  0.2041 -0.5321
    4SAPS  H11R  458   2.818   1.778   5.876 -1.9613 -1.4587  1.0888
    4SAPS  C212  459   2.940   1.650   5.751 -0.5792 -0.2632 -0.0197
    4SAPS  H12R  460   2.902   1.697   5.659 -0.9671  1.5230  1.0052
    4SAPS  C213  461   3.031   1.537   5.729  0.3287  0.0206  0.4021
    4SAPS  H13R  462   3.067   1.493   5.824  1.1499  1.1775  0.6477
    4SAPS  H13S  463   3.127   1.576   5.690  0.0926  2.4891  2.0230
    4SAPS  C214  464   2.964   1.428   5.651 -0.8670  0.4928  0.3043
    4SAPS  H14R  465   2.887   1.360   5.692  2.3338 -3.9552 -0.2213
    4SAPS  C215  466   3.013   1.387   5.536  0.3051 -0.7224  0.2006
    4SAPS  H15R  467   2.961   1.311   5.476  2.6216 -1.8995 -0.4402
    4SAPS  C216  468   3.145   1.437   5.472 -0.5417 -1.0641  0.4519
    4SAPS  H16R  469   3.233   1.420   5.538 -0.1433  2.3039  0.9670
    4SAPS  H16S  470   3.145   1.548   5.463 -0.4412 -0.9973  1.2276
    4SAPS  C217  471   3.186   1.369   5.340  0.2055 -0.2432  0.2537
    4SAPS  H17R  472   3.101   1.343   5.273 -0.0269  1.3673 -0.1271
    4SAPS  H17S  473   3.234   1.272   5.365  0.5727 -0.0243  0.4086
    4SAPS  C218  474   3.285   1.457   5.257  0.1398 -0.7724  0.0138
    4SAPS  H18R  475   3.234   1.546   5.216  1.6250  1.6491  3.0661
    4SAPS  H18S  476   3.306   1.399   5.164 -0.2548 -0.5478 -0.2156
    4SAPS  C219  477   3.414   1.506   5.325 -0.1332  0.2842 -0.0935
    4SAPS  H19R  478   3.447   1.419   5.385 -1.7963  1.1437  2.1922
    4SAPS  H19S  479   3.404   1.578   5.409 -0.5746 -0.0604  0.1527
    4SAPS  C220  480   3.526   1.542   5.229  0.5551 -0.1551  1.0233
    4SAPS  H20R  481   3.530   1.458   5.157 -1.5273  0.3641  0.2351
    4SAPS  H20S  482   3.621   1.547   5.287  2.3043 -1.2959 -1.5566
    4SAPS  H20T  483   3.500   1.639   5.181  0.9392  0.3690  1.8366
    4SAPS   C33  484   2.947   1.210   6.264 -0.8007  0.6525 -0.7741
    4SAPS   H3X  485   2.877   1.127   6.240  0.1550 -0.7374  0.9591
    4SAPS   H3Y  486   3.000   1.167   6.352 -0.4325 -0.9037 -1.7206
    4SAPS   C34  487   3.060   1.216   6.157 -0.7443  0.3693  0.0718
    4SAPS   H4X  488   3.150   1.271   6.192  1.7829 -2.3112 -1.6698
    4SAPS   H4Y  489   3.028   1.259   6.059  0.1561 -1.1910 -0.9568
    4SAPS   C35  490   3.111   1.067   6.121  0.0173 -0.3899  0.0740
    4SAPS   H5X  491   3.109   1.015   6.219 -2.4230  0.3575  0.5017
    4SAPS   H5Y  492   3.214   1.058   6.081 -0.0423 -1.4014  0.1198
    4SAPS   C36  493   3.015   1.001   6.026 -0.5752  0.3446  0.2489
    4SAPS   H6X  494   2.908   1.021   6.049 -1.6717 -2.5192 -1.7086
    4SAPS   H6Y  495   3.017   0.890   6.029 -0.8404  0.1022 -3.6941
    4SAPS   C37  496   3.042   1.038   5.878 -0.3647 -0.2959  0.4341
    4SAPS   H7X  497   3.150   1.024   5.857 -0.2617 -0.3763  1.0217
    4SAPS   H7Y  498   3.010   1.144   5.878  1.3608  0.2474  0.9017
    4SAPS   C38  499   2.969   0.950   5.779  0.0778 -0.3643  0.5603
    4SAPS   H8X  500   2.858   0.955   5.791 -0.1038 -1.7360 -0.2996
    4SAPS   H8Y  501   2.993   0.845   5.805  2.3829  0.5426  2.4577
    4SAPS   C39  502   3.010   0.965   5.626 -0.4314  0.5004 -0.2844
    4SAPS   H9X  503   3.120   0.967   5.613 -0.3771  0.5207  0.1705
    4SAPS   H9Y  504   2.975   1.068   5.602  0.1776  0.5621 -0.9339
    4SAPS  C310  505   2.932   0.865   5.542  0.2648  0.2914 -0.3429
    4SAPS  H10X  506   2.825   0.893   5.529  0.3684  1.3858  0.9742
    4SAPS  H10Y  507   2.930   0.762   5.583 -0.3277 -1.1426 -3.5856
    4SAPS  C311  508   2.993   0.839   5.405 -0.2882 -0.6741 -0.3905
    4SAPS  H11X  509   2.931   0.756   5.363  0.5778 -1.6316  0.1713
    4SAPS  H11Y  510   3.092   0.793   5.426  0.5604  1.8448  1.5865
    4SAPS  C312  511   2.999   0.957   5.314 -0.1647 -0.3749 -0.2749
    4SAPS  H12X  512   3.063   1.039   5.351 -0.4471 -0.6048  0.7405
    4SAPS  H12Y  513   2.899   1.005   5.300  0.8195  1.4886 -1.4281
    4SAPS  C313  514   3.050   0.905   5.173  0.7187 -0.4379 -0.4615
    4SAPS  H13X  515   2.968   0.855   5.116  0.0940  0.3965 -0.3182
    4SAPS  H13Y  516   3.144   0.849   5.193  0.9188 -0.5472 -1.6160
    4SAPS  C314  517   3.088   1.029   5.092  0.0370 -0.0944  0.0357
    4SAPS  H14X  518   3.151   1.096   5.154 -0.5590  1.2978 -0.8056
    4SAPS  H14Y  519   2.993   1.080   5.063 -0.3253 -1.2314 -0.8811
    4SAPS  C315  520   3.154   0.975   4.960  0.2566 -0.4282 -0.6937
    4SAPS  H15X  521   3.080   0.907   4.913 -0.8101 -0.6102  1.1583
    4SAPS  H15Y  522   3.238   0.907   4.985  0.7335  0.6006  0.6451
    4SAPS  C316  523   3.210   1.082   4.868  0.5136 -0.0936  0.1091
    4SAPS  H16X  524   3.261   1.033   4.782 -0.3752  2.3566 -1.9222
    4SAPS  H16Y  525   3.269   1.156   4.926 -2.0929  0.0136  2.8839
    4SAPS  C317  526   3.095   1.160   4.791 -0.2071  0.0987 -1.4929
    4SAPS  H17X  527   3.045   1.233   4.858  2.2364 -1.2590  2.1082
    4SAPS  H17Y  528   3.026   1.078   4.762 -0.2904 -1.1412  1.8319
    4SAPS  C318  529   3.141   1.230   4.669  0.3158 -0.0434  0.0555
    4SAPS  H18X  530   3.225   1.302   4.683 -1.1506  1.6268  0.6527
    4SAPS  H18Y  531   3.065   1.291   4.614  0.4627 -1.1219 -1.4147
    4SAPS  H18Z  532   3.175   1.164   4.587 -1.0660  0.4225 -0.9345
    5SAPS     N  533   4.860   4.271   7.291 -0.3732 -0.0136  0.5813
    5SAPS   HN1  534   4.829   4.179   7.254 -0.1995 -0.6253  1.8815
    5SAPS   HN2  535   4.936   4.256   7.360  0.7056  0.0086 -0.5653
    5SAPS   HN3  536   4.789   4.327   7.342  0.6319 -0.5719  2.6823
    5SAPS   C12  537   4.920   4.348   7.174 -0.1583  0.1918  0.1101
    5SAPS  H12A  538   4.839   4.384   7.113 -0.6061 -0.5571  0.2523
    5SAPS   C13  539   5.012   4.467   7.228 -0.2712  0.1271  0.2880
    5SAPS  O13A  540   5.010   4.493   7.352 -0.2433 -0.2084 -0.3689
    5SAPS  O13B  541   5.043   4.554   7.140  0.2023 -0.0699  0.1171
    5SAPS   C11  542   5.002   4.246   7.077  0.0037  0.3888  0.2779
    5SAPS  H11A  543   5.033   4.295   6.983  1.3064 -0.6215  0.1535
    5SAPS  H11B  544   4.925   4.172   7.047  0.0906  0.5818 -0.4340
    5SAPS     P  545   5.125   4.022   7.150 -0.1095  0.4560 -0.0669
    5SAPS   O13  546   5.254   3.990   7.215  0.2672 -0.5344  0.0432
    5SAPS   O14  547   5.002   3.962   7.206  0.3262  0.4146 -0.3532
    5SAPS   O12  548   5.109   4.181   7.147  0.3394 -0.5929  0.3472
    5SAPS   O11  549   5.131   3.973   6.999 -0.3082 -0.4504  0.1184
    5SAPS    C1  550   5.249   4.020   6.930  0.0238  0.0949 -0.5817
    5SAPS    HA  551   5.254   4.131   6.936 -1.8836  0.3084 -2.1436
    5SAPS    HB  552   5.346   3.980   6.966  0.1540  1.7923  1.1527
    5SAPS    C2  553   5.252   3.994   6.776 -0.9070  0.0493  1.0928
    5SAPS    HS  554   5.351   4.024   6.737 -2.2398  2.2338 -0.9085
    5SAPS   O21  555   5.143   4.062   6.709  0.1028  0.4110  0.8302
    5SAPS   C21  556   5.147   4.194   6.688 -0.6543  0.2812 -0.3111
    5SAPS   O22  557   5.232   4.270   6.728  0.0707  0.4312 -0.1036
    5SAPS   C22  558   5.021   4.232   6.618  0.2454 -0.7903 -0.0462
    5SAPS   H2R  559   4.978   4.146   6.563  1.3473  0.1405 -2.5209
    5SAPS   H2S  560   4.948   4.253   6.699  1.1003  1.2999  0.2310
    5SAPS    C3  561   5.248   3.840   6.742  0.0529 -0.2022 -0.1246
    5SAPS    HX  562   5.161   3.805   6.801  0.5211  0.6772  1.1338
    5SAPS    HY  563   5.341   3.815   6.797  0.2014  0.8502  0.1397
    5SAPS   O31  564   5.244   3.799   6.607 -0.6267 -0.1136  0.1073
    5SAPS   C31  565   5.346   3.826   6.526 -0.5137  0.4418 -0.1830
    5SAPS   O32  566   5.449   3.887   6.554  0.2415 -0.5115  0.1472
    5SAPS   C32  567   5.331   3.733   6.404 -0.5170 -0.3431 -0.4474
    5SAPS   H2X  568   5.227   3.696   6.412 -0.9805  1.3354  2.8446
    5SAPS   H2Y  569   5.407   3.652   6.413  1.1335  1.2880  1.5883
    5SAPS   C23  570   5.041   4.358   6.529 -0.1470 -0.2198 -0.6943
    5SAPS   H3R  571   5.123   4.420   6.572  1.3146 -2.0575 -0.7028
    5SAPS   H3S  572   4.954   4.427   6.535  0.9851  1.4898 -2.6779
    5SAPS   C24  573   5.085   4.332   6.384  0.5300  0.3170 -0.5550
    5SAPS   H4R  574   5.000   4.283   6.331 -1.9700 -0.0530  3.4029
    5SAPS   H4S  575   5.176   4.268   6.384  0.4435 -0.0407  3.5026
    5SAPS   C25  576   5.124   4.459   6.314  0.0601 -0.0155 -0.3684
    5SAPS   H5R  577   5.052   4.542   6.319 -2.1076 -1.8630  1.2591
    5SAPS   C26  578   5.242   4.489   6.252  0.1121 -0.7974 -0.5900
    5SAPS   H6R  579   5.259   4.587   6.206  0.3640 -0.3995  0.3308
    5SAPS   C27  580   5.356   4.401   6.253 -0.3617  0.2496  0.0707
    5SAPS   H7R  581   5.414   4.414   6.159 -1.8376 -1.4280 -1.1219
    5SAPS   H7S  582   5.327   4.295   6.243  0.8825 -0.2215  1.1856
    5SAPS   C28  583   5.443   4.424   6.374  0.9663  0.4203  0.7994
    5SAPS   H8R  584   5.402   4.388   6.469 -2.2316  0.5262 -0.4397
    5SAPS   C29  585   5.562   4.481   6.381 -0.1737 -0.3787  0.0602
    5SAPS   H9R  586   5.596   4.512   6.481 -1.5278  0.6523  0.2336
    5SAPS  C210  587   5.649   4.525   6.270  0.0883 -0.4774  0.5187
    5SAPS  H10R  588   5.664   4.635   6.268 -2.5294 -0.0710 -1.2898
    5SAPS  H10S  589   5.606   4.524   6.168  0.0291  2.4071  0.4464
    5SAPS  C211  590   5.776   4.450   6.259 -0.2529  0.3127 -0.8652
    5SAPS  H11R  591   5.796   4.374   6.336 -1.7874 -1.6515 -2.3082
    5SAPS  C212  592   5.860   4.460   6.156  0.4392  0.8362 -0.9231
    5SAPS  H12R  593   5.956   4.409   6.179 -1.3378 -1.7455  1.4791
    5SAPS  C213  594   5.858   4.547   6.037  0.2613 -0.2137  0.4176
    5SAPS  H13R  595   5.941   4.621   6.037  0.5830 -0.4801  2.7843
    5SAPS  H13S  596   5.767   4.610   6.041  0.6617  0.4328 -0.3733
    5SAPS  C214  597   5.856   4.466   5.913  0.2570  0.2616 -0.5778
    5SAPS  H14R  598   5.778   4.388   5.906 -1.1395  1.6062 -0.5721
    5SAPS  C215  599   5.914   4.487   5.802 -0.5958  0.3599  0.2847
    5SAPS  H15R  600   5.917   4.416   5.719 -2.0974  3.7860 -2.9763
    5SAPS  C216  601   6.004   4.602   5.778 -0.4891  0.0020 -0.0411
    5SAPS  H16R  602   6.111   4.575   5.770  0.3439  2.5448  1.4130
    5SAPS  H16S  603   6.006   4.686   5.850 -1.1330  2.4887 -2.7289
    5SAPS  C217  604   5.949   4.665   5.650 -0.4326 -0.0845  0.1232
    5SAPS  H17R  605   5.839   4.675   5.661 -0.2806 -0.4473  2.5744
    5SAPS  H17S  606   5.968   4.596   5.565 -1.1482 -2.4315  1.7451
    5SAPS  C218  607   6.016   4.796   5.624  0.8565  0.2848  0.0177
    5SAPS  H18R  608   6.126   4.779   5.623  0.4534 -3.0853 -1.0987
    5SAPS  H18S  609   5.974   4.857   5.707 -0.1775 -0.2828 -0.0831
    5SAPS  C219  610   5.969   4.860   5.493 -0.2345  0.0729  0.0787
    5SAPS  H19R  611   5.858   4.864   5.492 -0.2216  1.0876  0.9992
    5SAPS  H19S  612   6.005   4.790   5.414 -2.1279  2.3112 -2.9875
    5SAPS  C220  613   6.029   5.001   5.468 -0.6515  0.2187  0.9255
    5SAPS  H20R  614   5.978   5.039   5.377  1.5000  0.3520 -0.2770
    5SAPS  H20S  615   6.138   4.989   5.453 -0.5077  0.9921  1.2881
    5SAPS  H20T  616   6.007   5.076   5.548  2.6142  1.9403  0.3809
    5SAPS   C33  617   5.334   3.814   6.277  0.5924  0.8003 -0.1807
    5SAPS   H3X  618   5.309   3.757   6.185 -0.0141  1.5443 -0.4897
    5SAPS   H3Y  619   5.434   3.861   6.275  0.4379  1.2662  1.4427
    5SAPS   C34  620   5.235   3.930   6.272 -0.3302  0.0382 -0.6681
    5SAPS   H4X  621   5.268   4.017   6.333  0.0020  0.8862 -2.0151
    5SAPS   H4Y  622   5.135   3.903   6.312  0.6178  1.0369  2.6896
    5SAPS   C35  623   5.221   3.991   6.129  0.4986 -0.6186 -0.0986
    5SAPS   H5X  624   5.157   4.082   6.127 -1.2674 -1.8003  0.0816
    5SAPS   H5Y  625   5.155   3.917   6.079 -1.4736  0.3379  0.9839
    5SAPS   C36  626   5.342   4.007   6.051  0.1925 -0.4128 -0.5592
    5SAPS   H6X  627   5.374   3.913   6.002  1.0735 -2.0986  2.9652
    5SAPS   H6Y  628   5.422   4.037   6.123 -0.0297 -0.9767 -0.0728
    5SAPS   C37  629   5.324   4.115   5.942  0.5118 -0.1151  0.3506
    5SAPS   H7X  630   5.425   4.147   5.909  0.0637  0.5479 -0.3940
    5SAPS   H7Y  631   5.279   4.213   5.968  3.8120  1.5562  0.3233
    5SAPS   C38  632   5.235   4.063   5.826 -0.0859  0.8444  0.5847
    5SAPS   H8X  633   5.141   4.023   5.870  0.2612 -1.1030 -0.3364
    5SAPS   H8Y  634   5.285   3.976   5.777  1.3057  2.2310 -0.5341
    5SAPS   C39  635   5.205   4.162   5.720 -0.0815  0.2302 -0.5961
    5SAPS   H9X  636   5.191   4.256   5.778  1.6242 -1.3935  2.7693
    5SAPS   H9Y  637   5.124   4.132   5.650  0.3181 -0.0511 -0.9448
    5SAPS  C310  638   5.327   4.186   5.627  0.2905 -0.1163 -0.3629
    5SAPS  H10X  639   5.353   4.088   5.581 -0.2535 -0.8161  0.7782
    5SAPS  H10Y  640   5.411   4.222   5.690  1.1554  0.4526 -1.7860
    5SAPS  C311  641   5.296   4.287   5.514 -0.5067 -0.3005 -0.6651
    5SAPS  H11X  642   5.253   4.373   5.570  4.0127  1.8173 -0.0121
    5SAPS  H11Y  643   5.227   4.237   5.444 -1.2205 -1.3253  0.7199
    5SAPS  C312  644   5.427   4.329   5.453 -0.3423  0.1326 -1.0897
    5SAPS  H12X  645   5.467   4.237   5.406  1.1341  0.7534 -1.1063
    5SAPS  H12Y  646   5.497   4.359   5.534 -1.2995 -0.5458  0.0098
    5SAPS  C313  647   5.434   4.436   5.344  0.0052  0.9575 -0.0804
    5SAPS  H13X  648   5.542   4.449   5.320  0.2264  1.0216  0.9372
    5SAPS  H13Y  649   5.392   4.525   5.393 -1.0735 -0.4667  1.6805
    5SAPS  C314  650   5.352   4.399   5.218 -0.2058  0.4371 -0.6039
    5SAPS  H14X  651   5.324   4.474   5.141  0.7007  0.4387 -0.9575
    5SAPS  H14Y  652   5.258   4.349   5.250  1.1601 -0.7317  1.8715
    5SAPS  C315  653   5.429   4.285   5.141  0.2945  0.1630 -0.2179
    5SAPS  H15X  654   5.443   4.196   5.206 -1.0986  1.0381  1.3524
    5SAPS  H15Y  655   5.534   4.312   5.118 -0.4316  2.9640 -0.6056
    5SAPS  C316  656   5.350   4.252   5.017 -0.6996  0.0920  0.5939
    5SAPS  H16X  657   5.356   4.341   4.950  0.8016 -0.5231 -0.1383
    5SAPS  H16Y  658   5.253   4.210   5.049  1.0890 -2.0973  3.6007
    5SAPS  C317  659   5.414   4.152   4.924  0.0957 -0.9607  0.0130
    5SAPS  H17X  660   5.417   4.048   4.963  2.2521 -1.0853 -0.3684
    5SAPS  H17Y  661   5.519   4.174   4.897 -1.1507  0.3285 -4.6471
    5SAPS  C318  662   5.343   4.116   4.788  0.2791 -0.2690 -1.1346
    5SAPS  H18X  663   5.406   4.051   4.724  1.8253  1.5510 -1.5341
    5SAPS  H18Y  664   5.326   4.213   4.737 -0.2476  1.3883  1.9652
    5SAPS  H18Z  665   5.248   4.063   4.814  1.5643 -0.8470  3.3239
    6SAPS     N  666   2.283   4.133   7.237 -0.2573  0.3624 -1.1135
    6SAPS   HN1  667   2.211   4.202   7.211 -1.3134 -0.2021  0.2064
    6SAPS   HN2  668   2.375   4.174   7.263 -1.3605  2.2641  0.0091
    6SAPS   HN3  669   2.292   4.059   7.165 -1.1513 -1.2256  0.3339
    6SAPS   C12  670   2.221   4.056   7.352 -0.6048 -0.7949  0.1476
    6SAPS  H12A  671   2.295   3.983   7.379 -1.8186 -1.4794  1.7354
    6SAPS   C13  672   2.190   4.143   7.477  0.0571 -0.1939 -0.1150
    6SAPS  O13A  673   2.217   4.266   7.471  0.6122 -0.8221  0.3647
    6SAPS  O13B  674   2.144   4.087   7.576  0.5011 -0.0938 -0.2704
    6SAPS   C11  675   2.096   3.986   7.295  0.0994  0.2808  0.7216
    6SAPS  H11A  676   2.029   4.068   7.263  0.7099  0.0089 -1.3959
    6SAPS  H11B  677   2.045   3.933   7.378  0.2024 -1.5124 -0.2922
    6SAPS     P  678   2.012   3.804   7.141  0.2176 -0.2099 -0.3452
    6SAPS   O13  679   2.051   3.729   7.019 -0.0219  0.3288 -0.2327
    6SAPS   O14  680   1.988   3.722   7.263 -0.3130  0.2541  0.2159
    6SAPS   O12  681   2.122   3.902   7.178 -0.1599 -0.4152 -0.5809
    6SAPS   O11  682   1.891   3.901   7.111 -0.4819 -0.3926  0.3207
    6SAPS    C1  683   1.762   3.849   7.083 -0.1127 -0.2538  0.1427
    6SAPS    HA  684   1.760   3.739   7.101 -0.6538  0.0383  2.1414
    6SAPS    HB  685   1.684   3.884   7.154 -0.5568 -1.2267  0.1536
    6SAPS    C2  686   1.714   3.885   6.941 -0.2932 -0.1377  0.2846
    6SAPS    HS  687   1.768   3.823   6.866  1.0340  1.4477 -0.1272
    6SAPS   O21  688   1.750   4.022   6.926 -0.1879 -0.4854  0.0585
    6SAPS   C21  689   1.838   4.049   6.832 -0.3394  0.7455  0.0538
    6SAPS   O22  690   1.907   3.970   6.775  0.0542  0.7977  0.3607
    6SAPS   C22  691   1.854   4.201   6.823 -0.2609  0.6001 -0.0014
    6SAPS   H2R  692   1.752   4.243   6.815 -0.6021 -0.0026  1.0417
    6SAPS   H2S  693   1.919   4.218   6.912  2.0063  0.8077 -1.6084
    6SAPS    C3  694   1.563   3.869   6.918 -0.4098 -1.0576 -0.8233
    6SAPS    HX  695   1.518   3.950   6.980 -0.9112 -1.1453 -1.0710
    6SAPS    HY  696   1.534   3.772   6.964 -0.5422 -0.8910 -0.5480
    6SAPS   O31  697   1.525   3.876   6.777  0.0206 -0.1295 -0.1698
    6SAPS   C31  698   1.494   3.997   6.734 -0.0425 -0.3554 -0.6521
    6SAPS   O32  699   1.502   4.102   6.797 -0.1333  0.2564 -0.1516
    6SAPS   C32  700   1.428   3.988   6.598  0.0582  0.4912  0.5706
    6SAPS   H2X  701   1.384   4.088   6.577 -1.3647  0.1577  1.7802
    6SAPS   H2Y  702   1.340   3.920   6.599  0.4800 -0.1848 -1.8279
    6SAPS   C23  703   1.949   4.242   6.710 -0.1346 -0.2069  0.2036
    6SAPS   H3R  704   1.906   4.221   6.609 -0.5645 -1.5047  0.6347
    6SAPS   H3S  705   2.042   4.182   6.713 -0.2819 -0.6259 -1.6996
    6SAPS   C24  706   1.989   4.393   6.728 -0.0192  0.3298  0.6844
    6SAPS   H4R  707   2.065   4.415   6.649  0.6124 -2.1600  0.5026
    6SAPS   H4S  708   2.024   4.415   6.831 -0.3583  2.9884  0.3188
    6SAPS   C25  709   1.867   4.479   6.698  0.2784  0.0791  0.0499
    6SAPS   H5R  710   1.803   4.508   6.783 -1.7062  0.2990 -1.4487
    6SAPS   C26  711   1.806   4.519   6.582 -0.6303  0.2373 -0.2987
    6SAPS   H6R  712   1.733   4.599   6.600  0.7812  1.1355  1.7964
    6SAPS   C27  713   1.855   4.516   6.443  0.1549 -0.5940 -0.5118
    6SAPS   H7R  714   1.966   4.516   6.444  0.4076  4.2740 -2.2423
    6SAPS   H7S  715   1.821   4.608   6.391  1.9131  0.1217 -0.4533
    6SAPS   C28  716   1.792   4.391   6.380  0.0391  0.1326 -0.7056
    6SAPS   H8R  717   1.742   4.323   6.451  0.3260  1.3188  0.6820
    6SAPS   C29  718   1.808   4.357   6.252 -0.4138  0.9336  0.0157
    6SAPS   H9R  719   1.761   4.264   6.215  1.5842  0.2815 -1.0397
    6SAPS  C210  720   1.903   4.428   6.155 -0.7190 -0.1871  0.6520
    6SAPS  H10R  721   1.917   4.350   6.077 -0.6870  0.0374  0.4333
    6SAPS  H10S  722   1.997   4.467   6.199  0.1397 -0.5154 -0.8258
    6SAPS  C211  723   1.834   4.540   6.088 -0.2248  0.5419 -0.0675
    6SAPS  H11R  724   1.767   4.597   6.154  0.6488  1.1177  0.3382
    6SAPS  C212  725   1.868   4.584   5.967 -0.3384 -0.7914 -0.6822
    6SAPS  H12R  726   1.793   4.658   5.937  1.1207  0.7587 -0.6403
    6SAPS  C213  727   1.969   4.520   5.868 -0.1641 -0.4461 -0.2343
    6SAPS  H13R  728   2.025   4.438   5.918  0.0760 -0.0737  0.1253
    6SAPS  H13S  729   2.042   4.590   5.821 -1.4671  0.1015 -1.4784
    6SAPS  C214  730   1.879   4.447   5.774  0.0869  0.2939  0.2389
    6SAPS  H14R  731   1.854   4.344   5.803  1.3833 -0.1438 -0.1329
    6SAPS  C215  732   1.832   4.496   5.653  0.1194 -0.4258 -0.2698
    6SAPS  H15R  733   1.763   4.443   5.586  1.0551 -0.1820 -1.4734
    6SAPS  C216  734   1.852   4.630   5.591  0.0911 -0.5023  0.1983
    6SAPS  H16R  735   1.925   4.617   5.508  0.5645  1.8825  0.1494
    6SAPS  H16S  736   1.897   4.709   5.655 -3.0546  2.4126 -0.8472
    6SAPS  C217  737   1.717   4.684   5.542 -0.0826  0.3630 -0.3831
    6SAPS  H17R  738   1.644   4.701   5.624  0.0527  0.3525 -0.2593
    6SAPS  H17S  739   1.686   4.609   5.467 -0.4047 -1.0454  1.0959
    6SAPS  C218  740   1.735   4.817   5.467 -0.3328  0.3249 -0.4543
    6SAPS  H18R  741   1.820   4.808   5.395  1.4788 -0.0274  1.6144
    6SAPS  H18S  742   1.755   4.892   5.547  2.8187 -0.9278  0.0892
    6SAPS  C219  743   1.611   4.862   5.398 -0.0462 -0.1586 -0.7108
    6SAPS  H19R  744   1.523   4.865   5.465 -1.9170  1.3678 -3.0913
    6SAPS  H19S  745   1.597   4.792   5.313  1.6701 -1.0472 -0.3205
    6SAPS  C220  746   1.619   5.005   5.338  0.8656  0.6049 -0.4013
    6SAPS  H20R  747   1.540   5.004   5.260  1.5744  1.6419 -1.1732
    6SAPS  H20S  748   1.721   5.010   5.294  0.2161  4.6462 -1.9447
    6SAPS  H20T  749   1.599   5.083   5.415 -2.7422  1.2797 -1.8561
    6SAPS   C33  750   1.524   3.947   6.485 -0.2348 -0.4021 -0.4593
    6SAPS   H3X  751   1.525   3.836   6.476  0.6858 -0.3489 -1.1880
    6SAPS   H3Y  752   1.631   3.960   6.512 -0.3900 -0.8735  0.4310
    6SAPS   C34  753   1.496   4.021   6.355 -0.0541  0.0182 -0.5151
    6SAPS   H4X  754   1.489   4.130   6.373  0.4359  0.1400 -1.0374
    6SAPS   H4Y  755   1.396   3.992   6.317  0.4127  0.3240 -2.0224
    6SAPS   C35  756   1.605   4.005   6.245 -0.4991 -0.4351 -0.6346
    6SAPS   H5X  757   1.607   3.896   6.224 -0.0559 -0.1657 -2.1720
    6SAPS   H5Y  758   1.698   4.039   6.296 -1.8420  3.0474 -0.2357
    6SAPS   C36  759   1.571   4.060   6.109 -0.0682  0.0640 -0.7775
    6SAPS   H6X  760   1.591   4.169   6.115 -0.2246  0.0827 -0.5705
    6SAPS   H6Y  761   1.464   4.033   6.097 -0.3653  0.9078 -0.1211
    6SAPS   C37  762   1.660   4.004   5.999 -0.4512  0.6615  0.3632
    6SAPS   H7X  763   1.640   3.894   5.999  0.5317  0.4748 -0.7675
    6SAPS   H7Y  764   1.767   4.027   6.015 -0.6430  0.0972  2.9131
    6SAPS   C38  765   1.611   4.052   5.855 -0.2466 -0.3885 -0.5644
    6SAPS   H8X  766   1.610   4.163   5.865  0.0033 -0.3848 -0.5730
    6SAPS   H8Y  767   1.511   4.004   5.853 -0.0549 -0.7713 -1.0100
    6SAPS   C39  768   1.705   4.025   5.739 -0.6669 -0.1408 -0.2371
    6SAPS   H9X  769   1.715   3.914   5.739 -0.9062 -0.2065  1.7935
    6SAPS   H9Y  770   1.805   4.064   5.769 -0.4617 -0.4108 -0.5663
    6SAPS  C310  771   1.672   4.094   5.607  0.1621  1.0045 -0.6625
    6SAPS  H10X  772   1.656   4.201   5.632  2.0837  1.2268 -0.2058
    6SAPS  H10Y  773   1.574   4.061   5.569 -0.8606  2.0657  0.9318
    6SAPS  C311  774   1.777   4.096   5.501  0.0436  0.1586 -0.3482
    6SAPS  H11X  775   1.779   4.000   5.445 -3.3605  0.8521 -1.9189
    6SAPS  H11Y  776   1.879   4.112   5.543  0.2437 -1.0193 -0.3335
    6SAPS  C312  777   1.762   4.203   5.386  0.5244  0.2450  0.0886
    6SAPS  H12X  778   1.733   4.299   5.432 -0.2562  0.1910 -0.2635
    6SAPS  H12Y  779   1.668   4.176   5.333  1.0755 -0.8963 -0.3349
    6SAPS  C313  780   1.864   4.221   5.277  0.6017  0.6967  0.1238
    6SAPS  H13X  781   1.949   4.263   5.335  1.1402  0.4671 -0.4887
    6SAPS  H13Y  782   1.837   4.298   5.202  1.4206  1.4067  0.5360
    6SAPS  C314  783   1.917   4.096   5.199  0.1574  0.0635  0.2716
    6SAPS  H14X  784   1.830   4.052   5.146 -2.4402  2.9752  1.8046
    6SAPS  H14Y  785   1.939   4.024   5.282 -0.1567  1.1736  1.3521
    6SAPS  C315  786   2.037   4.125   5.108  0.1466 -0.9084  0.1628
    6SAPS  H15X  787   2.097   4.033   5.091  2.8905  0.4505  1.8491
    6SAPS  H15Y  788   2.103   4.195   5.163  0.3465 -1.1007  0.1679
    6SAPS  C316  789   2.008   4.186   4.971  0.8529 -0.6956  0.4876
    6SAPS  H16X  790   1.956   4.283   4.985  2.0543  0.0581 -0.1431
    6SAPS  H16Y  791   1.949   4.125   4.899  3.6391 -0.7704 -1.8891
    6SAPS  C317  792   2.134   4.219   4.898  0.2453 -0.2237  0.4017
    6SAPS  H17X  793   2.184   4.124   4.869 -1.2436 -1.2217  1.0056
    6SAPS  H17Y  794   2.204   4.278   4.960  0.4242 -2.4197  2.4192
    6SAPS  C318  795   2.101   4.289   4.773 -0.0509  0.3129  0.6284
    6SAPS  H18X  796   2.012   4.257   4.714 -1.0250  1.3641  1.4789
    6SAPS  H18Y  797   2.185   4.284   4.700 -0.9510  3.1938 -0.7845
    6SAPS  H18Z  798   2.090   4.393   4.810 -0.4310  0.0830  1.1609
    7SAPS     N  799   2.623   3.205   6.922  1.0496  0.7898 -0.2249
    7SAPS   HN1  800   2.653   3.298   6.888  1.9533  0.9961  1.0561
    7SAPS   HN2  801   2.693   3.142   6.876  1.3747  0.7551  0.3120
    7SAPS   HN3  802   2.526   3.185   6.891  0.8341 -0.8752  1.3467
    7SAPS   C12  803   2.638   3.210   7.070  0.1233 -0.4722  0.1944
    7SAPS  H12A  804   2.570   3.287   7.103  0.8003  0.5981 -0.7838
    7SAPS   C13  805   2.595   3.083   7.150  0.7492 -0.1897 -0.3838
    7SAPS  O13A  806   2.570   2.979   7.082  0.3497  0.1232 -0.2470
    7SAPS  O13B  807   2.605   3.086   7.274 -0.5334  0.1932 -0.6081
    7SAPS   C11  808   2.790   3.242   7.102  0.2273 -0.0417  0.1775
    7SAPS  H11A  809   2.840   3.148   7.073 -1.0931 -0.4234 -0.9857
    7SAPS  H11B  810   2.797   3.249   7.213 -0.3658  0.2144  0.2008
    7SAPS     P  811   2.880   3.495   7.098 -0.4394 -0.5236 -0.3614
    7SAPS   O13  812   2.779   3.543   7.195  0.6750  0.1127 -0.8239
    7SAPS   O14  813   3.022   3.475   7.152  0.3289  0.4884 -0.3639
    7SAPS   O12  814   2.835   3.360   7.029 -0.1012 -0.7286 -1.1347
    7SAPS   O11  815   2.901   3.588   6.974 -0.1031 -0.2043  0.1924
    7SAPS    C1  816   2.778   3.629   6.904  0.3449 -0.3383 -0.0034
    7SAPS    HA  817   2.706   3.546   6.897 -0.1875 -0.0786  1.9365
    7SAPS    HB  818   2.719   3.702   6.963  1.2064  0.8810 -0.5911
    7SAPS    C2  819   2.818   3.694   6.768 -0.4804 -0.5349  0.1381
    7SAPS    HS  820   2.838   3.609   6.699  1.2966  0.8397 -1.1307
    7SAPS   O21  821   2.937   3.780   6.777  0.2769  0.1651  0.2699
    7SAPS   C21  822   3.011   3.771   6.670 -1.0023 -0.3572 -0.0045
    7SAPS   O22  823   2.984   3.708   6.569  0.2425  0.0607 -0.3738
    7SAPS   C22  824   3.137   3.857   6.681 -0.0430  0.0974 -0.1996
    7SAPS   H2R  825   3.098   3.947   6.734 -2.5977 -0.2624 -1.3173
    7SAPS   H2S  826   3.217   3.802   6.735  0.9377  1.8971  0.2603
    7SAPS    C3  827   2.701   3.773   6.712  0.7865  0.2063 -0.0691
    7SAPS    HX  828   2.680   3.870   6.762 -1.8996  0.7291 -1.9819
    7SAPS    HY  829   2.608   3.718   6.735  2.1181 -1.9450  0.4538
    7SAPS   O31  830   2.710   3.787   6.568 -0.5731 -0.2941 -0.0424
    7SAPS   C31  831   2.705   3.905   6.515  0.0662  0.2672  0.1611
    7SAPS   O32  832   2.690   4.012   6.574 -0.2163  0.7652 -0.0746
    7SAPS   C32  833   2.718   3.895   6.361  0.0410 -0.4138 -0.1437
    7SAPS   H2X  834   2.628   3.843   6.321 -0.7567  0.2257  0.7821
    7SAPS   H2Y  835   2.812   3.844   6.330  0.8888  1.5599 -0.9978
    7SAPS   C23  836   3.189   3.881   6.535  0.3579 -0.4284 -1.1595
    7SAPS   H3R  837   3.189   3.788   6.474  1.8083  0.1275 -2.0560
    7SAPS   H3S  838   3.295   3.907   6.555  0.3534 -2.4303  2.4539
    7SAPS   C24  839   3.118   3.983   6.443  0.0056 -0.4785  0.5348
    7SAPS   H4R  840   3.074   4.059   6.511  1.1784 -0.1439  0.9525
    7SAPS   H4S  841   3.032   3.940   6.388  1.0114 -2.3653  0.3580
    7SAPS   C25  842   3.215   4.062   6.358 -0.5124 -0.6950  0.4391
    7SAPS   H5R  843   3.283   4.122   6.420  0.3096 -0.7628 -0.3841
    7SAPS   C26  844   3.239   4.045   6.225  0.3880 -0.1468 -1.0195
    7SAPS   H6R  845   3.315   4.108   6.176  2.2629 -0.5038  1.2304
    7SAPS   C27  846   3.161   3.953   6.133  0.2742  0.9210  0.3489
    7SAPS   H7R  847   3.075   3.906   6.184 -0.5156 -1.5841 -2.9198
    7SAPS   H7S  848   3.226   3.866   6.106  1.0202  1.1413  1.3842
    7SAPS   C28  849   3.112   4.034   6.016 -0.0567  0.0301 -0.1201
    7SAPS   H8R  850   3.059   4.123   6.053  2.2417  0.6208  1.9828
    7SAPS   C29  851   3.127   4.009   5.884  0.3056  1.2769  0.8153
    7SAPS   H9R  852   3.080   4.077   5.811 -0.0894 -2.1795 -2.4601
    7SAPS  C210  853   3.201   3.888   5.821 -0.6475  0.2387 -0.0638
    7SAPS  H10R  854   3.131   3.803   5.809  1.0910 -1.0905 -1.2096
    7SAPS  H10S  855   3.278   3.863   5.897 -1.1147  3.2410  1.5665
    7SAPS  C211  856   3.249   3.930   5.685  0.0433  0.4932  0.3888
    7SAPS  H11R  857   3.173   3.992   5.635 -0.3801  0.2984  0.7845
    7SAPS  C212  858   3.372   3.903   5.633 -0.6660 -0.2567 -0.2242
    7SAPS  H12R  859   3.396   3.934   5.530 -0.5062 -1.6306 -0.6175
    7SAPS  C213  860   3.483   3.839   5.708  0.0061  0.3439 -0.2026
    7SAPS  H13R  861   3.467   3.883   5.809 -1.0299 -2.6783  1.0869
    7SAPS  H13S  862   3.584   3.859   5.667  0.8791 -3.0497  0.0229
    7SAPS  C214  863   3.471   3.691   5.721  0.2714  1.1972  0.0195
    7SAPS  H14R  864   3.480   3.639   5.625 -2.0578 -1.3121  1.0128
    7SAPS  C215  865   3.467   3.611   5.827  0.2010 -0.4160  0.0672
    7SAPS  H15R  866   3.458   3.502   5.816 -3.1225 -0.3271  0.9787
    7SAPS  C216  867   3.472   3.661   5.974  0.6386  0.5228  0.2267
    7SAPS  H16R  868   3.422   3.760   5.975 -2.3222 -0.8199 -1.4074
    7SAPS  H16S  869   3.579   3.671   6.001  0.7074 -0.5327  0.3946
    7SAPS  C217  870   3.419   3.576   6.094 -0.5747 -0.5145 -0.0410
    7SAPS  H17R  871   3.504   3.508   6.115 -0.1676  0.0995  0.3432
    7SAPS  H17S  872   3.326   3.522   6.069 -1.6646  0.6965  1.2343
    7SAPS  C218  873   3.389   3.666   6.215  0.2632  0.3521  0.9371
    7SAPS  H18R  874   3.284   3.702   6.220  0.4316  1.0415 -0.2472
    7SAPS  H18S  875   3.447   3.760   6.206 -0.0316  0.3738 -1.1414
    7SAPS  C219  876   3.428   3.605   6.341 -0.2270 -0.3965 -0.2132
    7SAPS  H19R  877   3.362   3.518   6.363  1.8881 -1.8139  0.9508
    7SAPS  H19S  878   3.407   3.673   6.426  2.3881  0.0333  0.1894
    7SAPS  C220  879   3.571   3.564   6.364 -0.6063  0.3943  0.0863
    7SAPS  H20R  880   3.609   3.496   6.284  0.2707 -0.2476  1.0234
    7SAPS  H20S  881   3.583   3.504   6.457 -1.7794 -0.8193 -0.5085
    7SAPS  H20T  882   3.651   3.639   6.380  0.5172 -0.9797  1.1751
    7SAPS   C33  883   2.714   4.043   6.303  0.2828  0.3038 -0.6292
    7SAPS   H3X  884   2.780   4.109   6.365 -0.3737  0.7101 -0.3546
    7SAPS   H3Y  885   2.609   4.079   6.312 -0.0184 -0.6947 -0.0374
    7SAPS   C34  886   2.743   4.047   6.150 -0.0653  0.4720 -0.3409
    7SAPS   H4X  887   2.852   4.036   6.136 -0.1953 -1.8369  0.1636
    7SAPS   H4Y  888   2.698   4.144   6.120 -2.3031 -0.2061  0.5818
    7SAPS   C35  889   2.660   3.935   6.074 -0.1761  0.0114 -0.3944
    7SAPS   H5X  890   2.555   3.933   6.109 -1.3071  2.5273 -3.1964
    7SAPS   H5Y  891   2.704   3.835   6.098 -0.8511 -0.0552  0.5984
    7SAPS   C36  892   2.677   3.951   5.919 -0.0711  0.3495 -0.5058
    7SAPS   H6X  893   2.785   3.932   5.897  0.5078  1.0828  1.5052
    7SAPS   H6Y  894   2.654   4.054   5.884  1.5047  0.9422  0.1076
    7SAPS   C37  895   2.581   3.858   5.845 -0.0100 -0.2799  0.4247
    7SAPS   H7X  896   2.479   3.894   5.870 -0.2021 -1.7577  1.9021
    7SAPS   H7Y  897   2.598   3.756   5.885 -3.0118 -0.3783  1.7081
    7SAPS   C38  898   2.598   3.875   5.700  0.2511 -0.5991  0.4208
    7SAPS   H8X  899   2.591   3.979   5.662 -0.7262 -0.6920  0.3012
    7SAPS   H8Y  900   2.513   3.831   5.643 -1.0216  1.6777  0.4449
    7SAPS   C39  901   2.715   3.810   5.637  0.8025 -0.5702  0.1402
    7SAPS   H9X  902   2.691   3.705   5.608  0.7380 -0.3928 -0.4501
    7SAPS   H9Y  903   2.801   3.793   5.706  1.5518  0.1985 -0.5854
    7SAPS  C310  904   2.753   3.886   5.510  0.3605 -0.3212  0.5389
    7SAPS  H10X  905   2.796   3.987   5.529  2.4759 -0.7764 -1.4218
    7SAPS  H10Y  906   2.666   3.884   5.441  0.6886  0.9679  0.0501
    7SAPS  C311  907   2.868   3.814   5.437 -0.4823  1.0387 -0.2228
    7SAPS  H11X  908   2.837   3.709   5.419  3.0212  0.1698 -2.0585
    7SAPS  H11Y  909   2.953   3.812   5.509 -1.2702  1.2961  0.7320
    7SAPS  C312  910   2.913   3.887   5.311 -0.2842  0.6730  0.2104
    7SAPS  H12X  911   2.951   3.987   5.337 -2.1913  1.7324 -0.8456
    7SAPS  H12Y  912   2.829   3.895   5.239 -0.3124 -0.0121  0.1548
    7SAPS  C313  913   3.028   3.814   5.237 -0.0440 -0.2330  0.2879
    7SAPS  H13X  914   3.051   3.859   5.138 -0.5703 -1.6111 -0.4820
    7SAPS  H13Y  915   3.001   3.709   5.212  4.0418 -0.9655 -2.0773
    7SAPS  C314  916   3.163   3.813   5.311 -0.5513 -0.3639  0.3987
    7SAPS  H14X  917   3.147   3.755   5.405  0.5764 -0.9401  0.2536
    7SAPS  H14Y  918   3.188   3.918   5.336 -2.2811  0.1968 -0.0713
    7SAPS  C315  919   3.277   3.743   5.233  0.2634 -0.0134  0.8204
    7SAPS  H15X  920   3.367   3.752   5.298  1.9780  1.8328 -1.5994
    7SAPS  H15Y  921   3.289   3.798   5.137 -1.7132 -0.0615  0.5119
    7SAPS  C316  922   3.261   3.596   5.194  0.7079  0.6287 -0.1968
    7SAPS  H16X  923   3.267   3.582   5.084  1.8714 -0.9750  0.0375
    7SAPS  H16Y  924   3.162   3.562   5.234 -0.2871  1.2229 -2.0607
    7SAPS  C317  925   3.369   3.503   5.248 -0.1017  0.1874 -0.0803
    7SAPS  H17X  926   3.349   3.394   5.248 -0.7697  0.2482  2.8632
    7SAPS  H17Y  927   3.395   3.526   5.353 -1.7040  0.3642  0.3008
    7SAPS  C318  928   3.484   3.502   5.151  0.0717 -0.6958 -0.0365
    7SAPS  H18X  929   3.466   3.429   5.069 -2.0009 -0.2744 -0.0125
    7SAPS  H18Y  930   3.587   3.495   5.193  0.5453  0.2559 -1.0023
    7SAPS  H18Z  931   3.492   3.593   5.087  0.0545 -0.3159  0.4923
    8SAPS     N  932   2.259   5.844   7.185 -0.3577 -0.2681  0.3408
    8SAPS   HN1  933   2.255   5.742   7.171  1.1417  0.0003 -2.8869
    8SAPS   HN2  934   2.185   5.899   7.136  1.1049  1.3993 -0.0911
    8SAPS   HN3  935   2.351   5.874   7.148 -0.0335 -0.5971  0.8809
    8SAPS   C12  936   2.257   5.890   7.331  0.5922  0.4225 -1.1239
    8SAPS  H12A  937   2.270   5.997   7.333  1.7737  0.2923  0.6660
    8SAPS   C13  938   2.121   5.851   7.403 -0.0587  0.2208 -0.1326
    8SAPS  O13A  939   2.029   5.795   7.341  0.2114  0.9623 -0.4755
    8SAPS  O13B  940   2.112   5.882   7.529 -0.3627 -0.1434  0.0940
    8SAPS   C11  941   2.377   5.809   7.403 -0.1013 -0.4525  0.1417
    8SAPS  H11A  942   2.369   5.699   7.410  0.4959 -0.5000  0.0938
    8SAPS  H11B  943   2.385   5.847   7.507 -0.5178 -0.0988  0.0486
    8SAPS     P  944   2.597   5.739   7.283  0.4778 -0.2878 -0.0601
    8SAPS   O13  945   2.666   5.800   7.169 -0.0480 -0.4601  0.2873
    8SAPS   O14  946   2.678   5.687   7.393 -0.0072  0.1585 -0.7222
    8SAPS   O12  947   2.494   5.849   7.336 -0.2458 -0.2468 -0.2743
    8SAPS   O11  948   2.496   5.627   7.237 -0.4597 -0.4503  0.9381
    8SAPS    C1  949   2.547   5.506   7.192  0.0831 -0.0536  0.0185
    8SAPS    HA  950   2.622   5.457   7.259  2.1147  0.8068 -1.5141
    8SAPS    HB  951   2.463   5.434   7.184  0.2395 -0.0370 -2.6428
    8SAPS    C2  952   2.594   5.517   7.047  0.1767 -0.2470  0.3470
    8SAPS    HS  953   2.669   5.595   7.024 -0.9481  0.4068 -1.2838
    8SAPS   O21  954   2.473   5.545   6.969 -0.0967  0.1710  0.2122
    8SAPS   C21  955   2.488   5.584   6.847  0.0519  0.4746  0.1565
    8SAPS   O22  956   2.583   5.636   6.797 -0.2381  0.4662 -0.2507
    8SAPS   C22  957   2.345   5.571   6.788 -0.1598 -0.7019 -0.2814
    8SAPS   H2R  958   2.289   5.495   6.846 -1.0085 -0.1659 -0.3919
    8SAPS   H2S  959   2.304   5.672   6.804  0.8546 -0.6320  2.3417
    8SAPS    C3  960   2.649   5.373   6.993 -0.4976  0.5493 -0.3081
    8SAPS    HX  961   2.565   5.304   7.017  1.2552 -0.7904  2.4029
    8SAPS    HY  962   2.740   5.343   7.047  0.7814  0.9282 -2.1390
    8SAPS   O31  963   2.657   5.365   6.847  0.0187  0.9665  0.6030
    8SAPS   C31  964   2.775   5.390   6.799  0.2628 -0.0802  0.4350
    8SAPS   O32  965   2.877   5.416   6.861 -0.9542 -0.7125  0.0312
    8SAPS   C32  966   2.757   5.401   6.645  0.1738 -0.4568  0.5812
    8SAPS   H2X  967   2.796   5.495   6.600  1.1099 -2.7826 -4.0853
    8SAPS   H2Y  968   2.650   5.381   6.623 -0.2559  2.2167 -0.1185
    8SAPS   C23  969   2.344   5.532   6.639 -0.6801 -0.7557  0.0537
    8SAPS   H3R  970   2.396   5.435   6.619  2.3069  1.1022 -2.0761
    8SAPS   H3S  971   2.406   5.609   6.589  1.8248 -2.8566 -0.3302
    8SAPS   C24  972   2.195   5.537   6.575  0.4482  0.3622 -0.0028
    8SAPS   H4R  973   2.125   5.510   6.657  0.3962  2.1096  0.5715
    8SAPS   H4S  974   2.200   5.459   6.495 -0.0739  0.3586 -0.0367
    8SAPS   C25  975   2.145   5.665   6.518 -0.2651 -0.7953  0.4458
    8SAPS   H5R  976   2.123   5.743   6.592  2.4825  0.6198 -0.0777
    8SAPS   C26  977   2.139   5.709   6.390  0.0219  0.3507  0.5817
    8SAPS   H6R  978   2.103   5.812   6.377 -0.5561  0.6349  3.7303
    8SAPS   C27  979   2.155   5.624   6.264  0.2262  0.2491 -0.3963
    8SAPS   H7R  980   2.165   5.517   6.291 -0.5602  0.4635  0.8133
    8SAPS   H7S  981   2.244   5.655   6.205 -0.4650 -0.7401 -2.0280
    8SAPS   C28  982   2.026   5.658   6.183  0.0540  0.4009  0.7008
    8SAPS   H8R  983   1.935   5.668   6.244  0.3286 -0.2607  1.2267
    8SAPS   C29  984   2.019   5.651   6.047  0.8681  0.2583  0.0772
    8SAPS   H9R  985   1.918   5.678   6.011  0.8620  0.1629  0.0225
    8SAPS  C210  986   2.123   5.597   5.955  0.7005  0.1733  0.1710
    8SAPS  H10R  987   2.093   5.507   5.895  2.1786 -0.9941  1.1030
    8SAPS  H10S  988   2.219   5.567   6.002  1.1594  0.9675 -0.2314
    8SAPS  C211  989   2.144   5.711   5.862 -0.5387 -0.2668 -0.0993
    8SAPS  H11R  990   2.188   5.801   5.906  1.0317 -0.0623 -1.9349
    8SAPS  C212  991   2.126   5.726   5.733  0.3394 -0.3402  0.5622
    8SAPS  H12R  992   2.144   5.825   5.688 -0.9436 -0.3136  0.0727
    8SAPS  C213  993   2.071   5.621   5.639 -0.0085  0.0365  0.1318
    8SAPS  H13R  994   2.040   5.662   5.540  0.1936  1.2211  0.5348
    8SAPS  H13S  995   1.979   5.574   5.679  0.7087 -0.8720  0.7627
    8SAPS  C214  996   2.174   5.506   5.615 -0.0308  0.5037  0.7600
    8SAPS  H14R  997   2.168   5.426   5.690 -1.5880 -0.0374  0.1217
    8SAPS  C215  998   2.270   5.503   5.521  0.2230 -0.5353 -0.4756
    8SAPS  H15R  999   2.324   5.409   5.502 -0.2374 -0.7430 -0.7847
    8SAPS  C216 1000   2.304   5.611   5.420 -0.8390 -0.8509 -0.5219
    8SAPS  H16R 1001   2.415   5.608   5.416 -0.4820  0.0413  3.8561
    8SAPS  H16S 1002   2.284   5.708   5.470 -2.7404 -1.1127 -0.6998
    8SAPS  C217 1003   2.230   5.600   5.280 -0.1912 -0.6111  0.4090
    8SAPS  H17R 1004   2.123   5.605   5.309 -1.1155 -4.7409 -1.6386
    8SAPS  H17S 1005   2.246   5.497   5.243 -3.0537 -1.4102  1.2033
    8SAPS  C218 1006   2.284   5.714   5.188 -0.2355  0.0052 -0.7532
    8SAPS  H18R 1007   2.395   5.714   5.192 -0.2563 -0.2574 -0.1875
    8SAPS  H18S 1008   2.251   5.812   5.230 -2.8616 -0.3682 -1.7634
    8SAPS  C219 1009   2.237   5.711   5.046 -0.5198  0.2837 -0.2397
    8SAPS  H19R 1010   2.282   5.797   4.992  0.0222  0.3385  0.2907
    8SAPS  H19S 1011   2.127   5.707   5.039 -0.4622 -2.6129 -0.8602
    8SAPS  C220 1012   2.290   5.588   4.977  0.0077  0.4353 -0.0431
    8SAPS  H20R 1013   2.399   5.599   4.956  0.9520 -1.2015  3.2788
    8SAPS  H20S 1014   2.237   5.565   4.881  0.3608 -1.0005  0.0768
    8SAPS  H20T 1015   2.277   5.494   5.035 -2.6239  1.0230  0.4630
    8SAPS   C33 1016   2.845   5.291   6.576  0.2027 -0.3821 -0.9812
    8SAPS   H3X 1017   2.814   5.193   6.618 -1.5940 -0.8267 -3.1182
    8SAPS   H3Y 1018   2.949   5.305   6.613  0.7368  0.1338 -2.6053
    8SAPS   C34 1019   2.838   5.284   6.424  0.3980 -0.5423 -0.7559
    8SAPS   H4X 1020   2.742   5.319   6.380  0.1996 -0.3992 -0.2126
    8SAPS   H4Y 1021   2.856   5.176   6.411 -0.1988 -0.5805 -1.3505
    8SAPS   C35 1022   2.952   5.356   6.350 -0.1226  0.1007  0.4845
    8SAPS   H5X 1023   3.031   5.355   6.428  0.2627 -2.5322  0.1583
    8SAPS   H5Y 1024   2.920   5.461   6.331 -1.6390  0.1248  2.7431
    8SAPS   C36 1025   2.998   5.290   6.216 -0.7291 -0.0564  0.3772
    8SAPS   H6X 1026   3.034   5.188   6.243 -1.8901 -0.2550  1.2305
    8SAPS   H6Y 1027   3.093   5.336   6.181 -0.7081  2.3018  3.1009
    8SAPS   C37 1028   2.892   5.294   6.110  0.2762  0.0403  0.4286
    8SAPS   H7X 1029   2.880   5.390   6.057 -0.5621 -0.6500 -0.6959
    8SAPS   H7Y 1030   2.796   5.279   6.165 -0.7195  3.8565 -0.0327
    8SAPS   C38 1031   2.909   5.190   5.995  0.2137 -1.1786 -0.3312
    8SAPS   H8X 1032   2.822   5.210   5.929  0.2765 -0.0252 -0.0817
    8SAPS   H8Y 1033   2.909   5.090   6.043 -0.3673 -0.7273  0.6336
    8SAPS   C39 1034   3.035   5.215   5.912 -0.2913  0.3308 -0.1380
    8SAPS   H9X 1035   3.047   5.134   5.838 -0.8593 -0.8502  1.0171
    8SAPS   H9Y 1036   3.122   5.208   5.980 -0.1412 -2.5366 -0.5352
    8SAPS  C310 1037   3.043   5.352   5.849  0.7269 -0.5855  0.1391
    8SAPS  H10X 1038   3.070   5.431   5.922  1.4889  0.5458 -1.3196
    8SAPS  H10Y 1039   2.942   5.368   5.808  1.4194 -1.2659 -1.9698
    8SAPS  C311 1040   3.138   5.375   5.727 -0.6005  0.1853 -0.3784
    8SAPS  H11X 1041   3.240   5.339   5.754 -0.5221 -0.3766 -1.4030
    8SAPS  H11Y 1042   3.127   5.485   5.721 -1.5681  0.0829 -0.6951
    8SAPS  C312 1043   3.085   5.306   5.594 -0.9186 -0.3788  0.3062
    8SAPS  H12X 1044   2.981   5.331   5.565 -0.7262 -0.8825 -0.9011
    8SAPS  H12Y 1045   3.098   5.198   5.617  0.5093  0.1363  2.2520
    8SAPS  C313 1046   3.169   5.342   5.466  0.0945  0.1527  0.3314
    8SAPS  H13X 1047   3.276   5.319   5.486  0.4931  1.9364  0.4272
    8SAPS  H13Y 1048   3.172   5.451   5.446  1.0681  0.2993  1.1670
    8SAPS  C314 1049   3.122   5.268   5.343 -0.2979 -0.6248 -0.6422
    8SAPS  H14X 1050   3.016   5.292   5.321 -0.3524 -0.4435 -0.1956
    8SAPS  H14Y 1051   3.118   5.158   5.360 -0.6811 -0.6309 -0.7680
    8SAPS  C315 1052   3.204   5.294   5.214  0.8653  0.0840 -0.4203
    8SAPS  H15X 1053   3.312   5.290   5.237  0.2907  0.1945  2.6552
    8SAPS  H15Y 1054   3.189   5.397   5.176  0.2012  0.4434  0.7657
    8SAPS  C316 1055   3.163   5.194   5.111  0.8207  0.6210  0.4045
    8SAPS  H16X 1056   3.053   5.191   5.100  0.5114  3.9964  1.3511
    8SAPS  H16Y 1057   3.181   5.092   5.150  0.8532  0.2792 -0.4822
    8SAPS  C317 1058   3.213   5.212   4.967 -0.5404  0.0790 -0.0028
    8SAPS  H17X 1059   3.324   5.210   4.976 -0.2837  0.3552 -2.4566
    8SAPS  H17Y 1060   3.180   5.314   4.939  0.6047  0.8955  1.4325
    8SAPS  C318 1061   3.182   5.098   4.878 -0.2210  0.3661 -0.1043
    8SAPS  H18X 1062   3.232   5.096   4.779  1.7775 -1.9274  0.8468
    8SAPS  H18Y 1063   3.074   5.080   4.858 -0.6749 -0.4652  2.6250
    8SAPS  H18Z 1064   3.207   4.998   4.922 -2.1384  0.1858  0.6670
    9SAPS     N 1065   0.527   4.674   7.737  0.0166 -0.1032 -0.1702
    9SAPS   HN1 1066   0.614   4.722   7.707  0.0349  0.9383  1.4567
    9SAPS   HN2 1067   0.447   4.731   7.704  0.0025 -1.4402 -2.7826
    9SAPS   HN3 1068   0.534   4.664   7.840  0.2757  0.5897 -0.1158
    9SAPS   C12 1069   0.524   4.535   7.683 -0.3885  0.9795 -0.5925
    9SAPS  H12A 1070   0.621   4.494   7.706 -0.2883  2.0821  1.1319
    9SAPS   C13 1071   0.412   4.450   7.746  0.1463 -0.7130  0.3465
    9SAPS  O13A 1072   0.352   4.494   7.849 -0.2519  0.2747  0.0144
    9SAPS  O13B 1073   0.388   4.336   7.709 -0.4416 -0.4516  0.1968
    9SAPS   C11 1074   0.491   4.540   7.526 -0.3561 -0.4057  0.7038
    9SAPS  H11A 1075   0.390   4.577   7.501 -1.0161 -1.3582  1.8345
    9SAPS  H11B 1076   0.498   4.436   7.488  0.2176 -0.6831  1.5409
    9SAPS     P 1077   0.711   4.581   7.391 -0.3500  0.0144 -0.3498
    9SAPS   O13 1078   0.794   4.699   7.348  0.0810 -0.2744 -0.0856
    9SAPS   O14 1079   0.774   4.475   7.469  0.3767  0.1988 -0.2981
    9SAPS   O12 1080   0.586   4.632   7.472  0.1117  0.0486 -0.4093
    9SAPS   O11 1081   0.646   4.517   7.264 -0.1278  0.2495 -0.5183
    9SAPS    C1 1082   0.625   4.590   7.141  0.3888 -0.7676  0.5562
    9SAPS    HA 1083   0.521   4.575   7.106  0.9345 -0.2676 -1.3911
    9SAPS    HB 1084   0.636   4.699   7.158  0.3190 -0.8733  1.3228
    9SAPS    C2 1085   0.726   4.557   7.030  0.0296  0.0260 -0.1848
    9SAPS    HS 1086   0.817   4.608   7.067  0.0472 -0.6800  0.7846
    9SAPS   O21 1087   0.681   4.607   6.900  0.5095  0.3137 -0.2273
    9SAPS   C21 1088   0.698   4.733   6.881 -0.1097 -0.4600 -0.0324
    9SAPS   O22 1089   0.747   4.811   6.959 -0.4533  0.1668 -0.5261
    9SAPS   C22 1090   0.673   4.768   6.726  0.2975  0.5200 -0.4824
    9SAPS   H2R 1091   0.680   4.669   6.675  1.2638  0.0702  0.4587
    9SAPS   H2S 1092   0.577   4.823   6.720 -0.8885 -1.2797  0.6982
    9SAPS    C3 1093   0.764   4.408   7.042  0.2268 -0.5131 -0.5214
    9SAPS    HX 1094   0.674   4.350   7.073  0.4121 -0.6972 -0.3214
    9SAPS    HY 1095   0.837   4.393   7.125  0.4424 -0.5872 -0.7217
    9SAPS   O31 1096   0.815   4.351   6.918 -0.1834 -0.0521 -0.2531
    9SAPS   C31 1097   0.947   4.345   6.906 -0.0709 -0.2324 -0.7667
    9SAPS   O32 1098   1.030   4.400   6.981 -0.4422 -0.3985  0.3349
    9SAPS   C32 1099   0.987   4.272   6.782 -0.3027 -0.4975 -0.1799
    9SAPS   H2X 1100   0.937   4.173   6.779  1.5577 -1.5932  1.8392
    9SAPS   H2Y 1101   1.094   4.244   6.786 -0.0670  0.3102 -0.6526
    9SAPS   C23 1102   0.776   4.864   6.673 -0.0093  0.5099  0.0829
    9SAPS   H3R 1103   0.769   4.958   6.733  0.7519  1.1242 -0.7566
    9SAPS   H3S 1104   0.746   4.898   6.571  0.5186 -1.8802 -0.9204
    9SAPS   C24 1105   0.919   4.793   6.664  0.3716  0.1150 -0.3841
    9SAPS   H4R 1106   0.906   4.691   6.623 -0.9097  0.6441 -1.3632
    9SAPS   H4S 1107   0.948   4.777   6.770 -0.0463  0.2984 -0.2381
    9SAPS   C25 1108   1.031   4.876   6.608  0.0928  0.2163 -0.2773
    9SAPS   H5R 1109   1.039   4.972   6.661 -0.6378 -0.1234  0.4730
    9SAPS   C26 1110   1.112   4.850   6.501  0.6429 -0.8164  0.2657
    9SAPS   H6R 1111   1.197   4.916   6.479 -0.6426  0.9797  0.5179
    9SAPS   C27 1112   1.116   4.720   6.422 -0.2279 -0.2198 -0.3621
    9SAPS   H7R 1113   1.168   4.740   6.326 -0.7112 -3.5289 -1.4275
    9SAPS   H7S 1114   1.014   4.693   6.389 -0.8762  1.1915  0.3939
    9SAPS   C28 1115   1.181   4.607   6.490  0.4898 -0.5481 -0.3427
    9SAPS   H8R 1116   1.171   4.604   6.599 -0.5102  2.8835 -0.2470
    9SAPS   C29 1117   1.229   4.500   6.420  0.6992 -0.5156 -0.6030
    9SAPS   H9R 1118   1.262   4.410   6.474  1.0693 -0.5212 -0.8280
    9SAPS  C210 1119   1.238   4.484   6.272  1.3081 -0.1428  0.5005
    9SAPS  H10R 1120   1.245   4.581   6.218  0.9025 -0.6454 -0.4700
    9SAPS  H10S 1121   1.141   4.444   6.238  0.5389  0.4680  1.8725
    9SAPS  C211 1122   1.347   4.393   6.222  0.4045  0.0148  0.0772
    9SAPS  H11R 1123   1.408   4.357   6.306 -0.1024  0.5325  0.6801
    9SAPS  C212 1124   1.381   4.379   6.089 -0.2977 -0.7271 -0.2812
    9SAPS  H12R 1125   1.467   4.318   6.061 -1.5578 -3.6097  1.6623
    9SAPS  C213 1126   1.316   4.447   5.969  0.1902  0.2776 -0.1604
    9SAPS  H13R 1127   1.240   4.522   6.000  1.6174  0.7751  2.4396
    9SAPS  H13S 1128   1.272   4.359   5.919  2.8688 -1.8841  1.0672
    9SAPS  C214 1129   1.419   4.519   5.884  0.0578  0.6082 -0.0438
    9SAPS  H14R 1130   1.473   4.601   5.933  4.3477 -1.4095 -0.9221
    9SAPS  C215 1131   1.452   4.498   5.757 -0.1657  0.4956  0.0176
    9SAPS  H15R 1132   1.530   4.558   5.707 -0.1107  0.9626  0.6534
    9SAPS  C216 1133   1.396   4.398   5.659  0.0039  0.4080  0.9299
    9SAPS  H16R 1134   1.359   4.306   5.710 -2.3097  1.0235  0.4562
    9SAPS  H16S 1135   1.478   4.367   5.591  0.5374 -0.4112  1.9035
    9SAPS  C217 1136   1.288   4.471   5.580 -0.2370 -0.1016  0.4140
    9SAPS  H17R 1137   1.326   4.564   5.534  0.2227 -1.6322 -2.5512
    9SAPS  H17S 1138   1.205   4.494   5.650  0.3486  2.4281  0.3421
    9SAPS  C218 1139   1.233   4.401   5.464  0.5302  0.3909  1.1594
    9SAPS  H18R 1140   1.143   4.449   5.421  1.0701 -1.0770 -1.8959
    9SAPS  H18S 1141   1.206   4.297   5.494  2.3536 -0.3922  0.2792
    9SAPS  C219 1142   1.343   4.385   5.349 -0.6656 -0.0168  0.7063
    9SAPS  H19R 1143   1.430   4.324   5.383  2.0930  0.7059 -4.0933
    9SAPS  H19S 1144   1.391   4.482   5.327 -1.4595  0.0460 -0.9154
    9SAPS  C220 1145   1.301   4.310   5.216  0.4538  0.2231 -0.0928
    9SAPS  H20R 1146   1.224   4.234   5.241  1.4057 -1.3255 -1.5929
    9SAPS  H20S 1147   1.384   4.261   5.161  0.1613 -1.1912  0.6748
    9SAPS  H20T 1148   1.255   4.390   5.153 -2.2755 -2.2523 -1.4994
    9SAPS   C33 1149   0.964   4.355   6.650  0.7378  0.0281  0.0341
    9SAPS   H3X 1150   1.018   4.299   6.571  0.1746 -1.1360  0.4601
    9SAPS   H3Y 1151   1.011   4.456   6.654 -1.9430  1.4195 -0.7881
    9SAPS   C34 1152   0.815   4.357   6.605  0.3770 -0.2306  0.2003
    9SAPS   H4X 1153   0.745   4.390   6.684 -0.1216 -1.7616  0.4336
    9SAPS   H4Y 1154   0.778   4.253   6.594  0.7010 -0.3136 -0.1505
    9SAPS   C35 1155   0.786   4.431   6.476 -0.3969 -0.1965 -0.2001
    9SAPS   H5X 1156   0.827   4.534   6.484  2.5302 -1.2071 -0.9394
    9SAPS   H5Y 1157   0.677   4.436   6.458 -0.3336  1.3602 -0.2855
    9SAPS   C36 1158   0.847   4.363   6.349 -0.0183 -0.0778 -0.2071
    9SAPS   H6X 1159   0.819   4.255   6.357 -0.8624  0.2421  1.7100
    9SAPS   H6Y 1160   0.958   4.373   6.355  0.0561 -0.9302 -0.0024
    9SAPS   C37 1161   0.793   4.424   6.225 -0.1584 -0.8178  0.6811
    9SAPS   H7X 1162   0.831   4.529   6.221 -0.2734 -0.7826  0.4905
    9SAPS   H7Y 1163   0.682   4.425   6.222 -0.1700 -1.5601  0.7702
    9SAPS   C38 1164   0.835   4.359   6.094 -0.3610  0.1010 -0.0480
    9SAPS   H8X 1165   0.815   4.250   6.097  2.1365 -0.3993  1.0483
    9SAPS   H8Y 1166   0.945   4.373   6.095 -0.0109 -2.2476  0.5142
    9SAPS   C39 1167   0.778   4.425   5.961 -1.5888  0.6699  0.2179
    9SAPS   H9X 1168   0.815   4.530   5.952 -0.4779  0.0876 -3.5843
    9SAPS   H9Y 1169   0.668   4.411   5.961 -1.2651 -2.5099 -0.5085
    9SAPS  C310 1170   0.834   4.351   5.832 -0.2446  0.3536 -1.0768
    9SAPS  H10X 1171   0.818   4.244   5.858 -0.7029  0.4167 -1.0912
    9SAPS  H10Y 1172   0.941   4.378   5.822 -0.3322  0.5207 -1.5735
    9SAPS  C311 1173   0.758   4.392   5.708  0.2868  0.9915  0.1686
    9SAPS  H11X 1174   0.762   4.502   5.720 -1.4918  0.9764  1.3182
    9SAPS  H11Y 1175   0.655   4.351   5.713  0.2811  1.0223  0.3041
    9SAPS  C312 1176   0.843   4.331   5.591 -0.2641 -0.6384 -0.3823
    9SAPS  H12X 1177   0.860   4.223   5.609 -0.9719 -0.7598 -0.4240
    9SAPS  H12Y 1178   0.942   4.382   5.592 -0.7036  0.2482 -0.9913
    9SAPS  C313 1179   0.775   4.372   5.461 -0.1911  0.3580 -0.4196
    9SAPS  H13X 1180   0.742   4.478   5.463  0.4604  0.5857 -1.2655
    9SAPS  H13Y 1181   0.675   4.324   5.456 -0.0506  0.1000 -0.7716
    9SAPS  C314 1182   0.844   4.333   5.328  0.1032 -0.0898 -1.0037
    9SAPS  H14X 1183   0.900   4.240   5.349 -0.5170 -0.1725  0.4038
    9SAPS  H14Y 1184   0.925   4.409   5.329  1.7950 -1.8186  0.5312
    9SAPS  C315 1185   0.759   4.325   5.206 -0.1012 -0.0047 -0.6278
    9SAPS  H15X 1186   0.693   4.415   5.202  2.1166  1.6891 -1.6374
    9SAPS  H15Y 1187   0.711   4.226   5.214  0.5315 -0.3305 -0.7881
    9SAPS  C316 1188   0.841   4.329   5.073  0.3168  0.4539 -0.3878
    9SAPS  H16X 1189   0.770   4.292   4.996  1.4524 -0.5925 -0.9713
    9SAPS  H16Y 1190   0.920   4.252   5.092 -0.5018  0.0066  1.4887
    9SAPS  C317 1191   0.892   4.469   5.048  0.2059  0.3755 -0.2595
    9SAPS  H17X 1192   0.934   4.514   5.140 -0.5213 -0.0982  0.3075
    9SAPS  H17Y 1193   0.809   4.540   5.033  0.9908  1.2018 -0.8313
    9SAPS  C318 1194   0.971   4.479   4.916 -0.1392  0.3336  0.4358
    9SAPS  H18X 1195   0.919   4.471   4.818 -1.1692  1.9487  0.8214
    9SAPS  H18Y 1196   1.044   4.396   4.903 -1.6809 -1.3085  1.7549
    9SAPS  H18Z 1197   1.030   4.573   4.907 -1.4639  1.1610  0.0620
   10SAPS     N 1198   1.808   3.760   7.461  0.4063 -0.2827  0.4597
   10SAPS   HN1 1199   1.858   3.750   7.370 -1.3064  1.4843 -0.7462
   10SAPS   HN2 1200   1.709   3.787   7.443  0.6693 -0.4102 -1.3505
   10SAPS   HN3 1201   1.854   3.833   7.518  2.0163 -0.5272 -0.4645
   10SAPS   C12 1202   1.817   3.626   7.525 -0.0900 -0.7010  0.0374
   10SAPS  H12A 1203   1.918   3.591   7.513  0.4294  0.6117  0.3655
   10SAPS   C13 1204   1.784   3.628   7.676  0.1308 -0.3330  0.3969
   10SAPS  O13A 1205   1.766   3.734   7.738  0.1418  0.1279  0.0300
   10SAPS  O13B 1206   1.781   3.519   7.731 -0.3836  0.3498 -0.0350
   10SAPS   C11 1207   1.706   3.535   7.441 -0.3270  0.1782 -0.5071
   10SAPS  H11A 1208   1.603   3.564   7.471 -0.8927  1.0312 -2.9742
   10SAPS  H11B 1209   1.713   3.431   7.478  1.7175  0.9603  1.5479
   10SAPS     P 1210   1.584   3.498   7.223  0.1494  0.4307  0.1803
   10SAPS   O13 1211   1.531   3.375   7.289 -0.7994 -0.0961 -0.0436
   10SAPS   O14 1212   1.491   3.612   7.219  0.1777 -0.1881  0.3986
   10SAPS   O12 1213   1.714   3.552   7.300  0.4771 -0.4638  0.4163
   10SAPS   O11 1214   1.622   3.466   7.076  0.8796  0.2436 -0.0070
   10SAPS    C1 1215   1.726   3.378   7.048 -0.5304  0.0678  0.9254
   10SAPS    HA 1216   1.818   3.439   7.043 -1.4894  1.6899  2.2061
   10SAPS    HB 1217   1.728   3.290   7.116  2.4251 -0.7293 -0.0206
   10SAPS    C2 1218   1.697   3.298   6.912 -0.8278 -0.2715  0.7334
   10SAPS    HS 1219   1.768   3.214   6.897  0.6910  1.1996 -0.6665
   10SAPS   O21 1220   1.709   3.383   6.799 -0.5639 -0.1377 -0.3950
   10SAPS   C21 1221   1.831   3.433   6.771  0.5365  0.3048 -0.3400
   10SAPS   O22 1222   1.933   3.394   6.824 -1.0140 -0.2822 -0.1797
   10SAPS   C22 1223   1.817   3.543   6.664  0.3114 -0.4169 -0.1762
   10SAPS   H2R 1224   1.715   3.537   6.619 -0.3765 -2.3894  1.4817
   10SAPS   H2S 1225   1.831   3.639   6.717 -0.1738  0.5964 -1.7849
   10SAPS    C3 1226   1.551   3.245   6.911  0.0725 -0.0597 -1.0671
   10SAPS    HX 1227   1.489   3.329   6.946 -0.2117 -0.8432  0.3820
   10SAPS    HY 1228   1.537   3.153   6.972 -2.0599  0.7271 -0.3070
   10SAPS   O31 1229   1.495   3.214   6.779 -0.1607 -0.0595 -0.1448
   10SAPS   C31 1230   1.361   3.211   6.777 -0.3181 -0.6348 -0.4439
   10SAPS   O32 1231   1.292   3.199   6.877 -0.0731  0.0675 -0.0851
   10SAPS   C32 1232   1.298   3.199   6.637  0.6076  0.2902  0.2180
   10SAPS   H2X 1233   1.241   3.292   6.616  0.6901  0.3998  0.4759
   10SAPS   H2Y 1234   1.225   3.116   6.646  1.7044 -0.8744 -1.2626
   10SAPS   C23 1235   1.927   3.525   6.555 -0.4798  1.0149  0.0397
   10SAPS   H3R 1236   1.903   3.444   6.482 -1.1000 -0.4222  1.7636
   10SAPS   H3S 1237   2.034   3.521   6.587 -0.6154  0.5562  0.4615
   10SAPS   C24 1238   1.948   3.656   6.474  1.1469  0.2997  0.2738
   10SAPS   H4R 1239   2.048   3.650   6.427  1.0808  0.2975  0.1330
   10SAPS   H4S 1240   1.947   3.733   6.554 -1.2562 -2.1066  2.7831
   10SAPS   C25 1241   1.839   3.699   6.386  0.3972 -0.2898  0.5372
   10SAPS   H5R 1242   1.783   3.788   6.419  0.5096 -0.1033  0.2327
   10SAPS   C26 1243   1.818   3.659   6.259  0.2966 -0.2338  0.4845
   10SAPS   H6R 1244   1.739   3.716   6.207 -0.3259  0.2168  1.8813
   10SAPS   C27 1245   1.870   3.542   6.188  0.2893 -0.3138 -0.0911
   10SAPS   H7R 1246   1.920   3.474   6.261 -2.3266 -1.2171  0.9545
   10SAPS   H7S 1247   1.957   3.568   6.123  0.5828 -1.8906 -0.3796
   10SAPS   C28 1248   1.763   3.466   6.109 -0.4319 -0.4003 -0.2478
   10SAPS   H8R 1249   1.714   3.382   6.160  0.3227 -1.3319 -1.0235
   10SAPS   C29 1250   1.738   3.482   5.982 -0.3238  0.1309 -0.6000
   10SAPS   H9R 1251   1.657   3.415   5.949 -0.7817 -1.9260  3.9149
   10SAPS  C210 1252   1.805   3.590   5.895 -0.0872 -0.1593  0.2297
   10SAPS  H10R 1253   1.846   3.668   5.963  0.3606 -1.2894  1.2872
   10SAPS  H10S 1254   1.735   3.648   5.831 -0.1098 -2.0370 -1.5409
   10SAPS  C211 1255   1.920   3.537   5.805  1.5672 -0.6187 -0.4561
   10SAPS  H11R 1256   1.991   3.473   5.859  1.9413  0.1380 -0.0382
   10SAPS  C212 1257   1.957   3.562   5.680  0.1951  0.3377 -0.1233
   10SAPS  H12R 1258   2.050   3.521   5.639  0.6234 -0.1121  1.2631
   10SAPS  C213 1259   1.885   3.658   5.597 -0.2982  0.8237  0.2310
   10SAPS  H13R 1260   1.942   3.748   5.567  0.3787  0.4247  0.2873
   10SAPS  H13S 1261   1.783   3.689   5.628  0.0177  1.2354  0.8676
   10SAPS  C214 1262   1.865   3.579   5.465 -0.1378 -0.4755 -0.1250
   10SAPS  H14R 1263   1.807   3.485   5.465 -1.4716  0.3008 -0.9346
   10SAPS  C215 1264   1.905   3.608   5.336 -1.2462  0.1261 -0.2593
   10SAPS  H15R 1265   1.880   3.530   5.264 -0.1491 -1.0180  0.5596
   10SAPS  C216 1266   1.985   3.722   5.288  0.7871  0.0188 -0.2110
   10SAPS  H16R 1267   2.058   3.752   5.366  0.7398 -0.2467 -0.0629
   10SAPS  H16S 1268   1.916   3.808   5.276 -0.2143 -0.8298 -0.7082
   10SAPS  C217 1269   2.050   3.703   5.149  0.1898  0.3926 -0.7263
   10SAPS  H17R 1270   2.088   3.806   5.129  1.6885  0.4878  2.1199
   10SAPS  H17S 1271   1.974   3.675   5.073 -0.1965  0.3870 -0.3384
   10SAPS  C218 1272   2.174   3.609   5.147 -0.4025 -0.0784  0.6150
   10SAPS  H18R 1273   2.137   3.514   5.192 -0.8938 -0.3826 -0.4070
   10SAPS  H18S 1274   2.264   3.645   5.202  0.6669 -1.2752 -0.2800
   10SAPS  C219 1275   2.221   3.559   5.011 -1.0845 -0.5080 -0.1243
   10SAPS  H19R 1276   2.137   3.510   4.958  1.9507 -3.3605 -2.7605
   10SAPS  H19S 1277   2.295   3.478   5.030 -0.4204 -0.5631 -2.6028
   10SAPS  C220 1278   2.275   3.670   4.924  0.0155 -0.6371 -0.2719
   10SAPS  H20R 1279   2.343   3.741   4.974 -0.7284  0.9659 -1.4594
   10SAPS  H20S 1280   2.185   3.721   4.883  0.7767  1.3229  0.4119
   10SAPS  H20T 1281   2.325   3.618   4.839 -0.0730 -0.6890 -0.2942
   10SAPS   C33 1282   1.403   3.180   6.528 -0.1701  0.3779  0.5366
   10SAPS   H3X 1283   1.442   3.078   6.550 -2.5978 -0.4554  1.2162
   10SAPS   H3Y 1284   1.491   3.247   6.541  2.3161 -2.5379  0.0425
   10SAPS   C34 1285   1.343   3.195   6.390  0.5885 -0.6773 -0.3695
   10SAPS   H4X 1286   1.296   3.295   6.383  2.0424 -0.0130 -1.0999
   10SAPS   H4Y 1287   1.257   3.127   6.372 -0.0163  0.5551 -2.3437
   10SAPS   C35 1288   1.425   3.186   6.270  0.9023 -0.4391  0.4172
   10SAPS   H5X 1289   1.467   3.083   6.269 -2.2610 -1.8408  0.0111
   10SAPS   H5Y 1290   1.508   3.259   6.273  1.1739 -0.5806 -1.9546
   10SAPS   C36 1291   1.364   3.228   6.137 -0.3127  1.1009  0.7396
   10SAPS   H6X 1292   1.327   3.332   6.144 -0.5793  0.9458  1.7578
   10SAPS   H6Y 1293   1.279   3.157   6.132  0.6351 -0.0110 -3.2966
   10SAPS   C37 1294   1.463   3.213   6.021 -0.0737 -0.4250 -0.2400
   10SAPS   H7X 1295   1.506   3.112   6.035 -0.7753 -0.7854 -0.6363
   10SAPS   H7Y 1296   1.534   3.296   6.044 -2.0092  1.1099  0.5348
   10SAPS   C38 1297   1.403   3.229   5.881 -0.4326  0.9063  0.0653
   10SAPS   H8X 1298   1.351   3.326   5.865 -1.4210  0.3784  0.0204
   10SAPS   H8Y 1299   1.329   3.150   5.855 -0.1113  0.2285  1.1314
   10SAPS   C39 1300   1.512   3.211   5.777 -0.7441  0.2065  0.9341
   10SAPS   H9X 1301   1.554   3.111   5.798 -2.4216 -0.2031  2.5670
   10SAPS   H9Y 1302   1.593   3.286   5.787 -0.8489  0.5913 -0.7711
   10SAPS  C310 1303   1.443   3.225   5.641 -0.1936 -0.1836 -0.3835
   10SAPS  H10X 1304   1.409   3.330   5.626 -1.0742 -0.5088 -0.7365
   10SAPS  H10Y 1305   1.355   3.156   5.646  0.9928 -1.7451 -0.3396
   10SAPS  C311 1306   1.524   3.188   5.518 -0.4364 -0.1923 -0.3354
   10SAPS  H11X 1307   1.544   3.079   5.526 -2.7729 -0.6164  0.5276
   10SAPS  H11Y 1308   1.620   3.244   5.514 -0.2592 -0.3567  1.1180
   10SAPS  C312 1309   1.456   3.220   5.376  0.4056  0.2228 -0.2066
   10SAPS  H12X 1310   1.430   3.328   5.386 -0.5802  0.0688 -0.9876
   10SAPS  H12Y 1311   1.367   3.154   5.368  1.9519 -2.0698  0.5259
   10SAPS  C313 1312   1.558   3.220   5.258 -0.5407 -0.2721 -0.2757
   10SAPS  H13X 1313   1.590   3.114   5.248  1.5024  0.3490 -0.6763
   10SAPS  H13Y 1314   1.648   3.280   5.283  2.2356 -4.2494  0.1135
   10SAPS  C314 1315   1.487   3.257   5.123 -0.4598 -0.3732  0.5566
   10SAPS  H14X 1316   1.463   3.366   5.123 -1.2389 -0.4865 -1.6855
   10SAPS  H14Y 1317   1.387   3.211   5.115 -1.1829  1.0069  1.3670
   10SAPS  C315 1318   1.577   3.221   5.001  0.2010  0.0458  0.2009
   10SAPS  H15X 1319   1.501   3.221   4.920 -0.1137  2.1611  0.4217
   10SAPS  H15Y 1320   1.621   3.120   5.013 -0.7706 -0.4812 -0.4897
   10SAPS  C316 1321   1.687   3.317   4.960  0.6282 -0.0367  0.2980
   10SAPS  H16X 1322   1.752   3.261   4.889 -0.2652 -0.8104  0.0604
   10SAPS  H16Y 1323   1.740   3.341   5.055 -0.6862 -0.4994  1.1860
   10SAPS  C317 1324   1.647   3.453   4.907 -0.0975  0.4993  0.0256
   10SAPS  H17X 1325   1.538   3.471   4.912 -0.3063 -0.9632  1.9110
   10SAPS  H17Y 1326   1.661   3.446   4.797 -1.8110 -1.2226 -0.1433
   10SAPS  C318 1327   1.709   3.584   4.955 -0.3321  0.1639  0.0518
   10SAPS  H18X 1328   1.650   3.610   5.045  1.8803  2.2421  1.0395
   10SAPS  H18Y 1329   1.695   3.660   4.874 -0.6158 -0.0212 -0.0731
   10SAPS  H18Z 1330   1.815   3.570   4.987  0.2267  2.7077 -0.4246
   11SAPS     N 1331   1.988   1.797   2.503 -0.2749 -0.5315 -0.3085
   11SAPS   HN1 1332   1.986   1.827   2.602  0.9570 -1.0058 -0.1201
   11SAPS   HN2 1333   2.073   1.738   2.492  0.6321  0.7735 -0.5539
   11SAPS   HN3 1334   2.010   1.882   2.446  2.5220  0.3299  1.8434
   11SAPS   C12 1335   1.868   1.728   2.454 -0.0180 -0.1678  0.3258
   11SAPS  H12A 1336   1.780   1.791   2.455  1.3433  1.8148  1.2270
   11SAPS   C13 1337   1.881   1.659   2.316 -0.1253 -0.7690  0.9570
   11SAPS  O13A 1338   1.983   1.680   2.240  0.1687 -0.2736  0.0732
   11SAPS  O13B 1339   1.780   1.590   2.277 -0.5457  0.2738  0.0515
   11SAPS   C11 1340   1.842   1.606   2.550  0.4222  0.1797 -0.7237
   11SAPS  H11A 1341   1.936   1.546   2.558 -0.0417 -0.4510  0.1302
   11SAPS  H11B 1342   1.770   1.533   2.506  1.3926 -1.7878  0.7660
   11SAPS     P 1343   1.640   1.659   2.712  0.0647 -0.4485  0.1276
   11SAPS   O13 1344   1.568   1.755   2.619 -0.1398  0.0103  0.1926
   11SAPS   O14 1345   1.585   1.520   2.737  0.3739 -0.1647 -0.1722
   11SAPS   O12 1346   1.792   1.644   2.678  0.0717  0.1898  0.1642
   11SAPS   O11 1347   1.627   1.725   2.852  0.3544 -0.5530 -0.2448
   11SAPS    C1 1348   1.748   1.764   2.929  0.8715  0.7526 -0.7098
   11SAPS    HA 1349   1.836   1.696   2.925 -0.3497 -0.9825  0.1673
   11SAPS    HB 1350   1.777   1.864   2.891  0.9230  0.1005 -2.4675
   11SAPS    C2 1351   1.707   1.788   3.081 -0.3580 -0.1442  0.2794
   11SAPS    HS 1352   1.785   1.848   3.131 -0.4621 -1.8483  2.6729
   11SAPS   O21 1353   1.709   1.661   3.148  0.2292 -0.8086 -0.8455
   11SAPS   C21 1354   1.827   1.606   3.179  0.1715 -0.0587  0.4106
   11SAPS   O22 1355   1.931   1.646   3.138  0.3911  0.4308 -0.0726
   11SAPS   C22 1356   1.808   1.476   3.256  0.2178 -0.0662  0.2622
   11SAPS   H2R 1357   1.748   1.404   3.197  1.3932 -1.3246  0.5295
   11SAPS   H2S 1358   1.911   1.434   3.265 -0.2489 -0.8164  2.9968
   11SAPS    C3 1359   1.562   1.842   3.104 -0.8298 -0.1366 -0.6293
   11SAPS    HX 1360   1.500   1.763   3.056  0.1546 -1.4827  0.2449
   11SAPS    HY 1361   1.560   1.940   3.051 -0.8735  1.5135  2.2333
   11SAPS   O31 1362   1.551   1.857   3.252 -0.0378  0.0452 -0.3062
   11SAPS   C31 1363   1.447   1.793   3.305  0.6445  0.4188 -0.1716
   11SAPS   O32 1364   1.377   1.713   3.250  0.0550  0.8487 -0.0870
   11SAPS   C32 1365   1.429   1.845   3.449  0.0438  0.9198  0.3028
   11SAPS   H2X 1366   1.391   1.759   3.508 -1.7446  0.7781 -0.9758
   11SAPS   H2Y 1367   1.362   1.934   3.451  0.9368  1.5896  0.9997
   11SAPS   C23 1368   1.761   1.498   3.406  0.2306  0.2809 -0.0477
   11SAPS   H3R 1369   1.659   1.540   3.407 -0.6220 -1.6155 -1.1647
   11SAPS   H3S 1370   1.833   1.564   3.459 -1.4037  1.6023  0.5879
   11SAPS   C24 1371   1.756   1.363   3.482 -1.4083  0.3403 -0.9154
   11SAPS   H4R 1372   1.687   1.294   3.428 -2.0526 -0.0528  0.3661
   11SAPS   H4S 1373   1.706   1.374   3.580  3.1686  0.7889  1.6933
   11SAPS   C25 1374   1.898   1.312   3.510  0.2810  0.0291  0.7061
   11SAPS   H5R 1375   1.947   1.272   3.420  0.7352  2.7227 -0.3261
   11SAPS   C26 1376   1.967   1.311   3.627 -0.1358 -0.2354  0.7966
   11SAPS   H6R 1377   2.066   1.263   3.619  0.1171  0.4411 -0.3542
   11SAPS   C27 1378   1.911   1.359   3.752 -0.4561 -0.2142 -0.7231
   11SAPS   H7R 1379   1.833   1.291   3.794 -0.9368  0.0151 -1.2326
   11SAPS   H7S 1380   1.860   1.455   3.728 -0.6625  0.2300  1.2940
   11SAPS   C28 1381   2.020   1.396   3.848  0.2733 -0.3584  0.6887
   11SAPS   H8R 1382   2.102   1.323   3.859 -2.8729 -4.2968  0.3332
   11SAPS   C29 1383   2.021   1.505   3.933  0.4972  0.6585 -0.0819
   11SAPS   H9R 1384   2.107   1.504   4.003  0.8266 -2.1303 -0.4240
   11SAPS  C210 1385   1.916   1.610   3.956  0.6978 -0.1584 -0.9247
   11SAPS  H10R 1386   1.906   1.611   4.066 -2.3919  0.3114 -1.1299
   11SAPS  H10S 1387   1.812   1.578   3.934  0.6725 -0.3416 -0.5494
   11SAPS  C211 1388   1.941   1.750   3.901 -0.1975  0.4395 -0.5209
   11SAPS  H11R 1389   1.944   1.748   3.791 -0.4727 -1.1062 -0.5170
   11SAPS  C212 1390   1.959   1.862   3.975  0.2463 -0.2370 -0.0830
   11SAPS  H12R 1391   1.968   1.953   3.914  0.4779  0.1424  0.5090
   11SAPS  C213 1392   1.938   1.875   4.123  0.4118 -0.0400 -0.2032
   11SAPS  H13R 1393   2.014   1.811   4.173 -1.2311 -0.7366  1.4760
   11SAPS  H13S 1394   1.848   1.814   4.144 -0.2187  1.0999  0.5144
   11SAPS  C214 1395   1.920   2.019   4.172  0.1038 -0.0978  0.8802
   11SAPS  H14R 1396   1.884   2.097   4.104  0.9896  1.3463  2.0066
   11SAPS  C215 1397   1.948   2.049   4.300  0.2836  0.7394 -0.2871
   11SAPS  H15R 1398   1.958   2.154   4.330  2.6383  0.6021 -0.3964
   11SAPS  C216 1399   1.991   1.958   4.409 -0.2923  0.2848 -0.7687
   11SAPS  H16R 1400   2.100   1.938   4.403 -0.5848 -1.0674 -2.0509
   11SAPS  H16S 1401   1.950   1.856   4.400  0.9025 -0.1671 -1.4040
   11SAPS  C217 1402   1.972   2.016   4.541 -0.7226  0.0288  0.2888
   11SAPS  H17R 1403   1.865   2.033   4.565 -0.7596 -0.0602  0.1848
   11SAPS  H17S 1404   2.030   2.109   4.561  1.7056 -1.0917 -1.0544
   11SAPS  C218 1405   2.008   1.910   4.657 -0.2879 -1.1532 -0.2405
   11SAPS  H18R 1406   2.093   1.843   4.632 -1.4743 -2.7122 -0.2641
   11SAPS  H18S 1407   1.914   1.851   4.671 -0.1024 -1.6710 -1.1055
   11SAPS  C219 1408   2.061   1.978   4.786 -0.4574  0.1253  0.2248
   11SAPS  H19R 1409   2.155   2.037   4.784 -0.9348  1.1221  2.8497
   11SAPS  H19S 1410   2.076   1.899   4.862 -0.8576 -0.9447 -0.7791
   11SAPS  C220 1411   1.955   2.071   4.848  0.3565  0.3998 -0.9549
   11SAPS  H20R 1412   1.990   2.111   4.946 -0.7385 -1.0797  0.0924
   11SAPS  H20S 1413   1.856   2.022   4.861  1.0886 -0.7267  0.7269
   11SAPS  H20T 1414   1.930   2.163   4.792 -1.1396  0.6964  0.1284
   11SAPS   C33 1415   1.556   1.892   3.519  0.7275 -0.0058 -0.0266
   11SAPS   H3X 1416   1.596   1.975   3.457 -2.0529  0.0719 -1.8785
   11SAPS   H3Y 1417   1.625   1.804   3.519  0.4324 -0.2816 -1.7442
   11SAPS   C34 1418   1.531   1.950   3.656  0.1852 -0.1910 -0.9059
   11SAPS   H4X 1419   1.500   1.881   3.737  1.6336  3.0708  2.7543
   11SAPS   H4Y 1420   1.452   2.028   3.654 -1.4079 -1.7615 -2.2986
   11SAPS   C35 1421   1.666   2.015   3.696 -0.7533 -0.3299  0.3205
   11SAPS   H5X 1422   1.698   2.078   3.611 -2.4205 -1.5212 -1.2495
   11SAPS   H5Y 1423   1.742   1.936   3.715 -0.7111 -0.7877 -1.6129
   11SAPS   C36 1424   1.659   2.120   3.811 -0.0854  0.0726 -0.4964
   11SAPS   H6X 1425   1.603   2.211   3.780  0.3286 -0.3115 -2.4574
   11SAPS   H6Y 1426   1.763   2.152   3.834 -0.6136  1.1933  0.4599
   11SAPS   C37 1427   1.590   2.050   3.931 -0.1079  0.1065  0.0819
   11SAPS   H7X 1428   1.643   1.954   3.943 -1.6876 -0.7876  0.2450
   11SAPS   H7Y 1429   1.486   2.020   3.904  0.3540 -1.0859 -0.4476
   11SAPS   C38 1430   1.594   2.126   4.066  0.3576  0.4134  1.4440
   11SAPS   H8X 1431   1.576   2.232   4.035  0.3045 -0.3548 -1.5140
   11SAPS   H8Y 1432   1.702   2.131   4.091  1.3452  0.2400 -2.1181
   11SAPS   C39 1433   1.503   2.058   4.164  0.3898 -0.1882 -0.8843
   11SAPS   H9X 1434   1.527   1.951   4.178  1.6107  0.0901 -0.7279
   11SAPS   H9Y 1435   1.406   2.061   4.109  0.6139  1.8642 -1.2753
   11SAPS  C310 1436   1.488   2.150   4.290  0.2009 -0.2195 -0.0589
   11SAPS  H10X 1437   1.411   2.227   4.271 -2.1009 -2.6091 -1.1442
   11SAPS  H10Y 1438   1.588   2.193   4.313 -0.7676  0.6761  2.8545
   11SAPS  C311 1439   1.456   2.075   4.418  0.3582  0.0415 -0.8387
   11SAPS  H11X 1440   1.354   2.034   4.411 -0.2517  1.3473 -0.0380
   11SAPS  H11Y 1441   1.469   2.151   4.499  2.2389 -0.7732 -0.3103
   11SAPS  C312 1442   1.558   1.965   4.468  0.4939  0.2865 -0.8437
   11SAPS  H12X 1443   1.662   1.978   4.429  0.7232  1.4482  0.1110
   11SAPS  H12Y 1444   1.516   1.863   4.454  1.1795 -0.6598  2.9649
   11SAPS  C313 1445   1.572   1.985   4.621  0.1981 -0.1267 -0.4582
   11SAPS  H13X 1446   1.637   2.071   4.647 -0.7761  0.3835  0.3483
   11SAPS  H13Y 1447   1.630   1.901   4.663  0.9786 -0.2097 -1.6397
   11SAPS  C314 1448   1.444   1.982   4.700 -0.3723 -0.3599 -0.0117
   11SAPS  H14X 1449   1.404   1.879   4.709  2.4858 -1.5750 -0.3623
   11SAPS  H14Y 1450   1.364   2.044   4.652  0.8298  3.9883  2.9395
   11SAPS  C315 1451   1.459   2.046   4.841  0.0622 -0.1788 -0.1766
   11SAPS  H15X 1452   1.356   2.048   4.884  0.3726  3.0502  0.6436
   11SAPS  H15Y 1453   1.505   2.146   4.833 -0.9599  0.6133  2.6237
   11SAPS  C316 1454   1.543   1.969   4.936 -0.6881 -0.0021 -0.1847
   11SAPS  H16X 1455   1.642   1.954   4.887 -0.8272 -0.7973 -0.2288
   11SAPS  H16Y 1456   1.501   1.867   4.950 -0.3765 -0.1275 -0.1522
   11SAPS  C317 1457   1.571   2.037   5.071 -0.2197 -0.9151  0.2799
   11SAPS  H17X 1458   1.475   2.034   5.128  1.3370  0.7475  3.1967
   11SAPS  H17Y 1459   1.573   2.146   5.047  1.4106 -0.8351  0.7084
   11SAPS  C318 1460   1.699   2.000   5.148 -0.5635 -0.1220 -0.0758
   11SAPS  H18X 1461   1.740   2.085   5.206  0.6501 -0.2321 -0.7290
   11SAPS  H18Y 1462   1.790   1.993   5.083  0.0053 -1.3471  0.8076
   11SAPS  H18Z 1463   1.704   1.911   5.215  1.9462  0.4287  0.5784
   12SAPS     N 1464   2.557   1.586   2.575  0.1202 -0.3110 -0.7105
   12SAPS   HN1 1465   2.566   1.681   2.534 -0.9167  0.8249  1.5300
   12SAPS   HN2 1466   2.611   1.585   2.664 -0.6058 -1.2464 -0.2538
   12SAPS   HN3 1467   2.604   1.527   2.503  1.5321 -0.8170  0.5823
   12SAPS   C12 1468   2.418   1.562   2.611 -0.2403 -0.4649 -0.5788
   12SAPS  H12A 1469   2.407   1.611   2.706  0.8590  0.1345 -0.7476
   12SAPS   C13 1470   2.329   1.650   2.521 -0.7936  0.3977 -0.3416
   12SAPS  O13A 1471   2.379   1.712   2.417  0.5146 -0.5642  0.0508
   12SAPS  O13B 1472   2.211   1.619   2.520  0.4549  0.2007  0.2428
   12SAPS   C11 1473   2.372   1.412   2.607 -0.2614 -0.0843 -0.0238
   12SAPS  H11A 1474   2.367   1.378   2.502 -0.6549  1.4544 -0.5187
   12SAPS  H11B 1475   2.265   1.407   2.638  0.0779 -0.3149  1.1921
   12SAPS     P 1476   2.438   1.300   2.841  0.0298 -0.2966  0.1950
   12SAPS   O13 1477   2.304   1.239   2.856 -0.1155 -0.3471  0.0006
   12SAPS   O14 1478   2.555   1.218   2.892 -0.4009  0.1830  0.4684
   12SAPS   O12 1479   2.464   1.336   2.690 -0.2052  0.2117  0.6854
   12SAPS   O11 1480   2.430   1.439   2.906  0.1488  0.3846  0.0238
   12SAPS    C1 1481   2.552   1.477   2.976 -0.0310 -0.2807  0.4667
   12SAPS    HA 1482   2.644   1.425   2.940 -0.3531  0.0854 -0.9287
   12SAPS    HB 1483   2.573   1.583   2.951  3.1180 -1.2203 -1.4531
   12SAPS    C2 1484   2.533   1.456   3.132  0.5140  0.2561 -0.0495
   12SAPS    HS 1485   2.532   1.348   3.154  3.6140  0.2040  0.2205
   12SAPS   O21 1486   2.418   1.539   3.171 -0.4117  0.9553 -0.1786
   12SAPS   C21 1487   2.342   1.489   3.274  0.2145 -0.3047 -0.1215
   12SAPS   O22 1488   2.356   1.384   3.332  0.3506 -0.3818 -0.4765
   12SAPS   C22 1489   2.218   1.583   3.291 -0.0951  0.2200  0.3299
   12SAPS   H2R 1490   2.216   1.630   3.191 -0.6899  2.8517  1.4792
   12SAPS   H2S 1491   2.124   1.531   3.322 -0.7289  0.6953 -0.7460
   12SAPS    C3 1492   2.658   1.498   3.203 -0.4463  0.4775 -0.4207
   12SAPS    HX 1493   2.667   1.608   3.191  1.6488  0.5495  1.1281
   12SAPS    HY 1494   2.751   1.467   3.150 -0.8813  0.6732 -1.3164
   12SAPS   O31 1495   2.653   1.463   3.344  0.8180  0.3235  0.5572
   12SAPS   C31 1496   2.688   1.340   3.361  0.8443  0.5542 -0.4905
   12SAPS   O32 1497   2.732   1.259   3.278 -0.3490 -0.0309 -0.4430
   12SAPS   C32 1498   2.697   1.325   3.510  0.3392  0.3843 -0.1020
   12SAPS   H2X 1499   2.631   1.399   3.559 -0.4986  0.1717 -0.8841
   12SAPS   H2Y 1500   2.799   1.351   3.545 -0.2521  0.3482  1.8022
   12SAPS   C23 1501   2.249   1.689   3.391  0.6764 -0.2535 -0.7155
   12SAPS   H3R 1502   2.186   1.779   3.373 -1.6840 -1.1276  2.4605
   12SAPS   H3S 1503   2.357   1.718   3.393  0.3694  0.9932 -1.1980
   12SAPS   C24 1504   2.202   1.643   3.534 -0.1039  0.5350 -0.4629
   12SAPS   H4R 1505   2.091   1.644   3.531 -0.1704  0.9646  1.2325
   12SAPS   H4S 1506   2.218   1.727   3.605  0.2153 -0.5087  0.7505
   12SAPS   C25 1507   2.255   1.516   3.597 -0.0026 -0.4826 -0.7566
   12SAPS   H5R 1508   2.236   1.418   3.550  0.1093 -0.7463 -0.2613
   12SAPS   C26 1509   2.351   1.515   3.689  0.0300 -0.2827 -0.4008
   12SAPS   H6R 1510   2.381   1.421   3.737 -0.6815  0.4799  1.6111
   12SAPS   C27 1511   2.420   1.633   3.747 -0.5323 -0.0330 -0.2243
   12SAPS   H7R 1512   2.432   1.710   3.668 -0.1153 -0.0108 -0.1435
   12SAPS   H7S 1513   2.525   1.615   3.776 -0.4268  1.9822  0.8685
   12SAPS   C28 1514   2.348   1.700   3.863  0.6703 -0.3807  0.2504
   12SAPS   H8R 1515   2.239   1.697   3.852  0.6136 -0.5859  0.8186
   12SAPS   C29 1516   2.407   1.765   3.971  0.0369 -0.0183 -0.1819
   12SAPS   H9R 1517   2.334   1.835   4.014 -2.0018 -0.8983 -2.0178
   12SAPS  C210 1518   2.551   1.784   4.006 -0.0501  0.0331 -0.7293
   12SAPS  H10R 1519   2.556   1.874   4.071  1.2526 -1.0480  0.7647
   12SAPS  H10S 1520   2.611   1.798   3.914  0.4382  0.1795 -0.3877
   12SAPS  C211 1521   2.618   1.670   4.081  0.3549  0.2537 -0.4835
   12SAPS  H11R 1522   2.578   1.573   4.047  0.9264 -0.2390  0.2055
   12SAPS  C212 1523   2.708   1.673   4.179 -0.1309 -0.0329 -0.4968
   12SAPS  H12R 1524   2.746   1.581   4.227  1.4053  0.1959 -1.2132
   12SAPS  C213 1525   2.778   1.801   4.222  0.0653  0.1369 -0.6378
   12SAPS  H13R 1526   2.829   1.772   4.317 -1.8755 -3.8713 -0.6303
   12SAPS  H13S 1527   2.705   1.881   4.247  1.7356  1.0528  1.7635
   12SAPS  C214 1528   2.875   1.869   4.125 -0.0294 -0.5503 -0.8630
   12SAPS  H14R 1529   2.838   1.869   4.022 -0.6269  0.8186 -0.6684
   12SAPS  C215 1530   2.986   1.944   4.162  0.1620  0.1042 -0.4289
   12SAPS  H15R 1531   3.045   1.992   4.083  3.1171  0.3492  1.7520
   12SAPS  C216 1532   3.030   1.960   4.308 -0.0107  0.5038  0.2929
   12SAPS  H16R 1533   3.027   1.865   4.366 -2.6389  0.6066  0.4222
   12SAPS  H16S 1534   2.975   2.041   4.360 -0.1977  0.6090 -0.0699
   12SAPS  C217 1535   3.177   2.008   4.313  0.1340 -0.4038 -0.2078
   12SAPS  H17R 1536   3.184   2.107   4.262 -2.1358  0.1872  0.5427
   12SAPS  H17S 1537   3.249   1.937   4.267 -0.3186 -1.4608  0.6733
   12SAPS  C218 1538   3.239   2.033   4.457  0.4815 -0.1137  0.5023
   12SAPS  H18R 1539   3.349   2.043   4.448  0.4090 -0.3337 -0.7931
   12SAPS  H18S 1540   3.224   1.945   4.524 -0.5369  0.1508  0.6390
   12SAPS  C219 1541   3.192   2.157   4.528 -0.3684  0.0213 -0.5404
   12SAPS  H19R 1542   3.081   2.157   4.522 -0.6846  1.1729  3.0437
   12SAPS  H19S 1543   3.228   2.243   4.467  1.6496  1.0059  1.8855
   12SAPS  C220 1544   3.234   2.180   4.673 -0.0428 -0.5515  0.3799
   12SAPS  H20R 1545   3.213   2.090   4.734 -0.7406 -0.6906 -0.0483
   12SAPS  H20S 1546   3.188   2.271   4.719 -0.2092 -0.9219  0.9517
   12SAPS  H20T 1547   3.343   2.199   4.672  0.1234 -1.4724  0.0206
   12SAPS   C33 1548   2.668   1.179   3.559  0.3237  1.0218  0.2984
   12SAPS   H3X 1549   2.730   1.110   3.497 -1.3716 -0.6512  0.3530
   12SAPS   H3Y 1550   2.565   1.149   3.530  1.0507 -1.0858 -0.3349
   12SAPS   C34 1551   2.696   1.151   3.705  0.0964 -0.6846 -0.5104
   12SAPS   H4X 1552   2.805   1.164   3.723 -0.1174  0.0930  0.3043
   12SAPS   H4Y 1553   2.664   1.047   3.724 -0.6181 -0.7804 -2.0360
   12SAPS   C35 1554   2.615   1.255   3.790 -0.0741 -0.0637  0.0121
   12SAPS   H5X 1555   2.514   1.259   3.745 -0.5852  0.8756  1.2159
   12SAPS   H5Y 1556   2.655   1.358   3.781  0.1867 -0.1812 -0.2381
   12SAPS   C36 1557   2.631   1.220   3.935  0.7397  0.0545  0.3357
   12SAPS   H6X 1558   2.618   1.112   3.960  1.3811 -0.3891 -1.1175
   12SAPS   H6Y 1559   2.556   1.286   3.984 -2.1012 -1.4338 -1.7583
   12SAPS   C37 1560   2.769   1.270   3.992  0.2063 -0.1660  0.5446
   12SAPS   H7X 1561   2.797   1.369   3.951  1.5659 -0.7629 -0.0072
   12SAPS   H7Y 1562   2.849   1.198   3.963  1.8028  1.0280  1.8059
   12SAPS   C38 1563   2.779   1.279   4.143  0.2761  0.3342  0.8904
   12SAPS   H8X 1564   2.742   1.181   4.179 -0.7682  0.5053  0.3213
   12SAPS   H8Y 1565   2.713   1.358   4.185  1.8039  2.4803 -0.5277
   12SAPS   C39 1566   2.926   1.275   4.194  0.3248  0.3091 -0.0835
   12SAPS   H9X 1567   2.982   1.194   4.143 -0.2455 -1.8381  2.4814
   12SAPS   H9Y 1568   2.926   1.241   4.300  0.7396 -1.3684 -0.5969
   12SAPS  C310 1569   2.989   1.418   4.181  0.2111 -0.6866  0.6788
   12SAPS  H10X 1570   2.954   1.479   4.266 -0.3725 -0.3303  0.1862
   12SAPS  H10Y 1571   2.958   1.473   4.090 -0.6857 -1.8499  0.2530
   12SAPS  C311 1572   3.147   1.418   4.203 -0.4697 -0.2872  0.5681
   12SAPS  H11X 1573   3.191   1.384   4.106 -0.8983 -0.7412  0.5298
   12SAPS  H11Y 1574   3.162   1.353   4.292  1.8622  1.2062  1.3676
   12SAPS  C312 1575   3.198   1.556   4.232  0.3258  0.4054 -0.6059
   12SAPS  H12X 1576   3.140   1.594   4.319 -0.1166 -2.5883  0.5201
   12SAPS  H12Y 1577   3.188   1.611   4.136 -0.5007  0.7727 -0.3157
   12SAPS  C313 1578   3.354   1.562   4.274 -0.1283  0.4076  0.4340
   12SAPS  H13X 1579   3.373   1.667   4.304 -1.0296  0.9610 -0.8234
   12SAPS  H13Y 1580   3.423   1.540   4.190 -0.7374 -0.0152  0.0322
   12SAPS  C314 1581   3.393   1.473   4.383 -0.4726 -0.0336  0.2623
   12SAPS  H14X 1582   3.363   1.366   4.373 -1.0680 -0.1303  2.5091
   12SAPS  H14Y 1583   3.340   1.510   4.473 -0.7859  0.1018  0.0237
   12SAPS  C315 1584   3.553   1.474   4.408  0.4336  0.0758  0.1101
   12SAPS  H15X 1585   3.596   1.571   4.442 -0.5165  0.6622 -0.3066
   12SAPS  H15Y 1586   3.608   1.447   4.316 -3.2028  1.2410 -2.6417
   12SAPS  C316 1587   3.596   1.371   4.513 -0.1626  0.4539 -0.3726
   12SAPS  H16X 1588   3.705   1.390   4.515  0.2973 -1.5793 -2.0814
   12SAPS  H16Y 1589   3.582   1.262   4.492 -1.2555  0.5014  0.0270
   12SAPS  C317 1590   3.521   1.397   4.650 -0.1852  0.0555  0.0626
   12SAPS  H17X 1591   3.414   1.425   4.641 -0.0626  0.3397 -0.6009
   12SAPS  H17Y 1592   3.575   1.484   4.693 -0.9458  0.5733 -0.0168
   12SAPS  C318 1593   3.518   1.289   4.757  0.1706 -0.1554 -0.6855
   12SAPS  H18X 1594   3.622   1.264   4.787  0.6098  1.5768 -0.6934
   12SAPS  H18Y 1595   3.471   1.197   4.715  0.5269 -1.6743  1.9913
   12SAPS  H18Z 1596   3.476   1.335   4.849  1.8223 -1.0840  0.5857
   13SAPS     N 1597   4.944   6.142   2.345 -0.3613 -0.8075 -0.2190
   13SAPS   HN1 1598   5.019   6.161   2.276 -2.3380  1.4678 -1.9186
   13SAPS   HN2 1599   4.863   6.199   2.314  0.4623  0.2330 -0.5383
   13SAPS   HN3 1600   4.972   6.165   2.442  1.6188  1.0336 -1.1371
   13SAPS   C12 1601   4.912   5.997   2.352  0.0558  0.6835 -0.3330
   13SAPS  H12A 1602   4.909   5.963   2.250  0.8591  1.1094 -0.5112
   13SAPS   C13 1603   5.027   5.912   2.418  0.4910  0.4448  0.1547
   13SAPS  O13A 1604   5.136   5.962   2.456  0.0068  0.3849  0.2241
   13SAPS  O13B 1605   4.996   5.787   2.443  0.3185  0.0244  0.8468
   13SAPS   C11 1606   4.776   5.973   2.427  0.0353 -0.3813  0.2801
   13SAPS  H11A 1607   4.794   6.024   2.524  3.6104 -0.9144  0.0362
   13SAPS  H11B 1608   4.765   5.866   2.457  0.7707 -0.6949 -0.5146
   13SAPS     P 1609   4.599   6.152   2.388  0.2846  0.1409  0.0715
   13SAPS   O13 1610   4.697   6.262   2.375  0.2126  0.2004 -0.5096
   13SAPS   O14 1611   4.475   6.164   2.303 -0.7318 -0.1403 -0.6855
   13SAPS   O12 1612   4.667   6.014   2.347  0.1758 -0.6472  0.3788
   13SAPS   O11 1613   4.553   6.144   2.540  0.0346  0.1048  0.1704
   13SAPS    C1 1614   4.477   6.039   2.595 -0.2212  0.4983  0.1859
   13SAPS    HA 1615   4.378   6.035   2.544 -0.2272 -0.3682  0.2426
   13SAPS    HB 1616   4.531   5.943   2.584 -1.3436 -0.0146 -1.1074
   13SAPS    C2 1617   4.463   6.045   2.750 -0.6150  0.5394 -0.0844
   13SAPS    HS 1618   4.439   6.150   2.778 -0.7293  0.5794 -0.3275
   13SAPS   O21 1619   4.594   6.016   2.806  0.1254  0.1219 -0.3753
   13SAPS   C21 1620   4.676   6.117   2.824 -0.7781 -0.2860  0.5827
   13SAPS   O22 1621   4.652   6.238   2.807  0.4618  0.4219  0.2239
   13SAPS   C22 1622   4.805   6.068   2.896 -0.0759 -0.0581  0.0395
   13SAPS   H2R 1623   4.808   5.960   2.870 -0.3493  0.0028 -0.2466
   13SAPS   H2S 1624   4.888   6.119   2.842 -0.2989  0.8865  0.5726
   13SAPS    C3 1625   4.356   5.948   2.804  0.1270 -0.0469 -0.2363
   13SAPS    HX 1626   4.391   5.848   2.771 -0.0104 -0.1706 -0.0129
   13SAPS    HY 1627   4.257   5.964   2.755  0.4024  0.7566 -0.5502
   13SAPS   O31 1628   4.349   5.965   2.946  0.1949 -0.5911  0.0604
   13SAPS   C31 1629   4.400   5.870   3.016  0.0951 -0.0735 -0.0300
   13SAPS   O32 1630   4.442   5.763   2.977  0.6030 -0.0863  0.0801
   13SAPS   C32 1631   4.403   5.920   3.160 -0.6256  1.0064 -1.0671
   13SAPS   H2X 1632   4.300   5.903   3.198  0.5436  1.2228  2.5219
   13SAPS   H2Y 1633   4.425   6.029   3.163 -1.6717  1.2078  1.1156
   13SAPS   C23 1634   4.815   6.082   3.043  0.0552 -0.1662 -0.3611
   13SAPS   H3R 1635   4.720   6.048   3.091  0.0827 -0.8754 -0.7971
   13SAPS   H3S 1636   4.826   6.190   3.066  1.1354 -0.6151  1.4648
   13SAPS   C24 1637   4.954   6.029   3.090  0.2336  0.0435 -0.0426
   13SAPS   H4R 1638   4.961   6.073   3.192 -0.5605  1.0770 -0.4031
   13SAPS   H4S 1639   5.029   6.072   3.020 -0.2495 -0.8499 -1.1351
   13SAPS   C25 1640   4.962   5.876   3.099  0.0060  0.1262 -0.1825
   13SAPS   H5R 1641   4.952   5.834   2.997  0.7882 -1.8572  0.4980
   13SAPS   C26 1642   4.956   5.810   3.216 -0.6765  0.5905  0.3905
   13SAPS   H6R 1643   4.964   5.700   3.216  0.1349  0.6116 -1.1838
   13SAPS   C27 1644   4.951   5.877   3.353 -0.3622  0.1090  0.2738
   13SAPS   H7R 1645   4.878   5.961   3.348  0.0358  0.4796  0.5912
   13SAPS   H7S 1646   5.057   5.899   3.378 -0.0472 -2.3663  1.4243
   13SAPS   C28 1647   4.912   5.782   3.462  0.2196  0.1236  0.2461
   13SAPS   H8R 1648   4.896   5.677   3.433 -3.5687  0.7261 -0.3570
   13SAPS   C29 1649   4.905   5.818   3.592 -0.1090  0.1411  0.2419
   13SAPS   H9R 1650   4.902   5.746   3.675  1.3103 -0.3417 -0.1060
   13SAPS  C210 1651   4.903   5.955   3.656 -0.5202 -0.1100 -0.3221
   13SAPS  H10R 1652   4.806   5.955   3.709  0.1557 -1.9002  1.0107
   13SAPS  H10S 1653   4.904   6.042   3.587 -2.3758  0.8841  0.8433
   13SAPS  C211 1654   5.006   5.996   3.756  0.3385 -0.4073  0.4265
   13SAPS  H11R 1655   5.076   6.074   3.720  1.3392 -1.5264 -0.1162
   13SAPS  C212 1656   5.013   5.952   3.884  0.6076 -0.2220  0.5873
   13SAPS  H12R 1657   5.100   5.982   3.944  1.2763 -1.3839  0.2354
   13SAPS  C213 1658   4.926   5.854   3.959 -0.5966 -0.4426  0.1591
   13SAPS  H13R 1659   4.975   5.810   4.048 -3.0627 -2.1951  0.7388
   13SAPS  H13S 1660   4.896   5.769   3.895 -1.5426 -0.3966  0.5134
   13SAPS  C214 1661   4.804   5.930   4.002  0.4482  0.5383  0.1229
   13SAPS  H14R 1662   4.740   5.976   3.925 -0.4410  1.2678  1.2756
   13SAPS  C215 1663   4.768   5.939   4.131  0.2828  0.1028 -0.3423
   13SAPS  H15R 1664   4.678   5.996   4.157 -0.1759  0.2084 -2.0463
   13SAPS  C216 1665   4.849   5.892   4.246  0.1421 -0.1333  0.5907
   13SAPS  H16R 1666   4.944   5.839   4.222 -0.8818 -1.4805 -0.7110
   13SAPS  H16S 1667   4.796   5.805   4.292  2.7662 -0.8890  2.4408
   13SAPS  C217 1668   4.891   5.999   4.344 -0.3189  0.1125 -0.2496
   13SAPS  H17R 1669   4.975   6.068   4.319 -0.7146  1.5308  1.9894
   13SAPS  H17S 1670   4.914   5.943   4.437 -0.9421  0.4132  0.0926
   13SAPS  C218 1671   4.768   6.086   4.388 -0.6039  0.1549  0.4006
   13SAPS  H18R 1672   4.681   6.018   4.386 -0.2725 -0.2595 -0.6902
   13SAPS  H18S 1673   4.743   6.163   4.311  3.5001  0.9328 -0.4075
   13SAPS  C219 1674   4.785   6.136   4.536  0.0171  0.8312  0.3800
   13SAPS  H19R 1675   4.878   6.196   4.545  0.8723 -0.5456  1.0750
   13SAPS  H19S 1676   4.791   6.043   4.596  2.3247  0.4543 -0.3220
   13SAPS  C220 1677   4.668   6.208   4.587  0.0457 -0.3766  0.2142
   13SAPS  H20R 1678   4.701   6.305   4.629  1.8310 -0.8393 -0.0048
   13SAPS  H20S 1679   4.604   6.152   4.659  0.3342  0.9797  1.5893
   13SAPS  H20T 1680   4.606   6.243   4.503 -0.6766 -1.2968  0.3490
   13SAPS   C33 1681   4.499   5.851   3.258 -0.2913 -0.3027  0.4071
   13SAPS   H3X 1682   4.604   5.865   3.226  0.6997 -2.5910  2.3367
   13SAPS   H3Y 1683   4.494   5.740   3.250  1.4277 -0.3017 -1.7801
   13SAPS   C34 1684   4.487   5.900   3.403  0.1964  0.2595  0.0784
   13SAPS   H4X 1685   4.377   5.910   3.402 -0.0951 -2.1851 -0.9486
   13SAPS   H4Y 1686   4.547   5.994   3.398 -0.2283  0.5269 -4.4961
   13SAPS   C35 1687   4.533   5.813   3.517 -0.2717  0.2246 -0.4442
   13SAPS   H5X 1688   4.643   5.811   3.529 -0.4890 -1.2025  1.8238
   13SAPS   H5Y 1689   4.504   5.708   3.495 -1.4247  0.0528  1.6143
   13SAPS   C36 1690   4.465   5.850   3.657  1.0249  0.0915 -0.0392
   13SAPS   H6X 1691   4.355   5.856   3.644  1.1565  0.2996 -1.1479
   13SAPS   H6Y 1692   4.499   5.954   3.674 -0.5320  0.3121  1.9298
   13SAPS   C37 1693   4.504   5.767   3.773  0.8689 -0.3607  0.2580
   13SAPS   H7X 1694   4.611   5.796   3.773  0.3778  1.6285 -0.5884
   13SAPS   H7Y 1695   4.508   5.657   3.756  1.2016 -0.0228 -2.0959
   13SAPS   C38 1696   4.452   5.822   3.905  0.2984 -0.1191 -0.9842
   13SAPS   H8X 1697   4.342   5.835   3.892  0.4302  1.8222 -0.4428
   13SAPS   H8Y 1698   4.497   5.923   3.915  0.1707 -0.1606  0.1072
   13SAPS   C39 1699   4.494   5.740   4.028  0.2329 -0.0193 -0.0241
   13SAPS   H9X 1700   4.605   5.747   4.033  0.4108 -1.6174 -1.0411
   13SAPS   H9Y 1701   4.457   5.638   4.003  2.8451 -0.1649 -4.3884
   13SAPS  C310 1702   4.437   5.792   4.158  0.0139 -0.0856 -0.3222
   13SAPS  H10X 1703   4.327   5.776   4.156  0.3680 -3.6870  1.8332
   13SAPS  H10Y 1704   4.471   5.895   4.181 -0.9415  0.2489 -0.3290
   13SAPS  C311 1705   4.478   5.698   4.282  0.1927  0.9072 -0.7441
   13SAPS  H11X 1706   4.588   5.698   4.295  0.5560 -0.5728 -3.2222
   13SAPS  H11Y 1707   4.472   5.594   4.244 -0.8498  0.8161 -0.3774
   13SAPS  C312 1708   4.404   5.718   4.418  0.8887 -0.6534  0.5707
   13SAPS  H12X 1709   4.455   5.640   4.478  0.8297 -1.3011 -0.1890
   13SAPS  H12Y 1710   4.297   5.688   4.413  0.7303  0.1015 -1.5191
   13SAPS  C313 1711   4.425   5.855   4.485  0.2415  0.6136 -0.6630
   13SAPS  H13X 1712   4.338   5.919   4.460  1.2850  2.6202  0.5919
   13SAPS  H13Y 1713   4.520   5.899   4.449  1.9891  1.3182  4.0816
   13SAPS  C314 1714   4.432   5.854   4.635  0.0690 -0.0853 -0.3487
   13SAPS  H14X 1715   4.434   5.962   4.663 -0.3119  0.0049 -0.6658
   13SAPS  H14Y 1716   4.524   5.802   4.670 -0.4827 -0.4008  0.6596
   13SAPS  C315 1717   4.298   5.798   4.699  0.6251  0.5657  0.6330
   13SAPS  H15X 1718   4.283   5.691   4.672  0.3423  0.3402  1.6736
   13SAPS  H15Y 1719   4.204   5.846   4.664  1.4806  0.2447 -2.4479
   13SAPS  C316 1720   4.327   5.797   4.843  0.5731  0.1360 -0.0057
   13SAPS  H16X 1721   4.402   5.722   4.877  0.7496  1.4836  2.8250
   13SAPS  H16Y 1722   4.227   5.764   4.880  1.2519 -0.4264  1.4266
   13SAPS  C317 1723   4.353   5.928   4.919  0.2823 -0.1610 -0.0898
   13SAPS  H17X 1724   4.453   5.970   4.900  1.0475 -2.5456 -1.7830
   13SAPS  H17Y 1725   4.345   5.903   5.027  0.7005  2.1731  0.5258
   13SAPS  C318 1726   4.248   6.030   4.890  0.9392 -0.2450 -0.1241
   13SAPS  H18X 1727   4.263   6.071   4.788  1.6505 -0.5429 -0.1476
   13SAPS  H18Y 1728   4.259   6.117   4.958  0.8288  0.2255 -0.7050
   13SAPS  H18Z 1729   4.144   5.995   4.907  1.0436 -0.9230 -0.7861
   14SAPS     N 1730   3.618   0.305   2.703 -0.7354  0.3383  0.2511
   14SAPS   HN1 1731   3.667   0.244   2.772 -0.2201  0.2904 -0.1522
   14SAPS   HN2 1732   3.695   0.359   2.658 -0.9035  0.8011  0.5161
   14SAPS   HN3 1733   3.546   0.369   2.742 -0.2300 -0.1060  1.9873
   14SAPS   C12 1734   3.548   0.219   2.593  1.0553  0.1058 -0.2412
   14SAPS  H12A 1735   3.528   0.282   2.508 -0.6186 -1.3145 -0.9549
   14SAPS   C13 1736   3.624   0.096   2.545  1.0951 -0.0200 -0.3389
   14SAPS  O13A 1737   3.732   0.065   2.590 -0.3996 -0.0342 -0.2476
   14SAPS  O13B 1738   3.577   0.035   2.443 -0.4372  0.5158 -0.5951
   14SAPS   C11 1739   3.408   0.164   2.635  0.4025  0.5138 -0.1862
   14SAPS  H11A 1740   3.410   0.127   2.740 -1.7266 -1.5577 -0.7887
   14SAPS  H11B 1741   3.362   0.074   2.589  0.4020 -0.4691  1.6419
   14SAPS     P 1742   3.266   0.363   2.728 -0.4010  0.3987  0.2837
   14SAPS   O13 1743   3.384   0.414   2.798 -0.7469  0.3468 -0.0292
   14SAPS   O14 1744   3.173   0.463   2.676  0.5450  0.2156  0.2552
   14SAPS   O12 1745   3.301   0.260   2.617 -0.5661  0.2418 -0.0175
   14SAPS   O11 1746   3.200   0.263   2.833  0.6509  0.2925 -0.0989
   14SAPS    C1 1747   3.085   0.323   2.903 -0.6547 -0.1545  0.0797
   14SAPS    HA 1748   3.015   0.366   2.828 -1.8260 -1.2025  0.5503
   14SAPS    HB 1749   3.033   0.233   2.941 -1.5701 -0.3097 -1.4728
   14SAPS    C2 1750   3.115   0.425   3.018  0.3489 -0.1712  0.3515
   14SAPS    HS 1751   3.155   0.517   2.971 -1.8429  1.4719  1.5344
   14SAPS   O21 1752   3.201   0.360   3.111 -0.0582 -0.5811  0.2542
   14SAPS   C21 1753   3.264   0.454   3.184  0.5574  0.4543  0.9104
   14SAPS   O22 1754   3.243   0.575   3.193  0.1288 -0.4213  0.1798
   14SAPS   C22 1755   3.363   0.382   3.265  0.5079  0.3981  0.0363
   14SAPS   H2R 1756   3.301   0.330   3.341  0.1182  1.1629  0.2501
   14SAPS   H2S 1757   3.422   0.323   3.191  0.3664  0.2352  0.0535
   14SAPS    C3 1758   2.977   0.468   3.077  0.0693 -0.3954 -0.0156
   14SAPS    HX 1759   2.921   0.522   2.998  0.9187  1.9162  0.8925
   14SAPS    HY 1760   2.991   0.541   3.158  1.8147  0.4703 -1.0360
   14SAPS   O31 1761   2.905   0.346   3.110  0.4616 -0.1789  0.3700
   14SAPS   C31 1762   2.924   0.294   3.231 -0.0666 -0.6344 -0.0632
   14SAPS   O32 1763   3.008   0.332   3.307 -0.3066  0.2171 -0.2777
   14SAPS   C32 1764   2.834   0.163   3.252 -0.2185 -0.1705  0.6897
   14SAPS   H2X 1765   2.842   0.098   3.162  1.8348  1.9163 -0.7616
   14SAPS   H2Y 1766   2.729   0.198   3.254 -0.4291 -0.7752  0.4881
   14SAPS   C23 1767   3.466   0.464   3.349 -0.0051 -0.2581  0.4841
   14SAPS   H3R 1768   3.409   0.538   3.409 -0.5530 -0.5866  0.3720
   14SAPS   H3S 1769   3.541   0.510   3.282 -0.2824 -1.2688 -0.5575
   14SAPS   C24 1770   3.542   0.381   3.446  0.2837  0.6378  0.0616
   14SAPS   H4R 1771   3.637   0.429   3.477  0.8287  1.0630 -2.0611
   14SAPS   H4S 1772   3.573   0.290   3.389  1.5561 -0.6134  2.6056
   14SAPS   C25 1773   3.471   0.339   3.571 -0.7233  0.1445 -0.8461
   14SAPS   H5R 1774   3.405   0.414   3.617  1.0534 -0.5252  3.2705
   14SAPS   C26 1775   3.459   0.212   3.622  0.3867  0.7815  0.1572
   14SAPS   H6R 1776   3.403   0.192   3.714 -2.4545 -1.0888 -1.8005
   14SAPS   C27 1777   3.514   0.082   3.557 -0.2858 -0.6099  0.1539
   14SAPS   H7R 1778   3.602   0.048   3.617  1.2269  1.8487 -0.5230
   14SAPS   H7S 1779   3.557   0.098   3.456 -1.3774 -0.0580 -0.2428
   14SAPS   C28 1780   3.407  -0.027   3.545  0.6709 -0.9271 -0.4944
   14SAPS   H8R 1781   3.351  -0.023   3.450  0.4286  0.4855 -0.3093
   14SAPS   C29 1782   3.390  -0.128   3.630 -0.4841 -0.0360  0.2101
   14SAPS   H9R 1783   3.301  -0.193   3.619 -0.4706  0.0616 -0.5564
   14SAPS  C210 1784   3.482  -0.146   3.743  0.6459 -0.0729  0.1982
   14SAPS  H10R 1785   3.475  -0.072   3.826  1.3161 -1.6459  1.7215
   14SAPS  H10S 1786   3.586  -0.149   3.704  0.9524  0.8830  0.9069
   14SAPS  C211 1787   3.450  -0.275   3.806 -0.0016  0.0012 -0.1329
   14SAPS  H11R 1788   3.347  -0.291   3.841 -0.1855  2.1941  0.5394
   14SAPS  C212 1789   3.547  -0.370   3.825  0.2271 -0.3710 -0.3552
   14SAPS  H12R 1790   3.523  -0.456   3.888 -1.8553  0.5517  0.1897
   14SAPS  C213 1791   3.692  -0.362   3.804  0.3747  0.1241 -0.7896
   14SAPS  H13R 1792   3.728  -0.258   3.792  0.3847  0.0218 -1.8115
   14SAPS  H13S 1793   3.711  -0.427   3.715 -0.1458 -0.5827 -0.3922
   14SAPS  C214 1794   3.778  -0.413   3.917 -0.5349 -0.4215  0.2159
   14SAPS  H14R 1795   3.830  -0.507   3.892 -0.0497  0.2143 -1.2565
   14SAPS  C215 1796   3.811  -0.340   4.027  0.5558 -0.0263 -0.2218
   14SAPS  H15R 1797   3.861  -0.392   4.110  0.0626  0.3100  0.3011
   14SAPS  C216 1798   3.747  -0.210   4.073 -0.5497 -0.1661  0.4169
   14SAPS  H16R 1799   3.685  -0.164   3.993 -0.9068 -1.8632 -0.3272
   14SAPS  H16S 1800   3.830  -0.141   4.101  2.1169 -2.2005 -1.8566
   14SAPS  C217 1801   3.677  -0.238   4.207  0.1778  0.2108 -0.3136
   14SAPS  H17R 1802   3.747  -0.283   4.280 -0.9264 -0.1272  0.5579
   14SAPS  H17S 1803   3.593  -0.309   4.194 -0.9627  1.3761  0.3965
   14SAPS  C218 1804   3.597  -0.124   4.264  0.3131 -0.1219 -0.2878
   14SAPS  H18R 1805   3.539  -0.073   4.184  1.8469  1.4485 -0.4507
   14SAPS  H18S 1806   3.678  -0.053   4.291  1.7997 -2.1236  0.7998
   14SAPS  C219 1807   3.505  -0.157   4.387 -0.5243  0.0217  0.2595
   14SAPS  H19R 1808   3.561  -0.232   4.448  0.8276 -0.9339 -2.0257
   14SAPS  H19S 1809   3.415  -0.209   4.348  0.2794  0.5933 -2.5723
   14SAPS  C220 1810   3.463  -0.037   4.464 -0.5640 -0.2135  0.1656
   14SAPS  H20R 1811   3.419   0.043   4.402 -0.2450 -0.6982 -0.7079
   14SAPS  H20S 1812   3.550   0.009   4.515 -1.6837 -0.9596  2.9353
   14SAPS  H20T 1813   3.387  -0.063   4.541 -0.8943 -1.2416 -0.4883
   14SAPS   C33 1814   2.869   0.078   3.377 -0.8437 -0.0170 -0.5072
   14SAPS   H3X 1815   2.788   0.003   3.387  0.8453 -1.6351  2.0642
   14SAPS   H3Y 1816   2.877   0.147   3.464 -1.0833  1.2171 -1.4384
   14SAPS   C34 1817   3.005   0.006   3.384 -0.0822  0.3720  0.5069
   14SAPS   H4X 1818   3.083   0.084   3.400  1.0398 -0.8899  1.4055
   14SAPS   H4Y 1819   3.018  -0.050   3.289  2.0903 -2.5150  2.3488
   14SAPS   C35 1820   3.012  -0.107   3.486 -0.7000  0.0264 -0.5174
   14SAPS   H5X 1821   3.093  -0.179   3.464 -0.5829 -0.5923  1.6888
   14SAPS   H5Y 1822   2.914  -0.160   3.480 -0.5498 -0.1167 -2.0910
   14SAPS   C36 1823   3.044  -0.046   3.623 -0.1772 -0.1381 -0.5664
   14SAPS   H6X 1824   2.980   0.044   3.635 -0.1077  0.0793 -1.6918
   14SAPS   H6Y 1825   3.151  -0.016   3.620  0.1391 -1.2845 -1.8448
   14SAPS   C37 1826   3.029  -0.153   3.736  0.3669 -0.2131 -0.8040
   14SAPS   H7X 1827   3.092  -0.236   3.698  3.3795  1.4591  0.2436
   14SAPS   H7Y 1828   2.922  -0.184   3.740  0.0059  1.0377 -0.1007
   14SAPS   C38 1829   3.086  -0.102   3.868 -0.0591 -0.0265 -0.8439
   14SAPS   H8X 1830   3.030  -0.008   3.888  1.7756  0.9794 -0.2815
   14SAPS   H8Y 1831   3.192  -0.072   3.857 -0.0678  0.8580  1.1350
   14SAPS   C39 1832   3.061  -0.186   3.991 -0.2894  0.7049 -0.9972
   14SAPS   H9X 1833   3.120  -0.281   3.990 -3.6004 -1.5609  0.4352
   14SAPS   H9Y 1834   2.959  -0.230   3.991  0.0730 -0.2019  0.1543
   14SAPS  C310 1835   3.057  -0.109   4.125 -0.6203 -0.2916 -0.6775
   14SAPS  H10X 1836   2.978  -0.030   4.124  0.7564  1.1551  0.4708
   14SAPS  H10Y 1837   3.150  -0.048   4.127 -0.3529 -0.6890  1.5122
   14SAPS  C311 1838   3.050  -0.191   4.261  0.0955  0.5836 -0.3186
   14SAPS  H11X 1839   3.145  -0.248   4.267 -1.1468 -1.4105  2.2430
   14SAPS  H11Y 1840   2.964  -0.260   4.276  1.2997 -0.7997  0.4459
   14SAPS  C312 1841   3.050  -0.095   4.376 -0.6234 -0.3138  0.1069
   14SAPS  H12X 1842   2.955  -0.037   4.375 -0.5377 -0.1714 -1.3049
   14SAPS  H12Y 1843   3.137  -0.027   4.367  0.7027 -1.4688  2.8837
   14SAPS  C313 1844   3.067  -0.164   4.510 -0.3481 -0.3049 -0.3811
   14SAPS  H13X 1845   3.165  -0.215   4.506 -0.7022 -0.9293 -1.5669
   14SAPS  H13Y 1846   2.999  -0.251   4.524  0.8401 -1.2879 -0.4943
   14SAPS  C314 1847   3.040  -0.073   4.628  0.1336 -0.5089  0.2113
   14SAPS  H14X 1848   2.956  -0.004   4.604 -0.6711 -1.3367  0.5455
   14SAPS  H14Y 1849   3.135  -0.025   4.660  1.9515 -2.9151 -1.3109
   14SAPS  C315 1850   3.002  -0.161   4.751  0.4897 -0.8875 -0.2090
   14SAPS  H15X 1851   3.079  -0.237   4.775  2.1357  0.5940 -0.6651
   14SAPS  H15Y 1852   2.904  -0.211   4.733  0.3731 -0.1092 -1.9650
   14SAPS  C316 1853   2.981  -0.074   4.879  0.3018  0.0336 -0.1898
   14SAPS  H16X 1854   2.913   0.009   4.853  0.1759  0.0012  0.0293
   14SAPS  H16Y 1855   3.082  -0.031   4.901  2.7658 -3.6505 -2.9778
   14SAPS  C317 1856   2.929  -0.155   5.003  0.2258 -0.6314  0.4681
   14SAPS  H17X 1857   2.990  -0.244   5.031  0.4605  0.3839  3.5260
   14SAPS  H17Y 1858   2.827  -0.192   4.978 -0.2628 -0.6520  2.3766
   14SAPS  C318 1859   2.921  -0.059   5.128  0.1080  0.4846  0.2419
   14SAPS  H18X 1860   3.017  -0.005   5.139  0.3216  0.4726 -1.4443
   14SAPS  H18Y 1861   2.891  -0.117   5.219 -0.4435 -0.5373 -0.5660
   14SAPS  H18Z 1862   2.849   0.024   5.110 -0.3845  0.1169  0.4763
   15SAPS     N 1863   2.389   1.972   2.462 -0.1702  0.2794 -0.0952
   15SAPS   HN1 1864   2.396   1.869   2.449 -2.4768  0.1163 -0.4307
   15SAPS   HN2 1865   2.290   2.005   2.452  0.1766  0.7868 -2.3438
   15SAPS   HN3 1866   2.445   2.021   2.390 -0.9597  1.3028 -0.0475
   15SAPS   C12 1867   2.446   2.004   2.594 -1.0207 -0.7422  0.0331
   15SAPS  H12A 1868   2.371   1.982   2.669 -0.2301  0.7514  1.3145
   15SAPS   C13 1869   2.581   1.926   2.622 -0.1518 -0.4105  0.1533
   15SAPS  O13A 1870   2.626   1.845   2.540 -0.3477  0.4693 -0.0265
   15SAPS  O13B 1871   2.645   1.945   2.724 -0.3399 -0.1906  0.3657
   15SAPS   C11 1872   2.463   2.158   2.617 -0.6210  0.3317 -0.3903
   15SAPS  H11A 1873   2.515   2.161   2.715 -1.0920 -3.2352  0.0901
   15SAPS  H11B 1874   2.364   2.207   2.626 -0.9276 -0.0949 -1.3474
   15SAPS     P 1875   2.675   2.291   2.522 -0.4181 -0.0069  0.3945
   15SAPS   O13 1876   2.770   2.195   2.468 -0.1896 -0.0074  0.0857
   15SAPS   O14 1877   2.663   2.418   2.442  0.2918  0.5878 -0.3703
   15SAPS   O12 1878   2.537   2.219   2.511 -0.3455 -0.2727 -0.3361
   15SAPS   O11 1879   2.712   2.306   2.679  0.3503  0.1230  0.0457
   15SAPS    C1 1880   2.659   2.418   2.749  0.5736 -0.2839 -0.2469
   15SAPS    HA 1881   2.704   2.513   2.714  2.2293 -1.4251 -1.4155
   15SAPS    HB 1882   2.552   2.439   2.731  0.9449  1.0296 -1.0828
   15SAPS    C2 1883   2.680   2.394   2.898 -0.6901 -0.0201 -0.1827
   15SAPS    HS 1884   2.634   2.477   2.955 -1.2485  0.0972 -0.8031
   15SAPS   O21 1885   2.818   2.397   2.928 -0.5624 -0.1884  0.7596
   15SAPS   C21 1886   2.903   2.490   2.901  0.9141 -0.0353  0.8348
   15SAPS   O22 1887   2.882   2.596   2.845 -0.0085 -0.1394  0.1159
   15SAPS   C22 1888   3.045   2.443   2.949 -0.0811  0.0482  0.3717
   15SAPS   H2R 1889   3.038   2.346   3.004 -0.8639 -0.1338 -0.0343
   15SAPS   H2S 1890   3.098   2.430   2.853  0.6693 -2.1391  0.9962
   15SAPS    C3 1891   2.611   2.257   2.951  0.6210  0.3196 -0.8784
   15SAPS    HX 1892   2.662   2.170   2.905  0.0787 -1.2466  1.3419
   15SAPS    HY 1893   2.504   2.253   2.919  0.8649 -0.0875 -1.6577
   15SAPS   O31 1894   2.622   2.247   3.092  0.1807 -0.1408  0.2229
   15SAPS   C31 1895   2.577   2.132   3.152  0.5964  0.5056 -0.2465
   15SAPS   O32 1896   2.545   2.030   3.094 -0.7343 -0.1986  0.1958
   15SAPS   C32 1897   2.571   2.148   3.302 -0.7223 -0.4916 -0.6832
   15SAPS   H2X 1898   2.468   2.181   3.328 -0.8490 -0.8994 -0.6635
   15SAPS   H2Y 1899   2.648   2.215   3.346 -0.7674 -0.1039 -1.1845
   15SAPS   C23 1900   3.130   2.535   3.035  0.4190 -0.8423  0.4306
   15SAPS   H3R 1901   3.133   2.636   2.989  0.5883  0.2434  2.6610
   15SAPS   H3S 1902   3.239   2.511   3.042  1.4918  3.1694 -0.3081
   15SAPS   C24 1903   3.084   2.550   3.187 -0.2467  0.9438  0.0240
   15SAPS   H4R 1904   3.157   2.598   3.256 -1.0514  0.0627  1.5215
   15SAPS   H4S 1905   3.068   2.445   3.218 -0.9991  0.5812 -1.5299
   15SAPS   C25 1906   2.946   2.614   3.201 -0.1459 -0.2343  0.0345
   15SAPS   H5R 1907   2.925   2.699   3.134 -1.0659 -2.0097 -2.0732
   15SAPS   C26 1908   2.844   2.561   3.268  0.2948  0.1286 -0.5891
   15SAPS   H6R 1909   2.748   2.614   3.278 -0.0822 -0.6277 -0.1002
   15SAPS   C27 1910   2.853   2.451   3.369 -0.2555 -0.0998  0.7647
   15SAPS   H7R 1911   2.912   2.367   3.325  0.4466  1.3682 -1.2834
   15SAPS   H7S 1912   2.750   2.412   3.384  0.0341 -1.0438  0.4003
   15SAPS   C28 1913   2.911   2.483   3.506  0.2295 -0.0460  0.5052
   15SAPS   H8R 1914   2.926   2.588   3.534 -1.0044 -0.0927  1.4360
   15SAPS   C29 1915   2.926   2.398   3.604  0.7972  0.5192 -0.3873
   15SAPS   H9R 1916   2.959   2.426   3.706 -0.4752  0.9093 -0.0650
   15SAPS  C210 1917   2.861   2.262   3.585 -0.3924 -0.5197 -0.2291
   15SAPS  H10R 1918   2.886   2.221   3.484 -0.9179  1.7978 -1.3616
   15SAPS  H10S 1919   2.750   2.257   3.582 -0.3699 -1.6464  0.3500
   15SAPS  C211 1920   2.908   2.159   3.680  0.1429  0.2975  0.0817
   15SAPS  H11R 1921   3.009   2.120   3.661 -0.5314 -2.2061  1.2573
   15SAPS  C212 1922   2.848   2.110   3.786 -0.4462 -0.2310 -0.5719
   15SAPS  H12R 1923   2.901   2.040   3.852 -0.7504 -0.3615 -0.4663
   15SAPS  C213 1924   2.712   2.165   3.840  0.7890 -0.0971  0.1163
   15SAPS  H13R 1925   2.642   2.090   3.798  0.4853  0.8931 -1.1988
   15SAPS  H13S 1926   2.684   2.264   3.798  1.8116  1.4798  2.9033
   15SAPS  C214 1927   2.702   2.185   3.989 -0.1826 -0.2312 -0.0001
   15SAPS  H14R 1928   2.619   2.127   4.032 -1.6326  1.5545 -0.2648
   15SAPS  C215 1929   2.772   2.271   4.067  0.4249  0.8129 -0.0624
   15SAPS  H15R 1930   2.765   2.251   4.174  1.0755  0.1299 -0.1387
   15SAPS  C216 1931   2.885   2.360   4.027  0.0201  0.3722  0.1181
   15SAPS  H16R 1932   2.910   2.330   3.924  1.4053 -2.4275  1.1898
   15SAPS  H16S 1933   2.973   2.335   4.090 -0.7375  0.7403  1.3688
   15SAPS  C217 1934   2.868   2.514   4.043  0.4035 -0.7781  0.0729
   15SAPS  H17R 1935   2.793   2.551   3.970  0.1660 -1.8497 -0.2321
   15SAPS  H17S 1936   2.965   2.564   4.019 -0.4556  0.3385 -1.2411
   15SAPS  C218 1937   2.837   2.561   4.183  0.1100 -0.5527 -0.6863
   15SAPS  H18R 1938   2.750   2.506   4.227  0.1002  1.2825  1.7730
   15SAPS  H18S 1939   2.819   2.670   4.181  1.2237 -0.3551 -0.2493
   15SAPS  C219 1940   2.964   2.544   4.275  0.4884 -0.1943 -0.0661
   15SAPS  H19R 1941   3.045   2.596   4.221 -0.8574  1.2853 -0.7461
   15SAPS  H19S 1942   2.989   2.435   4.277  0.3195 -0.2265  1.1140
   15SAPS  C220 1943   2.944   2.588   4.418  0.2952 -0.1350  0.2674
   15SAPS  H20R 1944   2.863   2.522   4.456  0.0714  0.0156  0.0518
   15SAPS  H20S 1945   2.919   2.695   4.435 -0.7381 -0.5084  1.1725
   15SAPS  H20T 1946   3.035   2.558   4.474  1.9186 -0.1086 -2.1755
   15SAPS   C33 1947   2.579   2.003   3.375 -0.2011 -0.3433  0.4624
   15SAPS   H3X 1948   2.503   1.932   3.337  0.1342 -0.8453  0.7189
   15SAPS   H3Y 1949   2.555   2.013   3.483  0.0121 -1.2961  0.6108
   15SAPS   C34 1950   2.722   1.938   3.373  0.4891 -0.2046 -0.0514
   15SAPS   H4X 1951   2.792   2.007   3.426  0.2580 -0.8469  1.1252
   15SAPS   H4Y 1952   2.749   1.925   3.266  1.2875  2.2346 -0.2120
   15SAPS   C35 1953   2.713   1.807   3.453  0.1228  0.7272 -0.1204
   15SAPS   H5X 1954   2.677   1.730   3.382 -2.7497  1.5519  0.3024
   15SAPS   H5Y 1955   2.629   1.812   3.526  0.0880  1.3708 -0.1989
   15SAPS   C36 1956   2.839   1.769   3.520 -0.9659 -0.6652  0.0037
   15SAPS   H6X 1957   2.896   1.864   3.529  1.3180 -1.9621  0.0133
   15SAPS   H6Y 1958   2.913   1.713   3.459  1.2439  0.7367  1.2592
   15SAPS   C37 1959   2.811   1.707   3.652  0.2315  0.1078  0.0162
   15SAPS   H7X 1960   2.745   1.618   3.643  2.5585 -1.7068 -0.0917
   15SAPS   H7Y 1961   2.764   1.775   3.727  0.0778 -1.4248  1.3608
   15SAPS   C38 1962   2.937   1.650   3.704 -0.3356 -0.3744  0.1934
   15SAPS   H8X 1963   3.005   1.625   3.620  0.7842 -2.0914  1.5332
   15SAPS   H8Y 1964   2.919   1.559   3.765  1.8481 -1.6160 -0.8937
   15SAPS   C39 1965   3.013   1.763   3.777  0.4363  0.4311  0.0460
   15SAPS   H9X 1966   2.969   1.773   3.879  1.9778  0.4251  0.7428
   15SAPS   H9Y 1967   2.997   1.851   3.712 -1.9454  1.2879  1.6801
   15SAPS  C310 1968   3.161   1.733   3.778  0.5771  0.7552 -0.4050
   15SAPS  H10X 1969   3.184   1.709   3.672 -2.0987  0.4307 -0.9752
   15SAPS  H10Y 1970   3.180   1.641   3.838  0.2743  1.3826  0.6911
   15SAPS  C311 1971   3.250   1.839   3.842  0.4626 -0.5013  0.1477
   15SAPS  H11X 1972   3.345   1.784   3.857 -1.0916 -3.0094  1.4585
   15SAPS  H11Y 1973   3.205   1.867   3.940 -0.3469  0.0797 -0.3679
   15SAPS  C312 1974   3.297   1.963   3.753 -0.2011  0.1267  0.1527
   15SAPS  H12X 1975   3.223   2.006   3.681 -0.0916  1.0395  0.5679
   15SAPS  H12Y 1976   3.378   1.924   3.687  0.7225  2.1376  0.0204
   15SAPS  C313 1977   3.363   2.074   3.832 -0.1011 -0.7215  0.8550
   15SAPS  H13X 1978   3.411   2.146   3.761 -0.5205 -0.6689  0.6244
   15SAPS  H13Y 1979   3.452   2.031   3.883  2.0785  0.8780 -1.3627
   15SAPS  C314 1980   3.269   2.158   3.922  0.4616 -0.8253  0.2353
   15SAPS  H14X 1981   3.214   2.087   3.987  0.8068 -1.6095 -0.3205
   15SAPS  H14Y 1982   3.201   2.201   3.846  1.8564  1.3165  0.0919
   15SAPS  C315 1983   3.352   2.254   4.004 -0.4826 -0.4775 -0.3178
   15SAPS  H15X 1984   3.430   2.307   3.945 -1.3720  0.2015 -0.9122
   15SAPS  H15Y 1985   3.401   2.207   4.092 -1.2578  0.2277  0.5037
   15SAPS  C316 1986   3.261   2.355   4.074 -0.1594 -0.3570  0.3138
   15SAPS  H16X 1987   3.202   2.312   4.157  0.6732  0.4512  1.3621
   15SAPS  H16Y 1988   3.186   2.384   3.997  1.5231 -0.4336 -1.4223
   15SAPS  C317 1989   3.326   2.485   4.120 -0.1588  0.1149 -0.1958
   15SAPS  H17X 1990   3.257   2.572   4.114 -0.0101  0.1626 -1.9997
   15SAPS  H17Y 1991   3.407   2.501   4.045 -2.7619 -0.7489 -3.4470
   15SAPS  C318 1992   3.389   2.470   4.257 -0.1016 -0.0392 -0.0111
   15SAPS  H18X 1993   3.455   2.558   4.278 -0.9466  0.8040 -0.8022
   15SAPS  H18Y 1994   3.448   2.376   4.263 -2.1531 -1.3474  0.3999
   15SAPS  H18Z 1995   3.304   2.472   4.329  0.3568  3.1598  0.6018
   16SAPS     N 1996   5.724   1.481   2.594  0.5742 -0.1013  0.9845
   16SAPS   HN1 1997   5.814   1.477   2.647  1.1879  0.9226  0.0547
   16SAPS   HN2 1998   5.680   1.573   2.612 -1.3089 -0.5906 -0.7798
   16SAPS   HN3 1999   5.663   1.404   2.629  0.3129 -0.0155  0.7189
   16SAPS   C12 2000   5.749   1.442   2.453  0.2756 -0.2641  0.4674
   16SAPS  H12A 2001   5.837   1.497   2.425  0.0677 -0.2704 -0.2190
   16SAPS   C13 2002   5.775   1.285   2.437 -0.3335 -0.9436  0.1445
   16SAPS  O13A 2003   5.803   1.219   2.542  0.0073  0.3026 -0.3540
   16SAPS  O13B 2004   5.775   1.234   2.323  0.1662 -0.0579 -0.2058
   16SAPS   C11 2005   5.624   1.490   2.367 -0.2275  0.6782  0.3125
   16SAPS  H11A 2006   5.645   1.464   2.262 -0.4016  0.2276  0.3876
   16SAPS  H11B 2007   5.629   1.601   2.378  3.1494  0.8222 -1.4213
   16SAPS     P 2008   5.370   1.438   2.328 -0.1099 -0.1751  0.0216
   16SAPS   O13 2009   5.374   1.565   2.255  0.4652 -0.2849  0.5001
   16SAPS   O14 2010   5.364   1.318   2.243 -0.4224  0.4141 -0.2252
   16SAPS   O12 2011   5.501   1.430   2.419  0.5717 -0.5971  0.3970
   16SAPS   O11 2012   5.242   1.445   2.424  0.3053 -0.1554  0.0218
   16SAPS    C1 2013   5.259   1.482   2.563 -0.1043 -0.5884 -0.5632
   16SAPS    HA 2014   5.325   1.571   2.567 -1.7501  0.6581 -0.0203
   16SAPS    HB 2015   5.171   1.530   2.612 -1.2648  0.4625 -3.4413
   16SAPS    C2 2016   5.330   1.379   2.664  0.8661 -0.8062  0.0654
   16SAPS    HS 2017   5.420   1.342   2.610  0.8417  1.5135 -1.7249
   16SAPS   O21 2018   5.235   1.273   2.694 -0.3458 -0.1363 -0.6015
   16SAPS   C21 2019   5.284   1.156   2.706  1.0628 -0.6973 -0.0936
   16SAPS   O22 2020   5.400   1.121   2.686  0.0130 -0.6970 -0.0290
   16SAPS   C22 2021   5.180   1.059   2.761 -1.1142  0.5938 -0.0852
   16SAPS   H2R 2022   5.098   1.052   2.686 -0.4086 -3.1530 -0.7014
   16SAPS   H2S 2023   5.238   0.964   2.757 -0.6395  0.8117  1.2516
   16SAPS    C3 2024   5.373   1.449   2.797 -0.2812  0.4381 -0.7429
   16SAPS    HX 2025   5.283   1.503   2.834 -0.2482  0.2944 -0.4506
   16SAPS    HY 2026   5.454   1.524   2.781 -1.0020  1.1728 -1.0170
   16SAPS   O31 2027   5.417   1.354   2.897  0.0885 -0.6133  0.9180
   16SAPS   C31 2028   5.546   1.323   2.897 -0.0918  0.4759  0.3572
   16SAPS   O32 2029   5.631   1.378   2.828 -0.0748 -0.3680 -0.1662
   16SAPS   C32 2030   5.585   1.212   2.995 -0.8046 -0.4531  0.0893
   16SAPS   H2X 2031   5.694   1.223   3.012 -0.9000  0.0235  0.4084
   16SAPS   H2Y 2032   5.561   1.110   2.957  2.1921 -1.5203  0.7777
   16SAPS   C23 2033   5.127   1.094   2.897 -0.0529 -0.6533  0.6041
   16SAPS   H3R 2034   5.025   1.049   2.900 -1.2256  1.8317  0.7913
   16SAPS   H3S 2035   5.094   1.200   2.893  0.4916 -0.5148 -3.2614
   16SAPS   C24 2036   5.203   1.061   3.020 -0.2874 -0.1693  0.0758
   16SAPS   H4R 2037   5.147   1.102   3.107  0.2363  0.7042  0.0140
   16SAPS   H4S 2038   5.298   1.118   3.015  0.7525 -1.9264 -1.2257
   16SAPS   C25 2039   5.234   0.916   3.029 -0.2373  0.1506 -0.5723
   16SAPS   H5R 2040   5.304   0.880   2.951  2.1209  0.6000  1.2072
   16SAPS   C26 2041   5.188   0.832   3.124 -0.2628  0.0904 -0.3657
   16SAPS   H6R 2042   5.200   0.723   3.124 -0.2055  0.0936  0.0687
   16SAPS   C27 2043   5.099   0.865   3.243  0.3846 -0.0164  0.1537
   16SAPS   H7R 2044   5.035   0.780   3.275  0.6119  0.9991  3.8203
   16SAPS   H7S 2045   5.036   0.952   3.215  1.9279  1.4136  0.9294
   16SAPS   C28 2046   5.188   0.895   3.369 -0.4217  0.0990  0.2843
   16SAPS   H8R 2047   5.221   1.000   3.368 -0.3903  0.1381 -2.6637
   16SAPS   C29 2048   5.226   0.810   3.470 -0.0998 -0.7410 -0.0988
   16SAPS   H9R 2049   5.293   0.846   3.548 -0.1320 -2.2235  0.6425
   16SAPS  C210 2050   5.195   0.660   3.480 -0.2517 -0.2451 -0.1544
   16SAPS  H10R 2051   5.288   0.604   3.457  0.2396  0.4589  0.0816
   16SAPS  H10S 2052   5.117   0.631   3.407 -1.2484  1.8705 -0.0013
   16SAPS  C211 2053   5.147   0.637   3.624 -0.8071  0.1922  0.0072
   16SAPS  H11R 2054   5.039   0.621   3.639 -1.3517  3.2711  0.0849
   16SAPS  C212 2055   5.225   0.600   3.729 -0.5367  0.1044 -0.3199
   16SAPS  H12R 2056   5.167   0.568   3.818 -1.4470 -2.1980 -1.6652
   16SAPS  C213 2057   5.380   0.597   3.730 -0.4337  0.8462 -0.4728
   16SAPS  H13R 2058   5.427   0.679   3.789  0.5421  1.1066 -1.5798
   16SAPS  H13S 2059   5.419   0.614   3.627  1.1334 -1.6852 -0.3695
   16SAPS  C214 2060   5.443   0.468   3.782 -0.0719  0.3063  0.1105
   16SAPS  H14R 2061   5.511   0.421   3.709 -0.9102  1.6097 -1.5779
   16SAPS  C215 2062   5.443   0.430   3.913 -0.0171  0.4816  0.6788
   16SAPS  H15R 2063   5.481   0.327   3.921 -2.4717 -0.6328 -0.5946
   16SAPS  C216 2064   5.368   0.492   4.030  1.2777 -0.4401 -0.0720
   16SAPS  H16R 2065   5.267   0.453   4.055  1.0786 -0.3369 -0.6815
   16SAPS  H16S 2066   5.347   0.597   3.998 -2.1086 -0.9858 -0.0760
   16SAPS  C217 2067   5.442   0.485   4.163 -0.2342 -0.8927  0.0710
   16SAPS  H17R 2068   5.549   0.508   4.143 -0.4769 -0.1653 -0.4117
   16SAPS  H17S 2069   5.440   0.380   4.200  0.9946  0.0139  2.9841
   16SAPS  C218 2070   5.391   0.568   4.282  0.2528  0.8123 -1.1086
   16SAPS  H18R 2071   5.386   0.675   4.253 -0.1551  1.7244  1.9853
   16SAPS  H18S 2072   5.462   0.550   4.366 -0.4359 -0.9269 -0.8523
   16SAPS  C219 2073   5.254   0.514   4.326 -0.1222  0.3634 -0.1614
   16SAPS  H19R 2074   5.274   0.405   4.328 -0.0642  0.3823  0.2661
   16SAPS  H19S 2075   5.184   0.544   4.245 -0.4328 -1.7528 -0.7377
   16SAPS  C220 2076   5.206   0.562   4.467  0.5472 -0.1839 -0.8582
   16SAPS  H20R 2077   5.278   0.527   4.545 -0.2473 -0.2601 -0.1468
   16SAPS  H20S 2078   5.109   0.523   4.503  0.4081 -0.4688 -1.5181
   16SAPS  H20T 2079   5.206   0.672   4.477 -2.3968 -0.1385 -0.5766
   16SAPS   C33 2080   5.541   1.235   3.138 -0.0584 -0.2027  0.0779
   16SAPS   H3X 2081   5.432   1.254   3.139  0.1560  2.0453 -3.1428
   16SAPS   H3Y 2082   5.595   1.316   3.192  3.0223 -1.4784 -0.8638
   16SAPS   C34 2083   5.573   1.110   3.219 -0.5870 -1.0143  0.0798
   16SAPS   H4X 2084   5.684   1.107   3.217 -0.4722  1.2666 -1.6740
   16SAPS   H4Y 2085   5.520   1.018   3.186 -3.3082 -0.5754  2.7416
   16SAPS   C35 2086   5.525   1.132   3.363  0.5792 -0.1898 -0.5499
   16SAPS   H5X 2087   5.415   1.144   3.354  0.9084  5.3933 -0.6841
   16SAPS   H5Y 2088   5.563   1.231   3.397 -2.0439  0.8527 -0.4183
   16SAPS   C36 2089   5.568   1.024   3.460  0.0400 -0.3793 -0.2628
   16SAPS   H6X 2090   5.675   0.999   3.444 -0.0032 -1.9465  1.5904
   16SAPS   H6Y 2091   5.513   0.935   3.422 -0.5171 -0.3056  0.3529
   16SAPS   C37 2092   5.550   1.054   3.605 -0.7067 -0.7924  1.2253
   16SAPS   H7X 2093   5.455   1.107   3.629  0.2734  1.1439  1.0795
   16SAPS   H7Y 2094   5.634   1.122   3.631 -0.8436  0.1410 -0.5845
   16SAPS   C38 2095   5.573   0.931   3.686  0.3117 -0.3143  0.2108
   16SAPS   H8X 2096   5.680   0.902   3.678 -0.2145 -2.0270 -1.1144
   16SAPS   H8Y 2097   5.513   0.848   3.644 -0.6849  0.4159  0.1577
   16SAPS   C39 2098   5.537   0.955   3.835 -0.3163  0.1787  0.4547
   16SAPS   H9X 2099   5.583   1.054   3.856 -0.4779  0.3759 -0.0983
   16SAPS   H9Y 2100   5.581   0.878   3.901  0.3468 -0.5469 -0.7972
   16SAPS  C310 2101   5.385   0.968   3.864  0.7773  0.4894  0.1259
   16SAPS  H10X 2102   5.326   0.909   3.790  0.3579  3.7764 -2.4164
   16SAPS  H10Y 2103   5.353   1.074   3.866 -2.0852 -0.2563  2.5442
   16SAPS  C311 2104   5.351   0.922   4.007 -0.0891 -0.0938  0.3485
   16SAPS  H11X 2105   5.431   0.966   4.071  0.1233 -0.8453  0.6239
   16SAPS  H11Y 2106   5.351   0.811   3.999  1.3562 -0.1660  0.9565
   16SAPS  C312 2107   5.217   0.972   4.061  0.5245  0.2068  0.0259
   16SAPS  H12X 2108   5.140   0.953   3.983  0.8224 -0.3186 -0.1465
   16SAPS  H12Y 2109   5.226   1.080   4.088 -0.8516  0.4121 -0.2847
   16SAPS  C313 2110   5.169   0.885   4.181  0.6670  0.4490 -0.4632
   16SAPS  H13X 2111   5.243   0.879   4.263  0.0985  2.1054  0.2235
   16SAPS  H13Y 2112   5.167   0.781   4.142  1.0514 -0.6462  2.2619
   16SAPS  C314 2113   5.032   0.927   4.249 -0.3015 -0.5115  0.0375
   16SAPS  H14X 2114   4.977   0.980   4.169  0.7444  0.7302  0.1096
   16SAPS  H14Y 2115   5.046   1.011   4.320  0.2394 -0.0025 -0.6559
   16SAPS  C315 2116   4.956   0.832   4.337  0.2776 -0.3161 -0.2427
   16SAPS  H15X 2117   5.009   0.812   4.433 -1.0923 -0.4476  0.5002
   16SAPS  H15Y 2118   4.945   0.728   4.301 -1.0893  0.5238 -2.4469
   16SAPS  C316 2119   4.819   0.879   4.388  1.2491 -0.3360  0.9197
   16SAPS  H16X 2120   4.750   0.915   4.308  2.9836  0.8635 -0.0924
   16SAPS  H16Y 2121   4.842   0.967   4.451 -1.3180  0.0267  1.4598
   16SAPS  C317 2122   4.741   0.790   4.484  0.2934  0.7982 -0.2461
   16SAPS  H17X 2123   4.661   0.851   4.532  0.4243  0.9196 -0.1820
   16SAPS  H17Y 2124   4.812   0.773   4.568  2.1449 -2.2881 -2.2570
   16SAPS  C318 2125   4.696   0.658   4.427  0.1559  0.1765 -0.2575
   16SAPS  H18X 2126   4.636   0.598   4.498 -0.2368 -0.8884 -1.4632
   16SAPS  H18Y 2127   4.785   0.597   4.401 -0.2227 -1.4004  1.9047
   16SAPS  H18Z 2128   4.634   0.679   4.338  0.1175 -1.0565 -0.5300
   17SAPS     N 2129   6.696   0.770   2.701  0.8932  0.3216  0.2908
   17SAPS   HN1 2130   6.607   0.815   2.732 -0.8498 -2.1284 -0.8054
   17SAPS   HN2 2131   6.707   0.680   2.751 -1.5681 -1.8119 -2.6251
   17SAPS   HN3 2132   6.776   0.835   2.715  0.1061  1.5859 -0.8176
   17SAPS   C12 2133   6.675   0.730   2.561  0.6170 -0.1060  0.1881
   17SAPS  H12A 2134   6.640   0.812   2.499  0.2875  0.5449  1.2149
   17SAPS   C13 2135   6.806   0.690   2.494  0.3628 -0.1609  0.9042
   17SAPS  O13A 2136   6.912   0.709   2.550 -0.2221  0.4638 -0.0607
   17SAPS  O13B 2137   6.791   0.677   2.369 -0.5192  0.1604  0.2637
   17SAPS   C11 2138   6.570   0.612   2.556  0.9646  0.3693 -1.0563
   17SAPS  H11A 2139   6.580   0.550   2.464  0.7645  0.7092 -1.3089
   17SAPS  H11B 2140   6.470   0.662   2.550  0.3535 -0.7498 -0.5332
   17SAPS     P 2141   6.478   0.439   2.731 -0.2278  0.0143 -0.2107
   17SAPS   O13 2142   6.356   0.465   2.656  0.6730  0.2090  0.0378
   17SAPS   O14 2143   6.529   0.299   2.745  0.3357 -0.4929  0.0337
   17SAPS   O12 2144   6.599   0.532   2.676  0.1026 -0.0667 -0.4983
   17SAPS   O11 2145   6.463   0.496   2.880  0.5991 -0.6648  0.6951
   17SAPS    C1 2146   6.583   0.525   2.954  0.5295 -0.1693  0.1235
   17SAPS    HA 2147   6.613   0.426   2.995 -0.6055 -1.1063 -1.2141
   17SAPS    HB 2148   6.667   0.559   2.891  1.9888 -0.1158  2.0179
   17SAPS    C2 2149   6.569   0.626   3.069  0.5026  0.3988  0.3953
   17SAPS    HS 2150   6.532   0.727   3.040  0.1618  0.5488  1.3167
   17SAPS   O21 2151   6.697   0.635   3.131 -0.1419 -0.4009  0.3442
   17SAPS   C21 2152   6.781   0.740   3.094 -0.1160 -0.0642 -0.7098
   17SAPS   O22 2153   6.745   0.822   3.010 -0.3812  0.5982  0.1367
   17SAPS   C22 2154   6.897   0.750   3.191  0.0780 -0.2016 -1.0636
   17SAPS   H2R 2155   6.982   0.697   3.143  0.1627  0.2283 -1.4066
   17SAPS   H2S 2156   6.931   0.853   3.215  0.5444 -0.7189  0.6134
   17SAPS    C3 2157   6.455   0.567   3.168  0.2473  0.0067 -0.1867
   17SAPS    HX 2158   6.503   0.477   3.210 -3.9449 -2.5792 -0.3233
   17SAPS    HY 2159   6.373   0.532   3.101  0.5700 -0.2982 -0.4252
   17SAPS   O31 2160   6.400   0.658   3.269 -0.2025 -0.2951  0.4581
   17SAPS   C31 2161   6.448   0.649   3.396  1.3010  0.1208 -0.0020
   17SAPS   O32 2162   6.509   0.556   3.442 -0.2790  0.1688  0.3464
   17SAPS   C32 2163   6.375   0.748   3.484  0.5461 -0.0009 -0.1493
   17SAPS   H2X 2164   6.269   0.715   3.488  0.0016  1.0461 -3.1103
   17SAPS   H2Y 2165   6.369   0.850   3.440 -2.5928  0.7366  1.6996
   17SAPS   C23 2166   6.883   0.689   3.333  0.0799 -0.1317  0.2660
   17SAPS   H3R 2167   6.986   0.689   3.377 -0.6439  1.7896  2.1123
   17SAPS   H3S 2168   6.842   0.587   3.352  1.2377 -0.6945 -0.1166
   17SAPS   C24 2169   6.781   0.773   3.418 -0.0077  0.2173  0.1816
   17SAPS   H4R 2170   6.752   0.723   3.513  2.9910  0.4662  1.3361
   17SAPS   H4S 2171   6.689   0.779   3.356  0.4232  0.7072 -0.4325
   17SAPS   C25 2172   6.834   0.912   3.453 -0.0777 -0.2021 -0.2313
   17SAPS   H5R 2173   6.815   1.000   3.390  1.6552  0.5128  0.1612
   17SAPS   C26 2174   6.884   0.933   3.577  0.1834 -0.4800 -0.9283
   17SAPS   H6R 2175   6.913   1.034   3.609  2.0009 -1.7399  1.8338
   17SAPS   C27 2176   6.906   0.832   3.694 -0.2571 -0.5642  0.7151
   17SAPS   H7R 2177   7.013   0.829   3.724  0.1223  0.5885 -0.4535
   17SAPS   H7S 2178   6.892   0.730   3.652 -1.1956  0.0029 -0.3874
   17SAPS   C28 2179   6.818   0.858   3.813 -0.0494 -0.5314 -0.3088
   17SAPS   H8R 2180   6.711   0.846   3.792  0.2196 -1.1336 -1.3643
   17SAPS   C29 2181   6.856   0.897   3.933 -0.0002  0.4044 -0.9471
   17SAPS   H9R 2182   6.773   0.911   4.004  0.4223 -0.7092 -0.1993
   17SAPS  C210 2183   6.986   0.936   3.997 -0.1099 -0.2013  0.2457
   17SAPS  H10R 2184   7.065   0.865   3.965 -0.4017 -0.8819  1.0250
   17SAPS  H10S 2185   6.984   0.911   4.105 -0.8169 -1.3637 -0.0264
   17SAPS  C211 2186   7.040   1.078   3.985  0.3692  0.1141  0.6269
   17SAPS  H11R 2187   7.065   1.112   3.884  0.5619 -0.9089  0.3211
   17SAPS  C212 2188   7.040   1.179   4.075  0.5025  0.2873  0.1243
   17SAPS  H12R 2189   7.096   1.266   4.037 -0.9939  1.2662  0.0631
   17SAPS  C213 2190   7.005   1.168   4.220 -0.2893 -0.3600  0.2269
   17SAPS  H13R 2191   6.980   1.065   4.255  0.5754 -1.3738 -1.9620
   17SAPS  H13S 2192   6.907   1.219   4.229 -0.3991 -0.5559  0.1451
   17SAPS  C214 2193   7.106   1.228   4.320  0.2520  0.2107  0.0801
   17SAPS  H14R 2194   7.075   1.326   4.360 -0.7834  1.5390 -3.5795
   17SAPS  C215 2195   7.220   1.173   4.356 -0.2159  0.7036  0.4918
   17SAPS  H15R 2196   7.276   1.218   4.439  2.4592 -0.0371 -0.7799
   17SAPS  C216 2197   7.261   1.030   4.321  0.0534  0.1856 -0.6271
   17SAPS  H16R 2198   7.360   1.026   4.269  0.1830  2.5511 -0.6788
   17SAPS  H16S 2199   7.194   0.983   4.246  0.7825  0.3260 -1.3924
   17SAPS  C217 2200   7.242   0.937   4.442  0.6659  0.2721 -0.0938
   17SAPS  H17R 2201   7.249   0.837   4.395 -0.5833 -0.0824  0.4328
   17SAPS  H17S 2202   7.141   0.946   4.487  0.3302 -1.8296 -0.3447
   17SAPS  C218 2203   7.362   0.934   4.534 -0.1092  0.0270  0.6407
   17SAPS  H18R 2204   7.357   1.018   4.607  1.3555  1.0470 -0.3926
   17SAPS  H18S 2205   7.455   0.945   4.475  0.6760 -2.2112  1.3825
   17SAPS  C219 2206   7.390   0.804   4.617 -0.2368 -0.8287 -1.0658
   17SAPS  H19R 2207   7.498   0.799   4.638  0.0855  2.3502 -1.4055
   17SAPS  H19S 2208   7.357   0.709   4.570  1.7599 -2.5038  0.7543
   17SAPS  C220 2209   7.310   0.815   4.757 -0.2168  0.3329  0.3395
   17SAPS  H20R 2210   7.341   0.910   4.807 -0.1724  0.2962  0.3822
   17SAPS  H20S 2211   7.339   0.737   4.831  0.9499 -0.1019 -0.5496
   17SAPS  H20T 2212   7.200   0.814   4.748 -0.4065  0.0087  2.2445
   17SAPS   C33 2213   6.418   0.760   3.628 -0.0094  0.7368  0.2193
   17SAPS   H3X 2214   6.506   0.827   3.642  0.4179 -0.3215  3.9126
   17SAPS   H3Y 2215   6.442   0.656   3.661 -2.6664 -1.5299 -4.1074
   17SAPS   C34 2216   6.316   0.829   3.712  0.8028  0.2128  0.2368
   17SAPS   H4X 2217   6.223   0.770   3.724 -0.6837  2.7318  1.8561
   17SAPS   H4Y 2218   6.288   0.926   3.665  1.0129  1.6636  2.9462
   17SAPS   C35 2219   6.375   0.856   3.851 -0.1538  0.5973  0.7005
   17SAPS   H5X 2220   6.468   0.917   3.843  0.2782 -0.2168 -0.9993
   17SAPS   H5Y 2221   6.417   0.765   3.900  0.8908  2.6049  3.8051
   17SAPS   C36 2222   6.282   0.930   3.943  0.6098  0.3282 -0.4449
   17SAPS   H6X 2223   6.185   0.876   3.932  0.6803  0.1982 -0.4252
   17SAPS   H6Y 2224   6.268   1.039   3.926  2.3620  0.8036  0.8376
   17SAPS   C37 2225   6.342   0.924   4.089  0.0674 -0.4765 -0.1293
   17SAPS   H7X 2226   6.446   0.961   4.086  1.1083 -3.2211 -0.7231
   17SAPS   H7Y 2227   6.350   0.820   4.128 -1.1137  0.5082  3.1163
   17SAPS   C38 2228   6.278   1.009   4.200  0.3984  0.2340  0.1797
   17SAPS   H8X 2229   6.173   0.984   4.228  0.4621 -1.7578 -1.1013
   17SAPS   H8Y 2230   6.286   1.114   4.165 -0.2733  0.3618  0.3944
   17SAPS   C39 2231   6.366   1.000   4.331 -0.5606  0.4993  0.8773
   17SAPS   H9X 2232   6.455   1.066   4.336 -1.2466  1.4565  0.7211
   17SAPS   H9Y 2233   6.396   0.893   4.342  0.1784  0.6066  0.0059
   17SAPS  C310 2234   6.281   1.029   4.455  0.6605 -0.7829  0.0563
   17SAPS  H10X 2235   6.343   1.000   4.542 -0.6304  0.6072  1.5104
   17SAPS  H10Y 2236   6.184   0.976   4.448  0.5205 -0.3061 -2.8887
   17SAPS  C311 2237   6.248   1.180   4.471  0.3889  0.5985 -0.3847
   17SAPS  H11X 2238   6.187   1.211   4.383 -2.3641  0.2921  1.2925
   17SAPS  H11Y 2239   6.343   1.236   4.460  2.1215 -2.1823 -0.4208
   17SAPS  C312 2240   6.183   1.211   4.603 -0.0859  0.1796  0.8033
   17SAPS  H12X 2241   6.175   1.321   4.619 -0.0550  0.2126  0.5931
   17SAPS  H12Y 2242   6.234   1.166   4.691  1.7328 -0.0131 -0.3076
   17SAPS  C313 2243   6.030   1.171   4.611  0.0293 -0.0933 -0.0772
   17SAPS  H13X 2244   6.024   1.060   4.612  0.8263 -0.1407 -0.2529
   17SAPS  H13Y 2245   5.973   1.197   4.519  0.7500 -1.5522 -0.9824
   17SAPS  C314 2246   5.954   1.229   4.734 -0.4047 -0.2662  0.3416
   17SAPS  H14X 2247   5.945   1.340   4.740 -0.2777 -0.0224 -2.6837
   17SAPS  H14Y 2248   6.008   1.190   4.823  1.0889 -0.8290 -0.7850
   17SAPS  C315 2249   5.811   1.165   4.735 -0.4054 -0.1762  0.0491
   17SAPS  H15X 2250   5.819   1.058   4.704 -1.1750 -0.2540  0.0785
   17SAPS  H15Y 2251   5.755   1.214   4.652  0.3430 -0.1270 -0.4363
   17SAPS  C316 2252   5.738   1.184   4.871 -0.0654 -0.0665 -0.0308
   17SAPS  H16X 2253   5.722   1.294   4.877 -1.1612 -0.1193 -1.2501
   17SAPS  H16Y 2254   5.804   1.150   4.953  1.7861  0.4339 -1.2573
   17SAPS  C317 2255   5.590   1.133   4.863 -0.3140 -0.5534 -0.1597
   17SAPS  H17X 2256   5.558   1.117   4.969 -0.6027  2.9159  0.4176
   17SAPS  H17Y 2257   5.570   1.036   4.813 -0.3903 -0.2482 -0.7277
   17SAPS  C318 2258   5.502   1.244   4.806  0.6290  0.1751  0.2717
   17SAPS  H18X 2259   5.554   1.285   4.716 -0.1566  2.5631  0.8385
   17SAPS  H18Y 2260   5.513   1.335   4.868  2.4298  1.0498 -1.2144
   17SAPS  H18Z 2261   5.401   1.207   4.779  0.0956 -0.6566  3.0885
   18SAPS     N 2262   3.563   2.071   6.920 -0.0403 -0.4207 -0.4878
   18SAPS   HN1 2263   3.516   1.996   6.974 -3.5773  0.1402 -2.4306
   18SAPS   HN2 2264   3.485   2.121   6.873 -0.1401  0.8854  1.0243
   18SAPS   HN3 2265   3.629   2.023   6.855  0.7871 -0.0428  0.0581
   18SAPS   C12 2266   3.642   2.163   7.006 -0.4647 -0.2044  0.3827
   18SAPS  H12A 2267   3.600   2.261   6.993  1.0817  0.3467 -0.7843
   18SAPS   C13 2268   3.643   2.118   7.158  0.1850  0.7755 -0.0379
   18SAPS  O13A 2269   3.571   2.027   7.211  0.3016 -0.0462  0.8181
   18SAPS  O13B 2270   3.708   2.181   7.238 -0.5036 -0.4758 -0.1948
   18SAPS   C11 2271   3.785   2.183   6.966 -0.3180  0.6110 -0.3426
   18SAPS  H11A 2272   3.841   2.087   6.963 -0.5517  0.4903 -1.6092
   18SAPS  H11B 2273   3.829   2.250   7.042 -1.4607  1.3861 -0.3379
   18SAPS     P 2274   3.878   2.211   6.725 -0.0188  0.2287 -0.2791
   18SAPS   O13 2275   3.818   2.104   6.643  0.4136 -0.2812  0.7568
   18SAPS   O14 2276   3.903   2.341   6.662  0.3791  0.5683 -0.0282
   18SAPS   O12 2277   3.777   2.246   6.841 -0.8378 -0.3821  0.3741
   18SAPS   O11 2278   4.000   2.166   6.814 -0.0646  0.0207 -0.1706
   18SAPS    C1 2279   4.127   2.243   6.803 -0.2708 -0.1434 -0.6164
   18SAPS    HA 2280   4.116   2.354   6.799  3.3804  0.4113  0.7424
   18SAPS    HB 2281   4.180   2.224   6.899  1.1081  2.8329 -0.6681
   18SAPS    C2 2282   4.218   2.198   6.680 -0.1894 -0.3205 -0.5496
   18SAPS    HS 2283   4.318   2.244   6.693  0.1941 -0.4061 -2.7171
   18SAPS   O21 2284   4.145   2.235   6.554 -0.4026 -0.1094 -0.6489
   18SAPS   C21 2285   4.162   2.364   6.520 -0.2130  0.0680  0.1052
   18SAPS   O22 2286   4.227   2.445   6.588  0.0631  0.4331 -0.1800
   18SAPS   C22 2287   4.081   2.397   6.391  0.6719  0.4642 -0.1572
   18SAPS   H2R 2288   4.099   2.328   6.306  0.6736  3.0132 -2.3715
   18SAPS   H2S 2289   3.975   2.403   6.422  0.1257 -2.6799 -1.1118
   18SAPS    C3 2290   4.226   2.047   6.686  0.7596  0.2303 -0.5021
   18SAPS    HX 2291   4.126   2.002   6.668  1.0020 -0.0167 -1.2587
   18SAPS    HY 2292   4.254   2.033   6.793 -1.4702  2.7645  0.5405
   18SAPS   O31 2293   4.331   1.995   6.598  0.1404 -0.9347  0.1400
   18SAPS   C31 2294   4.336   1.864   6.606  0.3884 -0.3122 -0.3485
   18SAPS   O32 2295   4.270   1.795   6.683 -0.0181 -0.2452  0.0019
   18SAPS   C32 2296   4.429   1.805   6.508 -0.2518  0.3288 -0.0192
   18SAPS   H2X 2297   4.527   1.808   6.560  0.5247  1.8018 -1.4519
   18SAPS   H2Y 2298   4.434   1.886   6.431 -0.1706  0.3069 -0.0368
   18SAPS   C23 2299   4.118   2.536   6.335  0.1392  0.0347  0.2453
   18SAPS   H3R 2300   4.224   2.537   6.304 -0.5393  0.5507 -2.2769
   18SAPS   H3S 2301   4.096   2.612   6.414 -0.2681 -1.8323  2.0153
   18SAPS   C24 2302   4.039   2.574   6.205  0.2904  0.3974  0.1561
   18SAPS   H4R 2303   4.065   2.677   6.170  0.0066  0.9143  1.4127
   18SAPS   H4S 2304   3.930   2.577   6.227  0.4798  0.5835  1.0886
   18SAPS   C25 2305   4.045   2.479   6.089 -0.8156  0.3366 -0.0208
   18SAPS   H5R 2306   4.046   2.372   6.115  2.8108 -0.0588 -1.2343
   18SAPS   C26 2307   4.065   2.509   5.957  0.1568  0.7524 -0.4310
   18SAPS   H6R 2308   4.074   2.423   5.890 -0.2971  0.1178  0.3041
   18SAPS   C27 2309   4.091   2.642   5.889  0.4395 -0.3418 -0.5871
   18SAPS   H7R 2310   4.124   2.719   5.963  0.2951 -1.2540  0.4471
   18SAPS   H7S 2311   3.996   2.691   5.858 -0.2866 -0.9967  0.5379
   18SAPS   C28 2312   4.188   2.641   5.773  0.4600 -0.0715 -0.1846
   18SAPS   H8R 2313   4.292   2.666   5.799  0.1158  1.0752  0.1267
   18SAPS   C29 2314   4.156   2.616   5.640  0.1696  0.1227 -0.3374
   18SAPS   H9R 2315   4.230   2.624   5.560  0.1412  0.5914 -0.3169
   18SAPS  C210 2316   4.012   2.581   5.607 -0.6963 -0.0500 -0.6829
   18SAPS  H10R 2317   3.950   2.669   5.632 -1.1662 -0.5030 -0.2429
   18SAPS  H10S 2318   3.985   2.499   5.676  0.3918 -1.2865 -1.6592
   18SAPS  C211 2319   3.982   2.514   5.475  0.1672 -0.7703  0.0573
   18SAPS  H11R 2320   3.997   2.405   5.487 -0.7662 -0.6787  2.7477
   18SAPS  C212 2321   3.947   2.570   5.358  0.3875 -0.0236  0.3987
   18SAPS  H12R 2322   3.916   2.503   5.276  0.4226  1.6599 -1.0620
   18SAPS  C213 2323   3.941   2.717   5.331 -0.2202 -0.0730  0.8183
   18SAPS  H13R 2324   3.968   2.784   5.415 -3.0350  0.2877  1.5491
   18SAPS  H13S 2325   3.831   2.737   5.331 -0.7459 -2.6210  0.1029
   18SAPS  C214 2326   4.002   2.758   5.202  0.4907  0.0031  0.5599
   18SAPS  H14R 2327   4.110   2.779   5.212  0.9280 -1.0010 -1.4218
   18SAPS  C215 2328   3.944   2.770   5.080  0.6417 -0.0109  0.2418
   18SAPS  H15R 2329   4.012   2.801   4.998 -0.1774 -2.4475 -1.4586
   18SAPS  C216 2330   3.798   2.753   5.041  0.6576  0.0994  0.0785
   18SAPS  H16R 2331   3.766   2.654   5.081  0.7416 -0.3147 -0.8596
   18SAPS  H16S 2332   3.780   2.737   4.933  0.2101  0.9013  0.0309
   18SAPS  C217 2333   3.715   2.873   5.095  0.0375 -0.5572  0.1385
   18SAPS  H17R 2334   3.746   2.959   5.032  0.7852 -1.2297 -0.4311
   18SAPS  H17S 2335   3.738   2.904   5.200 -0.4929 -1.5415  0.5595
   18SAPS  C218 2336   3.567   2.848   5.082 -0.2571  0.4985  0.0343
   18SAPS  H18R 2337   3.507   2.925   5.135 -0.7157  0.1311  0.0532
   18SAPS  H18S 2338   3.547   2.752   5.135  0.4292  0.0270 -0.5433
   18SAPS  C219 2339   3.515   2.846   4.935  0.5696  0.5483 -0.2622
   18SAPS  H19R 2340   3.433   2.772   4.923  1.5306 -0.3684 -1.4648
   18SAPS  H19S 2341   3.601   2.831   4.867  1.4534  0.8520  0.7611
   18SAPS  C220 2342   3.459   2.977   4.886 -1.0440 -1.2445  0.2362
   18SAPS  H20R 2343   3.527   3.064   4.904 -2.6311  0.5125 -1.7813
   18SAPS  H20S 2344   3.365   3.009   4.935 -0.1312 -0.3749  1.4916
   18SAPS  H20T 2345   3.450   2.971   4.776  0.8997 -0.7271  0.0148
   18SAPS   C33 2346   4.385   1.672   6.444  0.2446  0.5026  0.1160
   18SAPS   H3X 2347   4.358   1.601   6.525  0.8077  0.7377  0.5174
   18SAPS   H3Y 2348   4.467   1.636   6.378 -1.0048 -0.1105 -1.1568
   18SAPS   C34 2349   4.261   1.681   6.362 -0.3921 -0.3560 -0.1835
   18SAPS   H4X 2350   4.180   1.722   6.426 -1.0854 -2.4271  0.3433
   18SAPS   H4Y 2351   4.218   1.582   6.336 -1.1908 -0.5319  1.6361
   18SAPS   C35 2352   4.262   1.762   6.229  0.2448  0.4779  0.2021
   18SAPS   H5X 2353   4.224   1.865   6.246 -1.6367 -0.0476 -0.5750
   18SAPS   H5Y 2354   4.180   1.716   6.170  1.5378  0.3640 -1.5926
   18SAPS   C36 2355   4.383   1.769   6.143  0.0913 -0.2581 -0.2332
   18SAPS   H6X 2356   4.423   1.666   6.144  0.0875 -0.2605  0.9119
   18SAPS   H6Y 2357   4.456   1.830   6.200 -1.2714  1.1202  0.1155
   18SAPS   C37 2358   4.382   1.840   6.008 -0.1361  0.2472  0.5349
   18SAPS   H7X 2359   4.488   1.848   5.977 -0.3386 -2.1807 -1.1513
   18SAPS   H7Y 2360   4.339   1.942   6.006 -1.4662 -0.2872  0.6047
   18SAPS   C38 2361   4.309   1.762   5.899 -0.0319 -0.4257 -0.0963
   18SAPS   H8X 2362   4.198   1.769   5.904 -0.1120 -1.4738 -0.3548
   18SAPS   H8Y 2363   4.338   1.655   5.908  2.4971  0.1192 -0.9872
   18SAPS   C39 2364   4.361   1.814   5.762 -0.7291  0.8055 -0.2999
   18SAPS   H9X 2365   4.471   1.815   5.777 -1.0075 -1.7540  2.8373
   18SAPS   H9Y 2366   4.319   1.914   5.734 -0.3764  1.1647  0.4190
   18SAPS  C310 2367   4.347   1.719   5.643  0.0196  0.5319 -0.4339
   18SAPS  H10X 2368   4.243   1.683   5.651  0.3631 -0.3417  0.3218
   18SAPS  H10Y 2369   4.410   1.631   5.670 -1.0500 -0.0348  0.2659
   18SAPS  C311 2370   4.387   1.781   5.502 -0.5291  0.2204  0.1159
   18SAPS  H11X 2371   4.494   1.810   5.501  0.0002 -1.6093 -0.6991
   18SAPS  H11Y 2372   4.321   1.870   5.492  0.4381  0.9437 -0.0054
   18SAPS  C312 2373   4.371   1.679   5.391 -0.3851  0.3230  0.5649
   18SAPS  H12X 2374   4.272   1.630   5.398 -0.8377  0.8676 -1.3599
   18SAPS  H12Y 2375   4.442   1.594   5.402 -0.5206 -0.2502 -2.2527
   18SAPS  C313 2376   4.389   1.736   5.252  0.4074 -0.0740 -0.0977
   18SAPS  H13X 2377   4.417   1.844   5.256 -0.3740  0.1113  0.9135
   18SAPS  H13Y 2378   4.290   1.725   5.203  0.8837  0.8324 -1.3090
   18SAPS  C314 2379   4.495   1.667   5.166 -0.2871 -0.3946 -0.1182
   18SAPS  H14X 2380   4.592   1.660   5.219 -0.2415  3.1706  0.4584
   18SAPS  H14Y 2381   4.514   1.742   5.087 -1.9394  1.8738  1.5001
   18SAPS  C315 2382   4.461   1.530   5.097 -0.1355  0.5061 -0.8037
   18SAPS  H15X 2383   4.359   1.523   5.054  0.0127 -1.6239 -0.9123
   18SAPS  H15Y 2384   4.484   1.452   5.173  1.3915  0.0254 -1.7174
   18SAPS  C316 2385   4.557   1.505   4.977 -0.0422 -0.4328 -0.8225
   18SAPS  H16X 2386   4.627   1.419   4.985 -0.4976 -0.6641  1.4883
   18SAPS  H16Y 2387   4.630   1.588   4.964 -0.5680  0.2147  0.2247
   18SAPS  C317 2388   4.479   1.479   4.846  0.2576  0.7243  0.3352
   18SAPS  H17X 2389   4.396   1.552   4.842  0.7604  1.2648 -2.0801
   18SAPS  H17Y 2390   4.433   1.377   4.849  2.4743 -0.3274  0.2790
   18SAPS  C318 2391   4.555   1.509   4.721 -0.2645 -0.2656 -0.2998
   18SAPS  H18X 2392   4.489   1.492   4.633 -0.2936 -1.5177 -0.0596
   18SAPS  H18Y 2393   4.632   1.430   4.707 -0.8100 -0.6249 -1.3797
   18SAPS  H18Z 2394   4.591   1.614   4.720 -1.6515  0.2354 -0.4696
   19SAPS     N 2395   3.758   3.783   2.309 -0.3195 -0.3905 -0.4254
   19SAPS   HN1 2396   3.776   3.816   2.212  0.5888 -1.6528 -0.7120
   19SAPS   HN2 2397   3.733   3.682   2.310 -2.2005  0.0384 -0.5948
   19SAPS   HN3 2398   3.683   3.834   2.360 -2.0557 -2.3720 -0.8804
   19SAPS   C12 2399   3.881   3.810   2.392  0.7720 -0.1721 -0.3396
   19SAPS  H12A 2400   3.863   3.767   2.489 -1.0226 -1.4457 -1.1851
   19SAPS   C13 2401   4.016   3.744   2.352  0.0991  0.6164 -0.3938
   19SAPS  O13A 2402   4.028   3.722   2.234 -0.8113 -0.3872 -0.6371
   19SAPS  O13B 2403   4.115   3.758   2.425  0.1338 -0.2882  0.5366
   19SAPS   C11 2404   3.901   3.964   2.403  0.2103 -0.1754  0.2479
   19SAPS  H11A 2405   3.930   3.989   2.299 -0.9361 -3.8979 -1.1539
   19SAPS  H11B 2406   3.983   3.992   2.472 -0.8586  2.2198  0.6444
   19SAPS     P 2407   3.761   4.179   2.382  0.0690  0.0746  0.0197
   19SAPS   O13 2408   3.877   4.266   2.389 -0.6325  0.0134  0.1768
   19SAPS   O14 2409   3.697   4.161   2.253  0.4395 -0.3351 -0.2852
   19SAPS   O12 2410   3.786   4.042   2.448 -0.3720 -0.3727 -0.4801
   19SAPS   O11 2411   3.647   4.244   2.467  0.3497 -0.7750 -0.3119
   19SAPS    C1 2412   3.565   4.168   2.555  0.3370 -1.0087  0.3776
   19SAPS    HA 2413   3.461   4.206   2.547  0.3707 -1.0488 -0.3371
   19SAPS    HB 2414   3.561   4.062   2.522  0.8745 -1.3147  1.2366
   19SAPS    C2 2415   3.614   4.191   2.703  0.2473  0.0788  0.4202
   19SAPS    HS 2416   3.617   4.300   2.723  1.8578  0.5469 -1.9601
   19SAPS   O21 2417   3.740   4.120   2.720 -0.1251 -0.2956 -0.8857
   19SAPS   C21 2418   3.828   4.184   2.802  0.3391 -0.0809  0.0398
   19SAPS   O22 2419   3.818   4.302   2.840 -0.2631  0.4269 -0.3884
   19SAPS   C22 2420   3.951   4.101   2.826 -0.1462  0.8547  0.0051
   19SAPS   H2R 2421   3.940   4.004   2.771 -0.3693  0.4525  0.7503
   19SAPS   H2S 2422   4.040   4.161   2.797  1.3787 -1.5175 -0.5282
   19SAPS    C3 2423   3.509   4.125   2.801 -0.2348 -0.4919 -0.3432
   19SAPS    HX 2424   3.509   4.015   2.785 -0.4012 -1.1063  3.0576
   19SAPS    HY 2425   3.414   4.175   2.774  1.0847  1.1538 -2.2098
   19SAPS   O31 2426   3.540   4.161   2.938 -0.2954 -0.7241  0.9440
   19SAPS   C31 2427   3.587   4.067   3.010  0.4227 -0.4548 -0.2209
   19SAPS   O32 2428   3.610   3.953   2.976 -0.3194  0.3509  0.0381
   19SAPS   C32 2429   3.633   4.134   3.142 -0.0265 -0.2462 -0.5626
   19SAPS   H2X 2430   3.577   4.230   3.143 -0.9888 -0.7547 -2.2252
   19SAPS   H2Y 2431   3.740   4.162   3.138 -0.0553  0.0150  0.1775
   19SAPS   C23 2432   3.982   4.065   2.974 -0.1662 -0.2087 -0.1947
   19SAPS   H3R 2433   4.049   3.978   2.956 -3.2645 -3.0809  1.0031
   19SAPS   H3S 2434   3.896   4.034   3.038 -0.6578  0.9522 -0.2787
   19SAPS   C24 2435   4.048   4.186   3.042 -0.3102  0.2151 -0.3526
   19SAPS   H4R 2436   3.967   4.253   3.078  1.5205  2.1821  0.2929
   19SAPS   H4S 2437   4.112   4.248   2.976  0.4846 -0.0759  0.1240
   19SAPS   C25 2438   4.116   4.135   3.169  0.1990  0.1119  0.6442
   19SAPS   H5R 2439   4.196   4.069   3.133 -0.7977 -0.0152 -1.4886
   19SAPS   C26 2440   4.083   4.160   3.297  0.0098 -0.8102 -0.7743
   19SAPS   H6R 2441   4.149   4.124   3.376 -0.5243 -0.4985 -0.1721
   19SAPS   C27 2442   3.975   4.250   3.350 -0.0951 -0.2235  0.1907
   19SAPS   H7R 2443   3.931   4.198   3.438 -1.0642 -2.3711 -1.4674
   19SAPS   H7S 2444   3.894   4.250   3.273 -0.3392  0.0784  0.4450
   19SAPS   C28 2445   4.009   4.399   3.372 -1.0059  0.2965 -0.1655
   19SAPS   H8R 2446   4.009   4.465   3.284  2.2341  2.3478  1.1969
   19SAPS   C29 2447   4.006   4.462   3.488 -0.1994 -0.2289 -0.3784
   19SAPS   H9R 2448   4.004   4.572   3.492 -2.4597 -0.2180 -0.8536
   19SAPS  C210 2449   3.979   4.385   3.616 -0.1216  0.4061  1.0219
   19SAPS  H10R 2450   4.073   4.340   3.652  0.3660 -0.1331 -0.8070
   19SAPS  H10S 2451   3.893   4.317   3.600 -1.1738  1.5532  1.6221
   19SAPS  C211 2452   3.937   4.472   3.735  0.1449  0.3463 -0.2054
   19SAPS  H11R 2453   3.873   4.558   3.708  0.8400  1.1739  0.7164
   19SAPS  C212 2454   3.944   4.433   3.867  0.1160 -0.1786 -0.3527
   19SAPS  H12R 2455   3.911   4.500   3.947 -1.6613 -0.1666 -1.0611
   19SAPS  C213 2456   4.004   4.300   3.915  0.2415 -0.3835  0.1655
   19SAPS  H13R 2457   4.051   4.237   3.837 -2.5381 -1.6892 -0.5858
   19SAPS  H13S 2458   3.922   4.239   3.959 -0.7368  1.2531  0.7198
   19SAPS  C214 2459   4.094   4.343   4.034 -0.5399  0.0873  0.4959
   19SAPS  H14R 2460   4.190   4.386   4.004  1.1164 -0.3212  4.5667
   19SAPS  C215 2461   4.076   4.323   4.164  0.0536  0.5170 -0.1387
   19SAPS  H15R 2462   4.152   4.352   4.238  1.2093 -0.1838 -1.0165
   19SAPS  C216 2463   3.961   4.258   4.236 -1.0385 -0.8794 -0.9761
   19SAPS  H16R 2464   4.001   4.189   4.314  0.1353  0.8880  0.0620
   19SAPS  H16S 2465   3.888   4.206   4.170  1.4022 -1.5443 -3.3532
   19SAPS  C217 2466   3.870   4.349   4.319 -0.0569 -0.4906 -0.1382
   19SAPS  H17R 2467   3.793   4.280   4.359 -0.6322 -0.3987 -1.0738
   19SAPS  H17S 2468   3.824   4.436   4.268 -0.6144 -0.7707 -0.1159
   19SAPS  C218 2469   3.940   4.407   4.444 -0.6961  0.2043  0.6175
   19SAPS  H18R 2470   4.027   4.471   4.421 -1.8169  1.4978 -0.2037
   19SAPS  H18S 2471   3.976   4.319   4.502 -0.0838  0.4149  0.5597
   19SAPS  C219 2472   3.851   4.503   4.525  0.2144 -0.2175  0.2602
   19SAPS  H19R 2473   3.749   4.459   4.521  0.2283 -0.3264  0.9697
   19SAPS  H19S 2474   3.847   4.604   4.478  1.7999  0.1834  0.9482
   19SAPS  C220 2475   3.886   4.498   4.676  0.6517 -0.0127 -0.4017
   19SAPS  H20R 2476   3.833   4.406   4.711 -1.4218  1.6699  1.1959
   19SAPS  H20S 2477   3.850   4.578   4.745  1.4361 -0.0168  0.0243
   19SAPS  H20T 2478   3.996   4.492   4.689  0.9902  2.2295 -1.7341
   19SAPS   C33 2479   3.615   4.046   3.272 -0.3681  0.3930  0.5207
   19SAPS   H3X 2480   3.668   4.090   3.359 -0.5433 -0.2669  0.9712
   19SAPS   H3Y 2481   3.654   3.943   3.256  0.3887  0.5522  1.2506
   19SAPS   C34 2482   3.465   4.041   3.305 -0.6390  0.3911 -0.1729
   19SAPS   H4X 2483   3.415   3.986   3.223  2.2962 -1.7157 -0.7287
   19SAPS   H4Y 2484   3.427   4.145   3.305 -0.8621  0.4734  3.5069
   19SAPS   C35 2485   3.444   3.975   3.440  0.0044  0.4292 -0.2218
   19SAPS   H5X 2486   3.479   3.871   3.457  0.7844  0.7154  0.0032
   19SAPS   H5Y 2487   3.336   3.965   3.461  0.2788 -0.8765  0.6570
   19SAPS   C36 2488   3.491   4.057   3.561 -0.2741  0.4043  0.4347
   19SAPS   H6X 2489   3.445   4.157   3.547 -0.9261  0.0126 -0.3858
   19SAPS   H6Y 2490   3.601   4.065   3.571 -0.1807 -0.2227  0.0197
   19SAPS   C37 2491   3.432   3.988   3.692 -0.5281 -0.2780  0.4268
   19SAPS   H7X 2492   3.470   3.885   3.703  1.0166  0.1348 -0.7365
   19SAPS   H7Y 2493   3.321   3.980   3.697 -0.5835  1.0504  2.4726
   19SAPS   C38 2494   3.482   4.058   3.822 -0.7660 -0.1183  0.3822
   19SAPS   H8X 2495   3.449   4.164   3.822  2.2588  0.9427  0.2260
   19SAPS   H8Y 2496   3.591   4.064   3.798 -1.1035 -3.2166 -2.8419
   19SAPS   C39 2497   3.461   3.994   3.954 -0.4559 -0.1588  0.0767
   19SAPS   H9X 2498   3.532   4.037   4.027  1.4233 -1.8188 -0.6770
   19SAPS   H9Y 2499   3.499   3.889   3.954  1.6449  0.5613 -1.1100
   19SAPS  C310 2500   3.320   4.012   4.001  0.2517  0.5024 -0.0805
   19SAPS  H10X 2501   3.252   3.970   3.924 -0.3473  0.8848  0.2288
   19SAPS  H10Y 2502   3.279   4.115   4.010 -0.3867  0.2069  0.5475
   19SAPS  C311 2503   3.292   3.943   4.141 -0.0165  0.0145 -0.6759
   19SAPS  H11X 2504   3.322   4.009   4.226  1.0693 -2.6420  1.1525
   19SAPS  H11Y 2505   3.353   3.850   4.149  0.5001  0.4417  0.6647
   19SAPS  C312 2506   3.143   3.901   4.162 -0.3247 -0.0451  0.8661
   19SAPS  H12X 2507   3.131   3.813   4.095 -1.8962  3.2582 -3.7140
   19SAPS  H12Y 2508   3.075   3.980   4.124 -0.9916 -1.8679 -1.9937
   19SAPS  C313 2509   3.119   3.866   4.313  0.1803  0.1499 -0.3876
   19SAPS  H13X 2510   3.220   3.837   4.348 -0.6898 -2.2009  0.3565
   19SAPS  H13Y 2511   3.047   3.782   4.316  1.3051 -0.8961 -1.4327
   19SAPS  C314 2512   3.055   3.988   4.381  0.7961  0.4212  0.8170
   19SAPS  H14X 2513   2.944   3.993   4.371  0.7282  0.3201  1.4527
   19SAPS  H14Y 2514   3.099   4.081   4.339  1.5644  0.5265  1.8187
   19SAPS  C315 2515   3.095   3.990   4.528 -0.0343  0.7098 -0.3526
   19SAPS  H15X 2516   3.200   4.027   4.524  0.5620 -0.8136  0.1434
   19SAPS  H15Y 2517   3.101   3.886   4.569 -0.8375  1.0360  0.6347
   19SAPS  C316 2518   2.999   4.076   4.614  0.0077 -0.5076  0.8139
   19SAPS  H16X 2519   2.926   4.010   4.664  0.7671 -1.5975  0.5101
   19SAPS  H16Y 2520   2.947   4.159   4.560  0.8207 -0.7546 -0.4010
   19SAPS  C317 2521   3.080   4.145   4.724  0.2040 -0.0929  0.1957
   19SAPS  H17X 2522   3.152   4.220   4.685  1.2529 -0.9617  0.4402
   19SAPS  H17Y 2523   3.133   4.068   4.784 -1.5102 -0.4738  1.2981
   19SAPS  C318 2524   2.986   4.213   4.812  0.0420  0.0711 -0.3457
   19SAPS  H18X 2525   3.030   4.279   4.890 -0.8764  0.4582 -0.1482
   19SAPS  H18Y 2526   2.936   4.134   4.872 -0.9440 -0.8537 -2.2979
   19SAPS  H18Z 2527   2.911   4.269   4.753 -0.1665 -1.9397 -2.1157
   20SAPS     N 2528   6.268   3.770   2.110 -0.8472  0.4654  0.0854
   20SAPS   HN1 2529   6.332   3.761   2.029 -1.5686  0.6795 -0.5206
   20SAPS   HN2 2530   6.286   3.870   2.133 -1.9960  1.0023 -1.1408
   20SAPS   HN3 2531   6.298   3.705   2.185  0.2566  0.0214 -0.7073
   20SAPS   C12 2532   6.132   3.749   2.066  0.2710 -0.0845  0.6602
   20SAPS  H12A 2533   6.104   3.833   2.004  0.5446  0.1869  0.9028
   20SAPS   C13 2534   6.107   3.619   1.984  0.6872  0.6368  0.0112
   20SAPS  O13A 2535   6.201   3.554   1.942  0.7395  0.3805  0.7288
   20SAPS  O13B 2536   5.990   3.587   1.957 -0.2320  0.0072  0.2044
   20SAPS   C11 2537   6.034   3.755   2.185  0.5526  0.0801  0.1537
   20SAPS  H11A 2538   5.933   3.740   2.141  0.2239 -1.0940  1.2728
   20SAPS  H11B 2539   6.023   3.859   2.224 -0.8292  0.8100 -2.0023
   20SAPS     P 2540   6.021   3.535   2.326 -0.0831 -0.0114 -0.1603
   20SAPS   O13 2541   5.880   3.525   2.287  0.2418 -0.4468 -0.8510
   20SAPS   O14 2542   6.112   3.423   2.285 -0.1116  0.2209 -0.6587
   20SAPS   O12 2543   6.077   3.678   2.302 -0.3837 -0.0966  0.3219
   20SAPS   O11 2544   6.025   3.528   2.482 -0.0161  0.3341 -0.9375
   20SAPS    C1 2545   5.920   3.556   2.574  0.0874 -0.6652  0.1657
   20SAPS    HA 2546   5.885   3.661   2.560  2.3221  0.2475  1.0376
   20SAPS    HB 2547   5.830   3.492   2.560  0.1824 -0.5443 -1.0488
   20SAPS    C2 2548   5.964   3.534   2.723  0.3311  0.3919 -0.2524
   20SAPS    HS 2549   5.880   3.478   2.768 -0.5703  1.2961 -0.7711
   20SAPS   O21 2550   5.993   3.662   2.780  0.1339  0.3440 -0.1523
   20SAPS   C21 2551   5.886   3.716   2.834 -0.3094 -0.0040 -0.2102
   20SAPS   O22 2552   5.774   3.665   2.827  0.0142  0.1722 -0.3491
   20SAPS   C22 2553   5.923   3.844   2.909 -0.1420  0.0235  0.3534
   20SAPS   H2R 2554   5.839   3.865   2.979  0.5646  2.2086  0.6408
   20SAPS   H2S 2555   6.014   3.818   2.967  1.2335 -1.1050 -2.1529
   20SAPS    C3 2556   6.096   3.445   2.724  0.4482 -0.5503 -0.7761
   20SAPS    HX 2557   6.180   3.512   2.696  0.6960 -0.7057 -0.4109
   20SAPS    HY 2558   6.097   3.364   2.648 -1.9755 -0.2564 -1.2043
   20SAPS   O31 2559   6.113   3.400   2.851  0.2635  0.0656  0.1165
   20SAPS   C31 2560   6.065   3.286   2.885  0.2260  0.3816  0.6728
   20SAPS   O32 2561   5.973   3.227   2.830 -0.0676 -0.1536  0.2391
   20SAPS   C32 2562   6.113   3.261   3.029 -0.3583  0.8134 -0.4973
   20SAPS   H2X 2563   6.223   3.244   3.019 -0.6471 -1.9582  0.0620
   20SAPS   H2Y 2564   6.065   3.171   3.073  1.4401 -0.1874 -0.4805
   20SAPS   C23 2565   5.939   3.963   2.820  0.6533  0.4299 -0.6510
   20SAPS   H3R 2566   5.859   3.953   2.744  0.9967  0.1767 -0.9829
   20SAPS   H3S 2567   6.030   3.947   2.757  0.7853 -1.8534  0.0349
   20SAPS   C24 2568   5.941   4.097   2.895 -0.3167 -0.1696  0.0804
   20SAPS   H4R 2569   5.842   4.104   2.943 -0.9964 -0.8094 -1.1701
   20SAPS   H4S 2570   5.946   4.184   2.826 -0.7905 -1.1790 -1.2769
   20SAPS   C25 2571   6.052   4.111   2.995  0.3275 -0.3872  0.0030
   20SAPS   H5R 2572   6.149   4.142   2.953 -0.1389 -0.6780 -1.3460
   20SAPS   C26 2573   6.044   4.062   3.126 -0.3824 -0.9663 -0.1518
   20SAPS   H6R 2574   6.128   4.086   3.193 -1.3493  1.6126  0.2487
   20SAPS   C27 2575   5.928   4.004   3.198  0.5412  0.6408  0.1121
   20SAPS   H7R 2576   5.840   4.000   3.130 -0.5145 -0.0036  1.4553
   20SAPS   H7S 2577   5.889   4.070   3.278  1.6440  1.0494  0.3298
   20SAPS   C28 2578   5.965   3.865   3.248 -0.4481 -0.0120  0.2218
   20SAPS   H8R 2579   6.062   3.826   3.212 -0.7661  0.5987 -1.3943
   20SAPS   C29 2580   5.894   3.803   3.344  0.3845  0.3739 -0.1806
   20SAPS   H9R 2581   5.918   3.698   3.369  0.4101 -0.4766 -3.3315
   20SAPS  C210 2582   5.753   3.849   3.378 -0.3182 -0.2845 -0.5165
   20SAPS  H10R 2583   5.689   3.760   3.395  1.8108 -1.6767  0.5581
   20SAPS  H10S 2584   5.686   3.885   3.297 -2.6490 -1.3460  0.8469
   20SAPS  C211 2585   5.730   3.955   3.488 -0.0063  0.5139  0.0067
   20SAPS  H11R 2586   5.701   4.057   3.459  2.2621  1.1347 -0.3033
   20SAPS  C212 2587   5.745   3.940   3.619  1.1133 -0.3923 -0.2535
   20SAPS  H12R 2588   5.742   4.030   3.683 -1.7666  1.4237 -2.6553
   20SAPS  C213 2589   5.778   3.813   3.698 -0.4330 -0.1880  0.7050
   20SAPS  H13R 2590   5.866   3.844   3.758  1.9856 -1.4742 -1.9251
   20SAPS  H13S 2591   5.817   3.734   3.630 -1.0828 -2.5377  2.9017
   20SAPS  C214 2592   5.664   3.763   3.778  0.5315 -0.0733  0.1941
   20SAPS  H14R 2593   5.577   3.731   3.719  1.3692 -2.8902  0.3527
   20SAPS  C215 2594   5.661   3.761   3.911 -0.0503 -0.3147 -0.2942
   20SAPS  H15R 2595   5.580   3.705   3.960  0.4260 -1.5327 -0.8597
   20SAPS  C216 2596   5.764   3.826   4.013  0.1004 -0.0040 -0.1525
   20SAPS  H16R 2597   5.727   3.913   4.071  0.8657 -0.1104  0.5113
   20SAPS  H16S 2598   5.856   3.856   3.959 -1.0325  1.3172 -1.4390
   20SAPS  C217 2599   5.809   3.716   4.113  0.8819 -0.2178  0.2400
   20SAPS  H17R 2600   5.849   3.624   4.064  1.1094 -1.5742  2.8277
   20SAPS  H17S 2601   5.729   3.672   4.177 -1.1807  0.3958 -1.7695
   20SAPS  C218 2602   5.913   3.775   4.199 -0.8885 -0.2113  0.1704
   20SAPS  H18R 2603   5.864   3.855   4.258 -0.3237  1.2808 -1.3198
   20SAPS  H18S 2604   5.984   3.824   4.129 -0.8182 -2.8174 -1.7078
   20SAPS  C219 2605   5.994   3.671   4.284 -0.0826  0.3559  0.2768
   20SAPS  H19R 2606   6.093   3.721   4.284  0.1324 -0.0526 -0.7179
   20SAPS  H19S 2607   5.983   3.571   4.238 -1.9298  1.2660 -1.4206
   20SAPS  C220 2608   5.945   3.668   4.427 -0.3188 -0.0697 -0.6482
   20SAPS  H20R 2609   5.859   3.602   4.452 -1.0657  1.9840  2.9764
   20SAPS  H20S 2610   5.915   3.770   4.458 -2.2175 -1.1219  1.2957
   20SAPS  H20T 2611   6.036   3.650   4.489  0.0986  2.7905 -0.2873
   20SAPS   C33 2612   6.078   3.384   3.125 -0.1350  0.0087  0.3543
   20SAPS   H3X 2613   5.968   3.391   3.111  0.0807 -1.1455 -2.8060
   20SAPS   H3Y 2614   6.128   3.474   3.083  2.7964 -0.5797  2.3310
   20SAPS   C34 2615   6.121   3.359   3.266  0.3326 -0.4112  0.7013
   20SAPS   H4X 2616   6.231   3.360   3.284  0.6270 -1.0311 -0.9052
   20SAPS   H4Y 2617   6.076   3.260   3.286 -0.2165 -0.7260 -1.7350
   20SAPS   C35 2618   6.058   3.458   3.366  0.1342  0.6356  0.5046
   20SAPS   H5X 2619   5.972   3.510   3.318  1.3102  0.7179 -1.6194
   20SAPS   H5Y 2620   6.123   3.545   3.389 -0.5066  1.1498  0.4178
   20SAPS   C36 2621   6.029   3.392   3.503  0.2302 -0.3573 -0.1288
   20SAPS   H6X 2622   6.113   3.340   3.554 -0.0315  0.8187  1.6021
   20SAPS   H6Y 2623   5.962   3.310   3.469  0.3101  0.3548 -2.1462
   20SAPS   C37 2624   5.970   3.493   3.605  0.0716  0.5597  0.3149
   20SAPS   H7X 2625   5.894   3.551   3.549 -1.1190 -1.5012 -0.3155
   20SAPS   H7Y 2626   6.047   3.562   3.647 -0.5029  0.9427  0.7522
   20SAPS   C38 2627   5.887   3.432   3.721  0.1793 -0.0488 -0.1911
   20SAPS   H8X 2628   5.876   3.508   3.801 -2.0048 -0.6996  0.2153
   20SAPS   H8Y 2629   5.947   3.354   3.772 -0.4023 -0.8954 -0.7780
   20SAPS   C39 2630   5.735   3.406   3.675 -0.7520 -0.5569 -0.3864
   20SAPS   H9X 2631   5.735   3.316   3.610  3.4181 -0.5490 -0.6334
   20SAPS   H9Y 2632   5.687   3.488   3.617 -0.2785  0.0149  0.0218
   20SAPS  C310 2633   5.639   3.367   3.792 -1.0372 -0.2893 -0.0867
   20SAPS  H10X 2634   5.544   3.350   3.736  0.7656 -1.7258 -3.0093
   20SAPS  H10Y 2635   5.627   3.451   3.862  1.3970 -0.5559  0.7267
   20SAPS  C311 2636   5.682   3.242   3.871  0.6413 -0.2726  0.0137
   20SAPS  H11X 2637   5.756   3.177   3.820  0.8091  0.5429 -0.8162
   20SAPS  H11Y 2638   5.591   3.180   3.887 -1.0773  2.6236  2.7812
   20SAPS  C312 2639   5.734   3.268   4.012 -0.4403  0.0194 -0.2983
   20SAPS  H12X 2640   5.807   3.352   4.013 -0.4896  0.1135 -1.9240
   20SAPS  H12Y 2641   5.791   3.179   4.045 -0.6926  0.0526  0.2268
   20SAPS  C313 2642   5.620   3.306   4.108 -0.6774 -0.0851 -0.6090
   20SAPS  H13X 2643   5.539   3.230   4.107  0.5998 -1.6145  1.7409
   20SAPS  H13Y 2644   5.558   3.393   4.077 -0.5916 -0.2049 -1.1176
   20SAPS  C314 2645   5.657   3.323   4.253 -0.1766  0.2631  0.0595
   20SAPS  H14X 2646   5.730   3.407   4.249 -1.3377  1.2540 -1.1907
   20SAPS  H14Y 2647   5.715   3.233   4.284  0.5872 -0.7502 -3.8390
   20SAPS  C315 2648   5.534   3.360   4.336  0.2899 -0.4993  0.1211
   20SAPS  H15X 2649   5.490   3.271   4.385 -2.1478 -0.0550 -1.0781
   20SAPS  H15Y 2650   5.448   3.390   4.272  0.3869 -1.2882 -0.3933
   20SAPS  C316 2651   5.566   3.459   4.454  0.0603  0.4909  0.3365
   20SAPS  H16X 2652   5.587   3.557   4.404 -1.4343  2.1484  2.7452
   20SAPS  H16Y 2653   5.662   3.435   4.506 -0.3325 -1.1003  0.3713
   20SAPS  C317 2654   5.463   3.482   4.564  0.6849  0.6630  0.4922
   20SAPS  H17X 2655   5.360   3.499   4.526  0.2281  1.8016  2.1408
   20SAPS  H17Y 2656   5.485   3.576   4.618  2.3611  1.6114 -1.6719
   20SAPS  C318 2657   5.452   3.371   4.662 -0.7156  0.6047 -0.0178
   20SAPS  H18X 2658   5.408   3.278   4.620  0.5567  0.5527 -1.3370
   20SAPS  H18Y 2659   5.388   3.401   4.748  0.3311 -1.2085  1.4797
   20SAPS  H18Z 2660   5.547   3.343   4.713 -0.8475 -0.1921 -0.1865
   21CHL1    C3 2661   0.749   2.343   6.910 -0.2322  0.8042 -0.3974
   21CHL1    H3 2662   0.731   2.452   6.906 -0.0940  0.9846  2.0409
   21CHL1    O3 2663   0.763   2.292   7.039  0.5727  0.4975 -0.8134
   21CHL1   H3' 2664   0.803   2.204   7.035  1.3878  0.3566  4.4521
   21CHL1    C4 2665   0.631   2.270   6.842 -0.5311 -0.1508  0.2283
   21CHL1   H4A 2666   0.647   2.160   6.852  1.0600 -0.2553 -2.5153
   21CHL1   H4B 2667   0.542   2.282   6.909 -2.3013 -2.8806 -1.4068
   21CHL1    C5 2668   0.619   2.310   6.691 -0.2217 -1.1934 -0.6025
   21CHL1    C6 2669   0.509   2.364   6.638  0.1868 -0.1156  0.3055
   21CHL1    H6 2670   0.427   2.371   6.711 -0.0181 -0.3948  0.1000
   21CHL1    C7 2671   0.499   2.411   6.492  0.4351 -0.4116  0.0612
   21CHL1   H7A 2672   0.413   2.362   6.443  2.3642 -3.8371 -0.2311
   21CHL1   H7B 2673   0.490   2.522   6.496  1.6793 -0.3189  1.0066
   21CHL1    C8 2674   0.616   2.373   6.401  0.4510  0.2141 -0.2825
   21CHL1    H8 2675   0.603   2.266   6.375  2.5788 -0.4788  1.1854
   21CHL1   C14 2676   0.625   2.455   6.274 -0.0481 -0.0493 -0.3660
   21CHL1   H14 2677   0.652   2.556   6.312  2.3888 -0.2757 -1.3138
   21CHL1   C15 2678   0.496   2.473   6.195  0.3545  0.3002 -0.5628
   21CHL1  H15A 2679   0.427   2.386   6.199 -0.8915  1.2946  1.1171
   21CHL1  H15B 2680   0.442   2.566   6.224 -0.2128  0.3661 -1.7819
   21CHL1   C16 2681   0.553   2.491   6.047  0.4663 -0.2145 -0.0189
   21CHL1  H16A 2682   0.517   2.407   5.983  1.2482 -0.7717  0.2598
   21CHL1  H16B 2683   0.513   2.588   6.009  0.6697  0.0888  0.5333
   21CHL1   C17 2684   0.703   2.492   6.051  0.2329 -0.6159 -0.4783
   21CHL1   H17 2685   0.740   2.594   6.075  0.0493 -0.8633  0.9538
   21CHL1   C13 2686   0.739   2.408   6.177 -0.2569  0.0218 -0.0941
   21CHL1   C18 2687   0.720   2.258   6.141  0.7789  0.1803 -0.8285
   21CHL1  H18A 2688   0.610   2.242   6.137  0.7791 -0.5205  1.1166
   21CHL1  H18B 2689   0.753   2.223   6.040  0.3511  1.1550 -1.3172
   21CHL1  H18C 2690   0.760   2.180   6.210 -1.6644 -1.1145 -0.7850
   21CHL1   C12 2691   0.867   2.447   6.249 -0.2654 -0.1492 -0.2608
   21CHL1  H12A 2692   0.952   2.414   6.186  0.5308  0.8089  0.2778
   21CHL1  H12B 2693   0.878   2.557   6.257  0.2151 -0.2560  0.6611
   21CHL1   C11 2694   0.871   2.375   6.385  0.3432  0.4250  0.1701
   21CHL1  H11A 2695   0.892   2.268   6.360 -1.3752 -0.0750  0.7568
   21CHL1  H11B 2696   0.957   2.413   6.443 -0.1140  2.7104 -0.5671
   21CHL1    C9 2697   0.744   2.387   6.477 -0.0628 -0.4045 -0.7431
   21CHL1    H9 2698   0.747   2.493   6.509  0.9549 -0.5125 -0.4464
   21CHL1   C10 2699   0.746   2.299   6.605 -0.1060  0.3658  0.0478
   21CHL1   C19 2700   0.747   2.152   6.568  0.0492  0.5195  0.4926
   21CHL1  H19A 2701   0.655   2.110   6.521  1.0408 -0.2139 -0.8592
   21CHL1  H19B 2702   0.819   2.126   6.488 -0.7507 -1.9344  0.5079
   21CHL1  H19C 2703   0.763   2.085   6.655 -0.4988 -0.2426  0.0124
   21CHL1    C1 2704   0.876   2.337   6.686 -0.9975 -0.0663 -0.1380
   21CHL1   H1A 2705   0.972   2.304   6.642 -0.8428 -0.7650  0.6885
   21CHL1   H1B 2706   0.888   2.448   6.685 -0.9185 -0.0632  0.5124
   21CHL1    C2 2707   0.883   2.311   6.842 -0.2063  0.0535  0.5377
   21CHL1   H2A 2708   0.964   2.371   6.888  0.1682  0.0614 -0.1170
   21CHL1   H2B 2709   0.917   2.207   6.860  3.1231  1.0607  0.7239
   21CHL1   C20 2710   0.751   2.455   5.912  0.0248  0.9364  0.9460
   21CHL1   H20 2711   0.713   2.355   5.880 -1.2253  1.5994  0.2991
   21CHL1   C21 2712   0.908   2.451   5.905 -0.8161  0.1740  0.0014
   21CHL1  H21A 2713   0.955   2.542   5.947 -2.3238 -0.2345  2.8197
   21CHL1  H21B 2714   0.954   2.427   5.807 -0.8094 -1.0745  0.2889
   21CHL1  H21C 2715   0.936   2.369   5.974 -1.5347 -0.2004 -0.1369
   21CHL1   C22 2716   0.710   2.554   5.797 -0.5848 -0.1773  0.2159
   21CHL1  H22A 2717   0.605   2.589   5.805 -1.1963 -1.5224 -1.4036
   21CHL1  H22B 2718   0.782   2.638   5.793 -2.4093  1.3920 -1.4153
   21CHL1   C23 2719   0.704   2.474   5.667 -0.7706 -0.4817  0.2595
   21CHL1  H23A 2720   0.807   2.441   5.643  0.3692  0.8775  2.8562
   21CHL1  H23B 2721   0.647   2.380   5.682  1.6267 -1.9785  0.5445
   21CHL1   C24 2722   0.663   2.558   5.545 -0.4752  0.3137 -0.6233
   21CHL1  H24A 2723   0.554   2.548   5.525 -0.1717 -1.1621 -1.7717
   21CHL1  H24B 2724   0.687   2.664   5.566  2.4155 -0.7487  2.1709
   21CHL1   C25 2725   0.731   2.504   5.415 -0.7545 -0.7245  0.4008
   21CHL1   H25 2726   0.693   2.561   5.327 -0.7200 -1.2847  0.0246
   21CHL1   C26 2727   0.875   2.551   5.410 -0.2344 -0.3646  0.7475
   21CHL1  H26A 2728   0.895   2.658   5.434 -2.7536  1.0431 -2.5980
   21CHL1  H26B 2729   0.942   2.495   5.478  0.6615 -1.2960 -0.8506
   21CHL1  H26C 2730   0.913   2.530   5.308 -2.3006 -0.2225 -0.1009
   21CHL1   C27 2731   0.718   2.354   5.396 -0.3236  0.2602 -0.2856
   21CHL1  H27A 2732   0.613   2.329   5.420  0.0422  1.3361  2.8992
   21CHL1  H27B 2733   0.736   2.312   5.294 -1.0918  1.7521 -1.0654
   21CHL1  H27C 2734   0.784   2.297   5.465 -1.9244 -0.7691  0.4366
   22CHL1    C3 2735   3.932   1.892   6.368 -0.3975  0.0339  0.6049
   22CHL1    H3 2736   3.997   1.811   6.329  1.0097  1.3659  0.0569
   22CHL1    O3 2737   3.943   1.901   6.509 -0.2277  0.0129  0.5683
   22CHL1   H3' 2738   3.887   1.975   6.534 -1.3490 -0.9988  1.1608
   22CHL1    C4 2739   3.965   2.033   6.316 -0.8005  0.3452  0.1880
   22CHL1   H4A 2740   3.900   2.100   6.376 -0.2221 -1.6486  3.2676
   22CHL1   H4B 2741   4.062   2.066   6.358 -1.3962  1.1501  0.9805
   22CHL1    C5 2742   3.955   2.056   6.164 -0.2012  0.0033  0.4042
   22CHL1    C6 2743   4.063   2.097   6.091  0.2119  0.2904 -0.8210
   22CHL1    H6 2744   4.155   2.133   6.137  0.2274  0.9213 -1.3260
   22CHL1    C7 2745   4.064   2.102   5.941  0.1661  0.1344  0.5867
   22CHL1   H7A 2746   4.124   2.187   5.903  0.0276 -0.0750 -0.1104
   22CHL1   H7B 2747   4.110   2.003   5.919 -0.2007 -0.3414  1.8454
   22CHL1    C8 2748   3.917   2.079   5.888 -0.0200  0.0639 -0.7236
   22CHL1    H8 2749   3.848   2.160   5.920 -1.1337 -1.8579  2.0985
   22CHL1   C14 2750   3.923   2.057   5.740 -0.1444 -0.2696 -0.3222
   22CHL1   H14 2751   3.985   1.965   5.731 -0.1631 -0.3679  0.4671
   22CHL1   C15 2752   3.998   2.162   5.654  0.4418 -0.3246 -0.4948
   22CHL1  H15A 2753   3.968   2.266   5.676  0.0135 -0.0279 -2.3299
   22CHL1  H15B 2754   4.107   2.153   5.673  0.3940  1.2912  0.7886
   22CHL1   C16 2755   3.954   2.118   5.511  0.4989  0.1363 -0.1255
   22CHL1  H16A 2756   3.924   2.212   5.459  0.6969 -0.9176 -2.2445
   22CHL1  H16B 2757   4.031   2.063   5.453 -0.6101 -2.0287  0.3847
   22CHL1   C17 2758   3.837   2.023   5.525  0.7834 -0.4334 -0.2152
   22CHL1   H17 2759   3.872   1.919   5.508  3.2135  0.2391  0.2353
   22CHL1   C13 2760   3.791   2.047   5.671 -0.1522  0.1427  0.3689
   22CHL1   C18 2761   3.717   2.180   5.683  0.4215 -0.1494  0.0662
   22CHL1  H18A 2762   3.617   2.165   5.637  0.0829 -1.0931  1.0628
   22CHL1  H18B 2763   3.704   2.216   5.787  0.7824 -0.9106  0.3812
   22CHL1  H18C 2764   3.757   2.260   5.618  1.2844 -1.1609 -0.6787
   22CHL1   C12 2765   3.720   1.934   5.738  0.2115  0.2574  0.3100
   22CHL1  H12A 2766   3.620   1.922   5.692  0.9224 -2.3289 -0.7694
   22CHL1  H12B 2767   3.765   1.835   5.712 -0.5945 -0.3938  1.3048
   22CHL1   C11 2768   3.705   1.944   5.891 -0.4290  0.3599  0.0190
   22CHL1  H11A 2769   3.637   2.031   5.902 -0.5803  0.2926 -0.3974
   22CHL1  H11B 2770   3.662   1.850   5.932 -2.5655  1.7813  1.1817
   22CHL1    C9 2771   3.844   1.958   5.955  0.4679 -0.2926  0.6778
   22CHL1    H9 2772   3.908   1.873   5.923  0.4511 -0.1504  0.2562
   22CHL1   C10 2773   3.835   1.984   6.105  0.2390  0.7193  0.4466
   22CHL1   C19 2774   3.709   2.088   6.143 -0.2736 -0.5322 -0.3122
   22CHL1  H19A 2775   3.618   2.026   6.128  1.9873 -4.5679  1.0024
   22CHL1  H19B 2776   3.714   2.128   6.247 -1.8412  3.2598 -1.5274
   22CHL1  H19C 2777   3.704   2.177   6.077 -1.5497  0.1620  0.6564
   22CHL1    C1 2778   3.799   1.849   6.174 -0.0682  0.0079  0.6522
   22CHL1   H1A 2779   3.698   1.822   6.136 -1.0390  0.4307  2.8072
   22CHL1   H1B 2780   3.875   1.772   6.149  0.5860  0.5709  0.8992
   22CHL1    C2 2781   3.792   1.859   6.321 -0.1585  0.3035 -0.2061
   22CHL1   H2A 2782   3.759   1.760   6.360  0.7756  0.0525 -0.0262
   22CHL1   H2B 2783   3.706   1.920   6.357 -0.5038 -0.9356  1.1874
   22CHL1   C20 2784   3.735   2.043   5.404 -0.1198  0.0785  0.0760
   22CHL1   H20 2785   3.695   2.146   5.412  0.1312  0.3862 -2.0509
   22CHL1   C21 2786   3.620   1.948   5.411  1.0685 -0.0231 -0.1189
   22CHL1  H21A 2787   3.648   1.841   5.421  0.3829 -0.0705  1.6147
   22CHL1  H21B 2788   3.558   1.952   5.319 -1.5475  0.6145  1.5906
   22CHL1  H21C 2789   3.556   1.972   5.499  0.7840  1.7734 -0.7678
   22CHL1   C22 2790   3.803   2.040   5.261 -0.7692  0.0842 -0.6575
   22CHL1  H22A 2791   3.720   2.058   5.190 -1.8700  0.6243  0.7036
   22CHL1  H22B 2792   3.866   2.131   5.250 -1.4420  0.6394 -0.0548
   22CHL1   C23 2793   3.891   1.920   5.218 -0.0818 -0.1667  0.5953
   22CHL1  H23A 2794   3.981   1.915   5.283 -0.5592  1.0762  1.3911
   22CHL1  H23B 2795   3.832   1.827   5.236  0.3597 -0.7954 -1.0734
   22CHL1   C24 2796   3.939   1.921   5.069  0.4484  0.0905  0.2397
   22CHL1  H24A 2797   3.848   1.914   5.006  0.3651  2.0979  0.0945
   22CHL1  H24B 2798   3.990   2.019   5.062  0.0514  0.2756 -0.0527
   22CHL1   C25 2799   4.044   1.810   5.031  0.1980  0.1307 -0.5607
   22CHL1   H25 2800   4.123   1.811   5.109  0.6771 -2.1257 -0.9639
   22CHL1   C26 2801   3.980   1.663   5.037 -0.2826  0.3243 -0.4867
   22CHL1  H26A 2802   3.911   1.655   4.949  0.8864 -1.4756 -1.2872
   22CHL1  H26B 2803   4.063   1.591   5.021 -0.1866  0.0215  1.2312
   22CHL1  H26C 2804   3.946   1.652   5.142  0.3062 -0.3874 -0.3684
   22CHL1   C27 2805   4.101   1.844   4.893  0.8360  0.1724  0.1766
   22CHL1  H27A 2806   4.139   1.948   4.893  2.7443 -0.4929 -0.2525
   22CHL1  H27B 2807   4.184   1.778   4.861  0.0248 -1.2712  0.8989
   22CHL1  H27C 2808   4.023   1.840   4.814  0.5417 -0.7909  0.4933
   23CHL1    C3 2809   0.406   2.769   6.682 -0.3566 -0.4189  0.3432
   23CHL1    H3 2810   0.438   2.667   6.651  2.1713  0.5946 -0.6562
   23CHL1    O3 2811   0.384   2.787   6.816 -0.4601  0.4982  0.2239
   23CHL1   H3' 2812   0.395   2.881   6.833  1.5585  0.2688  0.5370
   23CHL1    C4 2813   0.535   2.851   6.643  0.0414  0.0218 -0.8716
   23CHL1   H4A 2814   0.539   2.951   6.690  2.1180 -0.6456  0.4816
   23CHL1   H4B 2815   0.616   2.788   6.685  1.9696  1.2067 -2.6104
   23CHL1    C5 2816   0.570   2.872   6.497 -0.1705 -0.1665 -0.3630
   23CHL1    C6 2817   0.691   2.837   6.446 -0.3157  0.7474  0.7605
   23CHL1    H6 2818   0.766   2.809   6.522 -0.0424  0.5019  0.4015
   23CHL1    C7 2819   0.734   2.851   6.304  0.1316  0.6308 -0.2043
   23CHL1   H7A 2820   0.823   2.917   6.293 -0.1356  1.2595  1.2082
   23CHL1   H7B 2821   0.754   2.756   6.251  0.2299  0.5686 -0.0573
   23CHL1    C8 2822   0.620   2.940   6.221  0.6124  0.8908 -0.4597
   23CHL1    H8 2823   0.633   3.048   6.243  0.9519  0.6470  0.6562
   23CHL1   C14 2824   0.625   2.906   6.071  0.0899  0.8905  0.8236
   23CHL1   H14 2825   0.602   2.798   6.058  2.6601  0.5948 -3.0674
   23CHL1   C15 2826   0.765   2.920   6.007 -0.8456  0.0805  0.0833
   23CHL1  H15A 2827   0.809   3.015   6.045 -0.1782 -1.2313  2.8188
   23CHL1  H15B 2828   0.835   2.836   6.021 -1.0106 -0.2435 -0.9541
   23CHL1   C16 2829   0.732   2.941   5.856  0.1917  0.0621  1.0139
   23CHL1  H16A 2830   0.775   3.040   5.832 -0.0880 -0.0334  0.0401
   23CHL1  H16B 2831   0.788   2.869   5.792  2.3458 -1.3267  4.2483
   23CHL1   C17 2832   0.583   2.930   5.839 -0.2340  0.8472  0.3899
   23CHL1   H17 2833   0.559   2.822   5.830 -1.6742  1.2961 -2.0544
   23CHL1   C13 2834   0.524   2.978   5.974  0.6550  0.0689 -0.9746
   23CHL1   C18 2835   0.527   3.129   5.982  0.4302  0.4912  0.1720
   23CHL1  H18A 2836   0.450   3.171   5.914 -0.2287  1.6007  1.5615
   23CHL1  H18B 2837   0.506   3.159   6.086 -0.2353  0.4035  0.0715
   23CHL1  H18C 2838   0.628   3.171   5.963  0.3784  0.0167 -1.3087
   23CHL1   C12 2839   0.386   2.920   6.018 -0.7844  0.8910 -0.1576
   23CHL1  H12A 2840   0.304   2.980   5.974 -0.5980  1.9168  0.8322
   23CHL1  H12B 2841   0.377   2.810   6.002  0.3289  0.4207  2.0200
   23CHL1   C11 2842   0.362   2.944   6.167  0.1864 -0.2221  0.1962
   23CHL1  H11A 2843   0.357   3.054   6.175  0.9868 -0.1147 -0.6502
   23CHL1  H11B 2844   0.262   2.914   6.206 -2.3836  3.0532 -3.2024
   23CHL1    C9 2845   0.477   2.896   6.260 -0.1061  0.4636  0.2736
   23CHL1    H9 2846   0.471   2.786   6.245 -0.8070  0.6542 -0.9517
   23CHL1   C10 2847   0.450   2.908   6.413  0.3618  0.0650 -0.1255
   23CHL1   C19 2848   0.425   3.058   6.437  0.1383 -1.0161 -0.5723
   23CHL1  H19A 2849   0.491   3.115   6.368 -0.3747 -0.4424 -0.5933
   23CHL1  H19B 2850   0.318   3.081   6.420  0.6284  1.7910 -0.4105
   23CHL1  H19C 2851   0.451   3.091   6.540 -0.3377 -0.9300 -0.4816
   23CHL1    C1 2852   0.320   2.821   6.451  0.4823 -0.0808  0.5628
   23CHL1   H1A 2853   0.228   2.849   6.396 -0.3320 -1.7043  1.0393
   23CHL1   H1B 2854   0.350   2.718   6.420 -0.2965  0.1551 -1.1095
   23CHL1    C2 2855   0.285   2.824   6.602  0.2032 -0.0950  0.1556
   23CHL1   H2A 2856   0.189   2.774   6.627 -1.2764  2.3622 -0.2612
   23CHL1   H2B 2857   0.264   2.929   6.634 -1.0990 -0.8349  1.8639
   23CHL1   C20 2858   0.536   3.004   5.711  0.2092 -0.1097 -0.0280
   23CHL1   H20 2859   0.519   3.113   5.729 -1.1563 -0.3065  0.0085
   23CHL1   C21 2860   0.390   2.956   5.685 -0.4010  0.4985  0.0123
   23CHL1  H21A 2861   0.343   3.005   5.596 -0.4173 -1.8423 -1.3419
   23CHL1  H21B 2862   0.324   2.982   5.770 -0.8172  0.1246 -0.1915
   23CHL1  H21C 2863   0.382   2.846   5.672 -0.8836  0.1189  2.9661
   23CHL1   C22 2864   0.620   2.980   5.585  0.4079 -0.2743 -0.1408
   23CHL1  H22A 2865   0.721   3.026   5.599  0.1102  1.1506 -2.2652
   23CHL1  H22B 2866   0.630   2.871   5.569 -0.7796 -0.5035  0.5210
   23CHL1   C23 2867   0.572   3.061   5.460 -0.6549  0.6765  0.1555
   23CHL1  H23A 2868   0.466   3.035   5.443 -0.5764  0.2022  0.3896
   23CHL1  H23B 2869   0.577   3.171   5.476 -1.8003  1.0443 -1.6884
   23CHL1   C24 2870   0.660   3.022   5.338  0.1657  0.6088  0.0299
   23CHL1  H24A 2871   0.767   3.032   5.364  0.6678 -2.1187 -0.7696
   23CHL1  H24B 2872   0.653   2.913   5.320 -0.7188  0.7110 -0.3008
   23CHL1   C25 2873   0.625   3.090   5.203 -0.6959  0.5950 -0.5951
   23CHL1   H25 2874   0.691   3.050   5.124  1.5019  2.5071  0.1586
   23CHL1   C26 2875   0.481   3.060   5.160  0.0701 -0.0990  0.3387
   23CHL1  H26A 2876   0.475   3.082   5.051  2.7567 -0.5496  0.0422
   23CHL1  H26B 2877   0.458   2.954   5.186 -2.6388  1.4040  5.3148
   23CHL1  H26C 2878   0.410   3.119   5.221 -1.3348  1.0871 -2.2657
   23CHL1   C27 2879   0.642   3.248   5.207 -0.2647  0.2201  0.4845
   23CHL1  H27A 2880   0.635   3.309   5.114  0.1933  3.7724  2.5642
   23CHL1  H27B 2881   0.559   3.302   5.258  0.2162 -0.3272  1.8855
   23CHL1  H27C 2882   0.734   3.285   5.257  0.6476  1.7016 -2.0627
   24CHL1    C3 2883   2.518   2.243   6.423  0.6403 -0.6088 -0.3018
   24CHL1    H3 2884   2.411   2.276   6.424  0.1701 -2.0125  2.0292
   24CHL1    O3 2885   2.560   2.219   6.556 -0.0616 -0.9253 -0.1661
   24CHL1   H3' 2886   2.632   2.156   6.555 -0.7115 -1.6883 -1.1472
   24CHL1    C4 2887   2.544   2.119   6.339  0.1803  0.1421  0.0079
   24CHL1   H4A 2888   2.645   2.082   6.364 -0.6432 -0.6342  2.4892
   24CHL1   H4B 2889   2.477   2.036   6.371  1.3197 -0.7040  0.2535
   24CHL1    C5 2890   2.523   2.133   6.189 -0.1734 -0.0468  0.7732
   24CHL1    C6 2891   2.442   2.057   6.114  0.2023 -0.6702  0.4220
   24CHL1    H6 2892   2.389   1.977   6.168 -1.0893 -1.8970 -2.4641
   24CHL1    C7 2893   2.434   2.047   5.961  0.1356  0.2826 -0.5531
   24CHL1   H7A 2894   2.446   1.941   5.928  0.3030  0.2827 -0.4943
   24CHL1   H7B 2895   2.330   2.079   5.937 -0.1885  0.3798  0.8563
   24CHL1    C8 2896   2.543   2.142   5.894  0.2046  0.3411 -1.0349
   24CHL1    H8 2897   2.634   2.077   5.892 -1.6097 -2.3926 -0.6257
   24CHL1   C14 2898   2.502   2.171   5.750 -0.4091  0.1922 -0.2944
   24CHL1   H14 2899   2.402   2.219   5.755  0.2445  1.6866 -0.9973
   24CHL1   C15 2900   2.483   2.050   5.656  0.8812  0.0345 -0.7098
   24CHL1  H15A 2901   2.568   1.980   5.668 -0.9446 -1.9590  1.7782
   24CHL1  H15B 2902   2.387   1.998   5.678  0.6447  0.7748  0.0795
   24CHL1   C16 2903   2.486   2.114   5.514  0.4045  0.3467 -0.4714
   24CHL1  H16A 2904   2.557   2.063   5.445 -1.5543  1.8783 -3.8720
   24CHL1  H16B 2905   2.389   2.104   5.462  0.8364 -1.5764 -0.9696
   24CHL1   C17 2906   2.528   2.269   5.538  0.4291 -0.1265 -0.4882
   24CHL1   H17 2907   2.434   2.325   5.555  0.6252 -0.0995  0.5731
   24CHL1   C13 2908   2.594   2.269   5.672 -0.1141  0.0155 -0.2872
   24CHL1   C18 2909   2.732   2.205   5.656  0.3152  0.4011  0.3515
   24CHL1  H18A 2910   2.728   2.112   5.595 -0.2030  1.0256 -0.5880
   24CHL1  H18B 2911   2.795   2.277   5.600 -1.0709  1.1511 -0.2878
   24CHL1  H18C 2912   2.773   2.174   5.754 -0.5565 -1.9816  0.0190
   24CHL1   C12 2913   2.615   2.398   5.752  0.0629  0.6029 -0.1487
   24CHL1  H12A 2914   2.703   2.451   5.710  1.4983 -0.0179  1.9049
   24CHL1  H12B 2915   2.519   2.455   5.751 -0.8354 -0.8026 -2.4965
   24CHL1   C11 2916   2.651   2.372   5.901  0.2719 -0.4130 -0.1667
   24CHL1  H11A 2917   2.756   2.337   5.899  0.7235  0.9073 -1.0540
   24CHL1  H11B 2918   2.655   2.470   5.954  1.8440 -1.6106  2.0922
   24CHL1    C9 2919   2.563   2.273   5.974  0.0683  0.5626 -0.1935
   24CHL1    H9 2920   2.464   2.323   5.974  0.7075  1.9801  1.7605
   24CHL1   C10 2921   2.602   2.245   6.121  0.4531 -0.2099 -0.1745
   24CHL1   C19 2922   2.756   2.198   6.131  0.2137 -0.3705 -0.2536
   24CHL1  H19A 2923   2.779   2.152   6.230 -0.7321  1.5890  0.9477
   24CHL1  H19B 2924   2.766   2.120   6.052  2.2941 -0.5097  0.0932
   24CHL1  H19C 2925   2.825   2.281   6.105  0.4294 -0.3873  0.2489
   24CHL1    C1 2926   2.581   2.377   6.219 -1.0372  0.7891  0.5658
   24CHL1   H1A 2927   2.644   2.458   6.175 -1.7974  0.0240 -2.1762
   24CHL1   H1B 2928   2.479   2.417   6.197 -0.4136  1.9241 -0.4175
   24CHL1    C2 2929   2.607   2.354   6.367  0.5265 -0.1800  0.3400
   24CHL1   H2A 2930   2.591   2.448   6.424  1.0078  0.2244 -0.1828
   24CHL1   H2B 2931   2.712   2.323   6.382  1.5481  2.0280 -1.6573
   24CHL1   C20 2932   2.605   2.339   5.420  0.1340 -0.1878  0.2360
   24CHL1   H20 2933   2.682   2.411   5.453  0.1657  0.4232 -1.0887
   24CHL1   C21 2934   2.495   2.429   5.364 -0.2137 -0.1696  0.3455
   24CHL1  H21A 2935   2.452   2.500   5.438 -1.2638 -0.4747  0.0470
   24CHL1  H21B 2936   2.422   2.369   5.305  1.1677  0.2551 -1.9300
   24CHL1  H21C 2937   2.529   2.500   5.285  0.5851  0.5965  1.3642
   24CHL1   C22 2938   2.668   2.252   5.315 -0.3327  0.4670  0.7509
   24CHL1  H22A 2939   2.719   2.166   5.363  0.0248 -0.9755 -2.0092
   24CHL1  H22B 2940   2.590   2.206   5.250  1.7378 -2.1495 -0.0451
   24CHL1   C23 2941   2.768   2.327   5.224 -0.1967  0.4765  0.3992
   24CHL1  H23A 2942   2.724   2.417   5.176  2.4049  0.4097 -2.4384
   24CHL1  H23B 2943   2.845   2.364   5.294  1.7137 -0.5689 -1.0488
   24CHL1   C24 2944   2.820   2.240   5.114  0.0882 -0.1253 -0.7876
   24CHL1  H24A 2945   2.881   2.157   5.156  1.0231  1.1850  0.5190
   24CHL1  H24B 2946   2.740   2.194   5.051  1.4081 -1.1004 -1.8166
   24CHL1   C25 2947   2.919   2.310   5.024 -0.2738 -0.6020  0.0952
   24CHL1   H25 2948   2.995   2.352   5.093 -0.9577  0.5099  0.2026
   24CHL1   C26 2949   2.995   2.204   4.948 -0.0922 -0.0510  0.2443
   24CHL1  H26A 2950   3.067   2.245   4.874 -1.7200  1.4593 -0.5782
   24CHL1  H26B 2951   3.053   2.140   5.018  2.4356 -0.8048 -2.3174
   24CHL1  H26C 2952   2.935   2.140   4.879 -0.4904  0.9489 -0.3483
   24CHL1   C27 2953   2.861   2.417   4.937 -0.5637 -0.3688  0.1325
   24CHL1  H27A 2954   2.767   2.390   4.884 -0.6095  0.3200 -0.1504
   24CHL1  H27B 2955   2.827   2.508   4.993 -1.8650 -0.4473 -0.4898
   24CHL1  H27C 2956   2.933   2.457   4.862  0.2886 -1.7022  0.2184
   25CHL1    C3 2957   3.959   5.264   6.614 -0.0107  0.0182 -0.1572
   25CHL1    H3 2958   3.852   5.257   6.586  0.0807  2.6277 -1.5784
   25CHL1    O3 2959   3.992   5.247   6.750 -0.7065 -0.7844 -0.0195
   25CHL1   H3' 2960   4.086   5.229   6.741 -0.9387 -1.5421 -1.1967
   25CHL1    C4 2961   4.054   5.167   6.547 -0.3506  0.0960 -0.1028
   25CHL1   H4A 2962   4.158   5.181   6.583 -0.4746 -1.2817  0.8817
   25CHL1   H4B 2963   4.020   5.066   6.577  0.4045 -0.2374 -0.3510
   25CHL1    C5 2964   4.048   5.180   6.397  0.0480 -0.1095 -0.2775
   25CHL1    C6 2965   4.012   5.080   6.320  0.0353 -0.3051  0.3313
   25CHL1    H6 2966   4.000   4.983   6.370 -0.3965 -0.2067  0.4221
   25CHL1    C7 2967   4.015   5.078   6.169 -0.0795  0.9519 -0.2281
   25CHL1   H7A 2968   4.067   4.990   6.125 -0.2045  0.1549  1.1687
   25CHL1   H7B 2969   3.909   5.087   6.136 -0.2085 -2.3073 -1.0812
   25CHL1    C8 2970   4.097   5.203   6.118 -0.2739  0.0284  0.0122
   25CHL1    H8 2971   4.204   5.175   6.129 -0.7909 -1.5653  1.3100
   25CHL1   C14 2972   4.065   5.230   5.973 -0.5434 -0.6818  0.5570
   25CHL1   H14 2973   3.956   5.251   5.977 -0.1934  1.3409  3.5802
   25CHL1   C15 2974   4.080   5.110   5.871  0.6390 -0.6039 -0.9020
   25CHL1  H15A 2975   4.172   5.050   5.884  0.1771 -1.5934 -1.9845
   25CHL1  H15B 2976   3.986   5.052   5.888  0.7191 -0.0311  1.8441
   25CHL1   C16 2977   4.084   5.174   5.737 -0.4284  0.2084 -0.1078
   25CHL1  H16A 2978   4.169   5.128   5.682  0.4900 -2.7447  3.3926
   25CHL1  H16B 2979   3.991   5.179   5.677  0.4169  1.8809 -1.3551
   25CHL1   C17 2980   4.096   5.323   5.758  0.3241 -0.1740 -0.8787
   25CHL1   H17 2981   3.994   5.368   5.754 -0.0390 -0.9131 -0.1764
   25CHL1   C13 2982   4.138   5.347   5.906 -0.4993  0.2539 -0.2617
   25CHL1   C18 2983   4.291   5.332   5.911  0.0436  0.5970  0.1673
   25CHL1  H18A 2984   4.349   5.415   5.866  2.3146 -0.7812  0.3691
   25CHL1  H18B 2985   4.320   5.310   6.016  0.0550 -1.8976 -0.2829
   25CHL1  H18C 2986   4.331   5.241   5.860  0.5418  1.3136 -0.7447
   25CHL1   C12 2987   4.088   5.475   5.978 -0.9107  0.0071 -0.0068
   25CHL1  H12A 2988   4.145   5.560   5.937  0.9817 -0.7986  0.8398
   25CHL1  H12B 2989   3.980   5.491   5.956 -0.3965 -0.6702 -3.6085
   25CHL1   C11 2990   4.120   5.463   6.128 -0.4544  0.0518 -1.0710
   25CHL1  H11A 2991   4.229   5.453   6.142 -0.9795 -1.6584  3.1476
   25CHL1  H11B 2992   4.080   5.550   6.183  2.7324  2.0130 -1.6068
   25CHL1    C9 2993   4.062   5.330   6.196  0.1132 -0.2379 -0.3864
   25CHL1    H9 2994   3.952   5.348   6.196 -0.4778 -3.2660  0.0828
   25CHL1   C10 2995   4.086   5.318   6.353 -0.3347  0.1577  0.8989
   25CHL1   C19 2996   4.236   5.341   6.383 -0.1493 -0.2778 -0.0484
   25CHL1  H19A 2997   4.299   5.276   6.318  3.6699  2.8827  0.0862
   25CHL1  H19B 2998   4.266   5.446   6.364  0.9039 -0.4437  0.5685
   25CHL1  H19C 2999   4.267   5.317   6.487  2.3938 -1.1843 -0.9336
   25CHL1    C1 3000   3.999   5.420   6.426 -0.8496  0.3927 -0.2785
   25CHL1   H1A 3001   4.053   5.514   6.402  0.8731 -1.2206 -3.2080
   25CHL1   H1B 3002   3.895   5.412   6.388  0.1895 -1.4997 -3.0030
   25CHL1    C2 3003   4.004   5.404   6.575  0.1305 -0.7264 -0.3427
   25CHL1   H2A 3004   3.936   5.485   6.609  1.5290  0.4498 -0.2402
   25CHL1   H2B 3005   4.105   5.435   6.609 -0.2021 -0.7099  0.6480
   25CHL1   C20 3006   4.168   5.388   5.636  0.4616 -0.2802 -0.0462
   25CHL1   H20 3007   4.266   5.340   5.614 -1.5026 -4.1357 -1.2525
   25CHL1   C21 3008   4.188   5.541   5.662  0.1341  0.0738 -0.0038
   25CHL1  H21A 3009   4.085   5.583   5.666 -0.1911 -0.5715 -0.9648
   25CHL1  H21B 3010   4.232   5.572   5.565 -0.1539  3.1338  0.7447
   25CHL1  H21C 3011   4.249   5.572   5.749 -0.3216  1.3042 -0.1061
   25CHL1   C22 3012   4.070   5.382   5.524  0.0088  0.4538 -0.1299
   25CHL1  H22A 3013   4.036   5.277   5.507 -1.4865  1.2464 -2.4082
   25CHL1  H22B 3014   3.979   5.444   5.537 -0.3169 -0.3335  1.6161
   25CHL1   C23 3015   4.143   5.392   5.385  0.7297 -0.6508 -0.5088
   25CHL1  H23A 3016   4.054   5.384   5.318  0.0005  0.2604  0.3335
   25CHL1  H23B 3017   4.194   5.490   5.376  1.4460 -1.0643 -1.1501
   25CHL1   C24 3018   4.261   5.293   5.344 -0.5139 -0.3585  0.0175
   25CHL1  H24A 3019   4.356   5.339   5.378 -1.0640  0.7277  0.1205
   25CHL1  H24B 3020   4.242   5.203   5.406 -1.7328 -0.2712 -0.2036
   25CHL1   C25 3021   4.256   5.260   5.195 -0.3415  0.0412  0.0884
   25CHL1   H25 3022   4.328   5.176   5.184 -0.8053 -0.5335  1.3512
   25CHL1   C26 3023   4.115   5.212   5.140  0.3521 -0.0381  0.1700
   25CHL1  H26A 3024   4.040   5.293   5.132  0.0707 -0.4501 -2.1039
   25CHL1  H26B 3025   4.132   5.178   5.035 -0.5721  0.8003 -0.2686
   25CHL1  H26C 3026   4.063   5.139   5.206  0.2511 -0.4419 -0.3525
   25CHL1   C27 3027   4.307   5.379   5.111 -0.1416  0.3461 -1.0956
   25CHL1  H27A 3028   4.404   5.412   5.156  0.1945 -0.3657 -1.2901
   25CHL1  H27B 3029   4.327   5.341   5.009  0.6177 -0.7103 -0.5758
   25CHL1  H27C 3030   4.233   5.462   5.110 -0.7509 -0.1746 -3.0886
   26CHL1    C3 3031   4.950   2.021   6.222 -0.6387 -0.4575  0.4181
   26CHL1    H3 3032   4.855   2.078   6.212 -0.4363  0.0105  1.0801
   26CHL1    O3 3033   4.959   1.984   6.361  1.1017 -0.0331 -0.0980
   26CHL1   H3' 3034   5.011   2.046   6.412 -0.9779 -0.0712  2.2583
   26CHL1    C4 3035   4.947   1.897   6.135  0.2068  0.7414 -0.3386
   26CHL1   H4A 3036   5.049   1.855   6.140 -0.3093 -0.4840  0.2358
   26CHL1   H4B 3037   4.886   1.815   6.177  0.5114 -0.0534 -1.4216
   26CHL1    C5 3038   4.915   1.948   5.992  0.0753 -0.0711  0.0116
   26CHL1    C6 3039   4.804   1.915   5.930  0.7443 -0.2774 -0.6611
   26CHL1    H6 3040   4.731   1.845   5.974  0.5107  1.8547  2.7060
   26CHL1    C7 3041   4.779   1.954   5.787 -0.3373  0.0143 -0.1707
   26CHL1   H7A 3042   4.731   1.880   5.720  1.2437 -0.0618 -1.2561
   26CHL1   H7B 3043   4.703   2.036   5.785  0.5028  0.8595  1.0800
   26CHL1    C8 3044   4.908   2.008   5.706  0.2271 -0.0402 -0.5796
   26CHL1    H8 3045   4.972   1.921   5.678 -1.4967 -1.1156 -1.3499
   26CHL1   C14 3046   4.863   2.081   5.578  0.4073  0.5234  0.4795
   26CHL1   H14 3047   4.808   2.168   5.620 -2.0286 -1.1832  1.0337
   26CHL1   C15 3048   4.770   2.014   5.480 -0.1096 -0.0820 -0.7279
   26CHL1  H15A 3049   4.785   1.904   5.471  0.3585 -0.0815 -0.0677
   26CHL1  H15B 3050   4.667   2.031   5.517 -1.6670 -2.6106 -3.5199
   26CHL1   C16 3051   4.783   2.098   5.346  0.2942  0.3887 -0.5167
   26CHL1  H16A 3052   4.811   2.028   5.265 -0.7118  0.3562 -0.8530
   26CHL1  H16B 3053   4.681   2.137   5.323  0.1047  1.1978  1.4179
   26CHL1   C17 3054   4.903   2.198   5.368  0.3041  0.2141  0.1998
   26CHL1   H17 3055   4.853   2.287   5.412 -0.6615 -0.5702  0.7515
   26CHL1   C13 3056   4.977   2.137   5.487 -0.1175 -0.1764 -1.1523
   26CHL1   C18 3057   5.064   2.026   5.430  0.0479  0.1122  0.3198
   26CHL1  H18A 3058   5.011   1.962   5.356 -3.2236 -0.2954  2.8344
   26CHL1  H18B 3059   5.156   2.072   5.388 -0.8398  0.5682 -1.2418
   26CHL1  H18C 3060   5.109   1.964   5.510 -2.4984  1.2784  2.8118
   26CHL1   C12 3061   5.050   2.241   5.583  0.6437 -0.0605 -0.1430
   26CHL1  H12A 3062   5.130   2.301   5.534 -0.6165  1.0551 -0.8829
   26CHL1  H12B 3063   4.978   2.321   5.611 -0.4845 -1.5164  1.2828
   26CHL1   C11 3064   5.098   2.168   5.713 -0.3892 -0.0021 -0.1801
   26CHL1  H11A 3065   5.172   2.089   5.688 -0.9424 -0.2636 -1.0217
   26CHL1  H11B 3066   5.146   2.248   5.773  1.0314  1.1968 -2.7406
   26CHL1    C9 3067   4.983   2.102   5.800 -0.6713  0.4301  0.1709
   26CHL1    H9 3068   4.913   2.185   5.822 -1.2830  0.6573 -2.3829
   26CHL1   C10 3069   5.032   2.034   5.932  0.5266  0.7830  0.1315
   26CHL1   C19 3070   5.144   1.930   5.903  0.0794 -0.5022 -0.0314
   26CHL1  H19A 3071   5.239   1.982   5.880 -1.6836  3.2574  0.5549
   26CHL1  H19B 3072   5.171   1.878   5.998 -1.2786 -0.7945  0.2229
   26CHL1  H19C 3073   5.127   1.863   5.816 -1.0303 -0.3571  0.0576
   26CHL1    C1 3074   5.074   2.145   6.032  0.5789  0.2317 -0.7605
   26CHL1   H1A 3075   5.173   2.178   5.996  0.8006 -1.0216 -1.3474
   26CHL1   H1B 3076   5.000   2.228   6.022  0.0314 -0.1261  0.1518
   26CHL1    C2 3077   5.081   2.100   6.179  0.3065  0.4349  0.5732
   26CHL1   H2A 3078   5.086   2.195   6.237 -0.9724  0.8601  0.0401
   26CHL1   H2B 3079   5.163   2.029   6.202 -1.9155 -1.6690  2.5463
   26CHL1   C20 3080   4.987   2.220   5.242  0.2230 -1.1348 -1.2121
   26CHL1   H20 3081   5.029   2.125   5.201 -4.1293 -2.8202 -2.3139
   26CHL1   C21 3082   5.091   2.332   5.268  0.1676 -0.0639  0.6964
   26CHL1  H21A 3083   5.176   2.283   5.321 -0.6075 -2.3714 -0.0633
   26CHL1  H21B 3084   5.045   2.416   5.326 -0.4730 -1.0494  1.6631
   26CHL1  H21C 3085   5.142   2.370   5.177  2.6407 -1.5320  1.3872
   26CHL1   C22 3086   4.900   2.265   5.124  0.1894 -0.2257 -0.6408
   26CHL1  H22A 3087   4.975   2.297   5.049  2.1026 -2.2491  0.2959
   26CHL1  H22B 3088   4.835   2.178   5.103 -0.0147 -0.7090  1.7071
   26CHL1   C23 3089   4.813   2.388   5.158 -0.4562 -0.8815 -0.2230
   26CHL1  H23A 3090   4.743   2.362   5.240 -1.9217  0.8071 -0.8847
   26CHL1  H23B 3091   4.878   2.471   5.192  1.9226 -2.8906  0.4664
   26CHL1   C24 3092   4.734   2.427   5.040  0.1778 -0.1370  0.4564
   26CHL1  H24A 3093   4.668   2.343   5.008 -0.7950  0.7682  0.0231
   26CHL1  H24B 3094   4.673   2.514   5.071  0.6033  0.0423  0.7896
   26CHL1   C25 3095   4.801   2.489   4.917 -0.6851 -0.2645  0.0950
   26CHL1   H25 3096   4.877   2.416   4.882  0.9257  1.4704 -0.2262
   26CHL1   C26 3097   4.696   2.508   4.808 -0.4306  0.3362 -0.2761
   26CHL1  H26A 3098   4.637   2.602   4.821 -0.2598  0.2465  1.3213
   26CHL1  H26B 3099   4.748   2.520   4.711  1.0824 -1.3543  0.2720
   26CHL1  H26C 3100   4.636   2.416   4.793  0.7070 -0.0456 -3.1093
   26CHL1   C27 3101   4.873   2.619   4.959 -0.8746 -0.1906  0.7104
   26CHL1  H27A 3102   4.931   2.657   4.872 -0.1882 -0.0526  1.2138
   26CHL1  H27B 3103   4.798   2.698   4.978 -0.9554 -0.1177  0.1235
   26CHL1  H27C 3104   4.937   2.596   5.047 -0.2221 -0.0507  0.2814
   27CHL1    C3 3105   0.806   0.734   6.490 -0.3093  0.6221 -0.3578
   27CHL1    H3 3106   0.913   0.726   6.520 -0.2253  2.2008 -0.1857
   27CHL1    O3 3107   0.733   0.690   6.602 -0.1510  0.1230 -0.2121
   27CHL1   H3' 3108   0.736   0.763   6.666 -0.0706 -0.6427  0.6821
   27CHL1    C4 3109   0.776   0.886   6.462  0.4931 -0.1922  0.1291
   27CHL1   H4A 3110   0.668   0.905   6.445  1.0410  1.2626 -2.0721
   27CHL1   H4B 3111   0.815   0.939   6.552 -1.5173  1.5887  0.0005
   27CHL1    C5 3112   0.836   0.941   6.333 -0.5943 -0.2834 -0.1062
   27CHL1    C6 3113   0.916   1.048   6.330  0.4684 -0.1519  0.2338
   27CHL1    H6 3114   0.924   1.107   6.423  1.1757  0.6961 -0.3536
   27CHL1    C7 3115   0.962   1.117   6.201  0.4290  0.6551 -0.5084
   27CHL1   H7A 3116   0.940   1.226   6.196  0.0412  0.6301  0.3805
   27CHL1   H7B 3117   1.070   1.092   6.202 -0.1003 -2.2085 -2.4507
   27CHL1    C8 3118   0.900   1.058   6.074  0.2859 -0.2556 -0.1845
   27CHL1    H8 3119   0.804   1.106   6.044  0.1200 -1.4151 -1.6001
   27CHL1   C14 3120   0.991   1.094   5.956  0.0482 -0.2426 -0.3212
   27CHL1   H14 3121   1.092   1.056   5.979  1.2874  2.2878 -1.1631
   27CHL1   C15 3122   1.026   1.245   5.938 -0.4006 -0.2665 -0.4679
   27CHL1  H15A 3123   0.941   1.305   5.978  0.9917  1.6229 -0.2564
   27CHL1  H15B 3124   1.119   1.288   5.980  0.2426 -1.4456 -0.6443
   27CHL1   C16 3125   1.058   1.241   5.782  0.4874 -0.7993 -0.0281
   27CHL1  H16A 3126   0.982   1.299   5.726 -0.6237 -1.5398  0.6584
   27CHL1  H16B 3127   1.160   1.279   5.765 -0.8423  3.9932  1.1694
   27CHL1   C17 3128   1.045   1.098   5.724  0.0525  0.0378 -0.6733
   27CHL1   H17 3129   1.145   1.055   5.745  1.5700  2.9710 -1.3322
   27CHL1   C13 3130   0.938   1.039   5.822  0.0507  0.0778  0.2776
   27CHL1   C18 3131   0.805   1.099   5.782  0.5313 -0.0345  0.1374
   27CHL1  H18A 3132   0.717   1.074   5.845  0.0026  1.6110  0.0973
   27CHL1  H18B 3133   0.810   1.210   5.789 -0.5260 -0.0908  2.7085
   27CHL1  H18C 3134   0.785   1.074   5.676 -1.1545  0.1550  0.3855
   27CHL1   C12 3135   0.924   0.889   5.827 -0.3645 -0.0967 -0.6480
   27CHL1  H12A 3136   0.868   0.841   5.744 -0.8735 -1.2752  0.3410
   27CHL1  H12B 3137   1.026   0.844   5.826 -0.3516 -0.0846 -0.1961
   27CHL1   C11 3138   0.853   0.836   5.949 -0.5582 -0.2816 -0.1203
   27CHL1  H11A 3139   0.746   0.855   5.927 -1.1837 -1.3026  1.7732
   27CHL1  H11B 3140   0.861   0.725   5.958 -6.0047 -1.2264 -3.1907
   27CHL1    C9 3141   0.886   0.907   6.084  0.7264 -0.8182  0.1398
   27CHL1    H9 3142   0.987   0.863   6.100  1.1481  0.0141 -0.2011
   27CHL1   C10 3143   0.801   0.862   6.211 -0.1789 -0.2965  0.6600
   27CHL1   C19 3144   0.650   0.869   6.175  0.0270 -0.0800  0.2109
   27CHL1  H19A 3145   0.592   0.859   6.269  1.1809  3.3689  1.4383
   27CHL1  H19B 3146   0.632   0.969   6.131  1.4401  0.3350  0.5232
   27CHL1  H19C 3147   0.609   0.788   6.111 -0.5639  0.7685 -0.4952
   27CHL1    C1 3148   0.832   0.716   6.239  0.3065 -0.6976  0.1234
   27CHL1   H1A 3149   0.786   0.663   6.153  1.1245  2.0097 -2.1328
   27CHL1   H1B 3150   0.941   0.699   6.226  0.1822 -1.6954  0.3082
   27CHL1    C2 3151   0.764   0.655   6.366  0.1525 -0.4396  0.4203
   27CHL1   H2A 3152   0.790   0.548   6.376 -1.8030 -0.8007  2.5592
   27CHL1   H2B 3153   0.654   0.670   6.359  0.5659  2.7784 -1.7096
   27CHL1   C20 3154   1.020   1.090   5.575  0.1965  0.4632  0.7530
   27CHL1   H20 3155   0.918   1.119   5.543  0.3764  1.1394  0.7839
   27CHL1   C21 3156   1.046   0.943   5.531  0.2652  0.1206  0.6383
   27CHL1  H21A 3157   1.148   0.922   5.570 -0.2333 -1.3865  1.2243
   27CHL1  H21B 3158   1.042   0.933   5.420  1.1752 -0.0308  0.6120
   27CHL1  H21C 3159   0.979   0.863   5.569 -0.4439  0.3243 -0.1480
   27CHL1   C22 3160   1.114   1.191   5.496  0.7492 -0.8134 -0.7064
   27CHL1  H22A 3161   1.116   1.288   5.550 -0.5802 -1.4117  0.4814
   27CHL1  H22B 3162   1.219   1.156   5.492  1.3557  0.6841  0.7631
   27CHL1   C23 3163   1.078   1.214   5.352  0.3363 -0.4398  0.3548
   27CHL1  H23A 3164   1.032   1.129   5.298 -0.9296  0.3319  0.1593
   27CHL1  H23B 3165   0.997   1.289   5.339  1.5226  0.6010 -1.5676
   27CHL1   C24 3166   1.195   1.277   5.272 -0.5097  0.6179 -0.1761
   27CHL1  H24A 3167   1.240   1.366   5.321  3.3837 -0.8382 -0.7190
   27CHL1  H24B 3168   1.282   1.207   5.276 -0.1265  1.0321 -0.9981
   27CHL1   C25 3169   1.153   1.302   5.126  0.3465  0.3570  0.3668
   27CHL1   H25 3170   1.118   1.210   5.073  1.4519  0.6304 -0.8995
   27CHL1   C26 3171   1.042   1.408   5.097  0.6807  0.2206 -0.2521
   27CHL1  H26A 3172   0.946   1.384   5.149  0.8606  1.9975  1.0233
   27CHL1  H26B 3173   1.074   1.506   5.138 -0.9048 -0.2546  2.3666
   27CHL1  H26C 3174   1.026   1.425   4.989  3.4816  1.1058 -0.6083
   27CHL1   C27 3175   1.274   1.347   5.035  0.5989 -0.1831  0.8797
   27CHL1  H27A 3176   1.235   1.330   4.932  0.6137  1.6957  0.5347
   27CHL1  H27B 3177   1.352   1.270   5.050  1.3453  0.1747 -0.9390
   27CHL1  H27C 3178   1.314   1.449   5.052  0.1170  0.4735 -1.5263
   28CHL1    C3 3179   5.963   0.800   6.526 -0.3346 -0.7362  0.1365
   28CHL1    H3 3180   6.063   0.756   6.545 -0.1661 -0.4467 -0.0799
   28CHL1    O3 3181   5.898   0.792   6.647 -0.0646  0.0004 -0.0419
   28CHL1   H3' 3182   5.900   0.697   6.662  2.2150 -0.0072 -0.1326
   28CHL1    C4 3183   5.972   0.949   6.485 -0.5683 -0.4150 -0.4358
   28CHL1   H4A 3184   5.863   0.972   6.488 -0.9166 -2.0015  1.5151
   28CHL1   H4B 3185   6.025   1.015   6.557  1.0961  0.2852 -2.2143
   28CHL1    C5 3186   6.032   0.973   6.347 -0.3268  0.2067  0.3498
   28CHL1    C6 3187   6.142   1.050   6.323  0.5859 -1.0116 -0.1390
   28CHL1    H6 3188   6.176   1.109   6.409  1.2878 -1.0611 -0.3741
   28CHL1    C7 3189   6.197   1.082   6.186 -0.3424  0.3801  0.3241
   28CHL1   H7A 3190   6.233   1.186   6.167  0.9804 -0.1807 -0.3703
   28CHL1   H7B 3191   6.283   1.014   6.166 -0.8525  0.3368 -2.0660
   28CHL1    C8 3192   6.106   1.033   6.075  0.6811 -0.5691  0.8492
   28CHL1    H8 3193   6.023   1.105   6.064  0.1902 -1.3363 -0.8707
   28CHL1   C14 3194   6.181   1.020   5.944 -0.0666 -1.1665 -0.4055
   28CHL1   H14 3195   6.258   0.947   5.975 -1.9620 -1.9971  2.8615
   28CHL1   C15 3196   6.266   1.144   5.896 -0.5557 -0.2509 -0.8309
   28CHL1  H15A 3197   6.199   1.232   5.899  0.5285  0.5896  0.1837
   28CHL1  H15B 3198   6.348   1.164   5.969 -0.8489 -0.7212 -0.3698
   28CHL1   C16 3199   6.317   1.105   5.758 -0.3168 -0.2086 -0.1934
   28CHL1  H16A 3200   6.323   1.184   5.680  0.5965  1.0271  1.0769
   28CHL1  H16B 3201   6.415   1.053   5.761 -1.3017 -2.2502 -1.3935
   28CHL1   C17 3202   6.228   0.979   5.719 -0.4027  0.0491  0.4353
   28CHL1   H17 3203   6.297   0.893   5.721 -0.5630 -0.0676  1.1515
   28CHL1   C13 3204   6.110   0.966   5.821 -0.0801 -0.2942 -0.9271
   28CHL1   C18 3205   5.989   1.055   5.795 -0.4094 -0.1233 -0.0995
   28CHL1  H18A 3206   5.928   1.026   5.707 -1.6445  2.3818 -0.1428
   28CHL1  H18B 3207   5.909   1.044   5.872 -1.4945 -0.0872 -1.1943
   28CHL1  H18C 3208   6.007   1.164   5.786 -3.6849  0.4828 -0.3502
   28CHL1   C12 3209   6.071   0.822   5.855 -0.9763  0.3270  0.9961
   28CHL1  H12A 3210   6.007   0.784   5.772 -1.1925 -0.9802  1.7274
   28CHL1  H12B 3211   6.163   0.760   5.865  0.7128  2.6211  0.4526
   28CHL1   C11 3212   5.995   0.811   5.985 -0.1038 -0.3952 -0.4675
   28CHL1  H11A 3213   5.900   0.856   5.951  0.4902  1.5992  0.3884
   28CHL1  H11B 3214   5.966   0.709   6.018 -1.2820  0.7871  2.5144
   28CHL1    C9 3215   6.054   0.892   6.108 -0.1487 -0.2647 -0.6578
   28CHL1    H9 3216   6.145   0.831   6.129 -1.4451 -1.5345  1.7472
   28CHL1   C10 3217   5.970   0.885   6.240 -0.1000  0.1005  0.4891
   28CHL1   C19 3218   5.828   0.941   6.221  0.0639 -0.0679  0.1669
   28CHL1  H19A 3219   5.831   1.047   6.189 -2.1440 -0.4706 -1.6681
   28CHL1  H19B 3220   5.779   0.885   6.138 -0.5595  2.5615 -1.3424
   28CHL1  H19C 3221   5.761   0.931   6.309  0.5507  0.0297  0.5496
   28CHL1    C1 3222   5.965   0.737   6.286 -0.1923 -0.6420  0.3287
   28CHL1   H1A 3223   5.913   0.673   6.211 -1.6267  0.4961  0.3210
   28CHL1   H1B 3224   6.068   0.703   6.310  0.3304 -0.0780 -1.0397
   28CHL1    C2 3225   5.892   0.713   6.418 -0.8560  0.1694  0.4663
   28CHL1   H2A 3226   5.902   0.604   6.439 -3.0583 -0.0473  0.6405
   28CHL1   H2B 3227   5.785   0.740   6.430 -0.9662 -0.6342  1.4101
   28CHL1   C20 3228   6.197   0.985   5.572  0.2725  0.0174 -0.0019
   28CHL1   H20 3229   6.121   1.064   5.553  0.3646  0.7790  2.5059
   28CHL1   C21 3230   6.126   0.852   5.537  0.4705  0.1591  0.0929
   28CHL1  H21A 3231   6.128   0.838   5.427  2.9687 -0.6578  0.1797
   28CHL1  H21B 3232   6.019   0.847   5.566 -0.5165  0.6957 -3.0542
   28CHL1  H21C 3233   6.183   0.767   5.581 -0.3818  0.2376  1.3818
   28CHL1   C22 3234   6.322   0.999   5.482  0.4077  0.3735  0.3575
   28CHL1  H22A 3235   6.292   1.012   5.376 -0.1835  0.6037  0.5479
   28CHL1  H22B 3236   6.378   1.093   5.502  1.9721 -0.4314 -0.0687
   28CHL1   C23 3237   6.426   0.888   5.495 -0.2479  0.0044 -0.1520
   28CHL1  H23A 3238   6.446   0.871   5.604  1.2017 -1.3324 -0.5838
   28CHL1  H23B 3239   6.385   0.791   5.460 -1.3063 -0.2057  1.5460
   28CHL1   C24 3240   6.562   0.907   5.419 -0.2202  1.2413  0.4014
   28CHL1  H24A 3241   6.594   1.009   5.449 -1.0602  1.0030  2.2768
   28CHL1  H24B 3242   6.636   0.832   5.454  1.9213  2.5753 -1.0911
   28CHL1   C25 3243   6.548   0.912   5.265 -0.1670 -0.2147 -0.4337
   28CHL1   H25 3244   6.456   0.969   5.242  1.0432  2.5521  1.0803
   28CHL1   C26 3245   6.666   0.983   5.205 -0.0620 -0.3180  0.4800
   28CHL1  H26A 3246   6.693   1.077   5.257 -0.9745  1.0032 -1.3305
   28CHL1  H26B 3247   6.758   0.922   5.217 -0.6388 -1.0362  1.4038
   28CHL1  H26C 3248   6.643   1.010   5.099 -0.4834 -0.7724  0.4500
   28CHL1   C27 3249   6.544   0.775   5.201  0.3737  0.5384 -0.0911
   28CHL1  H27A 3250   6.451   0.719   5.225 -0.2562  1.5990 -0.0259
   28CHL1  H27B 3251   6.550   0.782   5.090  0.6433 -2.2537 -0.3297
   28CHL1  H27C 3252   6.623   0.709   5.244 -2.3230 -0.7187  3.4551
   29CHL1    C3 3253   1.122   2.621   6.774  0.6198  0.0949  0.3288
   29CHL1    H3 3254   1.081   2.524   6.741  0.9675 -0.2244  0.8169
   29CHL1    O3 3255   1.117   2.641   6.919  0.0079 -0.1641  1.2539
   29CHL1   H3' 3256   1.166   2.564   6.948  0.1136 -1.5405 -2.1680
   29CHL1    C4 3257   1.268   2.630   6.728  0.0633 -0.4166 -0.4386
   29CHL1   H4A 3258   1.315   2.722   6.769  2.6658 -1.4736 -0.8557
   29CHL1   H4B 3259   1.319   2.547   6.782 -1.2543 -0.3157  1.0513
   29CHL1    C5 3260   1.287   2.617   6.579 -0.1065 -0.2375 -0.1560
   29CHL1    C6 3261   1.364   2.529   6.512  0.0213  0.1481  0.0883
   29CHL1    H6 3262   1.418   2.453   6.571  0.9593  1.0959  0.4841
   29CHL1    C7 3263   1.382   2.515   6.362  0.0014  0.3283  0.4563
   29CHL1   H7A 3264   1.491   2.520   6.344 -0.0907  0.2465 -0.1468
   29CHL1   H7B 3265   1.340   2.415   6.335 -1.6616  0.1828  3.1496
   29CHL1    C8 3266   1.323   2.638   6.293 -0.1904  0.1663  0.5633
   29CHL1    H8 3267   1.401   2.716   6.301 -1.4680  1.5923 -0.2492
   29CHL1   C14 3268   1.300   2.613   6.148 -0.5058 -0.1156  0.7222
   29CHL1   H14 3269   1.211   2.547   6.137  0.4211 -1.0063 -3.4570
   29CHL1   C15 3270   1.406   2.539   6.068 -0.2282  0.2954  0.4222
   29CHL1  H15A 3271   1.507   2.580   6.089  0.6617 -1.1281 -0.8717
   29CHL1  H15B 3272   1.417   2.430   6.085  1.1172  0.4944  0.9999
   29CHL1   C16 3273   1.379   2.577   5.923  0.4200  0.1122 -0.3103
   29CHL1  H16A 3274   1.464   2.638   5.886  1.3486  0.7193  2.5795
   29CHL1  H16B 3275   1.376   2.486   5.860  0.4355 -1.7641  2.2446
   29CHL1   C17 3276   1.245   2.668   5.923  0.3033  0.4862  0.0768
   29CHL1   H17 3277   1.161   2.596   5.930 -0.1025  1.0842  1.8968
   29CHL1   C13 3278   1.243   2.732   6.059  0.4726 -0.0059 -0.4761
   29CHL1   C18 3279   1.343   2.851   6.058 -0.0588  0.4872  0.3971
   29CHL1  H18A 3280   1.445   2.821   6.028 -0.5747 -2.1297  1.0009
   29CHL1  H18B 3281   1.306   2.933   5.993 -1.8677 -0.2393  0.4565
   29CHL1  H18C 3282   1.348   2.889   6.163  0.8168 -0.2373  0.6266
   29CHL1   C12 3283   1.102   2.765   6.127  0.3403 -0.4241  0.1482
   29CHL1  H12A 3284   1.053   2.855   6.084 -0.7553 -1.8664 -1.7877
   29CHL1  H12B 3285   1.040   2.674   6.118 -2.7456  1.4465  1.2179
   29CHL1   C11 3286   1.119   2.797   6.272  0.3757  0.3107  0.2982
   29CHL1  H11A 3287   1.187   2.884   6.279  0.0719  0.5113  0.7623
   29CHL1  H11B 3288   1.017   2.806   6.316  1.1199 -0.1216  2.1809
   29CHL1    C9 3289   1.191   2.682   6.350 -0.6778  0.0092 -1.4321
   29CHL1    H9 3290   1.121   2.596   6.351  0.2786 -0.9446  2.3391
   29CHL1   C10 3291   1.201   2.722   6.501 -0.7710  0.1717  0.6227
   29CHL1   C19 3292   1.280   2.856   6.524  0.5226 -0.2512 -0.6810
   29CHL1  H19A 3293   1.298   2.871   6.632 -0.4476 -0.2500 -0.5083
   29CHL1  H19B 3294   1.378   2.859   6.472  2.0632 -0.6155  2.0214
   29CHL1  H19C 3295   1.225   2.939   6.474 -0.9821 -0.2784  0.8351
   29CHL1    C1 3296   1.059   2.740   6.559  0.1511  0.6627  0.6217
   29CHL1   H1A 3297   1.012   2.832   6.518 -2.4614 -1.2557 -1.0320
   29CHL1   H1B 3298   0.993   2.660   6.520  1.2718  0.2605 -0.5510
   29CHL1    C2 3299   1.040   2.734   6.709 -0.5366 -0.0193 -0.5783
   29CHL1   H2A 3300   0.931   2.717   6.726 -0.4604 -0.1059 -0.1662
   29CHL1   H2B 3301   1.069   2.830   6.756 -0.0947 -0.7585  0.7296
   29CHL1   C20 3302   1.221   2.756   5.796 -0.0312  0.1440 -0.0153
   29CHL1   H20 3303   1.305   2.827   5.788  1.6631 -1.6278  1.1277
   29CHL1   C21 3304   1.084   2.833   5.807 -0.0909 -0.0484  0.1579
   29CHL1  H21A 3305   1.059   2.899   5.721 -1.4324 -0.4308  0.2287
   29CHL1  H21B 3306   1.094   2.896   5.898  3.3751  0.6753 -0.5895
   29CHL1  H21C 3307   1.004   2.757   5.821  0.5729 -0.8470 -0.2347
   29CHL1   C22 3308   1.227   2.671   5.668 -0.0752 -0.1889 -0.1675
   29CHL1  H22A 3309   1.320   2.610   5.662 -1.3377 -2.1405 -1.4316
   29CHL1  H22B 3310   1.162   2.581   5.679  1.9678 -1.4918  2.3732
   29CHL1   C23 3311   1.230   2.755   5.535  0.4485 -0.3141 -0.1911
   29CHL1  H23A 3312   1.128   2.796   5.523  0.3865 -0.6600 -0.8937
   29CHL1  H23B 3313   1.313   2.829   5.537  1.5994 -1.5626  0.6376
   29CHL1   C24 3314   1.247   2.676   5.410 -0.3567  0.2638  0.3398
   29CHL1  H24A 3315   1.347   2.630   5.394  0.4923  1.9844  0.4859
   29CHL1  H24B 3316   1.172   2.594   5.410 -0.7087  0.5694 -0.5062
   29CHL1   C25 3317   1.230   2.754   5.282  0.3913 -0.4834  0.4714
   29CHL1   H25 3318   1.124   2.786   5.275  0.3760 -0.9422 -3.5556
   29CHL1   C26 3319   1.319   2.873   5.273  0.0592 -0.3334 -0.6909
   29CHL1  H26A 3320   1.423   2.850   5.304 -0.1825 -1.4935 -0.6857
   29CHL1  H26B 3321   1.325   2.903   5.166  0.5046  0.1329 -0.5396
   29CHL1  H26C 3322   1.276   2.954   5.336  1.2542 -0.0583 -0.1918
   29CHL1   C27 3323   1.253   2.665   5.160 -0.0817 -0.3410  0.2686
   29CHL1  H27A 3324   1.196   2.570   5.157  0.4412 -0.6418 -0.3554
   29CHL1  H27B 3325   1.227   2.720   5.068  1.8031 -0.9794 -0.6958
   29CHL1  H27C 3326   1.363   2.653   5.153  0.2118  0.0640  2.8816
   30CHL1    C3 3327   2.919   3.413   6.398  0.5770 -0.0658 -0.3682
   30CHL1    H3 3328   2.878   3.313   6.369  0.7776 -0.3021  0.1358
   30CHL1    O3 3329   2.916   3.438   6.542  0.1949 -0.2163 -0.2864
   30CHL1   H3' 3330   2.948   3.529   6.546  2.6378 -1.0204  0.5055
   30CHL1    C4 3331   3.062   3.430   6.341  0.0305  0.4224 -0.2410
   30CHL1   H4A 3332   3.110   3.528   6.364  0.6263 -0.2347  1.5018
   30CHL1   H4B 3333   3.131   3.363   6.397  1.4481  3.0801  1.3708
   30CHL1    C5 3334   3.058   3.394   6.192  0.1075 -0.2706 -0.1399
   30CHL1    C6 3335   3.142   3.296   6.139 -0.1462 -0.0507 -0.6880
   30CHL1    H6 3336   3.208   3.243   6.209 -0.9702  0.3592  0.4281
   30CHL1    C7 3337   3.164   3.266   5.992  0.1056  0.5950 -0.0148
   30CHL1   H7A 3338   3.271   3.268   5.962 -0.4605  0.0222 -2.2048
   30CHL1   H7B 3339   3.118   3.168   5.965  1.4420 -0.2561  0.6893
   30CHL1    C8 3340   3.088   3.366   5.904  0.5278 -0.6086  0.2901
   30CHL1    H8 3341   3.149   3.459   5.904 -3.6944  2.5024  2.0770
   30CHL1   C14 3342   3.063   3.315   5.761  0.8123 -0.9756  0.1467
   30CHL1   H14 3343   2.981   3.241   5.762 -1.3399  1.1113 -2.6419
   30CHL1   C15 3344   3.180   3.245   5.687  0.7649 -0.3311  0.4436
   30CHL1  H15A 3345   3.271   3.307   5.703 -1.3442  2.9623  0.7826
   30CHL1  H15B 3346   3.189   3.142   5.726 -1.4967 -1.3085 -1.3915
   30CHL1   C16 3347   3.137   3.242   5.539  0.5408 -0.6783 -0.3110
   30CHL1  H16A 3348   3.215   3.287   5.474  0.6428  0.6029  0.6507
   30CHL1  H16B 3349   3.108   3.138   5.515 -0.5037 -0.1792 -1.3060
   30CHL1   C17 3350   2.995   3.317   5.535  0.4601 -0.2997 -0.2635
   30CHL1   H17 3351   2.914   3.244   5.557  1.0066 -1.0957 -0.8265
   30CHL1   C13 3352   2.996   3.411   5.655 -0.3255  0.8204 -0.4152
   30CHL1   C18 3353   3.092   3.536   5.628  0.8611  0.0193 -0.3240
   30CHL1  H18A 3354   3.093   3.590   5.726 -0.8876 -1.4810  0.5804
   30CHL1  H18B 3355   3.196   3.502   5.610  1.5595  0.9114  1.6724
   30CHL1  H18C 3356   3.046   3.606   5.555 -1.6934 -0.0555  1.0804
   30CHL1   C12 3357   2.863   3.451   5.719  0.0478  0.5244 -0.6790
   30CHL1  H12A 3358   2.814   3.530   5.657 -1.5724 -2.0995 -2.9677
   30CHL1  H12B 3359   2.798   3.362   5.709 -0.4237  0.9587 -1.6704
   30CHL1   C11 3360   2.873   3.511   5.862  0.1225  0.3186  0.3720
   30CHL1  H11A 3361   2.925   3.608   5.852  1.1189 -0.0665  1.5171
   30CHL1  H11B 3362   2.767   3.533   5.890  0.0638  1.5974 -0.7826
   30CHL1    C9 3363   2.956   3.420   5.962 -0.0640 -0.0728  0.1677
   30CHL1    H9 3364   2.888   3.333   5.972 -0.9976  0.8914  3.3838
   30CHL1   C10 3365   2.967   3.478   6.103 -0.3402  0.1701 -0.0566
   30CHL1   C19 3366   3.031   3.620   6.085 -0.2152 -0.1206 -0.9618
   30CHL1  H19A 3367   2.963   3.694   6.039  0.7466  1.9694  0.7598
   30CHL1  H19B 3368   3.054   3.657   6.188 -0.6611 -1.9632 -0.1431
   30CHL1  H19C 3369   3.128   3.623   6.031 -0.0934 -0.4000 -0.7669
   30CHL1    C1 3370   2.824   3.486   6.168 -0.5294 -0.1731 -0.7193
   30CHL1   H1A 3371   2.779   3.573   6.116  2.4351  1.1720 -1.2170
   30CHL1   H1B 3372   2.760   3.395   6.158 -2.7684  1.2383  0.0139
   30CHL1    C2 3373   2.821   3.507   6.322 -0.2463 -0.0616 -0.9422
   30CHL1   H2A 3374   2.719   3.499   6.366 -0.0169  1.7629  0.0337
   30CHL1   H2B 3375   2.857   3.610   6.342 -1.4164  0.3384 -0.8231
   30CHL1   C20 3376   2.967   3.374   5.399 -0.6616 -0.5794  0.8372
   30CHL1   H20 3377   3.014   3.474   5.388  2.6171 -2.0807 -0.1144
   30CHL1   C21 3378   2.813   3.395   5.368 -0.1959  0.2612  0.6297
   30CHL1  H21A 3379   2.776   3.466   5.445  0.4129 -0.1314  1.2974
   30CHL1  H21B 3380   2.752   3.307   5.399 -0.0747 -0.7387 -1.7578
   30CHL1  H21C 3381   2.797   3.434   5.265  0.1758  0.2089  0.5481
   30CHL1   C22 3382   3.037   3.293   5.281  0.0519  0.4413  0.7832
   30CHL1  H22A 3383   3.144   3.321   5.295  0.0208  0.0945  1.8022
   30CHL1  H22B 3384   3.015   3.186   5.301 -0.0103  0.5482  1.3073
   30CHL1   C23 3385   2.993   3.318   5.132  0.0433  0.3332 -0.6413
   30CHL1  H23A 3386   2.884   3.304   5.117 -0.1948  2.2280 -0.9032
   30CHL1  H23B 3387   3.019   3.423   5.109  1.4129  0.6950  2.1145
   30CHL1   C24 3388   3.075   3.241   5.025 -0.5059  0.5414 -0.3793
   30CHL1  H24A 3389   3.179   3.241   5.063 -1.2961 -0.3368  2.0112
   30CHL1  H24B 3390   3.031   3.138   5.022 -1.1000  0.8159 -1.3757
   30CHL1   C25 3391   3.062   3.298   4.881  0.4124 -0.0821  0.0624
   30CHL1   H25 3392   3.070   3.409   4.874  0.1105 -0.1830 -5.2600
   30CHL1   C26 3393   3.188   3.247   4.802 -0.0306  0.1368 -0.1110
   30CHL1  H26A 3394   3.196   3.284   4.697 -0.8782  1.2901  0.2147
   30CHL1  H26B 3395   3.274   3.300   4.849 -1.5490  3.3064 -0.5852
   30CHL1  H26C 3396   3.195   3.137   4.811 -2.6724 -0.0659  0.1366
   30CHL1   C27 3397   2.928   3.252   4.819  0.1315 -0.8605  0.3217
   30CHL1  H27A 3398   2.843   3.300   4.872 -0.9076 -1.2660 -0.9265
   30CHL1  H27B 3399   2.919   3.285   4.714  1.8891  0.7245  0.6200
   30CHL1  H27C 3400   2.910   3.143   4.828  0.8628 -0.8981  1.5522
   31CHL1    C3 3401   1.764   2.939   6.644  0.0430  0.1372  0.3148
   31CHL1    H3 3402   1.658   2.964   6.619 -0.5723 -1.3364  1.2720
   31CHL1    O3 3403   1.776   2.902   6.782  0.1840 -0.3045  0.3040
   31CHL1   H3' 3404   1.857   2.852   6.789 -0.6812 -2.1010 -1.4980
   31CHL1    C4 3405   1.797   2.815   6.557  0.7861  0.2024  0.4189
   31CHL1   H4A 3406   1.899   2.776   6.572  0.8943  0.4252  0.2662
   31CHL1   H4B 3407   1.734   2.724   6.568  0.2529  0.4208 -0.6092
   31CHL1    C5 3408   1.784   2.855   6.410 -0.1696  0.1088 -0.9636
   31CHL1    C6 3409   1.705   2.792   6.326  0.6121 -0.4325 -0.0381
   31CHL1    H6 3410   1.651   2.703   6.361 -0.9447  0.6220  0.3561
   31CHL1    C7 3411   1.702   2.822   6.180  0.7813  0.5865  0.1962
   31CHL1   H7A 3412   1.703   2.727   6.122 -0.1523 -0.4588  1.8100
   31CHL1   H7B 3413   1.612   2.882   6.152 -0.1948 -1.2767 -0.8275
   31CHL1    C8 3414   1.821   2.902   6.136 -0.3218 -0.6747 -0.0305
   31CHL1    H8 3415   1.904   2.828   6.141 -1.6807 -2.3632 -1.1470
   31CHL1   C14 3416   1.793   2.951   5.990  0.1223 -0.0545 -0.2431
   31CHL1   H14 3417   1.715   3.029   6.000  0.5048  0.2216  0.6365
   31CHL1   C15 3418   1.745   2.852   5.893 -0.2781  0.0303  0.6465
   31CHL1  H15A 3419   1.790   2.751   5.905 -1.9831 -0.9061 -0.4273
   31CHL1  H15B 3420   1.638   2.833   5.913  0.0479 -0.4477  2.1511
   31CHL1   C16 3421   1.767   2.919   5.761  0.0509  0.0529  0.2877
   31CHL1  H16A 3422   1.818   2.841   5.701 -1.2411 -0.4889 -0.1479
   31CHL1  H16B 3423   1.674   2.927   5.700  1.6703  0.4463 -2.2898
   31CHL1   C17 3424   1.860   3.041   5.786  0.0115  0.7022 -0.7489
   31CHL1   H17 3425   1.781   3.118   5.801  0.7421  1.4211 -0.5553
   31CHL1   C13 3426   1.912   3.024   5.933 -0.4848  0.2021  0.4683
   31CHL1   C18 3427   2.038   2.934   5.924  0.7339 -0.3705  0.6078
   31CHL1  H18A 3428   2.087   2.901   6.018  2.3186  0.1648  0.0023
   31CHL1  H18B 3429   2.017   2.846   5.861 -0.1823 -1.2220  2.0580
   31CHL1  H18C 3430   2.124   2.994   5.887  0.1924 -0.3070 -0.5887
   31CHL1   C12 3431   1.933   3.148   6.018 -0.3335  0.7085 -0.4267
   31CHL1  H12A 3432   2.023   3.204   5.984  0.9981 -0.6127  0.7544
   31CHL1  H12B 3433   1.836   3.203   6.021 -0.5553  0.3176  2.0342
   31CHL1   C11 3434   1.956   3.110   6.171 -0.7639  0.3112 -0.3496
   31CHL1  H11A 3435   2.049   3.050   6.169 -2.9611 -3.5428  1.3005
   31CHL1  H11B 3436   1.966   3.200   6.235  1.6885 -1.0732  1.3750
   31CHL1    C9 3437   1.852   3.017   6.227  0.4584 -1.0979 -0.3755
   31CHL1    H9 3438   1.753   3.066   6.229 -0.0463 -2.1113  0.3946
   31CHL1   C10 3439   1.872   2.974   6.376  0.4511 -0.7448  0.1009
   31CHL1   C19 3440   2.027   2.939   6.385  0.3433  0.0783 -0.2599
   31CHL1  H19A 3441   2.048   2.904   6.489 -0.6551  0.2147 -0.0045
   31CHL1  H19B 3442   2.064   2.870   6.306 -1.0991 -0.2603 -0.6629
   31CHL1  H19C 3443   2.086   3.032   6.366  1.0472 -0.7660 -2.5459
   31CHL1    C1 3444   1.847   3.097   6.474  0.1348 -0.3314 -0.4102
   31CHL1   H1A 3445   1.926   3.173   6.455 -0.8987  0.3289 -2.4583
   31CHL1   H1B 3446   1.748   3.145   6.461  1.6685  2.9480 -1.2980
   31CHL1    C2 3447   1.862   3.057   6.623  0.4128 -0.0216 -0.0429
   31CHL1   H2A 3448   1.845   3.133   6.702 -1.3586  0.6936 -1.0397
   31CHL1   H2B 3449   1.959   3.006   6.643 -0.8433 -1.6386  2.3812
   31CHL1   C20 3450   1.950   3.079   5.670 -0.4598  0.0623  0.8648
   31CHL1   H20 3451   2.021   2.994   5.664  0.3389  0.6620  1.4996
   31CHL1   C21 3452   2.016   3.213   5.704  0.1515  0.2525  0.3807
   31CHL1  H21A 3453   2.077   3.256   5.621  1.3850  0.4434  1.3524
   31CHL1  H21B 3454   2.090   3.195   5.785  1.6877  2.2590 -0.4632
   31CHL1  H21C 3455   1.940   3.284   5.745 -1.1301 -0.2822 -1.0002
   31CHL1   C22 3456   1.883   3.090   5.529 -0.3108 -0.6041 -0.0268
   31CHL1  H22A 3457   1.823   2.997   5.515  0.3361 -1.1688  0.8227
   31CHL1  H22B 3458   1.809   3.172   5.534 -2.2129 -2.2538  0.3767
   31CHL1   C23 3459   1.994   3.089   5.420  0.2218  0.3134 -0.0808
   31CHL1  H23A 3460   2.055   3.182   5.420 -0.9404  1.0983 -0.3323
   31CHL1  H23B 3461   2.063   3.008   5.450 -0.1196  0.4526  1.1223
   31CHL1   C24 3462   1.930   3.054   5.286 -0.2121 -1.4630  0.1211
   31CHL1  H24A 3463   1.897   2.948   5.290  0.2470 -1.6604 -0.8785
   31CHL1  H24B 3464   1.832   3.104   5.271  0.5106 -0.2659 -0.8428
   31CHL1   C25 3465   2.024   3.078   5.163 -0.4569 -0.1622 -0.2881
   31CHL1   H25 3466   2.126   3.037   5.180 -0.5672  0.0449  0.9667
   31CHL1   C26 3467   1.958   2.996   5.055  0.3128 -0.2509  0.9435
   31CHL1  H26A 3468   1.952   2.889   5.083 -1.2699 -0.5977 -0.5647
   31CHL1  H26B 3469   1.857   3.042   5.057  0.3021 -0.2384  0.2589
   31CHL1  H26C 3470   2.005   3.010   4.955 -1.4929 -1.4566 -0.1244
   31CHL1   C27 3471   2.045   3.224   5.120 -0.2177 -0.1041  0.9455
   31CHL1  H27A 3472   2.102   3.276   5.199  1.0584  1.1310 -0.6970
   31CHL1  H27B 3473   2.098   3.221   5.022 -1.5417 -0.9026  0.2221
   31CHL1  H27C 3474   1.948   3.278   5.120 -0.2195 -0.0624 -0.3525
   32CHL1    C3 3475   3.578   1.101   6.453  0.0301 -0.2524  0.0708
   32CHL1    H3 3476   3.647   1.185   6.433 -2.0426  1.3648 -0.6715
   32CHL1    O3 3477   3.562   1.085   6.592 -1.0546  0.0911 -0.4231
   32CHL1   H3' 3478   3.530   0.996   6.611 -0.3339  0.0133  0.5322
   32CHL1    C4 3479   3.445   1.114   6.380  0.6686  0.0558 -0.1632
   32CHL1   H4A 3480   3.369   1.039   6.411  0.9534 -0.8891 -1.6613
   32CHL1   H4B 3481   3.403   1.213   6.405 -1.1747 -1.0834  1.6229
   32CHL1    C5 3482   3.474   1.116   6.230  0.4894  0.6471 -0.6192
   32CHL1    C6 3483   3.435   1.220   6.160  0.3170 -0.3409 -0.0342
   32CHL1    H6 3484   3.382   1.303   6.209 -2.2435 -2.1536  0.5015
   32CHL1    C7 3485   3.447   1.218   6.012  1.0471 -0.0795 -1.2495
   32CHL1   H7A 3486   3.357   1.267   5.969  1.5165  1.6686 -0.3308
   32CHL1   H7B 3487   3.531   1.287   5.989  1.5913 -0.3414 -0.1508
   32CHL1    C8 3488   3.481   1.081   5.947 -0.2069 -0.0705  0.0914
   32CHL1    H8 3489   3.391   1.016   5.948  0.4606 -1.0350 -0.4317
   32CHL1   C14 3490   3.520   1.096   5.796  0.6163  0.2447 -0.1003
   32CHL1   H14 3491   3.603   1.168   5.786  0.5760  0.4896  1.1641
   32CHL1   C15 3492   3.409   1.154   5.704 -0.1192  0.5256 -0.7458
   32CHL1  H15A 3493   3.307   1.124   5.737  0.8011 -1.3806  0.5570
   32CHL1  H15B 3494   3.421   1.264   5.708 -0.1573  0.4989  0.7170
   32CHL1   C16 3495   3.454   1.103   5.564  0.1171  0.0938  0.1549
   32CHL1  H16A 3496   3.370   1.045   5.518  0.4993  1.3029 -2.2052
   32CHL1  H16B 3497   3.479   1.187   5.496 -0.6422  0.3861  0.2165
   32CHL1   C17 3498   3.578   1.010   5.589 -0.4710  0.5898  0.2003
   32CHL1   H17 3499   3.666   1.078   5.583 -1.6700  2.2453  0.5375
   32CHL1   C13 3500   3.562   0.961   5.739 -0.2788 -0.5442 -0.1606
   32CHL1   C18 3501   3.449   0.851   5.733 -0.0680  0.4472 -0.5568
   32CHL1  H18A 3502   3.488   0.761   5.681 -0.3393 -0.5662  0.9032
   32CHL1  H18B 3503   3.418   0.821   5.836  2.9624  1.1629  0.6765
   32CHL1  H18C 3504   3.359   0.889   5.681  1.2471  1.5239 -2.1192
   32CHL1   C12 3505   3.680   0.908   5.822  0.6366  0.6051  0.6974
   32CHL1  H12A 3506   3.718   0.812   5.781 -4.0420 -1.0595 -0.3836
   32CHL1  H12B 3507   3.760   0.985   5.823 -0.0765  1.3610  0.3246
   32CHL1   C11 3508   3.649   0.882   5.968  0.5793  0.3281 -0.7193
   32CHL1  H11A 3509   3.568   0.806   5.975  0.3803  0.5758 -0.2995
   32CHL1  H11B 3510   3.740   0.846   6.020 -0.8642 -0.7931  1.1761
   32CHL1    C9 3511   3.593   1.012   6.031 -0.1391  0.0953  0.1734
   32CHL1    H9 3512   3.684   1.075   6.037 -0.4653  0.4828  1.7341
   32CHL1   C10 3513   3.537   0.993   6.171 -0.7434  0.0182  0.1744
   32CHL1   C19 3514   3.439   0.875   6.185  0.7761  0.3894 -0.3926
   32CHL1  H19A 3515   3.402   0.878   6.290  1.1580  0.2012 -0.2506
   32CHL1  H19B 3516   3.354   0.904   6.119  0.5958  1.4332  0.2691
   32CHL1  H19C 3517   3.474   0.773   6.157 -0.4442 -1.1591  3.1393
   32CHL1    C1 3518   3.662   0.962   6.257 -0.5488  0.1134 -0.8559
   32CHL1   H1A 3519   3.691   0.859   6.228  2.3605  0.5770  0.0764
   32CHL1   H1B 3520   3.745   1.027   6.222 -1.7710  2.4423  0.3413
   32CHL1    C2 3521   3.639   0.967   6.411 -0.7245  0.2745 -0.3913
   32CHL1   H2A 3522   3.738   0.959   6.461 -1.7396 -1.0556  1.5151
   32CHL1   H2B 3523   3.561   0.895   6.443  0.0990 -0.8272 -0.8015
   32CHL1   C20 3524   3.612   0.913   5.478  0.2187  0.8379 -0.2781
   32CHL1   H20 3525   3.563   0.815   5.501  2.1923 -0.5756 -1.7711
   32CHL1   C21 3526   3.772   0.890   5.486 -0.3615  0.1304  0.7024
   32CHL1  H21A 3527   3.799   0.793   5.438 -2.0629  1.6311 -3.7906
   32CHL1  H21B 3528   3.815   0.902   5.588  1.7870  0.5541 -0.1867
   32CHL1  H21C 3529   3.824   0.966   5.424 -1.4820  0.2783 -0.0846
   32CHL1   C22 3530   3.579   0.961   5.339  0.1483 -0.3479 -0.0698
   32CHL1  H22A 3531   3.470   0.979   5.333  0.0930 -0.0787  1.3516
   32CHL1  H22B 3532   3.628   1.053   5.303 -1.1043  0.1014 -0.6812
   32CHL1   C23 3533   3.608   0.864   5.220  0.1822  0.0508 -0.3189
   32CHL1  H23A 3534   3.718   0.850   5.217 -0.0588 -2.1264 -1.4402
   32CHL1  H23B 3535   3.571   0.763   5.247 -0.1870  0.4842  0.8369
   32CHL1   C24 3536   3.550   0.917   5.082  0.5734  0.0978  0.5423
   32CHL1  H24A 3537   3.460   0.978   5.100  0.6675  0.5256 -0.4070
   32CHL1  H24B 3538   3.620   0.999   5.053  0.5700  0.6216  1.9343
   32CHL1   C25 3539   3.553   0.819   4.957 -0.2005  0.0288  0.6204
   32CHL1   H25 3540   3.652   0.771   4.944 -0.8286 -1.2310  0.3736
   32CHL1   C26 3541   3.452   0.701   4.962 -0.1857  0.6177 -0.7852
   32CHL1  H26A 3542   3.347   0.731   4.978 -0.7097 -1.5994  0.3041
   32CHL1  H26B 3543   3.453   0.640   4.868  0.6879 -3.2121  1.4608
   32CHL1  H26C 3544   3.474   0.637   5.050  0.5664  0.3754 -1.1352
   32CHL1   C27 3545   3.533   0.906   4.835 -0.0824 -0.9471 -0.2347
   32CHL1  H27A 3546   3.563   0.843   4.749  1.7001 -1.3198  0.6069
   32CHL1  H27B 3547   3.428   0.940   4.832  0.3232  0.3275 -0.4728
   32CHL1  H27C 3548   3.594   0.999   4.833  0.8165 -1.5331 -2.3620
   33CHL1    C3 3549   1.193   1.647   6.698  0.2428 -0.0197 -0.6226
   33CHL1    H3 3550   1.220   1.754   6.682  0.5746 -0.0200 -0.0926
   33CHL1    O3 3551   1.219   1.609   6.826 -0.3671 -0.5325 -0.1564
   33CHL1   H3' 3552   1.181   1.522   6.839  0.9434 -0.8106  2.3683
   33CHL1    C4 3553   1.044   1.629   6.667 -0.0237  0.5357 -0.1201
   33CHL1   H4A 3554   1.012   1.526   6.691  2.4800  0.1115  1.8086
   33CHL1   H4B 3555   0.989   1.699   6.733  1.7981  0.4292  1.5840
   33CHL1    C5 3556   1.011   1.667   6.518  0.5246  0.5218  0.5099
   33CHL1    C6 3557   0.920   1.756   6.490  1.4829 -1.0688 -0.1445
   33CHL1    H6 3558   0.870   1.808   6.572  1.1025 -1.7265  0.0483
   33CHL1    C7 3559   0.897   1.807   6.352  0.1588  0.3983 -0.0520
   33CHL1   H7A 3560   0.789   1.827   6.340 -0.1818 -0.3523  1.5537
   33CHL1   H7B 3561   0.935   1.911   6.342  0.7576  0.5190  2.7009
   33CHL1    C8 3562   0.948   1.708   6.244  0.0192  0.0566  0.3177
   33CHL1    H8 3563   0.883   1.618   6.239  0.4844 -0.2402 -2.5606
   33CHL1   C14 3564   0.944   1.778   6.107 -0.7395  0.0205  0.3783
   33CHL1   H14 3565   1.017   1.861   6.119 -0.5859 -0.0404 -0.1269
   33CHL1   C15 3566   0.806   1.840   6.059 -0.0442 -0.2868  0.3922
   33CHL1  H15A 3567   0.717   1.792   6.105  0.1728 -0.8900  0.1864
   33CHL1  H15B 3568   0.805   1.945   6.095 -0.1960  0.2403 -1.0759
   33CHL1   C16 3569   0.815   1.842   5.909  0.0009 -0.4335  0.8903
   33CHL1  H16A 3570   0.742   1.767   5.871 -0.1803 -0.7771  1.8777
   33CHL1  H16B 3571   0.784   1.942   5.873 -0.4819  0.0136  2.4719
   33CHL1   C17 3572   0.965   1.795   5.878  0.7147  0.1911  0.6920
   33CHL1   H17 3573   1.020   1.892   5.888 -0.7913  1.0274  1.1356
   33CHL1   C13 3574   1.002   1.699   5.989  0.5943  0.2959  0.0060
   33CHL1   C18 3575   0.915   1.566   5.962  0.1883 -0.1880 -0.7908
   33CHL1  H18A 3576   0.966   1.506   5.884 -1.0156  0.3560 -2.0651
   33CHL1  H18B 3577   0.909   1.505   6.054 -0.4855  0.2040 -0.5632
   33CHL1  H18C 3578   0.810   1.599   5.943 -0.8271 -0.9767  2.8035
   33CHL1   C12 3579   1.146   1.666   6.021 -0.2122  0.2194 -0.1803
   33CHL1  H12A 3580   1.186   1.611   5.933 -1.4535 -0.7894 -0.1495
   33CHL1  H12B 3581   1.204   1.760   6.030  1.5942 -0.5101 -2.8578
   33CHL1   C11 3582   1.158   1.588   6.152 -0.0599  0.5415  0.2799
   33CHL1  H11A 3583   1.121   1.484   6.153 -0.7489  0.7660 -0.2469
   33CHL1  H11B 3584   1.266   1.582   6.177 -0.0432 -0.3634  0.0025
   33CHL1    C9 3585   1.093   1.664   6.275  0.2766 -0.4265  0.1558
   33CHL1    H9 3586   1.154   1.756   6.281 -0.1755 -0.1852  1.2472
   33CHL1   C10 3587   1.102   1.596   6.410 -0.6535  0.0006  0.1572
   33CHL1   C19 3588   1.040   1.458   6.394  0.1279  0.9349  0.1604
   33CHL1  H19A 3589   1.112   1.393   6.341  0.2519  0.2421  1.1381
   33CHL1  H19B 3590   1.040   1.411   6.495  2.8839 -1.0252 -0.6438
   33CHL1  H19C 3591   0.942   1.454   6.342 -0.0838 -0.6984  0.6225
   33CHL1    C1 3592   1.251   1.588   6.457 -0.1874 -0.5444  0.4330
   33CHL1   H1A 3593   1.304   1.509   6.398  2.2548  1.9050 -0.9276
   33CHL1   H1B 3594   1.284   1.693   6.440  0.4224 -0.4983  1.7902
   33CHL1    C2 3595   1.271   1.557   6.605 -0.1937  0.6641 -0.1240
   33CHL1   H2A 3596   1.380   1.547   6.621  0.0288  1.3685 -1.0820
   33CHL1   H2B 3597   1.237   1.452   6.610  1.6157  0.0573 -0.1667
   33CHL1   C20 3598   0.977   1.742   5.728 -0.9103 -0.2396  0.1506
   33CHL1   H20 3599   0.925   1.646   5.709  3.5005 -2.8397 -0.2673
   33CHL1   C21 3600   1.126   1.710   5.690  0.3248  0.1695 -0.5943
   33CHL1  H21A 3601   1.146   1.704   5.581 -2.7843 -1.4192 -1.1969
   33CHL1  H21B 3602   1.138   1.608   5.733 -2.6986 -0.8292 -1.8414
   33CHL1  H21C 3603   1.196   1.784   5.734  1.6568 -1.4115  0.0606
   33CHL1   C22 3604   0.921   1.847   5.635 -0.1717 -0.2522  1.3588
   33CHL1  H22A 3605   0.814   1.854   5.664  0.0199 -1.0759  2.3209
   33CHL1  H22B 3606   0.977   1.935   5.671 -0.4168  0.1095  0.8736
   33CHL1   C23 3607   0.947   1.830   5.478 -0.3939 -0.2917 -0.3505
   33CHL1  H23A 3608   1.051   1.853   5.447 -0.0497  0.3370  1.1686
   33CHL1  H23B 3609   0.945   1.722   5.449  3.2977 -0.2048 -1.4227
   33CHL1   C24 3610   0.864   1.928   5.402 -0.0714  0.3152  0.2348
   33CHL1  H24A 3611   0.762   1.912   5.442  0.3634  1.9290  2.1515
   33CHL1  H24B 3612   0.892   2.031   5.434 -2.3264  0.0439  3.5104
   33CHL1   C25 3613   0.869   1.915   5.248 -0.0265 -0.5973  0.5405
   33CHL1   H25 3614   0.975   1.930   5.217 -0.1532 -1.5354 -0.4226
   33CHL1   C26 3615   0.838   1.780   5.203 -0.0448  0.8077 -0.0372
   33CHL1  H26A 3616   0.928   1.716   5.209  0.2659  1.3117  0.8807
   33CHL1  H26B 3617   0.756   1.745   5.269 -0.3310  3.7880  1.3678
   33CHL1  H26C 3618   0.795   1.785   5.100  0.5016  0.6614 -0.2762
   33CHL1   C27 3619   0.786   2.020   5.187  0.2128  0.0426  0.0219
   33CHL1  H27A 3620   0.832   2.121   5.194  1.6441 -0.6574  1.3028
   33CHL1  H27B 3621   0.777   1.998   5.078  1.0155 -0.1840 -0.0028
   33CHL1  H27C 3622   0.684   2.011   5.228 -0.0483 -1.4719 -0.8786
   34CHL1    C3 3623   2.577   2.839   6.448 -0.1060  0.0173 -0.7622
   34CHL1    H3 3624   2.672   2.788   6.418  0.6789 -0.5012  2.2917
   34CHL1    O3 3625   2.577   2.840   6.591  0.3121  0.1663 -0.1061
   34CHL1   H3' 3626   2.486   2.839   6.622  0.5678  0.4166  0.6662
   34CHL1    C4 3627   2.588   2.983   6.410  0.0963 -0.5513  0.3170
   34CHL1   H4A 3628   2.499   3.042   6.442 -1.1893 -2.1692 -0.1127
   34CHL1   H4B 3629   2.682   3.016   6.458  1.7599 -3.3610 -0.7973
   34CHL1    C5 3630   2.598   2.992   6.262 -0.2465 -0.1115 -0.2417
   34CHL1    C6 3631   2.690   3.071   6.206  0.1882  0.7821  0.0979
   34CHL1    H6 3632   2.763   3.121   6.272  0.0036  0.7772  0.3100
   34CHL1    C7 3633   2.698   3.100   6.062  0.2462  0.8967  0.2242
   34CHL1   H7A 3634   2.706   3.210   6.050  0.7759  0.7288 -1.2044
   34CHL1   H7B 3635   2.792   3.055   6.022 -1.1632 -1.4516 -0.7003
   34CHL1    C8 3636   2.592   3.031   5.967 -0.3020  0.0286 -0.2904
   34CHL1    H8 3637   2.506   3.101   5.961 -0.4614 -0.1828 -0.4826
   34CHL1   C14 3638   2.641   2.997   5.826 -0.1820 -0.4913  0.5587
   34CHL1   H14 3639   2.715   2.914   5.833  0.8061  0.0395 -2.3843
   34CHL1   C15 3640   2.719   3.108   5.750  0.1057 -0.2633 -0.0022
   34CHL1  H15A 3641   2.668   3.207   5.758  1.0618  0.2503 -0.1153
   34CHL1  H15B 3642   2.821   3.120   5.790 -0.3749  0.9963  0.9270
   34CHL1   C16 3643   2.717   3.058   5.605 -0.2243 -0.1227 -0.4891
   34CHL1  H16A 3644   2.683   3.148   5.550  1.7163  0.4456 -0.8040
   34CHL1  H16B 3645   2.819   3.047   5.562  0.2661 -0.2509  0.6808
   34CHL1   C17 3646   2.616   2.929   5.596  0.1207 -0.3423  0.7854
   34CHL1   H17 3647   2.690   2.847   5.604  0.0435 -0.4661  0.2770
   34CHL1   C13 3648   2.538   2.945   5.728 -0.6859 -0.4543 -0.6811
   34CHL1   C18 3649   2.427   3.053   5.702 -0.1184 -0.3383 -0.2891
   34CHL1  H18A 3650   2.457   3.150   5.658  2.0925 -0.1413  1.4566
   34CHL1  H18B 3651   2.356   2.996   5.639  0.5541 -1.5759  0.0237
   34CHL1  H18C 3652   2.383   3.069   5.803 -2.0549 -2.1440 -0.7860
   34CHL1   C12 3653   2.478   2.812   5.788  0.8485  0.8086  0.0658
   34CHL1  H12A 3654   2.391   2.777   5.730  0.7746  1.2719 -0.1003
   34CHL1  H12B 3655   2.563   2.740   5.780 -0.0369 -0.1485 -0.9384
   34CHL1   C11 3656   2.434   2.832   5.934 -0.5331 -0.3033  0.4525
   34CHL1  H11A 3657   2.341   2.893   5.936  0.2420  0.9006  0.7918
   34CHL1  H11B 3658   2.417   2.734   5.984  0.9661 -0.3471  0.9368
   34CHL1    C9 3659   2.543   2.902   6.032  0.3635  0.6718  0.2616
   34CHL1    H9 3660   2.630   2.834   6.041 -0.3778 -0.3435 -0.0187
   34CHL1   C10 3661   2.492   2.917   6.176  0.6995  0.2106 -0.1147
   34CHL1   C19 3662   2.365   3.003   6.183 -0.1850  0.2455  0.0615
   34CHL1  H19A 3663   2.318   2.998   6.283  1.7014  0.8947  1.0102
   34CHL1  H19B 3664   2.372   3.109   6.149  1.3450 -0.4428 -2.0187
   34CHL1  H19C 3665   2.294   2.964   6.106 -0.5513  0.7000  0.1646
   34CHL1    C1 3666   2.463   2.775   6.241  0.0870 -0.3233  0.9171
   34CHL1   H1A 3667   2.362   2.743   6.207  0.3819  0.4470 -0.8346
   34CHL1   H1B 3668   2.534   2.704   6.194 -2.5978 -1.6313 -1.5157
   34CHL1    C2 3669   2.456   2.766   6.394 -0.1617 -0.5248  0.4239
   34CHL1   H2A 3670   2.444   2.658   6.418 -2.5414 -0.2311  0.7371
   34CHL1   H2B 3671   2.359   2.809   6.426  0.7793  0.0327  2.7678
   34CHL1   C20 3672   2.547   2.920   5.460 -0.3196 -0.1734  0.8001
   34CHL1   H20 3673   2.473   3.002   5.466  0.2833  0.3549  1.1811
   34CHL1   C21 3674   2.477   2.783   5.441  0.1441 -0.0841  0.3667
   34CHL1  H21A 3675   2.458   2.725   5.534  2.1976 -0.9886  0.2859
   34CHL1  H21B 3676   2.559   2.726   5.391  1.5800  1.4155  0.9111
   34CHL1  H21C 3677   2.393   2.788   5.369  0.7684 -2.8570 -0.7013
   34CHL1   C22 3678   2.626   2.947   5.327 -0.3208  0.0701  0.1517
   34CHL1  H22A 3679   2.696   3.031   5.346 -0.2701  0.7087 -2.4909
   34CHL1  H22B 3680   2.681   2.860   5.286  0.1002  0.8486 -0.9784
   34CHL1   C23 3681   2.526   2.998   5.218  0.1970  0.0579 -0.1159
   34CHL1  H23A 3682   2.445   2.924   5.204 -0.9815  0.6893  2.6520
   34CHL1  H23B 3683   2.484   3.092   5.261 -0.0379 -0.8864  1.8072
   34CHL1   C24 3684   2.599   3.021   5.086 -0.5313 -0.1233  0.2320
   34CHL1  H24A 3685   2.685   3.088   5.110  0.7751 -0.7819 -2.2938
   34CHL1  H24B 3686   2.645   2.924   5.059 -3.6052 -1.3274 -1.1210
   34CHL1   C25 3687   2.509   3.073   4.969 -0.2399  0.1040  0.3633
   34CHL1   H25 3688   2.415   3.015   4.954 -0.0078 -0.7986  2.1659
   34CHL1   C26 3689   2.464   3.219   4.987 -0.5398 -0.5355 -0.1694
   34CHL1  H26A 3690   2.547   3.288   5.013 -0.9349  0.5635 -1.6453
   34CHL1  H26B 3691   2.410   3.255   4.897 -0.1501 -0.7746 -0.5008
   34CHL1  H26C 3692   2.397   3.218   5.076  2.6475 -4.1802  2.4925
   34CHL1   C27 3693   2.599   3.051   4.847 -0.1290 -0.5373  0.4176
   34CHL1  H27A 3694   2.553   3.084   4.751  2.0000  2.7990  0.3937
   34CHL1  H27B 3695   2.698   3.098   4.863 -0.7229  0.3685  1.6401
   34CHL1  H27C 3696   2.612   2.941   4.831 -1.8878 -1.0774  2.2599
   35CHL1    C3 3697   3.438   6.335   6.787 -0.7424  0.2717  0.7299
   35CHL1    H3 3698   3.472   6.439   6.767 -0.6229  0.1651  0.3619
   35CHL1    O3 3699   3.384   6.323   6.916 -0.0221 -0.3040 -0.0789
   35CHL1   H3' 3700   3.455   6.318   6.981 -0.5688 -0.1811  0.5322
   35CHL1    C4 3701   3.327   6.306   6.692 -0.5678 -0.6428 -0.2254
   35CHL1   H4A 3702   3.280   6.206   6.709 -0.7439 -0.5993 -0.4499
   35CHL1   H4B 3703   3.249   6.381   6.713  0.1046 -0.1651  0.6294
   35CHL1    C5 3704   3.369   6.312   6.549 -0.7133  0.4747  0.2826
   35CHL1    C6 3705   3.323   6.398   6.462  0.9716 -0.4768 -0.2863
   35CHL1    H6 3706   3.237   6.460   6.490  0.4882 -0.9623 -0.6697
   35CHL1    C7 3707   3.361   6.386   6.315 -0.3236 -1.3355  0.0905
   35CHL1   H7A 3708   3.269   6.384   6.253 -0.3786  2.2616 -0.1594
   35CHL1   H7B 3709   3.408   6.481   6.282  0.6762 -0.6253  3.2185
   35CHL1    C8 3710   3.448   6.268   6.276  0.0248  0.1116  0.1382
   35CHL1    H8 3711   3.370   6.189   6.274 -0.8008  0.9099 -0.3872
   35CHL1   C14 3712   3.515   6.284   6.137  0.3886  0.2577  0.4221
   35CHL1   H14 3713   3.593   6.363   6.141  2.4008 -1.6876  1.5272
   35CHL1   C15 3714   3.425   6.317   6.016  0.3834 -0.2373  0.1756
   35CHL1  H15A 3715   3.338   6.248   6.017 -1.5650  2.1162  0.6976
   35CHL1  H15B 3716   3.383   6.419   6.007  0.8943 -0.0947 -0.7566
   35CHL1   C16 3717   3.520   6.299   5.896 -0.0057  0.4496 -0.1262
   35CHL1  H16A 3718   3.475   6.240   5.813 -0.8642  1.2651 -0.2594
   35CHL1  H16B 3719   3.548   6.397   5.853 -1.6978  1.0337  0.0386
   35CHL1   C17 3720   3.644   6.213   5.949  0.5152 -0.2550  0.3305
   35CHL1   H17 3721   3.735   6.274   5.968 -0.5621  1.1519  1.1422
   35CHL1   C13 3722   3.595   6.163   6.086 -0.2363  0.2743  0.3348
   35CHL1   C18 3723   3.508   6.038   6.073 -0.1171 -0.8020  0.0945
   35CHL1  H18A 3724   3.458   6.033   6.171  0.3882 -0.1560  0.3955
   35CHL1  H18B 3725   3.428   6.040   5.996  0.1331  3.0507 -0.2912
   35CHL1  H18C 3726   3.566   5.943   6.070 -0.5704 -1.0624 -1.3882
   35CHL1   C12 3727   3.705   6.146   6.190 -0.2348 -0.2458 -0.1903
   35CHL1  H12A 3728   3.768   6.056   6.172 -1.5306 -2.1819  3.7044
   35CHL1  H12B 3729   3.762   6.241   6.197 -0.1545 -0.4297  3.5261
   35CHL1   C11 3730   3.642   6.119   6.330 -0.6585 -0.9648  0.0319
   35CHL1  H11A 3731   3.604   6.015   6.331  1.1345 -1.6504  0.6448
   35CHL1  H11B 3732   3.728   6.114   6.400  0.6765  2.0511 -1.1922
   35CHL1    C9 3733   3.547   6.241   6.379 -0.4298 -0.4562  0.6487
   35CHL1    H9 3734   3.609   6.332   6.394 -0.3229 -0.4254  0.0107
   35CHL1   C10 3735   3.481   6.214   6.516  0.7333 -0.2409 -0.1735
   35CHL1   C19 3736   3.438   6.062   6.522  1.6357  0.6417  0.5571
   35CHL1  H19A 3737   3.378   6.034   6.433 -2.1588  0.2826  2.9655
   35CHL1  H19B 3738   3.531   6.001   6.524  1.6687  0.5035 -2.0900
   35CHL1  H19C 3739   3.382   6.038   6.615 -1.5621 -0.2773 -1.4429
   35CHL1    C1 3740   3.594   6.232   6.623 -0.3605  0.3425 -0.0904
   35CHL1   H1A 3741   3.669   6.150   6.613 -2.2662 -1.5321  0.2096
   35CHL1   H1B 3742   3.639   6.332   6.605 -1.0779  0.7211  0.1531
   35CHL1    C2 3743   3.547   6.226   6.768  0.1919  0.2009 -0.0302
   35CHL1   H2A 3744   3.634   6.237   6.837  0.1620 -3.3133  0.7353
   35CHL1   H2B 3745   3.503   6.127   6.793 -0.5752  0.6717  0.5273
   35CHL1   C20 3746   3.694   6.104   5.847  0.1272  0.1741 -0.4897
   35CHL1   H20 3747   3.613   6.033   5.819  2.1182 -2.8674  0.9143
   35CHL1   C21 3748   3.817   6.029   5.899 -0.2650 -0.5999  0.2712
   35CHL1  H21A 3749   3.785   5.947   5.967  0.7107 -3.6107 -2.6341
   35CHL1  H21B 3750   3.890   6.092   5.954 -1.6286 -2.3968  4.6364
   35CHL1  H21C 3751   3.857   5.977   5.810 -2.8832 -0.4317 -1.1228
   35CHL1   C22 3752   3.731   6.171   5.715 -0.3765 -0.6145  0.2270
   35CHL1  H22A 3753   3.646   6.237   5.685  0.5702  0.4475 -0.1881
   35CHL1  H22B 3754   3.822   6.235   5.721 -0.4259 -0.5538  0.3489
   35CHL1   C23 3755   3.753   6.089   5.591  0.5800  0.1522  0.0938
   35CHL1  H23A 3756   3.849   6.036   5.608  0.4466  0.4376  1.9531
   35CHL1  H23B 3757   3.675   6.011   5.587  1.8701 -1.3464  2.0225
   35CHL1   C24 3758   3.750   6.173   5.458 -1.1593  0.9827  0.0924
   35CHL1  H24A 3759   3.824   6.255   5.465  1.7813 -1.5926  1.7751
   35CHL1  H24B 3760   3.802   6.114   5.380  0.9111  1.1375  1.2780
   35CHL1   C25 3761   3.617   6.212   5.394  0.1657  0.2586 -0.2760
   35CHL1   H25 3762   3.535   6.140   5.416 -1.4268  1.3742 -2.1799
   35CHL1   C26 3763   3.557   6.344   5.459 -0.3292 -0.2197  0.2664
   35CHL1  H26A 3764   3.522   6.313   5.560  1.4245 -1.4318  0.5470
   35CHL1  H26B 3765   3.637   6.420   5.470 -0.9036  0.4408 -0.1111
   35CHL1  H26C 3766   3.478   6.381   5.391  0.9844  1.3406 -0.4728
   35CHL1   C27 3767   3.636   6.224   5.245  0.0907 -0.0753 -0.3206
   35CHL1  H27A 3768   3.709   6.301   5.212 -1.1513  0.2370 -2.5009
   35CHL1  H27B 3769   3.655   6.122   5.206  1.9177 -1.0598  2.7641
   35CHL1  H27C 3770   3.539   6.257   5.202  0.1065 -0.9232 -1.0344
   36CHL1    C3 3771   0.467   3.529   6.583  0.1983 -0.6508  0.2719
   36CHL1    H3 3772   0.553   3.597   6.605 -0.6970  0.3111  0.8561
   36CHL1    O3 3773   0.418   3.495   6.707  0.3290 -1.0872 -0.3210
   36CHL1   H3' 3774   0.494   3.477   6.762  0.4633 -2.9255 -1.0583
   36CHL1    C4 3775   0.364   3.616   6.511  0.4990 -0.7397 -0.1333
   36CHL1   H4A 3776   0.266   3.568   6.532  0.9812 -0.3853  3.6026
   36CHL1   H4B 3777   0.351   3.712   6.565 -0.2108  0.3800 -2.1935
   36CHL1    C5 3778   0.395   3.645   6.371 -0.4848  0.3454  0.3754
   36CHL1    C6 3779   0.387   3.768   6.314  0.3404  0.3191  0.1478
   36CHL1    H6 3780   0.366   3.851   6.384  0.4671 -0.4315  1.1016
   36CHL1    C7 3781   0.393   3.796   6.165 -0.3967  0.2795  0.0082
   36CHL1   H7A 3782   0.304   3.854   6.131 -1.8337 -1.8486 -0.1107
   36CHL1   H7B 3783   0.484   3.854   6.141  0.2648 -0.2884  1.0918
   36CHL1    C8 3784   0.408   3.665   6.078  0.2283 -0.8115 -0.1810
   36CHL1    H8 3785   0.305   3.626   6.065 -0.7066  0.9280  1.4871
   36CHL1   C14 3786   0.471   3.703   5.942  0.0306 -0.0091 -0.1298
   36CHL1   H14 3787   0.577   3.736   5.947  0.6452 -1.9663  1.3389
   36CHL1   C15 3788   0.406   3.815   5.863 -0.0028  0.5559  0.1125
   36CHL1  H15A 3789   0.296   3.824   5.877 -0.1303 -0.2569 -0.3291
   36CHL1  H15B 3790   0.454   3.909   5.899 -0.0159  0.4100  0.5149
   36CHL1   C16 3791   0.439   3.791   5.719  0.6127 -0.0091  0.6554
   36CHL1  H16A 3792   0.347   3.787   5.657  2.6906  0.9787 -2.8257
   36CHL1  H16B 3793   0.497   3.874   5.674  0.0179  0.1153  0.1016
   36CHL1   C17 3794   0.512   3.657   5.713  0.0279  0.0275  0.3214
   36CHL1   H17 3795   0.622   3.667   5.721 -0.0608  0.3972  1.2492
   36CHL1   C13 3796   0.470   3.591   5.841  0.6168 -0.3403  0.1187
   36CHL1   C18 3797   0.330   3.536   5.817 -0.6017  0.8471 -0.2038
   36CHL1  H18A 3798   0.336   3.457   5.739  1.1994 -0.2494  0.9793
   36CHL1  H18B 3799   0.299   3.470   5.901 -1.0387  0.8878 -0.3292
   36CHL1  H18C 3800   0.255   3.615   5.796 -1.1959  0.2296 -0.4440
   36CHL1   C12 3801   0.570   3.489   5.901 -0.8393  0.1647 -0.1856
   36CHL1  H12A 3802   0.581   3.397   5.840  0.2752 -0.0141  0.2689
   36CHL1  H12B 3803   0.670   3.538   5.905  0.4238 -2.2941  0.2236
   36CHL1   C11 3804   0.522   3.445   6.044 -0.0785 -0.8445  0.0418
   36CHL1  H11A 3805   0.435   3.378   6.030 -2.3612  2.1174 -0.8318
   36CHL1  H11B 3806   0.603   3.380   6.084  0.7127 -2.7800 -4.1998
   36CHL1    C9 3807   0.493   3.559   6.147  0.1206  0.3876  0.5045
   36CHL1    H9 3808   0.591   3.604   6.171  0.1488  0.0786  0.9930
   36CHL1   C10 3809   0.433   3.520   6.283 -0.5197  0.4038  0.3885
   36CHL1   C19 3810   0.308   3.437   6.264  0.0821  0.0102 -0.0244
   36CHL1  H19A 3811   0.233   3.491   6.202  1.2002  1.1352 -0.4365
   36CHL1  H19B 3812   0.315   3.331   6.231  1.1860 -0.6902  2.2460
   36CHL1  H19C 3813   0.256   3.414   6.360 -1.6845 -0.6311 -1.0818
   36CHL1    C1 3814   0.541   3.432   6.357 -0.5073 -0.3066  0.6590
   36CHL1   H1A 3815   0.561   3.334   6.309  0.7586  0.0658  0.3868
   36CHL1   H1B 3816   0.635   3.491   6.361 -0.4507 -0.3062 -0.4501
   36CHL1    C2 3817   0.510   3.405   6.509 -0.3076 -0.1386 -0.6208
   36CHL1   H2A 3818   0.586   3.341   6.559 -2.0658 -0.3802  1.9114
   36CHL1   H2B 3819   0.419   3.341   6.512 -0.9074  0.7600  0.7885
   36CHL1   C20 3820   0.490   3.595   5.574  0.2128  0.2081 -0.1205
   36CHL1   H20 3821   0.381   3.579   5.568 -0.0462  0.4541  2.7883
   36CHL1   C21 3822   0.562   3.453   5.564  0.3040 -0.2081  0.7035
   36CHL1  H21A 3823   0.537   3.387   5.651 -0.9025  0.9121  1.2376
   36CHL1  H21B 3824   0.672   3.465   5.550  0.1431  0.3764 -0.0582
   36CHL1  H21C 3825   0.519   3.404   5.474 -2.0141 -0.3107  1.7922
   36CHL1   C22 3826   0.541   3.696   5.467 -0.3125  0.7527  0.5155
   36CHL1  H22A 3827   0.471   3.781   5.452  0.6386  1.0638 -3.0108
   36CHL1  H22B 3828   0.636   3.741   5.504  1.0151 -1.6987  0.2799
   36CHL1   C23 3829   0.546   3.640   5.332 -0.7305  0.1950  0.0188
   36CHL1  H23A 3830   0.633   3.571   5.327  1.5289  2.9136 -0.8000
   36CHL1  H23B 3831   0.460   3.577   5.301 -1.2367  1.1929 -0.6501
   36CHL1   C24 3832   0.559   3.754   5.228 -0.0076  0.2043 -0.4657
   36CHL1  H24A 3833   0.457   3.797   5.219  0.0937  0.2978 -1.1888
   36CHL1  H24B 3834   0.643   3.821   5.257  1.2444 -1.6804  0.5003
   36CHL1   C25 3835   0.598   3.699   5.088  0.0718  0.2488 -0.4239
   36CHL1   H25 3836   0.534   3.610   5.069 -0.7999  0.6663  0.4485
   36CHL1   C26 3837   0.569   3.797   4.985  0.2465 -0.0304 -0.0725
   36CHL1  H26A 3838   0.566   3.755   4.882  0.5713  0.4828 -0.2970
   36CHL1  H26B 3839   0.462   3.825   5.001 -0.4329 -2.4855  0.0972
   36CHL1  H26C 3840   0.632   3.888   4.993 -1.0441  0.8451  0.4993
   36CHL1   C27 3841   0.738   3.644   5.087 -0.4622  0.6526  0.0355
   36CHL1  H27A 3842   0.800   3.667   4.997  1.7741  1.5615  1.7119
   36CHL1  H27B 3843   0.797   3.682   5.173  0.7722 -1.0745  0.0284
   36CHL1  H27C 3844   0.745   3.534   5.105  0.0655  0.3393 -1.8249
   37CHL1    C3 3845   1.611   6.720   6.512  0.4323  1.4982  0.3512
   37CHL1    H3 3846   1.701   6.782   6.491  0.8969  0.8322  0.3578
   37CHL1    O3 3847   1.596   6.702   6.652 -0.2709  0.0535 -0.7269
   37CHL1   H3' 3848   1.513   6.654   6.665  1.7781 -3.7291 -0.1914
   37CHL1    C4 3849   1.492   6.800   6.459  0.1658 -0.1871 -0.0672
   37CHL1   H4A 3850   1.400   6.743   6.486 -0.6434  0.4507 -1.3982
   37CHL1   H4B 3851   1.481   6.898   6.510 -0.2747 -1.4135  2.4044
   37CHL1    C5 3852   1.496   6.803   6.305 -0.2585  0.6164  0.5658
   37CHL1    C6 3853   1.487   6.918   6.239  0.1081  0.3278  0.7843
   37CHL1    H6 3854   1.490   7.016   6.290 -1.5968  0.1799  1.2539
   37CHL1    C7 3855   1.483   6.938   6.088  0.3333  0.7834  0.0394
   37CHL1   H7A 3856   1.396   7.003   6.061 -0.0094 -0.3739 -1.8818
   37CHL1   H7B 3857   1.574   6.993   6.058 -0.2837  2.8479  1.7384
   37CHL1    C8 3858   1.464   6.808   6.006 -0.3890  0.0065 -0.4251
   37CHL1    H8 3859   1.354   6.792   5.999 -0.4421  0.1802 -0.0621
   37CHL1   C14 3860   1.519   6.834   5.866 -0.1567 -0.0441  0.5200
   37CHL1   H14 3861   1.628   6.853   5.878  0.1413 -0.0880 -1.6540
   37CHL1   C15 3862   1.469   6.953   5.783 -0.4796  0.7913 -0.2184
   37CHL1  H15A 3863   1.358   6.956   5.784 -0.4725  2.4733 -0.8727
   37CHL1  H15B 3864   1.508   7.047   5.829 -0.9512  0.3531  1.1411
   37CHL1   C16 3865   1.524   6.914   5.638 -0.1548  0.1778 -0.1618
   37CHL1  H16A 3866   1.427   6.909   5.584 -1.0329  1.0293  1.2502
   37CHL1  H16B 3867   1.601   6.976   5.589 -0.2999 -0.3869 -1.1265
   37CHL1   C17 3868   1.574   6.767   5.649 -0.0443  0.1144 -0.1559
   37CHL1   H17 3869   1.680   6.777   5.680 -0.5983  1.3765  1.5430
   37CHL1   C13 3870   1.513   6.713   5.775 -0.7184  0.1523  0.6816
   37CHL1   C18 3871   1.367   6.653   5.750 -0.6107  0.3566 -0.5421
   37CHL1  H18A 3872   1.322   6.719   5.673 -0.1087  0.3120 -0.8812
   37CHL1  H18B 3873   1.372   6.546   5.720 -1.1838  0.0945  0.2568
   37CHL1  H18C 3874   1.314   6.646   5.847  1.2102  0.0798  0.4913
   37CHL1   C12 3875   1.588   6.595   5.850  0.4605 -0.2467  0.6204
   37CHL1  H12A 3876   1.574   6.500   5.793  2.6212 -0.0787 -0.2582
   37CHL1  H12B 3877   1.696   6.613   5.864  1.0367 -2.2864 -0.7377
   37CHL1   C11 3878   1.516   6.572   5.987 -0.6976  0.2041 -0.4527
   37CHL1  H11A 3879   1.412   6.535   5.978 -0.1352 -2.1416  1.5478
   37CHL1  H11B 3880   1.566   6.481   6.027 -0.5571  1.2358  1.8722
   37CHL1    C9 3881   1.539   6.693   6.074  0.0439 -0.0839  0.3763
   37CHL1    H9 3882   1.645   6.727   6.075  0.1256 -0.3471  1.0168
   37CHL1   C10 3883   1.507   6.673   6.223 -0.4523  0.6292 -0.1102
   37CHL1   C19 3884   1.375   6.597   6.235  0.5489 -0.3490 -0.2211
   37CHL1  H19A 3885   1.298   6.643   6.169  3.0424  1.1305 -2.2793
   37CHL1  H19B 3886   1.388   6.492   6.202  0.4053 -0.7155  0.8458
   37CHL1  H19C 3887   1.335   6.593   6.338  0.6860  1.8957 -0.0324
   37CHL1    C1 3888   1.620   6.591   6.290  0.0574  0.3515 -1.4163
   37CHL1   H1A 3889   1.616   6.486   6.253  2.3475 -0.8442  1.3928
   37CHL1   H1B 3890   1.722   6.630   6.268 -0.0982  1.1337 -0.7962
   37CHL1    C2 3891   1.617   6.575   6.445 -0.3384 -0.7395 -0.3167
   37CHL1   H2A 3892   1.704   6.521   6.489  0.9454  1.6013  0.1482
   37CHL1   H2B 3893   1.521   6.527   6.474 -0.5515  1.0576  2.2712
   37CHL1   C20 3894   1.553   6.691   5.520 -0.0590  0.7679  0.7046
   37CHL1   H20 3895   1.447   6.662   5.505  0.5421 -1.0208 -0.3087
   37CHL1   C21 3896   1.627   6.554   5.527 -0.0347  0.9177  0.4858
   37CHL1  H21A 3897   1.614   6.495   5.434 -1.5819 -1.0560  1.8567
   37CHL1  H21B 3898   1.599   6.491   5.614  0.2802 -1.4005 -0.9949
   37CHL1  H21C 3899   1.736   6.563   5.549  0.0242  0.8610  0.2262
   37CHL1   C22 3900   1.601   6.776   5.397 -0.3343  0.6419  0.2509
   37CHL1  H22A 3901   1.574   6.883   5.404  0.5055  0.7755  1.9427
   37CHL1  H22B 3902   1.712   6.774   5.394 -0.3004  1.2096  1.0557
   37CHL1   C23 3903   1.539   6.720   5.264  0.0710 -0.0229  0.4632
   37CHL1  H23A 3904   1.543   6.609   5.272  3.7677  0.0439  1.2053
   37CHL1  H23B 3905   1.432   6.752   5.267  0.7256  2.2934  0.8369
   37CHL1   C24 3906   1.600   6.770   5.128  0.4156 -0.3381 -0.3355
   37CHL1  H24A 3907   1.520   6.767   5.051  2.3468  1.4663 -2.5514
   37CHL1  H24B 3908   1.635   6.875   5.140  0.5570 -0.6125  2.1410
   37CHL1   C25 3909   1.728   6.693   5.077 -0.3022  0.3134 -0.2205
   37CHL1   H25 3910   1.800   6.712   5.159 -1.3844  0.2002  0.7706
   37CHL1   C26 3911   1.714   6.542   5.054  0.3979  0.9448 -0.4227
   37CHL1  H26A 3912   1.679   6.478   5.138  0.8010  1.6468  0.3033
   37CHL1  H26B 3913   1.649   6.536   4.964  1.8667  0.7858 -1.5035
   37CHL1  H26C 3914   1.815   6.506   5.024 -0.1198  0.2917 -1.4192
   37CHL1   C27 3915   1.778   6.758   4.954 -0.1361 -0.5305  0.1130
   37CHL1  H27A 3916   1.695   6.763   4.880 -0.6648  1.6047  0.7986
   37CHL1  H27B 3917   1.800   6.865   4.972  2.8509 -0.7964 -1.3163
   37CHL1  H27C 3918   1.865   6.706   4.908 -2.1319 -2.1613 -2.0980
   38CHL1    C3 3919   2.684   5.864   6.474  0.4210 -0.7849  0.7704
   38CHL1    H3 3920   2.753   5.946   6.447  2.0971 -1.8387  1.6860
   38CHL1    O3 3921   2.658   5.872   6.613 -0.3490  0.5113  0.2200
   38CHL1   H3' 3922   2.629   5.784   6.639 -0.2676  0.4205  0.0039
   38CHL1    C4 3923   2.553   5.890   6.400 -0.1227 -0.5978  0.0147
   38CHL1   H4A 3924   2.483   5.818   6.449 -0.3234  0.9016  2.0382
   38CHL1   H4B 3925   2.500   5.983   6.431 -1.2658 -1.5817  1.1401
   38CHL1    C5 3926   2.565   5.881   6.248 -0.3890  0.1422  0.1027
   38CHL1    C6 3927   2.544   5.989   6.167 -0.8432 -0.4080 -0.0416
   38CHL1    H6 3928   2.512   6.082   6.216  0.5947 -0.1407  0.4293
   38CHL1    C7 3929   2.575   5.986   6.019 -0.2468 -0.5956  0.1440
   38CHL1   H7A 3930   2.489   6.030   5.964 -0.3813  0.9493  1.4863
   38CHL1   H7B 3931   2.668   6.046   6.004  0.0150 -0.7846  0.9426
   38CHL1    C8 3932   2.606   5.850   5.966 -1.0270 -0.1164 -0.3560
   38CHL1    H8 3933   2.509   5.795   5.965 -0.0184 -2.0041 -1.8696
   38CHL1   C14 3934   2.671   5.853   5.827  0.4685  0.0066 -0.5935
   38CHL1   H14 3935   2.768   5.906   5.832  0.1762  0.4287  1.4356
   38CHL1   C15 3936   2.596   5.931   5.723  0.8470 -0.3977  0.4892
   38CHL1  H15A 3937   2.487   5.924   5.741  0.2369  1.7175 -1.7958
   38CHL1  H15B 3938   2.623   6.038   5.735  0.7948 -0.4742  1.3421
   38CHL1   C16 3939   2.626   5.871   5.585 -0.2050  0.0688  0.6068
   38CHL1  H16A 3940   2.539   5.813   5.548 -0.4136 -0.3879  1.7693
   38CHL1  H16B 3941   2.658   5.943   5.506 -1.4413 -0.5036 -0.4483
   38CHL1   C17 3942   2.734   5.763   5.616 -0.4628 -0.7429  0.4614
   38CHL1   H17 3943   2.836   5.807   5.607 -0.7375 -0.1672  0.0746
   38CHL1   C13 3944   2.699   5.719   5.765  0.1432 -0.5041 -0.1048
   38CHL1   C18 3945   2.575   5.627   5.767 -0.0780  0.2456  0.4979
   38CHL1  H18A 3946   2.590   5.538   5.702 -2.0970  0.8526 -0.9068
   38CHL1  H18B 3947   2.555   5.597   5.872 -1.6434  0.6911  0.3605
   38CHL1  H18C 3948   2.495   5.687   5.719  1.9583 -0.0305 -3.7763
   38CHL1   C12 3949   2.817   5.669   5.843 -0.4755 -0.8318  0.0475
   38CHL1  H12A 3950   2.870   5.577   5.809  0.5113  0.1958 -1.2780
   38CHL1  H12B 3951   2.900   5.742   5.836  0.4547 -1.8884 -0.3173
   38CHL1   C11 3952   2.784   5.648   5.993  0.6119 -0.1901 -0.0323
   38CHL1  H11A 3953   2.708   5.568   6.003  0.3853 -0.0156 -0.3283
   38CHL1  H11B 3954   2.876   5.629   6.053 -0.5352 -0.2098  1.7991
   38CHL1    C9 3955   2.709   5.776   6.061 -0.0728  0.6590  0.4181
   38CHL1    H9 3956   2.790   5.851   6.066  0.1473  0.5614 -1.1406
   38CHL1   C10 3957   2.644   5.759   6.199  0.7745  0.2280  0.1309
   38CHL1   C19 3958   2.541   5.643   6.194 -0.4103  0.0306  0.0054
   38CHL1  H19A 3959   2.456   5.653   6.123 -2.0083  2.3572  2.0645
   38CHL1  H19B 3960   2.589   5.547   6.167 -0.4383 -0.1179  0.4650
   38CHL1  H19C 3961   2.506   5.620   6.297  0.2865 -1.7430 -0.1262
   38CHL1    C1 3962   2.763   5.720   6.289 -0.5518  0.3640 -0.2039
   38CHL1   H1A 3963   2.800   5.622   6.253  2.2080  1.4913 -0.6652
   38CHL1   H1B 3964   2.845   5.792   6.269 -0.8810 -0.0065 -3.2267
   38CHL1    C2 3965   2.730   5.723   6.439 -0.0090  0.3333 -0.2109
   38CHL1   H2A 3966   2.824   5.695   6.491 -1.7874 -2.7218  1.6608
   38CHL1   H2B 3967   2.662   5.642   6.473  0.6494 -1.3742 -2.7671
   38CHL1   C20 3968   2.733   5.654   5.506 -0.2010  0.5779  0.0629
   38CHL1   H20 3969   2.639   5.596   5.504  1.1722 -1.8271  1.4697
   38CHL1   C21 3970   2.855   5.560   5.532  0.6243 -0.2186  0.0088
   38CHL1  H21A 3971   2.848   5.499   5.624 -0.0959  1.8506  1.3880
   38CHL1  H21B 3972   2.945   5.625   5.541  2.5309 -2.6475 -0.4935
   38CHL1  H21C 3973   2.861   5.484   5.451  0.1935 -2.1654  1.7104
   38CHL1   C22 3974   2.747   5.713   5.359  0.4302  0.1101 -0.1648
   38CHL1  H22A 3975   2.659   5.779   5.341  1.6959  2.0401  0.5831
   38CHL1  H22B 3976   2.843   5.767   5.348  0.6863 -0.4256 -0.6355
   38CHL1   C23 3977   2.716   5.607   5.254  0.4326  0.6818 -0.3717
   38CHL1  H23A 3978   2.795   5.530   5.267 -0.7335 -0.4031  0.5944
   38CHL1  H23B 3979   2.617   5.559   5.270  1.2482 -0.9804 -0.0195
   38CHL1   C24 3980   2.729   5.656   5.107 -0.0643  0.4158 -0.1121
   38CHL1  H24A 3981   2.697   5.577   5.035 -0.4068  0.7057 -0.2811
   38CHL1  H24B 3982   2.667   5.746   5.088 -0.0141  0.4097 -0.3105
   38CHL1   C25 3983   2.869   5.707   5.072  0.2543 -0.0060  0.2553
   38CHL1   H25 3984   2.913   5.763   5.158  0.0786  0.0774  0.2921
   38CHL1   C26 3985   2.957   5.586   5.036 -0.0524 -0.0960 -0.8303
   38CHL1  H26A 3986   2.963   5.526   5.129 -0.4054 -0.3497 -0.9661
   38CHL1  H26B 3987   2.905   5.537   4.950  0.1210  0.2900 -1.1583
   38CHL1  H26C 3988   3.058   5.613   4.998 -1.0488  1.8485 -2.2807
   38CHL1   C27 3989   2.887   5.802   4.949  0.6031  0.4566  0.5012
   38CHL1  H27A 3990   2.840   5.765   4.856  1.3028  1.3125 -0.2092
   38CHL1  H27B 3991   2.813   5.884   4.964 -1.1222  0.1201 -4.4286
   38CHL1  H27C 3992   2.991   5.835   4.928  1.2928 -2.6233 -1.5286
   39CHL1    C3 3993   2.743   6.264   6.518  0.0698 -0.1770  0.0305
   39CHL1    H3 3994   2.672   6.203   6.459 -0.2488 -2.0803  2.2357
   39CHL1    O3 3995   2.710   6.255   6.658  0.2586 -0.5966  0.0401
   39CHL1   H3' 3996   2.615   6.267   6.651 -0.1563 -3.2277  0.3688
   39CHL1    C4 3997   2.890   6.219   6.491  0.5802  0.5290  0.4803
   39CHL1   H4A 3998   2.959   6.289   6.543  2.2917  2.7067 -4.2341
   39CHL1   H4B 3999   2.915   6.116   6.527  2.4118  1.6831  2.7887
   39CHL1    C5 4000   2.910   6.246   6.346 -0.7674 -0.4718 -0.2654
   39CHL1    C6 4001   2.950   6.140   6.273  0.0453  0.4245 -0.3350
   39CHL1    H6 4002   2.978   6.049   6.328 -0.1277 -1.0654 -2.5658
   39CHL1    C7 4003   2.967   6.150   6.123  0.2563 -0.2619  0.0550
   39CHL1   H7A 4004   3.042   6.077   6.087 -0.4734 -1.0526  0.0869
   39CHL1   H7B 4005   2.871   6.130   6.070 -0.9090  3.8089  0.2826
   39CHL1    C8 4006   2.997   6.288   6.067  0.5969 -0.0331 -0.4228
   39CHL1    H8 4007   3.101   6.322   6.085 -0.1795  2.5691 -0.3245
   39CHL1   C14 4008   2.967   6.286   5.917  0.3783 -0.4200 -0.2004
   39CHL1   H14 4009   2.860   6.256   5.910  0.3975 -0.2945 -1.0750
   39CHL1   C15 4010   3.046   6.180   5.836  0.0059  0.4670 -0.5351
   39CHL1  H15A 4011   3.146   6.163   5.881 -0.8057 -0.3367  1.0603
   39CHL1  H15B 4012   2.982   6.090   5.847  0.5774  0.2980  1.9387
   39CHL1   C16 4013   3.044   6.247   5.697 -0.5405  0.8232  0.2425
   39CHL1  H16A 4014   3.152   6.269   5.682 -0.5143 -0.1439 -1.2212
   39CHL1  H16B 4015   3.014   6.168   5.625  1.3395  2.3363 -2.3468
   39CHL1   C17 4016   2.960   6.376   5.702  0.3648  0.2179 -0.5130
   39CHL1   H17 4017   2.853   6.348   5.692  0.7498 -1.2448 -0.8884
   39CHL1   C13 4018   2.983   6.419   5.853  0.0055 -0.0905 -0.0577
   39CHL1   C18 4019   3.131   6.461   5.864  0.5358  0.3081  0.1222
   39CHL1  H18A 4020   3.196   6.371   5.863 -0.6462 -0.5672 -0.8736
   39CHL1  H18B 4021   3.163   6.532   5.785  0.1183 -2.4181 -2.6762
   39CHL1  H18C 4022   3.155   6.507   5.963 -0.5985  0.1006  0.5020
   39CHL1   C12 4023   2.883   6.519   5.917  0.3709  0.5722  0.1993
   39CHL1  H12A 4024   2.902   6.619   5.873 -2.5284  0.6310 -1.1552
   39CHL1  H12B 4025   2.777   6.495   5.897  0.3329 -1.2290  2.1602
   39CHL1   C11 4026   2.904   6.525   6.071 -0.4437  0.2392  0.1797
   39CHL1  H11A 4027   3.007   6.561   6.096 -0.5910  0.5284  0.3753
   39CHL1  H11B 4028   2.835   6.600   6.114 -0.9285  0.1395 -0.4044
   39CHL1    C9 4029   2.892   6.383   6.134 -0.9773  0.2865 -0.4449
   39CHL1    H9 4030   2.792   6.348   6.100  0.8677 -3.9943 -2.1860
   39CHL1   C10 4031   2.877   6.388   6.287 -0.4758  0.1382 -0.7516
   39CHL1   C19 4032   2.983   6.488   6.349  0.3860  0.4816  0.1749
   39CHL1  H19A 4033   3.084   6.450   6.323  0.2069 -1.0378  1.5668
   39CHL1  H19B 4034   2.972   6.594   6.316 -0.6415 -0.1414 -1.6810
   39CHL1  H19C 4035   2.967   6.489   6.459  1.0165  1.2165  0.2681
   39CHL1    C1 4036   2.735   6.436   6.327 -0.4856  0.2793 -0.2766
   39CHL1   H1A 4037   2.701   6.535   6.290 -1.0590 -0.1087 -0.8007
   39CHL1   H1B 4038   2.664   6.367   6.277  3.3799 -3.3473 -1.2810
   39CHL1    C2 4039   2.715   6.410   6.479  1.1403  0.5039  0.2529
   39CHL1   H2A 4040   2.610   6.436   6.502  0.9652 -1.8495  2.6412
   39CHL1   H2B 4041   2.790   6.471   6.533  0.1500 -1.1294  3.7528
   39CHL1   C20 4042   2.989   6.481   5.599 -0.1434  0.5040  0.1640
   39CHL1   H20 4043   3.088   6.531   5.594  0.7520 -1.3056 -1.2984
   39CHL1   C21 4044   2.874   6.593   5.613 -0.6668  0.5977 -0.9279
   39CHL1  H21A 4045   2.915   6.663   5.689 -0.1603 -2.0142  1.3591
   39CHL1  H21B 4046   2.784   6.551   5.663 -0.1129 -0.6829 -0.9662
   39CHL1  H21C 4047   2.849   6.640   5.515 -1.3149  0.9891 -0.5850
   39CHL1   C22 4048   2.984   6.415   5.460  0.7293 -0.0191  0.2961
   39CHL1  H22A 4049   2.995   6.499   5.389 -2.5625  0.5760  0.3019
   39CHL1  H22B 4050   3.071   6.347   5.452  0.4198 -0.9266  3.3711
   39CHL1   C23 4051   2.859   6.330   5.433  0.1126 -0.2112  0.3523
   39CHL1  H23A 4052   2.862   6.242   5.501  1.3875 -0.7921 -0.4171
   39CHL1  H23B 4053   2.777   6.397   5.468 -0.9083 -1.4985  0.5324
   39CHL1   C24 4054   2.848   6.271   5.292 -0.1794 -0.8236  0.0568
   39CHL1  H24A 4055   2.842   6.355   5.220  2.2490  0.4462  1.2061
   39CHL1  H24B 4056   2.942   6.217   5.268  0.7020  0.9951 -0.7304
   39CHL1   C25 4057   2.723   6.189   5.253 -0.2852  0.3298  0.8768
   39CHL1   H25 4058   2.714   6.095   5.311 -0.9803  0.3499  0.8037
   39CHL1   C26 4059   2.580   6.253   5.289  0.3883  0.0054  0.1669
   39CHL1  H26A 4060   2.494   6.184   5.280 -0.9530  1.1886  2.7401
   39CHL1  H26B 4061   2.575   6.308   5.385 -0.2366 -0.0889  0.1883
   39CHL1  H26C 4062   2.566   6.329   5.210  0.4375  1.3998  1.4595
   39CHL1   C27 4063   2.737   6.144   5.105 -0.0161  0.3009  0.1189
   39CHL1  H27A 4064   2.738   6.225   5.029 -1.2696  0.9565  0.7840
   39CHL1  H27B 4065   2.826   6.077   5.098  0.6679  1.0968  0.8968
   39CHL1  H27C 4066   2.643   6.091   5.082  1.2795 -1.2076 -2.0979
   40CHL1    C3 4067   3.054   2.823   6.285  0.2518 -0.7021 -0.0942
   40CHL1    H3 4068   2.964   2.882   6.260 -1.2315 -1.8355  2.2599
   40CHL1    O3 4069   3.075   2.822   6.423 -0.1326  0.3143 -0.6301
   40CHL1   H3' 4070   3.105   2.733   6.445  1.2148  1.1591  1.2618
   40CHL1    C4 4071   3.034   2.683   6.224 -0.5661  0.0021 -0.5609
   40CHL1   H4A 4072   3.121   2.619   6.244 -0.3229  0.4077 -0.3022
   40CHL1   H4B 4073   2.940   2.650   6.273 -1.0269  0.4527 -1.1229
   40CHL1    C5 4074   3.019   2.692   6.072 -0.2938 -0.3841 -0.7665
   40CHL1    C6 4075   2.911   2.649   6.012  0.6337  0.4986  0.1895
   40CHL1    H6 4076   2.824   2.615   6.071  1.9394 -0.3434  1.6985
   40CHL1    C7 4077   2.891   2.645   5.865 -0.0151  0.0212  0.2497
   40CHL1   H7A 4078   2.857   2.545   5.831  1.0329 -0.2976  0.1041
   40CHL1   H7B 4079   2.826   2.729   5.834  0.1729 -0.7453 -2.4895
   40CHL1    C8 4080   3.014   2.667   5.779  0.2201  0.2935 -0.5137
   40CHL1    H8 4081   3.072   2.572   5.779 -2.0201 -1.1361 -0.0122
   40CHL1   C14 4082   2.975   2.715   5.640 -0.1363  0.6068 -0.1758
   40CHL1   H14 4083   2.915   2.808   5.636  0.6211  1.0675 -1.6249
   40CHL1   C15 4084   2.881   2.623   5.560 -0.0003  1.0544 -0.2690
   40CHL1  H15A 4085   2.915   2.519   5.577  0.6005  0.7834 -2.7939
   40CHL1  H15B 4086   2.774   2.639   5.585  0.3002 -0.2471  2.1226
   40CHL1   C16 4087   2.901   2.675   5.416 -0.1628 -0.0272  0.4347
   40CHL1  H16A 4088   2.923   2.588   5.350  0.3842  0.4335  0.0100
   40CHL1  H16B 4089   2.819   2.731   5.367  1.8332  2.6608 -0.0547
   40CHL1   C17 4090   3.021   2.766   5.411 -0.4651  0.3202  0.8052
   40CHL1   H17 4091   2.990   2.872   5.421 -1.6646 -0.0614  1.3734
   40CHL1   C13 4092   3.092   2.741   5.545  0.2487  0.1775 -0.3368
   40CHL1   C18 4093   3.181   2.612   5.529  0.5228 -0.0888  0.1145
   40CHL1  H18A 4094   3.109   2.534   5.496  0.5334 -0.5701  1.1902
   40CHL1  H18B 4095   3.253   2.642   5.450  0.0466 -0.4449 -0.4673
   40CHL1  H18C 4096   3.239   2.573   5.616  0.0537 -0.0071  0.4673
   40CHL1   C12 4097   3.182   2.854   5.606  0.0473 -0.1103 -0.1379
   40CHL1  H12A 4098   3.274   2.877   5.549 -0.2523  0.7331 -0.2924
   40CHL1  H12B 4099   3.129   2.949   5.584  0.0158 -0.0208  0.3042
   40CHL1   C11 4100   3.213   2.834   5.757 -0.5163 -0.1465  0.0457
   40CHL1  H11A 4101   3.288   2.752   5.745  0.5254  0.3985  2.2306
   40CHL1  H11B 4102   3.260   2.924   5.802  2.1267 -0.9850 -0.8690
   40CHL1    C9 4103   3.098   2.776   5.845 -0.1867  0.5464 -0.1824
   40CHL1    H9 4104   3.024   2.858   5.833  1.2646  1.6135 -2.5915
   40CHL1   C10 4105   3.137   2.752   5.995  0.4093 -0.1702  0.8853
   40CHL1   C19 4106   3.270   2.667   6.006  0.1163 -0.2980 -0.1646
   40CHL1  H19A 4107   3.358   2.716   5.959 -1.1808  0.9621 -1.3919
   40CHL1  H19B 4108   3.298   2.659   6.113  0.8930 -0.7572 -0.3964
   40CHL1  H19C 4109   3.256   2.571   5.952 -1.3914 -0.2159  0.0344
   40CHL1    C1 4110   3.158   2.894   6.058  0.5578  0.1978  0.2032
   40CHL1   H1A 4111   3.241   2.945   6.004 -0.1525  0.5929 -0.5401
   40CHL1   H1B 4112   3.072   2.959   6.033 -0.7825 -1.4035  0.4843
   40CHL1    C2 4113   3.164   2.899   6.214 -0.9393  0.0848 -0.0176
   40CHL1   H2A 4114   3.154   2.997   6.265  0.6976 -1.4368  3.5804
   40CHL1   H2B 4115   3.262   2.856   6.243 -0.0118  2.3686  0.4946
   40CHL1   C20 4116   3.086   2.748   5.270 -0.6653 -0.9012 -1.4178
   40CHL1   H20 4117   3.119   2.642   5.271  0.6640 -0.5093 -0.4899
   40CHL1   C21 4118   3.207   2.847   5.248 -0.1209  0.7973 -0.1325
   40CHL1  H21A 4119   3.289   2.834   5.322  1.4515 -2.6180 -2.2269
   40CHL1  H21B 4120   3.168   2.951   5.252 -0.6828  0.6009 -0.3276
   40CHL1  H21C 4121   3.254   2.834   5.149 -1.1044 -0.4589 -0.4715
   40CHL1   C22 4122   2.979   2.762   5.147  0.0449  0.2933  0.4953
   40CHL1  H22A 4123   2.919   2.669   5.143  2.0339 -1.0746  0.8642
   40CHL1  H22B 4124   2.916   2.851   5.170  0.5996  1.1068 -0.9747
   40CHL1   C23 4125   3.039   2.795   5.011 -0.0496  0.9578 -0.4381
   40CHL1  H23A 4126   3.086   2.896   5.014 -1.5328  1.7048  2.9764
   40CHL1  H23B 4127   3.111   2.714   4.987 -0.9775 -0.8113  2.2720
   40CHL1   C24 4128   2.935   2.808   4.908  0.2803 -0.0206  0.0540
   40CHL1  H24A 4129   2.871   2.717   4.902  1.3003 -1.0599  2.9832
   40CHL1  H24B 4130   2.868   2.885   4.951  2.6373  1.9970  0.2601
   40CHL1   C25 4131   2.987   2.853   4.767 -0.3777 -0.6238  0.1878
   40CHL1   H25 4132   3.014   2.960   4.776  2.2768 -1.2012 -0.1952
   40CHL1   C26 4133   3.124   2.796   4.720  0.8874  0.0544 -0.3766
   40CHL1  H26A 4134   3.217   2.824   4.775  1.1899 -1.1583 -0.2349
   40CHL1  H26B 4135   3.119   2.686   4.710 -0.4284  0.0612  0.0581
   40CHL1  H26C 4136   3.137   2.833   4.616  0.9213  0.9938 -0.0491
   40CHL1   C27 4137   2.868   2.835   4.656  0.2167  0.3748  0.0319
   40CHL1  H27A 4138   2.903   2.868   4.556  1.6713  0.4782  0.5504
   40CHL1  H27B 4139   2.834   2.730   4.655 -2.5725  1.1359  1.6352
   40CHL1  H27C 4140   2.786   2.902   4.691  1.0582  1.1319  0.6297
   41CHL1    C3 4141   5.866   2.643   6.179  1.2035  0.1937  0.5699
   41CHL1    H3 4142   5.871   2.753   6.167  1.1013 -0.0197 -1.9043
   41CHL1    O3 4143   5.833   2.609   6.313  0.4392  0.4052  0.1626
   41CHL1   H3' 4144   5.910   2.626   6.367  0.3285 -0.4669  0.6095
   41CHL1    C4 4145   5.759   2.582   6.088 -0.6584  0.0466  0.3625
   41CHL1   H4A 4146   5.737   2.473   6.094  0.8861 -0.3682 -0.7864
   41CHL1   H4B 4147   5.662   2.632   6.107 -0.2328  0.5274  1.3307
   41CHL1    C5 4148   5.796   2.602   5.942  0.1762  0.6233 -0.3956
   41CHL1    C6 4149   5.710   2.659   5.853 -0.0958 -0.3450 -0.2245
   41CHL1    H6 4150   5.607   2.685   5.882 -0.3052 -2.2630  0.9170
   41CHL1    C7 4151   5.742   2.673   5.707 -0.3384  0.4435 -0.2723
   41CHL1   H7A 4152   5.648   2.655   5.651 -1.3698  0.8986  1.2505
   41CHL1   H7B 4153   5.774   2.778   5.695  1.8802 -0.3903 -2.6265
   41CHL1    C8 4154   5.854   2.581   5.659 -0.0062 -0.1037  0.0007
   41CHL1    H8 4155   5.803   2.483   5.667 -1.6946  0.8002  0.9150
   41CHL1   C14 4156   5.892   2.616   5.513  0.0375  0.3582 -0.5114
   41CHL1   H14 4157   5.931   2.720   5.513  1.8847 -0.1240 -4.9342
   41CHL1   C15 4158   5.784   2.617   5.403  0.6866 -0.6766  0.1138
   41CHL1  H15A 4159   5.697   2.549   5.418 -0.0429 -0.4036 -2.4309
   41CHL1  H15B 4160   5.738   2.718   5.406 -4.5093 -2.6212  4.4946
   41CHL1   C16 4161   5.863   2.601   5.278 -0.1540  0.4466  0.2224
   41CHL1  H16A 4162   5.829   2.502   5.241  0.1134  0.7931 -1.0186
   41CHL1  H16B 4163   5.833   2.680   5.206  0.6730  0.0356 -0.6098
   41CHL1   C17 4164   6.017   2.591   5.312  0.2155  0.1818  0.3102
   41CHL1   H17 4165   6.047   2.697   5.311 -2.5675  1.0693 -1.5719
   41CHL1   C13 4166   6.014   2.539   5.458 -0.5196  0.4797  0.1428
   41CHL1   C18 4167   5.984   2.383   5.453  0.0623  0.6267  0.2684
   41CHL1  H18A 4168   5.900   2.356   5.386  1.0557 -1.2264 -0.3055
   41CHL1  H18B 4169   6.070   2.328   5.409  0.5657  1.3854  0.2720
   41CHL1  H18C 4170   5.964   2.343   5.554 -1.9145 -0.3384 -0.4560
   41CHL1   C12 4171   6.139   2.560   5.546  0.8045 -0.2303 -0.3604
   41CHL1  H12A 4172   6.224   2.499   5.511  0.0507 -1.3896 -0.2083
   41CHL1  H12B 4173   6.164   2.669   5.541  0.9019 -0.1426  1.3727
   41CHL1   C11 4174   6.103   2.526   5.694 -0.2387  0.9035  0.2585
   41CHL1  H11A 4175   6.091   2.415   5.700  0.3991  0.7945 -0.3505
   41CHL1  H11B 4176   6.187   2.554   5.760 -1.3804  3.4213  0.7432
   41CHL1    C9 4177   5.979   2.584   5.758  0.5650  0.2320  0.2462
   41CHL1    H9 4178   5.998   2.693   5.747  0.5300  0.2348  0.2156
   41CHL1   C10 4179   5.938   2.550   5.906 -0.6187 -0.3157  0.7996
   41CHL1   C19 4180   5.943   2.402   5.920  0.2229  1.0745 -0.0796
   41CHL1  H19A 4181   6.047   2.365   5.906 -0.8281 -2.5428  0.6140
   41CHL1  H19B 4182   5.912   2.373   6.022 -1.7130 -1.6660 -1.3263
   41CHL1  H19C 4183   5.874   2.353   5.849  3.1079 -0.1657 -2.2505
   41CHL1    C1 4184   6.052   2.615   5.994  0.0766  0.7213  0.7123
   41CHL1   H1A 4185   6.145   2.555   5.984 -0.2173  0.3504  0.1642
   41CHL1   H1B 4186   6.075   2.721   5.970  2.6585  0.0153 -0.3476
   41CHL1    C2 4187   6.006   2.597   6.148 -0.3031  0.4442  0.4869
   41CHL1   H2A 4188   6.073   2.646   6.223 -2.4849  1.5244  1.8427
   41CHL1   H2B 4189   6.018   2.491   6.181 -0.9014  0.2580  0.1022
   41CHL1   C20 4190   6.096   2.506   5.207  0.6623 -0.0915  0.5379
   41CHL1   H20 4191   6.047   2.407   5.203  0.4286  0.0381  0.0805
   41CHL1   C21 4192   6.246   2.474   5.239  0.4995 -0.0883  0.2710
   41CHL1  H21A 4193   6.288   2.570   5.274 -1.0623  0.6823  0.1207
   41CHL1  H21B 4194   6.292   2.436   5.145 -0.2496  2.1357 -1.0763
   41CHL1  H21C 4195   6.254   2.404   5.325 -0.2935 -0.7025 -0.1390
   41CHL1   C22 4196   6.091   2.569   5.068  0.2282  0.2394  0.6776
   41CHL1  H22A 4197   6.119   2.485   5.001  0.5495  0.5292  0.4392
   41CHL1  H22B 4198   5.994   2.612   5.037  0.2225 -0.0230  0.3322
   41CHL1   C23 4199   6.195   2.680   5.031 -0.2429  0.1042 -0.1280
   41CHL1  H23A 4200   6.194   2.761   5.107  1.8055  1.1563 -1.1490
   41CHL1  H23B 4201   6.300   2.647   5.042  0.2278  1.3117 -0.7259
   41CHL1   C24 4202   6.181   2.747   4.897  0.0664 -0.6066 -0.2587
   41CHL1  H24A 4203   6.182   2.666   4.821  1.2617 -1.6214  0.7738
   41CHL1  H24B 4204   6.082   2.795   4.906 -0.9593 -2.6156 -0.2824
   41CHL1   C25 4205   6.282   2.856   4.867  0.1571 -0.1114  0.4006
   41CHL1   H25 4206   6.286   2.934   4.946 -2.7303  2.7394 -2.0019
   41CHL1   C26 4207   6.416   2.796   4.843 -0.1602 -0.2926 -0.4884
   41CHL1  H26A 4208   6.496   2.869   4.822  0.2810 -0.9056 -0.9577
   41CHL1  H26B 4209   6.460   2.745   4.931 -2.2569 -0.3651  0.6083
   41CHL1  H26C 4210   6.405   2.741   4.747  2.9090  1.3242 -1.9052
   41CHL1   C27 4211   6.244   2.943   4.747 -0.2004 -0.4319  0.6147
   41CHL1  H27A 4212   6.230   2.884   4.654  0.5259 -0.1302  0.3037
   41CHL1  H27B 4213   6.152   3.001   4.772 -0.2859  0.0699 -0.8030
   41CHL1  H27C 4214   6.323   3.020   4.733 -0.1864 -0.6094 -0.3581
   42CHL1    C3 4215   5.193   6.308   6.283  0.1993 -0.0697 -0.4792
   42CHL1    H3 4216   5.109   6.236   6.272 -1.0233  1.5728 -2.5873
   42CHL1    O3 4217   5.182   6.387   6.398 -0.3193 -0.0200  0.4112
   42CHL1   H3' 4218   5.243   6.462   6.394  0.3117 -0.5276  0.2950
   42CHL1    C4 4219   5.327   6.249   6.298 -0.4533  0.0344 -0.1490
   42CHL1   H4A 4220   5.403   6.327   6.319 -1.9682  1.2794  0.9442
   42CHL1   H4B 4221   5.349   6.184   6.385  0.0626 -1.6854 -1.5159
   42CHL1    C5 4222   5.366   6.164   6.175 -0.9966  0.2097  0.5186
   42CHL1    C6 4223   5.405   6.037   6.180  0.3741  0.2005  0.1831
   42CHL1    H6 4224   5.406   5.983   6.276 -0.3364 -0.7339 -0.3234
   42CHL1    C7 4225   5.475   5.976   6.066  0.2013  0.7593 -0.2589
   42CHL1   H7A 4226   5.563   5.927   6.112  0.1000  0.1361 -0.7134
   42CHL1   H7B 4227   5.419   5.888   6.027  2.2514 -1.4551  1.4924
   42CHL1    C8 4228   5.508   6.069   5.944 -1.2229 -0.4678  0.3640
   42CHL1    H8 4229   5.607   6.115   5.962 -1.7623  1.2212 -0.7460
   42CHL1   C14 4230   5.530   5.976   5.818  0.4824  0.1123  0.3215
   42CHL1   H14 4231   5.432   5.928   5.798  0.6361  0.4946 -1.5587
   42CHL1   C15 4232   5.626   5.857   5.818 -0.2758  1.0751  1.1261
   42CHL1  H15A 4233   5.720   5.898   5.861  2.7671 -0.9722 -2.8790
   42CHL1  H15B 4234   5.582   5.773   5.877 -1.1825  0.6519 -0.1200
   42CHL1   C16 4235   5.636   5.833   5.663 -0.5800 -0.0678 -0.0215
   42CHL1  H16A 4236   5.741   5.824   5.630 -0.4987 -0.6515  0.3845
   42CHL1  H16B 4237   5.579   5.746   5.624  0.2401  0.5034 -2.7118
   42CHL1   C17 4238   5.559   5.946   5.592  0.4743 -0.3536 -0.2737
   42CHL1   H17 4239   5.455   5.911   5.575  1.5360 -3.0856 -1.5721
   42CHL1   C13 4240   5.552   6.061   5.690 -0.1901  0.1285  0.0996
   42CHL1   C18 4241   5.693   6.130   5.693  0.4411  0.3472  0.5486
   42CHL1  H18A 4242   5.705   6.196   5.605 -0.9137 -2.1243 -1.6201
   42CHL1  H18B 4243   5.716   6.190   5.784  3.3111 -0.6795  0.6145
   42CHL1  H18C 4244   5.772   6.051   5.698  0.1901  0.1548  1.9950
   42CHL1   C12 4245   5.442   6.166   5.665 -0.3716  0.3555 -0.1381
   42CHL1  H12A 4246   5.465   6.244   5.590  1.1171  1.2792  1.2190
   42CHL1  H12B 4247   5.344   6.117   5.642 -0.3984 -2.6776  4.9029
   42CHL1   C11 4248   5.418   6.257   5.791 -0.6378  0.3610 -0.3929
   42CHL1  H11A 4249   5.502   6.330   5.796 -0.0084 -0.4284  0.9981
   42CHL1  H11B 4250   5.334   6.324   5.762 -0.9768  0.0775 -0.0664
   42CHL1    C9 4251   5.400   6.175   5.915 -0.2206  0.2551 -0.3829
   42CHL1    H9 4252   5.306   6.117   5.900  0.2172 -0.2019 -1.4341
   42CHL1   C10 4253   5.363   6.253   6.040  0.3512 -0.0623 -0.3736
   42CHL1   C19 4254   5.467   6.371   6.044  0.3535 -0.7776 -0.3996
   42CHL1  H19A 4255   5.464   6.427   6.141 -1.1635  0.0565 -0.8942
   42CHL1  H19B 4256   5.570   6.334   6.030  0.0377 -1.8499  0.0261
   42CHL1  H19C 4257   5.451   6.446   5.964  0.2098  1.4013  1.5377
   42CHL1    C1 4258   5.218   6.317   6.038 -1.0562  0.0200  0.1016
   42CHL1   H1A 4259   5.212   6.394   5.957 -0.8150  0.3921  0.4355
   42CHL1   H1B 4260   5.137   6.243   6.020  0.8301 -1.9656 -0.5638
   42CHL1    C2 4261   5.178   6.397   6.161  0.5389 -0.0063 -0.3889
   42CHL1   H2A 4262   5.074   6.431   6.143 -0.2291 -1.9496  0.0862
   42CHL1   H2B 4263   5.242   6.487   6.173 -0.9824  1.1449 -0.6686
   42CHL1   C20 4264   5.599   5.973   5.446  0.5240 -0.4465 -0.5035
   42CHL1   H20 4265   5.710   5.974   5.441  0.5462  1.6468 -0.2597
   42CHL1   C21 4266   5.557   6.108   5.385  0.0915  0.0916  0.3136
   42CHL1  H21A 4267   5.587   6.099   5.278  0.6897 -0.4109  0.5168
   42CHL1  H21B 4268   5.598   6.201   5.428  0.1696 -0.5755  1.7453
   42CHL1  H21C 4269   5.447   6.120   5.398 -0.1296 -2.3609  1.2277
   42CHL1   C22 4270   5.562   5.856   5.352  0.0324 -0.1702  0.4228
   42CHL1  H22A 4271   5.583   5.759   5.402  1.3424 -0.4451 -0.5860
   42CHL1  H22B 4272   5.451   5.847   5.345 -0.1048  0.0247  1.9565
   42CHL1   C23 4273   5.625   5.859   5.218 -0.1639  0.6716  0.1892
   42CHL1  H23A 4274   5.584   5.935   5.148 -1.0028  0.1690  0.1237
   42CHL1  H23B 4275   5.735   5.870   5.214  0.1646 -1.7842  0.6444
   42CHL1   C24 4276   5.604   5.731   5.139 -0.7286 -0.4081  0.5351
   42CHL1  H24A 4277   5.679   5.652   5.157 -0.2497 -0.6283 -2.0860
   42CHL1  H24B 4278   5.504   5.697   5.173  0.7991 -2.2414  3.6517
   42CHL1   C25 4279   5.592   5.749   4.984 -0.8873  0.2225  0.6664
   42CHL1   H25 4280   5.683   5.805   4.954  0.9051 -2.9176 -0.2105
   42CHL1   C26 4281   5.598   5.609   4.903  0.2253  0.3781 -0.4554
   42CHL1  H26A 4282   5.692   5.555   4.929  1.1080  1.8692 -0.4328
   42CHL1  H26B 4283   5.509   5.546   4.925 -0.2351  1.4027  0.7006
   42CHL1  H26C 4284   5.593   5.635   4.795  0.4781  2.0730 -0.0807
   42CHL1   C27 4285   5.467   5.815   4.938 -0.2048 -0.2232  0.0575
   42CHL1  H27A 4286   5.381   5.745   4.946  0.9832 -1.5922  1.6735
   42CHL1  H27B 4287   5.432   5.904   4.995 -0.7749 -2.2501  3.1240
   42CHL1  H27C 4288   5.482   5.844   4.832 -0.2973  0.8212  0.3181
   43CHL1    C3 4289   6.480   0.543   6.600  0.0271 -0.3104  0.8536
   43CHL1    H3 4290   6.516   0.647   6.607 -1.8632  0.3617  1.3788
   43CHL1    O3 4291   6.439   0.505   6.732 -0.1119  0.6352 -0.1450
   43CHL1   H3' 4292   6.419   0.412   6.721  1.2250  0.5409 -2.3041
   43CHL1    C4 4293   6.372   0.527   6.489  0.0817  0.3353 -0.3767
   43CHL1   H4A 4294   6.348   0.418   6.491  0.9073  0.1594  0.5772
   43CHL1   H4B 4295   6.284   0.585   6.523 -0.9688 -0.9258 -0.8861
   43CHL1    C5 4296   6.433   0.578   6.359 -0.1807  0.6861 -0.4553
   43CHL1    C6 4297   6.389   0.681   6.284 -0.4078 -0.3358  0.1392
   43CHL1    H6 4298   6.296   0.733   6.309  0.3138  0.1786  1.9087
   43CHL1    C7 4299   6.457   0.721   6.155  0.2042 -0.2706 -0.8549
   43CHL1   H7A 4300   6.377   0.745   6.082  0.5053  0.8802 -0.8186
   43CHL1   H7B 4301   6.527   0.804   6.177 -0.4756 -0.3045  1.6754
   43CHL1    C8 4302   6.544   0.606   6.096 -0.9826 -0.2765 -0.2933
   43CHL1    H8 4303   6.483   0.520   6.063  1.6113 -2.8408  1.1712
   43CHL1   C14 4304   6.633   0.661   5.985 -0.3112  0.5959  0.5255
   43CHL1   H14 4305   6.702   0.740   6.023 -0.2981  1.8406 -1.8345
   43CHL1   C15 4306   6.554   0.736   5.873 -0.1949 -0.6183  0.1478
   43CHL1  H15A 4307   6.458   0.682   5.855  0.1420 -1.0726 -0.3014
   43CHL1  H15B 4308   6.520   0.840   5.891 -1.5408 -0.9633 -0.2881
   43CHL1   C16 4309   6.649   0.738   5.750 -0.7760 -0.0530 -0.0763
   43CHL1  H16A 4310   6.600   0.695   5.660 -1.0000  1.2053 -0.5686
   43CHL1  H16B 4311   6.684   0.841   5.729  0.0404 -0.3305 -0.1442
   43CHL1   C17 4312   6.775   0.646   5.796 -0.0315 -0.6198  0.0483
   43CHL1   H17 4313   6.840   0.719   5.847 -0.7672 -1.6766  2.6502
   43CHL1   C13 4314   6.721   0.556   5.917  0.5289 -0.9045  0.0820
   43CHL1   C18 4315   6.634   0.437   5.862 -0.4476  0.4124  0.3862
   43CHL1  H18A 4316   6.544   0.470   5.808  0.6227  3.2961  0.2023
   43CHL1  H18B 4317   6.693   0.378   5.788 -0.8734 -0.2425  0.5645
   43CHL1  H18C 4318   6.613   0.375   5.952  0.1559 -1.1450 -0.4925
   43CHL1   C12 4319   6.815   0.507   6.022 -0.9774 -0.1370  0.5077
   43CHL1  H12A 4320   6.870   0.415   5.992 -0.1988  0.3437  0.4344
   43CHL1  H12B 4321   6.889   0.586   6.044  0.1167 -0.5119 -1.5925
   43CHL1   C11 4322   6.759   0.469   6.155  0.5496  0.2779 -0.4926
   43CHL1  H11A 4323   6.717   0.369   6.131 -3.4329  1.4582  0.7063
   43CHL1  H11B 4324   6.842   0.455   6.227  0.5750  1.8318 -0.1732
   43CHL1    C9 4325   6.645   0.563   6.209  0.5488  0.5424  0.2124
   43CHL1    H9 4326   6.698   0.654   6.244 -2.4025  2.2074  0.6308
   43CHL1   C10 4327   6.565   0.504   6.328 -0.3250 -0.5561  0.7399
   43CHL1   C19 4328   6.525   0.358   6.280 -0.3426 -1.0002  0.0113
   43CHL1  H19A 4329   6.612   0.289   6.279  0.4763 -0.0596 -2.3821
   43CHL1  H19B 4330   6.443   0.311   6.337 -1.2403  0.8643  0.3496
   43CHL1  H19C 4331   6.487   0.351   6.175 -2.5396  0.6742  0.6166
   43CHL1    C1 4332   6.668   0.495   6.442  0.1319  0.8555 -0.6447
   43CHL1   H1A 4333   6.744   0.421   6.409 -0.9006 -0.1551 -0.7769
   43CHL1   H1B 4334   6.706   0.598   6.461 -0.1003  1.1411 -1.6241
   43CHL1    C2 4335   6.601   0.449   6.571 -0.6464  0.0577 -0.1972
   43CHL1   H2A 4336   6.670   0.454   6.658 -1.5477  1.1483  0.4909
   43CHL1   H2B 4337   6.563   0.346   6.556 -1.8394  0.2251  1.3367
   43CHL1   C20 4338   6.855   0.578   5.683  0.0051  0.3314 -0.3277
   43CHL1   H20 4339   6.801   0.493   5.636 -0.4130 -0.0092  0.7361
   43CHL1   C21 4340   6.984   0.523   5.747 -0.2907  0.6643 -0.0140
   43CHL1  H21A 4341   7.051   0.489   5.666  0.0245  1.2627 -0.0097
   43CHL1  H21B 4342   6.976   0.435   5.815  3.8199  0.9895  1.1584
   43CHL1  H21C 4343   7.038   0.605   5.798  1.2141 -1.8744  2.7984
   43CHL1   C22 4344   6.893   0.678   5.572 -0.2616  0.3980 -0.3221
   43CHL1  H22A 4345   6.809   0.747   5.549 -0.4885  0.4959  0.7142
   43CHL1  H22B 4346   6.969   0.741   5.623 -1.4907  0.2909  1.7738
   43CHL1   C23 4347   6.931   0.606   5.438  0.4858  0.2056 -0.1872
   43CHL1  H23A 4348   7.010   0.530   5.457  1.0399  0.5638 -0.9555
   43CHL1  H23B 4349   6.845   0.557   5.388  0.2302  1.7087 -1.3011
   43CHL1   C24 4350   7.000   0.705   5.337 -0.4630 -0.6082 -0.4131
   43CHL1  H24A 4351   6.927   0.788   5.324 -2.0757 -2.0526 -0.9093
   43CHL1  H24B 4352   7.079   0.752   5.399  0.4357 -0.0111 -1.9519
   43CHL1   C25 4353   7.058   0.645   5.214 -0.1643  0.3048  0.8514
   43CHL1   H25 4354   7.124   0.559   5.238  1.0906  0.8242 -0.6202
   43CHL1   C26 4355   6.955   0.594   5.111  0.6246 -0.1685  0.6474
   43CHL1  H26A 4356   7.018   0.541   5.037  0.9100 -0.2933  0.9730
   43CHL1  H26B 4357   6.882   0.531   5.166 -0.3908  0.2777 -0.1650
   43CHL1  H26C 4358   6.906   0.681   5.062  1.6487 -0.9275 -1.8989
   43CHL1   C27 4359   7.138   0.761   5.158  0.2283 -1.1126 -0.1871
   43CHL1  H27A 4360   7.178   0.720   5.063  0.1091 -1.6345 -0.0138
   43CHL1  H27B 4361   7.072   0.849   5.146 -0.8699 -1.2232  3.6691
   43CHL1  H27C 4362   7.219   0.779   5.232 -1.3217 -1.4731  1.6708
   44CHL1    C3 4363   6.541   3.075   6.562 -0.1696  0.7513 -0.1923
   44CHL1    H3 4364   6.436   3.044   6.548  0.0923 -0.3674  0.2297
   44CHL1    O3 4365   6.556   3.062   6.705  0.0729 -0.2086 -0.6026
   44CHL1   H3' 4366   6.651   3.069   6.715  0.1725 -1.8291  0.0218
   44CHL1    C4 4367   6.636   2.966   6.495 -0.2520 -0.3218  0.0445
   44CHL1   H4A 4368   6.742   2.974   6.526 -0.3219  0.2818  0.1387
   44CHL1   H4B 4369   6.609   2.860   6.509  0.6476 -0.2688  2.6295
   44CHL1    C5 4370   6.635   2.994   6.342  0.5407 -0.1933 -0.9080
   44CHL1    C6 4371   6.609   2.897   6.254 -0.4721 -0.4615  0.0304
   44CHL1    H6 4372   6.572   2.803   6.297  0.3577  0.1774  2.2804
   44CHL1    C7 4373   6.622   2.915   6.103 -0.2245  0.3812  0.3697
   44CHL1   H7A 4374   6.692   2.847   6.050  0.1023  1.5487 -0.7415
   44CHL1   H7B 4375   6.524   2.912   6.051  0.4769  0.1709 -0.9667
   44CHL1    C8 4376   6.693   3.047   6.069  0.3806  0.4191  1.4939
   44CHL1    H8 4377   6.800   3.045   6.100  1.1176  0.3262 -0.8532
   44CHL1   C14 4378   6.684   3.076   5.921 -0.7441 -0.3962  0.0990
   44CHL1   H14 4379   6.577   3.099   5.899 -0.0539  0.2227 -3.0421
   44CHL1   C15 4380   6.720   2.970   5.815  0.0057 -0.1632  0.0573
   44CHL1  H15A 4381   6.806   2.902   5.835  0.0960  0.3545  1.5651
   44CHL1  H15B 4382   6.644   2.897   5.781 -0.4294  0.6441 -0.7523
   44CHL1   C16 4383   6.752   3.046   5.680 -0.2937 -0.2082  0.0787
   44CHL1  H16A 4384   6.858   3.029   5.650  0.2698 -0.9666  2.3240
   44CHL1  H16B 4385   6.675   3.019   5.604  0.1341 -0.7552 -0.1699
   44CHL1   C17 4386   6.732   3.201   5.718  0.6129 -0.0876  0.1265
   44CHL1   H17 4387   6.624   3.226   5.706  0.5837  0.7538  1.8414
   44CHL1   C13 4388   6.749   3.204   5.871 -0.3948 -0.2438 -0.2287
   44CHL1   C18 4389   6.905   3.207   5.897  0.1521 -0.3256  0.0324
   44CHL1  H18A 4390   6.966   3.286   5.849  2.1397 -1.0925  1.1924
   44CHL1  H18B 4391   6.939   3.220   6.002  2.1512  0.0332 -0.6285
   44CHL1  H18C 4392   6.943   3.111   5.857 -0.3582  0.1718 -1.7299
   44CHL1   C12 4393   6.684   3.321   5.942  0.4877 -0.1443 -0.1125
   44CHL1  H12A 4394   6.743   3.413   5.924  0.6551 -0.3261 -0.5118
   44CHL1  H12B 4395   6.576   3.322   5.916  0.4105 -2.1196 -0.0374
   44CHL1   C11 4396   6.685   3.302   6.090 -0.1734 -0.0467 -0.9471
   44CHL1  H11A 4397   6.789   3.321   6.125  0.0175  0.3248 -1.7084
   44CHL1  H11B 4398   6.623   3.382   6.136 -1.0588 -0.6551 -1.0544
   44CHL1    C9 4399   6.636   3.163   6.143  0.4875  0.5368 -0.2446
   44CHL1    H9 4400   6.527   3.161   6.118  0.6007 -0.2562 -0.7060
   44CHL1   C10 4401   6.663   3.141   6.294 -0.1163 -0.2510  0.4106
   44CHL1   C19 4402   6.814   3.169   6.333 -0.2040  0.1260  0.2054
   44CHL1  H19A 4403   6.835   3.278   6.326  1.1642 -0.0538  1.0488
   44CHL1  H19B 4404   6.836   3.149   6.440  3.5699  0.0309 -0.4337
   44CHL1  H19C 4405   6.900   3.119   6.283  0.4815 -0.4878  1.9406
   44CHL1    C1 4406   6.567   3.237   6.368 -0.1746 -0.5811  0.3632
   44CHL1   H1A 4407   6.602   3.339   6.342  0.1935 -0.7515  0.1886
   44CHL1   H1B 4408   6.464   3.226   6.328 -0.7088 -0.9922  1.7831
   44CHL1    C2 4409   6.581   3.222   6.520  0.9746 -0.1197  0.0331
   44CHL1   H2A 4410   6.514   3.298   6.564 -1.2983 -0.6337 -2.3166
   44CHL1   H2B 4411   6.682   3.252   6.558  0.0780  0.5474  2.0259
   44CHL1   C20 4412   6.819   3.290   5.624 -0.0102  0.7728 -0.2114
   44CHL1   H20 4413   6.927   3.273   5.646  0.4678  1.1644 -2.1252
   44CHL1   C21 4414   6.778   3.438   5.639  0.4965  0.4751  0.0391
   44CHL1  H21A 4415   6.860   3.497   5.595 -0.2732  1.3976 -0.1926
   44CHL1  H21B 4416   6.771   3.470   5.745  0.0251 -0.3156  0.2596
   44CHL1  H21C 4417   6.679   3.463   5.596 -0.1050 -3.0344 -0.9571
   44CHL1   C22 4418   6.805   3.255   5.473  0.0501  0.3031  0.3380
   44CHL1  H22A 4419   6.821   3.150   5.438  1.6173  0.9668 -1.1106
   44CHL1  H22B 4420   6.703   3.278   5.435 -0.1738 -0.4143  0.4942
   44CHL1   C23 4421   6.892   3.339   5.372 -0.7790  0.0501 -0.1526
   44CHL1  H23A 4422   6.866   3.446   5.384  2.1127  0.9270 -1.0633
   44CHL1  H23B 4423   7.000   3.340   5.397 -0.7378  0.4987 -0.3458
   44CHL1   C24 4424   6.879   3.301   5.223  0.3054 -0.2385  0.2188
   44CHL1  H24A 4425   6.884   3.191   5.208 -0.4941 -0.6563  2.6244
   44CHL1  H24B 4426   6.775   3.335   5.203  0.4170  0.2921  0.5234
   44CHL1   C25 4427   6.978   3.367   5.129  0.4631  0.6013 -0.6383
   44CHL1   H25 4428   7.072   3.350   5.185 -0.7844  1.8030  1.9588
   44CHL1   C26 4429   6.994   3.289   4.998  0.4049  0.1175 -0.5135
   44CHL1  H26A 4430   7.001   3.180   5.021 -0.2056 -0.3258 -2.2922
   44CHL1  H26B 4431   6.913   3.307   4.925  2.0451 -0.6255 -2.6346
   44CHL1  H26C 4432   7.082   3.333   4.947 -1.1015  1.8527 -1.7276
   44CHL1   C27 4433   6.967   3.516   5.117 -0.1190  0.4437  0.2897
   44CHL1  H27A 4434   6.907   3.561   5.199 -1.8532 -1.3073  0.0648
   44CHL1  H27B 4435   7.066   3.567   5.115  0.4711 -0.5496  2.0589
   44CHL1  H27C 4436   6.903   3.538   5.029  2.2011 -0.7129 -1.8090
   45CHL1    C3 4437   0.986   3.843   6.518 -0.5603 -0.0347 -0.3668
   45CHL1    H3 4438   1.093   3.816   6.522 -0.5789 -0.0350  0.2750
   45CHL1    O3 4439   0.937   3.842   6.651  0.2045 -0.0393  0.3006
   45CHL1   H3' 4440   0.843   3.839   6.633  0.3078  0.4588 -0.3831
   45CHL1    C4 4441   0.969   3.983   6.456  0.3929  0.4458 -0.1818
   45CHL1   H4A 4442   0.862   4.011   6.464  0.0997  0.0855 -2.4068
   45CHL1   H4B 4443   1.029   4.056   6.515  4.0892 -1.1249 -1.6750
   45CHL1    C5 4444   1.004   3.975   6.307 -0.5519  0.7096  0.0550
   45CHL1    C6 4445   1.089   4.066   6.261 -0.4799 -0.4967 -0.7227
   45CHL1    H6 4446   1.136   4.137   6.331 -1.3132 -0.9311  0.3034
   45CHL1    C7 4447   1.127   4.080   6.118 -0.2819  0.2081 -0.0986
   45CHL1   H7A 4448   1.125   4.188   6.093 -1.1376  0.1061 -0.5438
   45CHL1   H7B 4449   1.222   4.032   6.087 -0.2778  1.8739 -2.9667
   45CHL1    C8 4450   1.026   3.999   6.026 -0.1127 -0.1597  0.1508
   45CHL1    H8 4451   0.938   4.066   6.017 -0.1258 -0.3282 -1.3767
   45CHL1   C14 4452   1.082   3.977   5.890 -0.3131  0.1340 -0.6835
   45CHL1   H14 4453   1.171   3.912   5.901 -1.4008 -1.1666  0.9841
   45CHL1   C15 4454   1.120   4.102   5.811 -0.2693  0.2628 -0.5147
   45CHL1  H15A 4455   1.027   4.163   5.811 -0.1208  0.4912 -0.2461
   45CHL1  H15B 4456   1.208   4.154   5.855 -0.4703 -0.5133  0.8507
   45CHL1   C16 4457   1.126   4.054   5.666 -0.2289  0.2088 -0.0782
   45CHL1  H16A 4458   1.074   4.130   5.604 -0.3671 -0.7381 -1.1420
   45CHL1  H16B 4459   1.229   4.040   5.628  0.4815  0.7475  1.5231
   45CHL1   C17 4460   1.055   3.911   5.661 -0.3148 -0.2338  0.1458
   45CHL1   H17 4461   1.150   3.855   5.671  1.1409  2.3512  1.8779
   45CHL1   C13 4462   0.981   3.899   5.799  0.4505 -0.3778  1.2760
   45CHL1   C18 4463   0.838   3.960   5.789  0.3678 -0.7872  0.4755
   45CHL1  H18A 4464   0.783   3.988   5.881  2.0536  1.9992  0.7542
   45CHL1  H18B 4465   0.848   4.047   5.721 -0.4292  2.4250  4.1499
   45CHL1  H18C 4466   0.770   3.900   5.724 -0.7800  1.0996 -0.1424
   45CHL1   C12 4467   0.975   3.763   5.848  0.1689  0.6318  0.2462
   45CHL1  H12A 4468   0.907   3.702   5.785  1.2728  0.1644 -0.5250
   45CHL1  H12B 4469   1.067   3.702   5.848  0.5744  1.1871  1.9674
   45CHL1   C11 4470   0.916   3.764   5.992 -0.9002 -0.0730  0.0801
   45CHL1  H11A 4471   0.812   3.804   5.980 -0.6238  0.0843 -2.3359
   45CHL1  H11B 4472   0.921   3.659   6.026  2.7281 -0.8179 -2.2709
   45CHL1    C9 4473   0.992   3.861   6.085 -0.2335 -0.7114 -0.7115
   45CHL1    H9 4474   1.093   3.815   6.098 -0.0579 -0.6407 -1.7442
   45CHL1   C10 4475   0.929   3.868   6.226 -0.2577 -0.0039  1.0414
   45CHL1   C19 4476   0.782   3.929   6.220  0.2409 -0.2400  0.5188
   45CHL1  H19A 4477   0.724   3.887   6.135  0.2585 -0.2344  0.5043
   45CHL1  H19B 4478   0.728   3.901   6.313  0.8126  1.1446  1.2944
   45CHL1  H19C 4479   0.775   4.039   6.209  0.8269 -0.0302  2.0172
   45CHL1    C1 4480   0.941   3.727   6.294 -0.1874  0.2365 -0.3352
   45CHL1   H1A 4481   0.881   3.647   6.246  1.5714 -0.5222 -1.3870
   45CHL1   H1B 4482   1.045   3.692   6.277 -0.2304  0.1770 -0.4777
   45CHL1    C2 4483   0.911   3.730   6.445  0.0963 -0.1126  0.7778
   45CHL1   H2A 4484   0.935   3.631   6.488  0.6749  0.0670  0.8733
   45CHL1   H2B 4485   0.801   3.750   6.452 -0.0461 -0.2202 -0.7170
   45CHL1   C20 4486   0.980   3.879   5.530  0.0478 -0.0389  0.2186
   45CHL1   H20 4487   0.873   3.906   5.543 -0.5756 -2.4554  0.6213
   45CHL1   C21 4488   0.985   3.730   5.506  0.5862 -0.5481 -0.2844
   45CHL1  H21A 4489   0.931   3.698   5.414 -2.3881  0.2739  1.0576
   45CHL1  H21B 4490   0.929   3.681   5.588 -0.7955 -1.2881 -1.6232
   45CHL1  H21C 4491   1.091   3.696   5.506  0.1298 -2.1078  1.1731
   45CHL1   C22 4492   1.041   3.947   5.401 -0.1800  0.5845  0.1170
   45CHL1  H22A 4493   1.036   4.055   5.425  1.8878  0.9987 -1.0396
   45CHL1  H22B 4494   1.150   3.929   5.400  0.2320  2.8044 -0.1466
   45CHL1   C23 4495   0.985   3.915   5.258 -0.2419 -0.0251  0.0267
   45CHL1  H23A 4496   0.993   3.804   5.249 -1.5437 -0.1592  0.3532
   45CHL1  H23B 4497   0.887   3.964   5.245 -0.8564 -1.0270  0.6977
   45CHL1   C24 4498   1.087   3.982   5.161 -0.7657  0.3183  0.0264
   45CHL1  H24A 4499   1.085   4.093   5.167  1.3059  0.4566 -0.7766
   45CHL1  H24B 4500   1.189   3.949   5.189  0.6281  2.2495 -2.3638
   45CHL1   C25 4501   1.074   3.942   5.015 -0.1838 -0.1109 -0.0423
   45CHL1   H25 4502   1.106   3.835   5.011 -4.2789 -1.4381 -2.0795
   45CHL1   C26 4503   0.932   3.952   4.964  0.7386 -0.6247  0.0626
   45CHL1  H26A 4504   0.932   3.907   4.863  1.2277  1.4444 -0.8870
   45CHL1  H26B 4505   0.866   3.892   5.031 -0.6985 -0.9633 -1.5805
   45CHL1  H26C 4506   0.888   4.052   4.946 -0.6713 -1.6150 -2.4590
   45CHL1   C27 4507   1.171   4.011   4.919  0.3255  0.9038  0.1721
   45CHL1  H27A 4508   1.281   3.995   4.925  0.2470  0.9768  3.5267
   45CHL1  H27B 4509   1.140   3.977   4.818  2.1035  2.0487 -0.8067
   45CHL1  H27C 4510   1.161   4.121   4.930  2.5008  1.0170  1.5675
   46CHL1    C3 4511   0.388   5.183   4.944 -0.3867 -0.2235 -0.0310
   46CHL1    H3 4512   0.386   5.283   4.897 -1.6016 -0.9249 -1.5711
   46CHL1    O3 4513   0.386   5.206   5.086 -0.0067  0.3627 -0.3546
   46CHL1   H3' 4514   0.293   5.188   5.101 -0.0272  2.0775  1.9378
   46CHL1    C4 4515   0.268   5.095   4.896  0.4011 -1.3495  0.0926
   46CHL1   H4A 4516   0.278   4.999   4.951 -1.4719 -1.2821  0.6083
   46CHL1   H4B 4517   0.179   5.152   4.929  0.4187 -1.1965 -0.1190
   46CHL1    C5 4518   0.268   5.077   4.747 -0.4633 -0.5075 -0.0334
   46CHL1    C6 4519   0.178   5.118   4.667  0.6402 -0.6332  0.1203
   46CHL1    H6 4520   0.092   5.176   4.705  0.3882 -0.5424 -0.5674
   46CHL1    C7 4521   0.186   5.117   4.509 -0.3973  0.1381 -0.1251
   46CHL1   H7A 4522   0.099   5.072   4.458 -1.0715  1.6533 -0.3834
   46CHL1   H7B 4523   0.197   5.223   4.475  1.2928 -0.4904 -1.7408
   46CHL1    C8 4524   0.306   5.032   4.457 -0.2330  0.7437  0.4392
   46CHL1    H8 4525   0.266   4.928   4.455 -0.4922  0.8216  1.3227
   46CHL1   C14 4526   0.335   5.067   4.314  0.9769 -0.3312 -0.2974
   46CHL1   H14 4527   0.366   5.174   4.314  1.0045 -0.3236 -1.5895
   46CHL1   C15 4528   0.213   5.060   4.219 -0.5184 -0.4390 -1.4248
   46CHL1  H15A 4529   0.155   4.966   4.232 -0.1116 -0.6691 -1.2349
   46CHL1  H15B 4530   0.148   5.149   4.231  0.2224 -0.1894  1.6832
   46CHL1   C16 4531   0.281   5.050   4.078 -0.1588  0.0778 -0.0048
   46CHL1  H16A 4532   0.235   4.960   4.032 -2.9714  0.5548  1.6181
   46CHL1  H16B 4533   0.242   5.137   4.020  1.0997  0.6360 -0.0455
   46CHL1   C17 4534   0.432   5.041   4.096 -0.0779  0.3185 -0.3791
   46CHL1   H17 4535   0.478   5.142   4.107  0.3715 -0.0036  0.9254
   46CHL1   C13 4536   0.444   4.987   4.248  0.0852 -0.0985  0.3208
   46CHL1   C18 4537   0.422   4.833   4.242  0.5195 -0.8989 -0.6042
   46CHL1  H18A 4538   0.404   4.792   4.344 -0.5730  0.4741 -0.2184
   46CHL1  H18B 4539   0.327   4.810   4.188 -0.3913  1.0674  0.0725
   46CHL1  H18C 4540   0.496   4.785   4.175  1.4969 -0.3087  0.0235
   46CHL1   C12 4541   0.577   5.011   4.328  0.3261  0.2463 -0.1818
   46CHL1  H12A 4542   0.672   4.971   4.288  1.1724  0.8460  1.1661
   46CHL1  H12B 4543   0.577   5.121   4.317  0.1199  0.2596 -0.0517
   46CHL1   C11 4544   0.556   4.974   4.476  0.1201  0.5327 -0.7884
   46CHL1  H11A 4545   0.534   4.866   4.486  1.2835  0.1259 -2.3295
   46CHL1  H11B 4546   0.647   4.991   4.537  1.2381 -1.1066 -1.9156
   46CHL1    C9 4547   0.434   5.052   4.545  0.6030 -0.4687 -1.0107
   46CHL1    H9 4548   0.453   5.160   4.531  0.8969 -0.2961  0.5274
   46CHL1   C10 4549   0.407   5.020   4.694  0.5148 -0.5424  0.5049
   46CHL1   C19 4550   0.414   4.868   4.714  0.7526 -0.4330 -0.2114
   46CHL1  H19A 4551   0.409   4.842   4.822  3.4617  0.6619  0.2685
   46CHL1  H19B 4552   0.340   4.818   4.648  1.3784  0.7251 -1.8679
   46CHL1  H19C 4553   0.505   4.823   4.669  0.0534 -2.9229  0.6832
   46CHL1    C1 4554   0.530   5.084   4.763  0.1538 -0.0403  0.0357
   46CHL1   H1A 4555   0.622   5.022   4.747  1.0379  1.4178 -0.7573
   46CHL1   H1B 4556   0.555   5.177   4.708  0.5222  0.8661  1.6757
   46CHL1    C2 4557   0.510   5.104   4.912  0.1899  0.7137  0.3187
   46CHL1   H2A 4558   0.599   5.161   4.947  1.0401 -0.3194 -0.1336
   46CHL1   H2B 4559   0.516   5.006   4.964 -0.4535  1.9407  2.8774
   46CHL1   C20 4560   0.509   4.971   3.984 -1.1252 -0.7048 -1.5017
   46CHL1   H20 4561   0.483   4.863   3.994  0.3855 -1.0169 -0.6853
   46CHL1   C21 4562   0.657   4.986   4.007  0.4006 -0.5795 -0.5212
   46CHL1  H21A 4563   0.691   4.925   4.093 -1.3002  2.2062  2.3053
   46CHL1  H21B 4564   0.705   5.086   4.017  1.3269 -0.6823 -3.1272
   46CHL1  H21C 4565   0.711   4.940   3.921  0.6278  1.3360 -1.4517
   46CHL1   C22 4566   0.463   5.028   3.848  0.4432 -0.0591 -0.8097
   46CHL1  H22A 4567   0.357   4.997   3.840  0.9933 -1.8528 -1.8333
   46CHL1  H22B 4568   0.476   5.137   3.858 -1.3255  0.1359 -0.2461
   46CHL1   C23 4569   0.520   4.967   3.720 -0.6038  0.3167 -0.8740
   46CHL1  H23A 4570   0.619   5.011   3.695 -0.8725  2.0583  0.9099
   46CHL1  H23B 4571   0.530   4.857   3.734 -1.4021  0.3593  0.2285
   46CHL1   C24 4572   0.433   5.002   3.601 -0.2749 -0.3060  0.0922
   46CHL1  H24A 4573   0.328   4.973   3.622 -0.5191 -0.0451 -0.7279
   46CHL1  H24B 4574   0.434   5.112   3.587 -3.1722 -0.2690 -0.3683
   46CHL1   C25 4575   0.497   4.952   3.467 -0.2114 -0.4857 -0.0581
   46CHL1   H25 4576   0.605   4.980   3.470 -0.3988  0.4406 -1.2144
   46CHL1   C26 4577   0.492   4.801   3.460  0.2896 -0.2956 -0.1348
   46CHL1  H26A 4578   0.390   4.765   3.486 -0.1915  1.4792  0.5250
   46CHL1  H26B 4579   0.527   4.762   3.361  0.4882 -0.7571  0.1108
   46CHL1  H26C 4580   0.550   4.755   3.543 -2.3415 -2.7700  0.5004
   46CHL1   C27 4581   0.441   5.004   3.341  0.2246  0.0154 -0.0144
   46CHL1  H27A 4582   0.468   5.111   3.323 -1.2477  0.3127 -0.6841
   46CHL1  H27B 4583   0.481   4.957   3.249  0.4695 -2.1697  1.1612
   46CHL1  H27C 4584   0.330   4.991   3.344  0.2014  0.3754  1.1344
   47CHL1    C3 4585   3.937   4.357   6.532 -0.7070 -0.2715  0.4514
   47CHL1    H3 4586   3.868   4.294   6.472  0.4039 -1.2052  0.1269
   47CHL1    O3 4587   3.899   4.359   6.666 -0.1632 -0.3085 -0.6519
   47CHL1   H3' 4588   3.943   4.283   6.705  0.9548  0.8999  0.5533
   47CHL1    C4 4589   4.076   4.303   6.516 -0.3920 -0.1527  0.9035
   47CHL1   H4A 4590   4.144   4.357   6.586  0.7651 -1.3971  0.7811
   47CHL1   H4B 4591   4.093   4.201   6.555  1.8520  0.0250  0.5520
   47CHL1    C5 4592   4.133   4.304   6.371 -0.1144  0.5252 -0.5707
   47CHL1    C6 4593   4.184   4.193   6.310 -0.2533 -0.0226 -0.0984
   47CHL1    H6 4594   4.179   4.098   6.365  0.1962 -1.5669 -2.5793
   47CHL1    C7 4595   4.232   4.189   6.168 -0.5523 -0.0081 -0.5010
   47CHL1   H7A 4596   4.337   4.152   6.167  0.5776  2.9326 -0.6349
   47CHL1   H7B 4597   4.164   4.124   6.110 -2.7345  1.6861  0.0432
   47CHL1    C8 4598   4.249   4.330   6.103 -0.6314 -0.1466  0.5208
   47CHL1    H8 4599   4.348   4.367   6.139  0.1521 -2.2366  0.6543
   47CHL1   C14 4600   4.246   4.323   5.948 -0.0159 -0.2579  0.1296
   47CHL1   H14 4601   4.141   4.297   5.923  0.4431 -1.2617 -0.8196
   47CHL1   C15 4602   4.334   4.220   5.877  0.8270  0.3657  0.2358
   47CHL1  H15A 4603   4.432   4.239   5.927  0.0951  1.6648  1.2495
   47CHL1  H15B 4604   4.299   4.116   5.895  2.4527  0.0186  1.6193
   47CHL1   C16 4605   4.326   4.258   5.732 -0.4877 -0.2493  0.7713
   47CHL1  H16A 4606   4.431   4.243   5.698  0.4861  4.8270  0.7485
   47CHL1  H16B 4607   4.258   4.193   5.672 -0.1937  0.7094 -0.6370
   47CHL1   C17 4608   4.282   4.405   5.724  0.1512 -0.0920 -0.7981
   47CHL1   H17 4609   4.174   4.402   5.697 -0.1200 -0.4357  0.2688
   47CHL1   C13 4610   4.281   4.454   5.870  0.5123  1.0411  0.2669
   47CHL1   C18 4611   4.426   4.505   5.898  0.2626  0.2069 -0.4930
   47CHL1  H18A 4612   4.452   4.600   5.847 -0.7261  0.4320 -0.5931
   47CHL1  H18B 4613   4.449   4.530   6.003 -0.6074  0.7843 -0.4311
   47CHL1  H18C 4614   4.507   4.440   5.856 -0.0266 -0.9660  0.7113
   47CHL1   C12 4615   4.168   4.550   5.921  0.3409  0.1848 -0.0458
   47CHL1  H12A 4616   4.184   4.655   5.888  1.5772  0.3502  0.9802
   47CHL1  H12B 4617   4.070   4.527   5.876 -0.5433  0.8924  1.4374
   47CHL1   C11 4618   4.162   4.564   6.073  0.2541 -0.1486 -0.3672
   47CHL1  H11A 4619   4.253   4.608   6.120  0.0142 -0.9431  0.8783
   47CHL1  H11B 4620   4.084   4.636   6.106  2.0788  0.4849  3.0787
   47CHL1    C9 4621   4.145   4.429   6.146 -0.2447 -0.8385  0.1454
   47CHL1    H9 4622   4.050   4.391   6.102  0.2353 -0.4147 -1.3287
   47CHL1   C10 4623   4.120   4.438   6.299  0.5403  0.4903 -0.2936
   47CHL1   C19 4624   4.238   4.518   6.358  0.3758  0.2458  0.1102
   47CHL1  H19A 4625   4.254   4.499   6.466  2.4775  3.3097  0.4510
   47CHL1  H19B 4626   4.335   4.503   6.305  0.5721  1.8217 -0.0252
   47CHL1  H19C 4627   4.233   4.629   6.351 -0.4839  0.1624 -0.8070
   47CHL1    C1 4628   3.980   4.494   6.319  0.1803 -0.8764 -0.0908
   47CHL1   H1A 4629   3.984   4.598   6.279  4.0786 -1.9565 -3.1489
   47CHL1   H1B 4630   3.906   4.446   6.252  1.0635 -2.4051 -0.0271
   47CHL1    C2 4631   3.927   4.494   6.466  0.8360  0.5206 -0.5901
   47CHL1   H2A 4632   3.818   4.514   6.473  0.8818  0.9656 -1.0542
   47CHL1   H2B 4633   3.983   4.568   6.528  3.4607 -1.0602 -0.9353
   47CHL1   C20 4634   4.345   4.489   5.621  0.3865 -0.5186  0.3908
   47CHL1   H20 4635   4.452   4.510   5.641 -0.1233  2.3891  0.4727
   47CHL1   C21 4636   4.280   4.635   5.619  0.0525  0.4044  0.1827
   47CHL1  H21A 4637   4.287   4.678   5.721 -1.6257 -1.5245  1.1908
   47CHL1  H21B 4638   4.173   4.626   5.589 -0.1710  0.7347  0.8738
   47CHL1  H21C 4639   4.342   4.693   5.547 -0.3464  0.6154  0.0057
   47CHL1   C22 4640   4.336   4.423   5.479  0.1384  0.3826  0.2650
   47CHL1  H22A 4641   4.404   4.335   5.484  0.1511  0.2067 -1.8751
   47CHL1  H22B 4642   4.232   4.390   5.457 -0.0068  0.3548  0.9697
   47CHL1   C23 4643   4.383   4.504   5.358  0.0764 -0.6969 -0.6572
   47CHL1  H23A 4644   4.306   4.580   5.332 -0.3738 -1.0230 -0.2810
   47CHL1  H23B 4645   4.476   4.557   5.391 -1.9209  0.4628  3.9915
   47CHL1   C24 4646   4.403   4.413   5.233 -0.1005 -0.0426 -0.2551
   47CHL1  H24A 4647   4.486   4.343   5.256  1.2279  1.8894  1.1126
   47CHL1  H24B 4648   4.313   4.351   5.213  1.1495 -1.6641 -1.1638
   47CHL1   C25 4649   4.438   4.482   5.096 -0.3663  0.4669 -0.1847
   47CHL1   H25 4650   4.541   4.523   5.110 -0.5928  1.9892 -2.3620
   47CHL1   C26 4651   4.431   4.373   4.991 -0.4926 -0.0928 -0.1945
   47CHL1  H26A 4652   4.328   4.338   4.969 -0.6401  0.2984 -0.1281
   47CHL1  H26B 4653   4.484   4.396   4.896 -0.5115 -1.4492 -0.5574
   47CHL1  H26C 4654   4.490   4.290   5.035  0.5739  1.7432  2.0814
   47CHL1   C27 4655   4.342   4.593   5.059  0.8267 -0.7146 -0.3886
   47CHL1  H27A 4656   4.350   4.617   4.951 -1.9806 -0.1296 -0.5438
   47CHL1  H27B 4657   4.235   4.563   5.064  0.8018 -0.6711 -0.6487
   47CHL1  H27C 4658   4.355   4.677   5.131  0.7526 -0.4631 -0.6668
   48CHL1    C3 4659   5.338   5.499   6.748 -0.1800  0.0956 -0.4023
   48CHL1    H3 4660   5.256   5.571   6.769 -1.1034 -1.1874  0.5626
   48CHL1    O3 4661   5.399   5.454   6.873 -0.1147 -0.2113  0.1490
   48CHL1   H3' 4662   5.318   5.426   6.917 -1.1892  0.7340 -1.1208
   48CHL1    C4 4663   5.275   5.376   6.686 -0.4930 -0.0515 -0.0259
   48CHL1   H4A 4664   5.341   5.289   6.667 -0.9263  0.1160 -2.8479
   48CHL1   H4B 4665   5.190   5.337   6.746  0.8406 -2.8973  0.1770
   48CHL1    C5 4666   5.219   5.404   6.542  0.3881 -0.6694 -0.1604
   48CHL1    C6 4667   5.094   5.374   6.503  0.1517 -0.4701 -0.1880
   48CHL1    H6 4668   5.033   5.332   6.584  0.6291 -2.9303 -1.0118
   48CHL1    C7 4669   5.041   5.399   6.364  0.2349  0.6975  0.8254
   48CHL1   H7A 4670   4.979   5.312   6.334  1.2832  0.7507 -1.7438
   48CHL1   H7B 4671   4.979   5.491   6.356 -1.7507 -0.5677  0.9023
   48CHL1    C8 4672   5.161   5.407   6.259  0.6861  0.0645 -0.3465
   48CHL1    H8 4673   5.205   5.308   6.235  1.5405  0.6973 -1.5172
   48CHL1   C14 4674   5.105   5.458   6.128 -0.6024  0.2536  0.3038
   48CHL1   H14 4675   5.059   5.557   6.151 -2.0363  0.0992 -1.6926
   48CHL1   C15 4676   4.997   5.378   6.063 -0.0459  0.3771 -0.7588
   48CHL1  H15A 4677   5.037   5.274   6.057  1.2533  0.8388 -0.3968
   48CHL1  H15B 4678   4.905   5.376   6.124  1.3779  0.0456  1.4896
   48CHL1   C16 4679   4.990   5.441   5.922 -0.1302  0.4693 -0.1715
   48CHL1  H16A 4680   4.996   5.359   5.847  0.6983  0.5578 -0.2095
   48CHL1  H16B 4681   4.895   5.498   5.916 -2.5792 -3.2032  0.6229
   48CHL1   C17 4682   5.108   5.537   5.918 -0.8855  0.3923  0.1763
   48CHL1   H17 4683   5.080   5.640   5.947  0.2528  1.3288 -1.8430
   48CHL1   C13 4684   5.208   5.493   6.024 -0.0569  0.5637  0.0985
   48CHL1   C18 4685   5.287   5.358   5.980 -0.0344 -0.2350 -0.0777
   48CHL1  H18A 4686   5.336   5.318   6.071  0.3698 -0.7343 -0.5114
   48CHL1  H18B 4687   5.224   5.278   5.938 -0.1800  0.6524 -1.6335
   48CHL1  H18C 4688   5.361   5.373   5.898 -1.0388 -2.0175 -1.3751
   48CHL1   C12 4689   5.300   5.605   6.082 -0.5079  0.4636 -0.2736
   48CHL1  H12A 4690   5.388   5.619   6.015  0.7339  0.8229  1.3740
   48CHL1  H12B 4691   5.232   5.691   6.104 -1.7473 -0.3184 -0.9172
   48CHL1   C11 4692   5.368   5.555   6.217 -0.3856  0.5583  0.5560
   48CHL1  H11A 4693   5.444   5.479   6.189 -2.1566 -2.6692  3.6156
   48CHL1  H11B 4694   5.417   5.643   6.262 -0.9113  0.6238  1.0138
   48CHL1    C9 4695   5.260   5.505   6.323  0.2914  0.1832  0.6349
   48CHL1    H9 4696   5.200   5.595   6.349  2.1546  1.2354  1.5081
   48CHL1   C10 4697   5.330   5.468   6.451  0.7241  0.0844 -0.4936
   48CHL1   C19 4698   5.443   5.370   6.421  0.3596  0.5791 -0.0428
   48CHL1  H19A 4699   5.404   5.284   6.362  0.3449  0.0994  0.6516
   48CHL1  H19B 4700   5.536   5.413   6.379 -0.5978  2.4198 -0.3663
   48CHL1  H19C 4701   5.483   5.332   6.518  0.4798  0.8019 -0.0043
   48CHL1    C1 4702   5.395   5.589   6.525 -0.0299 -0.2502 -0.3519
   48CHL1   H1A 4703   5.477   5.631   6.463  1.2143 -1.6145  0.3442
   48CHL1   H1B 4704   5.316   5.666   6.541  0.2310  0.4140 -2.0440
   48CHL1    C2 4705   5.446   5.561   6.664 -1.0408 -0.3862  0.4381
   48CHL1   H2A 4706   5.484   5.658   6.703  2.4253 -1.4761  0.1034
   48CHL1   H2B 4707   5.536   5.496   6.654  1.9693  3.4331  0.2467
   48CHL1   C20 4708   5.165   5.537   5.774  0.4533  0.0245 -0.5924
   48CHL1   H20 4709   5.230   5.449   5.757 -0.1758 -0.6768  0.5501
   48CHL1   C21 4710   5.242   5.671   5.748  0.0247 -0.1329  0.2494
   48CHL1  H21A 4711   5.336   5.683   5.804 -0.4557 -2.5356  1.7087
   48CHL1  H21B 4712   5.274   5.689   5.643 -0.7958 -1.4156 -0.2473
   48CHL1  H21C 4713   5.171   5.753   5.771 -1.2814 -0.8172 -1.0685
   48CHL1   C22 4714   5.056   5.521   5.662  0.1113 -0.2795  0.0103
   48CHL1  H22A 4715   5.004   5.423   5.660 -0.1430 -0.2642  2.5211
   48CHL1  H22B 4716   4.974   5.596   5.673  2.4329  2.4070  0.0138
   48CHL1   C23 4717   5.102   5.544   5.521  0.3964  0.4227  0.5327
   48CHL1  H23A 4718   5.013   5.503   5.468  2.2924 -2.8021 -0.4787
   48CHL1  H23B 4719   5.121   5.647   5.483  1.9463  0.6183  1.7425
   48CHL1   C24 4720   5.231   5.453   5.496 -0.0290 -0.1089 -0.1760
   48CHL1  H24A 4721   5.321   5.483   5.554  0.3647 -2.5713  0.5998
   48CHL1  H24B 4722   5.209   5.350   5.532  2.0581  0.2345  2.3725
   48CHL1   C25 4723   5.250   5.428   5.339 -0.5075 -0.0594 -0.5823
   48CHL1   H25 4724   5.164   5.368   5.304 -1.5924 -0.0497  1.8462
   48CHL1   C26 4725   5.247   5.557   5.257  0.2554 -0.0894 -0.6980
   48CHL1  H26A 4726   5.322   5.629   5.298 -0.1015 -0.8594  1.4075
   48CHL1  H26B 4727   5.273   5.531   5.152  1.3157  0.5915 -0.6183
   48CHL1  H26C 4728   5.146   5.602   5.268  0.8047  1.0709 -0.1710
   48CHL1   C27 4729   5.375   5.353   5.307  0.1512  0.6399  0.6519
   48CHL1  H27A 4730   5.363   5.246   5.330  0.6072  0.8218  1.7749
   48CHL1  H27B 4731   5.387   5.356   5.196  1.8342 -1.1140  0.7410
   48CHL1  H27C 4732   5.472   5.394   5.343  0.1057  1.5231 -0.1901
   49CHL1    C3 4733   4.035   3.133   3.018 -0.0864  0.0565 -0.1718
   49CHL1    H3 4734   3.995   3.237   3.016 -0.9066 -0.2429  0.1210
   49CHL1    O3 4735   4.042   3.077   2.889 -0.1667 -1.0535  0.6221
   49CHL1   H3' 4736   4.058   3.155   2.835 -0.6276 -1.0775  0.4422
   49CHL1    C4 4737   4.177   3.146   3.079 -0.1162  0.8981 -0.0266
   49CHL1   H4A 4738   4.222   3.046   3.095 -0.9222  0.4720 -0.3712
   49CHL1   H4B 4739   4.238   3.196   3.001 -0.4032  1.6905  0.2488
   49CHL1    C5 4740   4.166   3.218   3.214 -0.1627 -0.0083  0.6481
   49CHL1    C6 4741   4.229   3.333   3.242  0.3969  0.0460 -0.0008
   49CHL1    H6 4742   4.293   3.379   3.164 -1.6956  2.1035 -0.6375
   49CHL1    C7 4743   4.213   3.410   3.376 -0.3793 -0.4513  0.6307
   49CHL1   H7A 4744   4.312   3.454   3.403 -0.0487 -0.5733 -0.3413
   49CHL1   H7B 4745   4.149   3.500   3.373  0.0117 -0.1719  0.6414
   49CHL1    C8 4746   4.153   3.312   3.481  0.2529  0.3993 -0.4974
   49CHL1    H8 4747   4.230   3.242   3.519 -0.2346  0.2904  0.3165
   49CHL1   C14 4748   4.105   3.398   3.595 -0.5359  0.1076 -0.0128
   49CHL1   H14 4749   4.018   3.463   3.569 -1.3882 -1.3471 -0.9455
   49CHL1   C15 4750   4.215   3.487   3.661  0.3549 -0.4782 -0.0465
   49CHL1  H15A 4751   4.308   3.426   3.670  1.4876  0.8681 -1.7596
   49CHL1  H15B 4752   4.244   3.584   3.614 -2.2683  1.4228  1.9992
   49CHL1   C16 4753   4.158   3.516   3.798 -0.8301  0.7246  0.7263
   49CHL1  H16A 4754   4.249   3.505   3.861 -0.1679  0.6187 -0.2352
   49CHL1  H16B 4755   4.110   3.615   3.808 -0.4155  1.3701 -2.6082
   49CHL1   C17 4756   4.044   3.415   3.819 -0.2629 -0.8466 -0.6072
   49CHL1   H17 4757   3.942   3.456   3.803 -1.7035 -2.7931  2.6273
   49CHL1   C13 4758   4.052   3.312   3.712 -0.2633  0.2820 -0.0163
   49CHL1   C18 4759   4.166   3.212   3.762  0.4450  0.1730 -0.0743
   49CHL1  H18A 4760   4.206   3.139   3.689 -1.9315 -0.1363 -1.1562
   49CHL1  H18B 4761   4.251   3.270   3.805 -1.4200  2.8686  0.1915
   49CHL1  H18C 4762   4.120   3.152   3.844 -0.1460 -1.3357 -1.4643
   49CHL1   C12 4763   3.934   3.229   3.670 -0.2808  0.1206  0.4702
   49CHL1  H12A 4764   3.899   3.160   3.750 -0.7679 -0.6763 -0.4038
   49CHL1  H12B 4765   3.858   3.302   3.637  0.0640  0.1349 -0.2911
   49CHL1   C11 4766   3.961   3.153   3.539  0.3417 -0.2483 -0.5964
   49CHL1  H11A 4767   4.016   3.062   3.573  0.8686 -0.6836 -2.4502
   49CHL1  H11B 4768   3.862   3.119   3.503  0.1220 -0.9826  0.6256
   49CHL1    C9 4769   4.038   3.230   3.424  0.4679 -0.2597 -0.4157
   49CHL1    H9 4770   3.964   3.305   3.390 -0.8605  0.5426  3.7445
   49CHL1   C10 4771   4.072   3.140   3.306 -0.2241 -1.1089 -0.3523
   49CHL1   C19 4772   4.146   3.009   3.347 -0.1620  0.0120  0.2823
   49CHL1  H19A 4773   4.074   2.936   3.391  1.4068 -0.2814  2.5354
   49CHL1  H19B 4774   4.203   2.951   3.272 -1.3987 -1.5149  0.4739
   49CHL1  H19C 4775   4.216   3.046   3.426 -0.4310  2.9539 -0.7112
   49CHL1    C1 4776   3.936   3.101   3.238 -0.5921  0.1879  0.1196
   49CHL1   H1A 4777   3.881   3.035   3.308  0.0234  0.2076  0.6363
   49CHL1   H1B 4778   3.878   3.195   3.226  1.0652  0.9759 -3.1093
   49CHL1    C2 4779   3.949   3.041   3.097  0.5465  0.1770 -0.2108
   49CHL1   H2A 4780   3.847   3.045   3.053  0.8673 -2.8190 -1.3981
   49CHL1   H2B 4781   3.974   2.934   3.106 -1.5188 -0.4163 -0.9778
   49CHL1   C20 4782   4.040   3.383   3.963 -0.2358 -0.1496 -0.4191
   49CHL1   H20 4783   4.138   3.341   3.994  1.4817  2.7661 -1.5264
   49CHL1   C21 4784   3.927   3.282   3.991 -0.3542 -0.3596  0.3797
   49CHL1  H21A 4785   3.908   3.276   4.100 -0.3433  1.7115  0.5355
   49CHL1  H21B 4786   3.944   3.179   3.952 -3.5343 -0.3720 -1.2437
   49CHL1  H21C 4787   3.837   3.312   3.934  1.9089  1.5064 -2.4833
   49CHL1   C22 4788   4.035   3.510   4.060  0.8145 -0.4235  0.0966
   49CHL1  H22A 4789   4.114   3.582   4.028 -1.2871  1.6616 -0.7213
   49CHL1  H22B 4790   3.937   3.560   4.045  0.9500  0.5442  2.1346
   49CHL1   C23 4791   4.041   3.470   4.199  0.0206 -0.6836 -0.7465
   49CHL1  H23A 4792   3.938   3.473   4.241 -0.7543  0.4095 -2.5634
   49CHL1  H23B 4793   4.075   3.366   4.215  0.2517 -0.3591  1.0560
   49CHL1   C24 4794   4.141   3.561   4.288 -0.0613 -0.2041 -0.2257
   49CHL1  H24A 4795   4.245   3.544   4.254  0.5444 -1.0086  1.8611
   49CHL1  H24B 4796   4.112   3.668   4.282 -2.0694 -0.7740 -2.7808
   49CHL1   C25 4797   4.137   3.524   4.439 -0.5616 -0.5245 -0.0022
   49CHL1   H25 4798   4.032   3.507   4.471 -0.2971 -0.0067  1.1888
   49CHL1   C26 4799   4.210   3.395   4.479 -0.1228  0.1467  0.4714
   49CHL1  H26A 4800   4.305   3.384   4.422 -0.8590 -2.6162 -0.3873
   49CHL1  H26B 4801   4.228   3.390   4.589  0.1416 -1.7871  0.3877
   49CHL1  H26C 4802   4.157   3.300   4.455  2.1377 -1.4972  1.5866
   49CHL1   C27 4803   4.188   3.639   4.527 -0.1507 -0.3807  0.0743
   49CHL1  H27A 4804   4.246   3.709   4.464  0.1414  0.2548  1.0213
   49CHL1  H27B 4805   4.103   3.691   4.576 -1.1327 -1.8870  0.0464
   49CHL1  H27C 4806   4.268   3.605   4.597  1.5062  0.1533 -1.5059
   50CHL1    C3 4807   3.713   5.816   3.309  0.1182  0.1132  0.3118
   50CHL1    H3 4808   3.738   5.708   3.307  1.5624  0.4195 -0.0814
   50CHL1    O3 4809   3.681   5.844   3.176 -0.0305 -0.2153 -0.3356
   50CHL1   H3' 4810   3.653   5.936   3.167 -1.0256 -0.4460  0.2476
   50CHL1    C4 4811   3.586   5.835   3.394  0.4759  0.0137 -0.2462
   50CHL1   H4A 4812   3.546   5.939   3.387  0.3085  0.0107  0.5915
   50CHL1   H4B 4813   3.504   5.772   3.353 -0.3684 -0.2871  1.8101
   50CHL1    C5 4814   3.604   5.802   3.541 -0.0759 -0.0178 -0.2744
   50CHL1    C6 4815   3.531   5.710   3.614 -0.3236  0.5356  0.5250
   50CHL1    H6 4816   3.453   5.650   3.566 -0.5518  1.7521 -0.6682
   50CHL1    C7 4817   3.553   5.683   3.761 -0.5491 -0.2430 -0.1011
   50CHL1   H7A 4818   3.454   5.665   3.808 -0.3213 -2.8489 -0.4445
   50CHL1   H7B 4819   3.620   5.596   3.777 -0.2341  0.0116 -0.0297
   50CHL1    C8 4820   3.625   5.808   3.821  0.0148  0.0256 -0.9516
   50CHL1    H8 4821   3.563   5.900   3.818  0.7157  0.5078 -0.9287
   50CHL1   C14 4822   3.661   5.772   3.963  0.4113 -0.7997 -0.5397
   50CHL1   H14 4823   3.734   5.688   3.956 -0.2724 -1.5391  0.7403
   50CHL1   C15 4824   3.544   5.717   4.058 -0.3774 -0.4345 -0.1568
   50CHL1  H15A 4825   3.451   5.752   4.010 -0.7821 -0.7186  0.4067
   50CHL1  H15B 4826   3.540   5.606   4.050 -2.2503 -0.3442 -0.9437
   50CHL1   C16 4827   3.592   5.756   4.197 -0.3812  0.5868  0.4837
   50CHL1  H16A 4828   3.515   5.824   4.238 -1.5340  0.1222 -0.8216
   50CHL1  H16B 4829   3.592   5.666   4.262 -2.2763  1.1920  1.3836
   50CHL1   C17 4830   3.729   5.824   4.189 -0.6214  0.2674 -0.3870
   50CHL1   H17 4831   3.800   5.740   4.201 -0.8156  0.2541  0.7720
   50CHL1   C13 4832   3.739   5.883   4.046  0.1502  0.4822  0.2980
   50CHL1   C18 4833   3.657   6.012   4.055 -0.4045  0.3117  0.3269
   50CHL1  H18A 4834   3.624   6.052   3.956  1.3453  0.9789 -0.0332
   50CHL1  H18B 4835   3.560   5.994   4.105 -1.1649  2.7375 -0.1278
   50CHL1  H18C 4836   3.707   6.098   4.103 -1.2947 -0.5564  2.9409
   50CHL1   C12 4837   3.876   5.899   3.974  0.1055 -0.2430  0.2019
   50CHL1  H12A 4838   3.935   5.971   4.034  1.7301 -1.8160  0.5730
   50CHL1  H12B 4839   3.922   5.802   4.002  0.1142  0.2650  2.0569
   50CHL1   C11 4840   3.859   5.934   3.825 -0.3036  0.1479 -0.4579
   50CHL1  H11A 4841   3.820   6.038   3.834  1.0318  0.5729  0.9776
   50CHL1  H11B 4842   3.961   5.940   3.781 -0.3428 -0.6198 -0.6636
   50CHL1    C9 4843   3.758   5.841   3.744  0.1767  0.2487 -0.4964
   50CHL1    H9 4844   3.810   5.744   3.728 -0.0945 -0.2046  1.1699
   50CHL1   C10 4845   3.717   5.887   3.597 -0.8986  0.4021 -0.8538
   50CHL1   C19 4846   3.670   6.034   3.605 -0.1047  0.2261 -0.4710
   50CHL1  H19A 4847   3.643   6.072   3.504  2.5421  1.7226 -0.6978
   50CHL1  H19B 4848   3.588   6.045   3.679 -0.1979 -2.0162 -0.1704
   50CHL1  H19C 4849   3.750   6.098   3.648  0.5872 -0.7093 -0.3546
   50CHL1    C1 4850   3.846   5.882   3.514  0.4192  0.1178  1.0841
   50CHL1   H1A 4851   3.919   5.963   3.535  0.8298 -0.6501  2.8338
   50CHL1   H1B 4852   3.896   5.784   3.520 -0.5808 -0.5115 -0.2478
   50CHL1    C2 4853   3.825   5.906   3.361 -0.0302 -0.2554 -0.1220
   50CHL1   H2A 4854   3.920   5.875   3.313 -0.7432 -1.8240 -0.5979
   50CHL1   H2B 4855   3.805   6.016   3.358  2.0874  0.1454 -1.6308
   50CHL1   C20 4856   3.768   5.912   4.310  0.1694  0.4231 -0.4026
   50CHL1   H20 4857   3.700   6.000   4.310 -2.3537 -1.3939  0.4804
   50CHL1   C21 4858   3.910   5.952   4.292  0.1850 -0.0691  0.3071
   50CHL1  H21A 4859   3.960   5.987   4.385 -0.3846 -0.8476  0.9075
   50CHL1  H21B 4860   3.911   6.043   4.227 -1.5315  1.3431  2.1232
   50CHL1  H21C 4861   3.981   5.883   4.242 -0.9236 -0.2929 -0.9944
   50CHL1   C22 4862   3.742   5.849   4.443  0.2033  0.3964 -0.2802
   50CHL1  H22A 4863   3.633   5.826   4.445  0.2921  0.0149  0.2494
   50CHL1  H22B 4864   3.796   5.753   4.455  0.9509  0.9343  0.8569
   50CHL1   C23 4865   3.770   5.955   4.551  0.8619  0.0253 -0.0208
   50CHL1  H23A 4866   3.880   5.965   4.558  1.0529 -2.0591  0.7427
   50CHL1  H23B 4867   3.720   6.048   4.517  2.0974  0.5227 -0.5292
   50CHL1   C24 4868   3.713   5.916   4.693  0.1479  0.3914 -0.2800
   50CHL1  H24A 4869   3.603   5.908   4.702  0.2944 -2.0831 -0.2190
   50CHL1  H24B 4870   3.738   5.809   4.704  1.9942  0.7784 -0.3612
   50CHL1   C25 4871   3.788   5.994   4.810 -0.3327 -0.1860  0.2316
   50CHL1   H25 4872   3.890   6.024   4.779  0.4259 -0.8407  1.9767
   50CHL1   C26 4873   3.701   6.119   4.842  0.0506 -0.0524  0.0203
   50CHL1  H26A 4874   3.733   6.182   4.928 -2.0832 -1.2685  1.8383
   50CHL1  H26B 4875   3.689   6.179   4.749 -3.9934 -0.0041  0.3703
   50CHL1  H26C 4876   3.596   6.087   4.863 -0.2216  1.1807  0.6258
   50CHL1   C27 4877   3.808   5.906   4.934  0.1619 -0.3607 -0.4224
   50CHL1  H27A 4878   3.833   5.966   5.024 -1.6237 -0.1654 -0.0114
   50CHL1  H27B 4879   3.708   5.863   4.959 -0.4452  0.5838 -1.1756
   50CHL1  H27C 4880   3.884   5.827   4.919  0.6313 -0.0136  0.0903
   51CHL1    C3 4881   3.582   2.615   2.993  0.3480 -0.2151 -0.1077
   51CHL1    H3 4882   3.471   2.620   2.982  0.1737 -3.0011 -0.4946
   51CHL1    O3 4883   3.638   2.576   2.865 -0.1027 -0.2938 -0.8520
   51CHL1   H3' 4884   3.733   2.576   2.879 -0.3150 -0.4756  0.7515
   51CHL1    C4 4885   3.651   2.742   3.027  1.0041 -0.7183 -0.5006
   51CHL1   H4A 4886   3.760   2.728   3.016  1.5891  0.6387  2.3761
   51CHL1   H4B 4887   3.624   2.822   2.954  0.2010  0.2244  0.7684
   51CHL1    C5 4888   3.621   2.784   3.178  0.0688  0.1252 -0.1246
   51CHL1    C6 4889   3.572   2.905   3.207  0.5202  0.0423  0.0311
   51CHL1    H6 4890   3.548   2.970   3.121  1.5538  0.3820 -0.0056
   51CHL1    C7 4891   3.545   2.949   3.346  0.1091 -0.0934 -0.5812
   51CHL1   H7A 4892   3.560   3.056   3.371  0.9478 -0.4259  0.4063
   51CHL1   H7B 4893   3.441   2.925   3.379  0.8072 -0.8651  1.1755
   51CHL1    C8 4894   3.624   2.863   3.456  0.4535  0.1705 -0.7386
   51CHL1    H8 4895   3.732   2.892   3.456  0.3115  0.8131  0.7901
   51CHL1   C14 4896   3.575   2.895   3.602  0.4108  0.8046  0.0008
   51CHL1   H14 4897   3.473   2.854   3.590  1.9395 -2.8324 -2.4046
   51CHL1   C15 4898   3.557   3.039   3.645  0.1390  0.6191  0.0043
   51CHL1  H15A 4899   3.644   3.101   3.614 -0.0085  2.7534  3.3429
   51CHL1  H15B 4900   3.464   3.084   3.604 -0.6304  0.1247  1.1392
   51CHL1   C16 4901   3.556   3.024   3.800  0.3467 -0.5052  1.2397
   51CHL1  H16A 4902   3.634   3.095   3.836  0.6564  0.4033 -1.0234
   51CHL1  H16B 4903   3.452   3.044   3.832 -0.0348  3.8556 -1.8275
   51CHL1   C17 4904   3.579   2.876   3.840  0.6995 -0.1349  0.6931
   51CHL1   H17 4905   3.480   2.825   3.844 -1.5995  3.7236 -1.0708
   51CHL1   C13 4906   3.643   2.819   3.715  0.6704  0.0046 -0.0003
   51CHL1   C18 4907   3.793   2.859   3.723 -1.0930 -0.2224 -0.5110
   51CHL1  H18A 4908   3.849   2.796   3.795  1.2172 -1.3195 -3.0818
   51CHL1  H18B 4909   3.849   2.832   3.631 -3.5216 -0.6646 -1.9270
   51CHL1  H18C 4910   3.809   2.968   3.733  1.2322 -0.4107 -1.5619
   51CHL1   C12 4911   3.630   2.668   3.684  1.5596  0.2857  0.0095
   51CHL1  H12A 4912   3.680   2.609   3.763 -0.4932 -0.9325  0.4728
   51CHL1  H12B 4913   3.522   2.644   3.692  0.8919  0.8469 -4.5241
   51CHL1   C11 4914   3.674   2.623   3.537  0.6690 -0.3302  0.1922
   51CHL1  H11A 4915   3.785   2.610   3.538  0.6101 -0.8459  0.9008
   51CHL1  H11B 4916   3.635   2.522   3.514 -1.8616  0.8207 -0.9453
   51CHL1    C9 4917   3.616   2.714   3.419 -0.4266 -1.0295  0.0792
   51CHL1    H9 4918   3.507   2.695   3.412 -0.9416 -0.4033  3.8044
   51CHL1   C10 4919   3.662   2.674   3.278 -0.0812 -0.0236 -0.8298
   51CHL1   C19 4920   3.820   2.664   3.272 -0.5156 -0.1505 -0.6050
   51CHL1  H19A 4921   3.876   2.753   3.307 -1.0414 -0.7162  1.8681
   51CHL1  H19B 4922   3.866   2.590   3.341 -0.1194 -0.2389 -0.9624
   51CHL1  H19C 4923   3.851   2.647   3.167 -0.9037 -0.0453 -0.7383
   51CHL1    C1 4924   3.600   2.538   3.238  1.1752  0.0238 -0.5135
   51CHL1   H1A 4925   3.634   2.450   3.295  0.5294 -2.0037 -3.0489
   51CHL1   H1B 4926   3.491   2.555   3.253  0.8291 -2.5035  0.1473
   51CHL1    C2 4927   3.618   2.500   3.087  0.0313  0.4493 -0.0067
   51CHL1   H2A 4928   3.563   2.411   3.050 -3.5499  2.4870 -0.0983
   51CHL1   H2B 4929   3.727   2.488   3.073  0.2913  1.4523  0.9798
   51CHL1   C20 4930   3.659   2.874   3.974  0.0259  0.2606  0.3268
   51CHL1   H20 4931   3.764   2.904   3.955  0.1672 -0.7453 -0.5540
   51CHL1   C21 4932   3.660   2.720   4.013 -0.4192  0.6566  0.7010
   51CHL1  H21A 4933   3.714   2.650   3.947  0.4715 -1.0358  3.0902
   51CHL1  H21B 4934   3.556   2.681   4.013 -0.0076 -0.5560  2.5048
   51CHL1  H21C 4935   3.712   2.716   4.111  1.4247 -1.5400 -0.2868
   51CHL1   C22 4936   3.595   2.950   4.091  0.0309  0.6495  0.2484
   51CHL1  H22A 4937   3.568   3.052   4.056  1.2247  1.3493  1.3364
   51CHL1  H22B 4938   3.504   2.904   4.135  0.5822 -0.4741  0.2463
   51CHL1   C23 4939   3.696   2.988   4.207 -0.1114 -0.3465  0.1698
   51CHL1  H23A 4940   3.733   2.889   4.242  1.3297  0.0193 -0.2542
   51CHL1  H23B 4941   3.781   3.041   4.160 -0.7207 -0.5446 -1.2214
   51CHL1   C24 4942   3.627   3.043   4.327  0.0640  0.0426 -0.3622
   51CHL1  H24A 4943   3.547   3.118   4.305  0.0278  1.5205  3.8941
   51CHL1  H24B 4944   3.572   2.957   4.371 -1.2219  1.3512  0.6838
   51CHL1   C25 4945   3.727   3.106   4.429 -0.4399 -0.6241  0.4287
   51CHL1   H25 4946   3.815   3.039   4.426  1.5113  1.8382  0.1054
   51CHL1   C26 4947   3.759   3.249   4.383  0.7992 -0.4017  0.4893
   51CHL1  H26A 4948   3.803   3.305   4.468 -0.6065  3.1433 -0.9339
   51CHL1  H26B 4949   3.829   3.241   4.297 -0.3507  1.0302 -0.6327
   51CHL1  H26C 4950   3.667   3.307   4.362  1.4292 -0.0679 -1.5069
   51CHL1   C27 4951   3.678   3.096   4.574 -0.5182 -0.1720 -0.5127
   51CHL1  H27A 4952   3.607   3.180   4.591 -1.0840 -0.8802  0.7387
   51CHL1  H27B 4953   3.622   3.002   4.593  1.2930 -0.9337  1.4829
   51CHL1  H27C 4954   3.763   3.104   4.645 -1.8648  0.9867  1.0496
   52CHL1    C3 4955   0.548   1.332   3.233 -0.1794  0.2316  0.1930
   52CHL1    H3 4956   0.581   1.438   3.227  0.5571  0.0331  0.6542
   52CHL1    O3 4957   0.525   1.281   3.103  0.2800  0.2008  0.8017
   52CHL1   H3' 4958   0.604   1.296   3.052 -0.6458 -0.7417 -0.9732
   52CHL1    C4 4959   0.661   1.246   3.281 -1.0275 -0.5167 -0.3107
   52CHL1   H4A 4960   0.634   1.138   3.279 -0.6220 -0.6198 -0.4519
   52CHL1   H4B 4961   0.738   1.253   3.202 -2.7783 -0.8562 -2.1166
   52CHL1    C5 4962   0.703   1.291   3.419  0.6480 -0.2132 -0.6008
   52CHL1    C6 4963   0.828   1.327   3.434 -0.1800 -0.2692 -0.5013
   52CHL1    H6 4964   0.894   1.331   3.347  0.8579  0.0404  0.2772
   52CHL1    C7 4965   0.888   1.370   3.568 -0.1251 -0.1599  0.8195
   52CHL1   H7A 4966   0.989   1.328   3.589 -0.0089 -0.1859  0.2073
   52CHL1   H7B 4967   0.901   1.480   3.579  3.0852  0.0664 -3.0830
   52CHL1    C8 4968   0.797   1.332   3.682 -0.5739 -0.0828  0.0542
   52CHL1    H8 4969   0.816   1.224   3.704 -0.3713  0.4339  2.8179
   52CHL1   C14 4970   0.839   1.410   3.804 -0.7780  1.1746 -0.4321
   52CHL1   H14 4971   0.814   1.517   3.789 -0.9598  1.4696  1.7074
   52CHL1   C15 4972   0.988   1.401   3.847 -0.3372  0.1293 -1.0303
   52CHL1  H15A 4973   1.031   1.298   3.839 -1.3311 -0.4191  0.3541
   52CHL1  H15B 4974   1.058   1.468   3.793  1.1827 -1.4342 -1.0810
   52CHL1   C16 4975   0.985   1.424   4.001  0.0070 -0.6416 -0.9093
   52CHL1  H16A 4976   1.024   1.332   4.049 -0.4311 -0.7931 -0.8342
   52CHL1  H16B 4977   1.052   1.505   4.037 -1.2841  0.6367 -1.2647
   52CHL1   C17 4978   0.841   1.456   4.037  0.6177 -0.2130 -0.3380
   52CHL1   H17 4979   0.811   1.560   4.015 -1.2772 -1.1958 -2.9584
   52CHL1   C13 4980   0.760   1.378   3.932 -0.0509 -0.0172 -0.0640
   52CHL1   C18 4981   0.765   1.226   3.957  0.1470  0.8031 -0.4776
   52CHL1  H18A 4982   0.736   1.166   3.868  1.6086  0.0840 -0.4943
   52CHL1  H18B 4983   0.868   1.199   3.990 -0.4354 -3.3688 -1.4797
   52CHL1  H18C 4984   0.701   1.206   4.046  0.1688  3.2552  0.1681
   52CHL1   C12 4985   0.610   1.424   3.905 -0.6586 -0.0127  0.3089
   52CHL1  H12A 4986   0.553   1.417   3.999  0.2501  0.3521  0.9006
   52CHL1  H12B 4987   0.619   1.529   3.870 -2.3113 -0.4173 -1.4813
   52CHL1   C11 4988   0.561   1.339   3.778  0.3555  0.0209 -0.2916
   52CHL1  H11A 4989   0.548   1.234   3.812 -2.7561  0.3049 -0.2521
   52CHL1  H11B 4990   0.458   1.380   3.768 -1.5660 -3.2253  3.3472
   52CHL1    C9 4991   0.653   1.360   3.656  0.3632 -0.0867  0.2115
   52CHL1    H9 4992   0.659   1.467   3.628 -2.0331  0.4915  1.5981
   52CHL1   C10 4993   0.600   1.288   3.526  0.5241  0.6491 -0.0348
   52CHL1   C19 4994   0.559   1.144   3.563 -0.0440 -0.1733  0.5244
   52CHL1  H19A 4995   0.650   1.088   3.595 -2.2209 -4.4089 -0.0498
   52CHL1  H19B 4996   0.481   1.138   3.642  0.1590  1.5284  0.9099
   52CHL1  H19C 4997   0.527   1.084   3.476 -1.4140 -0.3914  1.1523
   52CHL1    C1 4998   0.472   1.357   3.472 -0.1708 -0.0489  1.0787
   52CHL1   H1A 4999   0.378   1.336   3.528 -1.3654  3.0285  0.4231
   52CHL1   H1B 5000   0.502   1.464   3.471  1.2833 -0.4068  2.4973
   52CHL1    C2 5001   0.436   1.311   3.330 -0.3432 -0.5517  0.1189
   52CHL1   H2A 5002   0.345   1.369   3.305  1.7349  2.5679 -0.8691
   52CHL1   H2B 5003   0.412   1.202   3.333 -1.6551 -0.2566  1.0435
   52CHL1   C20 5004   0.806   1.433   4.185 -0.1633  1.0453 -0.4497
   52CHL1   H20 5005   0.705   1.386   4.188  0.2709 -0.0686 -1.7981
   52CHL1   C21 5006   0.786   1.572   4.247 -0.0106 -0.0298 -0.5871
   52CHL1  H21A 5007   0.881   1.630   4.250 -0.5275  1.1306 -3.1435
   52CHL1  H21B 5008   0.734   1.568   4.345  1.1789 -0.0247  0.0581
   52CHL1  H21C 5009   0.727   1.641   4.182 -1.2482 -0.5354 -0.0335
   52CHL1   C22 5010   0.900   1.342   4.263  0.0261  0.6921 -0.0764
   52CHL1  H22A 5011   0.907   1.246   4.208  0.6287  1.5687 -1.5923
   52CHL1  H22B 5012   1.003   1.382   4.252  0.1233  0.1294 -1.3732
   52CHL1   C23 5013   0.865   1.330   4.407  0.4222  0.6063 -0.4710
   52CHL1  H23A 5014   0.862   1.425   4.465  0.6064 -0.5519  1.5413
   52CHL1  H23B 5015   0.766   1.280   4.405 -0.2519  1.5014  3.2179
   52CHL1   C24 5016   0.960   1.235   4.485 -0.4051 -0.3978 -0.0799
   52CHL1  H24A 5017   0.992   1.151   4.420  0.2479 -0.4705  0.3155
   52CHL1  H24B 5018   1.051   1.298   4.491 -0.3281 -0.5078 -0.0762
   52CHL1   C25 5019   0.921   1.186   4.628 -0.2031  0.1068  0.5952
   52CHL1   H25 5020   0.831   1.122   4.613 -1.5076  1.9015  0.3305
   52CHL1   C26 5021   1.035   1.113   4.697 -1.0982  0.4292 -0.0886
   52CHL1  H26A 5022   1.082   1.030   4.639  0.1614  1.4262 -0.5439
   52CHL1  H26B 5023   1.119   1.184   4.709 -1.7929  1.4777 -1.1251
   52CHL1  H26C 5024   1.004   1.075   4.797 -1.4225 -1.1659 -0.7537
   52CHL1   C27 5025   0.875   1.304   4.718 -0.7007  1.3378 -0.2305
   52CHL1  H27A 5026   0.815   1.269   4.805  0.0778 -0.1182 -0.2601
   52CHL1  H27B 5027   0.962   1.357   4.761  0.8362 -0.3946 -1.1123
   52CHL1  H27C 5028   0.809   1.368   4.654 -1.5332  0.0181 -0.7436
   53CHL1    C3 5029   6.532   1.298   3.168  0.3844 -0.3516 -0.5435
   53CHL1    H3 5030   6.549   1.407   3.183 -2.5501 -0.1499  2.2268
   53CHL1    O3 5031   6.516   1.260   3.034 -0.6238  0.9585  0.1780
   53CHL1   H3' 5032   6.521   1.165   3.042  1.1992  1.0570  0.8324
   53CHL1    C4 5033   6.650   1.223   3.229  0.0574  0.5800 -0.7420
   53CHL1   H4A 5034   6.627   1.114   3.220  1.9692  0.0772 -0.0114
   53CHL1   H4B 5035   6.745   1.245   3.176  0.0457 -0.0196 -1.0217
   53CHL1    C5 5036   6.662   1.262   3.380  0.3659  0.0790 -0.3329
   53CHL1    C6 5037   6.780   1.311   3.424  0.4807 -1.3158 -0.0472
   53CHL1    H6 5038   6.869   1.321   3.360 -0.6039  2.0930 -1.2548
   53CHL1    C7 5039   6.803   1.343   3.573 -0.0254  0.8520  0.1073
   53CHL1   H7A 5040   6.901   1.299   3.601  0.0750  1.1741  0.2608
   53CHL1   H7B 5041   6.795   1.453   3.587 -1.9675  0.9240 -1.2083
   53CHL1    C8 5042   6.689   1.294   3.664  0.5689 -0.3732  0.5434
   53CHL1    H8 5043   6.703   1.187   3.690 -0.4651 -0.8266 -0.6466
   53CHL1   C14 5044   6.679   1.389   3.790  0.0692 -0.4797 -0.4850
   53CHL1   H14 5045   6.642   1.487   3.756  2.3640  0.7059  0.2268
   53CHL1   C15 5046   6.810   1.421   3.867 -0.3322  1.0923 -0.1551
   53CHL1  H15A 5047   6.865   1.326   3.879 -0.2899  1.2263  0.7978
   53CHL1  H15B 5048   6.880   1.496   3.823 -1.0746  2.3191  0.6645
   53CHL1   C16 5049   6.767   1.460   4.008 -0.3157  0.0192 -0.1126
   53CHL1  H16A 5050   6.828   1.407   4.084 -1.4283  0.9156  1.4499
   53CHL1  H16B 5051   6.779   1.570   4.020 -1.1162  0.1579 -0.5385
   53CHL1   C17 5052   6.622   1.431   4.016 -0.1802  0.1517  0.3778
   53CHL1   H17 5053   6.567   1.521   3.981  0.3339  0.2207 -0.2676
   53CHL1   C13 5054   6.591   1.329   3.898  0.3454 -0.0257  0.6411
   53CHL1   C18 5055   6.632   1.187   3.950  0.2280 -0.8647 -0.4589
   53CHL1  H18A 5056   6.735   1.182   3.993  0.9444  0.2293 -1.9648
   53CHL1  H18B 5057   6.560   1.150   4.026  0.4506  1.2773  0.8954
   53CHL1  H18C 5058   6.634   1.117   3.864  0.2740  0.3084 -1.4433
   53CHL1   C12 5059   6.446   1.313   3.838  0.5072  0.1788  0.3348
   53CHL1  H12A 5060   6.384   1.254   3.908 -1.5002 -0.2461 -1.6734
   53CHL1  H12B 5061   6.409   1.418   3.828  3.3610  1.0870 -1.9086
   53CHL1   C11 5062   6.446   1.249   3.702  0.0966  0.0665  0.5084
   53CHL1  H11A 5063   6.464   1.141   3.718 -0.2054 -0.3209 -1.5704
   53CHL1  H11B 5064   6.344   1.254   3.658 -0.1858 -1.2343  0.9653
   53CHL1    C9 5065   6.547   1.307   3.598 -0.4198 -0.1022  0.3372
   53CHL1    H9 5066   6.527   1.415   3.582 -0.8684 -0.6269 -3.4667
   53CHL1   C10 5067   6.535   1.238   3.460  0.2751  0.3735 -0.4882
   53CHL1   C19 5068   6.524   1.083   3.485 -0.0619 -0.0144  0.6251
   53CHL1  H19A 5069   6.512   1.026   3.391  0.2071 -0.5058  0.8847
   53CHL1  H19B 5070   6.602   1.042   3.553  2.0744  2.1040 -0.4157
   53CHL1  H19C 5071   6.429   1.067   3.540 -0.1669 -0.4151  0.3308
   53CHL1    C1 5072   6.411   1.301   3.389 -0.4137 -0.0607 -0.7724
   53CHL1   H1A 5073   6.312   1.271   3.429  1.6120 -5.0201  1.3642
   53CHL1   H1B 5074   6.418   1.408   3.416 -0.9696 -0.2563  0.1900
   53CHL1    C2 5075   6.410   1.262   3.243  0.7062 -0.2800  0.0532
   53CHL1   H2A 5076   6.324   1.315   3.195  0.5928  1.2977  1.9010
   53CHL1   H2B 5077   6.392   1.154   3.226 -0.8940 -0.0524  0.1221
   53CHL1   C20 5078   6.578   1.399   4.165 -0.3713 -0.7288  0.0050
   53CHL1   H20 5079   6.618   1.298   4.184  0.9586 -0.2214 -0.0125
   53CHL1   C21 5080   6.428   1.407   4.173  0.5506  0.1539  0.3085
   53CHL1  H21A 5081   6.376   1.338   4.103  1.1176  2.0535 -2.1125
   53CHL1  H21B 5082   6.399   1.510   4.145  1.7489  0.5627  0.5295
   53CHL1  H21C 5083   6.391   1.389   4.277  0.2684 -2.2974 -0.1533
   53CHL1   C22 5084   6.639   1.494   4.270  0.7884  0.2023  0.3211
   53CHL1  H22A 5085   6.747   1.472   4.287  0.8687  0.1929 -0.1842
   53CHL1  H22B 5086   6.642   1.601   4.241 -1.5479  1.0007  2.6422
   53CHL1   C23 5087   6.572   1.490   4.413  0.0475 -0.5139  0.3819
   53CHL1  H23A 5088   6.470   1.535   4.407  0.5653  0.5311 -1.7758
   53CHL1  H23B 5089   6.564   1.384   4.444 -0.3002 -0.3198  0.9803
   53CHL1   C24 5090   6.647   1.567   4.526  0.2273 -0.8746  0.1498
   53CHL1  H24A 5091   6.748   1.522   4.522 -1.0641 -4.1400  0.9777
   53CHL1  H24B 5092   6.655   1.675   4.504  0.2999 -0.9919 -0.4276
   53CHL1   C25 5093   6.604   1.550   4.675  0.5268 -0.1046  0.5340
   53CHL1   H25 5094   6.605   1.439   4.689 -1.6772 -0.2260  0.0517
   53CHL1   C26 5095   6.707   1.610   4.774  0.2426  0.2317 -0.5025
   53CHL1  H26A 5096   6.714   1.720   4.762 -0.7940  0.5180  1.1602
   53CHL1  H26B 5097   6.677   1.594   4.880 -1.0756 -0.0283 -0.8921
   53CHL1  H26C 5098   6.806   1.564   4.752  0.2220 -0.4210  0.6649
   53CHL1   C27 5099   6.469   1.612   4.702 -0.6654  0.1028 -0.1715
   53CHL1  H27A 5100   6.388   1.561   4.644 -0.2773 -0.4245 -0.2597
   53CHL1  H27B 5101   6.445   1.612   4.810 -0.0620 -0.7041 -0.0252
   53CHL1  H27C 5102   6.476   1.718   4.669 -0.4235  0.0572 -0.2685
   54CHL1    C3 5103   1.055   3.000   3.217 -0.4661 -0.0638  0.8752
   54CHL1    H3 5104   1.066   3.109   3.238 -1.8215  0.3340 -0.2971
   54CHL1    O3 5105   0.981   3.002   3.097 -0.4299  0.2104 -0.3249
   54CHL1   H3' 5106   0.968   2.909   3.077  3.5688 -0.3231 -1.1080
   54CHL1    C4 5107   1.196   2.935   3.185 -0.0776  0.3621  0.5186
   54CHL1   H4A 5108   1.181   2.829   3.155  3.2820  0.6586 -2.9692
   54CHL1   H4B 5109   1.239   2.975   3.091  1.1103 -2.3486 -0.1895
   54CHL1    C5 5110   1.280   2.966   3.306  0.8353 -0.0459  0.3106
   54CHL1    C6 5111   1.395   3.039   3.315 -0.1271  0.5037  0.0586
   54CHL1    H6 5112   1.447   3.080   3.227  0.6962  0.8358  0.6845
   54CHL1    C7 5113   1.478   3.058   3.436 -0.0076  0.0157  0.0690
   54CHL1   H7A 5114   1.585   3.061   3.405 -0.0808  1.1210 -0.1376
   54CHL1   H7B 5115   1.444   3.157   3.472  1.1915  1.9988 -3.6612
   54CHL1    C8 5116   1.448   2.958   3.541  0.2838  0.2549 -0.1675
   54CHL1    H8 5117   1.482   2.855   3.516  2.5222  0.7237  0.7112
   54CHL1   C14 5118   1.512   3.005   3.666 -0.5910 -0.4665 -0.0030
   54CHL1   H14 5119   1.461   3.101   3.691 -1.2568 -1.3726  2.3977
   54CHL1   C15 5120   1.661   3.040   3.663  0.0645  0.0201 -0.4137
   54CHL1  H15A 5121   1.713   2.953   3.615  3.8461  2.2572 -0.7904
   54CHL1  H15B 5122   1.690   3.134   3.612  1.4298 -0.2186 -0.1262
   54CHL1   C16 5123   1.701   3.039   3.812 -0.0954  0.1372  0.5775
   54CHL1  H16A 5124   1.790   2.972   3.803  0.0861  0.6661 -2.7784
   54CHL1  H16B 5125   1.725   3.138   3.856 -2.2795 -0.0443  2.3242
   54CHL1   C17 5126   1.577   2.992   3.892 -0.2530  0.7141 -0.4587
   54CHL1   H17 5127   1.517   3.085   3.905 -0.6729  0.4583 -0.5334
   54CHL1   C13 5128   1.490   2.915   3.789 -0.1186 -0.2308 -0.2993
   54CHL1   C18 5129   1.549   2.771   3.775 -0.1660  0.7321  0.1334
   54CHL1  H18A 5130   1.512   2.712   3.862 -1.5705 -0.0303 -0.9387
   54CHL1  H18B 5131   1.511   2.713   3.688  1.2131  0.3301 -0.2311
   54CHL1  H18C 5132   1.659   2.762   3.768 -0.2432 -0.9849  0.6318
   54CHL1   C12 5133   1.338   2.916   3.813  0.2017 -0.5467  0.1124
   54CHL1  H12A 5134   1.327   2.846   3.900 -0.1583 -1.6959 -0.8319
   54CHL1  H12B 5135   1.295   3.016   3.833 -1.1003 -0.8479 -1.0052
   54CHL1   C11 5136   1.258   2.866   3.693 -0.0723 -0.2628  0.6696
   54CHL1  H11A 5137   1.289   2.759   3.689 -0.5103 -0.4517  1.8402
   54CHL1  H11B 5138   1.149   2.875   3.714  0.1641 -0.3263  2.0667
   54CHL1    C9 5139   1.296   2.935   3.561 -0.3074  0.0466  0.0613
   54CHL1    H9 5140   1.260   3.040   3.571  0.9661  0.9078 -3.0994
   54CHL1   C10 5141   1.220   2.899   3.431 -0.0170  0.1553  0.6932
   54CHL1   C19 5142   1.227   2.745   3.411 -0.1588  0.1570  0.8964
   54CHL1  H19A 5143   1.177   2.689   3.493 -2.1478 -1.6212 -1.3585
   54CHL1  H19B 5144   1.177   2.710   3.318 -1.0847  1.8826  0.7114
   54CHL1  H19C 5145   1.334   2.716   3.407  0.3300  1.8239  1.1643
   54CHL1    C1 5146   1.072   2.934   3.456  0.1079 -0.3540  0.3458
   54CHL1   H1A 5147   1.036   2.860   3.531 -0.6546 -0.3652 -0.0296
   54CHL1   H1B 5148   1.062   3.039   3.491  3.1120  0.6736 -1.4938
   54CHL1    C2 5149   0.984   2.934   3.330  0.4840  0.0473  0.1836
   54CHL1   H2A 5150   0.894   2.990   3.364  0.2613 -0.1020 -0.1554
   54CHL1   H2B 5151   0.960   2.831   3.294  1.6398 -0.1628 -0.0025
   54CHL1   C20 5152   1.614   2.934   4.032  0.0586  0.1341  0.6412
   54CHL1   H20 5153   1.670   2.842   4.005  0.9568  0.2603  2.0025
   54CHL1   C21 5154   1.495   2.880   4.109  0.1311  0.3097 -0.0789
   54CHL1  H21A 5155   1.453   2.789   4.061 -1.6142 -0.0661  1.9956
   54CHL1  H21B 5156   1.414   2.956   4.120 -0.4621 -0.3969  0.5375
   54CHL1  H21C 5157   1.535   2.853   4.209  2.1505  1.7374 -0.4443
   54CHL1   C22 5158   1.702   3.031   4.120  0.2508 -0.0719  0.3449
   54CHL1  H22A 5159   1.780   3.066   4.048 -1.0369 -1.0882 -1.6134
   54CHL1  H22B 5160   1.638   3.108   4.167 -0.6587 -0.5059 -0.1535
   54CHL1   C23 5161   1.780   2.959   4.229  0.6333 -0.0240  0.1879
   54CHL1  H23A 5162   1.708   2.899   4.288  1.4967 -1.8821 -0.5710
   54CHL1  H23B 5163   1.855   2.886   4.193 -0.6152 -0.7270 -1.0587
   54CHL1   C24 5164   1.858   3.062   4.315 -0.6711  0.0400 -0.6389
   54CHL1  H24A 5165   1.932   3.107   4.245  1.8893 -2.5346  0.1838
   54CHL1  H24B 5166   1.790   3.138   4.359  0.2420  0.4263  0.1646
   54CHL1   C25 5167   1.933   2.993   4.441 -0.0868 -0.5635  0.1537
   54CHL1   H25 5168   1.970   3.080   4.501  0.3643 -1.5108  1.2792
   54CHL1   C26 5169   1.834   2.918   4.534  0.3766  0.3577 -0.2061
   54CHL1  H26A 5170   1.798   2.833   4.473 -1.5430  0.6218  0.4902
   54CHL1  H26B 5171   1.880   2.879   4.627  0.3647 -1.7582 -1.0404
   54CHL1  H26C 5172   1.753   2.986   4.567 -0.3731 -0.5567 -0.1262
   54CHL1   C27 5173   2.053   2.908   4.396 -0.8112 -0.1659  0.0579
   54CHL1  H27A 5174   2.108   2.881   4.489 -0.7127 -0.4608 -0.0869
   54CHL1  H27B 5175   2.009   2.824   4.338 -0.5741 -0.5819  0.4780
   54CHL1  H27C 5176   2.120   2.965   4.328 -0.7355  0.6455  0.7972
   55CHL1    C3 5177   4.426   4.567   3.177 -0.3800  0.0184  0.9125
   55CHL1    H3 5178   4.348   4.646   3.172  2.4040  3.0063 -3.5342
   55CHL1    O3 5179   4.451   4.543   3.036  0.2007 -0.5287  0.1140
   55CHL1   H3' 5180   4.515   4.608   3.005  0.7705 -1.3599 -0.4973
   55CHL1    C4 5181   4.548   4.632   3.243 -0.0083  0.2453 -0.1781
   55CHL1   H4A 5182   4.639   4.574   3.219 -0.5221 -1.4812  1.6569
   55CHL1   H4B 5183   4.558   4.730   3.192 -0.1535 -0.0874 -0.8597
   55CHL1    C5 5184   4.544   4.656   3.396 -0.0366 -0.5321 -0.5510
   55CHL1    C6 5185   4.578   4.775   3.442 -0.4390 -0.2855  0.1412
   55CHL1    H6 5186   4.612   4.856   3.377  1.0705 -1.8117 -1.0612
   55CHL1    C7 5187   4.592   4.793   3.590 -0.2612  0.4532 -0.2263
   55CHL1   H7A 5188   4.695   4.835   3.600  0.1108 -0.3914 -0.4617
   55CHL1   H7B 5189   4.514   4.864   3.625 -1.2721  0.3207 -2.1276
   55CHL1    C8 5190   4.579   4.672   3.677 -0.5412  0.3060 -0.0057
   55CHL1    H8 5191   4.675   4.616   3.679 -0.9484 -0.4318  2.0445
   55CHL1   C14 5192   4.547   4.706   3.824 -0.2879 -0.0945 -0.1749
   55CHL1   H14 5193   4.447   4.753   3.811  1.1170  3.2078 -0.1037
   55CHL1   C15 5194   4.634   4.816   3.890  0.7240 -0.2853 -0.6550
   55CHL1  H15A 5195   4.736   4.775   3.873  0.1676 -1.3484 -1.6175
   55CHL1  H15B 5196   4.625   4.916   3.843 -0.3774  0.6635  1.4246
   55CHL1   C16 5197   4.585   4.808   4.038  0.5501 -0.0470  0.3449
   55CHL1  H16A 5198   4.676   4.810   4.101 -0.9658 -2.5138  2.8434
   55CHL1  H16B 5199   4.513   4.890   4.061 -0.0225 -0.5275  0.3095
   55CHL1   C17 5200   4.515   4.670   4.056 -0.2273  0.3104  0.0459
   55CHL1   H17 5201   4.406   4.695   4.058 -0.5400 -0.6571 -2.1918
   55CHL1   C13 5202   4.536   4.588   3.922  0.8783  0.3728  0.2081
   55CHL1   C18 5203   4.672   4.505   3.930  0.9381 -0.0934  0.0213
   55CHL1  H18A 5204   4.655   4.415   3.992  2.0433  0.6759  1.4984
   55CHL1  H18B 5205   4.710   4.469   3.831 -0.2086  0.0043 -0.4659
   55CHL1  H18C 5206   4.752   4.568   3.974  1.6744  0.1769 -1.6261
   55CHL1   C12 5207   4.423   4.501   3.870 -0.0554 -0.4075  0.0168
   55CHL1  H12A 5208   4.409   4.409   3.931 -1.5110 -0.9290 -1.0255
   55CHL1  H12B 5209   4.325   4.554   3.872  1.0797  1.8071 -0.4410
   55CHL1   C11 5210   4.446   4.460   3.724  0.3070 -0.1117  0.7087
   55CHL1  H11A 5211   4.526   4.383   3.722  0.6913  0.2959  0.2147
   55CHL1  H11B 5212   4.358   4.401   3.692  1.4213 -0.7455 -1.3086
   55CHL1    C9 5213   4.468   4.580   3.627 -0.2295 -0.4075 -0.8525
   55CHL1    H9 5214   4.376   4.642   3.623  0.9278  1.5446  0.8956
   55CHL1   C10 5215   4.494   4.537   3.476  0.5431 -0.4817 -0.0638
   55CHL1   C19 5216   4.598   4.419   3.474 -0.2770 -1.3830  0.3927
   55CHL1  H19A 5217   4.622   4.405   3.366 -1.6737  0.0710 -0.1543
   55CHL1  H19B 5218   4.691   4.462   3.515 -1.8018  1.2572  1.3041
   55CHL1  H19C 5219   4.562   4.327   3.525  0.5705 -1.6217  0.5639
   55CHL1    C1 5220   4.362   4.488   3.402  0.6211  0.6251  0.3749
   55CHL1   H1A 5221   4.329   4.395   3.453  3.2104  0.2159  1.4486
   55CHL1   H1B 5222   4.288   4.570   3.416  1.3524  1.3264  0.2130
   55CHL1    C2 5223   4.383   4.445   3.252  0.0286 -1.7364  0.0604
   55CHL1   H2A 5224   4.293   4.404   3.200  0.4806 -2.0127 -0.5132
   55CHL1   H2B 5225   4.457   4.362   3.243  0.5130 -1.1490 -1.6057
   55CHL1   C20 5226   4.547   4.598   4.186  0.0224  0.0632 -0.7005
   55CHL1   H20 5227   4.644   4.543   4.185 -0.3372 -0.6023  0.1243
   55CHL1   C21 5228   4.434   4.492   4.214 -0.3504  0.2074  0.5348
   55CHL1  H21A 5229   4.343   4.552   4.235  0.4617  1.0030  1.8782
   55CHL1  H21B 5230   4.460   4.429   4.301  1.2040  0.2668  0.1364
   55CHL1  H21C 5231   4.419   4.416   4.135  0.9115  0.2380  0.2508
   55CHL1   C22 5232   4.556   4.696   4.313 -0.2849 -0.4238  0.5502
   55CHL1  H22A 5233   4.643   4.761   4.287 -0.9840 -0.5347 -2.3457
   55CHL1  H22B 5234   4.454   4.737   4.329 -0.1040 -0.0758  0.8504
   55CHL1   C23 5235   4.601   4.632   4.444  1.2115  0.0613  0.3690
   55CHL1  H23A 5236   4.542   4.541   4.467  0.4948  0.3700 -0.1824
   55CHL1  H23B 5237   4.711   4.624   4.438  1.1364 -0.5840 -0.4384
   55CHL1   C24 5238   4.585   4.734   4.562 -0.1469  0.0629 -0.1347
   55CHL1  H24A 5239   4.614   4.836   4.530  0.5113 -0.7078 -2.1538
   55CHL1  H24B 5240   4.477   4.750   4.583 -0.1138 -1.0293  0.9486
   55CHL1   C25 5241   4.636   4.670   4.694 -0.6562 -0.0491 -0.0488
   55CHL1   H25 5242   4.602   4.565   4.695 -3.3819  0.7579  2.1290
   55CHL1   C26 5243   4.792   4.675   4.692  0.5485 -1.0258 -0.4946
   55CHL1  H26A 5244   4.821   4.779   4.663 -0.5486 -0.1292  1.4151
   55CHL1  H26B 5245   4.831   4.636   4.788  0.0251 -0.2202  0.0635
   55CHL1  H26C 5246   4.825   4.612   4.607 -2.3724 -1.1094 -1.6973
   55CHL1   C27 5247   4.579   4.739   4.822 -0.5757  0.4002  0.9692
   55CHL1  H27A 5248   4.628   4.839   4.818  1.1751 -0.3975  1.6386
   55CHL1  H27B 5249   4.468   4.742   4.821 -0.6181 -0.5564  1.4153
   55CHL1  H27C 5250   4.606   4.676   4.910  0.7370  0.3442  0.5573
   56CHL1    C3 5251   6.139   5.432   2.943  0.4825 -0.5014 -0.5999
   56CHL1    H3 5252   6.077   5.523   2.952 -0.5292 -1.1729 -0.6915
   56CHL1    O3 5253   6.130   5.387   2.814 -1.2209 -0.1299 -0.3265
   56CHL1   H3' 5254   6.160   5.462   2.762 -1.2147 -0.8707 -1.4154
   56CHL1    C4 5255   6.287   5.456   2.979  0.2312  0.2772 -0.5937
   56CHL1   H4A 5256   6.346   5.362   2.979 -2.1206 -1.2753 -0.4760
   56CHL1   H4B 5257   6.337   5.519   2.902 -1.3686  0.4006 -1.5687
   56CHL1    C5 5258   6.287   5.516   3.116  0.5988  0.2857 -0.5482
   56CHL1    C6 5259   6.338   5.639   3.137 -0.5592  0.8851 -0.4547
   56CHL1    H6 5260   6.400   5.686   3.059  2.1920 -0.7469  0.6224
   56CHL1    C7 5261   6.353   5.700   3.273 -0.0235 -0.2148  0.1246
   56CHL1   H7A 5262   6.440   5.766   3.295  0.5012 -1.2091  1.1231
   56CHL1   H7B 5263   6.267   5.767   3.293  0.3329  0.0191  0.9295
   56CHL1    C8 5264   6.343   5.592   3.384  0.3888 -0.2059  0.0770
   56CHL1    H8 5265   6.430   5.524   3.376 -0.7163 -1.4834 -2.1783
   56CHL1   C14 5266   6.343   5.654   3.525  0.6951  0.2238 -0.7593
   56CHL1   H14 5267   6.252   5.717   3.528 -0.1052 -0.9277 -0.3566
   56CHL1   C15 5268   6.457   5.753   3.558  0.0717  0.0590  0.3057
   56CHL1  H15A 5269   6.545   5.702   3.513 -1.4009 -0.2959 -2.3412
   56CHL1  H15B 5270   6.441   5.850   3.508 -0.5996  0.1993  0.7839
   56CHL1   C16 5271   6.446   5.766   3.711  1.4109  0.3726 -0.6339
   56CHL1  H16A 5272   6.543   5.742   3.760 -0.0778 -0.4632  2.1370
   56CHL1  H16B 5273   6.409   5.867   3.739  0.2066  0.2173 -1.5908
   56CHL1   C17 5274   6.343   5.654   3.766  0.1979 -0.0742  0.4174
   56CHL1   H17 5275   6.244   5.703   3.766  0.2839  0.1623 -1.3869
   56CHL1   C13 5276   6.329   5.555   3.639 -0.0459 -0.5152  0.1030
   56CHL1   C18 5277   6.448   5.453   3.650  0.0561  0.4913  0.4064
   56CHL1  H18A 5278   6.550   5.498   3.652 -0.0555  0.7641  2.3373
   56CHL1  H18B 5279   6.446   5.386   3.739  1.4682  0.0522  0.1329
   56CHL1  H18C 5280   6.451   5.381   3.566 -2.0494 -1.1600  1.6524
   56CHL1   C12 5281   6.191   5.483   3.621 -0.4814  0.2216  0.8164
   56CHL1  H12A 5282   6.171   5.424   3.713  0.3662 -0.8950  0.3047
   56CHL1  H12B 5283   6.120   5.569   3.618  1.6938  2.1575  1.7978
   56CHL1   C11 5284   6.171   5.419   3.476  0.7818  0.1389 -0.5288
   56CHL1  H11A 5285   6.251   5.343   3.484 -0.1378 -0.8360 -0.2982
   56CHL1  H11B 5286   6.079   5.356   3.471  2.1957 -2.0009 -0.8662
   56CHL1    C9 5287   6.212   5.510   3.359  0.2413  0.2402  0.7326
   56CHL1    H9 5288   6.129   5.584   3.360  0.8612  1.1652 -2.4684
   56CHL1   C10 5289   6.220   5.430   3.222 -0.0391  0.4041 -0.2632
   56CHL1   C19 5290   6.310   5.309   3.237  0.2949  0.1687 -0.3138
   56CHL1  H19A 5291   6.261   5.235   3.304 -1.9317  0.1397 -1.8605
   56CHL1  H19B 5292   6.330   5.239   3.152  2.0862  0.9828 -0.6200
   56CHL1  H19C 5293   6.404   5.330   3.292  0.7698  2.6715 -1.9174
   56CHL1    C1 5294   6.084   5.377   3.173  0.3733  0.5106 -0.7893
   56CHL1   H1A 5295   6.055   5.294   3.241 -0.4500  1.4377  0.0244
   56CHL1   H1B 5296   6.004   5.450   3.198 -0.5732 -1.0142  0.9581
   56CHL1    C2 5297   6.087   5.321   3.032  0.3113 -1.1292 -0.2868
   56CHL1   H2A 5298   5.984   5.298   2.995 -0.2464  0.5771  0.0891
   56CHL1   H2B 5299   6.137   5.223   3.023 -0.0899 -1.2713 -1.1244
   56CHL1   C20 5300   6.381   5.609   3.907  0.2358 -0.2344 -0.4585
   56CHL1   H20 5301   6.478   5.556   3.895  0.0405 -1.2818  2.0671
   56CHL1   C21 5302   6.277   5.504   3.961 -0.4892  0.3237  0.0718
   56CHL1  H21A 5303   6.273   5.427   3.881  1.2189  1.2206 -0.9142
   56CHL1  H21B 5304   6.176   5.544   3.984  0.3891  0.3725  4.9504
   56CHL1  H21C 5305   6.306   5.453   4.056 -0.6577  1.0179  0.5031
   56CHL1   C22 5306   6.404   5.723   4.010 -0.6188 -0.1887  0.2075
   56CHL1  H22A 5307   6.478   5.796   3.971  1.3252 -0.9236  2.2957
   56CHL1  H22B 5308   6.304   5.770   4.026 -0.5756 -0.0957  0.2046
   56CHL1   C23 5309   6.463   5.672   4.143 -0.1838  0.4305 -0.9120
   56CHL1  H23A 5310   6.397   5.602   4.200  0.8529 -0.4287 -0.7270
   56CHL1  H23B 5311   6.548   5.601   4.131 -1.4682 -1.4835  0.5695
   56CHL1   C24 5312   6.502   5.785   4.246  0.0415  0.6098  0.1031
   56CHL1  H24A 5313   6.568   5.852   4.186  2.7498 -0.9971  1.0953
   56CHL1  H24B 5314   6.411   5.846   4.265 -0.7282 -0.7242  0.7869
   56CHL1   C25 5315   6.559   5.739   4.384  0.4467 -0.6633 -0.0220
   56CHL1   H25 5316   6.652   5.680   4.372  1.5133  0.9294  0.0571
   56CHL1   C26 5317   6.592   5.859   4.476 -0.3559 -0.5740 -0.4995
   56CHL1  H26A 5318   6.569   5.821   4.578 -2.8948 -0.9871 -1.1685
   56CHL1  H26B 5319   6.694   5.902   4.471 -0.4019 -0.3538  0.3445
   56CHL1  H26C 5320   6.518   5.941   4.469  2.1545  2.0085  1.1711
   56CHL1   C27 5321   6.452   5.657   4.458 -0.5694 -0.3246 -0.0907
   56CHL1  H27A 5322   6.350   5.702   4.458 -0.2729  0.4001  1.0392
   56CHL1  H27B 5323   6.428   5.557   4.415 -0.7762 -1.5457  2.6563
   56CHL1  H27C 5324   6.486   5.637   4.562 -0.5745  1.1802  0.2231
   57CHL1    C3 5325   5.047   4.550   3.293  0.0681  0.0831  0.2712
   57CHL1    H3 5326   5.117   4.637   3.290 -0.3900  0.4241 -1.7843
   57CHL1    O3 5327   5.017   4.517   3.158 -0.2878  0.0581 -0.3647
   57CHL1   H3' 5328   4.949   4.450   3.169 -0.6531  0.4911  0.0434
   57CHL1    C4 5329   5.117   4.430   3.358  0.0878 -0.1357 -0.2832
   57CHL1   H4A 5330   5.046   4.346   3.345 -2.0966  1.3811  1.1051
   57CHL1   H4B 5331   5.208   4.404   3.300  0.3409 -1.5605  0.6896
   57CHL1    C5 5332   5.153   4.455   3.495 -0.6562 -0.2617 -0.6519
   57CHL1    C6 5333   5.284   4.451   3.536 -0.3273 -0.0643 -0.9284
   57CHL1    H6 5334   5.372   4.418   3.479  0.0006  0.3999 -0.6977
   57CHL1    C7 5335   5.321   4.486   3.685 -0.3058  0.0632 -0.3267
   57CHL1   H7A 5336   5.386   4.408   3.730 -0.8597 -0.6389 -0.7208
   57CHL1   H7B 5337   5.380   4.580   3.683  2.1640 -1.4157 -1.7663
   57CHL1    C8 5338   5.201   4.499   3.780  0.5184  0.0848 -0.6385
   57CHL1    H8 5339   5.174   4.391   3.791  1.1708  0.0755  1.1984
   57CHL1   C14 5340   5.242   4.560   3.911  1.2030  0.0670  0.1437
   57CHL1   H14 5341   5.262   4.668   3.896 -0.2306  0.0398 -2.8066
   57CHL1   C15 5342   5.369   4.509   3.984 -0.3674  0.4038 -0.1145
   57CHL1  H15A 5343   5.377   4.399   3.971 -1.6345  0.2820 -0.0217
   57CHL1  H15B 5344   5.452   4.569   3.941 -0.8057  0.6006 -0.7045
   57CHL1   C16 5345   5.356   4.543   4.129  0.0623  0.7025 -0.3933
   57CHL1  H16A 5346   5.361   4.448   4.187  1.4589  0.5953 -0.6670
   57CHL1  H16B 5347   5.433   4.617   4.159  1.0281 -0.9154  1.4074
   57CHL1   C17 5348   5.213   4.601   4.143 -0.7872  0.3362  0.2690
   57CHL1   H17 5349   5.232   4.711   4.136 -1.6756  0.4300 -0.9145
   57CHL1   C13 5350   5.131   4.566   4.013 -0.0099 -0.0138 -0.1324
   57CHL1   C18 5351   5.079   4.424   4.039  0.0066 -0.2540 -0.5154
   57CHL1  H18A 5352   5.155   4.359   4.087  0.4305  0.0052 -0.8304
   57CHL1  H18B 5353   4.992   4.429   4.107 -0.0518 -3.8604 -0.1173
   57CHL1  H18C 5354   5.054   4.377   3.942  1.9845 -3.5684  0.4284
   57CHL1   C12 5355   5.013   4.652   3.952  0.5400  0.3528 -0.5176
   57CHL1  H12A 5356   4.924   4.651   4.019  1.3355  0.5610  0.5882
   57CHL1  H12B 5357   5.030   4.762   3.955  2.2284  0.1090  0.0546
   57CHL1   C11 5358   4.973   4.606   3.817  0.0789  0.1936  0.2020
   57CHL1  H11A 5359   4.934   4.504   3.836  1.1498 -0.2359  0.1571
   57CHL1  H11B 5360   4.889   4.660   3.768  0.3710  1.2944  0.8781
   57CHL1    C9 5361   5.087   4.574   3.715  0.1474  0.2370 -0.0358
   57CHL1    H9 5362   5.127   4.674   3.685 -0.4086  1.0733  1.8689
   57CHL1   C10 5363   5.034   4.505   3.583 -0.1293 -0.1225 -0.6993
   57CHL1   C19 5364   4.955   4.377   3.612  0.5569 -0.0444  0.4570
   57CHL1  H19A 5365   4.866   4.393   3.676  0.2420 -0.3488  0.0981
   57CHL1  H19B 5366   4.899   4.334   3.527  0.5866  0.3729  0.2246
   57CHL1  H19C 5367   5.012   4.288   3.645 -0.3516 -2.4808 -3.7802
   57CHL1    C1 5368   4.943   4.612   3.513 -0.1604  0.1521 -0.5736
   57CHL1   H1A 5369   4.850   4.618   3.573  0.1833  1.3052 -0.1284
   57CHL1   H1B 5370   4.995   4.710   3.515 -0.6434  0.4214 -1.0231
   57CHL1    C2 5371   4.916   4.580   3.373  0.1115  0.5367 -0.2998
   57CHL1   H2A 5372   4.877   4.672   3.325 -0.8451  1.0876  1.4609
   57CHL1   H2B 5373   4.841   4.500   3.354  2.2411 -1.6767  0.1019
   57CHL1   C20 5374   5.153   4.588   4.277 -0.1676 -0.5721  0.2167
   57CHL1   H20 5375   5.112   4.486   4.294 -2.0899  0.2131  0.5207
   57CHL1   C21 5376   5.034   4.676   4.301  0.6653  0.2310 -0.0997
   57CHL1  H21A 5377   4.976   4.657   4.394 -0.0919 -0.4067 -0.6900
   57CHL1  H21B 5378   4.960   4.661   4.220 -1.0083 -1.5859  1.6655
   57CHL1  H21C 5379   5.066   4.782   4.303  0.1557  0.4212 -1.3726
   57CHL1   C22 5380   5.254   4.623   4.390 -0.3539  0.1422 -0.8608
   57CHL1  H22A 5381   5.347   4.562   4.387 -0.2139  0.2110  1.0047
   57CHL1  H22B 5382   5.277   4.732   4.389 -2.2070  0.5697 -0.8543
   57CHL1   C23 5383   5.202   4.620   4.542  0.2061  0.2492  0.2434
   57CHL1  H23A 5384   5.126   4.697   4.567  0.2080  0.4302 -0.2954
   57CHL1  H23B 5385   5.157   4.519   4.560  2.7274 -1.4195 -2.1649
   57CHL1   C24 5386   5.311   4.658   4.644 -0.7920  0.3433  1.0278
   57CHL1  H24A 5387   5.410   4.621   4.611 -0.7026  0.1992  1.4618
   57CHL1  H24B 5388   5.316   4.769   4.649 -0.7512  0.3293  1.3148
   57CHL1   C25 5389   5.280   4.604   4.786  0.2245  0.5287  0.1882
   57CHL1   H25 5390   5.283   4.493   4.784 -0.2084  0.5240 -0.2174
   57CHL1   C26 5391   5.401   4.655   4.865  0.6165 -0.1066  0.5253
   57CHL1  H26A 5392   5.379   4.763   4.877  1.8527  0.0630  1.3639
   57CHL1  H26B 5393   5.402   4.617   4.969  1.0308 -0.3125  0.4488
   57CHL1  H26C 5394   5.495   4.625   4.815 -0.2735 -0.9026 -0.7477
   57CHL1   C27 5395   5.140   4.658   4.834 -0.7721  0.3287  0.5374
   57CHL1  H27A 5396   5.135   4.647   4.944 -0.0204  0.6051  0.6066
   57CHL1  H27B 5397   5.126   4.762   4.796 -0.0015  0.1498 -0.2713
   57CHL1  H27C 5398   5.060   4.591   4.796  1.2858 -2.2378  0.4870
   58CHL1    C3 5399   4.005   5.575   3.248  1.0328  0.1858  0.6169
   58CHL1    H3 5400   3.969   5.671   3.291  0.7979 -0.6318  2.3738
   58CHL1    O3 5401   4.011   5.583   3.109  0.3974 -0.0577  0.3909
   58CHL1   H3' 5402   4.020   5.493   3.075 -2.0566 -0.4722  0.6385
   58CHL1    C4 5403   4.137   5.543   3.318  0.0955  0.3158 -0.7729
   58CHL1   H4A 5404   4.173   5.444   3.283  1.2129 -0.3612  1.9701
   58CHL1   H4B 5405   4.219   5.609   3.283 -0.5879  1.1678 -0.7758
   58CHL1    C5 5406   4.122   5.534   3.470 -0.0512  0.9368  0.2709
   58CHL1    C6 5407   4.177   5.624   3.552 -0.4857  0.4665  0.7059
   58CHL1    H6 5408   4.246   5.701   3.515 -0.9089  0.9080  0.8300
   58CHL1    C7 5409   4.161   5.626   3.698  0.9122  0.4129 -0.2724
   58CHL1   H7A 5410   4.262   5.638   3.743  1.8698  2.4849 -2.7164
   58CHL1   H7B 5411   4.106   5.718   3.726  1.8991  0.3743  1.9987
   58CHL1    C8 5412   4.096   5.492   3.744 -0.0042 -0.2840 -0.1019
   58CHL1    H8 5413   4.171   5.410   3.739  1.5529  1.1438 -0.8974
   58CHL1   C14 5414   4.056   5.516   3.890 -0.0945  0.1237 -0.7662
   58CHL1   H14 5415   3.995   5.609   3.883  1.9027  1.5508 -0.3207
   58CHL1   C15 5416   4.156   5.574   3.995  0.5353  0.2713  1.2224
   58CHL1  H15A 5417   4.258   5.538   3.968  1.4871  2.2242  2.0822
   58CHL1  H15B 5418   4.152   5.684   3.998 -0.8161  0.3007 -0.1437
   58CHL1   C16 5419   4.107   5.529   4.134 -1.0437 -0.2139  0.6371
   58CHL1  H16A 5420   4.171   5.452   4.183 -2.2847 -0.6766  1.5814
   58CHL1  H16B 5421   4.085   5.620   4.193 -0.9103  1.5317 -1.8642
   58CHL1   C17 5422   3.965   5.470   4.102 -0.3116  0.2650 -0.6579
   58CHL1   H17 5423   3.901   5.560   4.091 -1.1227 -0.3586 -1.2180
   58CHL1   C13 5424   3.976   5.409   3.958  0.4087  0.3555 -0.2128
   58CHL1   C18 5425   4.067   5.290   3.961 -0.1623  0.0108 -0.0778
   58CHL1  H18A 5426   4.094   5.259   3.858  0.1988  2.1350 -0.6574
   58CHL1  H18B 5427   4.163   5.310   4.014  0.1687  1.1921 -1.0714
   58CHL1  H18C 5428   4.012   5.203   4.004  1.3405 -0.8121  0.2613
   58CHL1   C12 5429   3.850   5.379   3.878  0.7191 -0.8893  0.2372
   58CHL1  H12A 5430   3.796   5.292   3.920 -1.7423  1.6560  2.7037
   58CHL1  H12B 5431   3.771   5.456   3.884 -1.4713 -2.8141 -1.8129
   58CHL1   C11 5432   3.885   5.342   3.730 -0.0811  0.0235  0.1116
   58CHL1  H11A 5433   3.923   5.238   3.728 -0.0631  0.0351 -0.2408
   58CHL1  H11B 5434   3.792   5.333   3.669 -0.5409 -1.3782  0.9815
   58CHL1    C9 5435   3.974   5.453   3.668  0.5322 -0.2084 -0.3852
   58CHL1    H9 5436   3.919   5.549   3.666  0.7261 -0.1008 -0.5682
   58CHL1   C10 5437   4.013   5.429   3.521  0.2806 -0.7114  0.3870
   58CHL1   C19 5438   4.071   5.284   3.496 -0.1094  0.4018 -0.3129
   58CHL1  H19A 5439   3.993   5.207   3.512 -0.4191  0.8150  0.1663
   58CHL1  H19B 5440   4.111   5.270   3.393  2.0163 -0.3826  0.5654
   58CHL1  H19C 5441   4.156   5.271   3.566  0.0683  0.3229 -0.5423
   58CHL1    C1 5442   3.885   5.438   3.434  0.5707  0.3069 -0.4287
   58CHL1   H1A 5443   3.819   5.350   3.448  0.1079  0.6859 -0.1581
   58CHL1   H1B 5444   3.835   5.531   3.469  0.7187  0.2719 -0.1230
   58CHL1    C2 5445   3.913   5.455   3.289  0.6544 -0.0504 -0.4882
   58CHL1   H2A 5446   3.813   5.479   3.247 -0.3276  1.8716  2.5909
   58CHL1   H2B 5447   3.944   5.360   3.240  0.0894 -0.5207  0.0356
   58CHL1   C20 5448   3.921   5.370   4.214 -0.1532 -0.1431 -0.2247
   58CHL1   H20 5449   3.989   5.286   4.238  0.5740 -0.0081 -1.6956
   58CHL1   C21 5450   3.786   5.294   4.183  0.1865 -0.0208  0.5357
   58CHL1  H21A 5451   3.744   5.227   4.261 -4.3841 -0.6153 -2.0892
   58CHL1  H21B 5452   3.818   5.220   4.106  0.1346 -0.5930  1.0521
   58CHL1  H21C 5453   3.702   5.360   4.153  2.1002  1.8061 -1.0717
   58CHL1   C22 5454   3.903   5.454   4.351 -0.0147 -0.5261 -0.4576
   58CHL1  H22A 5455   3.990   5.508   4.393 -0.6979 -0.1015  0.4467
   58CHL1  H22B 5456   3.821   5.526   4.332 -0.9007 -0.9770  1.3363
   58CHL1   C23 5457   3.874   5.356   4.470 -0.6022  0.5626 -0.9595
   58CHL1  H23A 5458   3.770   5.321   4.454 -0.4756 -1.7076  2.2593
   58CHL1  H23B 5459   3.947   5.272   4.469  1.6152  2.2757  1.4248
   58CHL1   C24 5460   3.879   5.433   4.603 -0.8111 -0.2098 -0.1345
   58CHL1  H24A 5461   3.809   5.519   4.600 -2.3026 -1.3415  0.7907
   58CHL1  H24B 5462   3.840   5.370   4.686 -0.5766 -0.0472  0.1006
   58CHL1   C25 5463   4.022   5.491   4.656  0.6866 -0.1506 -0.1111
   58CHL1   H25 5464   4.047   5.565   4.577 -2.0665 -1.3435 -2.2559
   58CHL1   C26 5465   4.012   5.545   4.802  0.5800 -0.2745 -0.2006
   58CHL1  H26A 5466   3.989   5.461   4.872 -0.5740 -0.7998 -1.1837
   58CHL1  H26B 5467   4.107   5.592   4.835 -0.9734  2.9532  0.0231
   58CHL1  H26C 5468   3.951   5.637   4.813  1.5643  0.5316 -1.2113
   58CHL1   C27 5469   4.145   5.396   4.654  0.1505  1.0443 -0.1255
   58CHL1  H27A 5470   4.231   5.454   4.694 -0.2956  0.4752  1.7305
   58CHL1  H27B 5471   4.130   5.315   4.728  0.2522 -0.1501 -1.3656
   58CHL1  H27C 5472   4.172   5.351   4.555 -2.3078 -0.7061 -0.0864
   59CHL1    C3 5473   2.941   4.083   2.756  0.6054  0.5976  0.0297
   59CHL1    H3 5474   2.830   4.097   2.761  0.4520  0.0505 -1.3674
   59CHL1    O3 5475   2.978   4.050   2.619 -0.5612 -0.6497  0.2194
   59CHL1   H3' 5476   3.020   3.963   2.618 -0.7474 -0.7394 -0.4052
   59CHL1    C4 5477   3.011   4.222   2.802  0.2232  0.4056  0.5654
   59CHL1   H4A 5478   3.120   4.207   2.786  1.3075  0.6463  5.8883
   59CHL1   H4B 5479   2.978   4.307   2.737 -0.0157 -0.5774 -0.6351
   59CHL1    C5 5480   2.997   4.256   2.947  0.4912  0.4949 -0.2836
   59CHL1    C6 5481   2.951   4.374   2.980 -0.3126  1.0438 -0.1562
   59CHL1    H6 5482   2.927   4.449   2.904 -2.7718  1.0675  0.5677
   59CHL1    C7 5483   2.933   4.402   3.123 -0.3613  0.4414 -0.1384
   59CHL1   H7A 5484   2.975   4.505   3.137  1.6433 -0.2355 -0.7473
   59CHL1   H7B 5485   2.824   4.403   3.140 -0.8458 -2.4741 -2.3440
   59CHL1    C8 5486   2.995   4.307   3.227 -0.6642 -0.2263 -0.3830
   59CHL1    H8 5487   3.105   4.315   3.228 -0.4648 -2.5226  0.3455
   59CHL1   C14 5488   2.952   4.336   3.370  0.1068 -0.0167 -0.2672
   59CHL1   H14 5489   2.843   4.317   3.381  0.2714 -1.1620 -0.4555
   59CHL1   C15 5490   2.969   4.480   3.428 -0.3733 -0.0000 -0.2852
   59CHL1  H15A 5491   3.060   4.527   3.385 -0.1403 -2.0252 -2.2294
   59CHL1  H15B 5492   2.893   4.554   3.395 -0.6061 -0.3865 -0.6304
   59CHL1   C16 5493   2.958   4.462   3.580 -0.2579 -0.1040 -0.0729
   59CHL1  H16A 5494   3.047   4.511   3.624 -0.0178  0.9531 -1.6390
   59CHL1  H16B 5495   2.869   4.508   3.628 -0.1059  0.2433 -0.1227
   59CHL1   C17 5496   2.949   4.308   3.613 -0.7383  0.4059 -0.1957
   59CHL1   H17 5497   2.839   4.293   3.606 -0.7206  0.4157 -0.5499
   59CHL1   C13 5498   3.009   4.239   3.473  0.4832  0.4246 -0.5890
   59CHL1   C18 5499   3.152   4.252   3.484 -0.6559  0.5266 -0.2304
   59CHL1  H18A 5500   3.207   4.236   3.389 -0.6613  0.5474 -0.2370
   59CHL1  H18B 5501   3.174   4.352   3.526  0.6827  0.4616 -0.7429
   59CHL1  H18C 5502   3.188   4.171   3.550 -1.1848  0.4965  0.0282
   59CHL1   C12 5503   2.960   4.105   3.440  1.0256  0.5550  0.4158
   59CHL1  H12A 5504   2.978   4.030   3.520 -0.2873  1.3020  1.4516
   59CHL1  H12B 5505   2.849   4.096   3.432  1.0904 -0.5044  0.4682
   59CHL1   C11 5506   3.010   4.057   3.296 -0.2327  0.0136  0.4809
   59CHL1  H11A 5507   3.120   4.040   3.301  0.0248  1.1181 -0.7505
   59CHL1  H11B 5508   2.969   3.956   3.274 -0.3608  0.1135  0.2617
   59CHL1    C9 5509   2.966   4.161   3.186 -0.2060 -0.5003  0.2629
   59CHL1    H9 5510   2.858   4.137   3.177 -0.1922 -0.4328 -0.0763
   59CHL1   C10 5511   3.016   4.133   3.041 -0.0702  1.0428 -0.5640
   59CHL1   C19 5512   3.168   4.110   3.048 -0.1100  0.7578  0.3710
   59CHL1  H19A 5513   3.184   4.018   3.108 -2.0072  0.3665  0.3267
   59CHL1  H19B 5514   3.208   4.085   2.947 -0.0032 -0.0682  0.6096
   59CHL1  H19C 5515   3.228   4.191   3.095  0.1744  0.6556  0.1879
   59CHL1    C1 5516   2.939   4.008   2.990 -0.2646  0.0161 -1.6092
   59CHL1   H1A 5517   2.972   3.925   3.055  1.9411  1.6278 -0.5182
   59CHL1   H1B 5518   2.830   4.027   2.991 -0.0249  1.5066 -1.0309
   59CHL1    C2 5519   2.975   3.963   2.851 -0.1934 -1.1138 -0.7107
   59CHL1   H2A 5520   2.920   3.875   2.812 -0.2270 -0.4815 -2.1544
   59CHL1   H2B 5521   3.082   3.937   2.837 -0.4631 -1.8591 -1.5008
   59CHL1   C20 5522   3.003   4.267   3.752 -0.0421 -0.0750  0.7048
   59CHL1   H20 5523   3.108   4.304   3.755 -0.2459  0.5375  0.5884
   59CHL1   C21 5524   3.008   4.111   3.768  0.0809 -0.1549 -0.1971
   59CHL1  H21A 5525   3.069   4.062   3.689  1.5418  1.1649  0.0607
   59CHL1  H21B 5526   2.901   4.085   3.754  0.0417  0.0553 -0.2962
   59CHL1  H21C 5527   3.039   4.079   3.869 -0.9210  1.8628  0.8215
   59CHL1   C22 5528   2.920   4.331   3.870 -0.0539 -0.3197  0.4457
   59CHL1  H22A 5529   2.902   4.440   3.859  3.1606  0.2638  0.1093
   59CHL1  H22B 5530   2.829   4.267   3.874  0.1529 -0.5584  1.6986
   59CHL1   C23 5531   2.976   4.303   4.006 -0.7011 -0.6437  0.6268
   59CHL1  H23A 5532   2.967   4.198   4.039  1.0987 -0.5805  1.4343
   59CHL1  H23B 5533   3.083   4.334   4.010 -1.4426  2.0851  3.5263
   59CHL1   C24 5534   2.892   4.383   4.105  0.4897  0.4610 -0.4383
   59CHL1  H24A 5535   2.897   4.492   4.087  1.6162  0.5593  0.3844
   59CHL1  H24B 5536   2.789   4.344   4.093  0.6683 -1.3033  2.6604
   59CHL1   C25 5537   2.930   4.339   4.252  0.2485 -0.4526  0.5624
   59CHL1   H25 5538   2.928   4.228   4.255  0.1453 -0.5114 -0.9194
   59CHL1   C26 5539   3.069   4.382   4.302  0.7874  0.5377  0.3651
   59CHL1  H26A 5540   3.086   4.492   4.295 -0.3264  0.6382 -1.3769
   59CHL1  H26B 5541   3.091   4.348   4.405  0.3759  0.7164  0.5138
   59CHL1  H26C 5542   3.146   4.330   4.240  0.7682  0.4814  0.3888
   59CHL1   C27 5543   2.826   4.385   4.354 -0.4371  0.3091 -0.4364
   59CHL1  H27A 5544   2.823   4.496   4.365  0.3170  0.2130  0.9253
   59CHL1  H27B 5545   2.723   4.356   4.326  0.5063 -2.0850 -1.7850
   59CHL1  H27C 5546   2.847   4.329   4.447 -1.3544 -2.2425 -1.6944
   60CHL1    C3 5547   4.307   2.456   3.265 -0.5487 -0.1013  0.2687
   60CHL1    H3 5548   4.407   2.504   3.271  0.4059 -2.0403  0.5927
   60CHL1    O3 5549   4.289   2.375   3.145 -0.0295  0.5030  0.3427
   60CHL1   H3' 5550   4.325   2.434   3.078  0.3082 -0.5652 -0.4383
   60CHL1    C4 5551   4.292   2.367   3.391 -0.1425 -0.4108 -0.0423
   60CHL1   H4A 5552   4.201   2.304   3.382  1.5221 -3.1728  1.3143
   60CHL1   H4B 5553   4.376   2.296   3.375  1.2756  1.1428  0.2712
   60CHL1    C5 5554   4.296   2.442   3.517 -0.0547 -0.7665 -0.1725
   60CHL1    C6 5555   4.379   2.394   3.618  0.6096 -0.1937 -0.1239
   60CHL1    H6 5556   4.437   2.305   3.590  2.4907  1.6852 -2.6162
   60CHL1    C7 5557   4.394   2.462   3.756 -0.0515  0.1165  0.4081
   60CHL1   H7A 5558   4.390   2.381   3.832 -0.1907 -0.9355 -0.6885
   60CHL1   H7B 5559   4.490   2.518   3.761  0.7726 -1.0662 -1.1637
   60CHL1    C8 5560   4.268   2.548   3.778  0.2670  0.3452  0.0664
   60CHL1    H8 5561   4.183   2.478   3.794  0.3142  0.0338 -0.9661
   60CHL1   C14 5562   4.280   2.628   3.910  0.0941  0.5015 -1.1923
   60CHL1   H14 5563   4.376   2.683   3.901  0.2846  0.5644  0.7656
   60CHL1   C15 5564   4.316   2.544   4.034  0.5419 -0.5655 -0.0511
   60CHL1  H15A 5565   4.225   2.481   4.038  0.0118  0.0325 -1.7488
   60CHL1  H15B 5566   4.417   2.500   4.028  0.7417 -0.0984 -0.1462
   60CHL1   C16 5567   4.303   2.662   4.137 -0.6077  0.2086 -0.7740
   60CHL1  H16A 5568   4.263   2.629   4.235  2.3960 -0.8840  0.2123
   60CHL1  H16B 5569   4.408   2.696   4.147 -0.6550  0.2571 -0.4113
   60CHL1   C17 5570   4.220   2.783   4.079 -0.8874  0.2924  0.1035
   60CHL1   H17 5571   4.304   2.850   4.049  1.2211 -1.7999  1.0700
   60CHL1   C13 5572   4.172   2.736   3.945  0.3754 -0.2234  0.3226
   60CHL1   C18 5573   4.028   2.674   3.954  0.5009  0.6018  0.4800
   60CHL1  H18A 5574   3.988   2.623   3.863  0.8127 -4.0596  2.6733
   60CHL1  H18B 5575   4.031   2.605   4.041 -0.3329 -1.7820 -1.2777
   60CHL1  H18C 5576   3.957   2.756   3.979 -0.5882  0.1919 -1.1307
   60CHL1   C12 5577   4.178   2.832   3.827  0.2534 -0.0208 -0.2393
   60CHL1  H12A 5578   4.106   2.915   3.841  1.6493  1.6743 -2.3226
   60CHL1  H12B 5579   4.282   2.873   3.830  0.8568 -1.5262  0.2252
   60CHL1   C11 5580   4.152   2.761   3.692  0.3211 -0.5313  0.0516
   60CHL1  H11A 5581   4.045   2.732   3.686 -0.1854 -0.2316  4.2985
   60CHL1  H11B 5582   4.165   2.831   3.607  0.4016 -1.5828 -0.8245
   60CHL1    C9 5583   4.245   2.641   3.663 -0.0137 -0.0431  1.0112
   60CHL1    H9 5584   4.342   2.693   3.649 -1.4691  2.6505  0.2572
   60CHL1   C10 5585   4.211   2.565   3.535  0.4810 -0.4695  0.7606
   60CHL1   C19 5586   4.064   2.526   3.536 -0.2824  1.1381  0.3336
   60CHL1  H19A 5587   4.040   2.476   3.632 -2.4630  1.8174  0.1976
   60CHL1  H19B 5588   3.996   2.614   3.533 -1.4081  0.2745 -0.6166
   60CHL1  H19C 5589   4.042   2.449   3.459 -0.6111 -0.0866  1.5909
   60CHL1    C1 5590   4.227   2.648   3.407 -0.0753  0.1261  0.4707
   60CHL1   H1A 5591   4.151   2.728   3.396 -2.4364 -2.0568  0.0998
   60CHL1   H1B 5592   4.321   2.708   3.413  0.5320 -0.8332  0.7631
   60CHL1    C2 5593   4.210   2.578   3.273 -0.4773  1.0581  0.2813
   60CHL1   H2A 5594   4.244   2.650   3.196  4.0920  1.6802  2.5401
   60CHL1   H2B 5595   4.107   2.548   3.247 -0.0461 -0.8863  0.6634
   60CHL1   C20 5596   4.135   2.869   4.174  0.0901  0.0855  0.2043
   60CHL1   H20 5597   4.052   2.807   4.214  0.4243  0.7490  1.9917
   60CHL1   C21 5598   4.073   2.980   4.095  0.5384  0.3663 -0.7213
   60CHL1  H21A 5599   4.013   3.051   4.156  1.9669  0.3660  0.7591
   60CHL1  H21B 5600   4.014   2.943   4.009  1.8549 -0.1537 -1.4220
   60CHL1  H21C 5601   4.153   3.039   4.045  0.6796 -0.2264 -1.2093
   60CHL1   C22 5602   4.212   2.923   4.295  0.1171 -0.4468 -0.1846
   60CHL1  H22A 5603   4.295   2.856   4.324 -0.1753  0.3424  2.7201
   60CHL1  H22B 5604   4.264   3.020   4.274 -0.5007 -0.0463  0.1166
   60CHL1   C23 5605   4.132   2.933   4.426  0.7707 -0.1671  0.3323
   60CHL1  H23A 5606   4.044   3.000   4.414  2.0384  1.5186  0.1769
   60CHL1  H23B 5607   4.085   2.833   4.437 -1.9503  0.5924 -2.7686
   60CHL1   C24 5608   4.208   2.975   4.553  0.2247 -0.8687 -0.5057
   60CHL1  H24A 5609   4.267   2.892   4.597 -2.1103 -2.0366  0.6401
   60CHL1  H24B 5610   4.271   3.064   4.535  0.7418 -1.0611  0.3144
   60CHL1   C25 5611   4.113   3.032   4.657 -0.3005  0.4914  0.1969
   60CHL1   H25 5612   4.048   3.111   4.614 -0.9672 -0.5660 -0.7902
   60CHL1   C26 5613   4.021   2.922   4.724  0.8449 -0.5490  0.0939
   60CHL1  H26A 5614   3.970   2.867   4.641 -0.9159  1.3403 -0.1529
   60CHL1  H26B 5615   4.078   2.850   4.786  0.8841  0.4509  1.2310
   60CHL1  H26C 5616   3.954   2.978   4.792 -1.1214 -0.3862 -1.8382
   60CHL1   C27 5617   4.200   3.097   4.766  0.0091  0.1192  0.4427
   60CHL1  H27A 5618   4.270   3.173   4.725  1.4110  0.7688  3.6758
   60CHL1  H27B 5619   4.130   3.156   4.829 -2.2675 -1.5286 -0.4186
   60CHL1  H27C 5620   4.249   3.019   4.828  0.7615  0.3753  0.1837
   61CHL1    C3 5621   5.840   5.699   3.107  0.5026 -0.6772  0.4894
   61CHL1    H3 5622   5.926   5.629   3.096 -0.4435 -1.8650  0.4987
   61CHL1    O3 5623   5.819   5.743   2.979  0.2794 -0.1062  0.1521
   61CHL1   H3' 5624   5.726   5.764   2.966  0.1249 -0.6093  0.4079
   61CHL1    C4 5625   5.703   5.627   3.156 -1.0430  0.6653 -0.0950
   61CHL1   H4A 5626   5.624   5.704   3.158 -0.2880  1.4430  1.0368
   61CHL1   H4B 5627   5.683   5.552   3.075  1.1197 -0.7660  0.5869
   61CHL1    C5 5628   5.741   5.574   3.290 -0.1225 -0.5158 -0.0523
   61CHL1    C6 5629   5.737   5.446   3.315  0.6670 -0.6826  0.3299
   61CHL1    H6 5630   5.717   5.385   3.225 -0.5613  1.1668 -0.7147
   61CHL1    C7 5631   5.752   5.393   3.454 -0.3064 -0.7955 -0.3347
   61CHL1   H7A 5632   5.674   5.314   3.466 -1.5652  0.1651 -1.8689
   61CHL1   H7B 5633   5.845   5.334   3.465  0.5898  0.1557 -2.4538
   61CHL1    C8 5634   5.730   5.505   3.562  0.0143  0.5534 -0.2566
   61CHL1    H8 5635   5.624   5.539   3.572  0.5940  1.8680  2.6052
   61CHL1   C14 5636   5.776   5.450   3.699 -0.0226 -0.2689 -0.1582
   61CHL1   H14 5637   5.880   5.416   3.683  0.6269  1.3162  0.5175
   61CHL1   C15 5638   5.703   5.324   3.756 -0.2867  0.8315  0.1277
   61CHL1  H15A 5639   5.594   5.343   3.763 -0.4637 -0.1643  0.2474
   61CHL1  H15B 5640   5.712   5.235   3.690 -0.6645 -0.9384  2.3563
   61CHL1   C16 5641   5.767   5.306   3.892 -0.1775 -1.4607  0.0092
   61CHL1  H16A 5642   5.693   5.290   3.973  1.2549 -2.8363  1.1095
   61CHL1  H16B 5643   5.864   5.252   3.891  1.5587  1.4557 -0.5921
   61CHL1   C17 5644   5.825   5.457   3.927 -0.2266  0.2373 -0.0979
   61CHL1   H17 5645   5.935   5.452   3.913  0.2109  2.4230  1.8504
   61CHL1   C13 5646   5.781   5.553   3.814 -0.2709  0.1881  0.1325
   61CHL1   C18 5647   5.629   5.594   3.856  0.7909 -0.1703 -0.1054
   61CHL1  H18A 5648   5.626   5.671   3.936 -0.6010  0.1348 -0.4282
   61CHL1  H18B 5649   5.587   5.655   3.772 -1.6730 -1.6852 -0.0758
   61CHL1  H18C 5650   5.560   5.515   3.890  0.4312  1.5098  3.5863
   61CHL1   C12 5651   5.862   5.677   3.778 -0.8260 -0.4169  0.2027
   61CHL1  H12A 5652   5.854   5.763   3.848 -1.4251 -0.1728 -0.1564
   61CHL1  H12B 5653   5.969   5.653   3.761 -1.3613 -1.0094 -2.8909
   61CHL1   C11 5654   5.815   5.727   3.641  0.3022  0.4336  0.3005
   61CHL1  H11A 5655   5.714   5.766   3.666  0.0920  0.8185 -1.0711
   61CHL1  H11B 5656   5.882   5.809   3.610  1.5257 -0.7358 -0.2425
   61CHL1    C9 5657   5.814   5.624   3.529 -0.3846 -0.0354  0.0868
   61CHL1    H9 5658   5.915   5.580   3.513 -1.8855 -3.8610 -0.1015
   61CHL1   C10 5659   5.771   5.688   3.392 -0.3642  0.5939  0.2257
   61CHL1   C19 5660   5.656   5.787   3.414 -0.1588 -0.7452 -0.4600
   61CHL1  H19A 5661   5.622   5.845   3.326  1.4501 -0.1588 -0.7197
   61CHL1  H19B 5662   5.562   5.748   3.460  0.7654 -0.1167  2.1196
   61CHL1  H19C 5663   5.695   5.873   3.472  0.1767 -0.3094 -1.3172
   61CHL1    C1 5664   5.890   5.771   3.338  1.4844  0.6408 -0.0084
   61CHL1   H1A 5665   5.908   5.859   3.403 -0.6350  0.0764  1.4430
   61CHL1   H1B 5666   5.986   5.714   3.341  1.3373  0.2802 -1.3109
   61CHL1    C2 5667   5.874   5.824   3.191 -0.1864  0.1857 -0.0692
   61CHL1   H2A 5668   5.973   5.866   3.165  1.0791 -1.7375  1.3258
   61CHL1   H2B 5669   5.791   5.898   3.187  0.9275  1.4490 -0.2798
   61CHL1   C20 5670   5.806   5.496   4.072 -0.3013 -0.7374  1.2348
   61CHL1   H20 5671   5.696   5.513   4.079  0.2348  5.0461  0.9919
   61CHL1   C21 5672   5.875   5.631   4.107 -0.1610  0.3833  0.2530
   61CHL1  H21A 5673   5.831   5.717   4.052  2.2091  0.6416 -1.3618
   61CHL1  H21B 5674   5.977   5.618   4.066 -1.3554 -2.2138 -2.2635
   61CHL1  H21C 5675   5.876   5.649   4.217  3.4658  1.2637  0.2152
   61CHL1   C22 5676   5.858   5.388   4.171  0.1416  0.1549  0.1186
   61CHL1  H22A 5677   5.833   5.286   4.137 -0.0467 -0.8808  3.1147
   61CHL1  H22B 5678   5.969   5.400   4.176  0.1076  0.5419  0.0410
   61CHL1   C23 5679   5.807   5.402   4.313  1.2175  0.1824  0.3150
   61CHL1  H23A 5680   5.804   5.506   4.351  0.1722  0.7714 -1.2355
   61CHL1  H23B 5681   5.704   5.360   4.313  0.8219  1.0700 -0.9917
   61CHL1   C24 5682   5.886   5.320   4.419  0.8643  0.4941 -0.0838
   61CHL1  H24A 5683   5.893   5.216   4.379  3.2811  0.1182  1.1387
   61CHL1  H24B 5684   5.989   5.361   4.428  0.2513  1.7442  1.8027
   61CHL1   C25 5685   5.811   5.317   4.551 -0.0896 -0.6675  0.1263
   61CHL1   H25 5686   5.707   5.279   4.536 -0.0327 -1.0804  0.7673
   61CHL1   C26 5687   5.871   5.207   4.638  0.6926 -0.1544 -0.0632
   61CHL1  H26A 5688   5.811   5.190   4.730  0.6428  0.5762  0.0479
   61CHL1  H26B 5689   5.858   5.114   4.579 -0.8511 -0.9335  1.4299
   61CHL1  H26C 5690   5.978   5.232   4.658  0.4569  1.5239 -0.7183
   61CHL1   C27 5691   5.817   5.454   4.625  0.8804 -0.3258 -0.0643
   61CHL1  H27A 5692   5.742   5.452   4.706  1.5783  1.1826  0.6454
   61CHL1  H27B 5693   5.914   5.487   4.668  0.9688  0.1462 -0.6191
   61CHL1  H27C 5694   5.796   5.538   4.556 -0.6401 -1.7437 -1.4203
   62CHL1    C3 5695   0.943   4.997   3.375  0.1695 -0.1642  0.8536
   62CHL1    H3 5696   0.908   5.097   3.407 -0.3901  0.2757 -1.0228
   62CHL1    O3 5697   0.880   4.975   3.244  0.2481  0.1310  0.2316
   62CHL1   H3' 5698   0.951   4.998   3.183  0.6107  0.9239  0.9462
   62CHL1    C4 5699   1.095   4.989   3.369  0.0323 -0.0494  0.2377
   62CHL1   H4A 5700   1.122   4.892   3.322  0.6601  0.8369 -1.2888
   62CHL1   H4B 5701   1.134   5.056   3.290  2.7515  0.2830  1.7389
   62CHL1    C5 5702   1.159   4.999   3.507 -0.4336 -0.3826 -0.1901
   62CHL1    C6 5703   1.257   5.089   3.528 -0.6949 -0.2175  0.3477
   62CHL1    H6 5704   1.299   5.152   3.449  0.5388 -0.4404  0.7972
   62CHL1    C7 5705   1.318   5.108   3.660  0.6077 -0.2089 -0.6083
   62CHL1   H7A 5706   1.429   5.117   3.655  0.8661 -0.8964  2.0202
   62CHL1   H7B 5707   1.269   5.191   3.716  0.2025 -1.1429  0.4764
   62CHL1    C8 5708   1.304   4.984   3.756  0.5797  0.4229 -0.0555
   62CHL1    H8 5709   1.370   4.906   3.712 -0.9243 -0.2499 -1.1970
   62CHL1   C14 5710   1.353   5.027   3.891  0.2550 -0.0642  0.3005
   62CHL1   H14 5711   1.292   5.111   3.931  0.5869  1.0375 -1.3735
   62CHL1   C15 5712   1.501   5.070   3.902  0.0917 -0.3222  0.2385
   62CHL1  H15A 5713   1.571   5.014   3.836  1.1961  2.4899 -1.1812
   62CHL1  H15B 5714   1.514   5.176   3.870 -0.0559 -0.3888 -0.0470
   62CHL1   C16 5715   1.532   5.039   4.048  0.1147 -0.0884 -0.2962
   62CHL1  H16A 5716   1.620   4.972   4.059 -0.4163 -0.4722  2.1566
   62CHL1  H16B 5717   1.552   5.133   4.105  1.3973  0.3550 -1.4255
   62CHL1   C17 5718   1.412   4.983   4.119  0.7416 -0.5958 -0.4509
   62CHL1   H17 5719   1.350   5.069   4.150  1.3363  0.0018 -0.8983
   62CHL1   C13 5720   1.333   4.917   4.000 -0.6762  0.1160 -0.1711
   62CHL1   C18 5721   1.413   4.788   3.964  0.8685  0.1291 -0.6556
   62CHL1  H18A 5722   1.388   4.714   4.042 -1.6212  0.1515 -1.3500
   62CHL1  H18B 5723   1.385   4.745   3.865 -0.9134  0.2893 -0.2567
   62CHL1  H18C 5724   1.523   4.803   3.955  0.8582  1.4392  1.0279
   62CHL1   C12 5725   1.187   4.887   4.019 -0.5433  0.1172  0.2573
   62CHL1  H12A 5726   1.169   4.803   4.089 -1.3116  0.8201  0.9331
   62CHL1  H12B 5727   1.146   4.985   4.054 -0.3228  0.9170 -1.5791
   62CHL1   C11 5728   1.126   4.845   3.885  0.3137  0.5847  0.3282
   62CHL1  H11A 5729   1.168   4.744   3.862 -0.2071  0.4553 -0.0639
   62CHL1  H11B 5730   1.017   4.829   3.891  0.5285 -1.2441 -0.0788
   62CHL1    C9 5731   1.158   4.940   3.767  0.3929 -0.3899 -0.2470
   62CHL1    H9 5732   1.103   5.033   3.793  0.5883 -0.9817  2.6392
   62CHL1   C10 5733   1.105   4.897   3.623 -0.9043 -0.3059  0.2713
   62CHL1   C19 5734   1.158   4.750   3.595 -0.1025  0.0503  0.7485
   62CHL1  H19A 5735   1.121   4.712   3.498  1.3471  0.3052  0.0625
   62CHL1  H19B 5736   1.269   4.748   3.599  0.0103 -0.6401 -1.3233
   62CHL1  H19C 5737   1.115   4.684   3.673 -0.5591 -2.0684 -1.1763
   62CHL1    C1 5738   0.951   4.892   3.616  0.3722 -0.3501 -0.2121
   62CHL1   H1A 5739   0.908   4.811   3.678 -0.5212  0.5952  0.4327
   62CHL1   H1B 5740   0.904   4.983   3.659 -2.3469 -0.2528 -2.9932
   62CHL1    C2 5741   0.896   4.888   3.475  0.7791 -0.7329  0.1535
   62CHL1   H2A 5742   0.785   4.897   3.476  0.9082  1.8856 -1.3830
   62CHL1   H2B 5743   0.911   4.787   3.431  1.7819 -0.3640 -0.3661
   62CHL1   C20 5744   1.460   4.899   4.241  0.3020 -0.0735  0.2157
   62CHL1   H20 5745   1.520   4.820   4.191 -0.8113  0.1368 -1.5199
   62CHL1   C21 5746   1.345   4.823   4.316  0.0305 -0.3772 -0.3551
   62CHL1  H21A 5747   1.279   4.892   4.374  3.5002  3.3886 -0.3985
   62CHL1  H21B 5748   1.388   4.749   4.386 -0.9386 -1.8389 -1.2634
   62CHL1  H21C 5749   1.287   4.776   4.235 -0.7535 -0.9745  0.5420
   62CHL1   C22 5750   1.542   4.971   4.346 -0.8572 -0.0751  0.4823
   62CHL1  H22A 5751   1.600   5.054   4.299 -0.4107 -0.4722  0.3320
   62CHL1  H22B 5752   1.464   5.025   4.404 -1.3818 -2.6604  2.3259
   62CHL1   C23 5753   1.631   4.889   4.436  0.1474 -0.8062  0.5071
   62CHL1  H23A 5754   1.574   4.800   4.471  0.7210 -1.2674  0.2962
   62CHL1  H23B 5755   1.703   4.839   4.368 -0.0195  1.6589 -1.6020
   62CHL1   C24 5756   1.701   4.972   4.548 -0.3501 -1.1148  0.5923
   62CHL1  H24A 5757   1.786   5.019   4.495 -0.8058 -2.0426 -1.0086
   62CHL1  H24B 5758   1.640   5.056   4.588  1.0234  0.2695 -0.1202
   62CHL1   C25 5759   1.759   4.893   4.657 -0.3230 -0.1572 -0.2108
   62CHL1   H25 5760   1.840   4.832   4.612  1.5110  1.0188  1.3686
   62CHL1   C26 5761   1.831   4.976   4.759 -0.7849  0.4788  0.0426
   62CHL1  H26A 5762   1.762   5.039   4.820 -1.9813 -0.7418 -0.0016
   62CHL1  H26B 5763   1.887   4.900   4.817 -1.3793  1.2285  1.6571
   62CHL1  H26C 5764   1.907   5.040   4.709  0.4116 -0.2339  0.8926
   62CHL1   C27 5765   1.647   4.819   4.744 -0.1012 -0.0773  0.3486
   62CHL1  H27A 5766   1.704   4.757   4.816  0.5063 -2.7410 -2.2438
   62CHL1  H27B 5767   1.576   4.887   4.796 -2.5671 -1.6296 -0.8562
   62CHL1  H27C 5768   1.586   4.754   4.679 -1.7654  1.3214  0.4294
   63CHL1    C3 5769   4.803   1.525   2.803  0.2140 -0.4072 -0.4342
   63CHL1    H3 5770   4.769   1.421   2.786  0.2076 -0.4540 -0.1333
   63CHL1    O3 5771   4.794   1.587   2.677  0.0304 -0.0352  0.3836
   63CHL1   H3' 5772   4.821   1.676   2.701  2.2083 -0.2654 -0.9177
   63CHL1    C4 5773   4.713   1.605   2.901  1.3220  0.7187 -0.4847
   63CHL1   H4A 5774   4.743   1.712   2.902 -0.8121  1.3946 -1.7396
   63CHL1   H4B 5775   4.614   1.609   2.851  2.3005  0.0707 -2.6084
   63CHL1    C5 5776   4.715   1.548   3.036  0.7558  0.0205 -0.1428
   63CHL1    C6 5777   4.599   1.506   3.099 -0.5752 -0.0218  0.6118
   63CHL1    H6 5778   4.510   1.537   3.043 -0.3939 -1.2060 -0.3600
   63CHL1    C7 5779   4.599   1.446   3.234 -0.3474 -0.6707  0.4495
   63CHL1   H7A 5780   4.518   1.478   3.303 -0.1469  0.3700  0.2086
   63CHL1   H7B 5781   4.558   1.343   3.223 -2.1952  0.2091 -1.7176
   63CHL1    C8 5782   4.735   1.447   3.307 -0.6398  0.1597 -1.1097
   63CHL1    H8 5783   4.737   1.546   3.357  0.3260 -0.5919  0.4267
   63CHL1   C14 5784   4.740   1.332   3.412  0.3055 -0.6780  0.0882
   63CHL1   H14 5785   4.740   1.241   3.349 -0.6015  0.6984 -2.0315
   63CHL1   C15 5786   4.621   1.330   3.513 -0.5890  0.2019  0.2495
   63CHL1  H15A 5787   4.596   1.432   3.550  2.1558  0.3080  2.1299
   63CHL1  H15B 5788   4.530   1.287   3.466 -2.6411  2.1309  2.2063
   63CHL1   C16 5789   4.673   1.239   3.627 -0.4477  0.3226 -0.1626
   63CHL1  H16A 5790   4.666   1.288   3.726 -1.5056 -1.1102  0.5227
   63CHL1  H16B 5791   4.614   1.146   3.645 -0.6001  0.7746  1.8257
   63CHL1   C17 5792   4.823   1.213   3.591  0.1374  0.2376  0.4587
   63CHL1   H17 5793   4.822   1.125   3.523  0.8362  0.3173  0.3348
   63CHL1   C13 5794   4.868   1.330   3.499  0.0078  0.2822 -0.8651
   63CHL1   C18 5795   4.889   1.459   3.587 -0.4510  0.5259 -0.0838
   63CHL1  H18A 5796   4.896   1.553   3.527 -2.1739 -0.4103 -1.8862
   63CHL1  H18B 5797   4.792   1.473   3.641 -1.6494 -1.1825 -1.6688
   63CHL1  H18C 5798   4.979   1.443   3.650 -0.7189 -0.9023 -0.0259
   63CHL1   C12 5799   4.982   1.303   3.400 -0.5025 -0.0815  0.3515
   63CHL1  H12A 5800   5.078   1.291   3.453 -1.3417 -1.6060  1.5927
   63CHL1  H12B 5801   4.962   1.205   3.352  2.1575 -0.1279 -0.8265
   63CHL1   C11 5802   4.992   1.416   3.293  0.0492 -0.0989 -0.1383
   63CHL1  H11A 5803   5.028   1.508   3.344 -1.7235  0.2822  0.5230
   63CHL1  H11B 5804   5.073   1.383   3.225 -0.5802  0.7739 -1.3368
   63CHL1    C9 5805   4.852   1.421   3.216  0.1000  0.0024  0.1320
   63CHL1    H9 5806   4.835   1.320   3.171  0.9043  0.8369 -2.1617
   63CHL1   C10 5807   4.859   1.525   3.095 -0.1931  0.7951  0.1378
   63CHL1   C19 5808   4.918   1.660   3.141  0.4168 -1.0501 -0.1442
   63CHL1  H19A 5809   4.869   1.700   3.232  1.3517 -2.9576  1.2785
   63CHL1  H19B 5810   5.029   1.656   3.155  0.4605  0.1289 -0.0239
   63CHL1  H19C 5811   4.902   1.728   3.054  0.0034 -0.8450  0.0912
   63CHL1    C1 5812   4.953   1.468   2.989  0.1737 -0.1718  0.5708
   63CHL1   H1A 5813   5.053   1.477   3.036 -0.3284 -0.6946  1.7819
   63CHL1   H1B 5814   4.945   1.358   2.974  0.2653  0.1634 -2.7083
   63CHL1    C2 5815   4.948   1.523   2.845 -0.5979  0.4151  0.2628
   63CHL1   H2A 5816   5.004   1.479   2.760 -0.0357  2.6557 -0.6108
   63CHL1   H2B 5817   4.987   1.626   2.860 -1.1784  0.4352  1.7893
   63CHL1   C20 5818   4.906   1.188   3.726  0.2872  0.3543  0.0072
   63CHL1   H20 5819   4.881   1.270   3.796 -0.6389 -0.5544  0.7661
   63CHL1   C21 5820   5.060   1.176   3.701 -0.1068  0.4042  0.3017
   63CHL1  H21A 5821   5.099   1.156   3.803 -1.0109  3.5699  1.4027
   63CHL1  H21B 5822   5.096   1.277   3.668 -1.7730  0.7540 -0.5476
   63CHL1  H21C 5823   5.076   1.085   3.640  2.6617  1.2721 -0.4434
   63CHL1   C22 5824   4.854   1.067   3.814  0.5932  0.5636 -0.6358
   63CHL1  H22A 5825   4.893   1.084   3.917 -0.0168 -0.9845 -0.1123
   63CHL1  H22B 5826   4.743   1.061   3.819  0.5035  0.4907 -2.2607
   63CHL1   C23 5827   4.905   0.923   3.763 -0.1072 -1.2015  0.9776
   63CHL1  H23A 5828   4.879   0.918   3.656 -0.8093 -1.1599  1.1396
   63CHL1  H23B 5829   5.016   0.928   3.772 -0.1021  1.3609  0.3095
   63CHL1   C24 5830   4.854   0.807   3.845 -0.1945 -0.4802 -0.3257
   63CHL1  H24A 5831   4.918   0.717   3.828 -1.0684 -1.5592  1.7152
   63CHL1  H24B 5832   4.871   0.832   3.952  1.2568  0.9471 -0.8617
   63CHL1   C25 5833   4.713   0.769   3.817 -0.8353 -0.9074  0.7448
   63CHL1   H25 5834   4.652   0.861   3.804  0.0748 -0.2127  1.3340
   63CHL1   C26 5835   4.714   0.676   3.694 -0.4075  0.0958 -0.0813
   63CHL1  H26A 5836   4.755   0.734   3.609  3.4656 -0.6701  1.0778
   63CHL1  H26B 5837   4.778   0.587   3.712  1.7804  1.1420 -2.2014
   63CHL1  H26C 5838   4.610   0.641   3.672 -0.5376  0.7727 -0.5910
   63CHL1   C27 5839   4.659   0.692   3.933 -0.4418  0.1476 -1.0486
   63CHL1  H27A 5840   4.652   0.763   4.019 -0.6586  1.1651 -1.8809
   63CHL1  H27B 5841   4.552   0.663   3.918 -0.5161 -0.1735  0.0313
   63CHL1  H27C 5842   4.731   0.611   3.957  0.1163  0.0691 -2.8458
   64CHL1    C3 5843   0.800   1.811   3.300 -0.0257  0.5934 -0.1609
   64CHL1    H3 5844   0.720   1.887   3.314  1.6188  2.6717 -1.5442
   64CHL1    O3 5845   0.789   1.754   3.172 -0.4552  0.0183  0.5414
   64CHL1   H3' 5846   0.838   1.672   3.166 -0.4336  0.1268 -1.0962
   64CHL1    C4 5847   0.940   1.884   3.319 -0.3253 -0.3581  0.3760
   64CHL1   H4A 5848   1.023   1.814   3.294  0.3992  1.3035 -2.2126
   64CHL1   H4B 5849   0.954   1.964   3.243 -0.3841  1.4055  2.1298
   64CHL1    C5 5850   0.949   1.932   3.457 -0.1933 -0.1477 -0.6030
   64CHL1    C6 5851   0.979   2.059   3.475 -0.3510 -0.1476  0.4131
   64CHL1    H6 5852   0.995   2.121   3.386 -0.7830 -0.5439  0.0534
   64CHL1    C7 5853   1.005   2.112   3.607 -0.1305 -0.0868  0.1307
   64CHL1   H7A 5854   1.082   2.192   3.610 -1.3279  1.0782  1.3333
   64CHL1   H7B 5855   0.911   2.157   3.648  0.2716  0.7619  0.1230
   64CHL1    C8 5856   1.032   2.009   3.726 -0.7674  0.3073  0.2260
   64CHL1    H8 5857   1.132   1.962   3.716 -0.9154  0.1391 -0.5236
   64CHL1   C14 5858   1.022   2.074   3.864 -0.5214 -0.5296  0.1271
   64CHL1   H14 5859   0.918   2.114   3.868  0.2191  1.4574  0.4579
   64CHL1   C15 5860   1.102   2.203   3.894  0.1143  0.5407  0.0295
   64CHL1  H15A 5861   1.205   2.183   3.858  0.1570  0.7595  0.0302
   64CHL1  H15B 5862   1.063   2.290   3.836 -1.2441  0.5846  0.9738
   64CHL1   C16 5863   1.118   2.212   4.046  0.4110  0.6416  0.7291
   64CHL1  H16A 5864   1.227   2.198   4.064  0.7080  1.1749 -0.5220
   64CHL1  H16B 5865   1.078   2.308   4.084 -1.6270 -0.1087  0.6280
   64CHL1   C17 5866   1.043   2.093   4.097  0.3321  0.6306  0.0816
   64CHL1   H17 5867   0.936   2.125   4.097  0.3110  0.6553 -1.9245
   64CHL1   C13 5868   1.043   1.985   3.981 -0.0256 -0.6544  0.2780
   64CHL1   C18 5869   1.184   1.917   3.984  0.3573 -0.3270  0.5924
   64CHL1  H18A 5870   1.265   1.993   3.978 -0.8663  0.9521 -0.4341
   64CHL1  H18B 5871   1.194   1.862   4.080  1.8754  1.4184  1.5036
   64CHL1  H18C 5872   1.194   1.840   3.904  1.1227  0.1969  0.1790
   64CHL1   C12 5873   0.934   1.872   3.968 -0.2798  0.4427 -0.0216
   64CHL1  H12A 5874   0.952   1.793   4.043 -2.0434 -1.7680 -1.7789
   64CHL1  H12B 5875   0.836   1.924   3.984  0.0148  1.2855 -0.8257
   64CHL1   C11 5876   0.936   1.797   3.834  0.6468 -0.4566  0.9720
   64CHL1  H11A 5877   1.029   1.736   3.830  0.9318 -0.0578  1.4101
   64CHL1  H11B 5878   0.850   1.726   3.831  1.3961 -1.3499 -0.5999
   64CHL1    C9 5879   0.927   1.896   3.711  0.2012  0.3308 -0.3212
   64CHL1    H9 5880   0.830   1.948   3.726  1.3623  2.0311  2.0996
   64CHL1   C10 5881   0.932   1.830   3.576  0.2661 -0.4049 -0.1309
   64CHL1   C19 5882   1.052   1.726   3.573  0.8426 -0.3570 -0.5694
   64CHL1  H19A 5883   1.079   1.690   3.471 -1.5909 -3.3119 -0.3257
   64CHL1  H19B 5884   1.143   1.775   3.614  1.4476 -4.5158  3.8664
   64CHL1  H19C 5885   1.035   1.637   3.637 -0.4260  1.7932  2.3175
   64CHL1    C1 5886   0.794   1.751   3.549 -0.1027 -0.5019 -0.7602
   64CHL1   H1A 5887   0.775   1.672   3.625 -0.6808  1.0634  0.7828
   64CHL1   H1B 5888   0.707   1.817   3.568 -1.2375 -1.4293 -2.4785
   64CHL1    C2 5889   0.785   1.697   3.406 -0.3872  0.1133 -0.1190
   64CHL1   H2A 5890   0.691   1.640   3.387  0.4165 -1.5487  0.7179
   64CHL1   H2B 5891   0.855   1.614   3.384  0.7452  1.2615 -1.0113
   64CHL1   C20 5892   1.071   2.052   4.243 -0.0392 -0.1252 -0.0396
   64CHL1   H20 5893   1.176   2.016   4.246 -0.0288 -0.1125 -0.2471
   64CHL1   C21 5894   0.980   1.935   4.279 -1.0304  0.3077  0.6738
   64CHL1  H21A 5895   0.969   1.922   4.389 -3.4404 -1.2665  0.3332
   64CHL1  H21B 5896   1.023   1.838   4.246  0.2303  0.5575  1.4890
   64CHL1  H21C 5897   0.877   1.957   4.242 -2.1094 -1.9325  2.0774
   64CHL1   C22 5898   1.060   2.166   4.353 -0.1710  0.0447 -0.0945
   64CHL1  H22A 5899   1.090   2.134   4.455  1.7487  1.2021 -0.2495
   64CHL1  H22B 5900   1.139   2.237   4.320 -1.6170  1.0654 -1.5327
   64CHL1   C23 5901   0.918   2.232   4.354 -0.1825  0.3765  0.0833
   64CHL1  H23A 5902   0.889   2.240   4.248  0.1672  1.5752  0.0640
   64CHL1  H23B 5903   0.847   2.164   4.406  1.1736 -1.9614 -0.9382
   64CHL1   C24 5904   0.917   2.369   4.429 -0.1394 -0.2184  0.7804
   64CHL1  H24A 5905   0.956   2.357   4.532  2.4180  0.1262 -0.0637
   64CHL1  H24B 5906   0.995   2.435   4.385  0.1713  0.2169  1.9523
   64CHL1   C25 5907   0.788   2.444   4.414  0.5369  0.4030 -0.2438
   64CHL1   H25 5908   0.711   2.378   4.461  2.0346 -1.1457  0.1164
   64CHL1   C26 5909   0.790   2.576   4.490  0.0591 -0.7267 -0.9105
   64CHL1  H26A 5910   0.847   2.649   4.430  0.4084 -0.7994 -0.6710
   64CHL1  H26B 5911   0.690   2.618   4.516 -0.4441  0.5795 -4.4803
   64CHL1  H26C 5912   0.853   2.570   4.582 -0.2107  1.4961 -0.5270
   64CHL1   C27 5913   0.757   2.479   4.267  0.1155  0.0727  0.0963
   64CHL1  H27A 5914   0.648   2.496   4.257 -0.1146 -1.6467 -0.5991
   64CHL1  H27B 5915   0.812   2.570   4.234  1.0095 -0.3590  0.3651
   64CHL1  H27C 5916   0.787   2.395   4.201  1.5309  1.1913 -0.7474
   65CHL1    C3 5917   1.442   5.516   3.160  0.4613  0.1378  0.2147
   65CHL1    H3 5918   1.332   5.507   3.162  0.4100  0.7569  0.3786
   65CHL1    O3 5919   1.487   5.511   3.021 -0.0831  0.4940  0.6187
   65CHL1   H3' 5920   1.582   5.515   3.027 -0.1838  1.1629  2.5188
   65CHL1    C4 5921   1.485   5.651   3.217 -0.4513 -0.1426  0.4531
   65CHL1   H4A 5922   1.596   5.658   3.207 -0.2607 -1.4797  1.4399
   65CHL1   H4B 5923   1.444   5.736   3.157 -0.0087 -0.6697 -0.6358
   65CHL1    C5 5924   1.444   5.647   3.363 -0.6986  0.1428 -0.2305
   65CHL1    C6 5925   1.369   5.741   3.411  0.1927 -0.0018  0.2619
   65CHL1    H6 5926   1.335   5.822   3.345 -0.9788 -0.7754 -0.1155
   65CHL1    C7 5927   1.345   5.759   3.557  0.2369  0.4622 -0.1524
   65CHL1   H7A 5928   1.362   5.865   3.584  1.4172  0.5530 -1.1815
   65CHL1   H7B 5929   1.242   5.730   3.589  1.2977 -1.4270  1.8807
   65CHL1    C8 5930   1.441   5.688   3.660 -0.4057  0.8281 -0.3776
   65CHL1    H8 5931   1.534   5.746   3.677 -0.8377  1.2221  0.7151
   65CHL1   C14 5932   1.376   5.672   3.806  0.2117  0.3933  0.0720
   65CHL1   H14 5933   1.281   5.616   3.791  0.5452  0.2063 -1.5193
   65CHL1   C15 5934   1.352   5.808   3.884  0.0118 -0.1731  0.6143
   65CHL1  H15A 5935   1.441   5.872   3.867 -0.9140  0.8233 -0.7618
   65CHL1  H15B 5936   1.262   5.861   3.844  0.3224  0.0582  0.2168
   65CHL1   C16 5937   1.342   5.760   4.031 -0.0618 -0.5509  0.0342
   65CHL1  H16A 5938   1.415   5.816   4.093  0.0718 -2.0615  1.3063
   65CHL1  H16B 5939   1.237   5.764   4.067 -0.1306  1.2606 -0.2594
   65CHL1   C17 5940   1.376   5.609   4.028  0.5183 -0.4020 -0.3358
   65CHL1   H17 5941   1.281   5.554   4.010  1.2089 -1.8292  0.2113
   65CHL1   C13 5942   1.462   5.589   3.899 -0.4643 -0.6701 -0.1697
   65CHL1   C18 5943   1.602   5.644   3.927 -0.2939  0.2539 -0.1159
   65CHL1  H18A 5944   1.659   5.592   4.007 -0.0958 -0.0599 -0.4583
   65CHL1  H18B 5945   1.667   5.650   3.837  1.0705 -0.2847  0.8115
   65CHL1  H18C 5946   1.592   5.750   3.957 -0.9983  0.5436 -1.3005
   65CHL1   C12 5947   1.474   5.443   3.843 -0.0037 -0.4134  0.2948
   65CHL1  H12A 5948   1.548   5.383   3.901 -0.7851 -0.1403  1.6010
   65CHL1  H12B 5949   1.379   5.386   3.851 -0.0809 -0.0492  2.5242
   65CHL1   C11 5950   1.522   5.437   3.696 -0.2629 -0.4089  0.2194
   65CHL1  H11A 5951   1.632   5.453   3.690  0.0068 -2.3844 -1.0326
   65CHL1  H11B 5952   1.497   5.339   3.651  0.2923  0.2828 -1.7194
   65CHL1    C9 5953   1.457   5.546   3.602 -0.2626 -0.0377 -0.2128
   65CHL1    H9 5954   1.355   5.506   3.590  0.2435 -0.8246 -2.3855
   65CHL1   C10 5955   1.513   5.541   3.457  0.5650  0.0946  0.1308
   65CHL1   C19 5956   1.666   5.563   3.459 -0.4130  0.0540 -0.4111
   65CHL1  H19A 5957   1.706   5.583   3.358  0.5695 -0.2700 -0.0965
   65CHL1  H19B 5958   1.681   5.655   3.519 -0.8560 -0.0053 -0.2008
   65CHL1  H19C 5959   1.707   5.477   3.516 -2.5248  1.0418  2.9275
   65CHL1    C1 5960   1.473   5.406   3.389  0.0102 -0.0073  0.1493
   65CHL1   H1A 5961   1.528   5.326   3.444 -1.2003  0.3546  1.9950
   65CHL1   H1B 5962   1.367   5.380   3.409 -0.4541 -1.0935 -3.1733
   65CHL1    C2 5963   1.507   5.398   3.239  0.3039  0.1901 -0.3040
   65CHL1   H2A 5964   1.460   5.312   3.188  0.7451 -2.3230  3.1841
   65CHL1   H2B 5965   1.616   5.389   3.218  0.4064  0.1677  0.2198
   65CHL1   C20 5966   1.412   5.543   4.163 -0.2859  0.5340  0.5099
   65CHL1   H20 5967   1.509   5.592   4.186 -0.0743  0.0590  0.6380
   65CHL1   C21 5968   1.419   5.388   4.149  0.6571  0.1565  0.3982
   65CHL1  H21A 5969   1.327   5.342   4.107 -0.0190  0.0910  1.8685
   65CHL1  H21B 5970   1.430   5.341   4.249 -3.1740 -1.5287  0.2012
   65CHL1  H21C 5971   1.512   5.366   4.093  1.0797  1.8208  0.3736
   65CHL1   C22 5972   1.304   5.578   4.273  0.7033 -0.0582 -0.2562
   65CHL1  H22A 5973   1.291   5.688   4.284 -0.2907 -0.1400 -0.5169
   65CHL1  H22B 5974   1.202   5.548   4.238  0.1901 -0.3585  1.4222
   65CHL1   C23 5975   1.344   5.512   4.406 -0.8531  0.4261  0.2718
   65CHL1  H23A 5976   1.329   5.402   4.408  0.5871  0.1799 -0.9462
   65CHL1  H23B 5977   1.452   5.526   4.426 -0.2283 -2.4794 -0.6422
   65CHL1   C24 5978   1.275   5.588   4.524 -0.9102  0.2707  0.9646
   65CHL1  H24A 5979   1.305   5.695   4.526 -2.5328  0.7744 -0.0478
   65CHL1  H24B 5980   1.165   5.581   4.514 -0.7754 -1.1173  0.1709
   65CHL1   C25 5981   1.312   5.530   4.663  0.3209  0.2713 -0.2008
   65CHL1   H25 5982   1.423   5.529   4.666  0.3275 -1.7442  1.9763
   65CHL1   C26 5983   1.277   5.612   4.782 -0.3435  0.1002 -0.1101
   65CHL1  H26A 5984   1.328   5.710   4.771  0.8754 -0.3648  1.0876
   65CHL1  H26B 5985   1.168   5.621   4.799 -0.2832 -0.0663  0.3932
   65CHL1  H26C 5986   1.312   5.574   4.880 -1.2278  1.7401  0.9014
   65CHL1   C27 5987   1.265   5.394   4.694 -0.1757 -0.7962 -0.6062
   65CHL1  H27A 5988   1.157   5.395   4.720  0.0253  0.7041  0.2642
   65CHL1  H27B 5989   1.275   5.335   4.600  0.3619  0.3430 -1.2776
   65CHL1  H27C 5990   1.327   5.341   4.770 -1.2578 -1.7761 -0.3651
   66CHL1    C3 5991   4.274   6.462   2.976 -0.0108 -0.5175 -0.2445
   66CHL1    H3 5992   4.185   6.513   3.019  0.6093  2.4942 -2.2551
   66CHL1    O3 5993   4.245   6.455   2.838  0.4225 -1.0077  0.3143
   66CHL1   H3' 5994   4.244   6.547   2.811 -0.8192 -1.1558 -0.2207
   66CHL1    C4 5995   4.400   6.549   2.992  0.4752 -0.3138  0.4658
   66CHL1   H4A 5996   4.484   6.491   2.949  1.5068  0.4198  1.4229
   66CHL1   H4B 5997   4.391   6.649   2.942 -0.4465 -1.3816 -1.6376
   66CHL1    C5 5998   4.432   6.554   3.141 -0.2011  0.0380 -0.1055
   66CHL1    C6 5999   4.437   6.667   3.206  0.0384 -0.1992  0.1551
   66CHL1    H6 6000   4.417   6.761   3.152 -0.3337 -0.2279  0.2474
   66CHL1    C7 6001   4.506   6.675   3.337 -0.3570  0.2165 -0.6686
   66CHL1   H7A 6002   4.568   6.767   3.327 -0.1389  0.0460 -0.8624
   66CHL1   H7B 6003   4.428   6.716   3.405 -0.3159  1.0730 -1.1199
   66CHL1    C8 6004   4.562   6.547   3.404 -0.7577 -0.1504 -1.1842
   66CHL1    H8 6005   4.664   6.542   3.362 -0.0727  2.8657 -0.1236
   66CHL1   C14 6006   4.569   6.557   3.561 -0.6582  0.4744 -0.0252
   66CHL1   H14 6007   4.461   6.568   3.583 -0.6387  2.2998 -0.7329
   66CHL1   C15 6008   4.642   6.670   3.623  0.0917 -0.2567 -0.0788
   66CHL1  H15A 6009   4.741   6.680   3.573  0.3745 -0.4377  0.4429
   66CHL1  H15B 6010   4.597   6.771   3.608  1.6565  0.3170 -1.2036
   66CHL1   C16 6011   4.662   6.631   3.773 -0.0143 -0.6176  0.3221
   66CHL1  H16A 6012   4.770   6.648   3.792 -0.0326 -0.9204  0.7213
   66CHL1  H16B 6013   4.604   6.683   3.852 -1.4669 -1.9653  0.1862
   66CHL1   C17 6014   4.610   6.486   3.781 -0.1988 -0.3928  0.5568
   66CHL1   H17 6015   4.503   6.491   3.807  0.0119 -2.0821  1.8751
   66CHL1   C13 6016   4.619   6.434   3.636 -0.6217 -0.4724  0.1093
   66CHL1   C18 6017   4.772   6.408   3.606 -0.1998 -1.1989 -0.0614
   66CHL1  H18A 6018   4.839   6.491   3.636 -0.3561 -0.7403 -0.9507
   66CHL1  H18B 6019   4.804   6.318   3.664  0.7172  0.8091  2.7407
   66CHL1  H18C 6020   4.780   6.383   3.498  0.8336  0.0658 -0.2913
   66CHL1   C12 6021   4.533   6.313   3.591 -0.3867  0.1778  0.8470
   66CHL1  H12A 6022   4.586   6.227   3.639  1.2326  1.4058  1.3372
   66CHL1  H12B 6023   4.438   6.337   3.645 -0.5748 -0.7073  0.9387
   66CHL1   C11 6024   4.512   6.295   3.440 -0.2792  0.0238  0.3182
   66CHL1  H11A 6025   4.606   6.264   3.389 -1.4740 -3.1064 -0.1869
   66CHL1  H11B 6026   4.446   6.210   3.413  1.2785 -0.3381 -2.8168
   66CHL1    C9 6027   4.481   6.427   3.364 -0.7617 -0.3099  0.1148
   66CHL1    H9 6028   4.383   6.461   3.405 -1.0370 -0.2268 -0.5805
   66CHL1   C10 6029   4.460   6.413   3.209 -0.3465 -0.2540 -0.1845
   66CHL1   C19 6030   4.585   6.341   3.146 -0.3884 -0.0252  0.7467
   66CHL1  H19A 6031   4.585   6.339   3.035 -0.4301 -1.9903  0.7472
   66CHL1  H19B 6032   4.680   6.390   3.177 -0.1506  1.1787 -1.6691
   66CHL1  H19C 6033   4.583   6.233   3.172  0.9033 -0.6278 -1.4570
   66CHL1    C1 6034   4.337   6.325   3.177  0.4830 -0.3267 -0.6635
   66CHL1   H1A 6035   4.350   6.228   3.229  0.9355  0.0864 -0.0058
   66CHL1   H1B 6036   4.257   6.379   3.232  0.4826 -0.7039 -0.2897
   66CHL1    C2 6037   4.301   6.319   3.031 -0.3922  0.6223 -0.0082
   66CHL1   H2A 6038   4.220   6.245   3.020 -0.7371  0.9860  0.0648
   66CHL1   H2B 6039   4.390   6.272   2.982 -1.3660 -1.9427  0.5500
   66CHL1   C20 6040   4.687   6.407   3.894 -0.5753 -0.2163  0.0529
   66CHL1   H20 6041   4.778   6.355   3.857 -1.6654 -1.9008 -0.3880
   66CHL1   C21 6042   4.588   6.298   3.933 -0.9411 -0.0712  0.1032
   66CHL1  H21A 6043   4.540   6.241   3.850  0.5364  0.5317 -1.2121
   66CHL1  H21B 6044   4.505   6.349   3.987 -0.7132 -0.2772  0.6556
   66CHL1  H21C 6045   4.632   6.218   3.998  0.5060 -1.4529 -2.4207
   66CHL1   C22 6046   4.733   6.491   4.021  0.2848  0.0762  0.4596
   66CHL1  H22A 6047   4.794   6.578   3.988 -0.3113  0.5189  0.5138
   66CHL1  H22B 6048   4.646   6.538   4.070 -0.1999 -0.8243  0.4882
   66CHL1   C23 6049   4.819   6.412   4.116  0.4292 -0.1161 -0.0149
   66CHL1  H23A 6050   4.757   6.336   4.168 -0.1121  1.4527  1.7481
   66CHL1  H23B 6051   4.901   6.366   4.057  1.2025  2.0482 -0.7390
   66CHL1   C24 6052   4.880   6.506   4.216  1.0454  0.1053 -0.4134
   66CHL1  H24A 6053   4.961   6.566   4.169  3.3084 -0.3463  2.5651
   66CHL1  H24B 6054   4.805   6.570   4.266 -1.0383 -1.7809 -0.9463
   66CHL1   C25 6055   4.950   6.434   4.340  0.1195  0.4405  0.0272
   66CHL1   H25 6056   4.874   6.366   4.385  1.2169 -0.0938  1.1352
   66CHL1   C26 6057   5.074   6.349   4.306  0.4899 -0.1188 -0.0783
   66CHL1  H26A 6058   5.060   6.285   4.216  1.5167 -4.2644  2.4294
   66CHL1  H26B 6059   5.162   6.417   4.304  0.4196 -0.0463 -1.3584
   66CHL1  H26C 6060   5.081   6.275   4.389 -2.8690 -0.7712 -0.2081
   66CHL1   C27 6061   4.983   6.546   4.451  0.7372  0.7320 -0.6701
   66CHL1  H27A 6062   4.896   6.609   4.480  2.8088  3.0039  1.0860
   66CHL1  H27B 6063   5.059   6.617   4.412  0.7017  1.3188  0.3018
   66CHL1  H27C 6064   5.018   6.506   4.549  0.5712  0.3881 -0.7497
   67CHL1    C3 6065   4.590   2.838   3.120  0.3393 -0.3682  0.3836
   67CHL1    H3 6066   4.504   2.785   3.166 -0.0965  0.7862  0.9274
   67CHL1    O3 6067   4.580   2.834   2.979 -0.2303  0.1001 -0.0350
   67CHL1   H3' 6068   4.662   2.877   2.952 -0.3966 -0.0943 -0.9107
   67CHL1    C4 6069   4.593   2.989   3.170  0.1479 -0.3287 -0.3860
   67CHL1   H4A 6070   4.686   3.033   3.128  0.8599  0.2526  1.7045
   67CHL1   H4B 6071   4.504   3.040   3.126  0.8003  1.9259  0.7633
   67CHL1    C5 6072   4.596   3.003   3.318 -0.0745 -0.2263 -0.3379
   67CHL1    C6 6073   4.512   3.083   3.379 -0.0925  0.4397 -0.2400
   67CHL1    H6 6074   4.435   3.139   3.323 -0.0254  1.3215  0.5441
   67CHL1    C7 6075   4.515   3.101   3.525  1.0275  0.1752  0.0105
   67CHL1   H7A 6076   4.513   3.205   3.563 -0.3009  0.5333 -0.9893
   67CHL1   H7B 6077   4.423   3.051   3.561  1.8750 -1.3759  0.1366
   67CHL1    C8 6078   4.634   3.032   3.604  0.1568 -0.5773  0.0317
   67CHL1    H8 6079   4.722   3.099   3.596  0.6604 -1.3017 -0.7113
   67CHL1   C14 6080   4.608   3.004   3.749  0.4823 -0.5185 -0.5243
   67CHL1   H14 6081   4.515   2.943   3.753 -1.4788  2.3138 -0.2031
   67CHL1   C15 6082   4.561   3.122   3.839 -0.0225  0.3428  0.0854
   67CHL1  H15A 6083   4.632   3.206   3.840  0.6979 -0.2215 -1.3425
   67CHL1  H15B 6084   4.467   3.164   3.796 -1.1005 -2.1357 -0.1930
   67CHL1   C16 6085   4.554   3.052   3.974  0.2934 -0.1985  0.2813
   67CHL1  H16A 6086   4.592   3.126   4.048 -1.6356  0.3289  0.7975
   67CHL1  H16B 6087   4.445   3.041   3.995  0.2378  0.0291  0.1193
   67CHL1   C17 6088   4.642   2.926   3.966  0.4548  0.3544 -0.2519
   67CHL1   H17 6089   4.568   2.844   3.962  0.6377  0.1502  0.5217
   67CHL1   C13 6090   4.711   2.925   3.830 -0.2949  0.5306  0.4144
   67CHL1   C18 6091   4.844   3.003   3.833  0.7334  0.0807 -0.2850
   67CHL1  H18A 6092   4.880   3.020   3.730  0.3915 -2.5804 -0.9171
   67CHL1  H18B 6093   4.819   3.096   3.890 -0.6181 -0.6384  0.3624
   67CHL1  H18C 6094   4.922   2.957   3.897  2.2941 -1.1155 -2.9127
   67CHL1   C12 6095   4.720   2.789   3.759  0.2803 -0.5462 -0.0689
   67CHL1  H12A 6096   4.780   2.718   3.820 -1.8188 -0.7616  1.8542
   67CHL1  H12B 6097   4.620   2.743   3.765  0.8946 -2.1949 -1.5303
   67CHL1   C11 6098   4.759   2.805   3.610 -0.2950 -0.8950  0.3652
   67CHL1  H11A 6099   4.866   2.836   3.599 -0.6874  0.2427 -0.4304
   67CHL1  H11B 6100   4.738   2.701   3.578 -5.0105  0.1584 -0.6206
   67CHL1    C9 6101   4.663   2.898   3.530  0.2882 -0.5104 -0.0663
   67CHL1    H9 6102   4.566   2.845   3.540 -2.0472  2.3379 -4.2783
   67CHL1   C10 6103   4.700   2.916   3.385  0.3945  0.6454 -0.3007
   67CHL1   C19 6104   4.836   2.980   3.363  0.9902 -0.7676  0.0843
   67CHL1  H19A 6105   4.914   2.919   3.413  1.6780  0.8206  1.0342
   67CHL1  H19B 6106   4.870   2.986   3.257 -1.2154  0.5044 -0.6281
   67CHL1  H19C 6107   4.839   3.084   3.403 -0.5653 -0.2219 -1.1072
   67CHL1    C1 6108   4.724   2.771   3.324 -0.2397  0.2860 -0.8430
   67CHL1   H1A 6109   4.821   2.722   3.351  0.8070  1.5822 -2.0878
   67CHL1   H1B 6110   4.644   2.707   3.368  0.6136 -0.2384  0.0045
   67CHL1    C2 6111   4.709   2.759   3.178  0.0823  0.2989  0.0032
   67CHL1   H2A 6112   4.710   2.657   3.133 -0.8811  1.0678 -1.9028
   67CHL1   H2B 6113   4.801   2.798   3.130  1.1941 -0.0627  1.7904
   67CHL1   C20 6114   4.717   2.904   4.096 -0.0551 -0.8833 -0.1211
   67CHL1   H20 6115   4.805   2.972   4.099 -0.0014 -0.7891 -2.2596
   67CHL1   C21 6116   4.778   2.760   4.096  0.2730 -0.4114  0.3295
   67CHL1  H21A 6117   4.711   2.676   4.069  2.2173 -2.2792  1.0086
   67CHL1  H21B 6118   4.819   2.729   4.195  0.5717 -1.0298  0.0195
   67CHL1  H21C 6119   4.859   2.753   4.020  0.2058  0.7750  0.1245
   67CHL1   C22 6120   4.619   2.921   4.224 -0.0639  0.9752 -0.3282
   67CHL1  H22A 6121   4.552   3.008   4.212  1.1078  1.5691 -3.2494
   67CHL1  H22B 6122   4.558   2.828   4.224  1.0719  0.2059 -0.6845
   67CHL1   C23 6123   4.696   2.929   4.358 -0.1686  0.7069 -0.4345
   67CHL1  H23A 6124   4.772   2.849   4.372  0.5005  1.5137  0.7647
   67CHL1  H23B 6125   4.759   3.020   4.354  1.6304 -0.5514 -1.8848
   67CHL1   C24 6126   4.617   2.927   4.485 -0.0222  0.0796 -0.9283
   67CHL1  H24A 6127   4.545   3.009   4.461 -1.2524  0.1231  2.3190
   67CHL1  H24B 6128   4.562   2.831   4.496  0.5480 -0.0951  0.7239
   67CHL1   C25 6129   4.695   2.955   4.613 -0.0615  0.7025 -0.4370
   67CHL1   H25 6130   4.748   3.052   4.610 -1.6516  1.6972  1.5413
   67CHL1   C26 6131   4.609   2.954   4.744 -0.5769 -0.3947  0.8453
   67CHL1  H26A 6132   4.513   3.009   4.733  0.7091  1.7874 -0.0887
   67CHL1  H26B 6133   4.590   2.849   4.776 -2.7568  0.4595  2.6762
   67CHL1  H26C 6134   4.679   2.996   4.819  3.3154 -3.5950 -0.6623
   67CHL1   C27 6135   4.804   2.847   4.634 -0.8354  0.1204 -0.2112
   67CHL1  H27A 6136   4.892   2.861   4.568  1.0443 -0.0862  2.1090
   67CHL1  H27B 6137   4.846   2.861   4.736  0.4672  0.9733 -0.8446
   67CHL1  H27C 6138   4.755   2.748   4.621  0.3182 -0.3961 -0.7685
   68CHL1    C3 6139   1.992   3.826   3.136 -0.2779 -0.1206  0.1208
   68CHL1    H3 6140   1.946   3.730   3.165  0.1941  0.2455  2.2581
   68CHL1    O3 6141   1.993   3.856   2.995 -0.1758 -0.2601 -0.1246
   68CHL1   H3' 6142   1.915   3.911   2.981  0.3798  0.6998  0.4708
   68CHL1    C4 6143   1.916   3.948   3.204  0.5244 -0.3657 -0.6107
   68CHL1   H4A 6144   1.971   4.040   3.174  1.6633 -0.2100  1.7278
   68CHL1   H4B 6145   1.810   3.951   3.170  0.8327  1.0602 -1.5581
   68CHL1    C5 6146   1.918   3.947   3.358  0.7039 -0.2676 -0.1332
   68CHL1    C6 6147   1.810   3.981   3.432 -0.7143  0.2617  0.3272
   68CHL1    H6 6148   1.711   4.000   3.389 -1.1096 -0.7531  0.7532
   68CHL1    C7 6149   1.806   3.981   3.583  0.2529  0.6494  0.3120
   68CHL1   H7A 6150   1.755   4.067   3.631  0.6650  1.4699 -0.6920
   68CHL1   H7B 6151   1.764   3.883   3.617  2.7229 -0.6023 -0.0167
   68CHL1    C8 6152   1.948   3.996   3.654  0.2721 -0.3031 -0.0738
   68CHL1    H8 6153   1.981   4.102   3.650  1.5164 -0.5741  1.8429
   68CHL1   C14 6154   1.937   3.956   3.800  0.6900  0.6252  0.3326
   68CHL1   H14 6155   1.903   3.851   3.806  0.0552  0.8774  1.2875
   68CHL1   C15 6156   1.842   4.036   3.893 -0.9441  0.5037  0.7447
   68CHL1  H15A 6157   1.860   4.145   3.879  3.5365  0.1154  2.1273
   68CHL1  H15B 6158   1.738   4.014   3.859  0.0534 -1.8566 -1.0248
   68CHL1   C16 6159   1.889   3.997   4.034  0.0073 -0.5870 -0.1294
   68CHL1  H16A 6160   1.896   4.084   4.102 -1.8010 -0.2108 -0.3940
   68CHL1  H16B 6161   1.824   3.918   4.077  1.8427 -2.3089 -0.3199
   68CHL1   C17 6162   2.026   3.920   4.023  1.0446  1.0024 -0.4158
   68CHL1   H17 6163   2.009   3.811   4.015  0.1577  1.2131 -1.6505
   68CHL1   C13 6164   2.077   3.958   3.876 -0.6260  0.9255 -0.1138
   68CHL1   C18 6165   2.145   4.100   3.880 -0.1119 -0.5084 -0.0690
   68CHL1  H18A 6166   2.246   4.085   3.923 -0.3194 -1.2773  0.1742
   68CHL1  H18B 6167   2.138   4.138   3.775  2.6230 -1.3989 -0.6613
   68CHL1  H18C 6168   2.091   4.169   3.948  3.1673  2.4288 -0.1785
   68CHL1   C12 6169   2.167   3.854   3.809  1.0110 -0.2076 -0.2317
   68CHL1  H12A 6170   2.270   3.868   3.846  0.3540  0.2935  1.5069
   68CHL1  H12B 6171   2.125   3.755   3.841  2.9869 -2.0588 -2.8911
   68CHL1   C11 6172   2.175   3.874   3.657 -0.6885 -0.4735 -0.0915
   68CHL1  H11A 6173   2.244   3.957   3.630  0.9501 -1.6396  0.3955
   68CHL1  H11B 6174   2.218   3.780   3.618  0.6062 -0.3565  0.9740
   68CHL1    C9 6175   2.046   3.901   3.581 -0.0703  0.3441  0.4867
   68CHL1    H9 6176   2.001   3.803   3.609  1.9761 -0.4136  1.3021
   68CHL1   C10 6177   2.057   3.929   3.428 -0.0705  0.1011 -0.1304
   68CHL1   C19 6178   2.147   4.056   3.417  0.0208 -0.3416  0.3550
   68CHL1  H19A 6179   2.253   4.055   3.450 -0.5938  0.2726  2.5059
   68CHL1  H19B 6180   2.150   4.090   3.311 -0.7371  0.0650  0.4585
   68CHL1  H19C 6181   2.088   4.136   3.466  1.4237  2.1613 -1.7312
   68CHL1    C1 6182   2.138   3.821   3.356  0.4722  0.7086  0.2505
   68CHL1   H1A 6183   2.242   3.822   3.394  0.6429  0.9589 -0.2200
   68CHL1   H1B 6184   2.091   3.725   3.387 -1.1822  2.0260  2.0756
   68CHL1    C2 6185   2.135   3.820   3.198 -0.3707 -0.0241 -0.4232
   68CHL1   H2A 6186   2.203   3.746   3.151  0.2252 -1.0381  1.9022
   68CHL1   H2B 6187   2.177   3.918   3.168 -0.0494 -0.2345 -0.6663
   68CHL1   C20 6188   2.118   3.959   4.140 -0.5052  0.3468 -0.0587
   68CHL1   H20 6189   2.144   4.066   4.126  1.3962 -0.1099 -0.2248
   68CHL1   C21 6190   2.242   3.870   4.138 -0.2115  0.4560  0.1743
   68CHL1  H21A 6191   2.308   3.871   4.049 -0.4725 -2.9702 -0.2024
   68CHL1  H21B 6192   2.195   3.770   4.151 -2.1164  1.4149  1.1574
   68CHL1  H21C 6193   2.310   3.886   4.224 -0.7347  1.3736  0.4377
   68CHL1   C22 6194   2.053   3.948   4.281 -0.4874 -0.6812  0.7118
   68CHL1  H22A 6195   1.960   4.009   4.275  0.2793  0.4310 -0.5445
   68CHL1  H22B 6196   2.033   3.841   4.302 -2.6275 -0.1568  1.5599
   68CHL1   C23 6197   2.128   4.024   4.392 -0.8494 -0.6801 -0.1736
   68CHL1  H23A 6198   2.229   3.980   4.404  0.2848  0.8312 -3.1292
   68CHL1  H23B 6199   2.141   4.133   4.372 -1.2551 -0.6242 -0.1446
   68CHL1   C24 6200   2.066   4.027   4.529  0.0229  0.0566 -0.4859
   68CHL1  H24A 6201   2.135   4.072   4.604  1.6342 -1.7096 -0.8262
   68CHL1  H24B 6202   1.966   4.076   4.527  1.1561  2.5681 -0.1138
   68CHL1   C25 6203   2.040   3.882   4.580 -0.4733 -0.2921 -0.2455
   68CHL1   H25 6204   1.971   3.825   4.515  0.0681  0.0394 -1.1144
   68CHL1   C26 6205   2.178   3.815   4.594  0.0579  0.4329 -0.7480
   68CHL1  H26A 6206   2.230   3.877   4.670  0.4125 -1.1876  0.3729
   68CHL1  H26B 6207   2.157   3.721   4.649  0.5508  0.9548  0.3742
   68CHL1  H26C 6208   2.235   3.790   4.502 -0.8333 -1.1852 -0.8918
   68CHL1   C27 6209   1.972   3.871   4.719 -0.1065  0.4434 -0.0062
   68CHL1  H27A 6210   2.017   3.943   4.790 -0.7792  0.7332  0.1300
   68CHL1  H27B 6211   1.865   3.898   4.715 -0.6650 -1.6260 -0.3914
   68CHL1  H27C 6212   1.964   3.764   4.749  1.5390  0.5257  0.8187
   69CHL1    C3 6213   0.040   3.882   6.387  0.0791 -0.2869  0.4884
   69CHL1    H3 6214   0.144   3.911   6.361  0.2844 -0.3438  1.2300
   69CHL1    O3 6215   0.033   3.880   6.526  0.2208  0.2624 -0.5155
   69CHL1   H3' 6216  -0.003   3.792   6.539  1.1571  0.0302  0.7526
   69CHL1    C4 6217  -0.056   3.987   6.332 -0.6777  0.6597  0.1610
   69CHL1   H4A 6218  -0.162   3.975   6.363 -1.2264  4.3412  0.1504
   69CHL1   H4B 6219  -0.045   4.086   6.382 -2.3675  0.7005  0.5213
   69CHL1    C5 6220  -0.050   3.993   6.183  0.1788  0.0734  0.2061
   69CHL1    C6 6221  -0.021   4.108   6.120  0.2191  0.1039 -0.2469
   69CHL1    H6 6222  -0.010   4.189   6.193  2.1822 -0.6015  0.3081
   69CHL1    C7 6223  -0.031   4.129   5.971 -0.6296  0.3529  0.2698
   69CHL1   H7A 6224  -0.072   4.230   5.954  1.6394  1.4794  1.1524
   69CHL1   H7B 6225   0.074   4.143   5.938 -0.4939  1.9321  1.3092
   69CHL1    C8 6226  -0.088   4.010   5.897  0.4102 -0.3439 -0.3619
   69CHL1    H8 6227  -0.199   4.011   5.907  0.2554 -2.3656 -1.4058
   69CHL1   C14 6228  -0.038   4.018   5.753  0.2656 -0.0809  0.1095
   69CHL1   H14 6229   0.072   4.007   5.765  0.4229  0.0208 -1.0499
   69CHL1   C15 6230  -0.045   4.150   5.684  0.1805  0.1428 -0.0329
   69CHL1  H15A 6231  -0.152   4.180   5.677  0.0910 -0.0178  0.5728
   69CHL1  H15B 6232   0.007   4.238   5.727  2.1844  0.3537 -2.6532
   69CHL1   C16 6233   0.007   4.119   5.548 -0.4123  0.5797 -0.5021
   69CHL1  H16A 6234  -0.072   4.161   5.482 -0.3524  1.3511 -0.0915
   69CHL1  H16B 6235   0.105   4.160   5.517  1.1026 -2.0901  0.4057
   69CHL1   C17 6236   0.016   3.965   5.534 -0.3251 -0.4139  0.0126
   69CHL1   H17 6237   0.121   3.938   5.559  0.3892  1.9288 -0.1798
   69CHL1   C13 6238  -0.076   3.917   5.654  0.5865 -0.1966  0.1758
   69CHL1   C18 6239  -0.232   3.923   5.625  0.7262  0.5537  0.1182
   69CHL1  H18A 6240  -0.286   3.871   5.707  0.3311 -0.5306 -0.7972
   69CHL1  H18B 6241  -0.270   4.027   5.616  1.8660  0.9603 -0.2344
   69CHL1  H18C 6242  -0.247   3.873   5.526 -2.5076  1.7720 -0.1316
   69CHL1   C12 6243  -0.037   3.778   5.707  0.5456  0.0980 -0.1798
   69CHL1  H12A 6244  -0.079   3.687   5.659 -1.3191  0.9750 -0.3095
   69CHL1  H12B 6245   0.074   3.770   5.701  0.6595  1.2241  0.2779
   69CHL1   C11 6246  -0.080   3.760   5.855  0.0932 -0.3379 -0.2149
   69CHL1  H11A 6247  -0.188   3.734   5.848 -0.2487  1.3153 -1.8577
   69CHL1  H11B 6248  -0.027   3.675   5.901  1.6789  0.7222 -0.0167
   69CHL1    C9 6249  -0.038   3.875   5.956 -0.2122 -0.2622 -1.0632
   69CHL1    H9 6250   0.072   3.888   5.950 -0.5465  2.6856 -2.1572
   69CHL1   C10 6251  -0.075   3.862   6.106  0.2020  0.1031  0.3956
   69CHL1   C19 6252  -0.221   3.831   6.121  0.4886 -1.2081  0.0813
   69CHL1  H19A 6253  -0.282   3.893   6.053 -1.3006 -2.8155  0.1299
   69CHL1  H19B 6254  -0.238   3.725   6.091  0.8459 -1.1363 -0.3946
   69CHL1  H19C 6255  -0.249   3.848   6.227 -1.0054  2.1588 -0.7042
   69CHL1    C1 6256   0.016   3.751   6.164  0.7991 -0.3671 -0.0042
   69CHL1   H1A 6257  -0.021   3.652   6.130 -0.4865  0.1975 -0.3023
   69CHL1   H1B 6258   0.123   3.771   6.140  0.7448  0.8735  0.6751
   69CHL1    C2 6259   0.013   3.739   6.317 -0.3490 -0.7507 -0.0455
   69CHL1   H2A 6260   0.091   3.670   6.356 -1.7725 -3.0992 -1.1923
   69CHL1   H2B 6261  -0.088   3.701   6.344 -1.1350  1.1201 -0.2010
   69CHL1   C20 6262  -0.010   3.912   5.392 -0.1726 -0.4014 -0.2210
   69CHL1   H20 6263  -0.115   3.928   5.359  0.3354 -1.1040 -2.2986
   69CHL1   C21 6264   0.030   3.765   5.385  0.1493  0.0102  0.1674
   69CHL1  H21A 6265  -0.045   3.705   5.442 -1.0541  0.0891 -1.2579
   69CHL1  H21B 6266   0.133   3.747   5.423  1.3089 -0.1880 -2.8151
   69CHL1  H21C 6267   0.007   3.728   5.283 -4.3613  0.9680  0.5938
   69CHL1   C22 6268   0.068   3.990   5.283 -0.5912  0.3942 -0.3105
   69CHL1  H22A 6269   0.111   4.086   5.318  2.6590 -1.3148  0.8579
   69CHL1  H22B 6270   0.155   3.923   5.263  0.7915  2.0253  0.0587
   69CHL1   C23 6271  -0.015   4.013   5.158  0.3416 -0.1937 -0.0567
   69CHL1  H23A 6272  -0.045   3.913   5.120 -2.2346  0.4253  0.1476
   69CHL1  H23B 6273  -0.086   4.093   5.189  1.9165  1.5933 -0.8881
   69CHL1   C24 6274   0.064   4.058   5.034  0.3000 -0.7477 -0.4511
   69CHL1  H24A 6275   0.094   4.160   5.067 -2.5185  0.0371 -0.0008
   69CHL1  H24B 6276   0.151   3.995   5.006  0.4387 -1.4383  1.3880
   69CHL1   C25 6277  -0.027   4.073   4.909  0.3534  0.3134  0.3043
   69CHL1   H25 6278  -0.064   3.969   4.895  0.7915  0.2645 -0.6052
   69CHL1   C26 6279  -0.151   4.166   4.924 -0.7065 -0.3209 -0.4155
   69CHL1  H26A 6280  -0.114   4.270   4.917  1.1118 -0.9266 -0.1822
   69CHL1  H26B 6281  -0.226   4.165   4.841 -0.3387 -1.1267 -0.7497
   69CHL1  H26C 6282  -0.213   4.148   5.015 -2.4911 -0.9966 -1.6961
   69CHL1   C27 6283   0.045   4.123   4.778 -0.0646  0.1414 -0.3144
   69CHL1  H27A 6284   0.126   4.051   4.752  1.3963  0.6888  2.3636
   69CHL1  H27B 6285  -0.022   4.123   4.689 -1.2143 -0.4148  0.5251
   69CHL1  H27C 6286   0.092   4.221   4.797  1.6066 -0.5030 -0.8982
   70CHL1    C3 6287   2.014   6.285   3.383  0.3747 -0.0710  0.6168
   70CHL1    H3 6288   1.920   6.239   3.422  0.6730 -1.8931 -0.6639
   70CHL1    O3 6289   1.997   6.331   3.252 -0.5819 -0.4622 -0.2122
   70CHL1   H3' 6290   2.076   6.367   3.212 -1.2987 -0.0500 -1.3275
   70CHL1    C4 6291   2.060   6.410   3.468  0.5034 -0.4654 -0.1357
   70CHL1   H4A 6292   2.137   6.462   3.407 -0.5178  1.0797 -0.1462
   70CHL1   H4B 6293   1.976   6.482   3.461 -0.1570 -1.1530  0.5568
   70CHL1    C5 6294   2.103   6.381   3.606 -0.0867 -0.6620 -0.1254
   70CHL1    C6 6295   2.026   6.426   3.710 -0.4484  0.9732  0.7858
   70CHL1    H6 6296   1.948   6.501   3.691  0.8326  1.9986 -0.5646
   70CHL1    C7 6297   2.057   6.389   3.851 -0.4371  0.7416 -0.0594
   70CHL1   H7A 6298   2.073   6.472   3.923  1.0357  1.0831 -0.7504
   70CHL1   H7B 6299   1.983   6.310   3.875 -0.5329  0.8204 -0.0940
   70CHL1    C8 6300   2.201   6.322   3.871 -0.3461  0.2237  0.2841
   70CHL1    H8 6301   2.270   6.407   3.850 -0.7436  0.2580 -0.9874
   70CHL1   C14 6302   2.211   6.264   4.012 -0.7254 -0.6228  0.0775
   70CHL1   H14 6303   2.139   6.179   4.009  1.2058 -2.3148  0.0080
   70CHL1   C15 6304   2.167   6.354   4.133 -0.7980 -0.7458 -0.3245
   70CHL1  H15A 6305   2.203   6.458   4.116 -2.5350  0.0189  0.4187
   70CHL1  H15B 6306   2.056   6.358   4.130 -0.8130  0.5735  0.8894
   70CHL1   C16 6307   2.235   6.290   4.253  0.6808 -0.4178 -0.1273
   70CHL1  H16A 6308   2.300   6.368   4.298 -0.1822  1.1475 -1.4544
   70CHL1  H16B 6309   2.158   6.257   4.326  1.2639 -0.7373  0.3432
   70CHL1   C17 6310   2.309   6.162   4.196 -0.7257 -0.1919 -0.3467
   70CHL1   H17 6311   2.231   6.082   4.190 -0.5468 -0.4781  0.9633
   70CHL1   C13 6312   2.342   6.206   4.051 -0.2898  0.3596 -0.2726
   70CHL1   C18 6313   2.456   6.308   4.055 -0.4647  0.2433  0.0876
   70CHL1  H18A 6314   2.442   6.383   4.135 -0.8433  0.8990 -0.5792
   70CHL1  H18B 6315   2.551   6.253   4.070 -0.9541 -1.4294 -2.3357
   70CHL1  H18C 6316   2.478   6.377   3.971  2.3963  0.2703  0.7629
   70CHL1   C12 6317   2.376   6.084   3.950 -0.8075 -0.0893 -0.6593
   70CHL1  H12A 6318   2.485   6.066   3.962 -0.3099  2.6176 -0.3487
   70CHL1  H12B 6319   2.310   5.998   3.973 -0.8230  0.1739  0.3532
   70CHL1   C11 6320   2.361   6.137   3.802 -0.0704 -0.7634 -0.7019
   70CHL1  H11A 6321   2.450   6.201   3.789  0.5543 -1.4913 -0.0944
   70CHL1  H11B 6322   2.369   6.050   3.732 -0.9399 -1.7371  0.3618
   70CHL1    C9 6323   2.234   6.218   3.760  0.1931  0.2956 -0.5428
   70CHL1    H9 6324   2.153   6.146   3.785 -0.0266  1.3338  2.0392
   70CHL1   C10 6325   2.210   6.262   3.615 -0.4907 -0.5390 -0.2551
   70CHL1   C19 6326   2.349   6.316   3.563  0.4340 -0.4040 -0.0518
   70CHL1  H19A 6327   2.393   6.381   3.642 -0.3364 -0.6434  0.5969
   70CHL1  H19B 6328   2.429   6.239   3.552  2.3617  1.2134  1.7594
   70CHL1  H19C 6329   2.339   6.379   3.473  2.6711  0.3494  0.1702
   70CHL1    C1 6330   2.162   6.144   3.529 -0.1563  0.3773  0.0069
   70CHL1   H1A 6331   2.241   6.067   3.525 -0.0832  0.4880 -0.7659
   70CHL1   H1B 6332   2.078   6.097   3.585 -0.0610  1.4855  1.1189
   70CHL1    C2 6333   2.120   6.179   3.383 -0.1703  0.2339  0.0468
   70CHL1   H2A 6334   2.099   6.083   3.330 -1.2609  0.4361  0.0908
   70CHL1   H2B 6335   2.208   6.228   3.336 -1.0638 -0.5444 -2.6681
   70CHL1   C20 6336   2.412   6.120   4.293 -0.9687  0.4162 -0.3791
   70CHL1   H20 6337   2.471   6.213   4.304  0.3036 -0.3868 -0.1317
   70CHL1   C21 6338   2.497   6.000   4.234  0.4316 -0.3711 -0.5307
   70CHL1  H21A 6339   2.573   5.961   4.305  0.3890 -0.5484 -0.5809
   70CHL1  H21B 6340   2.551   6.033   4.142 -0.3321  1.2912 -0.4005
   70CHL1  H21C 6341   2.426   5.916   4.223  0.2060 -0.3498  0.6407
   70CHL1   C22 6342   2.339   6.082   4.425 -0.3612  0.4901 -0.8578
   70CHL1  H22A 6343   2.275   6.166   4.458 -2.4590  0.0584 -3.4935
   70CHL1  H22B 6344   2.272   5.995   4.406 -0.2843 -0.4268  2.4301
   70CHL1   C23 6345   2.437   6.061   4.541  1.2806  0.6750 -0.5866
   70CHL1  H23A 6346   2.501   5.975   4.513  0.0749 -0.1888 -0.7594
   70CHL1  H23B 6347   2.500   6.153   4.550  2.3348 -0.0935  0.1586
   70CHL1   C24 6348   2.369   6.038   4.676  0.3891 -0.4140 -0.0007
   70CHL1  H24A 6349   2.298   6.121   4.699  1.9438  0.8453  0.4267
   70CHL1  H24B 6350   2.320   5.938   4.674  1.4370 -1.0705  2.7408
   70CHL1   C25 6351   2.462   6.016   4.801 -0.2053  0.3325 -0.6194
   70CHL1   H25 6352   2.538   6.096   4.799 -0.5112  0.8310  2.3925
   70CHL1   C26 6353   2.380   6.044   4.926  0.2548  0.4642  0.2018
   70CHL1  H26A 6354   2.348   6.151   4.923  1.7676  0.9248 -0.4541
   70CHL1  H26B 6355   2.296   5.972   4.933  0.3959  0.1761 -0.9851
   70CHL1  H26C 6356   2.442   6.036   5.019 -0.4634  1.5240  0.7983
   70CHL1   C27 6357   2.529   5.881   4.815  0.0099  0.4457  0.6807
   70CHL1  H27A 6358   2.568   5.838   4.720 -1.0083 -4.1410  2.1232
   70CHL1  H27B 6359   2.617   5.878   4.883 -0.6873 -2.3129  1.5743
   70CHL1  H27C 6360   2.456   5.800   4.831  0.7280 -0.6377 -1.1692
   71CHL1    C3 6361   0.185   4.765   3.190  0.1370 -0.5567  0.3044
   71CHL1    H3 6362   0.276   4.800   3.243  0.2595 -1.2729  0.5774
   71CHL1    O3 6363   0.219   4.777   3.051 -0.3752  0.6849  0.3387
   71CHL1   H3' 6364   0.302   4.731   3.038 -0.5540  0.9796 -2.7054
   71CHL1    C4 6365   0.172   4.614   3.230 -0.2170  0.6663  0.3850
   71CHL1   H4A 6366   0.081   4.584   3.174  0.1780 -0.3719  0.2924
   71CHL1   H4B 6367   0.247   4.550   3.180 -1.5032  0.5585 -1.4931
   71CHL1    C5 6368   0.163   4.602   3.379  0.7025 -0.3063  0.6158
   71CHL1    C6 6369   0.252   4.523   3.439  0.3313  0.2801 -0.2922
   71CHL1    H6 6370   0.325   4.473   3.373  0.9170 -1.6207  1.6695
   71CHL1    C7 6371   0.259   4.508   3.588  1.0700  0.4308 -0.0163
   71CHL1   H7A 6372   0.243   4.400   3.606  1.7604  0.0499 -1.5360
   71CHL1   H7B 6373   0.355   4.545   3.629  1.3988 -0.2227 -0.1725
   71CHL1    C8 6374   0.129   4.578   3.658 -1.3699  0.0548  0.0323
   71CHL1    H8 6375   0.048   4.502   3.649  0.0538 -1.3781 -1.2364
   71CHL1   C14 6376   0.159   4.603   3.807 -0.1487 -0.0593 -0.5360
   71CHL1   H14 6377   0.220   4.696   3.804 -1.7242  1.0079 -1.4818
   71CHL1   C15 6378   0.236   4.505   3.901  0.8273 -0.3757  0.1044
   71CHL1  H15A 6379   0.213   4.401   3.869  3.6457 -1.1119  0.2160
   71CHL1  H15B 6380   0.342   4.537   3.891  0.9997 -1.5127 -2.3780
   71CHL1   C16 6381   0.184   4.536   4.040 -0.3779 -0.9230  0.0193
   71CHL1  H16A 6382   0.125   4.445   4.065 -2.2534 -0.2351 -1.6996
   71CHL1  H16B 6383   0.270   4.535   4.111  0.1761 -0.3112 -0.6336
   71CHL1   C17 6384   0.087   4.655   4.029  0.0016 -0.0481 -0.1350
   71CHL1   H17 6385   0.148   4.748   4.028 -0.9997  0.6243  0.0034
   71CHL1   C13 6386   0.036   4.657   3.881  0.3482 -0.0429 -0.2212
   71CHL1   C18 6387  -0.084   4.558   3.872 -0.0965  0.1067  0.2343
   71CHL1  H18A 6388  -0.129   4.547   3.772 -1.8949  0.1392  1.0038
   71CHL1  H18B 6389  -0.057   4.455   3.906  2.6804  1.4820  2.6529
   71CHL1  H18C 6390  -0.162   4.595   3.943  0.2363 -1.4624  1.4810
   71CHL1   C12 6391   0.004   4.796   3.816  0.8394  0.1220  0.3253
   71CHL1  H12A 6392  -0.091   4.831   3.863  0.0035 -0.7651 -0.6571
   71CHL1  H12B 6393   0.090   4.863   3.839  0.7830  0.7144 -1.1154
   71CHL1   C11 6394  -0.027   4.778   3.667  0.3754 -0.3168 -0.4422
   71CHL1  H11A 6395  -0.125   4.731   3.649  0.7703 -1.3289 -0.0313
   71CHL1  H11B 6396  -0.048   4.882   3.634  1.1453 -0.4207 -1.3022
   71CHL1    C9 6397   0.089   4.706   3.586 -0.3514 -0.0945 -0.0891
   71CHL1    H9 6398   0.184   4.762   3.602  0.0539 -0.6776 -0.4114
   71CHL1   C10 6399   0.060   4.694   3.440  0.3692  0.0896 -0.2303
   71CHL1   C19 6400  -0.078   4.621   3.425  0.0213 -0.4639 -0.0120
   71CHL1  H19A 6401  -0.093   4.613   3.315 -1.7498 -0.9764  0.2429
   71CHL1  H19B 6402  -0.074   4.518   3.465 -4.3089 -0.5777  0.5599
   71CHL1  H19C 6403  -0.167   4.683   3.448 -0.5169 -1.4006  0.4418
   71CHL1    C1 6404   0.036   4.839   3.383 -0.5716 -0.9023 -1.0575
   71CHL1   H1A 6405  -0.063   4.885   3.405 -0.1636  0.1848 -1.3805
   71CHL1   H1B 6406   0.105   4.906   3.440  0.9623 -3.5551  0.3875
   71CHL1    C2 6407   0.059   4.851   3.232 -0.1425  0.5602 -0.7771
   71CHL1   H2A 6408   0.077   4.954   3.195  0.9555  0.5589 -0.2864
   71CHL1   H2B 6409  -0.037   4.809   3.195 -0.0333 -0.5445  0.1247
   71CHL1   C20 6410  -0.016   4.662   4.143 -0.7706 -0.2878  0.8228
   71CHL1   H20 6411  -0.095   4.584   4.127  1.4382 -2.5735  0.3601
   71CHL1   C21 6412  -0.083   4.797   4.132 -0.4457  0.4643 -0.1360
   71CHL1  H21A 6413  -0.168   4.812   4.061 -1.4587 -0.0191  0.9357
   71CHL1  H21B 6414  -0.010   4.878   4.111  1.0253 -1.3890 -2.6911
   71CHL1  H21C 6415  -0.142   4.812   4.225 -1.9610  0.0411 -0.9917
   71CHL1   C22 6416   0.059   4.660   4.274  0.4712  0.1694 -0.2828
   71CHL1  H22A 6417   0.120   4.568   4.284 -2.8089 -2.1828 -0.2141
   71CHL1  H22B 6418   0.129   4.746   4.284 -0.7761  1.1402  0.3467
   71CHL1   C23 6419  -0.038   4.647   4.399 -0.5257  0.6503 -0.2443
   71CHL1  H23A 6420  -0.102   4.737   4.407 -0.6634  0.5770 -0.5334
   71CHL1  H23B 6421  -0.108   4.561   4.393  1.3205 -0.9575  0.0981
   71CHL1   C24 6422   0.050   4.640   4.528 -0.4622 -0.2740 -0.0298
   71CHL1  H24A 6423   0.118   4.553   4.523 -0.8710 -0.6058  0.0730
   71CHL1  H24B 6424   0.099   4.738   4.543 -1.9580  0.4413  0.4252
   71CHL1   C25 6425  -0.026   4.619   4.656 -0.1007 -0.0426 -1.3446
   71CHL1   H25 6426  -0.126   4.666   4.648  1.4374  3.2402 -2.9969
   71CHL1   C26 6427  -0.045   4.464   4.687 -0.2335 -0.1717 -0.1995
   71CHL1  H26A 6428   0.060   4.429   4.687  0.3115  1.3898 -0.3237
   71CHL1  H26B 6429  -0.086   4.443   4.788  2.1946 -0.2027  0.8281
   71CHL1  H26C 6430  -0.101   4.413   4.605 -2.6864  2.3757 -0.2638
   71CHL1   C27 6431   0.042   4.672   4.779 -0.3107  0.3519  0.0117
   71CHL1  H27A 6432  -0.025   4.673   4.867  0.7236  0.3103  0.8131
   71CHL1  H27B 6433   0.128   4.609   4.811 -0.7477 -0.6953 -0.8289
   71CHL1  H27C 6434   0.067   4.780   4.766  1.0815  0.0571  0.0706
   72CHL1    C3 6435   0.155   0.350   3.687  0.0996 -0.2426  0.7877
   72CHL1    H3 6436   0.195   0.450   3.661  2.0826 -0.5741  2.3018
   72CHL1    O3 6437   0.169   0.274   3.568  0.3318 -0.0962  0.3833
   72CHL1   H3' 6438   0.095   0.305   3.515 -0.7602  2.3559  3.0772
   72CHL1    C4 6439   0.240   0.295   3.801  0.3185  0.8821  0.0874
   72CHL1   H4A 6440   0.198   0.195   3.824  1.9772  0.2293  0.4334
   72CHL1   H4B 6441   0.341   0.277   3.758  0.4482  1.5924  0.0873
   72CHL1    C5 6442   0.223   0.390   3.916 -0.5822  0.2249 -0.1238
   72CHL1    C6 6443   0.337   0.437   3.978  0.1330 -0.5664  0.0307
   72CHL1    H6 6444   0.433   0.400   3.939  1.3085  1.7690  0.5141
   72CHL1    C7 6445   0.332   0.520   4.106 -0.0558 -0.3383 -0.2137
   72CHL1   H7A 6446   0.412   0.491   4.177  0.8524  0.8894 -0.6975
   72CHL1   H7B 6447   0.353   0.625   4.076  0.6680 -0.3992  0.0661
   72CHL1    C8 6448   0.195   0.522   4.179 -0.1155  0.0894  0.1438
   72CHL1    H8 6449   0.187   0.425   4.232 -0.4879  0.5001  0.8559
   72CHL1   C14 6450   0.195   0.637   4.283  0.5200  0.0292 -0.8346
   72CHL1   H14 6451   0.225   0.729   4.229  0.0672  0.8276  0.2346
   72CHL1   C15 6452   0.284   0.605   4.402  0.5311 -0.2631 -0.5024
   72CHL1  H15A 6453   0.267   0.500   4.435 -0.2185 -0.0219 -0.0749
   72CHL1  H15B 6454   0.392   0.617   4.383  0.9533 -0.2637  1.6500
   72CHL1   C16 6455   0.221   0.699   4.513 -0.6012  0.6120 -0.2839
   72CHL1  H16A 6456   0.198   0.638   4.603 -2.6696  1.7135  0.0176
   72CHL1  H16B 6457   0.280   0.791   4.537 -1.6950  0.7723  2.0207
   72CHL1   C17 6458   0.081   0.759   4.458 -0.5405  0.0026  0.4272
   72CHL1   H17 6459   0.110   0.854   4.408 -0.0071  0.0534  0.8195
   72CHL1   C13 6460   0.046   0.655   4.348  0.2793  0.4904 -0.5566
   72CHL1   C18 6461   0.000   0.527   4.414 -0.2211 -0.2100  0.2566
   72CHL1  H18A 6462   0.014   0.436   4.352 -0.3391 -0.3921  0.4960
   72CHL1  H18B 6463   0.045   0.513   4.515  0.7922  3.6776  0.5226
   72CHL1  H18C 6464  -0.110   0.535   4.424 -0.3380 -1.4328 -0.0175
   72CHL1   C12 6465  -0.042   0.701   4.234 -0.1609  0.3318 -0.2102
   72CHL1  H12A 6466  -0.140   0.739   4.268  0.8184  0.8468  2.3167
   72CHL1  H12B 6467   0.012   0.786   4.186  2.0088 -0.2840  0.9837
   72CHL1   C11 6468  -0.060   0.591   4.124  0.3833  0.2059 -0.2681
   72CHL1  H11A 6469  -0.120   0.518   4.182 -2.2032  3.6918  1.7821
   72CHL1  H11B 6470  -0.121   0.639   4.044  0.6472  2.1539  0.6513
   72CHL1    C9 6471   0.081   0.542   4.074 -0.6217 -0.1015  0.0078
   72CHL1    H9 6472   0.120   0.622   4.007 -1.0027 -0.3182 -0.4857
   72CHL1   C10 6473   0.078   0.426   3.971  0.3380  0.3057 -0.1824
   72CHL1   C19 6474   0.034   0.298   4.049  0.5458  0.0046 -0.5181
   72CHL1  H19A 6475  -0.075   0.296   4.073  0.1563 -1.2249 -2.1126
   72CHL1  H19B 6476   0.048   0.209   3.983  0.6340 -1.0756  0.9237
   72CHL1  H19C 6477   0.088   0.283   4.144  0.2197 -0.2564 -0.3703
   72CHL1    C1 6478  -0.019   0.462   3.850  0.8805  1.0919 -0.1370
   72CHL1   H1A 6479  -0.122   0.473   3.891  0.6051 -0.0702 -0.4913
   72CHL1   H1B 6480   0.003   0.563   3.809  1.0312 -0.0526 -3.1441
   72CHL1    C2 6481   0.005   0.371   3.728 -0.0760  0.0074  0.1182
   72CHL1   H2A 6482  -0.035   0.417   3.635  0.0597  0.0899  0.1014
   72CHL1   H2B 6483  -0.041   0.271   3.744  0.8191 -0.5654 -0.7496
   72CHL1   C20 6484  -0.012   0.791   4.578 -0.0451 -0.0646  0.0779
   72CHL1   H20 6485  -0.042   0.692   4.619 -1.6252  0.5615  0.4669
   72CHL1   C21 6486  -0.135   0.865   4.523  0.7105 -0.3435 -0.7497
   72CHL1  H21A 6487  -0.191   0.806   4.447 -0.9032  0.8959 -0.5845
   72CHL1  H21B 6488  -0.104   0.958   4.471  2.5002  0.6974  1.9349
   72CHL1  H21C 6489  -0.197   0.877   4.615  3.4802  0.5889  1.0976
   72CHL1   C22 6490   0.049   0.876   4.696 -0.2284  0.6157 -0.1994
   72CHL1  H22A 6491  -0.019   0.889   4.783  2.3405  0.8642  1.9020
   72CHL1  H22B 6492   0.139   0.824   4.733 -0.8115 -0.0018  0.3904
   72CHL1   C23 6493   0.096   1.023   4.658 -0.0048  0.9243  0.2569
   72CHL1  H23A 6494   0.152   1.024   4.562  0.1829  0.6132  0.3611
   72CHL1  H23B 6495   0.011   1.092   4.637  0.6471  1.2102 -1.7284
   72CHL1   C24 6496   0.186   1.074   4.770 -0.0981 -0.0805 -0.3763
   72CHL1  H24A 6497   0.152   1.034   4.868  3.8395  1.0880  1.6772
   72CHL1  H24B 6498   0.289   1.033   4.764 -0.2245 -0.2940 -1.2592
   72CHL1   C25 6499   0.195   1.226   4.787 -0.4257 -0.2533  0.1990
   72CHL1   H25 6500   0.097   1.253   4.831 -0.2995 -1.6622  1.3891
   72CHL1   C26 6501   0.297   1.276   4.892 -0.2336  0.0400  0.4598
   72CHL1  H26A 6502   0.297   1.387   4.904 -0.5171  0.2754 -1.3718
   72CHL1  H26B 6503   0.264   1.239   4.991 -0.1473 -1.9879 -0.2205
   72CHL1  H26C 6504   0.401   1.244   4.870 -0.1082  0.5139  0.3566
   72CHL1   C27 6505   0.222   1.302   4.653  0.1386  0.7409  0.2620
   72CHL1  H27A 6506   0.139   1.274   4.584 -0.4916 -0.3206  1.4273
   72CHL1  H27B 6507   0.209   1.410   4.677 -0.4470  1.1658 -1.7473
   72CHL1  H27C 6508   0.325   1.280   4.617 -0.6952 -1.8281 -0.7736
   73CHL1    C3 6509   1.531   4.468   3.337 -0.0602 -0.5745  0.2421
   73CHL1    H3 6510   1.608   4.530   3.286 -0.4926  1.6836  2.1166
   73CHL1    O3 6511   1.443   4.405   3.239  0.0640 -0.1340  0.3293
   73CHL1   H3' 6512   1.389   4.477   3.205 -0.4650 -0.3014  0.7951
   73CHL1    C4 6513   1.595   4.354   3.417 -0.9197  0.1109  0.0919
   73CHL1   H4A 6514   1.513   4.301   3.470 -0.6845 -0.4055 -0.0514
   73CHL1   H4B 6515   1.644   4.276   3.355  0.0724 -0.7218  1.8273
   73CHL1    C5 6516   1.692   4.406   3.527 -0.5659  0.4716  0.2722
   73CHL1    C6 6517   1.815   4.357   3.524 -0.0575 -0.2390  0.6893
   73CHL1    H6 6518   1.841   4.271   3.460 -2.0338 -0.2174 -0.2274
   73CHL1    C7 6519   1.918   4.405   3.616 -0.7246  0.2139  0.1606
   73CHL1   H7A 6520   1.977   4.324   3.664  2.3902  2.3440  0.2348
   73CHL1   H7B 6521   2.001   4.450   3.559  0.4621 -1.0648  0.8099
   73CHL1    C8 6522   1.866   4.488   3.734 -0.2993  0.6283 -0.1226
   73CHL1    H8 6523   1.829   4.411   3.806 -2.2610  1.3996 -0.2237
   73CHL1   C14 6524   1.975   4.574   3.797 -0.0908 -0.0936  0.0557
   73CHL1   H14 6525   1.991   4.650   3.717 -2.4637  1.2882  0.7863
   73CHL1   C15 6526   2.119   4.517   3.826  0.0318  0.2042 -0.0086
   73CHL1  H15A 6527   2.091   4.416   3.865 -1.1673  1.1053  1.5682
   73CHL1  H15B 6528   2.172   4.521   3.729 -0.1601 -1.8187 -0.2401
   73CHL1   C16 6529   2.170   4.609   3.934 -0.0261  0.5402 -0.4623
   73CHL1  H16A 6530   2.169   4.556   4.031 -1.3374 -1.2458 -1.3984
   73CHL1  H16B 6531   2.274   4.645   3.916  0.2826 -1.6916 -4.0190
   73CHL1   C17 6532   2.064   4.718   3.955  0.0698 -0.4035  0.8264
   73CHL1   H17 6533   2.085   4.792   3.875 -0.2461 -2.0853 -0.8752
   73CHL1   C13 6534   1.930   4.657   3.911 -0.4703  0.0516  0.6603
   73CHL1   C18 6535   1.875   4.571   4.024 -0.2104 -0.9148  0.3431
   73CHL1  H18A 6536   1.784   4.510   4.002 -0.7369 -0.3629  0.9590
   73CHL1  H18B 6537   1.951   4.499   4.060  0.5795 -1.1553 -1.6421
   73CHL1  H18C 6538   1.849   4.645   4.102 -1.0730 -1.0307  0.1811
   73CHL1   C12 6539   1.824   4.755   3.861 -0.1827  0.3539 -0.9716
   73CHL1  H12A 6540   1.779   4.807   3.948  0.1968 -1.4871  0.3913
   73CHL1  H12B 6541   1.866   4.830   3.790  1.4384  1.5529  1.1594
   73CHL1   C11 6542   1.706   4.686   3.791 -0.5732 -0.1178 -0.3457
   73CHL1  H11A 6543   1.642   4.633   3.865 -0.9864 -1.8460 -1.8828
   73CHL1  H11B 6544   1.632   4.754   3.745 -0.1812  0.5966  0.0610
   73CHL1    C9 6545   1.750   4.577   3.687 -0.1603  0.1805  0.2304
   73CHL1    H9 6546   1.794   4.642   3.609 -0.9458 -0.6096 -0.8953
   73CHL1   C10 6547   1.628   4.510   3.616  0.0172 -0.4742  0.7779
   73CHL1   C19 6548   1.539   4.436   3.720  0.2416  0.1833  0.4200
   73CHL1  H19A 6549   1.447   4.388   3.680  1.1459  0.1278 -1.7074
   73CHL1  H19B 6550   1.593   4.360   3.779 -0.2405  0.1924  0.8772
   73CHL1  H19C 6551   1.502   4.514   3.790  0.0033  0.5331 -0.0899
   73CHL1    C1 6552   1.535   4.615   3.541 -0.4711 -0.0973  0.0566
   73CHL1   H1A 6553   1.469   4.664   3.615  0.9905 -1.0493  2.0710
   73CHL1   H1B 6554   1.599   4.696   3.498  0.3437 -0.0050  1.3981
   73CHL1    C2 6555   1.451   4.555   3.428  0.2475 -0.0340 -0.1720
   73CHL1   H2A 6556   1.404   4.640   3.373  0.9825 -0.1779 -1.0415
   73CHL1   H2B 6557   1.365   4.505   3.478  1.7656 -2.1628  0.3992
   73CHL1   C20 6558   2.079   4.776   4.100 -0.2628 -0.1025  0.0647
   73CHL1   H20 6559   2.050   4.704   4.180 -2.3025  1.4279  0.8011
   73CHL1   C21 6560   1.982   4.897   4.121 -0.9278  0.0435 -0.7019
   73CHL1  H21A 6561   2.001   4.986   4.057 -2.7953  0.0627 -1.3006
   73CHL1  H21B 6562   1.991   4.933   4.225 -1.3061 -2.1238  0.1454
   73CHL1  H21C 6563   1.879   4.857   4.106 -1.9239  2.5056 -0.8814
   73CHL1   C22 6564   2.223   4.814   4.152 -0.3273 -0.4581 -0.3980
   73CHL1  H22A 6565   2.297   4.739   4.117  0.4670  0.6635 -1.1769
   73CHL1  H22B 6566   2.244   4.911   4.102 -2.5172 -0.1580 -0.8509
   73CHL1   C23 6567   2.226   4.831   4.310 -0.0463  0.2474  0.5701
   73CHL1  H23A 6568   2.322   4.877   4.342  0.3513 -0.2292  0.0772
   73CHL1  H23B 6569   2.144   4.899   4.343  0.7549  0.7013  1.6628
   73CHL1   C24 6570   2.212   4.695   4.383 -0.8898  0.4327  0.4470
   73CHL1  H24A 6571   2.110   4.650   4.378  0.1689 -2.0353 -0.8358
   73CHL1  H24B 6572   2.285   4.622   4.342 -1.3728 -0.6561  1.4391
   73CHL1   C25 6573   2.259   4.691   4.529 -0.1366 -0.8342  0.5948
   73CHL1   H25 6574   2.362   4.732   4.528 -0.4383 -0.0705  0.3445
   73CHL1   C26 6575   2.175   4.786   4.610  0.3928  0.7442  0.7288
   73CHL1  H26A 6576   2.185   4.890   4.571 -2.2043  1.1372  0.9259
   73CHL1  H26B 6577   2.067   4.764   4.595  0.7087  0.3397 -1.3588
   73CHL1  H26C 6578   2.196   4.783   4.719  2.0135  1.9213  0.4971
   73CHL1   C27 6579   2.272   4.546   4.580  0.8469 -0.4907 -0.2292
   73CHL1  H27A 6580   2.170   4.504   4.574  0.5454  0.2489 -0.3873
   73CHL1  H27B 6581   2.344   4.489   4.519  1.5895 -0.2468  0.3981
   73CHL1  H27C 6582   2.293   4.546   4.689  0.2375  1.5613 -0.0521
   74CHL1    C3 6583   0.117   2.749   3.200 -0.0428  0.3800 -0.6153
   74CHL1    H3 6584   0.223   2.717   3.210 -0.4822 -0.4643  2.2140
   74CHL1    O3 6585   0.077   2.711   3.071  0.2080 -0.1339  0.0294
   74CHL1   H3' 6586   0.134   2.639   3.043 -0.0897 -0.3949  0.0986
   74CHL1    C4 6587   0.020   2.678   3.284 -0.4586  0.5617 -0.0436
   74CHL1   H4A 6588  -0.086   2.683   3.251 -0.1405  0.8801 -1.0466
   74CHL1   H4B 6589   0.034   2.569   3.276  1.2442  0.6055  1.5912
   74CHL1    C5 6590   0.014   2.724   3.430  0.3637  0.1879 -0.4537
   74CHL1    C6 6591   0.038   2.635   3.532 -0.5718 -0.2848  0.0826
   74CHL1    H6 6592   0.066   2.531   3.509  1.1891  0.4846 -1.4280
   74CHL1    C7 6593   0.028   2.679   3.677 -0.9760 -0.0689  0.6000
   74CHL1   H7A 6594  -0.041   2.599   3.713 -0.2627 -1.7314 -1.4979
   74CHL1   H7B 6595   0.122   2.671   3.735 -0.1661 -0.8022 -0.7620
   74CHL1    C8 6596  -0.028   2.816   3.701  0.4018  0.2902 -0.6333
   74CHL1    H8 6597  -0.138   2.816   3.686  0.4345  2.9231 -1.3407
   74CHL1   C14 6598   0.001   2.855   3.847  0.2395  0.4424  1.0119
   74CHL1   H14 6599   0.111   2.869   3.843  0.3534 -0.4240  0.8726
   74CHL1   C15 6600  -0.040   2.756   3.950 -0.4531 -0.1063 -0.7731
   74CHL1  H15A 6601  -0.134   2.703   3.924  0.8344 -1.6699 -2.4978
   74CHL1  H15B 6602   0.041   2.680   3.956 -1.1106 -0.6788  2.0658
   74CHL1   C16 6603  -0.056   2.844   4.074 -0.4940  0.9409 -0.0403
   74CHL1  H16A 6604  -0.155   2.825   4.122  0.3371 -0.6386  1.1106
   74CHL1  H16B 6605   0.024   2.817   4.146 -0.0670 -0.0797 -0.8815
   74CHL1   C17 6606  -0.034   2.995   4.035  0.7252  0.0063  0.4305
   74CHL1   H17 6607   0.074   3.018   4.045  0.6056  0.8417 -0.0371
   74CHL1   C13 6608  -0.061   2.993   3.880  0.0378 -0.2551 -0.0771
   74CHL1   C18 6609  -0.221   2.990   3.863 -0.2055 -0.3077  0.1305
   74CHL1  H18A 6610  -0.260   3.093   3.878 -0.3812 -0.1303 -1.3561
   74CHL1  H18B 6611  -0.258   2.963   3.762 -1.4688 -1.0320  0.7606
   74CHL1  H18C 6612  -0.267   2.914   3.929  1.1264 -0.3032  1.1082
   74CHL1   C12 6613   0.009   3.101   3.791 -0.1659 -0.5177 -0.4391
   74CHL1  H12A 6614  -0.031   3.199   3.821 -0.7520 -0.2104 -2.0943
   74CHL1  H12B 6615   0.118   3.103   3.811 -0.5625 -0.5856  1.9760
   74CHL1   C11 6616  -0.013   3.069   3.642  0.6942  0.6484 -0.1977
   74CHL1  H11A 6617  -0.119   3.095   3.623  0.4294  0.8526  1.4234
   74CHL1  H11B 6618   0.047   3.136   3.577  2.5259 -1.5770 -0.9381
   74CHL1    C9 6619   0.024   2.921   3.601 -0.0824  0.0971 -0.3255
   74CHL1    H9 6620   0.133   2.922   3.622 -0.2056  0.4298  0.3178
   74CHL1   C10 6621   0.001   2.873   3.449  0.1921 -0.3358  0.3211
   74CHL1   C19 6622  -0.139   2.925   3.408 -0.0314 -0.0333  0.1708
   74CHL1  H19A 6623  -0.168   2.887   3.307  1.2925 -0.3743 -0.1064
   74CHL1  H19B 6624  -0.215   2.888   3.479 -0.5514  1.3745  0.3801
   74CHL1  H19C 6625  -0.156   3.035   3.407 -0.6927 -0.1320 -0.9350
   74CHL1    C1 6626   0.101   2.940   3.361 -0.3443 -0.1721 -0.2463
   74CHL1   H1A 6627   0.069   3.046   3.350 -0.4126 -0.3187 -1.5354
   74CHL1   H1B 6628   0.201   2.939   3.409 -0.1821 -0.1141 -0.5852
   74CHL1    C2 6629   0.101   2.898   3.215 -0.1224  0.3303 -0.1722
   74CHL1   H2A 6630   0.189   2.951   3.172  0.9927 -2.1375 -1.1812
   74CHL1   H2B 6631   0.002   2.923   3.173 -0.2726  1.2138  0.6784
   74CHL1   C20 6632  -0.108   3.094   4.138  0.2844  0.4992  0.2039
   74CHL1   H20 6633  -0.217   3.074   4.124 -0.4843  2.6673  2.4188
   74CHL1   C21 6634  -0.079   3.238   4.103  0.4871 -0.2126 -0.0587
   74CHL1  H21A 6635  -0.120   3.314   4.173  0.8459  1.6376 -1.7663
   74CHL1  H21B 6636  -0.125   3.268   4.006  0.5141 -0.3731 -0.1220
   74CHL1  H21C 6637   0.031   3.250   4.105  0.9167 -2.8203 -1.8295
   74CHL1   C22 6638  -0.083   3.067   4.288  0.1397 -0.1707  0.6936
   74CHL1  H22A 6639  -0.144   3.144   4.338 -0.2462 -0.3085  0.4458
   74CHL1  H22B 6640  -0.121   2.968   4.321 -1.3635 -0.1256 -0.7745
   74CHL1   C23 6641   0.057   3.099   4.339 -0.6856 -0.4053 -0.3268
   74CHL1  H23A 6642   0.121   3.041   4.269 -0.3766  1.0600 -1.3317
   74CHL1  H23B 6643   0.092   3.204   4.329  1.0010 -0.9337 -0.2051
   74CHL1   C24 6644   0.077   3.048   4.481 -0.0937 -0.3974 -0.7294
   74CHL1  H24A 6645   0.071   2.937   4.488 -0.4087 -0.2963  1.2153
   74CHL1  H24B 6646   0.180   3.074   4.515 -0.1816 -2.9072  1.8725
   74CHL1   C25 6647  -0.024   3.095   4.590 -0.3974 -0.1996  0.3316
   74CHL1   H25 6648  -0.127   3.075   4.554 -1.0379  0.4119  1.7421
   74CHL1   C26 6649  -0.005   3.000   4.702 -0.4748 -0.9504 -0.1841
   74CHL1  H26A 6650  -0.012   2.895   4.668 -1.0468 -0.8071 -0.5243
   74CHL1  H26B 6651   0.094   3.017   4.749  0.4318  1.5076 -2.7063
   74CHL1  H26C 6652  -0.073   3.021   4.787 -0.4976 -0.5895 -0.2899
   74CHL1   C27 6653  -0.014   3.250   4.618  0.0117 -0.5651 -0.1062
   74CHL1  H27A 6654   0.090   3.289   4.627 -0.2535 -0.2553  2.5658
   74CHL1  H27B 6655  -0.068   3.308   4.540 -0.5215  0.3604  0.9275
   74CHL1  H27C 6656  -0.057   3.278   4.717 -1.4266  0.5634 -1.0113
   75CHL1    C3 6657   0.469   2.359   3.160  0.1171  0.3568  0.6647
   75CHL1    H3 6658   0.569   2.408   3.166  0.2864  0.1439 -0.3449
   75CHL1    O3 6659   0.421   2.349   3.027  0.6018 -0.0121  0.0396
   75CHL1   H3' 6660   0.400   2.256   3.020 -1.4617  0.2767  1.5283
   75CHL1    C4 6661   0.463   2.221   3.235 -0.3862 -0.3412  0.6500
   75CHL1   H4A 6662   0.368   2.171   3.204 -1.7576  2.4404  0.0608
   75CHL1   H4B 6663   0.533   2.144   3.196 -2.5297 -2.5029  0.8456
   75CHL1    C5 6664   0.475   2.221   3.381  0.4224  0.9653 -0.1959
   75CHL1    C6 6665   0.574   2.153   3.445 -0.4282 -0.0806 -0.1440
   75CHL1    H6 6666   0.642   2.077   3.405 -0.2793 -1.1145  1.9432
   75CHL1    C7 6667   0.580   2.153   3.597 -0.2009 -0.2392  0.3681
   75CHL1   H7A 6668   0.601   2.055   3.645  1.1156  0.5231  1.4387
   75CHL1   H7B 6669   0.671   2.214   3.620 -0.0564  0.2015 -1.2580
   75CHL1    C8 6670   0.457   2.220   3.673  0.0711 -0.5915  0.8837
   75CHL1    H8 6671   0.378   2.145   3.653 -1.0118  0.8297 -0.3674
   75CHL1   C14 6672   0.491   2.249   3.818 -0.7786 -0.3293 -0.2369
   75CHL1   H14 6673   0.567   2.329   3.828 -1.0491  0.0216 -0.9468
   75CHL1   C15 6674   0.540   2.129   3.903  0.0639  0.2586 -0.8832
   75CHL1  H15A 6675   0.477   2.041   3.878  1.3633 -0.4983 -1.5855
   75CHL1  H15B 6676   0.646   2.097   3.893  0.5078  0.6377  1.7252
   75CHL1   C16 6677   0.509   2.187   4.043  0.1631  0.5116  0.6405
   75CHL1  H16A 6678   0.460   2.099   4.089 -3.0439  1.4942 -0.6479
   75CHL1  H16B 6679   0.602   2.219   4.096 -0.0132  2.7127 -0.2869
   75CHL1   C17 6680   0.416   2.312   4.040 -0.3755 -0.2059  0.8093
   75CHL1   H17 6681   0.482   2.400   4.056 -0.4533 -0.0220  0.1447
   75CHL1   C13 6682   0.364   2.303   3.894 -0.6957  0.4601 -0.3842
   75CHL1   C18 6683   0.248   2.208   3.893 -0.6905  0.2852  0.0194
   75CHL1  H18A 6684   0.153   2.253   3.931 -1.6054 -0.9048 -0.7793
   75CHL1  H18B 6685   0.212   2.179   3.792 -0.3241 -2.2831  0.5486
   75CHL1  H18C 6686   0.265   2.118   3.957 -2.5591  1.0853  1.7533
   75CHL1   C12 6687   0.315   2.439   3.832 -0.4107  0.1110 -0.0200
   75CHL1  H12A 6688   0.224   2.477   3.883 -0.3245  1.0166 -0.5288
   75CHL1  H12B 6689   0.390   2.518   3.855 -0.5598  0.4404 -0.6598
   75CHL1   C11 6690   0.298   2.423   3.686 -0.3934 -0.6044  0.6014
   75CHL1  H11A 6691   0.197   2.379   3.670 -1.0346  1.0415 -0.0385
   75CHL1  H11B 6692   0.294   2.524   3.640 -1.1415 -1.2871 -0.9203
   75CHL1    C9 6693   0.406   2.340   3.605 -0.2683 -0.1607  1.1821
   75CHL1    H9 6694   0.491   2.411   3.597  0.2610 -0.9252 -0.5403
   75CHL1   C10 6695   0.376   2.321   3.456 -0.1842  0.1380  0.3677
   75CHL1   C19 6696   0.230   2.266   3.444 -0.4684 -0.1503  0.5733
   75CHL1  H19A 6697   0.198   2.185   3.513  0.1666 -0.7152  0.2246
   75CHL1  H19B 6698   0.156   2.347   3.464 -0.0496  0.7208 -1.1678
   75CHL1  H19C 6699   0.205   2.236   3.340  1.3532 -0.6533  0.2423
   75CHL1    C1 6700   0.383   2.461   3.388 -0.3129  0.4079  0.7293
   75CHL1   H1A 6701   0.310   2.531   3.435 -2.2601 -1.8100  1.1731
   75CHL1   H1B 6702   0.483   2.500   3.416  0.3960 -1.1470  0.4414
   75CHL1    C2 6703   0.369   2.459   3.230 -0.0376 -0.8019  0.0297
   75CHL1   H2A 6704   0.381   2.560   3.186  0.7203 -0.3748  1.1662
   75CHL1   H2B 6705   0.269   2.422   3.200 -0.6676  1.9370 -1.5744
   75CHL1   C20 6706   0.317   2.317   4.155 -0.1506  0.1723  0.3451
   75CHL1   H20 6707   0.242   2.235   4.144 -0.5776  0.4029  1.3937
   75CHL1   C21 6708   0.215   2.432   4.154  0.1486  0.1083 -0.1368
   75CHL1  H21A 6709   0.263   2.531   4.169 -0.0793  0.1063  0.6970
   75CHL1  H21B 6710   0.148   2.417   4.242  1.5727 -0.1264  0.9500
   75CHL1  H21C 6711   0.152   2.428   4.063 -1.6037 -0.9167  1.0549
   75CHL1   C22 6712   0.392   2.305   4.288  0.1586  0.6688  0.4161
   75CHL1  H22A 6713   0.457   2.215   4.286  1.7763  1.7885  0.1867
   75CHL1  H22B 6714   0.468   2.385   4.300  1.0325 -0.0198 -0.3533
   75CHL1   C23 6715   0.305   2.309   4.419 -0.0334 -0.0670  0.1914
   75CHL1  H23A 6716   0.242   2.401   4.421  1.7245  1.1833  1.5260
   75CHL1  H23B 6717   0.237   2.223   4.437 -0.4151  0.4634  1.4230
   75CHL1   C24 6718   0.392   2.324   4.546 -0.2637 -0.1258  0.7240
   75CHL1  H24A 6719   0.456   2.414   4.533 -0.2169 -0.5739 -3.3946
   75CHL1  H24B 6720   0.322   2.337   4.631 -1.7172 -0.5002 -0.3761
   75CHL1   C25 6721   0.491   2.215   4.576  0.6729 -0.1163 -0.0083
   75CHL1   H25 6722   0.560   2.217   4.488  1.2428  0.5499  0.4449
   75CHL1   C26 6723   0.570   2.251   4.701 -0.6596  0.6743  0.3266
   75CHL1  H26A 6724   0.649   2.173   4.712  0.0511  1.3681  0.2485
   75CHL1  H26B 6725   0.614   2.353   4.694  0.9085 -0.0768 -1.8677
   75CHL1  H26C 6726   0.510   2.258   4.794 -0.5467  0.1795  0.4396
   75CHL1   C27 6727   0.437   2.074   4.594  0.0844  0.0011  0.3615
   75CHL1  H27A 6728   0.522   2.004   4.605  0.3457  0.2323 -0.1478
   75CHL1  H27B 6729   0.375   2.085   4.686 -3.6567  1.1163 -2.0544
   75CHL1  H27C 6730   0.374   2.058   4.504  0.5679  1.2271 -0.2112
   76CHL1    C3 6731   5.241   2.591   3.296 -0.1850  0.1840 -0.1860
   76CHL1    H3 6732   5.324   2.661   3.275  0.1792 -0.4330 -0.8729
   76CHL1    O3 6733   5.186   2.553   3.175  0.0031  0.1433 -0.1667
   76CHL1   H3' 6734   5.109   2.498   3.190  0.7026 -0.9051 -0.3389
   76CHL1    C4 6735   5.299   2.469   3.380  0.2840 -0.3910  0.8495
   76CHL1   H4A 6736   5.221   2.390   3.367  1.5955 -1.5415 -0.4012
   76CHL1   H4B 6737   5.390   2.444   3.323 -0.7060 -1.0959 -0.4764
   76CHL1    C5 6738   5.328   2.490   3.526  0.3919 -0.6600 -0.6818
   76CHL1    C6 6739   5.446   2.459   3.577  0.0084 -0.0356 -0.3498
   76CHL1    H6 6740   5.523   2.411   3.514  0.2798  0.1245 -0.1400
   76CHL1    C7 6741   5.464   2.480   3.727 -0.9922 -0.0952  0.8258
   76CHL1   H7A 6742   5.514   2.387   3.763 -0.1497 -0.6966 -1.6765
   76CHL1   H7B 6743   5.523   2.572   3.748  0.1447 -0.0789 -2.0777
   76CHL1    C8 6744   5.334   2.496   3.806 -0.0719  0.2053  0.5120
   76CHL1    H8 6745   5.282   2.399   3.797  0.4036  0.0216 -0.3881
   76CHL1   C14 6746   5.362   2.522   3.953 -0.7570  0.3385 -0.1755
   76CHL1   H14 6747   5.412   2.621   3.951  0.1201 -0.1080 -1.6329
   76CHL1   C15 6748   5.457   2.433   4.036  0.8247 -0.6823  0.0099
   76CHL1  H15A 6749   5.438   2.324   4.029  0.7369 -0.7551  1.1257
   76CHL1  H15B 6750   5.560   2.454   4.001 -0.1333  0.1389 -2.5137
   76CHL1   C16 6751   5.422   2.476   4.183  0.3800 -0.0997  0.6131
   76CHL1  H16A 6752   5.409   2.373   4.224 -0.1980  0.3028  1.4667
   76CHL1  H16B 6753   5.512   2.524   4.227  2.2059 -1.2871 -1.5651
   76CHL1   C17 6754   5.301   2.569   4.181  0.0563 -0.3199  0.2433
   76CHL1   H17 6755   5.335   2.674   4.167 -0.7241  0.0345  0.9580
   76CHL1   C13 6756   5.244   2.546   4.039  0.3322  0.1194 -0.6209
   76CHL1   C18 6757   5.161   2.414   4.039 -0.5931  0.5624 -0.1141
   76CHL1  H18A 6758   5.223   2.324   4.059  0.6472  1.2806 -0.6429
   76CHL1  H18B 6759   5.088   2.417   4.123  0.7342  3.2780  1.0525
   76CHL1  H18C 6760   5.105   2.404   3.944 -2.2913 -0.9131  0.9682
   76CHL1   C12 6761   5.163   2.668   3.982  0.2688  0.3859  0.0861
   76CHL1  H12A 6762   5.073   2.701   4.039  0.0521  2.4159 -1.3318
   76CHL1  H12B 6763   5.224   2.761   3.977 -0.5531  0.9187 -0.2064
   76CHL1   C11 6764   5.123   2.641   3.837  0.1040  0.0595 -0.4709
   76CHL1  H11A 6765   5.039   2.569   3.835  0.4949 -0.4160 -0.0254
   76CHL1  H11B 6766   5.084   2.734   3.790 -1.3200 -0.7651 -0.9966
   76CHL1    C9 6767   5.249   2.605   3.744  0.2822  0.5983  0.2534
   76CHL1    H9 6768   5.306   2.700   3.736 -0.0039  0.6446 -1.9127
   76CHL1   C10 6769   5.215   2.565   3.603  0.0145  0.4632  0.3441
   76CHL1   C19 6770   5.088   2.472   3.616 -0.1134  0.4847 -0.2197
   76CHL1  H19A 6771   4.999   2.534   3.640  1.2158  2.3541  0.1182
   76CHL1  H19B 6772   5.058   2.431   3.518 -1.7611  1.0845  0.0069
   76CHL1  H19C 6773   5.101   2.382   3.681  1.7021  0.1124 -1.0259
   76CHL1    C1 6774   5.171   2.687   3.518  0.4852  0.0268  0.2966
   76CHL1   H1A 6775   5.077   2.724   3.564 -0.4186 -0.4965 -1.0661
   76CHL1   H1B 6776   5.250   2.764   3.536  1.8544 -1.7249  2.2015
   76CHL1    C2 6777   5.128   2.664   3.368 -0.4174 -0.4851 -1.0364
   76CHL1   H2A 6778   5.115   2.760   3.314  1.6069 -0.9238 -2.4069
   76CHL1   H2B 6779   5.034   2.605   3.364  0.3525 -1.8229 -0.1463
   76CHL1   C20 6780   5.201   2.569   4.308 -0.0196  0.2377  0.6463
   76CHL1   H20 6781   5.100   2.570   4.262 -0.2449 -0.5071  1.0960
   76CHL1   C21 6782   5.207   2.708   4.388 -0.1413 -0.5667 -0.1367
   76CHL1  H21A 6783   5.273   2.701   4.477 -0.1701  2.1331  0.1774
   76CHL1  H21B 6784   5.108   2.741   4.424  0.2806  1.2515 -0.5297
   76CHL1  H21C 6785   5.248   2.791   4.326 -0.3750 -0.4878 -0.1857
   76CHL1   C22 6786   5.198   2.441   4.398 -0.1131  0.3979 -0.2953
   76CHL1  H22A 6787   5.183   2.351   4.334  1.1417 -1.1164  1.4273
   76CHL1  H22B 6788   5.299   2.440   4.445  0.5560  0.2740 -1.6930
   76CHL1   C23 6789   5.082   2.443   4.507  0.1552  0.6568 -0.1913
   76CHL1  H23A 6790   5.102   2.539   4.559  0.6190  0.4116  0.0872
   76CHL1  H23B 6791   4.989   2.464   4.451  1.2208  1.8869 -1.5983
   76CHL1   C24 6792   5.067   2.326   4.605  0.3549  0.4110 -0.9378
   76CHL1  H24A 6793   4.982   2.341   4.674  0.0887 -0.8719 -0.9606
   76CHL1  H24B 6794   5.032   2.237   4.548 -1.1844 -2.1939  3.5927
   76CHL1   C25 6795   5.186   2.286   4.695  0.3201  0.8145 -0.1637
   76CHL1   H25 6796   5.269   2.255   4.628 -0.3892  0.4048 -0.8748
   76CHL1   C26 6797   5.242   2.399   4.786  1.0653  0.3135  0.2575
   76CHL1  H26A 6798   5.264   2.488   4.723 -1.9735 -0.6322 -2.3828
   76CHL1  H26B 6799   5.158   2.427   4.852 -0.6168 -0.4447 -1.4685
   76CHL1  H26C 6800   5.323   2.352   4.847 -1.4168 -3.2536  1.1313
   76CHL1   C27 6801   5.140   2.159   4.786 -0.3394 -1.0635 -0.4420
   76CHL1  H27A 6802   5.051   2.190   4.844 -0.1800  2.7566 -1.8839
   76CHL1  H27B 6803   5.106   2.079   4.717  0.7434 -3.3263  1.5196
   76CHL1  H27C 6804   5.226   2.117   4.842  2.0539  3.5127 -0.1621
   77SOPE     N 6805   3.367   2.566   7.227  0.2079  0.7838 -0.9278
   77SOPE   HN1 6806   3.399   2.556   7.325  0.3005  0.5992 -0.9767
   77SOPE   HN2 6807   3.305   2.649   7.218 -0.0640  0.8023  0.7759
   77SOPE   HN3 6808   3.317   2.475   7.219 -1.4795  1.3273  1.9465
   77SOPE   C12 6809   3.490   2.581   7.136 -0.5593  0.2153  0.2706
   77SOPE  H12A 6810   3.574   2.515   7.167  0.7395  1.9487  0.5489
   77SOPE  H12B 6811   3.536   2.680   7.153  0.5973 -0.0400 -1.1916
   77SOPE   C11 6812   3.455   2.571   6.988 -0.8459  0.2664  0.6260
   77SOPE  H11A 6813   3.550   2.594   6.938  0.9868 -1.4370  3.0558
   77SOPE  H11B 6814   3.371   2.640   6.966 -1.4983 -0.7456 -0.1663
   77SOPE     P 6815   3.370   2.402   6.810 -0.1347 -0.1127  0.1672
   77SOPE   O13 6816   3.245   2.474   6.788  0.8333 -0.4210  0.1230
   77SOPE   O14 6817   3.366   2.252   6.794  0.6067 -0.1057 -0.1854
   77SOPE   O12 6818   3.422   2.432   6.954 -0.2774  0.2027  0.2995
   77SOPE   O11 6819   3.470   2.472   6.718  0.0517  0.3297 -0.2078
   77SOPE    C1 6820   3.574   2.411   6.645 -0.2662 -0.0970 -0.8542
   77SOPE    HA 6821   3.595   2.307   6.678 -0.5615  0.4728  1.2637
   77SOPE    HB 6822   3.670   2.458   6.675 -0.8091  1.1014 -0.9348
   77SOPE    C2 6823   3.555   2.433   6.495 -0.3131 -0.2237 -0.1546
   77SOPE    HS 6824   3.540   2.543   6.485  3.6263  0.8619  3.0274
   77SOPE   O21 6825   3.433   2.378   6.445 -0.0885  0.5074  0.1324
   77SOPE   C21 6826   3.415   2.252   6.466  0.5022 -0.3925 -0.0662
   77SOPE   O22 6827   3.491   2.161   6.505  0.3668  0.2616  0.1295
   77SOPE   C22 6828   3.264   2.222   6.429  0.3881 -0.3457 -0.3011
   77SOPE   H2R 6829   3.206   2.316   6.437  2.1696  0.7037  1.1130
   77SOPE   H2S 6830   3.221   2.155   6.507 -0.5803  0.6802  0.0659
   77SOPE    C3 6831   3.680   2.394   6.417 -0.1310 -0.0955 -0.0585
   77SOPE    HX 6832   3.714   2.294   6.451 -0.5553 -0.4515 -0.6688
   77SOPE    HY 6833   3.764   2.462   6.442 -0.1460  0.1988 -0.7702
   77SOPE   O31 6834   3.656   2.373   6.276 -0.4642 -0.1133  0.7328
   77SOPE   C31 6835   3.635   2.483   6.199 -0.2965  0.5203  0.6063
   77SOPE   O32 6836   3.621   2.594   6.239 -0.7475 -0.3807  0.0688
   77SOPE   C32 6837   3.629   2.450   6.053 -0.4691  0.0899 -0.4580
   77SOPE   H2X 6838   3.521   2.433   6.031 -1.7087  3.2161  2.3073
   77SOPE   H2Y 6839   3.701   2.369   6.028  1.3704  1.9280 -1.4457
   77SOPE   C23 6840   3.261   2.153   6.287  0.2601  0.2737  0.1702
   77SOPE   H3R 6841   3.162   2.104   6.272  0.0698 -0.0502  2.1788
   77SOPE   H3S 6842   3.336   2.072   6.294  0.4848  0.3311 -1.2678
   77SOPE   C24 6843   3.285   2.252   6.167 -0.6440 -0.3238 -0.1911
   77SOPE   H4R 6844   3.215   2.338   6.155  0.6453  0.5009 -2.2091
   77SOPE   H4S 6845   3.383   2.301   6.183 -0.9385 -0.2628  1.6342
   77SOPE   C25 6846   3.287   2.169   6.038 -1.4424  0.2905  0.1226
   77SOPE   H5R 6847   3.379   2.105   6.040 -3.1806 -2.3821 -0.4889
   77SOPE   H5S 6848   3.206   2.095   6.056  0.4984 -1.6974  1.2800
   77SOPE   C26 6849   3.273   2.214   5.891 -0.1978  0.0043 -0.7018
   77SOPE   H6R 6850   3.171   2.251   5.872  0.0392  0.7591 -0.5386
   77SOPE   H6S 6851   3.333   2.306   5.873 -0.5523  0.5195  0.6125
   77SOPE   C27 6852   3.303   2.105   5.787  0.4501  0.1435  1.1407
   77SOPE   H7R 6853   3.404   2.066   5.813  0.1242 -1.3511  0.2958
   77SOPE   H7S 6854   3.240   2.014   5.781  1.8768 -0.8960  1.4069
   77SOPE   C28 6855   3.308   2.174   5.644  0.0484 -0.4947 -0.6023
   77SOPE   H8R 6856   3.380   2.257   5.661 -0.8691 -0.0180  1.2110
   77SOPE   H8S 6857   3.367   2.104   5.581 -0.6937 -1.8388  0.1536
   77SOPE   C29 6858   3.168   2.212   5.596  0.0230 -0.7805  0.2874
   77SOPE   H91 6859   3.140   2.317   5.617  0.9026 -0.5439  0.2890
   77SOPE  C210 6860   3.079   2.125   5.546 -0.6451 -0.1522  0.4140
   77SOPE  H101 6861   2.981   2.163   5.512  0.1478  1.4160 -0.2607
   77SOPE  C211 6862   3.111   1.980   5.526  0.1475 -0.0831  0.1341
   77SOPE  H11R 6863   3.046   1.915   5.588 -0.6513  0.4628 -0.1138
   77SOPE  H11S 6864   3.219   1.964   5.547  0.8095  2.4393 -0.8821
   77SOPE  C212 6865   3.089   1.927   5.382  0.4920 -0.1685 -0.9802
   77SOPE  H12R 6866   3.126   1.823   5.382  0.2990 -0.2380 -0.6622
   77SOPE  H12S 6867   3.160   1.978   5.313  3.6545 -2.7041  0.1843
   77SOPE  C213 6868   2.951   1.944   5.321  0.0532  0.3020 -0.5537
   77SOPE  H13R 6869   2.940   1.914   5.214 -3.8179 -0.6889 -0.0410
   77SOPE  H13S 6870   2.916   2.049   5.324 -0.3151  0.1923 -0.8630
   77SOPE  C214 6871   2.837   1.850   5.391 -0.4607 -0.7068 -0.0395
   77SOPE  H14R 6872   2.733   1.870   5.360 -1.0074  1.3641  2.7843
   77SOPE  H14S 6873   2.849   1.882   5.497 -0.0716 -2.5861  0.5116
   77SOPE  C215 6874   2.877   1.704   5.396 -0.2359  0.7629  0.0975
   77SOPE  H15R 6875   2.794   1.655   5.451  0.4503  0.8817  1.2703
   77SOPE  H15S 6876   2.968   1.691   5.457 -1.1774 -3.1056  0.9200
   77SOPE  C216 6877   2.908   1.638   5.261 -0.6253  0.0615 -0.5001
   77SOPE  H16R 6878   2.935   1.531   5.276  1.2853  0.2257 -2.2112
   77SOPE  H16S 6879   2.999   1.689   5.221 -1.0283 -0.0432 -1.5784
   77SOPE  C217 6880   2.793   1.638   5.167  0.6890 -0.2292 -0.5075
   77SOPE  H17R 6881   2.762   1.740   5.136 -1.7672 -0.9560 -0.6405
   77SOPE  H17S 6882   2.715   1.595   5.234 -0.1798  1.5044 -0.3701
   77SOPE  C218 6883   2.804   1.552   5.036  0.6006  0.3898 -0.3388
   77SOPE  H18R 6884   2.707   1.522   4.992  0.8832 -2.3970  0.7580
   77SOPE  H18S 6885   2.862   1.459   5.055  0.8458  0.3434 -1.2816
   77SOPE  H18T 6886   2.866   1.596   4.956  0.3563  3.0594  0.8251
   77SOPE   C33 6887   3.668   2.572   5.963  0.3370  0.3114  0.0598
   77SOPE   H3X 6888   3.769   2.611   5.985  1.1868 -1.2446 -0.8910
   77SOPE   H3Y 6889   3.586   2.646   5.980  0.8267  0.5206  1.6695
   77SOPE   C34 6890   3.671   2.541   5.813  0.4494 -0.1542 -0.4057
   77SOPE   H4X 6891   3.586   2.471   5.798 -0.6189  0.9524  0.3290
   77SOPE   H4Y 6892   3.764   2.490   5.780  0.2012 -0.6784 -0.2986
   77SOPE   C35 6893   3.645   2.667   5.740 -0.0553  0.0460 -0.2660
   77SOPE   H5X 6894   3.724   2.738   5.772  1.7415 -1.5823 -0.9313
   77SOPE   H5Y 6895   3.547   2.712   5.766 -0.8293 -2.4392  1.5054
   77SOPE   C36 6896   3.632   2.654   5.587  0.7015 -0.1973 -0.0378
   77SOPE   H6X 6897   3.736   2.651   5.547  0.7691  3.8043 -0.5134
   77SOPE   H6Y 6898   3.585   2.748   5.552 -0.1352 -1.1745 -1.6495
   77SOPE   C37 6899   3.546   2.535   5.534 -0.5065  0.6249  0.5163
   77SOPE   H7X 6900   3.445   2.555   5.577  0.6552  1.7770  2.9243
   77SOPE   H7Y 6901   3.583   2.438   5.573 -1.7643  0.0032  0.2079
   77SOPE   C38 6902   3.551   2.501   5.379  1.2397 -0.6126  0.2178
   77SOPE   H8X 6903   3.659   2.500   5.351  1.5446 -0.6051  1.3332
   77SOPE   H8Y 6904   3.506   2.590   5.331  2.5024  0.2609  0.5892
   77SOPE   C39 6905   3.487   2.380   5.333 -0.0067 -0.6337  0.4346
   77SOPE   H9X 6906   3.389   2.364   5.383  0.3866  1.5670  2.0780
   77SOPE   H9Y 6907   3.545   2.287   5.353  0.0618 -0.2858  1.9991
   77SOPE  C310 6908   3.453   2.372   5.184  0.2986 -0.0825 -0.1974
   77SOPE  H10X 6909   3.536   2.336   5.119 -1.8623 -1.9299 -2.0687
   77SOPE  H10Y 6910   3.425   2.469   5.140 -0.1653 -0.2646 -0.3103
   77SOPE  C311 6911   3.351   2.262   5.136 -0.0220  0.3618 -0.5961
   77SOPE  H11X 6912   3.333   2.263   5.026 -2.4622 -0.8085 -0.2703
   77SOPE  H11Y 6913   3.251   2.264   5.185 -0.8020 -5.2611 -1.2744
   77SOPE  C312 6914   3.405   2.117   5.145  0.2931 -0.3046 -0.2701
   77SOPE  H12X 6915   3.406   2.095   5.254 -0.4409 -0.3439 -0.2693
   77SOPE  H12Y 6916   3.509   2.112   5.106  0.0070  1.9454 -1.4748
   77SOPE  C313 6917   3.316   2.030   5.066 -0.5645 -0.0297  0.7304
   77SOPE  H13X 6918   3.318   2.065   4.961 -1.6355 -1.2852  0.2589
   77SOPE  H13Y 6919   3.211   2.038   5.103 -1.0924 -0.5278 -0.5933
   77SOPE  C314 6920   3.365   1.886   5.073 -0.2675  0.3672  0.7183
   77SOPE  H14X 6921   3.383   1.855   5.178  4.4057  1.4481  0.4556
   77SOPE  H14Y 6922   3.465   1.887   5.024 -1.4690  0.8479 -1.9169
   77SOPE  C315 6923   3.263   1.782   5.021  1.0668 -0.4444  0.2244
   77SOPE  H15X 6924   3.169   1.800   5.078 -0.0911  0.9531 -1.9872
   77SOPE  H15Y 6925   3.302   1.683   5.054 -1.1947 -0.7839  2.1263
   77SOPE  C316 6926   3.248   1.768   4.868 -0.1222  0.6342  0.3556
   77SOPE  H16X 6927   3.343   1.749   4.812  0.0846 -0.0012  0.9066
   77SOPE  H16Y 6928   3.206   1.864   4.833  0.0537  0.5835 -0.0043
   77SOPE  C317 6929   3.161   1.655   4.826 -0.0660 -0.3545  0.0481
   77SOPE  H17X 6930   3.068   1.650   4.887  1.0577  0.6855  1.9461
   77SOPE  H17Y 6931   3.205   1.555   4.844  1.6362  0.4417  0.4361
   77SOPE  C318 6932   3.133   1.661   4.677 -0.0438  0.8884  0.0354
   77SOPE  H18X 6933   3.075   1.573   4.642 -0.3780  0.7739  0.8583
   77SOPE  H18Y 6934   3.225   1.663   4.615 -0.0892 -1.2642 -0.1821
   77SOPE  H18Z 6935   3.077   1.755   4.656  2.0054  2.1946  0.1578
   78SOPE     N 6936   2.646   2.746   7.188  0.1220 -0.1645  0.5701
   78SOPE   HN1 6937   2.737   2.785   7.219 -0.3726 -0.4081  2.4992
   78SOPE   HN2 6938   2.649   2.658   7.133 -0.9490  0.8871 -1.2569
   78SOPE   HN3 6939   2.612   2.825   7.130  0.7839  1.0129  1.7246
   78SOPE   C12 6940   2.548   2.743   7.298 -0.7047  0.0809  0.5748
   78SOPE  H12A 6941   2.561   2.840   7.352 -3.1202  1.4891 -1.1699
   78SOPE  H12B 6942   2.581   2.658   7.360  2.3679  0.1255 -0.8124
   78SOPE   C11 6943   2.406   2.732   7.251  1.1735 -0.2111  0.7677
   78SOPE  H11A 6944   2.367   2.818   7.193  0.5145  0.2495  1.8598
   78SOPE  H11B 6945   2.347   2.731   7.346  0.7721  0.8989  0.5464
   78SOPE     P 6946   2.291   2.509   7.175  0.2487  0.2274 -0.0856
   78SOPE   O13 6947   2.186   2.546   7.275 -0.4862  0.0119 -0.0767
   78SOPE   O14 6948   2.356   2.377   7.187 -0.9533 -0.8246 -0.5681
   78SOPE   O12 6949   2.399   2.620   7.165  0.6854  0.1923 -0.6302
   78SOPE   O11 6950   2.220   2.522   7.034  0.3286 -0.2375 -0.3917
   78SOPE    C1 6951   2.300   2.557   6.918  0.9397 -0.0143 -1.0541
   78SOPE    HA 6952   2.406   2.524   6.930 -0.1412 -3.0402  1.6990
   78SOPE    HB 6953   2.286   2.664   6.895 -1.1466 -0.1585 -0.6030
   78SOPE    C2 6954   2.250   2.492   6.781 -1.1114 -0.1030 -0.0207
   78SOPE    HS 6955   2.153   2.541   6.758 -0.5253  2.8100  2.8688
   78SOPE   O21 6956   2.240   2.352   6.808  0.3091 -0.0196  0.3567
   78SOPE   C21 6957   2.119   2.309   6.832 -0.4509 -0.1320  0.0753
   78SOPE   O22 6958   2.013   2.367   6.836  0.3307 -0.5901  0.8974
   78SOPE   C22 6959   2.135   2.152   6.855 -0.2063 -0.4053  0.0855
   78SOPE   H2R 6960   2.036   2.114   6.886 -0.4205  0.1260  0.0728
   78SOPE   H2S 6961   2.201   2.140   6.943  0.5386 -1.0996 -0.5413
   78SOPE    C3 6962   2.355   2.505   6.664 -0.4434  0.2899 -0.3927
   78SOPE    HX 6963   2.443   2.441   6.689 -1.5593 -0.7961  0.9923
   78SOPE    HY 6964   2.401   2.606   6.662 -2.5915  1.5213  2.6342
   78SOPE   O31 6965   2.296   2.456   6.537  0.3040 -0.0408 -0.5790
   78SOPE   C31 6966   2.196   2.528   6.479  0.1697 -0.3686 -0.5673
   78SOPE   O32 6967   2.146   2.632   6.518 -0.0248 -0.2231 -0.0762
   78SOPE   C32 6968   2.163   2.458   6.353 -0.1525 -0.2910  0.0113
   78SOPE   H2X 6969   2.108   2.363   6.372  0.3384 -1.0606 -2.1197
   78SOPE   H2Y 6970   2.252   2.422   6.296 -1.7489 -2.7538 -1.1174
   78SOPE   C23 6971   2.178   2.070   6.731  0.6146 -0.6273  0.0039
   78SOPE   H3R 6972   2.208   1.970   6.771 -1.9547 -0.7965  1.7659
   78SOPE   H3S 6973   2.268   2.120   6.687  1.2436 -1.1495  0.6661
   78SOPE   C24 6974   2.077   2.034   6.618 -0.4843 -0.6217  0.1278
   78SOPE   H4R 6975   2.093   1.928   6.588  1.8711 -0.7867  1.6776
   78SOPE   H4S 6976   1.980   2.040   6.671 -0.6606  1.1746 -0.3532
   78SOPE   C25 6977   2.087   2.125   6.500 -0.0515 -0.0158  0.1128
   78SOPE   H5R 6978   2.048   2.226   6.524  0.5354  0.0729  0.7297
   78SOPE   H5S 6979   2.192   2.132   6.464 -0.4019 -1.8113 -1.4483
   78SOPE   C26 6980   2.017   2.072   6.374  0.3957  0.2569 -0.5276
   78SOPE   H6R 6981   1.922   2.020   6.398  0.9934 -1.0505 -0.9083
   78SOPE   H6S 6982   1.995   2.159   6.308 -1.0354  2.1536  2.2155
   78SOPE   C27 6983   2.102   1.977   6.288  0.2068 -0.8854  0.0772
   78SOPE   H7R 6984   2.210   2.005   6.286  0.1388 -0.5026  1.2747
   78SOPE   H7S 6985   2.101   1.876   6.335 -0.5253  0.5201  3.3561
   78SOPE   C28 6986   2.045   1.973   6.140 -0.2032 -0.2337 -0.5378
   78SOPE   H8R 6987   1.935   1.954   6.132 -0.6413  1.9701 -0.3245
   78SOPE   H8S 6988   2.071   2.073   6.099  0.8245 -0.1954  0.1756
   78SOPE   C29 6989   2.107   1.859   6.054  0.0302  0.3114  0.1235
   78SOPE   H91 6990   2.175   1.784   6.098 -0.8026  0.1162  1.1306
   78SOPE  C210 6991   2.082   1.847   5.925  0.2160 -1.0375  0.2633
   78SOPE  H101 6992   2.141   1.776   5.866 -0.0926 -0.5379 -0.6560
   78SOPE  C211 6993   2.000   1.947   5.848  0.0766 -0.1710 -0.1841
   78SOPE  H11R 6994   1.957   2.031   5.907  1.2304  0.5830 -0.3869
   78SOPE  H11S 6995   1.917   1.892   5.799 -0.4876  3.2016 -3.4854
   78SOPE  C212 6996   2.086   2.008   5.728 -0.2983 -0.0178 -0.2134
   78SOPE  H12R 6997   2.139   1.923   5.680 -0.2489  1.1489 -2.3231
   78SOPE  H12S 6998   2.162   2.078   5.768  0.0415 -0.3380 -0.2961
   78SOPE  C213 6999   2.000   2.083   5.620 -0.4339 -0.2916 -0.4488
   78SOPE  H13R 7000   1.932   2.160   5.663 -0.5584 -0.3324 -0.5729
   78SOPE  H13S 7001   1.949   2.007   5.558 -1.2412  1.7282 -2.4319
   78SOPE  C214 7002   2.096   2.154   5.521 -0.1861  1.1083  0.3489
   78SOPE  H14R 7003   2.173   2.078   5.495 -1.0060  1.1939 -2.6474
   78SOPE  H14S 7004   2.157   2.233   5.570  3.1496 -0.2400 -1.2689
   78SOPE  C215 7005   2.020   2.198   5.396 -0.2426  0.2105 -0.0271
   78SOPE  H15R 7006   1.938   2.265   5.430  0.2559  0.2102  1.2488
   78SOPE  H15S 7007   1.980   2.108   5.345  0.6451  0.3245 -0.9624
   78SOPE  C216 7008   2.087   2.274   5.286  0.3639 -0.4199  0.1052
   78SOPE  H16R 7009   2.141   2.369   5.304  2.5259 -0.8985 -3.0646
   78SOPE  H16S 7010   2.009   2.292   5.208  1.3657  1.2034 -0.5777
   78SOPE  C217 7011   2.194   2.189   5.215  0.3975 -0.3794  0.4114
   78SOPE  H17R 7012   2.150   2.099   5.167  1.5743 -1.1139  0.6721
   78SOPE  H17S 7013   2.259   2.162   5.300 -3.3386 -1.5570  3.1445
   78SOPE  C218 7014   2.257   2.254   5.098 -0.2539 -0.0896 -0.0306
   78SOPE  H18R 7015   2.348   2.207   5.054 -1.8679 -1.1167 -2.4593
   78SOPE  H18S 7016   2.273   2.360   5.129 -1.6713 -0.1134  0.8447
   78SOPE  H18T 7017   2.188   2.246   5.012  0.1639 -2.4579 -0.1913
   78SOPE   C33 7018   2.069   2.532   6.257 -1.1335  0.8924 -0.1573
   78SOPE   H3X 7019   2.095   2.637   6.231  2.4916 -0.1851 -1.5866
   78SOPE   H3Y 7020   1.970   2.551   6.303 -0.6436  1.4876  0.6862
   78SOPE   C34 7021   2.069   2.451   6.133  0.4372 -0.1569  0.0903
   78SOPE   H4X 7022   1.994   2.507   6.074  0.2544  0.4033  0.8455
   78SOPE   H4Y 7023   2.039   2.346   6.154  1.7613 -0.4815  0.4601
   78SOPE   C35 7024   2.203   2.465   6.057  0.6163  0.1629 -0.0016
   78SOPE   H5X 7025   2.270   2.384   6.094  0.0413 -0.7941 -1.0045
   78SOPE   H5Y 7026   2.249   2.566   6.072  0.5990 -0.2087  3.3702
   78SOPE   C36 7027   2.197   2.450   5.904  1.1704 -0.3123  0.1803
   78SOPE   H6X 7028   2.162   2.349   5.873 -0.5561  0.3157 -0.0385
   78SOPE   H6Y 7029   2.301   2.460   5.868 -0.1063  2.6919 -3.2178
   78SOPE   C37 7030   2.097   2.553   5.832 -0.6297  0.6163 -0.2602
   78SOPE   H7X 7031   2.113   2.656   5.871 -2.0820  0.2606  1.3901
   78SOPE   H7Y 7032   1.992   2.527   5.857 -0.3173  0.0552  0.4831
   78SOPE   C38 7033   2.110   2.553   5.679  0.3796 -0.2197  0.3823
   78SOPE   H8X 7034   2.090   2.448   5.649  0.3564 -0.1777  0.2490
   78SOPE   H8Y 7035   2.217   2.575   5.659  1.0571 -1.6788  2.1124
   78SOPE   C39 7036   2.010   2.645   5.615  0.5193 -0.0097 -0.1184
   78SOPE   H9X 7037   2.034   2.747   5.653  2.0347  0.2565 -1.6933
   78SOPE   H9Y 7038   1.905   2.620   5.642 -0.0054 -0.5841 -2.5041
   78SOPE  C310 7039   2.009   2.638   5.462  0.3719 -0.0206 -0.6416
   78SOPE  H10X 7040   1.932   2.709   5.426 -2.0089 -2.5524 -0.9200
   78SOPE  H10Y 7041   1.997   2.531   5.433  0.3061  0.4027 -2.2376
   78SOPE  C311 7042   2.141   2.679   5.401 -0.2375  0.8634  0.2596
   78SOPE  H11X 7043   2.211   2.595   5.422 -0.9306  0.0555 -0.5787
   78SOPE  H11Y 7044   2.163   2.776   5.448 -1.4634  1.3446 -0.1064
   78SOPE  C312 7045   2.132   2.683   5.250 -0.0461  0.1706 -0.1831
   78SOPE  H12X 7046   2.081   2.776   5.217  0.7527  1.0692  1.0454
   78SOPE  H12Y 7047   2.075   2.596   5.210 -1.5552  0.7806  0.5500
   78SOPE  C313 7048   2.261   2.675   5.171  0.0653 -0.3490  0.4606
   78SOPE  H13X 7049   2.323   2.589   5.204  1.5843  0.2836 -0.6281
   78SOPE  H13Y 7050   2.313   2.772   5.187  0.5884  0.1641 -3.4819
   78SOPE  C314 7051   2.240   2.672   5.021  0.0116  0.0600 -0.5557
   78SOPE  H14X 7052   2.177   2.762   5.004  1.4368  1.4209  0.9700
   78SOPE  H14Y 7053   2.179   2.586   4.987 -0.3390  1.1804 -2.9811
   78SOPE  C315 7054   2.378   2.666   4.953  0.1676 -0.4496 -0.1445
   78SOPE  H15X 7055   2.429   2.573   4.986 -0.3277 -0.0358  1.9349
   78SOPE  H15Y 7056   2.443   2.752   4.978 -0.4421 -0.1886  0.5855
   78SOPE  C316 7057   2.353   2.658   4.795 -0.0308  0.6740 -0.4591
   78SOPE  H16X 7058   2.293   2.747   4.765  2.0057  2.7793  1.3828
   78SOPE  H16Y 7059   2.295   2.564   4.787 -2.6340  1.8321  2.5907
   78SOPE  C317 7060   2.485   2.645   4.711  0.1518  0.1713  0.6326
   78SOPE  H17X 7061   2.542   2.740   4.710 -2.0685  1.5764  0.5869
   78SOPE  H17Y 7062   2.454   2.616   4.609  0.6542 -2.9906  1.2510
   78SOPE  C318 7063   2.574   2.535   4.738 -0.1438 -0.3258 -0.1812
   78SOPE  H18X 7064   2.642   2.509   4.654  1.3438 -0.2730  0.9659
   78SOPE  H18Y 7065   2.518   2.443   4.764 -1.3347  0.5212  0.3386
   78SOPE  H18Z 7066   2.650   2.555   4.817  1.7312 -2.1827 -1.3821
   79SOPE     N 7067   4.765   1.320   6.939 -0.0858  0.8483  0.0193
   79SOPE   HN1 7068   4.739   1.284   6.845  0.0643 -1.5321  0.8069
   79SOPE   HN2 7069   4.866   1.346   6.942  0.6676 -1.6710  2.9442
   79SOPE   HN3 7070   4.746   1.255   7.019  1.7209  1.6979  1.2086
   79SOPE   C12 7071   4.690   1.444   6.956  0.7778 -0.1025  0.7387
   79SOPE  H12A 7072   4.694   1.503   6.862 -0.9089 -3.6025 -1.7643
   79SOPE  H12B 7073   4.721   1.513   7.037 -1.2030  1.3519  0.3311
   79SOPE   C11 7074   4.534   1.410   6.970  0.2904 -0.6582 -0.0206
   79SOPE  H11A 7075   4.507   1.371   6.870  0.1709  0.2244 -0.3412
   79SOPE  H11B 7076   4.468   1.497   6.986 -1.2962 -1.6997 -0.6718
   79SOPE     P 7077   4.444   1.180   7.044  0.3591 -0.0098  0.1104
   79SOPE   O13 7078   4.303   1.210   7.081  0.0803 -0.3364  0.3060
   79SOPE   O14 7079   4.510   1.068   7.115 -0.3780 -0.0287  0.1388
   79SOPE   O12 7080   4.518   1.317   7.073 -0.1599  0.1302  0.1938
   79SOPE   O11 7081   4.454   1.153   6.892  0.5523  0.2306 -0.0239
   79SOPE    C1 7082   4.404   1.039   6.832  0.0594  0.3998  0.3480
   79SOPE    HA 7083   4.297   1.059   6.811  0.9795  2.5458 -3.2327
   79SOPE    HB 7084   4.417   0.948   6.896  0.5598  1.0289  1.1562
   79SOPE    C2 7085   4.479   1.011   6.695 -0.0546 -0.6747 -0.1430
   79SOPE    HS 7086   4.588   0.998   6.716 -0.0653  0.1948  0.4874
   79SOPE   O21 7087   4.465   1.121   6.602 -0.0924 -0.0866 -0.5661
   79SOPE   C21 7088   4.552   1.226   6.621 -0.3652  0.2638 -1.0825
   79SOPE   O22 7089   4.640   1.227   6.706  0.2846  0.4012  0.1743
   79SOPE   C22 7090   4.525   1.331   6.524  0.4207 -0.1176 -0.5205
   79SOPE   H2R 7091   4.617   1.392   6.516 -0.3818  1.1946  0.0582
   79SOPE   H2S 7092   4.446   1.395   6.568 -0.9792 -1.6535 -0.6728
   79SOPE    C3 7093   4.424   0.883   6.637 -0.1127 -0.5765 -0.3022
   79SOPE    HX 7094   4.313   0.887   6.639 -0.1031  3.3461  0.4136
   79SOPE    HY 7095   4.435   0.797   6.707  0.2559  0.1740  0.5797
   79SOPE   O31 7096   4.477   0.862   6.500 -0.1938  0.6529 -0.3606
   79SOPE   C31 7097   4.595   0.799   6.499  0.2696 -0.3482 -0.4651
   79SOPE   O32 7098   4.651   0.761   6.603  0.0531 -0.2506 -0.0129
   79SOPE   C32 7099   4.641   0.801   6.357  0.5360  0.5378 -0.7150
   79SOPE   H2X 7100   4.651   0.906   6.324  2.6971 -0.2413 -2.7873
   79SOPE   H2Y 7101   4.562   0.752   6.297  0.6481 -1.0872  0.4069
   79SOPE   C23 7102   4.482   1.291   6.387 -0.2138 -0.0207  0.7380
   79SOPE   H3R 7103   4.418   1.374   6.351  0.5348  1.0110  1.7161
   79SOPE   H3S 7104   4.413   1.203   6.394 -0.7208  0.1417 -1.4512
   79SOPE   C24 7105   4.593   1.258   6.292  0.1193 -1.1520 -0.3264
   79SOPE   H4R 7106   4.655   1.350   6.287 -0.4801 -0.7806 -0.9488
   79SOPE   H4S 7107   4.659   1.178   6.332 -0.3717 -1.4926 -0.1862
   79SOPE   C25 7108   4.546   1.220   6.154  0.0198  0.5851 -0.1834
   79SOPE   H5R 7109   4.631   1.177   6.096 -1.6629 -2.1124 -0.7823
   79SOPE   H5S 7110   4.473   1.138   6.168  0.4434  0.2685  0.1802
   79SOPE   C26 7111   4.479   1.330   6.070 -0.2701 -0.8164 -0.2606
   79SOPE   H6R 7112   4.414   1.398   6.130  1.7434  0.0386  1.0789
   79SOPE   H6S 7113   4.550   1.396   6.015  2.5335 -2.2972  1.3334
   79SOPE   C27 7114   4.386   1.265   5.970  0.4793  0.6388  0.5889
   79SOPE   H7R 7115   4.436   1.173   5.932 -0.1163  0.6189 -0.1825
   79SOPE   H7S 7116   4.292   1.237   6.021 -0.5883 -0.0085 -1.5987
   79SOPE   C28 7117   4.356   1.351   5.844 -0.0808  0.0665 -0.0448
   79SOPE   H8R 7118   4.287   1.288   5.783  0.8564  0.6967 -1.8401
   79SOPE   H8S 7119   4.302   1.444   5.871  0.3491  0.6814 -1.2304
   79SOPE   C29 7120   4.471   1.388   5.757 -0.5750 -0.0635 -0.0122
   79SOPE   H91 7121   4.545   1.453   5.805 -2.1759  1.0337  1.0825
   79SOPE  C210 7122   4.486   1.342   5.630 -0.3331 -0.6844  0.2841
   79SOPE  H101 7123   4.565   1.378   5.561 -1.4034 -0.5297 -0.9007
   79SOPE  C211 7124   4.386   1.256   5.556 -0.6548  0.1128  0.0512
   79SOPE  H11R 7125   4.286   1.261   5.605  1.4552  2.3540  4.8014
   79SOPE  H11S 7126   4.422   1.151   5.553  0.8490  0.6128 -0.1341
   79SOPE  C212 7127   4.361   1.304   5.412  0.6861  0.4009 -0.7260
   79SOPE  H12R 7128   4.459   1.313   5.361  1.2276  0.0150  0.2352
   79SOPE  H12S 7129   4.317   1.405   5.427 -1.7742 -0.0900 -3.5322
   79SOPE  C213 7130   4.266   1.209   5.328 -0.7169  0.2039 -0.4491
   79SOPE  H13R 7131   4.178   1.209   5.395  0.7528 -1.2663  1.6351
   79SOPE  H13S 7132   4.309   1.106   5.322  0.1389  0.5629 -0.5858
   79SOPE  C214 7133   4.237   1.273   5.195  0.1327 -0.1431  0.3274
   79SOPE  H14R 7134   4.327   1.283   5.130  0.4016 -0.7410  0.6014
   79SOPE  H14S 7135   4.201   1.377   5.208 -1.3922 -0.3591 -1.6766
   79SOPE  C215 7136   4.127   1.203   5.122  0.7186  0.2875 -0.1520
   79SOPE  H15R 7137   4.127   1.096   5.152  1.0185  0.0047 -1.1141
   79SOPE  H15S 7138   4.150   1.196   5.014  0.3513  0.7101 -0.2552
   79SOPE  C216 7139   3.988   1.259   5.148 -0.0468  0.3852  0.0141
   79SOPE  H16R 7140   3.997   1.367   5.125  0.4150  0.7695  1.8737
   79SOPE  H16S 7141   3.967   1.256   5.257  0.0118 -1.3325 -0.0027
   79SOPE  C217 7142   3.874   1.194   5.068  0.2648  0.4334  0.2564
   79SOPE  H17R 7143   3.874   1.086   5.093 -2.1469  0.5529  1.0773
   79SOPE  H17S 7144   3.885   1.199   4.958  2.1578  0.9000  0.4455
   79SOPE  C218 7145   3.746   1.271   5.105  0.7900  0.6518 -0.2441
   79SOPE  H18R 7146   3.735   1.268   5.216  0.6122  2.4245 -0.1795
   79SOPE  H18S 7147   3.652   1.230   5.062  1.0961 -0.8323  0.4246
   79SOPE  H18T 7148   3.757   1.378   5.077  0.0930  0.4910 -1.1828
   79SOPE   C33 7149   4.769   0.721   6.332  0.1624 -0.1756 -0.2401
   79SOPE   H3X 7150   4.755   0.629   6.393  1.9415 -0.1154  0.3260
   79SOPE   H3Y 7151   4.858   0.771   6.376 -0.7336 -0.1381  1.6411
   79SOPE   C34 7152   4.777   0.674   6.188 -0.6086  0.3758  0.2348
   79SOPE   H4X 7153   4.679   0.639   6.149 -2.2978  3.3446  1.4668
   79SOPE   H4Y 7154   4.842   0.585   6.175  0.6284  1.3135 -0.2892
   79SOPE   C35 7155   4.829   0.773   6.085  0.1068 -0.5115  0.3594
   79SOPE   H5X 7156   4.859   0.712   5.997 -1.3183 -0.2329 -0.3341
   79SOPE   H5Y 7157   4.918   0.818   6.134 -1.0701 -0.3179  2.4464
   79SOPE   C36 7158   4.741   0.885   6.033  0.5530 -0.3460  0.0524
   79SOPE   H6X 7159   4.688   0.944   6.111 -2.5223 -0.7285 -1.5873
   79SOPE   H6Y 7160   4.664   0.832   5.974  2.7517 -1.0454 -2.3879
   79SOPE   C37 7161   4.820   0.973   5.929 -0.2829  0.5379  0.3717
   79SOPE   H7X 7162   4.886   0.908   5.868  0.7359  1.9850 -0.1018
   79SOPE   H7Y 7163   4.886   1.040   5.987  0.8952  1.2806 -1.7068
   79SOPE   C38 7164   4.736   1.050   5.822 -0.2837  0.4205 -0.5898
   79SOPE   H8X 7165   4.806   1.130   5.790  1.6671  0.0153  2.2401
   79SOPE   H8Y 7166   4.650   1.086   5.884 -0.3155 -1.7584  0.7677
   79SOPE   C39 7167   4.678   0.961   5.716  1.3549 -0.2600  1.3080
   79SOPE   H9X 7168   4.578   1.000   5.685  1.1376 -0.6983  1.4578
   79SOPE   H9Y 7169   4.679   0.857   5.755  1.0865 -1.1393 -0.8999
   79SOPE  C310 7170   4.754   0.969   5.578 -0.0523  0.8584 -0.6838
   79SOPE  H10X 7171   4.689   0.920   5.503 -0.8352  0.2217  0.3776
   79SOPE  H10Y 7172   4.853   0.921   5.593 -0.5745  0.6048  2.7358
   79SOPE  C311 7173   4.784   1.113   5.529 -0.1659  0.3652  0.8933
   79SOPE  H11X 7174   4.858   1.170   5.590 -1.4489  1.7044  1.2325
   79SOPE  H11Y 7175   4.692   1.172   5.511  0.6228  1.5464  0.5835
   79SOPE  C312 7176   4.856   1.108   5.395  0.1284  0.3078  0.4243
   79SOPE  H12X 7177   4.940   1.037   5.382  1.4320  2.2063 -2.5729
   79SOPE  H12Y 7178   4.899   1.207   5.370 -0.1124  0.1515 -0.6479
   79SOPE  C313 7179   4.753   1.080   5.278  1.0778  0.4841  0.1617
   79SOPE  H13X 7180   4.670   1.153   5.292 -0.4228 -0.6960 -2.0068
   79SOPE  H13Y 7181   4.708   0.980   5.292  0.9182  0.5563  0.1701
   79SOPE  C314 7182   4.814   1.083   5.139 -0.5967 -0.1699 -0.6218
   79SOPE  H14X 7183   4.924   1.070   5.143 -0.8287 -2.4807  3.3187
   79SOPE  H14Y 7184   4.802   1.186   5.099  0.5164  0.9945  1.8458
   79SOPE  C315 7185   4.748   0.983   5.049 -0.6591 -0.2281  0.8801
   79SOPE  H15X 7186   4.637   0.985   5.046 -0.7096 -2.1448 -1.1815
   79SOPE  H15Y 7187   4.780   0.885   5.091  0.7790 -0.5528 -0.8388
   79SOPE  C316 7188   4.789   0.998   4.903 -0.2570  0.4489  0.1749
   79SOPE  H16X 7189   4.751   1.090   4.853  0.4811 -0.0014 -1.2883
   79SOPE  H16Y 7190   4.740   0.916   4.845 -0.4718  1.8226 -1.6920
   79SOPE  C317 7191   4.940   0.979   4.888 -0.1177  0.0709  0.8166
   79SOPE  H17X 7192   4.967   0.877   4.924 -2.6325 -1.3172 -0.8773
   79SOPE  H17Y 7193   5.004   1.058   4.932 -0.1047 -0.2862  1.4584
   79SOPE  C318 7194   4.987   0.980   4.740 -0.3599  0.4845  0.9503
   79SOPE  H18X 7195   5.098   0.980   4.743 -0.3605  0.5634  3.1837
   79SOPE  H18Y 7196   4.957   1.076   4.692  0.7572 -0.1702 -1.1651
   79SOPE  H18Z 7197   4.945   0.892   4.688  0.4797  1.7730 -2.0962
   80SOPE     N 7198   1.808   2.411   7.094  0.2480  0.5899  0.2519
   80SOPE   HN1 7199   1.725   2.414   7.032  0.8348 -1.9096 -0.7357
   80SOPE   HN2 7200   1.880   2.482   7.070  1.5788 -0.1845  1.7482
   80SOPE   HN3 7201   1.848   2.315   7.096  0.1870  0.5315  2.8695
   80SOPE   C12 7202   1.793   2.454   7.236  0.1569 -0.3002 -0.1432
   80SOPE  H12A 7203   1.731   2.546   7.235  1.0284  0.3193  1.0274
   80SOPE  H12B 7204   1.886   2.488   7.286 -0.1904  0.0618  0.2688
   80SOPE   C11 7205   1.713   2.352   7.313  0.8198  0.3837  0.2300
   80SOPE  H11A 7206   1.707   2.366   7.423 -3.4973 -1.2303  0.4121
   80SOPE  H11B 7207   1.767   2.256   7.299  1.0461  0.6538 -0.8759
   80SOPE     P 7208   1.490   2.237   7.225  0.2990 -0.0317 -0.0367
   80SOPE   O13 7209   1.347   2.275   7.182 -0.1757 -0.5296 -0.1903
   80SOPE   O14 7210   1.504   2.154   7.349  0.2267  1.0054  0.3013
   80SOPE   O12 7211   1.576   2.365   7.260 -0.5211  0.0349  0.2019
   80SOPE   O11 7212   1.565   2.174   7.112 -1.0841 -0.6116 -0.3937
   80SOPE    C1 7213   1.536   2.048   7.060 -1.3099  0.8952  0.2977
   80SOPE    HA 7214   1.465   1.992   7.125  0.1660 -0.2430  0.9647
   80SOPE    HB 7215   1.631   1.991   7.070 -2.6689 -1.2477  1.8659
   80SOPE    C2 7216   1.504   2.052   6.902 -0.5231 -0.0481  0.1594
   80SOPE    HS 7217   1.530   1.952   6.862 -3.1899 -0.8127  0.1354
   80SOPE   O21 7218   1.562   2.165   6.825 -0.2671 -0.0486 -0.2902
   80SOPE   C21 7219   1.690   2.157   6.804 -0.7317 -0.3498  0.2340
   80SOPE   O22 7220   1.781   2.088   6.853  0.1210 -0.4709 -0.1812
   80SOPE   C22 7221   1.730   2.251   6.695  0.3700 -0.3194 -0.3388
   80SOPE   H2R 7222   1.841   2.253   6.699  0.5471  0.8322  6.4886
   80SOPE   H2S 7223   1.699   2.354   6.723  2.1855 -0.4864  2.9199
   80SOPE    C3 7224   1.354   2.063   6.873  0.7933 -0.2277 -0.2885
   80SOPE    HX 7225   1.328   2.161   6.918  0.9543  0.0906 -0.8865
   80SOPE    HY 7226   1.297   1.985   6.928 -1.4146 -0.3761 -2.5674
   80SOPE   O31 7227   1.324   2.041   6.733  0.2463  0.2960 -0.4236
   80SOPE   C31 7228   1.225   2.122   6.688  0.9148  0.5605  0.3411
   80SOPE   O32 7229   1.176   2.209   6.759 -0.5551  0.3049 -0.6825
   80SOPE   C32 7230   1.173   2.076   6.557 -0.6837  0.4708  0.0407
   80SOPE   H2X 7231   1.071   2.116   6.542 -0.8622 -0.1016 -0.2838
   80SOPE   H2Y 7232   1.155   1.967   6.567 -1.1610  0.6989  2.2915
   80SOPE   C23 7233   1.656   2.215   6.560  0.7417  0.2905 -1.1997
   80SOPE   H3R 7234   1.555   2.259   6.570  1.1787  0.8513  1.7343
   80SOPE   H3S 7235   1.647   2.105   6.548  1.2614  0.0690  0.2562
   80SOPE   C24 7236   1.727   2.273   6.432 -0.0700 -0.7994 -0.0933
   80SOPE   H4R 7237   1.703   2.381   6.419  1.5968  0.1358  3.3556
   80SOPE   H4S 7238   1.836   2.268   6.451 -0.2897 -1.3815  1.1318
   80SOPE   C25 7239   1.688   2.197   6.307 -0.2818 -0.4348 -0.2332
   80SOPE   H5R 7240   1.734   2.097   6.315  1.5722  0.4073  0.2805
   80SOPE   H5S 7241   1.578   2.183   6.303 -0.0369 -2.2195 -1.8338
   80SOPE   C26 7242   1.735   2.263   6.178  0.3246  0.5811 -0.1441
   80SOPE   H6R 7243   1.687   2.364   6.178 -0.5690  0.2067  1.7156
   80SOPE   H6S 7244   1.845   2.267   6.191  0.2737  1.2169  0.1549
   80SOPE   C27 7245   1.682   2.193   6.055 -0.0470  0.1455  0.3012
   80SOPE   H7R 7246   1.713   2.087   6.064 -0.4711  0.1476  2.0503
   80SOPE   H7S 7247   1.572   2.196   6.061 -0.0149  1.0955  0.6632
   80SOPE   C28 7248   1.738   2.243   5.929 -0.5249 -1.0017 -0.0959
   80SOPE   H8R 7249   1.845   2.217   5.916 -0.4502 -1.0746  0.6476
   80SOPE   H8S 7250   1.683   2.185   5.851 -1.1778 -2.0148  1.0922
   80SOPE   C29 7251   1.718   2.394   5.896 -0.0581 -0.0018  0.0515
   80SOPE   H91 7252   1.756   2.457   5.977 -1.0539 -1.2892  1.6029
   80SOPE  C210 7253   1.646   2.457   5.798 -0.2222  0.2810 -0.1137
   80SOPE  H101 7254   1.633   2.566   5.798 -1.3910  0.1491  0.3495
   80SOPE  C211 7255   1.578   2.388   5.677  0.6969  0.1909  0.8075
   80SOPE  H11R 7256   1.499   2.458   5.643 -2.2773 -3.8384 -1.4767
   80SOPE  H11S 7257   1.528   2.292   5.700  1.9224 -0.9597 -1.0580
   80SOPE  C212 7258   1.656   2.377   5.554 -0.3323 -0.2654 -0.1635
   80SOPE  H12R 7259   1.718   2.287   5.576 -0.3133 -0.0325  0.7889
   80SOPE  H12S 7260   1.726   2.463   5.547 -0.2752 -0.1184  1.7217
   80SOPE  C213 7261   1.563   2.362   5.430 -0.3768  0.7409 -0.2567
   80SOPE  H13R 7262   1.497   2.448   5.409 -0.2499  0.9625  0.2234
   80SOPE  H13S 7263   1.504   2.270   5.447  0.7797 -0.1211 -0.7249
   80SOPE  C214 7264   1.655   2.341   5.303 -0.0277 -0.1213 -0.0066
   80SOPE  H14R 7265   1.575   2.321   5.228 -2.3060  0.8628  2.0356
   80SOPE  H14S 7266   1.716   2.250   5.320 -0.2879 -0.2863  0.0415
   80SOPE  C215 7267   1.735   2.462   5.252 -0.6631 -0.0318  0.0206
   80SOPE  H15R 7268   1.814   2.434   5.179  1.8275  2.0482  1.7215
   80SOPE  H15S 7269   1.799   2.505   5.332 -0.3244  0.4914 -0.5255
   80SOPE  C216 7270   1.640   2.567   5.193 -0.6022  0.2591 -0.3523
   80SOPE  H16R 7271   1.580   2.601   5.281 -0.1222 -1.1347  0.5562
   80SOPE  H16S 7272   1.560   2.516   5.134  0.7408 -1.6997 -0.5712
   80SOPE  C217 7273   1.715   2.683   5.132  0.3527 -0.8493  0.3137
   80SOPE  H17R 7274   1.777   2.649   5.046  0.8347  1.0212 -0.1124
   80SOPE  H17S 7275   1.784   2.713   5.213 -0.5556  1.3564  0.3351
   80SOPE  C218 7276   1.633   2.809   5.085  0.1943 -0.4268 -0.9880
   80SOPE  H18R 7277   1.576   2.846   5.173  0.5464 -0.3138 -0.8052
   80SOPE  H18S 7278   1.544   2.788   5.021 -1.1578  0.6063  0.4839
   80SOPE  H18T 7279   1.698   2.885   5.039  2.4969 -0.1072  2.4125
   80SOPE   C33 7280   1.259   2.120   6.440 -0.0727 -0.4559  0.0118
   80SOPE   H3X 7281   1.367   2.126   6.465  0.2576  0.5001 -1.5164
   80SOPE   H3Y 7282   1.235   2.228   6.427 -1.8464 -0.9647 -1.4057
   80SOPE   C34 7283   1.224   2.051   6.316  0.2109 -0.6201 -0.6692
   80SOPE   H4X 7284   1.118   2.017   6.305 -0.1190 -0.4378  1.4463
   80SOPE   H4Y 7285   1.286   1.960   6.303  0.1515 -0.6744 -0.5710
   80SOPE   C35 7286   1.245   2.156   6.201  0.2517  0.8396  0.6173
   80SOPE   H5X 7287   1.352   2.186   6.193  0.8129 -0.9656  0.9113
   80SOPE   H5Y 7288   1.188   2.247   6.228 -3.1587 -1.1131  0.6452
   80SOPE   C36 7289   1.192   2.107   6.067  0.0931  0.9534 -0.1545
   80SOPE   H6X 7290   1.087   2.076   6.082  0.8522 -0.7181  2.5808
   80SOPE   H6Y 7291   1.242   2.013   6.035  0.1437  0.9932 -0.1925
   80SOPE   C37 7292   1.219   2.214   5.962 -0.6673  0.2964 -0.1245
   80SOPE   H7X 7293   1.329   2.228   5.953 -0.2982 -1.2795  1.5155
   80SOPE   H7Y 7294   1.186   2.316   5.992  1.2854  0.8058  0.4620
   80SOPE   C38 7295   1.159   2.193   5.823  0.2757 -0.1718  0.3491
   80SOPE   H8X 7296   1.048   2.180   5.815  0.3733  0.0612 -3.2164
   80SOPE   H8Y 7297   1.203   2.104   5.774 -2.0241 -0.3351 -1.6438
   80SOPE   C39 7298   1.197   2.309   5.729 -1.0121 -0.5521 -1.0047
   80SOPE   H9X 7299   1.308   2.317   5.733 -0.9671 -0.8287  2.8112
   80SOPE   H9Y 7300   1.161   2.401   5.779 -0.3905 -1.7711  1.9472
   80SOPE  C310 7301   1.140   2.291   5.598  0.8009  0.6298  0.9717
   80SOPE  H10X 7302   1.165   2.379   5.535  0.0621 -0.9364 -1.6964
   80SOPE  H10Y 7303   1.029   2.284   5.606  0.9007  0.6251  2.7278
   80SOPE  C311 7304   1.181   2.165   5.518 -0.0503 -0.0192 -0.1174
   80SOPE  H11X 7305   1.142   2.073   5.568  0.7589  0.5821  1.7132
   80SOPE  H11Y 7306   1.292   2.160   5.522 -0.0944 -0.4763  1.7208
   80SOPE  C312 7307   1.150   2.165   5.368  0.6538  0.1450 -0.1269
   80SOPE  H12X 7308   1.042   2.189   5.364  0.9359  1.3699 -1.1118
   80SOPE  H12Y 7309   1.172   2.061   5.334  0.6769  0.1669 -0.1802
   80SOPE  C313 7310   1.226   2.267   5.294  1.0132 -0.4612 -0.6726
   80SOPE  H13X 7311   1.335   2.260   5.313  0.7146 -1.5567  0.8633
   80SOPE  H13Y 7312   1.200   2.370   5.325 -0.6173 -0.7000 -1.1587
   80SOPE  C314 7313   1.211   2.254   5.143  0.1424 -0.4597 -0.0424
   80SOPE  H14X 7314   1.225   2.147   5.118 -1.9464 -0.5989 -0.7951
   80SOPE  H14Y 7315   1.294   2.309   5.094 -1.8000  1.0422 -1.8567
   80SOPE  C315 7316   1.075   2.299   5.094  0.5086 -0.0985 -0.3833
   80SOPE  H15X 7317   1.060   2.405   5.123  0.1471  0.1483 -1.4286
   80SOPE  H15Y 7318   0.989   2.241   5.134  0.5833 -0.0968 -0.2168
   80SOPE  C316 7319   1.051   2.306   4.936 -0.6247  0.5403  0.3816
   80SOPE  H16X 7320   1.129   2.370   4.889 -1.7817 -0.0442 -2.4978
   80SOPE  H16Y 7321   0.946   2.333   4.911 -0.4295 -0.9773 -2.4693
   80SOPE  C317 7322   1.073   2.168   4.869  0.8462  0.0383  0.5085
   80SOPE  H17X 7323   1.006   2.101   4.927 -0.2373  3.7500  3.9679
   80SOPE  H17Y 7324   1.178   2.133   4.885  0.3461 -0.6540  2.7329
   80SOPE  C318 7325   1.047   2.163   4.717  0.2250  0.5966  0.2147
   80SOPE  H18X 7326   1.068   2.064   4.673 -2.9980 -1.7407  3.2862
   80SOPE  H18Y 7327   1.118   2.241   4.684  2.8545  0.0439  3.8700
   80SOPE  H18Z 7328   0.940   2.190   4.699 -0.1752 -0.1348  1.3681
   81SOPE     N 7329   4.645   6.388   7.274  0.0316 -0.5756  0.2520
   81SOPE   HN1 7330   4.636   6.313   7.203  2.1676 -0.2653 -0.4140
   81SOPE   HN2 7331   4.621   6.483   7.240  1.5466  0.3020  1.4404
   81SOPE   HN3 7332   4.748   6.389   7.291 -0.1655 -0.4656  1.6201
   81SOPE   C12 7333   4.579   6.356   7.405 -0.4007 -0.2966 -0.3646
   81SOPE  H12A 7334   4.475   6.332   7.372  0.1418 -0.5330 -1.9951
   81SOPE  H12B 7335   4.582   6.443   7.474 -0.3460  0.6497 -1.5338
   81SOPE   C11 7336   4.634   6.222   7.470 -0.0374  0.1605  0.0086
   81SOPE  H11A 7337   4.565   6.198   7.554  1.8668 -1.0817  1.3091
   81SOPE  H11B 7338   4.732   6.245   7.518  0.3403  1.9005 -1.5000
   81SOPE     P 7339   4.548   6.057   7.289  0.3994  0.6891 -0.2371
   81SOPE   O13 7340   4.422   6.089   7.354  0.3798  0.4233  0.8184
   81SOPE   O14 7341   4.567   5.913   7.257  0.0842  0.3668  0.2769
   81SOPE   O12 7342   4.656   6.105   7.391  0.6837 -0.2067  0.2561
   81SOPE   O11 7343   4.572   6.139   7.160  0.0527 -0.3021 -0.1174
   81SOPE    C1 7344   4.471   6.179   7.069  0.4475 -0.0640  0.3306
   81SOPE    HA 7345   4.508   6.261   7.004  1.5975  0.0887  1.1429
   81SOPE    HB 7346   4.385   6.234   7.115 -1.1982 -2.6299  0.5213
   81SOPE    C2 7347   4.414   6.060   6.986  0.2944  0.5445 -0.3545
   81SOPE    HS 7348   4.347   5.999   7.052  0.8271  1.6351  1.2675
   81SOPE   O21 7349   4.518   5.983   6.923  0.0586  0.3596  0.1989
   81SOPE   C21 7350   4.491   5.854   6.907 -0.2684  0.6479  0.5862
   81SOPE   O22 7351   4.399   5.789   6.953 -0.2150  0.2595 -0.0346
   81SOPE   C22 7352   4.592   5.799   6.806 -0.4860  0.5280 -0.5307
   81SOPE   H2R 7353   4.673   5.739   6.853 -1.9858 -1.3098 -0.1599
   81SOPE   H2S 7354   4.631   5.883   6.746  0.3796  1.1018  0.7886
   81SOPE    C3 7355   4.324   6.120   6.875  0.4618 -0.2411  0.5472
   81SOPE    HX 7356   4.384   6.169   6.795  0.6716 -1.5853 -0.1396
   81SOPE    HY 7357   4.264   6.206   6.912  0.3616  0.2779 -0.7707
   81SOPE   O31 7358   4.245   6.018   6.796 -0.0623  0.1142  0.3343
   81SOPE   C31 7359   4.123   5.994   6.850 -0.0507 -0.3344  0.0036
   81SOPE   O32 7360   4.076   6.048   6.951 -0.2944 -0.5404  0.2311
   81SOPE   C32 7361   4.054   5.891   6.765 -0.5691 -0.0484  0.7379
   81SOPE   H2X 7362   4.062   5.793   6.816  1.1582 -0.8148 -0.8712
   81SOPE   H2Y 7363   4.091   5.872   6.662 -4.6599  0.0647 -0.9517
   81SOPE   C23 7364   4.520   5.698   6.709 -0.2970 -0.1190 -0.5434
   81SOPE   H3R 7365   4.485   5.615   6.775 -1.2072 -0.2829 -1.2006
   81SOPE   H3S 7366   4.602   5.656   6.647  0.5870  1.1171 -0.2439
   81SOPE   C24 7367   4.406   5.766   6.630  0.2959 -0.2752 -0.0767
   81SOPE   H4R 7368   4.354   5.693   6.564  1.9521 -1.3077 -0.2990
   81SOPE   H4S 7369   4.336   5.802   6.709 -0.5388  1.4167 -1.5183
   81SOPE   C25 7370   4.456   5.879   6.541 -0.9471 -0.7786  0.1407
   81SOPE   H5R 7371   4.485   5.954   6.618 -0.7656  0.6991 -1.2942
   81SOPE   H5S 7372   4.549   5.863   6.482 -0.7430 -0.7954  0.4677
   81SOPE   C26 7373   4.335   5.942   6.460 -0.7640  0.7979 -0.4180
   81SOPE   H6R 7374   4.245   5.936   6.526  1.1010 -0.6670  2.2232
   81SOPE   H6S 7375   4.355   6.049   6.440 -1.5832  0.6348 -2.2797
   81SOPE   C27 7376   4.315   5.884   6.318 -0.0337 -0.2974 -0.1612
   81SOPE   H7R 7377   4.403   5.913   6.256  0.1673 -0.1390  0.1977
   81SOPE   H7S 7378   4.299   5.775   6.329 -2.4506 -0.0859 -0.9709
   81SOPE   C28 7379   4.200   5.950   6.239 -0.2355 -0.3454 -0.4871
   81SOPE   H8R 7380   4.142   6.014   6.308 -2.7804 -1.7236 -1.1875
   81SOPE   H8S 7381   4.253   6.028   6.180  1.0474 -0.9470 -0.1507
   81SOPE   C29 7382   4.103   5.884   6.147  0.0378 -0.5046  0.3262
   81SOPE   H91 7383   4.031   5.822   6.203 -1.1034 -0.1599 -0.7164
   81SOPE  C210 7384   4.115   5.868   6.013 -0.3451  0.6580  0.3641
   81SOPE  H101 7385   4.033   5.815   5.961 -1.9207  1.7109  1.6653
   81SOPE  C211 7386   4.213   5.942   5.925  0.2793  0.6569 -0.0121
   81SOPE  H11R 7387   4.314   5.905   5.952 -0.9258 -0.8894  2.6874
   81SOPE  H11S 7388   4.199   6.051   5.941 -0.4260  0.3694  1.4551
   81SOPE  C212 7389   4.185   5.918   5.780 -0.3007 -0.0924 -0.1467
   81SOPE  H12R 7390   4.090   5.971   5.755 -1.2851 -1.6191  0.2332
   81SOPE  H12S 7391   4.187   5.810   5.755  1.6663  0.0431 -0.7839
   81SOPE  C213 7392   4.294   5.998   5.703 -0.0248  0.0646 -0.2550
   81SOPE  H13R 7393   4.394   5.986   5.751  0.2178  2.2130 -0.1476
   81SOPE  H13S 7394   4.293   6.108   5.711 -1.7746  0.1287 -0.8886
   81SOPE  C214 7395   4.296   5.969   5.553  0.3214  0.0627  0.1856
   81SOPE  H14R 7396   4.205   6.007   5.502 -1.2048 -2.7679  0.6077
   81SOPE  H14S 7397   4.284   5.858   5.546 -0.9061  0.2310 -0.6543
   81SOPE  C215 7398   4.426   6.007   5.483 -0.2223 -0.2427 -0.3654
   81SOPE  H15R 7399   4.511   5.973   5.545  1.7675  0.9783 -2.2953
   81SOPE  H15S 7400   4.431   6.117   5.471 -0.2553 -0.4296 -2.5966
   81SOPE  C216 7401   4.442   5.940   5.347  0.3459 -0.6169 -0.2755
   81SOPE  H16R 7402   4.359   5.973   5.280  2.5516  2.3520 -1.7732
   81SOPE  H16S 7403   4.447   5.830   5.341  0.4249 -0.6483  0.3528
   81SOPE  C217 7404   4.566   5.994   5.266 -0.0856  0.2449  0.2766
   81SOPE  H17R 7405   4.585   5.928   5.178 -1.2429  2.5892 -1.8653
   81SOPE  H17S 7406   4.655   5.989   5.332 -0.1368  0.4075  0.3576
   81SOPE  C218 7407   4.558   6.135   5.221 -0.3496  0.3366  0.7350
   81SOPE  H18R 7408   4.517   6.201   5.300  0.2363 -0.4677  1.7381
   81SOPE  H18S 7409   4.508   6.140   5.122 -0.3686  1.1945  0.7870
   81SOPE  H18T 7410   4.660   6.166   5.189 -0.3602 -1.2702 -1.0309
   81SOPE   C33 7411   3.902   5.915   6.746 -0.3608 -0.1479 -0.3345
   81SOPE   H3X 7412   3.883   6.015   6.704 -0.8995 -0.0748  0.0798
   81SOPE   H3Y 7413   3.844   5.918   6.841  0.6196  1.6295  0.2451
   81SOPE   C34 7414   3.846   5.808   6.661 -0.1798  1.3877  0.6579
   81SOPE   H4X 7415   3.735   5.815   6.673 -0.2777  2.7169 -0.7235
   81SOPE   H4Y 7416   3.879   5.705   6.687 -1.8994 -0.2460 -2.9748
   81SOPE   C35 7417   3.849   5.831   6.509  0.2769  0.3328  0.0459
   81SOPE   H5X 7418   3.951   5.804   6.475 -0.2549 -2.5073  0.5030
   81SOPE   H5Y 7419   3.817   5.933   6.478 -2.3429  0.0080  1.4008
   81SOPE   C36 7420   3.749   5.738   6.433 -0.0349 -0.2822 -0.1124
   81SOPE   H6X 7421   3.650   5.786   6.444  0.3003  0.6269 -0.9681
   81SOPE   H6Y 7422   3.736   5.635   6.473 -0.3654 -0.2204 -0.0622
   81SOPE   C37 7423   3.791   5.733   6.286 -0.4823  0.4500 -0.2585
   81SOPE   H7X 7424   3.871   5.656   6.282  0.4972  1.1835  2.7035
   81SOPE   H7Y 7425   3.828   5.825   6.238  0.3501 -0.4618 -1.3956
   81SOPE   C38 7426   3.665   5.696   6.203 -0.7573  0.2720  0.2894
   81SOPE   H8X 7427   3.628   5.800   6.190 -1.2436  0.1908  0.9817
   81SOPE   H8Y 7428   3.595   5.637   6.266 -1.2083  1.4168  0.8891
   81SOPE   C39 7429   3.700   5.615   6.075 -0.1883  0.6468 -0.2565
   81SOPE   H9X 7430   3.615   5.549   6.047  0.4560  0.7320 -2.6955
   81SOPE   H9Y 7431   3.771   5.536   6.109 -2.3713 -1.3842 -0.1173
   81SOPE  C310 7432   3.735   5.700   5.951 -0.6144  0.4662 -0.6771
   81SOPE  H10X 7433   3.838   5.738   5.968 -0.9294  1.0068  0.0964
   81SOPE  H10Y 7434   3.668   5.788   5.934  1.7333  2.5338  0.1417
   81SOPE  C311 7435   3.735   5.607   5.828  0.3218  0.2805  0.3909
   81SOPE  H11X 7436   3.631   5.578   5.801  0.2547  0.1031  0.8392
   81SOPE  H11Y 7437   3.790   5.510   5.836  0.7625  0.4292 -0.6580
   81SOPE  C312 7438   3.794   5.693   5.709  0.2426  0.4059  0.3727
   81SOPE  H12X 7439   3.891   5.650   5.678  0.5831 -0.1995  2.1822
   81SOPE  H12Y 7440   3.798   5.799   5.740  1.5426  0.6316 -0.4868
   81SOPE  C313 7441   3.692   5.678   5.583 -0.4475 -0.1563 -0.4126
   81SOPE  H13X 7442   3.585   5.703   5.600 -1.7787 -2.7770 -3.6544
   81SOPE  H13Y 7443   3.694   5.569   5.560  0.1181 -0.3791  0.6415
   81SOPE  C314 7444   3.742   5.750   5.463  0.2075 -0.1562  0.3179
   81SOPE  H14X 7445   3.782   5.852   5.483 -3.3357  1.7018 -1.1257
   81SOPE  H14Y 7446   3.655   5.779   5.400  0.1407  0.8896  0.8640
   81SOPE  C315 7447   3.840   5.669   5.376  0.1633  0.1285  0.1916
   81SOPE  H15X 7448   3.803   5.567   5.355  1.2371 -0.1700 -0.3050
   81SOPE  H15Y 7449   3.927   5.651   5.441 -0.7810  2.0824  2.1348
   81SOPE  C316 7450   3.876   5.737   5.247  0.3383 -0.0388 -0.1320
   81SOPE  H16X 7451   3.852   5.845   5.257  1.8913  0.2225  1.2462
   81SOPE  H16Y 7452   3.806   5.699   5.169 -0.4702  0.1401  0.4939
   81SOPE  C317 7453   4.023   5.718   5.208 -0.0886  0.7152 -0.0769
   81SOPE  H17X 7454   4.037   5.765   5.108  0.1759 -0.1457 -0.4502
   81SOPE  H17Y 7455   4.039   5.608   5.206 -0.3443  0.6376  1.5181
   81SOPE  C318 7456   4.129   5.780   5.295  0.4614 -0.4146 -0.3177
   81SOPE  H18X 7457   4.230   5.747   5.261  0.7330 -0.4950  0.5546
   81SOPE  H18Y 7458   4.129   5.742   5.399  1.5599 -1.5071 -0.6852
   81SOPE  H18Z 7459   4.130   5.891   5.298  4.3840 -0.3203  2.0356
   82SOPE     N 7460   1.777   5.893   7.368 -0.5961  0.8966 -0.3213
   82SOPE   HN1 7461   1.795   5.908   7.470 -1.8504  0.9978 -0.0972
   82SOPE   HN2 7462   1.869   5.900   7.319 -1.8105  1.6515 -2.6603
   82SOPE   HN3 7463   1.717   5.975   7.345 -1.3463  0.5456  0.3308
   82SOPE   C12 7464   1.710   5.765   7.330  0.3353  0.3643 -0.0496
   82SOPE  H12A 7465   1.773   5.677   7.354  0.7955  0.4926 -0.7727
   82SOPE  H12B 7466   1.684   5.765   7.222  0.5817  0.6211 -0.1109
   82SOPE   C11 7467   1.591   5.733   7.423  0.2603 -0.0275  0.1529
   82SOPE  H11A 7468   1.632   5.712   7.523  1.5807  0.6765 -0.2174
   82SOPE  H11B 7469   1.549   5.638   7.383 -0.8582 -0.0297  1.2957
   82SOPE     P 7470   1.355   5.853   7.351 -0.6504 -0.4098 -0.3556
   82SOPE   O13 7471   1.361   5.972   7.265 -0.4206 -0.5941  0.3177
   82SOPE   O14 7472   1.241   5.841   7.446 -0.4085  0.2924  0.2591
   82SOPE   O12 7473   1.494   5.843   7.430 -0.2032  0.4021 -0.3569
   82SOPE   O11 7474   1.357   5.724   7.264 -0.5975 -0.3771  0.4393
   82SOPE    C1 7475   1.249   5.688   7.174 -0.1718  0.7020  0.1386
   82SOPE    HA 7476   1.161   5.756   7.185 -0.5168  0.1302  1.0270
   82SOPE    HB 7477   1.223   5.582   7.197  2.8385 -0.0324  0.5091
   82SOPE    C2 7478   1.300   5.706   7.028 -0.2544 -0.0673  0.2683
   82SOPE    HS 7479   1.345   5.807   7.022 -1.8887  0.6091 -1.1860
   82SOPE   O21 7480   1.197   5.704   6.933  0.0923 -0.5866  0.0258
   82SOPE   C21 7481   1.202   5.772   6.822 -0.1260 -0.5665  0.4172
   82SOPE   O22 7482   1.284   5.864   6.802  0.1062 -0.2178  0.0337
   82SOPE   C22 7483   1.102   5.713   6.725 -0.1784  0.1054  0.2888
   82SOPE   H2R 7484   1.002   5.754   6.749 -0.7367 -1.1446  0.1664
   82SOPE   H2S 7485   1.089   5.603   6.736  1.7810  0.0296  2.6658
   82SOPE    C3 7486   1.417   5.608   7.006 -0.2136 -0.1472 -0.6317
   82SOPE    HX 7487   1.386   5.501   7.010  0.1304 -0.2276  1.5472
   82SOPE    HY 7488   1.486   5.620   7.093 -0.4493 -0.0389 -0.4587
   82SOPE   O31 7489   1.472   5.642   6.877  0.4601 -0.1567 -0.5744
   82SOPE   C31 7490   1.582   5.575   6.837  0.7427 -0.3899 -0.0034
   82SOPE   O32 7491   1.637   5.494   6.906 -1.2220  0.0001 -0.4959
   82SOPE   C32 7492   1.606   5.616   6.693 -0.2329  0.5307 -0.5770
   82SOPE   H2X 7493   1.529   5.686   6.654 -0.3540 -0.0677 -1.4556
   82SOPE   H2Y 7494   1.597   5.526   6.629  1.3600  1.7052 -2.5646
   82SOPE   C23 7495   1.139   5.754   6.579  0.1500 -0.8874  0.2254
   82SOPE   H3R 7496   1.184   5.855   6.570  2.4773 -1.7940  0.9412
   82SOPE   H3S 7497   1.039   5.764   6.531  1.1073 -1.4613 -1.9949
   82SOPE   C24 7498   1.213   5.655   6.485 -0.9298 -0.1516 -0.1339
   82SOPE   H4R 7499   1.309   5.624   6.531  0.1236  2.3470 -0.4568
   82SOPE   H4S 7500   1.146   5.568   6.472 -1.6047 -0.1994  2.8649
   82SOPE   C25 7501   1.236   5.711   6.347 -0.0840  0.3360  1.2482
   82SOPE   H5R 7502   1.135   5.747   6.317  0.7025  1.5232 -0.1304
   82SOPE   H5S 7503   1.301   5.800   6.356 -0.3632  0.6120  0.6409
   82SOPE   C26 7504   1.297   5.629   6.235 -0.4191 -0.2788  0.1117
   82SOPE   H6R 7505   1.403   5.605   6.258  0.3132  2.1271 -0.4052
   82SOPE   H6S 7506   1.239   5.535   6.229  0.4405 -0.8802  0.9415
   82SOPE   C27 7507   1.274   5.704   6.105 -0.0977 -0.1160  0.7527
   82SOPE   H7R 7508   1.173   5.748   6.113  0.6218  2.0002 -0.8654
   82SOPE   H7S 7509   1.332   5.798   6.090 -1.0966  0.1672 -1.8537
   82SOPE   C28 7510   1.300   5.632   5.970 -0.5182  0.4603  0.1474
   82SOPE   H8R 7511   1.226   5.550   5.980 -0.6952  0.7421  1.2336
   82SOPE   H8S 7512   1.277   5.692   5.879  1.5528 -0.1124 -0.8346
   82SOPE   C29 7513   1.443   5.583   5.952 -0.5708  0.1051 -0.0772
   82SOPE   H91 7514   1.473   5.501   6.019 -1.4838 -0.6790 -0.6048
   82SOPE  C210 7515   1.533   5.621   5.865  0.7033 -0.1481  0.2892
   82SOPE  H101 7516   1.627   5.563   5.860  0.3253 -0.7651  0.2035
   82SOPE  C211 7517   1.515   5.718   5.754 -0.5494  0.5383  0.5428
   82SOPE  H11R 7518   1.589   5.801   5.761  0.7452 -0.5962  1.0494
   82SOPE  H11S 7519   1.414   5.762   5.747 -0.6076  0.1240 -1.7765
   82SOPE  C212 7520   1.554   5.655   5.614  0.6469 -0.3971  0.0274
   82SOPE  H12R 7521   1.648   5.596   5.606 -0.0023 -1.5054  0.2564
   82SOPE  H12S 7522   1.557   5.747   5.552 -1.5628 -0.5723 -0.4077
   82SOPE  C213 7523   1.442   5.562   5.555 -0.0277 -0.0219  0.5817
   82SOPE  H13R 7524   1.342   5.610   5.552  0.6795  1.5116  0.4239
   82SOPE  H13S 7525   1.431   5.476   5.624 -1.6384  0.0073  0.4068
   82SOPE  C214 7526   1.480   5.514   5.416  0.2201 -0.2494 -0.2824
   82SOPE  H14R 7527   1.581   5.468   5.416  0.2026 -0.3305  1.1359
   82SOPE  H14S 7528   1.498   5.604   5.353 -0.9959  0.6218  0.5619
   82SOPE  C215 7529   1.383   5.408   5.351 -0.0737 -0.6689 -0.4826
   82SOPE  H15R 7530   1.290   5.467   5.341 -1.9666 -2.4067  4.0453
   82SOPE  H15S 7531   1.381   5.321   5.421  1.6587 -0.2614  0.1405
   82SOPE  C216 7532   1.429   5.357   5.216  0.2611  0.4738 -0.0201
   82SOPE  H16R 7533   1.521   5.297   5.231 -1.0454 -2.5039 -2.8187
   82SOPE  H16S 7534   1.453   5.436   5.142  1.9329 -0.2577 -0.3048
   82SOPE  C217 7535   1.329   5.259   5.164  0.0772 -0.3908 -0.1383
   82SOPE  H17R 7536   1.236   5.316   5.143  0.3085 -0.2844 -0.9318
   82SOPE  H17S 7537   1.295   5.188   5.242 -0.4553  3.1737  3.1631
   82SOPE  C218 7538   1.381   5.187   5.038  0.1242  0.8042 -0.5002
   82SOPE  H18R 7539   1.465   5.123   5.072  0.1568  1.4158  0.6162
   82SOPE  H18S 7540   1.412   5.264   4.965 -3.2704  2.7362 -0.1133
   82SOPE  H18T 7541   1.307   5.112   5.002  0.1586 -0.0916  1.1952
   82SOPE   C33 7542   1.744   5.678   6.692  0.3882  0.5772 -0.2296
   82SOPE   H3X 7543   1.820   5.597   6.698 -0.4997 -0.1648  2.1187
   82SOPE   H3Y 7544   1.753   5.748   6.778 -1.4277 -1.9632  2.2155
   82SOPE   C34 7545   1.772   5.770   6.572 -0.2818 -0.3030 -0.0519
   82SOPE   H4X 7546   1.881   5.789   6.569 -0.0064 -1.3835  1.6751
   82SOPE   H4Y 7547   1.722   5.866   6.598  0.3354 -0.5532  2.2318
   82SOPE   C35 7548   1.725   5.732   6.431  0.2206 -0.1854 -0.4196
   82SOPE   H5X 7549   1.622   5.694   6.418  0.6173 -1.7195  0.5194
   82SOPE   H5Y 7550   1.789   5.647   6.399  0.1390 -0.5139  0.2491
   82SOPE   C36 7551   1.743   5.853   6.337 -0.3319  0.0051  0.5069
   82SOPE   H6X 7552   1.849   5.883   6.320 -0.6863  1.5228  0.8696
   82SOPE   H6Y 7553   1.701   5.944   6.384 -0.5238 -0.4541  1.2506
   82SOPE   C37 7554   1.668   5.823   6.201 -0.6993 -0.1508  0.4237
   82SOPE   H7X 7555   1.588   5.749   6.221 -0.0299 -0.5667  1.6620
   82SOPE   H7Y 7556   1.727   5.767   6.125 -1.1082  0.4854 -0.3913
   82SOPE   C38 7557   1.630   5.952   6.131  0.5113  0.7503 -0.3416
   82SOPE   H8X 7558   1.563   6.013   6.196  1.0502 -1.2338  2.2102
   82SOPE   H8Y 7559   1.581   5.929   6.034 -2.0845  2.6037  0.4110
   82SOPE   C39 7560   1.744   6.054   6.095  0.2592 -0.5994 -0.6301
   82SOPE   H9X 7561   1.828   6.007   6.039  2.3069  1.9966  0.0557
   82SOPE   H9Y 7562   1.786   6.085   6.193 -0.5644 -0.5568 -0.2859
   82SOPE  C310 7563   1.688   6.182   6.028  0.2418 -0.1415  0.8616
   82SOPE  H10X 7564   1.709   6.263   6.101 -0.7464  0.8167  0.1034
   82SOPE  H10Y 7565   1.579   6.198   6.025  0.4799  2.3208  2.6409
   82SOPE  C311 7566   1.768   6.237   5.900 -0.0230 -1.3194 -0.5372
   82SOPE  H11X 7567   1.877   6.256   5.905  0.1163 -1.3912 -2.4717
   82SOPE  H11Y 7568   1.725   6.338   5.885 -0.7307 -1.3258  1.2296
   82SOPE  C312 7569   1.737   6.140   5.782 -0.4896 -0.1381 -0.7211
   82SOPE  H12X 7570   1.627   6.126   5.772 -0.3146 -0.0424 -3.8108
   82SOPE  H12Y 7571   1.799   6.053   5.811 -0.6023 -0.4971 -1.5251
   82SOPE  C313 7572   1.786   6.189   5.650 -0.7737 -0.1092  0.1513
   82SOPE  H13X 7573   1.897   6.191   5.645 -0.6475 -2.7222  0.2387
   82SOPE  H13Y 7574   1.736   6.287   5.638 -2.1901 -0.6924  1.0882
   82SOPE  C314 7575   1.741   6.101   5.537 -0.4966  0.2465 -0.3098
   82SOPE  H14X 7576   1.714   6.158   5.445  2.4706  1.1361 -0.7471
   82SOPE  H14Y 7577   1.650   6.048   5.571 -1.8713  1.0562 -2.4517
   82SOPE  C315 7578   1.853   5.999   5.502 -0.1845 -0.4519 -0.4792
   82SOPE  H15X 7579   1.805   5.903   5.474 -2.7113  0.0742  1.6236
   82SOPE  H15Y 7580   1.923   5.977   5.585 -2.2529 -1.3869  1.1058
   82SOPE  C316 7581   1.946   6.063   5.393  1.1747 -0.2912 -0.5587
   82SOPE  H16X 7582   2.042   6.008   5.391  1.7102  0.4629  1.9846
   82SOPE  H16Y 7583   1.962   6.170   5.417 -1.6919  0.1107 -0.0080
   82SOPE  C317 7584   1.885   6.079   5.248 -0.2807  0.3307 -0.4313
   82SOPE  H17X 7585   1.956   6.109   5.167 -0.7799 -1.1754 -1.4744
   82SOPE  H17Y 7586   1.819   6.168   5.247  3.2673  3.2147  0.7422
   82SOPE  C318 7587   1.809   5.950   5.200  0.5580  0.1050 -0.5143
   82SOPE  H18X 7588   1.859   5.851   5.212 -1.3828 -0.8685  0.0357
   82SOPE  H18Y 7589   1.764   5.947   5.098 -2.1058  0.0462  0.5633
   82SOPE  H18Z 7590   1.718   5.932   5.262  0.2370 -0.5416 -1.1509
   83SOPE     N 7591   0.175   2.332   2.482 -0.7985 -0.3252  0.4501
   83SOPE   HN1 7592   0.107   2.407   2.456  0.6304  0.6445 -0.6772
   83SOPE   HN2 7593   0.269   2.373   2.466 -0.6149 -0.9567 -0.1176
   83SOPE   HN3 7594   0.161   2.246   2.424  1.5757  0.2365 -1.0917
   83SOPE   C12 7595   0.143   2.305   2.628 -0.5038  0.5667  0.2956
   83SOPE  H12A 7596   0.037   2.272   2.631 -0.2111 -0.3559  2.1650
   83SOPE  H12B 7597   0.152   2.398   2.688 -1.0341  1.0300 -0.3277
   83SOPE   C11 7598   0.229   2.183   2.676 -0.3038  0.2739  0.8781
   83SOPE  H11A 7599   0.201   2.181   2.783 -0.1543  1.2380  0.9424
   83SOPE  H11B 7600   0.336   2.212   2.675  0.1936 -0.9032 -3.6620
   83SOPE     P 7601   0.296   1.944   2.601  0.3375 -0.1528  0.2945
   83SOPE   O13 7602   0.421   1.992   2.530  0.8021  0.1580  0.0371
   83SOPE   O14 7603   0.224   1.837   2.526  0.1007  0.1088 -0.1776
   83SOPE   O12 7604   0.200   2.065   2.603  0.3379  0.1258  0.4276
   83SOPE   O11 7605   0.319   1.915   2.753  0.0227 -0.2527 -0.2432
   83SOPE    C1 7606   0.230   1.826   2.822 -0.0897 -0.1401 -0.0167
   83SOPE    HA 7607   0.272   1.805   2.923  0.2763  2.2420  0.3923
   83SOPE    HB 7608   0.226   1.729   2.768  0.4175 -1.1138  1.6168
   83SOPE    C2 7609   0.090   1.885   2.848  0.7671 -0.1439 -0.1712
   83SOPE    HS 7610   0.050   1.943   2.762 -2.1643 -2.7168 -0.7326
   83SOPE   O21 7611   0.109   1.978   2.953  0.4467  0.1466 -0.0534
   83SOPE   C21 7612   0.004   2.038   2.991  0.2962  0.5798 -0.2042
   83SOPE   O22 7613  -0.101   2.052   2.928 -0.2563  0.4024  1.2425
   83SOPE   C22 7614   0.018   2.103   3.133 -0.2682  0.5433 -0.1828
   83SOPE   H2R 7615   0.053   2.207   3.119  0.4425  0.1741 -1.3734
   83SOPE   H2S 7616   0.100   2.058   3.193 -0.6754 -0.0914 -0.0928
   83SOPE    C3 7617  -0.011   1.779   2.882  0.2936 -0.5817  0.4003
   83SOPE    HX 7618  -0.007   1.707   2.798 -1.7307 -1.0366  0.6425
   83SOPE    HY 7619  -0.116   1.815   2.879  0.4972  0.1861  1.5859
   83SOPE   O31 7620   0.013   1.713   3.011  0.5768 -0.2101 -0.3004
   83SOPE   C31 7621   0.088   1.605   3.012  0.1771  0.6960  0.4972
   83SOPE   O32 7622   0.136   1.548   2.911  0.4714  0.2005  0.2819
   83SOPE   C32 7623   0.101   1.556   3.160 -0.2364  0.0868  0.0740
   83SOPE   H2X 7624   0.212   1.561   3.171 -0.4121  0.4961  1.8896
   83SOPE   H2Y 7625   0.060   1.453   3.162 -1.6353  0.6049 -0.5868
   83SOPE   C23 7626  -0.120   2.105   3.207 -0.0850 -0.2100 -0.2008
   83SOPE   H3R 7627  -0.158   2.001   3.215 -1.5814  0.1897 -1.5744
   83SOPE   H3S 7628  -0.185   2.167   3.143 -0.5940  0.8797  1.2967
   83SOPE   C24 7629  -0.107   2.168   3.345 -1.0435 -0.2523 -0.3789
   83SOPE   H4R 7630  -0.041   2.105   3.409 -2.2940 -0.9924  0.2196
   83SOPE   H4S 7631  -0.050   2.263   3.346  3.1666 -2.5388  0.5837
   83SOPE   C25 7632  -0.241   2.170   3.423 -0.1068 -0.4084 -0.2124
   83SOPE   H5R 7633  -0.324   2.224   3.372  0.4208 -0.1327 -0.7878
   83SOPE   H5S 7634  -0.285   2.070   3.441 -1.0064  0.0405  0.1677
   83SOPE   C26 7635  -0.206   2.232   3.559  0.1247  1.0545 -0.3667
   83SOPE   H6R 7636  -0.121   2.172   3.598 -0.3934  0.4259 -0.1930
   83SOPE   H6S 7637  -0.166   2.335   3.547  1.4431  0.8480  1.7721
   83SOPE   C27 7638  -0.316   2.233   3.660 -0.2734  0.1098  0.1792
   83SOPE   H7R 7639  -0.398   2.301   3.631  1.7132  2.8231  0.5558
   83SOPE   H7S 7640  -0.353   2.131   3.685 -0.3620  0.2981  0.8313
   83SOPE   C28 7641  -0.264   2.294   3.794  0.6652 -0.2685 -0.1471
   83SOPE   H8R 7642  -0.167   2.241   3.808  1.2369 -0.2380 -3.1997
   83SOPE   H8S 7643  -0.229   2.396   3.766  0.6204 -0.0323  0.6492
   83SOPE   C29 7644  -0.350   2.279   3.916  0.6963 -0.1118  0.4382
   83SOPE   H91 7645  -0.450   2.238   3.895  1.6128 -0.9582 -2.7642
   83SOPE  C210 7646  -0.310   2.315   4.037 -0.2243  1.0992  0.1642
   83SOPE  H101 7647  -0.387   2.318   4.115 -0.5932 -0.4150 -0.1007
   83SOPE  C211 7648  -0.173   2.385   4.061  0.6506  0.2346  0.0263
   83SOPE  H11R 7649  -0.167   2.472   3.993 -0.4657 -1.0194 -1.7791
   83SOPE  H11S 7650  -0.093   2.314   4.031 -1.5687 -1.8772 -1.2695
   83SOPE  C212 7651  -0.160   2.449   4.203 -0.0083  0.7214  0.9870
   83SOPE  H12R 7652  -0.248   2.516   4.203  0.8755  1.9317  0.6977
   83SOPE  H12S 7653  -0.074   2.519   4.201  0.6554 -0.0345  2.0233
   83SOPE  C213 7654  -0.152   2.349   4.315 -0.3954 -0.0217 -0.4141
   83SOPE  H13R 7655  -0.061   2.287   4.308 -0.8291 -0.9280  1.3949
   83SOPE  H13S 7656  -0.239   2.280   4.314 -1.0254  0.7494 -1.6817
   83SOPE  C214 7657  -0.159   2.425   4.455 -0.5146  0.2638  0.0714
   83SOPE  H14R 7658  -0.163   2.349   4.536  1.7884  2.3319  2.2889
   83SOPE  H14S 7659  -0.257   2.477   4.449 -0.4260  0.3851 -0.3750
   83SOPE  C215 7660  -0.051   2.529   4.487 -0.6327 -0.4147 -0.5244
   83SOPE  H15R 7661  -0.076   2.616   4.422  2.1905 -1.0035 -2.5806
   83SOPE  H15S 7662   0.051   2.499   4.454 -0.2648  0.4643 -0.1889
   83SOPE  C216 7663  -0.040   2.577   4.633  0.6952  0.1367  0.6713
   83SOPE  H16R 7664  -0.141   2.578   4.679  0.4951  0.8693  0.2415
   83SOPE  H16S 7665  -0.002   2.681   4.624  1.7631 -0.2534  0.4869
   83SOPE  C217 7666   0.036   2.478   4.716 -0.0609  0.0309 -0.3302
   83SOPE  H17R 7667   0.135   2.456   4.671  0.1936 -1.0518  0.7335
   83SOPE  H17S 7668  -0.011   2.378   4.705 -0.1418  0.0883 -0.5234
   83SOPE  C218 7669   0.065   2.507   4.863 -0.1727 -0.2549  0.3280
   83SOPE  H18R 7670   0.141   2.435   4.902  1.0136 -0.6915 -2.5017
   83SOPE  H18S 7671  -0.027   2.495   4.924  0.4717  3.1283  2.2126
   83SOPE  H18T 7672   0.098   2.613   4.863 -1.8580  0.3228 -1.3100
   83SOPE   C33 7673   0.035   1.639   3.268  0.4161 -0.5957  0.0208
   83SOPE   H3X 7674   0.033   1.583   3.364 -0.2961 -3.1513 -1.3694
   83SOPE   H3Y 7675  -0.074   1.644   3.247  0.1982  2.5123  1.3165
   83SOPE   C34 7676   0.097   1.777   3.289 -0.3041 -0.3974 -0.8535
   83SOPE   H4X 7677   0.051   1.824   3.378 -0.2457  0.2405 -1.1559
   83SOPE   H4Y 7678   0.072   1.840   3.200  0.5852  0.0733 -0.7742
   83SOPE   C35 7679   0.256   1.781   3.308  0.3650  0.1140 -0.6462
   83SOPE   H5X 7680   0.274   1.890   3.317  0.2975 -0.0150  1.7463
   83SOPE   H5Y 7681   0.312   1.750   3.217 -1.1920  0.4334 -1.7336
   83SOPE   C36 7682   0.318   1.697   3.420  0.5413 -0.1399  0.5999
   83SOPE   H6X 7683   0.428   1.711   3.420  0.8686 -2.3654 -0.0298
   83SOPE   H6Y 7684   0.299   1.588   3.406  0.0770  0.1420 -1.2164
   83SOPE   C37 7685   0.263   1.728   3.554 -0.1667 -0.1332  0.1380
   83SOPE   H7X 7686   0.159   1.696   3.573 -0.1398 -0.2669  0.0576
   83SOPE   H7Y 7687   0.253   1.838   3.569 -2.6922 -0.1219 -1.2070
   83SOPE   C38 7688   0.352   1.687   3.678 -0.2716 -1.1670 -0.7652
   83SOPE   H8X 7689   0.450   1.738   3.665 -1.2324  0.9143 -0.3422
   83SOPE   H8Y 7690   0.360   1.577   3.665  0.6323 -1.0402 -1.4052
   83SOPE   C39 7691   0.289   1.729   3.809  0.0077 -0.2605  0.8009
   83SOPE   H9X 7692   0.187   1.686   3.814  0.1781 -0.9220 -0.9623
   83SOPE   H9Y 7693   0.275   1.838   3.829  0.1631 -0.2118  0.6393
   83SOPE  C310 7694   0.371   1.686   3.928 -0.6841  0.1216 -0.0514
   83SOPE  H10X 7695   0.475   1.725   3.920 -0.4539 -0.4174  0.2400
   83SOPE  H10Y 7696   0.376   1.576   3.945 -0.4894  0.1314 -0.0403
   83SOPE  C311 7697   0.319   1.739   4.060 -0.2053 -0.7939 -0.6420
   83SOPE  H11X 7698   0.250   1.662   4.101  0.5686 -1.3434 -0.3503
   83SOPE  H11Y 7699   0.251   1.823   4.036 -0.8749 -0.6173  1.6346
   83SOPE  C312 7700   0.427   1.788   4.161 -0.3320  0.1336  0.3553
   83SOPE  H12X 7701   0.492   1.856   4.103 -1.1987 -0.3346 -1.2142
   83SOPE  H12Y 7702   0.497   1.705   4.185  1.7915  1.4878 -0.7715
   83SOPE  C313 7703   0.387   1.863   4.285 -0.0122  0.5568  0.7090
   83SOPE  H13X 7704   0.324   1.952   4.264 -0.0349 -0.0850 -2.4865
   83SOPE  H13Y 7705   0.476   1.897   4.341  1.2714  1.9770 -1.9738
   83SOPE  C314 7706   0.297   1.774   4.377 -0.3837 -0.9586 -0.1712
   83SOPE  H14X 7707   0.216   1.737   4.312  0.9786 -0.0099 -2.5313
   83SOPE  H14Y 7708   0.256   1.838   4.458  2.4556 -1.0790  1.5076
   83SOPE  C315 7709   0.372   1.665   4.442  0.1173  0.5445  0.2235
   83SOPE  H15X 7710   0.415   1.597   4.365  0.9597 -0.3353  1.4112
   83SOPE  H15Y 7711   0.302   1.604   4.504  1.5458 -0.5279  0.8374
   83SOPE  C316 7712   0.490   1.701   4.537  0.0077  0.3927  0.0476
   83SOPE  H16X 7713   0.451   1.781   4.604 -1.5412  0.5113 -0.9376
   83SOPE  H16Y 7714   0.576   1.732   4.474 -0.0714 -1.8663 -1.2916
   83SOPE  C317 7715   0.541   1.580   4.621 -0.2609 -0.7038 -0.0128
   83SOPE  H17X 7716   0.575   1.498   4.554 -1.6240 -0.3209 -1.2209
   83SOPE  H17Y 7717   0.459   1.536   4.681  1.1961  0.3156  2.9368
   83SOPE  C318 7718   0.648   1.633   4.727  0.2627  0.6481 -0.2676
   83SOPE  H18X 7719   0.703   1.550   4.775 -1.7542 -1.3818 -1.2964
   83SOPE  H18Y 7720   0.599   1.688   4.811 -0.7672  0.0419 -0.4491
   83SOPE  H18Z 7721   0.726   1.700   4.686  0.9248  0.2508  0.3223
   84SOPE     N 7722   2.012   0.701   2.685 -0.6033  0.5247 -0.2564
   84SOPE   HN1 7723   1.992   0.791   2.637 -2.9200 -0.5920 -1.6101
   84SOPE   HN2 7724   2.107   0.680   2.650 -0.5658  2.4419 -1.4652
   84SOPE   HN3 7725   1.954   0.621   2.651 -0.7323  0.2797  0.5097
   84SOPE   C12 7726   1.986   0.708   2.832 -0.3049 -0.3018 -0.7329
   84SOPE  H12A 7727   1.908   0.786   2.846 -1.7492 -1.8961  0.6114
   84SOPE  H12B 7728   2.073   0.747   2.888 -1.1322 -0.5736  0.8049
   84SOPE   C11 7729   1.916   0.578   2.884 -0.2131 -0.2717 -0.0728
   84SOPE  H11A 7730   1.917   0.573   2.995  4.1778  1.7146  0.1864
   84SOPE  H11B 7731   1.983   0.494   2.855  0.2594 -0.6726  2.0686
   84SOPE     P 7732   1.703   0.434   2.840 -0.2718  0.3634 -0.1336
   84SOPE   O13 7733   1.717   0.351   2.721 -0.0047 -0.1451  0.3744
   84SOPE   O14 7734   1.565   0.467   2.879  0.1617 -0.5354 -0.2482
   84SOPE   O12 7735   1.785   0.566   2.820 -0.2151 -0.1445 -0.2334
   84SOPE   O11 7736   1.768   0.347   2.960  0.1134 -0.2839 -0.5043
   84SOPE    C1 7737   1.732   0.374   3.096 -0.1470  0.0206 -0.2153
   84SOPE    HA 7738   1.726   0.481   3.126 -2.9698 -0.2534  0.5090
   84SOPE    HB 7739   1.818   0.325   3.146  0.9495  1.2445 -0.8370
   84SOPE    C2 7740   1.598   0.310   3.143 -0.5145 -0.3845  0.4128
   84SOPE    HS 7741   1.509   0.375   3.125 -0.2344 -0.5874 -1.8905
   84SOPE   O21 7742   1.619   0.292   3.282  0.7028  0.4770  0.0441
   84SOPE   C21 7743   1.558   0.379   3.362 -0.3556 -0.2872  0.7604
   84SOPE   O22 7744   1.495   0.479   3.327 -0.6794  0.5580  0.4814
   84SOPE   C22 7745   1.587   0.345   3.500  0.7457 -0.4964  0.1134
   84SOPE   H2R 7746   1.694   0.375   3.509  0.1362  1.8852  0.0594
   84SOPE   H2S 7747   1.585   0.235   3.517  0.7466 -1.2026 -3.5774
   84SOPE    C3 7748   1.563   0.177   3.089  0.5980 -0.2958  0.1979
   84SOPE    HX 7749   1.638   0.103   3.124  1.1140 -1.5513 -3.2409
   84SOPE    HY 7750   1.580   0.181   2.979 -0.6357 -3.3550 -0.1930
   84SOPE   O31 7751   1.432   0.129   3.122  0.8668  0.1692  0.2395
   84SOPE   C31 7752   1.401   0.004   3.073  0.2053 -0.3212  0.1944
   84SOPE   O32 7753   1.465  -0.059   2.989 -0.3130  0.1771 -0.3298
   84SOPE   C32 7754   1.266  -0.040   3.129  0.2264  0.0732 -0.3676
   84SOPE   H2X 7755   1.241  -0.140   3.088  1.2689 -1.6785  2.9185
   84SOPE   H2Y 7756   1.185   0.023   3.086 -0.5511 -0.2341  0.6138
   84SOPE   C23 7757   1.500   0.423   3.593  0.2491 -0.0636 -0.3817
   84SOPE   H3R 7758   1.427   0.352   3.637  1.6739 -1.3552 -0.0358
   84SOPE   H3S 7759   1.443   0.506   3.544  2.4117  1.7914  0.0680
   84SOPE   C24 7760   1.592   0.473   3.709 -0.5878 -0.1241  0.3310
   84SOPE   H4R 7761   1.674   0.537   3.669  1.6198 -2.3139  1.0910
   84SOPE   H4S 7762   1.532   0.531   3.782 -1.8388  1.3122 -1.7308
   84SOPE   C25 7763   1.650   0.363   3.796  0.3748 -0.1999 -0.2137
   84SOPE   H5R 7764   1.580   0.284   3.832  0.1248  0.6014  1.1428
   84SOPE   H5S 7765   1.738   0.316   3.747  1.1554 -0.7666  1.6507
   84SOPE   C26 7766   1.711   0.422   3.924 -0.4682 -0.5483  0.0092
   84SOPE   H6R 7767   1.635   0.465   3.992  0.6009  1.8927 -0.2479
   84SOPE   H6S 7768   1.758   0.341   3.984 -0.4595 -2.4185 -2.3462
   84SOPE   C27 7769   1.821   0.531   3.906  0.2897 -0.0851  0.1534
   84SOPE   H7R 7770   1.894   0.507   3.825 -0.0322  0.3340 -0.2656
   84SOPE   H7S 7771   1.797   0.636   3.880  1.2185 -0.1120 -0.9305
   84SOPE   C28 7772   1.915   0.551   4.021 -0.2300  0.6195 -0.4063
   84SOPE   H8R 7773   1.854   0.595   4.103 -0.4963  0.2970 -0.4326
   84SOPE   H8S 7774   1.936   0.449   4.057  0.1593  0.7631 -0.2242
   84SOPE   C29 7775   2.038   0.631   3.993  0.2906  0.4054  0.3117
   84SOPE   H91 7776   2.024   0.718   3.927  1.9494  1.0116  0.6887
   84SOPE  C210 7777   2.142   0.625   4.076 -0.0501 -0.2143 -0.2240
   84SOPE  H101 7778   2.223   0.695   4.053 -0.2070  0.3566  0.9000
   84SOPE  C211 7779   2.166   0.535   4.192  0.7707  0.3162 -0.0358
   84SOPE  H11R 7780   2.227   0.450   4.156  0.1038 -0.1786 -0.0285
   84SOPE  H11S 7781   2.070   0.503   4.239  1.3896 -0.8330  0.4986
   84SOPE  C212 7782   2.243   0.597   4.304 -0.1236 -0.5292  0.2488
   84SOPE  H12R 7783   2.184   0.663   4.371 -0.3353  0.0746 -0.5175
   84SOPE  H12S 7784   2.331   0.653   4.267  1.1149 -1.9404  0.9718
   84SOPE  C213 7785   2.316   0.498   4.392 -0.8061  0.7287 -0.1221
   84SOPE  H13R 7786   2.371   0.435   4.320 -0.5812  1.5875 -0.7073
   84SOPE  H13S 7787   2.242   0.432   4.443 -1.7767  1.1219 -0.9745
   84SOPE  C214 7788   2.412   0.554   4.496  0.0823  0.8245 -0.4050
   84SOPE  H14R 7789   2.490   0.623   4.456  1.8544  0.3824  2.0193
   84SOPE  H14S 7790   2.472   0.472   4.542 -2.5980 -0.9985  0.0700
   84SOPE  C215 7791   2.342   0.612   4.618  0.2150  0.2114  0.0969
   84SOPE  H15R 7792   2.259   0.684   4.599 -0.9429 -0.8467  0.9231
   84SOPE  H15S 7793   2.417   0.675   4.670 -1.1220  1.4597  0.5828
   84SOPE  C216 7794   2.286   0.505   4.720 -0.1455  0.0515 -0.7201
   84SOPE  H16R 7795   2.377   0.461   4.764 -0.8452  0.1161  0.8585
   84SOPE  H16S 7796   2.235   0.423   4.664  0.4487 -1.5629  1.0379
   84SOPE  C217 7797   2.191   0.544   4.829 -0.1367  0.7821 -0.0032
   84SOPE  H17R 7798   2.096   0.570   4.776 -0.7915 -2.4650 -0.6266
   84SOPE  H17S 7799   2.226   0.633   4.886 -0.9541  1.9393 -1.2300
   84SOPE  C218 7800   2.161   0.425   4.927  0.0700 -0.7668  0.2327
   84SOPE  H18R 7801   2.252   0.390   4.980 -0.2329 -0.3404  1.0388
   84SOPE  H18S 7802   2.122   0.338   4.869  0.2880 -0.1454 -0.8720
   84SOPE  H18T 7803   2.080   0.447   5.000 -0.5800 -0.9573 -0.4158
   84SOPE   C33 7804   1.263  -0.048   3.290  0.2131 -0.6471 -0.6829
   84SOPE   H3X 7805   1.303   0.053   3.313 -2.6457  1.1519 -2.8421
   84SOPE   H3Y 7806   1.340  -0.123   3.317  2.1649  1.1396 -1.0435
   84SOPE   C34 7807   1.134  -0.088   3.361 -0.2567 -0.2159  0.6094
   84SOPE   H4X 7808   1.110  -0.189   3.322  2.5148 -1.1229  1.0571
   84SOPE   H4Y 7809   1.049  -0.016   3.357  0.2706  0.3498 -1.4494
   84SOPE   C35 7810   1.176  -0.105   3.512  0.4512 -0.0746  0.0366
   84SOPE   H5X 7811   1.261  -0.171   3.541 -1.6594 -3.1927 -0.3128
   84SOPE   H5Y 7812   1.086  -0.159   3.551  1.0549 -0.7749  0.4885
   84SOPE   C36 7813   1.198   0.030   3.586 -0.4638  0.6800  0.3287
   84SOPE   H6X 7814   1.150   0.109   3.523  2.9546  3.3570  0.7932
   84SOPE   H6Y 7815   1.304   0.058   3.606 -1.2929  3.3287  1.5570
   84SOPE   C37 7816   1.126   0.029   3.718 -0.7399 -0.1943 -0.5566
   84SOPE   H7X 7817   1.036  -0.036   3.718  0.4364 -1.9232 -1.2900
   84SOPE   H7Y 7818   1.107   0.134   3.748 -0.2156 -0.2977  0.1698
   84SOPE   C38 7819   1.204  -0.036   3.831 -0.5849 -0.2764  0.1488
   84SOPE   H8X 7820   1.309  -0.002   3.839 -1.2108  1.3333  2.8166
   84SOPE   H8Y 7821   1.203  -0.147   3.820 -2.5890 -0.2550 -0.4159
   84SOPE   C39 7822   1.151   0.010   3.968  1.1724 -0.3176 -0.3150
   84SOPE   H9X 7823   1.042  -0.008   3.976  0.7363  0.5140 -3.2008
   84SOPE   H9Y 7824   1.159   0.120   3.980  0.5396 -0.5084  3.0284
   84SOPE  C310 7825   1.229  -0.053   4.080 -0.1234  0.2669 -0.3279
   84SOPE  H10X 7826   1.321   0.005   4.102 -1.4993  2.0664  0.9209
   84SOPE  H10Y 7827   1.267  -0.158   4.074 -0.7555 -0.1085  1.5314
   84SOPE  C311 7828   1.144  -0.043   4.213  0.0307 -0.1973 -0.6723
   84SOPE  H11X 7829   1.182  -0.112   4.291  0.1113  0.7541  0.1487
   84SOPE  H11Y 7830   1.036  -0.061   4.191 -0.5128  0.0885  1.5127
   84SOPE  C312 7831   1.172   0.098   4.263 -0.2118  0.6204 -0.6930
   84SOPE  H12X 7832   1.102   0.160   4.203 -1.7313 -0.3731 -0.0113
   84SOPE  H12Y 7833   1.277   0.134   4.251 -0.3518  1.0679 -0.6034
   84SOPE  C313 7834   1.144   0.112   4.409 -0.1794 -0.2512 -0.4687
   84SOPE  H13X 7835   1.185   0.015   4.445 -3.4238 -1.5308  0.0955
   84SOPE  H13Y 7836   1.036   0.097   4.429 -0.6162  1.1631 -1.6033
   84SOPE  C314 7837   1.198   0.234   4.480  0.1995  0.2214 -0.1817
   84SOPE  H14X 7838   1.267   0.292   4.414 -1.1213 -1.2645 -3.0729
   84SOPE  H14Y 7839   1.258   0.196   4.565 -0.3567 -2.9555 -1.1036
   84SOPE  C315 7840   1.085   0.339   4.522 -0.0997  0.0599  1.2625
   84SOPE  H15X 7841   1.032   0.349   4.425  1.8430 -2.8311 -0.2571
   84SOPE  H15Y 7842   1.124   0.440   4.549 -3.5456  2.1307 -0.7401
   84SOPE  C316 7843   0.990   0.289   4.635 -0.8961 -0.5485  1.3282
   84SOPE  H16X 7844   1.042   0.279   4.732 -1.7534 -0.0856  1.8509
   84SOPE  H16Y 7845   0.957   0.188   4.605 -1.0729 -0.3201  0.7412
   84SOPE  C317 7846   0.867   0.379   4.656 -0.2536  0.0810  0.9917
   84SOPE  H17X 7847   0.814   0.374   4.559  0.7016 -0.7489  0.5032
   84SOPE  H17Y 7848   0.899   0.485   4.665  0.3237 -0.0071  0.0726
   84SOPE  C318 7849   0.767   0.333   4.759 -0.3224 -0.3705 -0.1110
   84SOPE  H18X 7850   0.700   0.416   4.790 -0.2853 -0.2435 -0.3716
   84SOPE  H18Y 7851   0.819   0.315   4.856 -1.4066  0.3281  0.6285
   84SOPE  H18Z 7852   0.713   0.237   4.744  2.0517 -1.7415 -0.4342
   85SOPE     N 7853   2.885   2.020   2.641  0.2248  0.1822 -0.1060
   85SOPE   HN1 7854   2.793   1.978   2.664  0.7892 -0.5747  0.8469
   85SOPE   HN2 7855   2.884   2.084   2.559 -1.2324  0.4984  0.1479
   85SOPE   HN3 7856   2.945   1.942   2.606  0.2962  0.1169  0.1633
   85SOPE   C12 7857   2.964   2.078   2.753  0.4230 -0.5718 -0.1165
   85SOPE  H12A 7858   2.924   2.176   2.786  0.8900 -0.2423 -0.5109
   85SOPE  H12B 7859   3.062   2.110   2.711 -0.6637  0.9506 -1.6449
   85SOPE   C11 7860   2.960   1.978   2.875 -0.9243 -0.2092 -0.2765
   85SOPE  H11A 7861   2.858   1.985   2.919  0.2772  1.1821  2.5607
   85SOPE  H11B 7862   3.033   2.024   2.944 -1.5636 -1.2175  1.1047
   85SOPE     P 7863   3.140   1.791   2.849  0.4635  0.1490  0.3693
   85SOPE   O13 7864   3.201   1.838   2.721 -0.2849  0.2596 -0.2963
   85SOPE   O14 7865   3.127   1.646   2.863 -0.4672 -0.2263 -0.5264
   85SOPE   O12 7866   3.002   1.848   2.839  0.3298 -0.1009  0.7938
   85SOPE   O11 7867   3.200   1.849   2.988  0.1777 -0.5210  0.3499
   85SOPE    C1 7868   3.148   1.817   3.113 -0.1721  0.1533 -0.7472
   85SOPE    HA 7869   3.112   1.712   3.120  1.5351 -0.3719  1.5778
   85SOPE    HB 7870   3.073   1.892   3.146  1.9202  1.9664  0.2076
   85SOPE    C2 7871   3.255   1.817   3.224 -0.0016 -0.0765 -0.9265
   85SOPE    HS 7872   3.206   1.778   3.316  0.4117  1.2308 -0.1314
   85SOPE   O21 7873   3.310   1.949   3.243 -0.2721  0.7854  0.4037
   85SOPE   C21 7874   3.248   2.017   3.336  0.1660 -0.2442 -0.0125
   85SOPE   O22 7875   3.167   1.972   3.417 -0.5450 -0.4454 -0.6881
   85SOPE   C22 7876   3.309   2.161   3.345  0.2016  0.9959 -0.4212
   85SOPE   H2R 7877   3.258   2.226   3.271 -2.4677 -0.9306 -0.4141
   85SOPE   H2S 7878   3.416   2.151   3.318  0.5027 -4.6573  1.5039
   85SOPE    C3 7879   3.360   1.711   3.182  0.0953 -0.3544 -0.5560
   85SOPE    HX 7880   3.419   1.747   3.095 -0.0397 -1.1440 -0.9793
   85SOPE    HY 7881   3.309   1.616   3.157  2.1228 -1.7469  0.2821
   85SOPE   O31 7882   3.450   1.685   3.296  0.1210  0.1992 -0.4238
   85SOPE   C31 7883   3.564   1.750   3.292 -0.0899 -0.0450  0.0050
   85SOPE   O32 7884   3.600   1.842   3.217  0.4501  0.0931  0.1896
   85SOPE   C32 7885   3.645   1.708   3.413 -0.8498 -0.0137  0.2723
   85SOPE   H2X 7886   3.728   1.782   3.417 -1.3264  0.6983 -1.8310
   85SOPE   H2Y 7887   3.702   1.615   3.392 -0.6800  0.5081 -1.8235
   85SOPE   C23 7888   3.295   2.221   3.495  0.5222 -0.8632  0.5913
   85SOPE   H3R 7889   3.357   2.166   3.569 -2.1860 -1.5558  2.4789
   85SOPE   H3S 7890   3.190   2.217   3.530 -0.1340 -0.9790 -1.3017
   85SOPE   C24 7891   3.326   2.377   3.503  0.5587 -0.1780  0.1142
   85SOPE   H4R 7892   3.426   2.389   3.458  0.2159 -0.5790 -0.7814
   85SOPE   H4S 7893   3.259   2.433   3.435  0.1008 -1.5346 -0.5843
   85SOPE   C25 7894   3.322   2.437   3.649 -0.3400  0.0196 -0.0045
   85SOPE   H5R 7895   3.261   2.378   3.720 -0.8766  1.6832  0.9660
   85SOPE   H5S 7896   3.420   2.452   3.701 -1.1462 -1.1409  1.9482
   85SOPE   C26 7897   3.250   2.564   3.646 -0.0715 -0.0639  0.0175
   85SOPE   H6R 7898   3.292   2.636   3.572 -2.1596  2.3830  1.0683
   85SOPE   H6S 7899   3.146   2.555   3.609 -0.2363  0.3922  0.3641
   85SOPE   C27 7900   3.248   2.633   3.787 -0.1099  1.6067  0.2180
   85SOPE   H7R 7901   3.190   2.558   3.846  2.9972 -1.5668 -0.3707
   85SOPE   H7S 7902   3.352   2.628   3.826 -0.9036  0.3036  2.3496
   85SOPE   C28 7903   3.193   2.772   3.786  0.6919 -0.4150  0.3591
   85SOPE   H8R 7904   3.263   2.841   3.735 -0.6088 -2.0705 -4.1280
   85SOPE   H8S 7905   3.106   2.771   3.717  0.7705 -1.8206  0.2698
   85SOPE   C29 7906   3.152   2.823   3.921  0.4427  0.4373 -0.5864
   85SOPE   H91 7907   3.231   2.805   3.996  1.0591 -2.0159 -1.7326
   85SOPE  C210 7908   3.028   2.860   3.961  0.7591 -0.0181 -0.4800
   85SOPE  H101 7909   3.013   2.884   4.067  1.2923 -1.5754 -0.0157
   85SOPE  C211 7910   2.905   2.882   3.879  0.0753 -0.3927 -0.2468
   85SOPE  H11R 7911   2.821   2.822   3.922  0.1141  0.3376  0.9103
   85SOPE  H11S 7912   2.913   2.851   3.773 -4.0444  1.5006 -1.3423
   85SOPE  C212 7913   2.853   3.021   3.886  0.6505 -0.0427  0.7313
   85SOPE  H12R 7914   2.940   3.082   3.852  0.7131 -1.4659 -1.9468
   85SOPE  H12S 7915   2.833   3.058   3.989 -0.2197  0.9830  0.2185
   85SOPE  C213 7916   2.721   3.048   3.812  0.3868  0.3943  0.0468
   85SOPE  H13R 7917   2.685   3.149   3.839 -3.0942 -0.2760 -1.5885
   85SOPE  H13S 7918   2.656   2.973   3.862  2.3842 -0.7307  1.1032
   85SOPE  C214 7919   2.721   3.029   3.663  0.5210  0.0320  0.2232
   85SOPE  H14R 7920   2.772   2.935   3.631 -1.7169 -1.0742 -0.3110
   85SOPE  H14S 7921   2.782   3.115   3.628  0.7511 -1.4622 -3.5052
   85SOPE  C215 7922   2.584   3.037   3.597  0.9084 -0.0837  0.4061
   85SOPE  H15R 7923   2.524   3.122   3.636  0.1011 -0.8843  0.9544
   85SOPE  H15S 7924   2.527   2.947   3.630 -0.6551  0.4018 -0.8621
   85SOPE  C216 7925   2.585   3.048   3.441 -0.2035 -0.5758 -0.0266
   85SOPE  H16R 7926   2.668   2.982   3.409 -0.7643 -1.5992  0.5841
   85SOPE  H16S 7927   2.602   3.153   3.406  1.3849 -0.5946  0.5808
   85SOPE  C217 7928   2.453   3.021   3.373 -0.2268  0.3777  0.1311
   85SOPE  H17R 7929   2.385   3.109   3.383 -0.9736  0.3262 -3.2813
   85SOPE  H17S 7930   2.409   2.927   3.411 -0.8736  0.4500 -0.4159
   85SOPE  C218 7931   2.465   3.001   3.220 -0.3053 -0.3195 -0.0205
   85SOPE  H18R 7932   2.504   3.095   3.176  1.6854  0.3541  2.8808
   85SOPE  H18S 7933   2.371   2.959   3.177 -0.1703 -1.4932  0.7822
   85SOPE  H18T 7934   2.536   2.920   3.193 -0.8415 -0.9371  0.4103
   85SOPE   C33 7935   3.578   1.704   3.555 -0.5554  0.2928  0.4961
   85SOPE   H3X 7936   3.521   1.609   3.555  3.6186 -2.4749  0.5524
   85SOPE   H3Y 7937   3.527   1.796   3.590 -2.5224 -1.4899  2.6256
   85SOPE   C34 7938   3.700   1.673   3.654 -0.2894 -0.0391  0.2588
   85SOPE   H4X 7939   3.771   1.758   3.644 -0.5794  0.0275 -1.6088
   85SOPE   H4Y 7940   3.757   1.579   3.635 -0.2999 -0.2531  1.2503
   85SOPE   C35 7941   3.636   1.674   3.794 -0.4379 -0.5231  0.1106
   85SOPE   H5X 7942   3.561   1.593   3.803 -0.5931 -0.7214 -2.3001
   85SOPE   H5Y 7943   3.591   1.773   3.819  2.2581  0.8225 -0.0103
   85SOPE   C36 7944   3.741   1.638   3.902 -0.4147  0.3863 -0.2681
   85SOPE   H6X 7945   3.815   1.720   3.897 -0.8049  0.8592  1.3214
   85SOPE   H6Y 7946   3.802   1.549   3.876  0.3591  0.8409 -0.0292
   85SOPE   C37 7947   3.687   1.633   4.037 -0.0733 -0.2848  0.3093
   85SOPE   H7X 7948   3.769   1.631   4.112 -2.6420 -1.0799  3.3108
   85SOPE   H7Y 7949   3.625   1.543   4.055  0.9859 -1.4638 -1.7220
   85SOPE   C38 7950   3.608   1.754   4.077 -0.3230  0.0686 -0.3994
   85SOPE   H8X 7951   3.575   1.738   4.182 -0.2842 -0.7742 -0.5090
   85SOPE   H8Y 7952   3.518   1.769   4.013 -1.2866 -1.4783  0.5486
   85SOPE   C39 7953   3.693   1.875   4.084 -0.3386  0.3281  0.4650
   85SOPE   H9X 7954   3.631   1.961   4.117 -1.0608  1.1100 -2.6393
   85SOPE   H9Y 7955   3.719   1.902   3.980  0.8122 -0.5492  0.4978
   85SOPE  C310 7956   3.820   1.868   4.171  0.9158 -0.0701  0.2198
   85SOPE  H10X 7957   3.864   1.970   4.175  1.8180 -0.4783  2.4749
   85SOPE  H10Y 7958   3.885   1.797   4.116  1.2332  0.7640 -0.4888
   85SOPE  C311 7959   3.794   1.817   4.324  0.2424 -0.3993 -0.2104
   85SOPE  H11X 7960   3.889   1.797   4.378 -1.3193 -3.2269  1.7455
   85SOPE  H11Y 7961   3.762   1.710   4.330  0.6714 -0.4573  1.6483
   85SOPE  C312 7962   3.698   1.914   4.402 -0.3825  0.4408  0.1909
   85SOPE  H12X 7963   3.598   1.885   4.363 -0.6933 -0.2534  1.4339
   85SOPE  H12Y 7964   3.715   2.022   4.384 -0.7769  0.4917  0.1234
   85SOPE  C313 7965   3.697   1.891   4.546 -0.1056  0.3435 -0.2508
   85SOPE  H13X 7966   3.799   1.908   4.586  1.1347 -4.0520 -0.9913
   85SOPE  H13Y 7967   3.680   1.784   4.571  1.5421  0.4278  1.4975
   85SOPE  C314 7968   3.581   1.969   4.616  0.0348 -0.1839 -0.2321
   85SOPE  H14X 7969   3.490   1.906   4.606  0.4303 -1.0892  1.4568
   85SOPE  H14Y 7970   3.558   2.063   4.561 -1.7466  0.6573  1.8194
   85SOPE  C315 7971   3.606   2.004   4.757  0.1282  0.5154 -0.5320
   85SOPE  H15X 7972   3.631   1.913   4.814 -2.5417  0.7011  1.1089
   85SOPE  H15Y 7973   3.515   2.049   4.802  1.4211  0.3304  2.4539
   85SOPE  C316 7974   3.726   2.096   4.779 -0.2052 -0.4155  0.8954
   85SOPE  H16X 7975   3.776   2.121   4.683  2.7544 -1.2639  2.1009
   85SOPE  H16Y 7976   3.812   2.053   4.836  2.8266  1.4038 -1.9333
   85SOPE  C317 7977   3.683   2.236   4.836  0.3939 -0.2403 -0.3257
   85SOPE  H17X 7978   3.616   2.218   4.923  0.9136 -1.7436 -0.2095
   85SOPE  H17Y 7979   3.626   2.285   4.754 -0.0455  1.2652  0.8447
   85SOPE  C318 7980   3.808   2.311   4.870 -0.0366 -0.2215 -0.6674
   85SOPE  H18X 7981   3.885   2.296   4.792  1.4762  2.6441  0.1527
   85SOPE  H18Y 7982   3.858   2.266   4.958 -0.4479 -0.6625 -0.6533
   85SOPE  H18Z 7983   3.781   2.418   4.880 -1.2480 -0.4766 -0.9630
   86SOPE     N 7984   4.545   5.516   2.892  0.0067  0.2081 -0.2470
   86SOPE   HN1 7985   4.621   5.503   2.962 -0.8503 -2.6429  0.3015
   86SOPE   HN2 7986   4.469   5.563   2.945  2.2453  0.2966  3.1609
   86SOPE   HN3 7987   4.513   5.426   2.852 -0.9225  1.1067 -1.6071
   86SOPE   C12 7988   4.599   5.606   2.781  0.0431 -0.0691 -1.1598
   86SOPE  H12A 7989   4.654   5.684   2.840 -0.2550 -0.7133  0.0096
   86SOPE  H12B 7990   4.507   5.652   2.740 -0.2062 -1.8380 -2.6889
   86SOPE   C11 7991   4.672   5.525   2.677  0.4253 -0.0957  0.0914
   86SOPE  H11A 7992   4.755   5.474   2.730  1.2277  0.1435 -0.9094
   86SOPE  H11B 7993   4.726   5.590   2.605 -1.4796  1.2554 -0.1885
   86SOPE     P 7994   4.586   5.275   2.648  0.0653  0.1662  0.1763
   86SOPE   O13 7995   4.559   5.203   2.527  0.1073 -0.4899  0.0028
   86SOPE   O14 7996   4.485   5.252   2.757 -0.1842 -0.2204  0.2098
   86SOPE   O12 7997   4.589   5.429   2.614 -0.1077 -0.1157  0.2573
   86SOPE   O11 7998   4.732   5.243   2.694  0.0096 -0.1553  0.1339
   86SOPE    C1 7999   4.756   5.110   2.738  0.0087 -0.2599  0.9561
   86SOPE    HA 8000   4.850   5.091   2.682 -1.4610 -1.8233 -1.1195
   86SOPE    HB 8001   4.687   5.037   2.691 -0.2805 -0.3194  1.4677
   86SOPE    C2 8002   4.777   5.094   2.889 -0.2203  0.3188 -0.7203
   86SOPE    HS 8003   4.803   4.989   2.914 -0.2125  0.7245  1.1043
   86SOPE   O21 8004   4.669   5.151   2.965 -0.1070 -0.3225 -0.1771
   86SOPE   C21 8005   4.582   5.065   3.032 -1.1359  0.5585  0.5102
   86SOPE   O22 8006   4.596   4.945   3.046 -0.5861  0.3139  0.2872
   86SOPE   C22 8007   4.486   5.153   3.101 -0.1886  0.2935 -0.3246
   86SOPE   H2R 8008   4.399   5.084   3.106  1.3159 -1.6233  1.2891
   86SOPE   H2S 8009   4.457   5.237   3.034 -0.8504 -0.4037 -0.9406
   86SOPE    C3 8010   4.910   5.168   2.933 -0.3325 -0.3912 -1.0791
   86SOPE    HX 8011   4.905   5.268   2.886 -1.1079  0.1696  0.1440
   86SOPE    HY 8012   5.004   5.124   2.891  1.6678  0.6379  1.9468
   86SOPE   O31 8013   4.931   5.189   3.076 -0.2301  0.3808 -0.5782
   86SOPE   C31 8014   4.928   5.079   3.152  0.0186 -0.2892 -0.5121
   86SOPE   O32 8015   4.935   4.963   3.108  0.5766 -0.0601  0.2328
   86SOPE   C32 8016   4.916   5.110   3.299 -0.0345 -0.0350  1.0874
   86SOPE   H2X 8017   4.810   5.129   3.326  0.2145 -1.3669  3.2998
   86SOPE   H2Y 8018   4.977   5.197   3.332 -1.5243  0.5139  2.5717
   86SOPE   C23 8019   4.519   5.200   3.245  0.2118  0.0154 -0.6633
   86SOPE   H3R 8020   4.622   5.243   3.243  0.9428 -1.6757 -1.0647
   86SOPE   H3S 8021   4.522   5.120   3.322 -0.4190  0.2543 -0.3865
   86SOPE   C24 8022   4.430   5.312   3.297  0.0172  0.3110  0.0032
   86SOPE   H4R 8023   4.411   5.380   3.211 -0.6026  1.1845  0.7981
   86SOPE   H4S 8024   4.337   5.273   3.342 -0.7280  0.5715 -1.2612
   86SOPE   C25 8025   4.490   5.403   3.402 -0.6890  0.7812 -0.6599
   86SOPE   H5R 8026   4.568   5.472   3.364 -0.8068  1.7934  0.8366
   86SOPE   H5S 8027   4.406   5.458   3.450  0.0411 -0.4021  2.1461
   86SOPE   C26 8028   4.563   5.309   3.508  0.3254 -0.5228 -0.0841
   86SOPE   H6R 8029   4.498   5.224   3.539  1.7007 -0.9417  1.8041
   86SOPE   H6S 8030   4.655   5.260   3.470  1.0812  0.2628  0.6731
   86SOPE   C27 8031   4.597   5.388   3.636  0.2472  0.0794  0.8571
   86SOPE   H7R 8032   4.648   5.482   3.606  2.3072 -1.3145 -0.1906
   86SOPE   H7S 8033   4.500   5.425   3.674 -0.5830  0.0385 -1.1183
   86SOPE   C28 8034   4.674   5.316   3.747 -0.8970 -0.5433  0.2700
   86SOPE   H8R 8035   4.623   5.221   3.776 -1.4171 -0.1869  0.5540
   86SOPE   H8S 8036   4.775   5.299   3.705 -0.7714 -0.5473  0.5701
   86SOPE   C29 8037   4.693   5.393   3.873  0.1784 -0.1162  0.0882
   86SOPE   H91 8038   4.779   5.457   3.897  0.0272 -1.0674  3.7930
   86SOPE  C210 8039   4.604   5.395   3.976 -0.0007 -0.1018 -0.2899
   86SOPE  H101 8040   4.642   5.454   4.061  1.1027  1.5968 -1.8832
   86SOPE  C211 8041   4.465   5.353   3.984  0.0948 -0.0534 -0.1659
   86SOPE  H11R 8042   4.425   5.368   3.882  0.0742  1.9271  0.0920
   86SOPE  H11S 8043   4.412   5.421   4.054  1.4695  1.2905 -0.3729
   86SOPE  C212 8044   4.444   5.206   4.009  0.5266  0.6454 -0.1023
   86SOPE  H12R 8045   4.477   5.140   3.926  0.6102 -0.0943  0.4987
   86SOPE  H12S 8046   4.334   5.201   4.022  0.4621  1.7604 -0.1623
   86SOPE  C213 8047   4.505   5.159   4.143 -0.1517 -0.3556 -0.2412
   86SOPE  H13R 8048   4.613   5.173   4.125 -0.4664  2.2699 -0.3927
   86SOPE  H13S 8049   4.479   5.052   4.163 -1.0301 -0.1989 -0.4875
   86SOPE  C214 8050   4.471   5.240   4.276 -0.4434 -0.0345  0.6261
   86SOPE  H14R 8051   4.367   5.221   4.308 -0.3386  0.2188  1.1359
   86SOPE  H14S 8052   4.481   5.349   4.256  0.7232  0.4822  3.4749
   86SOPE  C215 8053   4.556   5.196   4.404  0.2192 -0.4473  0.2554
   86SOPE  H15R 8054   4.665   5.203   4.385  0.4599 -1.3443  1.2208
   86SOPE  H15S 8055   4.537   5.088   4.422 -1.2616  0.0653  1.9396
   86SOPE  C216 8056   4.509   5.283   4.525  0.1476  1.1977  0.3134
   86SOPE  H16R 8057   4.405   5.258   4.553 -0.1657  0.6109 -1.2507
   86SOPE  H16S 8058   4.515   5.391   4.501  0.3290  0.7464 -1.8651
   86SOPE  C217 8059   4.593   5.253   4.646  0.4685  0.6867  0.6854
   86SOPE  H17R 8060   4.540   5.312   4.724 -1.8824 -0.2633 -0.0868
   86SOPE  H17S 8061   4.696   5.286   4.624  0.6427 -0.9783 -1.2414
   86SOPE  C218 8062   4.597   5.117   4.696 -0.7827 -0.7570  0.6612
   86SOPE  H18R 8063   4.498   5.069   4.711 -1.4546  0.5670  0.5788
   86SOPE  H18S 8064   4.662   5.122   4.786  0.8797  0.9364 -0.5532
   86SOPE  H18T 8065   4.644   5.043   4.628  2.2650  1.3033  0.3300
   86SOPE   C33 8066   4.968   5.002   3.396  0.3597  0.5606 -0.3352
   86SOPE   H3X 8067   5.068   4.960   3.371  0.0544 -1.8605  1.9794
   86SOPE   H3Y 8068   4.895   4.918   3.394  0.2116  0.6511  0.7471
   86SOPE   C34 8069   4.991   5.060   3.544  0.1809 -0.2275  0.6723
   86SOPE   H4X 8070   4.909   5.132   3.563  1.2290  0.9536  0.8483
   86SOPE   H4Y 8071   5.091   5.110   3.544  0.0073  0.3067  3.5934
   86SOPE   C35 8072   5.012   4.955   3.650 -0.5517  0.8069 -0.7338
   86SOPE   H5X 8073   5.091   4.887   3.613 -3.8870 -4.1237  0.1605
   86SOPE   H5Y 8074   4.921   4.891   3.656  1.7367 -2.6828 -0.2370
   86SOPE   C36 8075   5.046   5.007   3.792  0.0446  0.7965 -0.1468
   86SOPE   H6X 8076   5.131   5.078   3.783  1.4382 -0.5864  1.5747
   86SOPE   H6Y 8077   5.089   4.917   3.841 -0.7613  0.1714 -0.5560
   86SOPE   C37 8078   4.920   5.062   3.867  0.3877 -0.0616 -0.2592
   86SOPE   H7X 8079   4.866   4.971   3.899 -0.8074 -0.6944 -3.6167
   86SOPE   H7Y 8080   4.844   5.112   3.803 -0.3064  1.5135  1.6758
   86SOPE   C38 8081   4.940   5.140   3.994 -0.0535  0.0803  0.5374
   86SOPE   H8X 8082   4.842   5.186   4.018 -0.5075  0.2454 -1.4060
   86SOPE   H8Y 8083   5.006   5.226   3.972 -1.0397  1.3851  2.4644
   86SOPE   C39 8084   4.991   5.060   4.112 -0.2444  0.1121  0.1927
   86SOPE   H9X 8085   5.095   5.030   4.085 -0.1857  2.5105 -2.8125
   86SOPE   H9Y 8086   4.940   4.962   4.123 -3.3513  1.2936 -2.3542
   86SOPE  C310 8087   4.994   5.134   4.237 -0.0479 -0.7982  0.2628
   86SOPE  H10X 8088   4.897   5.188   4.247 -0.9511 -1.7704 -2.3353
   86SOPE  H10Y 8089   5.082   5.200   4.247 -1.9253  1.6720  1.6027
   86SOPE  C311 8090   4.994   5.047   4.368  0.0887  0.3514 -0.1609
   86SOPE  H11X 8091   5.090   4.992   4.357 -0.2586 -0.5313  1.1038
   86SOPE  H11Y 8092   4.911   4.975   4.381 -0.6252  1.0515 -0.6878
   86SOPE  C312 8093   5.007   5.138   4.493 -0.4192 -0.5713  0.3499
   86SOPE  H12X 8094   4.918   5.201   4.513 -0.6151 -1.0606  1.0764
   86SOPE  H12Y 8095   5.095   5.204   4.480 -0.9018  0.2625  1.1987
   86SOPE  C313 8096   5.032   5.059   4.616 -0.5130  0.2340  0.4073
   86SOPE  H13X 8097   5.128   5.004   4.606 -1.5893 -1.5138 -0.9859
   86SOPE  H13Y 8098   4.954   4.981   4.625 -0.0464 -0.4228 -0.9239
   86SOPE  C314 8099   5.040   5.134   4.742 -0.2362 -0.1200 -0.8603
   86SOPE  H14X 8100   4.935   5.153   4.773 -0.0614 -1.2948  0.5732
   86SOPE  H14Y 8101   5.093   5.230   4.727 -3.0068  1.5361 -0.7607
   86SOPE  C315 8102   5.105   5.060   4.855  0.3126 -0.2414 -0.0969
   86SOPE  H15X 8103   5.210   5.031   4.834  0.6645  1.7299 -1.2739
   86SOPE  H15Y 8104   5.055   4.961   4.863  3.0104 -1.7283 -0.5080
   86SOPE  C316 8105   5.114   5.138   4.993  0.4244 -0.5026  0.0097
   86SOPE  H16X 8106   5.017   5.130   5.046  0.3270 -2.8442 -0.4286
   86SOPE  H16Y 8107   5.139   5.246   4.978  0.9121 -1.0078 -3.9381
   86SOPE  C317 8108   5.219   5.079   5.092 -0.2176 -0.3483  0.1525
   86SOPE  H17X 8109   5.203   5.120   5.194 -0.0106 -0.9420  0.4270
   86SOPE  H17Y 8110   5.320   5.112   5.062  0.1509  1.1489  2.6791
   86SOPE  C318 8111   5.195   4.926   5.113 -0.0858 -0.2844  0.2564
   86SOPE  H18X 8112   5.088   4.906   5.136  0.1750 -1.8221  0.2550
   86SOPE  H18Y 8113   5.261   4.890   5.194  0.7982  0.5729 -0.0610
   86SOPE  H18Z 8114   5.211   4.865   5.021 -1.3735 -0.3162  0.0272
   87SOPE     N 8115   6.688   4.407   1.843 -0.1253  0.1999  0.0335
   87SOPE   HN1 8116   6.718   4.319   1.796 -1.5588  0.3643 -1.2816
   87SOPE   HN2 8117   6.658   4.466   1.763  0.1984  0.1743 -0.1074
   87SOPE   HN3 8118   6.771   4.449   1.889 -0.6560  1.0736  0.2153
   87SOPE   C12 8119   6.577   4.387   1.948  0.0791 -0.4335 -1.0073
   87SOPE  H12A 8120   6.480   4.388   1.893 -1.4548 -0.1211  1.5457
   87SOPE  H12B 8121   6.598   4.473   2.014  0.6923 -0.8823 -0.6017
   87SOPE   C11 8122   6.581   4.259   2.028  0.7047 -0.8588 -0.5528
   87SOPE  H11A 8123   6.545   4.183   1.956 -0.1939 -1.4174  0.4420
   87SOPE  H11B 8124   6.510   4.274   2.113  0.6846  0.0819 -0.7297
   87SOPE     P 8125   6.728   4.108   2.158 -0.2087 -0.0016  0.6992
   87SOPE   O13 8126   6.837   4.035   2.095  0.6907 -0.5318 -0.8242
   87SOPE   O14 8127   6.598   4.041   2.178 -0.2027  0.6718  0.1712
   87SOPE   O12 8128   6.711   4.242   2.077 -0.6347 -0.0749  0.5311
   87SOPE   O11 8129   6.785   4.176   2.288  0.2686 -0.5280  0.1767
   87SOPE    C1 8130   6.827   4.096   2.394 -0.4791  0.0946 -0.4715
   87SOPE    HA 8131   6.911   4.154   2.438 -0.0462 -1.8184  1.4158
   87SOPE    HB 8132   6.880   4.002   2.367  1.4254  1.1391 -0.5167
   87SOPE    C2 8133   6.716   4.076   2.505 -0.3341 -0.6747 -0.5725
   87SOPE    HS 8134   6.631   4.028   2.453  0.6629 -2.1246 -0.9485
   87SOPE   O21 8135   6.686   4.208   2.570  0.5906 -0.1724 -0.3058
   87SOPE   C21 8136   6.575   4.227   2.642  0.1093  0.2627  0.2045
   87SOPE   O22 8137   6.475   4.156   2.640 -0.2885 -0.2582  0.3062
   87SOPE   C22 8138   6.570   4.347   2.731  0.1275  0.1141 -0.6170
   87SOPE   H2R 8139   6.578   4.438   2.668  0.9966  0.4622 -0.0088
   87SOPE   H2S 8140   6.662   4.349   2.793  0.2637  1.9428 -0.8458
   87SOPE    C3 8141   6.760   3.973   2.615  0.1192 -0.4942 -0.3085
   87SOPE    HX 8142   6.773   3.884   2.549 -4.7693  0.3734 -2.9252
   87SOPE    HY 8143   6.674   3.957   2.684  1.3662  2.1240  2.0300
   87SOPE   O31 8144   6.877   4.017   2.678 -0.3942 -0.0347 -0.5885
   87SOPE   C31 8145   6.854   4.064   2.802  0.0461  0.0387  0.2366
   87SOPE   O32 8146   6.747   4.103   2.851  0.6723 -0.2172  0.1432
   87SOPE   C32 8147   6.989   4.062   2.888  0.0921 -0.0113  1.1035
   87SOPE   H2X 8148   7.080   4.083   2.828 -0.7616  1.3866  0.2522
   87SOPE   H2Y 8149   7.004   3.952   2.900  0.4343 -0.2408 -1.0837
   87SOPE   C23 8150   6.451   4.359   2.828  0.7031 -0.2139 -0.0719
   87SOPE   H3R 8151   6.353   4.357   2.777  0.2380 -1.5768  0.8357
   87SOPE   H3S 8152   6.463   4.461   2.871  0.0860 -0.1352 -0.0821
   87SOPE   C24 8153   6.456   4.258   2.941  0.1722  0.0535 -0.0715
   87SOPE   H4R 8154   6.353   4.259   2.983 -0.1225  2.5778 -0.6719
   87SOPE   H4S 8155   6.480   4.157   2.901  1.3957  0.3611 -0.1605
   87SOPE   C25 8156   6.561   4.296   3.048 -0.7459 -0.2388  0.3109
   87SOPE   H5R 8157   6.660   4.314   3.001  0.1031 -1.1092  1.7092
   87SOPE   H5S 8158   6.531   4.395   3.089 -0.0248  0.0086  0.2606
   87SOPE   C26 8159   6.577   4.192   3.149 -0.1178  0.3591 -0.6793
   87SOPE   H6R 8160   6.485   4.133   3.166 -0.2280  0.5013 -0.7875
   87SOPE   H6S 8161   6.651   4.112   3.127 -1.4900 -1.3615  0.6445
   87SOPE   C27 8162   6.607   4.250   3.286  0.1681 -0.1139 -0.0484
   87SOPE   H7R 8163   6.698   4.311   3.273  0.2166  0.1881  1.5329
   87SOPE   H7S 8164   6.531   4.315   3.334 -1.7190  0.2734 -3.2703
   87SOPE   C28 8165   6.633   4.137   3.390  1.0879  0.4011  0.5140
   87SOPE   H8R 8166   6.531   4.114   3.427  0.9410  1.6344  0.9369
   87SOPE   H8S 8167   6.678   4.056   3.330 -0.1526  0.4315 -0.5219
   87SOPE   C29 8168   6.733   4.182   3.490 -0.0096 -0.5773  0.1405
   87SOPE   H91 8169   6.813   4.242   3.444 -1.8481  1.6190 -0.3618
   87SOPE  C210 8170   6.729   4.182   3.623  0.2489  0.6559 -0.2133
   87SOPE  H101 8171   6.816   4.225   3.674  0.1351 -0.7438  1.2570
   87SOPE  C211 8172   6.617   4.117   3.707  0.0618  0.5381 -0.0273
   87SOPE  H11R 8173   6.523   4.112   3.649 -0.7341  0.4842  1.2288
   87SOPE  H11S 8174   6.585   4.177   3.795 -1.2875  0.3076 -0.3489
   87SOPE  C212 8175   6.654   3.978   3.766 -0.0221  0.3615 -0.1557
   87SOPE  H12R 8176   6.680   3.912   3.681 -3.1674 -0.6390 -0.4900
   87SOPE  H12S 8177   6.561   3.941   3.815 -0.1861  0.9126 -0.0396
   87SOPE  C213 8178   6.769   3.998   3.868 -0.7883 -0.4522  0.3428
   87SOPE  H13R 8179   6.811   4.100   3.855  3.6024 -2.2639 -2.1743
   87SOPE  H13S 8180   6.863   3.941   3.849 -0.7233 -0.0516 -0.6182
   87SOPE  C214 8181   6.732   3.977   4.014  0.6207 -0.5549  0.2656
   87SOPE  H14R 8182   6.691   3.875   4.032 -1.9892  0.2507 -0.6855
   87SOPE  H14S 8183   6.645   4.041   4.041 -2.2379 -3.8230 -0.3741
   87SOPE  C215 8184   6.855   3.997   4.103  0.6688  0.1979 -0.1355
   87SOPE  H15R 8185   6.913   4.085   4.069  0.4307 -0.1781 -1.5516
   87SOPE  H15S 8186   6.921   3.908   4.093 -3.0847 -2.6927 -1.5706
   87SOPE  C216 8187   6.835   4.042   4.250 -0.1863 -0.4360  0.2578
   87SOPE  H16R 8188   6.935   4.079   4.284  2.0332 -2.8474 -2.9912
   87SOPE  H16S 8189   6.826   3.952   4.314  1.2956 -1.1884 -0.5292
   87SOPE  C217 8190   6.730   4.162   4.254 -0.1093 -0.1598 -0.0096
   87SOPE  H17R 8191   6.630   4.124   4.284 -0.2083  0.6994  0.8217
   87SOPE  H17S 8192   6.723   4.220   4.159 -1.9463  1.1570  0.8471
   87SOPE  C218 8193   6.751   4.273   4.362 -0.9471 -0.3834 -0.8611
   87SOPE  H18R 8194   6.673   4.351   4.361  0.1386  0.7250 -0.9595
   87SOPE  H18S 8195   6.851   4.321   4.352 -1.3244  1.3535  2.5040
   87SOPE  H18T 8196   6.755   4.225   4.462  1.2849 -0.7301 -1.0643
   87SOPE   C33 8197   6.982   4.136   3.022  0.4970 -0.5467  0.1916
   87SOPE   H3X 8198   6.892   4.097   3.074  0.3891 -0.5208  0.0264
   87SOPE   H3Y 8199   6.976   4.245   3.001 -1.1333 -0.6945 -0.2932
   87SOPE   C34 8200   7.098   4.104   3.113  0.8210  0.0486  0.3500
   87SOPE   H4X 8201   7.190   4.122   3.052  0.5371  0.3330 -0.0026
   87SOPE   H4Y 8202   7.092   3.995   3.133 -1.2075 -0.7157 -3.5823
   87SOPE   C35 8203   7.105   4.183   3.249  0.0337  0.3489  0.1549
   87SOPE   H5X 8204   7.003   4.180   3.292  0.9673 -0.4947  2.4934
   87SOPE   H5Y 8205   7.136   4.288   3.228  1.0821  0.1095  0.4516
   87SOPE   C36 8206   7.190   4.112   3.346 -0.3212  0.2970 -0.6283
   87SOPE   H6X 8207   7.295   4.126   3.314  1.0982  0.7108  3.5259
   87SOPE   H6Y 8208   7.168   4.004   3.361 -0.3212  0.5490  1.6208
   87SOPE   C37 8209   7.182   4.165   3.495 -0.8595 -0.6128  0.5728
   87SOPE   H7X 8210   7.099   4.109   3.542 -0.8440 -1.4825 -0.3976
   87SOPE   H7Y 8211   7.158   4.273   3.492 -0.0436 -0.3935  1.5533
   87SOPE   C38 8212   7.300   4.137   3.579 -0.1318 -0.3026 -1.0889
   87SOPE   H8X 8213   7.388   4.198   3.548  0.4592 -0.4855  0.1767
   87SOPE   H8Y 8214   7.338   4.035   3.555 -0.9110 -0.5600 -1.2391
   87SOPE   C39 8215   7.255   4.129   3.730 -0.3416 -0.7234 -0.2870
   87SOPE   H9X 8216   7.167   4.062   3.734 -1.3812  0.5671 -0.7857
   87SOPE   H9Y 8217   7.224   4.223   3.780  2.4906  0.0998  0.1034
   87SOPE  C310 8218   7.368   4.077   3.825 -0.3882 -0.1286 -0.5237
   87SOPE  H10X 8219   7.444   4.158   3.822 -1.2888  0.8512  1.2443
   87SOPE  H10Y 8220   7.415   3.984   3.786  0.3806 -0.3047  0.7577
   87SOPE  C311 8221   7.319   4.049   3.966  0.6214 -0.1110 -0.4174
   87SOPE  H11X 8222   7.395   3.992   4.024  0.5307 -1.1413 -1.2939
   87SOPE  H11Y 8223   7.223   3.993   3.960 -0.4798  1.7555 -1.3087
   87SOPE  C312 8224   7.298   4.181   4.045 -0.3676 -0.3307 -0.1744
   87SOPE  H12X 8225   7.198   4.213   4.007 -0.3066  1.0050  0.7608
   87SOPE  H12Y 8226   7.372   4.259   4.019 -0.2052 -0.7705 -1.1006
   87SOPE  C313 8227   7.280   4.149   4.189  0.2670  0.4784  0.2274
   87SOPE  H13X 8228   7.379   4.136   4.237  0.4213 -0.5421 -0.3325
   87SOPE  H13Y 8229   7.225   4.053   4.202 -1.0122  1.2126  0.4243
   87SOPE  C314 8230   7.192   4.245   4.268 -0.8799 -0.4002  0.6864
   87SOPE  H14X 8231   7.145   4.182   4.347  0.1768 -2.5535 -0.2944
   87SOPE  H14Y 8232   7.105   4.272   4.205 -1.1704 -2.8139 -0.0727
   87SOPE  C315 8233   7.267   4.366   4.340  1.2393  0.1613 -0.4171
   87SOPE  H15X 8234   7.319   4.418   4.256  1.5570  2.0095  0.8691
   87SOPE  H15Y 8235   7.341   4.330   4.414 -0.1849  1.0705  1.5274
   87SOPE  C316 8236   7.180   4.468   4.422  0.4599 -0.2835  0.9168
   87SOPE  H16X 8237   7.121   4.417   4.501  0.0546 -1.7419 -0.2795
   87SOPE  H16Y 8238   7.113   4.526   4.355  0.3147  1.4285  2.4602
   87SOPE  C317 8239   7.270   4.563   4.502 -0.6430 -0.4865  0.7306
   87SOPE  H17X 8240   7.213   4.659   4.499  0.2847  0.0876 -2.6560
   87SOPE  H17Y 8241   7.367   4.575   4.449 -1.1513  0.8192  0.0497
   87SOPE  C318 8242   7.297   4.513   4.645 -0.2183 -0.0037  0.4157
   87SOPE  H18X 8243   7.349   4.416   4.635 -0.5466 -0.1098 -0.2648
   87SOPE  H18Y 8244   7.198   4.506   4.696 -0.1855  0.8263  0.6087
   87SOPE  H18Z 8245   7.371   4.581   4.694  0.0886 -0.9146  1.2567
   88SOPE     N 8246   0.844   4.686   2.649  0.2563  0.0009 -0.6257
   88SOPE   HN1 8247   0.888   4.629   2.575 -0.2481 -1.6361  0.2879
   88SOPE   HN2 8248   0.881   4.654   2.741 -3.1004 -0.5598  0.6895
   88SOPE   HN3 8249   0.742   4.666   2.644  0.4646 -1.8476  1.1095
   88SOPE   C12 8250   0.855   4.834   2.623 -0.3823 -0.6096  0.6166
   88SOPE  H12A 8251   0.788   4.852   2.537 -0.3739 -0.1539  0.6986
   88SOPE  H12B 8252   0.962   4.860   2.604 -0.2984 -0.7119  0.9332
   88SOPE   C11 8253   0.790   4.928   2.733 -0.0929  1.0013 -0.0388
   88SOPE  H11A 8254   0.682   4.903   2.741  0.0148 -0.6015 -2.6806
   88SOPE  H11B 8255   0.790   5.035   2.701  1.5282  1.3020  0.8315
   88SOPE     P 8256   1.006   4.987   2.887  0.0824 -0.2669 -0.1653
   88SOPE   O13 8257   1.105   4.939   2.784 -0.0091  0.5175  0.2486
   88SOPE   O14 8258   1.040   4.958   3.027 -0.0614 -0.7263 -0.2941
   88SOPE   O12 8259   0.869   4.916   2.850 -0.0688 -0.2441 -0.3737
   88SOPE   O11 8260   0.965   5.140   2.867 -0.5515  0.1992 -0.2579
   88SOPE    C1 8261   0.846   5.189   2.929  0.1654 -0.2625 -0.5445
   88SOPE    HA 8262   0.773   5.107   2.947 -0.7065  0.7432  0.6070
   88SOPE    HB 8263   0.818   5.265   2.853  0.2959 -0.5657 -0.9040
   88SOPE    C2 8264   0.872   5.265   3.060 -0.5776 -0.2135  0.1388
   88SOPE    HS 8265   0.884   5.203   3.152 -0.4067  1.6684  1.4471
   88SOPE   O21 8266   0.779   5.368   3.083 -0.1099  0.3197 -1.0611
   88SOPE   C21 8267   0.654   5.317   3.118  0.1716  0.1774 -0.3873
   88SOPE   O22 8268   0.632   5.200   3.137  0.2884  0.3679 -0.1664
   88SOPE   C22 8269   0.557   5.437   3.129  0.5020 -0.0640 -0.4077
   88SOPE   H2R 8270   0.492   5.435   3.039 -0.4987 -0.8099  0.3059
   88SOPE   H2S 8271   0.610   5.535   3.132 -0.9398  0.7823 -1.1422
   88SOPE    C3 8272   1.020   5.332   3.067  0.6891  0.2857 -0.2891
   88SOPE    HX 8273   1.041   5.393   2.977  1.5389  0.1663 -0.1827
   88SOPE    HY 8274   1.095   5.250   3.072  0.9290  0.5615  2.4870
   88SOPE   O31 8275   1.043   5.392   3.194  0.0286  0.0488 -0.5163
   88SOPE   C31 8276   1.014   5.517   3.199  0.7058  0.7100  0.1669
   88SOPE   O32 8277   0.962   5.583   3.115  0.2668 -0.3956  0.0445
   88SOPE   C32 8278   1.073   5.574   3.327  0.0803  0.5381  0.0150
   88SOPE   H2X 8279   1.116   5.671   3.296  0.4626  0.9178  1.6308
   88SOPE   H2Y 8280   1.137   5.497   3.374  0.8310  2.0860  1.6658
   88SOPE   C23 8281   0.479   5.427   3.260  0.1536  0.0205  1.1803
   88SOPE   H3R 8282   0.426   5.330   3.251  1.1938 -0.3968 -1.1636
   88SOPE   H3S 8283   0.392   5.497   3.262  0.0581 -0.1017  1.3410
   88SOPE   C24 8284   0.558   5.430   3.389 -0.0363 -0.5661  0.0158
   88SOPE   H4R 8285   0.632   5.348   3.388 -0.3874 -0.8990  0.5899
   88SOPE   H4S 8286   0.617   5.524   3.383 -1.0687 -0.0109 -2.5967
   88SOPE   C25 8287   0.465   5.422   3.508 -0.2052 -0.2280  0.9857
   88SOPE   H5R 8288   0.408   5.517   3.504  0.3517  0.0747 -1.5376
   88SOPE   H5S 8289   0.394   5.340   3.482 -1.0364  1.0227 -0.8704
   88SOPE   C26 8290   0.526   5.393   3.646 -0.0711 -1.4489 -0.2160
   88SOPE   H6R 8291   0.576   5.294   3.643  1.4839 -0.6562 -1.5011
   88SOPE   H6S 8292   0.618   5.454   3.655  0.6042 -2.5789  0.7349
   88SOPE   C27 8293   0.430   5.414   3.762 -0.0077  0.5784 -0.8877
   88SOPE   H7R 8294   0.356   5.496   3.746 -0.3420  0.5046  0.2087
   88SOPE   H7S 8295   0.372   5.320   3.759  1.1125 -0.0957 -2.0793
   88SOPE   C28 8296   0.493   5.434   3.904 -0.6460  0.2077 -0.9056
   88SOPE   H8R 8297   0.418   5.426   3.985  0.2481  0.2025 -0.0728
   88SOPE   H8S 8298   0.556   5.345   3.927 -1.6900 -0.3388 -0.1099
   88SOPE   C29 8299   0.576   5.556   3.929 -0.7174 -0.2738 -0.3860
   88SOPE   H91 8300   0.597   5.620   3.842 -0.1221  0.9493  0.6223
   88SOPE  C210 8301   0.620   5.587   4.051 -0.5188 -0.1391 -0.5289
   88SOPE  H101 8302   0.686   5.672   4.070 -0.6921  0.3892 -2.1523
   88SOPE  C211 8303   0.590   5.499   4.176  0.5019 -0.1283 -0.2573
   88SOPE  H11R 8304   0.605   5.390   4.162  0.0212 -0.0971 -1.0859
   88SOPE  H11S 8305   0.485   5.515   4.209 -0.4777 -3.9647 -0.9531
   88SOPE  C212 8306   0.675   5.540   4.293  0.6248 -0.3466 -0.0605
   88SOPE  H12R 8307   0.657   5.647   4.318  0.5293  0.0411 -1.6521
   88SOPE  H12S 8308   0.780   5.517   4.267  1.2858  2.1899  0.0690
   88SOPE  C213 8309   0.645   5.466   4.418 -0.0642 -0.0473  0.0232
   88SOPE  H13R 8310   0.673   5.359   4.405  0.3160  0.0490  0.0332
   88SOPE  H13S 8311   0.535   5.462   4.433 -0.2197 -0.4453 -1.1480
   88SOPE  C214 8312   0.731   5.511   4.529  0.4698 -0.0420  0.0702
   88SOPE  H14R 8313   0.726   5.619   4.557  2.6036  0.5007 -1.4017
   88SOPE  H14S 8314   0.839   5.501   4.505  0.1593  0.3887 -1.6863
   88SOPE  C215 8315   0.700   5.443   4.668 -0.1700  0.1781 -0.8833
   88SOPE  H15R 8316   0.705   5.335   4.642  2.9809  0.3269 -1.3399
   88SOPE  H15S 8317   0.603   5.467   4.717 -0.1075 -1.2788  0.0469
   88SOPE  C216 8318   0.818   5.457   4.763 -0.5381  0.1193  0.5452
   88SOPE  H16R 8319   0.847   5.563   4.777  4.0998 -0.7446 -0.9468
   88SOPE  H16S 8320   0.907   5.406   4.721  0.4569  1.0692  1.4202
   88SOPE  C217 8321   0.785   5.387   4.899 -0.7893 -0.4399  0.4128
   88SOPE  H17R 8322   0.755   5.282   4.882  1.5192 -1.0337 -0.3640
   88SOPE  H17S 8323   0.702   5.442   4.949 -0.4469  1.7157 -1.2437
   88SOPE  C218 8324   0.917   5.386   4.980 -0.2709  0.0106  0.4457
   88SOPE  H18R 8325   0.902   5.338   5.080 -0.4674 -1.7778 -0.3974
   88SOPE  H18S 8326   0.971   5.483   4.984 -0.6807  0.2117  1.3241
   88SOPE  H18T 8327   0.981   5.306   4.936 -3.3820 -1.7728 -1.2108
   88SOPE   C33 8328   0.964   5.620   3.424  0.3199  0.0857 -0.1948
   88SOPE   H3X 8329   0.884   5.678   3.374 -1.6227 -1.6512  0.7550
   88SOPE   H3Y 8330   1.001   5.670   3.516 -1.6908 -0.0602  0.7310
   88SOPE   C34 8331   0.893   5.496   3.489  0.2229  0.1237 -0.1265
   88SOPE   H4X 8332   0.850   5.439   3.405 -1.8365  1.0181  0.2496
   88SOPE   H4Y 8333   0.813   5.543   3.550 -0.2764  1.1598 -1.5274
   88SOPE   C35 8334   0.983   5.418   3.588 -0.4695 -0.2665 -0.0852
   88SOPE   H5X 8335   1.026   5.497   3.654  0.6179 -0.4166 -0.6004
   88SOPE   H5Y 8336   1.063   5.369   3.529  0.6036 -0.3040  1.3214
   88SOPE   C36 8337   0.909   5.317   3.676 -0.2683  0.1963 -0.0470
   88SOPE   H6X 8338   0.896   5.228   3.611  0.1175 -0.4591  0.7456
   88SOPE   H6Y 8339   0.812   5.365   3.700 -0.2439 -0.4926  1.5431
   88SOPE   C37 8340   0.974   5.291   3.813  0.1889  0.7567 -0.3701
   88SOPE   H7X 8341   1.083   5.270   3.806 -0.2428 -3.3819  1.9246
   88SOPE   H7Y 8342   0.929   5.201   3.860  1.3461 -1.0843 -2.5683
   88SOPE   C38 8343   0.936   5.405   3.909 -0.7197 -0.6583  0.1955
   88SOPE   H8X 8344   0.825   5.407   3.913 -0.8244  2.6032 -1.1073
   88SOPE   H8Y 8345   0.975   5.500   3.866 -1.3209 -0.1291  0.8032
   88SOPE   C39 8346   1.008   5.384   4.052  0.1248 -0.2444 -0.1957
   88SOPE   H9X 8347   0.973   5.459   4.127  3.2165  0.7780  0.3788
   88SOPE   H9Y 8348   1.118   5.398   4.043  0.3166 -1.2325  0.4235
   88SOPE  C310 8349   0.981   5.252   4.131  0.8112 -0.3422  0.2150
   88SOPE  H10X 8350   1.035   5.170   4.079  1.0258 -1.2754  1.8433
   88SOPE  H10Y 8351   0.870   5.244   4.128  0.5104  2.6015  0.6191
   88SOPE  C311 8352   1.028   5.261   4.276 -0.9694 -0.0815 -0.3579
   88SOPE  H11X 8353   0.972   5.336   4.336  2.4130  2.8346 -0.5171
   88SOPE  H11Y 8354   1.135   5.292   4.279 -1.2055  0.8365 -0.8316
   88SOPE  C312 8355   1.034   5.126   4.350  0.1280  0.3058  0.3583
   88SOPE  H12X 8356   1.082   5.052   4.283 -1.3045  1.1223 -1.6649
   88SOPE  H12Y 8357   0.931   5.084   4.359  0.1673 -0.2735 -1.5623
   88SOPE  C313 8358   1.099   5.129   4.487 -1.5313 -0.0479  0.2694
   88SOPE  H13X 8359   1.069   5.221   4.541 -1.1313  0.1711  0.1198
   88SOPE  H13Y 8360   1.209   5.120   4.473 -1.7369 -1.6987 -0.4926
   88SOPE  C314 8361   1.060   5.014   4.572  0.8219  0.4845 -0.2836
   88SOPE  H14X 8362   1.080   4.913   4.531  0.7521 -0.9067  2.8160
   88SOPE  H14Y 8363   0.950   5.010   4.583  0.8930 -3.1583  0.3050
   88SOPE  C315 8364   1.116   5.009   4.715 -0.2026  0.1000  0.4335
   88SOPE  H15X 8365   1.099   5.112   4.752  1.8367  0.4670  0.4675
   88SOPE  H15Y 8366   1.225   4.988   4.715 -0.3434 -0.8619 -1.5574
   88SOPE  C316 8367   1.036   4.910   4.812  0.1775 -0.3688  0.4747
   88SOPE  H16X 8368   1.076   4.915   4.915  1.0809 -0.1247  0.1154
   88SOPE  H16Y 8369   1.056   4.806   4.779  3.4253  0.0760  0.7623
   88SOPE  C317 8370   0.879   4.933   4.833  0.1955 -0.5728  0.1758
   88SOPE  H17X 8371   0.819   4.911   4.742  0.2084 -0.3561  0.1126
   88SOPE  H17Y 8372   0.858   5.038   4.862 -1.9717 -1.0846  0.6241
   88SOPE  C318 8373   0.820   4.836   4.933  0.5942  0.5598  0.3699
   88SOPE  H18X 8374   0.712   4.857   4.947  0.3112 -0.2060 -0.5611
   88SOPE  H18Y 8375   0.868   4.840   5.033 -1.4844 -1.5123  1.5296
   88SOPE  H18Z 8376   0.832   4.733   4.894  1.7417  0.1760  1.6567
   89SAPC     N 8377   4.822   3.762   6.919  0.2387  0.1937 -0.7239
   89SAPC   C12 8378   4.730   3.686   6.825 -0.3531 -0.9925  0.0261
   89SAPC  H12A 8379   4.792   3.651   6.744  2.0481 -2.1373  2.1848
   89SAPC  H12B 8380   4.653   3.753   6.793  0.0214  0.8361  2.6386
   89SAPC   C13 8381   4.871   3.884   6.841 -0.3415  0.2380 -0.4667
   89SAPC  H13A 8382   4.802   3.939   6.778 -0.7261 -0.9526 -1.1158
   89SAPC  H13B 8383   4.916   3.952   6.912 -1.5790 -0.4026  0.9877
   89SAPC  H13C 8384   4.957   3.849   6.786  1.4117  2.0819  0.9224
   89SAPC   C14 8385   4.758   3.808   7.044  0.6005 -0.6006 -0.5946
   89SAPC  H14A 8386   4.683   3.881   7.017  1.6128  0.5746 -0.3406
   89SAPC  H14B 8387   4.717   3.728   7.104 -0.4145 -0.5390 -1.1800
   89SAPC  H14C 8388   4.836   3.857   7.100  0.9494  3.4272 -4.1351
   89SAPC   C15 8389   4.936   3.676   6.967  0.6647 -0.0960  0.1836
   89SAPC  H15A 8390   5.006   3.722   7.035  1.3178  0.6443 -0.9605
   89SAPC  H15B 8391   4.897   3.579   6.996  1.0101 -0.5370 -0.7800
   89SAPC  H15C 8392   4.996   3.664   6.878  1.2017  3.3763 -0.0752
   89SAPC   C11 8393   4.667   3.549   6.862 -0.1945  0.2290 -0.6493
   89SAPC  H11A 8394   4.590   3.517   6.788 -1.8788 -0.2456  1.2254
   89SAPC  H11B 8395   4.610   3.562   6.956 -0.8765  0.6516 -1.1152
   89SAPC     P 8396   4.739   3.317   6.966  0.3381 -0.1521 -0.2093
   89SAPC   O13 8397   4.791   3.356   7.104  0.8446 -0.0832  0.3931
   89SAPC   O14 8398   4.593   3.283   6.953 -0.1378 -0.0032 -0.1929
   89SAPC   O12 8399   4.771   3.448   6.875  0.0173  0.3594  0.0126
   89SAPC   O11 8400   4.836   3.208   6.908 -0.6051 -0.7739  0.1905
   89SAPC    C1 8401   4.963   3.239   6.846  0.1360  0.1472  1.0058
   89SAPC    HA 8402   4.988   3.346   6.863  0.0066  0.5025 -0.8369
   89SAPC    HB 8403   5.045   3.177   6.888  1.2271 -0.2360 -1.4671
   89SAPC    C2 8404   4.965   3.215   6.694 -0.1477 -0.1579  0.3568
   89SAPC    HS 8405   5.067   3.242   6.660 -0.1228  1.9738  1.8734
   89SAPC   O21 8406   4.882   3.313   6.629 -0.3644  0.1015  0.1048
   89SAPC   C21 8407   4.928   3.439   6.622  0.2339  0.1546 -0.3047
   89SAPC   O22 8408   5.034   3.478   6.672 -0.0353  0.5298  0.3476
   89SAPC   C22 8409   4.834   3.527   6.528  0.4800 -0.1148 -0.5393
   89SAPC   H2R 8410   4.820   3.463   6.438  0.2284  1.4823 -1.6756
   89SAPC   H2S 8411   4.734   3.537   6.574  0.4501  1.2680 -0.8737
   89SAPC    C3 8412   4.914   3.079   6.656  0.4965 -0.2143  0.3729
   89SAPC    HX 8413   4.808   3.071   6.690 -0.0081  4.4267  0.4579
   89SAPC    HY 8414   4.968   3.004   6.718  0.4231  0.3137  1.0976
   89SAPC   O31 8415   4.927   3.052   6.518  0.5723 -0.1071 -0.5948
   89SAPC   C31 8416   5.046   3.008   6.480 -0.3645  0.3815  0.2021
   89SAPC   O32 8417   5.135   2.985   6.556 -0.2269 -0.2025  0.0777
   89SAPC   C32 8418   5.049   2.983   6.327  0.7117  0.4457  0.0391
   89SAPC   H2X 8419   5.086   2.880   6.309  2.1346  0.8927  0.3332
   89SAPC   H2Y 8420   5.124   3.048   6.277  0.2102  0.7852 -0.2889
   89SAPC   C23 8421   4.884   3.670   6.492 -0.7072  0.6961 -0.1215
   89SAPC   H3R 8422   4.986   3.662   6.447 -0.6284  0.0503  0.1539
   89SAPC   H3S 8423   4.902   3.731   6.583  0.7753 -0.5310  0.4686
   89SAPC   C24 8424   4.788   3.739   6.397 -0.5232  0.2645 -0.3463
   89SAPC   H4R 8425   4.690   3.739   6.449 -0.7390 -0.2246 -0.7479
   89SAPC   H4S 8426   4.771   3.678   6.306  2.4360 -2.5096  0.7443
   89SAPC   C25 8427   4.824   3.881   6.362 -0.0098 -0.9770 -0.8140
   89SAPC   H5R 8428   4.829   3.945   6.451  1.2799 -0.3613 -1.3006
   89SAPC   C26 8429   4.861   3.930   6.241 -0.3297  0.2729 -0.0562
   89SAPC   H6R 8430   4.892   4.035   6.255 -0.2681  0.1353  0.9133
   89SAPC   C27 8431   4.879   3.852   6.116  0.6058  0.3228 -0.6928
   89SAPC   H7R 8432   4.911   3.747   6.133 -1.6269 -0.2588  0.3371
   89SAPC   H7S 8433   4.959   3.903   6.057  3.1718 -0.8537  1.5323
   89SAPC   C28 8434   4.756   3.830   6.043  0.2109 -0.2401  0.2579
   89SAPC   H8R 8435   4.672   3.772   6.085  0.8026 -2.4946 -1.4656
   89SAPC   C29 8436   4.731   3.868   5.915 -0.2165  0.5188  0.0900
   89SAPC   H9R 8437   4.637   3.848   5.861  1.3869 -2.0510 -1.9498
   89SAPC  C210 8438   4.820   3.942   5.822  0.5129 -0.2873 -0.2983
   89SAPC  H10R 8439   4.811   3.897   5.721 -2.2409 -2.6509  0.8442
   89SAPC  H10S 8440   4.928   3.939   5.848  0.7530  0.1137 -1.2277
   89SAPC  C211 8441   4.778   4.086   5.837  0.0559 -0.2215  0.3329
   89SAPC  H11R 8442   4.767   4.139   5.933  0.2931  1.9998 -0.7832
   89SAPC  C212 8443   4.748   4.164   5.728 -0.0517  0.1415  0.0038
   89SAPC  H12R 8444   4.726   4.271   5.738 -1.0022  0.0533 -0.9470
   89SAPC  C213 8445   4.770   4.110   5.589 -0.2150 -0.1505 -0.4788
   89SAPC  H13R 8446   4.700   4.024   5.580 -0.3827 -0.1402  0.6155
   89SAPC  H13S 8447   4.873   4.074   5.569 -0.4260 -1.9823  1.4545
   89SAPC  C214 8448   4.726   4.221   5.498 -0.0691  0.0642 -0.4951
   89SAPC  H14R 8449   4.622   4.211   5.463 -0.4258  0.4841  0.4120
   89SAPC  C215 8450   4.796   4.303   5.420 -0.7255  0.4710  0.8024
   89SAPC  H15R 8451   4.744   4.379   5.360  2.1730  1.2634 -0.9007
   89SAPC  C216 8452   4.948   4.327   5.433  0.7962  0.0288 -0.0633
   89SAPC  H16R 8453   4.996   4.290   5.339 -1.3536  1.2427 -1.7113
   89SAPC  H16S 8454   4.976   4.266   5.522 -1.6074  2.8894  2.9079
   89SAPC  C217 8455   4.998   4.472   5.458  0.6532 -0.0068 -0.1477
   89SAPC  H17R 8456   5.106   4.476   5.484  0.9096  3.1154 -1.2829
   89SAPC  H17S 8457   4.953   4.503   5.555  1.8548 -0.0215  0.4265
   89SAPC  C218 8458   4.953   4.577   5.348  0.3950 -0.5173 -0.3819
   89SAPC  H18R 8459   4.847   4.551   5.328  0.1466 -0.3389  0.6170
   89SAPC  H18S 8460   5.025   4.558   5.266  1.8646  0.0670  0.7184
   89SAPC  C219 8461   4.952   4.727   5.386  0.1965  0.1581 -0.2483
   89SAPC  H19R 8462   4.887   4.751   5.473 -1.4246 -0.8118 -1.1517
   89SAPC  H19S 8463   4.922   4.788   5.298 -2.6175 -2.4853 -1.2940
   89SAPC  C220 8464   5.085   4.785   5.436 -0.0162 -0.3453  0.0884
   89SAPC  H20R 8465   5.075   4.894   5.454 -1.8545 -0.3327 -0.7681
   89SAPC  H20S 8466   5.170   4.759   5.370  1.0420 -0.0450  1.2997
   89SAPC  H20T 8467   5.117   4.740   5.532 -0.4666 -1.8633 -0.4507
   89SAPC   C33 8468   4.906   3.001   6.261  0.3498  0.0730 -0.2775
   89SAPC   H3X 8469   4.869   3.105   6.271 -1.1934 -0.4678 -0.0662
   89SAPC   H3Y 8470   4.836   2.928   6.310  3.0111 -1.3517  1.6548
   89SAPC   C34 8471   4.893   2.959   6.112  0.6363 -0.6208 -0.7889
   89SAPC   H4X 8472   4.785   2.936   6.097  0.3073 -0.4199  1.0328
   89SAPC   H4Y 8473   4.947   2.864   6.094  0.6667 -1.0943  1.5173
   89SAPC   C35 8474   4.938   3.067   6.018  0.0169  0.5383 -0.1601
   89SAPC   H5X 8475   5.029   3.122   6.050  0.9787 -0.6833 -0.7131
   89SAPC   H5Y 8476   4.869   3.154   6.008 -0.4779  0.3434  1.3834
   89SAPC   C36 8477   4.972   3.017   5.878 -0.2024 -0.2684  0.0469
   89SAPC   H6X 8478   4.902   2.936   5.848 -0.6687  0.5638 -1.1833
   89SAPC   H6Y 8479   5.071   2.967   5.869  0.4118  0.9322  0.0277
   89SAPC   C37 8480   4.944   3.118   5.768  0.0617  0.9515  0.3557
   89SAPC   H7X 8481   4.989   3.219   5.781 -0.7305  1.2690  0.6947
   89SAPC   H7Y 8482   4.834   3.123   5.754  0.2158  1.6927 -0.7549
   89SAPC   C38 8483   5.000   3.063   5.631 -0.4111  0.0760  0.2711
   89SAPC   H8X 8484   4.959   2.960   5.625  2.2967 -1.0269 -3.5711
   89SAPC   H8Y 8485   5.111   3.058   5.619 -0.3325  0.7576  0.6544
   89SAPC   C39 8486   4.960   3.137   5.503  0.0104 -0.2388  0.1135
   89SAPC   H9X 8487   4.980   3.242   5.535 -0.4853  0.4124 -1.6417
   89SAPC   H9Y 8488   4.853   3.113   5.487 -0.2475  1.4003 -0.7789
   89SAPC  C310 8489   5.056   3.099   5.391  0.4367  0.6850  0.5542
   89SAPC  H10X 8490   5.059   2.988   5.387 -0.2641  0.6188  1.5053
   89SAPC  H10Y 8491   5.157   3.137   5.418 -0.5525  2.4812  1.9225
   89SAPC  C311 8492   5.017   3.148   5.250 -0.8365  0.1324 -0.3233
   89SAPC  H11X 8493   5.096   3.167   5.174 -2.5000  2.2585 -1.6691
   89SAPC  H11Y 8494   4.980   3.251   5.270 -0.9909  0.0862 -0.3674
   89SAPC  C312 8495   4.913   3.055   5.197 -0.2704 -0.9403  0.1737
   89SAPC  H12X 8496   4.829   3.046   5.269 -2.0774 -0.6416 -1.8148
   89SAPC  H12Y 8497   4.949   2.951   5.182  0.7548 -1.2133  3.6423
   89SAPC  C313 8498   4.851   3.105   5.071  0.1109  0.4222 -0.8351
   89SAPC  H13X 8499   4.802   3.017   5.024  3.5321 -1.3736 -1.3276
   89SAPC  H13Y 8500   4.926   3.141   4.998 -0.9626  0.1538 -2.1047
   89SAPC  C314 8501   4.740   3.208   5.091  0.2756 -0.1419 -0.5757
   89SAPC  H14X 8502   4.771   3.296   5.151 -0.8888 -0.1371  0.0588
   89SAPC  H14Y 8503   4.662   3.166   5.159  0.0794 -1.0234 -1.3214
   89SAPC  C315 8504   4.679   3.262   4.963  0.2987 -0.1763  0.4487
   89SAPC  H15X 8505   4.671   3.178   4.891  2.2607 -0.5831  0.6536
   89SAPC  H15Y 8506   4.747   3.329   4.906  2.3866 -2.6424 -0.1627
   89SAPC  C316 8507   4.533   3.312   4.981 -0.8683 -0.0755 -0.2766
   89SAPC  H16X 8508   4.528   3.389   5.061  1.6731 -0.1339  0.0157
   89SAPC  H16Y 8509   4.473   3.220   4.998 -0.5984 -1.1491 -4.1448
   89SAPC  C317 8510   4.477   3.361   4.854 -0.3392  0.0586 -0.4543
   89SAPC  H17X 8511   4.467   3.279   4.780 -1.3765  1.6523 -2.1523
   89SAPC  H17Y 8512   4.556   3.424   4.808  0.1333 -0.1794  0.0225
   89SAPC  C318 8513   4.341   3.430   4.871  0.1395  0.2974 -0.5461
   89SAPC  H18X 8514   4.266   3.354   4.902  1.3846 -0.4765  0.7205
   89SAPC  H18Y 8515   4.321   3.479   4.773 -0.3038 -0.1456 -0.6844
   89SAPC  H18Z 8516   4.339   3.508   4.950  0.8093 -0.0937 -0.1375
   90SAPC     N 8517   2.062   6.455   7.310  0.4368 -0.5455  0.1859
   90SAPC   C12 8518   2.110   6.418   7.169  0.1190  0.0187 -1.1256
   90SAPC  H12A 8519   2.191   6.347   7.176  0.3901  0.4467  0.5760
   90SAPC  H12B 8520   2.165   6.508   7.144  0.6944  0.3141  0.9809
   90SAPC   C13 8521   2.184   6.442   7.399 -0.7672 -0.1882 -0.5555
   90SAPC  H13A 8522   2.161   6.438   7.505 -0.7225  1.9005 -0.4247
   90SAPC  H13B 8523   2.219   6.341   7.388 -0.4701 -0.2222  0.5194
   90SAPC  H13C 8524   2.269   6.501   7.371 -1.2263  1.5715  1.4422
   90SAPC   C14 8525   2.011   6.593   7.316  0.1725  0.0439 -0.3530
   90SAPC  H14A 8526   1.961   6.613   7.409 -0.3350 -1.4445 -0.2735
   90SAPC  H14B 8527   2.086   6.670   7.311 -1.0944  1.5547  2.0137
   90SAPC  H14C 8528   1.933   6.612   7.243 -0.7763 -1.0451  0.3472
   90SAPC   C15 8529   1.963   6.357   7.362 -0.0377  0.1404 -0.1310
   90SAPC  H15A 8530   2.003   6.271   7.413 -0.3553 -0.1986 -0.4459
   90SAPC  H15B 8531   1.897   6.406   7.432 -1.2131  1.1575 -1.8723
   90SAPC  H15C 8532   1.904   6.327   7.277 -1.0260 -0.9035  0.8952
   90SAPC   C11 8533   1.998   6.379   7.072 -0.4475  0.1682  0.2311
   90SAPC  H11A 8534   2.056   6.370   6.977 -0.4578 -1.8640  0.3745
   90SAPC  H11B 8535   1.935   6.471   7.064  0.7628  0.9899 -0.1490
   90SAPC     P 8536   1.982   6.117   7.074  0.2202 -0.1061 -0.1190
   90SAPC   O13 8537   2.126   6.118   7.109 -0.0857 -0.5126  0.1420
   90SAPC   O14 8538   1.903   6.015   7.141 -0.3099 -0.2912  0.2098
   90SAPC   O12 8539   1.919   6.257   7.102 -0.5124  0.2353  0.1196
   90SAPC   O11 8540   1.980   6.084   6.926  0.4173 -0.5822  0.5372
   90SAPC    C1 8541   1.869   6.132   6.848  0.2368 -0.9360 -0.5023
   90SAPC    HA 8542   1.786   6.057   6.853 -0.7200 -0.0292 -1.9769
   90SAPC    HB 8543   1.821   6.224   6.887 -2.3342 -1.2966 -2.5809
   90SAPC    C2 8544   1.907   6.150   6.695  1.3327 -0.9279  0.4440
   90SAPC    HS 8545   1.952   6.251   6.682 -0.4538  0.1086  1.8188
   90SAPC   O21 8546   1.780   6.136   6.616  0.0903 -0.0426 -0.1183
   90SAPC   C21 8547   1.696   6.238   6.636  0.6149  0.0423  0.2171
   90SAPC   O22 8548   1.720   6.340   6.701 -0.4866  0.3392  0.4269
   90SAPC   C22 8549   1.566   6.214   6.566  0.0454 -0.6625 -0.1231
   90SAPC   H2R 8550   1.505   6.298   6.605  1.7514  0.7005 -0.2973
   90SAPC   H2S 8551   1.573   6.224   6.455 -1.5765  2.1099 -0.0490
   90SAPC    C3 8552   2.002   6.034   6.650 -0.3278 -0.1921 -0.5557
   90SAPC    HX 8553   1.949   5.938   6.671 -0.4477  0.1396  0.7243
   90SAPC    HY 8554   2.093   6.033   6.715 -0.1944 -2.3777 -0.6874
   90SAPC   O31 8555   2.042   6.027   6.514 -0.6085 -0.2306 -0.2081
   90SAPC   C31 8556   2.120   6.129   6.485 -0.0483  0.8509  0.3924
   90SAPC   O32 8557   2.173   6.201   6.568 -0.0715 -0.8756  0.5776
   90SAPC   C32 8558   2.137   6.135   6.336  0.5205  0.4612  0.6054
   90SAPC   H2X 8559   2.048   6.183   6.290  0.9573 -0.0303 -0.8133
   90SAPC   H2Y 8560   2.139   6.032   6.295  0.2513  0.8129 -0.3402
   90SAPC   C23 8561   1.504   6.072   6.591  0.2587 -0.3944  0.3313
   90SAPC   H3R 8562   1.446   6.074   6.686 -1.7413  0.7687 -0.8506
   90SAPC   H3S 8563   1.585   5.997   6.601  0.8536  0.2104  0.0933
   90SAPC   C24 8564   1.414   6.027   6.475  0.6773 -0.0764  0.4359
   90SAPC   H4R 8565   1.399   5.922   6.509  0.3740  0.1524  1.0009
   90SAPC   H4S 8566   1.469   6.021   6.378 -2.1561  0.5773 -1.3170
   90SAPC   C25 8567   1.288   6.109   6.468 -0.2353  0.1853  0.0237
   90SAPC   H5R 8568   1.252   6.136   6.569  2.3195 -0.1635  1.1058
   90SAPC   C26 8569   1.228   6.158   6.362  0.1581  0.2911  0.3445
   90SAPC   H6R 8570   1.138   6.221   6.360 -0.1210 -0.0536 -2.5186
   90SAPC   C27 8571   1.275   6.145   6.224  0.5246  0.7977 -0.0084
   90SAPC   H7R 8572   1.383   6.123   6.213  0.3222  0.2597 -0.9851
   90SAPC   H7S 8573   1.273   6.248   6.183 -0.9391  1.0952  0.7345
   90SAPC   C28 8574   1.203   6.040   6.145 -0.2096 -0.4860  0.6309
   90SAPC   H8R 8575   1.155   5.957   6.200 -2.4474 -0.3487 -0.9418
   90SAPC   C29 8576   1.185   6.044   6.009 -0.1409 -0.4800  0.1462
   90SAPC   H9R 8577   1.125   5.967   5.959 -1.4178  2.6866 -3.7153
   90SAPC  C210 8578   1.239   6.157   5.917 -0.1443 -0.6856 -1.0532
   90SAPC  H10R 8579   1.287   6.236   5.978  2.0450 -2.9898  0.3760
   90SAPC  H10S 8580   1.153   6.206   5.867 -1.2006 -0.1344  1.1678
   90SAPC  C211 8581   1.331   6.095   5.813  0.6801  0.0136  0.0555
   90SAPC  H11R 8582   1.392   6.011   5.851 -1.1526 -0.3382  2.4867
   90SAPC  C212 8583   1.335   6.128   5.685 -0.6382 -0.4834  0.4388
   90SAPC  H12R 8584   1.395   6.064   5.619 -0.0974  0.3596  0.0908
   90SAPC  C213 8585   1.251   6.239   5.627 -0.5113  0.0329  0.4374
   90SAPC  H13R 8586   1.232   6.315   5.705  0.1126 -1.2946  1.9266
   90SAPC  H13S 8587   1.147   6.210   5.600  0.0365 -1.2114 -0.4566
   90SAPC  C214 8588   1.323   6.304   5.506 -0.5812  0.4104  0.5151
   90SAPC  H14R 8589   1.432   6.314   5.523  0.0388  5.0322 -3.6419
   90SAPC  C215 8590   1.282   6.352   5.388  0.3303  0.2302 -0.1123
   90SAPC  H15R 8591   1.357   6.390   5.317 -0.2728 -0.4521 -1.1317
   90SAPC  C216 8592   1.148   6.343   5.318 -0.1845 -0.4179  0.3598
   90SAPC  H16R 8593   1.069   6.292   5.377 -0.6626 -0.8353 -0.6080
   90SAPC  H16S 8594   1.151   6.288   5.221  1.2130 -4.3234  2.4088
   90SAPC  C217 8595   1.084   6.482   5.299 -0.1615  0.5488  0.1596
   90SAPC  H17R 8596   1.125   6.548   5.219  0.7208 -0.2277 -0.0526
   90SAPC  H17S 8597   1.096   6.539   5.394  2.1265 -0.6408  0.6561
   90SAPC  C218 8598   0.933   6.466   5.271 -0.5356  0.1224  0.4033
   90SAPC  H18R 8599   0.876   6.399   5.339 -0.0509 -0.0603  0.6313
   90SAPC  H18S 8600   0.924   6.420   5.171 -0.6416 -1.4666  1.1213
   90SAPC  C219 8601   0.854   6.594   5.277 -0.3237 -0.2721  0.5613
   90SAPC  H19R 8602   0.870   6.635   5.379  0.1289  1.5075 -0.1818
   90SAPC  H19S 8603   0.747   6.566   5.271  0.0330 -1.7455  0.6649
   90SAPC  C220 8604   0.891   6.686   5.166  0.3696 -0.5199 -0.7097
   90SAPC  H20R 8605   0.810   6.760   5.156  1.0007  0.0838 -1.4971
   90SAPC  H20S 8606   0.899   6.638   5.066  2.0093 -1.3505 -0.2305
   90SAPC  H20T 8607   0.985   6.741   5.188 -0.5314  0.1193  1.8225
   90SAPC   C33 8608   2.262   6.228   6.299 -0.8989  0.3080 -0.1064
   90SAPC   H3X 8609   2.354   6.171   6.323  1.2421  2.2928 -2.8814
   90SAPC   H3Y 8610   2.257   6.328   6.347  2.1031  0.9005 -0.8183
   90SAPC   C34 8611   2.284   6.254   6.147 -0.5779 -0.1757 -0.0660
   90SAPC   H4X 8612   2.323   6.159   6.105  0.0557 -0.3292  0.8313
   90SAPC   H4Y 8613   2.359   6.335   6.129 -2.2016  1.1458 -1.2039
   90SAPC   C35 8614   2.159   6.311   6.070 -0.2476 -0.6180  0.0908
   90SAPC   H5X 8615   2.127   6.402   6.124 -2.8917  0.1044 -2.4161
   90SAPC   H5Y 8616   2.073   6.241   6.075  0.6017 -1.6432  0.9487
   90SAPC   C36 8617   2.179   6.374   5.930 -0.2638  0.3185  0.4229
   90SAPC   H6X 8618   2.277   6.426   5.941  0.7088 -1.4151  0.2916
   90SAPC   H6Y 8619   2.090   6.439   5.919 -0.8795 -0.6652 -0.5664
   90SAPC   C37 8620   2.180   6.269   5.815 -0.4976 -0.3893 -0.0426
   90SAPC   H7X 8621   2.084   6.213   5.804 -0.9982  0.1162  1.5413
   90SAPC   H7Y 8622   2.257   6.194   5.842  1.1820  0.2543 -2.6832
   90SAPC   C38 8623   2.224   6.332   5.685 -0.9591 -0.3403  0.1577
   90SAPC   H8X 8624   2.267   6.260   5.612  1.2880  0.0632  1.0080
   90SAPC   H8Y 8625   2.305   6.403   5.710 -1.0515 -0.5184  0.9884
   90SAPC   C39 8626   2.105   6.411   5.623 -1.0056  0.3896 -0.4283
   90SAPC   H9X 8627   2.072   6.469   5.711  1.4999 -1.8288  2.1504
   90SAPC   H9Y 8628   2.021   6.346   5.590  0.1516 -1.6578  0.4830
   90SAPC  C310 8629   2.145   6.497   5.507  0.5254 -0.6931  0.2672
   90SAPC  H10X 8630   2.196   6.589   5.541 -0.6250  1.4768 -3.3261
   90SAPC  H10Y 8631   2.049   6.522   5.458  0.6635 -2.0284 -0.7474
   90SAPC  C311 8632   2.237   6.434   5.405  0.6277  0.7021  0.3358
   90SAPC  H11X 8633   2.177   6.354   5.356  0.4367  1.1141 -0.1028
   90SAPC  H11Y 8634   2.322   6.381   5.454  1.8143  1.8758 -0.3962
   90SAPC  C312 8635   2.284   6.518   5.285 -0.5135 -0.3021 -0.8242
   90SAPC  H12X 8636   2.381   6.473   5.257  1.3831  2.6479  0.5125
   90SAPC  H12Y 8637   2.320   6.618   5.317  4.1827 -2.0928  0.3787
   90SAPC  C313 8638   2.187   6.522   5.167 -0.1729 -0.5708 -0.4534
   90SAPC  H13X 8639   2.244   6.596   5.106 -0.0695  1.1201  1.5930
   90SAPC  H13Y 8640   2.092   6.569   5.199  1.3205  0.4728  2.9205
   90SAPC  C314 8641   2.176   6.391   5.097  0.5047 -1.1350 -0.1114
   90SAPC  H14X 8642   2.118   6.312   5.150 -2.3184  1.1889  0.5154
   90SAPC  H14Y 8643   2.278   6.347   5.088  0.2537 -1.4552 -1.6777
   90SAPC  C315 8644   2.114   6.408   4.957  0.6243 -0.6560 -0.1837
   90SAPC  H15X 8645   2.153   6.491   4.894 -1.0247 -0.0892 -0.5153
   90SAPC  H15Y 8646   2.007   6.435   4.968  0.9430  0.4276  0.3748
   90SAPC  C316 8647   2.121   6.290   4.862 -0.2052  0.2685 -0.0860
   90SAPC  H16X 8648   2.134   6.201   4.928  0.7598  0.4686  0.0234
   90SAPC  H16Y 8649   2.217   6.303   4.808 -0.7469  0.2054 -1.0796
   90SAPC  C317 8650   2.005   6.278   4.769  1.3269  0.2772  0.7441
   90SAPC  H17X 8651   1.917   6.280   4.837 -0.7998  1.5898 -1.8645
   90SAPC  H17Y 8652   2.009   6.181   4.716 -2.2742 -0.7991  2.1591
   90SAPC  C318 8653   1.998   6.390   4.662 -0.4340 -0.2435 -0.5063
   90SAPC  H18X 8654   1.997   6.490   4.710 -2.7416 -0.7430  0.6010
   90SAPC  H18Y 8655   1.908   6.395   4.598 -1.5202  0.1400  1.0035
   90SAPC  H18Z 8656   2.083   6.368   4.593 -1.7213 -2.9283 -1.4049
   91SAPC     N 8657   4.999   5.934   7.422 -0.0444  0.1063 -0.2354
   91SAPC   C12 8658   4.974   6.041   7.314  0.1583  0.5433 -0.2016
   91SAPC  H12A 8659   4.991   6.141   7.350  0.3689 -0.2039  1.8861
   91SAPC  H12B 8660   4.868   6.032   7.297  0.4898 -1.1720 -1.7508
   91SAPC   C13 8661   5.013   5.803   7.348  0.5605 -0.0202 -0.1601
   91SAPC  H13A 8662   4.932   5.789   7.279 -0.2504  0.1101  0.7477
   91SAPC  H13B 8663   5.109   5.789   7.300  0.4908 -1.2259  0.0082
   91SAPC  H13C 8664   5.001   5.718   7.414 -2.0370  2.1022  2.3918
   91SAPC   C14 8665   5.130   5.956   7.500 -0.3129  0.2554  0.0018
   91SAPC  H14A 8666   5.215   5.944   7.433 -0.9016 -0.5152 -0.6251
   91SAPC  H14B 8667   5.132   6.056   7.541 -0.2212  0.9127 -1.5141
   91SAPC  H14C 8668   5.133   5.881   7.578  0.5275  1.2084  0.9211
   91SAPC   C15 8669   4.877   5.923   7.519  0.5986 -0.4168  0.9289
   91SAPC  H15A 8670   4.868   6.014   7.576 -2.0300  0.4593 -0.6940
   91SAPC  H15B 8671   4.781   5.918   7.470  1.4256 -1.1004 -0.6683
   91SAPC  H15C 8672   4.886   5.837   7.585 -1.5044 -1.8645 -0.5344
   91SAPC   C11 8673   5.058   6.029   7.183  0.5014  0.2500  0.8892
   91SAPC  H11A 8674   5.010   6.093   7.106  3.5572 -1.9951 -3.3155
   91SAPC  H11B 8675   5.046   5.930   7.133  0.8889  0.4855  0.3121
   91SAPC     P 8676   5.251   6.198   7.208 -0.6030  0.2650  0.1288
   91SAPC   O13 8677   5.167   6.284   7.292  0.3674 -0.2643  0.0088
   91SAPC   O14 8678   5.394   6.200   7.237 -0.3065 -0.3159 -0.4565
   91SAPC   O12 8679   5.197   6.051   7.201 -0.2046  0.0816  0.1380
   91SAPC   O11 8680   5.231   6.241   7.059  0.0509  0.5957 -0.0001
   91SAPC    C1 8681   5.220   6.151   6.947  0.9103  0.3523 -1.0295
   91SAPC    HA 8682   5.136   6.078   6.955  0.8323  0.5841  0.4273
   91SAPC    HB 8683   5.173   6.204   6.861  1.3681 -0.1842 -1.6169
   91SAPC    C2 8684   5.344   6.082   6.895  0.2415 -0.3724 -0.3805
   91SAPC    HS 8685   5.416   6.083   6.979 -2.3136  0.3955  1.9353
   91SAPC   O21 8686   5.401   6.143   6.776  0.5557 -0.2581 -0.6977
   91SAPC   C21 8687   5.431   6.271   6.780 -0.5859  0.5059 -0.0982
   91SAPC   O22 8688   5.435   6.343   6.878  0.1629  0.7545 -0.5065
   91SAPC   C22 8689   5.465   6.317   6.637 -0.0179 -0.1399  0.6588
   91SAPC   H2R 8690   5.439   6.235   6.566  0.8866  0.4592 -0.4064
   91SAPC   H2S 8691   5.405   6.407   6.613  0.3882  0.1848  0.8340
   91SAPC    C3 8692   5.315   5.930   6.873  0.9569  0.0813  0.6696
   91SAPC    HX 8693   5.286   5.897   6.975 -2.3030  1.8127  0.4533
   91SAPC    HY 8694   5.403   5.873   6.836 -1.9525 -3.2314 -1.8497
   91SAPC   O31 8695   5.208   5.914   6.772  0.0619  0.1540  0.2261
   91SAPC   C31 8696   5.098   5.835   6.779 -0.4796  0.3092 -0.5107
   91SAPC   O32 8697   5.073   5.754   6.867 -0.3442 -0.0560  0.6318
   91SAPC   C32 8698   5.006   5.866   6.668 -0.6195 -0.2338  0.9891
   91SAPC   H2X 8699   5.065   5.918   6.589  0.0158 -2.2070  0.1000
   91SAPC   H2Y 8700   4.921   5.926   6.707 -1.0288  0.2563 -0.6013
   91SAPC   C23 8701   5.613   6.361   6.627 -0.1082  0.0696  0.6954
   91SAPC   H3R 8702   5.680   6.286   6.673 -0.8408  0.1544  1.9513
   91SAPC   H3S 8703   5.621   6.444   6.700 -0.2268 -1.2161  2.2133
   91SAPC   C24 8704   5.659   6.423   6.495  1.0867 -0.3891 -0.3299
   91SAPC   H4R 8705   5.599   6.516   6.488  0.2100 -0.9700 -0.7894
   91SAPC   H4S 8706   5.633   6.367   6.402 -0.6996  0.1239 -0.1755
   91SAPC   C25 8707   5.805   6.450   6.509  0.5089 -0.3197 -0.2620
   91SAPC   H5R 8708   5.861   6.394   6.585  1.3128  0.6115 -0.1440
   91SAPC   C26 8709   5.873   6.548   6.443 -0.8616  0.1669  0.2721
   91SAPC   H6R 8710   5.981   6.562   6.459 -0.2255 -1.3535 -2.0422
   91SAPC   C27 8711   5.801   6.647   6.355 -0.5700 -0.4194  0.7146
   91SAPC   H7R 8712   5.856   6.743   6.359 -1.7072  0.2427  0.8294
   91SAPC   H7S 8713   5.700   6.669   6.396 -0.4487  2.2828 -0.2477
   91SAPC   C28 8714   5.774   6.592   6.214 -0.6807  0.1310  0.4470
   91SAPC   H8R 8715   5.704   6.508   6.220 -0.2320 -0.2780  0.1038
   91SAPC   C29 8716   5.832   6.613   6.092 -0.2270  0.3579  0.0385
   91SAPC   H9R 8717   5.794   6.555   6.006 -1.9704  1.0377  0.3160
   91SAPC  C210 8718   5.940   6.715   6.066 -0.9697  0.4055 -0.4310
   91SAPC  H10R 8719   5.977   6.749   6.165 -0.0656  0.0985 -0.6601
   91SAPC  H10S 8720   5.906   6.803   6.006  0.2759  0.6353 -0.8378
   91SAPC  C211 8721   6.049   6.635   5.995 -0.5793  0.1190 -0.1958
   91SAPC  H11R 8722   6.140   6.638   6.057 -1.6981  0.9715  1.5101
   91SAPC  C212 8723   6.048   6.598   5.864 -0.3329  0.6546  0.1736
   91SAPC  H12R 8724   6.146   6.557   5.836  0.7123  2.5710  0.8264
   91SAPC  C213 8725   5.944   6.614   5.759  0.8162  0.5474 -0.9927
   91SAPC  H13R 8726   5.981   6.700   5.699  1.3467  1.6063  0.7852
   91SAPC  H13S 8727   5.853   6.648   5.811  0.9870  0.5827 -0.7171
   91SAPC  C214 8728   5.921   6.488   5.672 -0.1544  0.1100 -0.0573
   91SAPC  H14R 8729   6.010   6.427   5.652 -1.0957 -0.7476 -1.8373
   91SAPC  C215 8730   5.808   6.464   5.601  0.5261  0.1699 -0.4038
   91SAPC  H15R 8731   5.817   6.370   5.546  1.9659  0.1512 -0.1843
   91SAPC  C216 8732   5.672   6.533   5.597 -0.1571  0.3375  0.6378
   91SAPC  H16R 8733   5.677   6.622   5.663 -0.0108  1.0803 -0.3524
   91SAPC  H16S 8734   5.596   6.470   5.648 -1.2678  2.1109  1.2619
   91SAPC  C217 8735   5.637   6.577   5.454 -0.0212  0.0923  0.2128
   91SAPC  H17R 8736   5.560   6.657   5.452 -2.3637 -2.0119  0.0312
   91SAPC  H17S 8737   5.592   6.494   5.394  1.1221 -0.3310 -0.0868
   91SAPC  C218 8738   5.752   6.637   5.371  0.3808 -0.2143  0.3611
   91SAPC  H18R 8739   5.821   6.551   5.354  0.0115 -0.5764  0.6707
   91SAPC  H18S 8740   5.805   6.715   5.430  0.4605 -1.0333  1.4033
   91SAPC  C219 8741   5.704   6.697   5.235  0.1317  0.0292  0.0685
   91SAPC  H19R 8742   5.631   6.777   5.263 -0.2514 -0.9898  2.1468
   91SAPC  H19S 8743   5.649   6.623   5.175 -0.8765  0.6491  0.1993
   91SAPC  C220 8744   5.820   6.769   5.155  0.2159  0.0993 -0.3354
   91SAPC  H20R 8745   5.885   6.823   5.228  2.3499 -2.2319 -0.3618
   91SAPC  H20S 8746   5.776   6.850   5.094 -0.1170  0.1441 -0.0390
   91SAPC  H20T 8747   5.891   6.706   5.096  0.5960 -1.9143  2.0741
   91SAPC   C33 8748   4.939   5.745   6.609 -0.0255  0.5785  0.0691
   91SAPC   H3X 8749   4.881   5.697   6.690  2.0816 -0.7361  0.8751
   91SAPC   H3Y 8750   5.010   5.669   6.571 -1.0138 -0.7510  0.8142
   91SAPC   C34 8751   4.860   5.776   6.481 -0.8175 -0.9110  0.4223
   91SAPC   H4X 8752   4.774   5.835   6.518  1.3922  0.4972  3.8857
   91SAPC   H4Y 8753   4.827   5.678   6.439  0.9582 -1.1863 -0.4387
   91SAPC   C35 8754   4.932   5.847   6.362  0.0863  0.0261 -0.0630
   91SAPC   H5X 8755   5.034   5.805   6.349  1.5352  2.7951  1.3613
   91SAPC   H5Y 8756   4.936   5.957   6.380  0.6266 -0.1178  0.7598
   91SAPC   C36 8757   4.866   5.839   6.220  0.1645  0.3202 -0.0956
   91SAPC   H6X 8758   4.772   5.897   6.212  0.0799  0.0004 -1.6119
   91SAPC   H6Y 8759   4.835   5.735   6.196 -1.6094  0.9557 -0.6744
   91SAPC   C37 8760   4.962   5.895   6.112 -0.2504  0.0347 -0.3235
   91SAPC   H7X 8761   5.063   5.849   6.123  0.6279  1.5783 -1.5472
   91SAPC   H7Y 8762   4.992   5.996   6.146 -0.1935 -0.3370  0.7701
   91SAPC   C38 8763   4.910   5.882   5.969 -0.5744 -0.6281  0.7035
   91SAPC   H8X 8764   4.811   5.931   5.959 -0.4199 -0.7470 -2.3479
   91SAPC   H8Y 8765   4.897   5.776   5.939 -0.5986 -0.3936 -0.1342
   91SAPC   C39 8766   5.005   5.950   5.871  0.3624 -0.3277 -0.0531
   91SAPC   H9X 8767   5.108   5.914   5.889 -0.1136 -1.8360 -0.2079
   91SAPC   H9Y 8768   5.016   6.060   5.882 -2.7217  0.2830 -1.8658
   91SAPC  C310 8769   4.960   5.917   5.724 -0.3052 -0.4866  0.3156
   91SAPC  H10X 8770   4.854   5.949   5.711  0.4184  1.4643 -1.2445
   91SAPC  H10Y 8771   4.961   5.806   5.720  1.9818 -0.4604 -1.5155
   91SAPC  C311 8772   5.039   5.985   5.608  1.0876 -0.5166 -0.0935
   91SAPC  H11X 8773   5.137   5.933   5.607  0.3418 -1.9920  0.5624
   91SAPC  H11Y 8774   5.039   6.093   5.635 -0.7931  0.0661 -2.1581
   91SAPC  C312 8775   4.990   5.945   5.461  0.0238 -0.6762  0.3578
   91SAPC  H12X 8776   4.890   5.991   5.452  0.2959 -0.2818 -0.8490
   91SAPC  H12Y 8777   4.959   5.839   5.476 -0.8872 -0.2298  1.8524
   91SAPC  C313 8778   5.078   5.965   5.337  0.2771 -0.5619  0.0354
   91SAPC  H13X 8779   5.180   5.940   5.373  1.3726  0.4182 -2.1839
   91SAPC  H13Y 8780   5.074   6.074   5.315 -2.2011 -0.3354  1.2945
   91SAPC  C314 8781   5.024   5.892   5.215 -0.1089 -0.4255  0.3382
   91SAPC  H14X 8782   4.913   5.894   5.212 -0.2089 -3.1921 -0.6363
   91SAPC  H14Y 8783   5.062   5.788   5.225  2.6234  0.4197 -0.3198
   91SAPC  C315 8784   5.075   5.946   5.077 -0.5354 -0.1750 -0.1339
   91SAPC  H15X 8785   5.186   5.946   5.079 -0.4368 -2.4871  2.7525
   91SAPC  H15Y 8786   5.033   6.048   5.065  0.0497  0.2049  0.9277
   91SAPC  C316 8787   5.017   5.858   4.964 -0.6828 -0.5179 -0.4626
   91SAPC  H16X 8788   5.041   5.749   4.968 -0.7462 -0.5263 -0.3096
   91SAPC  H16Y 8789   5.062   5.900   4.872  0.8415 -0.8935  0.0786
   91SAPC  C317 8790   4.862   5.872   4.950  0.0122 -0.2181 -0.5904
   91SAPC  H17X 8791   4.815   5.827   5.040 -1.4872  1.3573 -0.5239
   91SAPC  H17Y 8792   4.845   5.811   4.859 -1.4943 -0.8099  0.0658
   91SAPC  C318 8793   4.814   6.016   4.926 -0.1392 -0.1967 -0.2903
   91SAPC  H18X 8794   4.843   6.081   5.011 -1.3458 -0.5683  0.4388
   91SAPC  H18Y 8795   4.703   6.014   4.928 -0.1347 -0.1369  0.2346
   91SAPC  H18Z 8796   4.841   6.066   4.831  0.5401 -1.1261 -0.6080
   92SAPC     N 8797   0.167   3.571   6.962 -0.5808 -0.6622 -0.0409
   92SAPC   C12 8798   0.072   3.652   7.052  0.3279 -0.3196 -0.8212
   92SAPC  H12A 8799   0.075   3.757   7.027 -1.8483 -0.5311 -2.3213
   92SAPC  H12B 8800   0.107   3.632   7.152 -2.0332 -1.5774 -0.1574
   92SAPC   C13 8801   0.141   3.589   6.816 -0.3821  0.1137 -0.1479
   92SAPC  H13A 8802   0.040   3.559   6.792 -0.9707  0.7925  1.3510
   92SAPC  H13B 8803   0.141   3.694   6.788 -0.6948 -0.3698 -2.1509
   92SAPC  H13C 8804   0.218   3.544   6.755  2.2015  1.9815  1.4982
   92SAPC   C14 8805   0.305   3.614   6.986  0.3609  0.2723  0.4876
   92SAPC  H14A 8806   0.369   3.545   6.933 -1.5802 -1.3373  0.0922
   92SAPC  H14B 8807   0.314   3.717   6.955  0.5007  0.6150  1.6353
   92SAPC  H14C 8808   0.331   3.597   7.089 -0.8344 -1.3431  0.5768
   92SAPC   C15 8809   0.153   3.417   6.982  0.1169 -0.6101 -0.0331
   92SAPC  H15A 8810   0.154   3.386   7.085  1.7400 -0.0483  0.1525
   92SAPC  H15B 8811   0.062   3.381   6.936  0.1265  0.5710 -1.0184
   92SAPC  H15C 8812   0.237   3.372   6.931 -0.1224 -0.9182 -0.1587
   92SAPC   C11 8813  -0.076   3.606   7.066  0.1944 -0.2312  0.2491
   92SAPC  H11A 8814  -0.126   3.651   7.155 -1.9489 -1.3255 -0.3346
   92SAPC  H11B 8815  -0.087   3.498   7.090  0.5229 -0.3093  0.0419
   92SAPC     P 8816  -0.234   3.784   6.955  0.1577 -0.3539  0.0558
   92SAPC   O13 8817  -0.362   3.765   7.028  0.4031 -0.0726  0.4005
   92SAPC   O14 8818  -0.148   3.891   7.014 -0.0049  0.0311  0.3883
   92SAPC   O12 8819  -0.153   3.643   6.945 -0.1766 -0.3576  0.3390
   92SAPC   O11 8820  -0.253   3.814   6.803 -0.0210  0.0840  0.0592
   92SAPC    C1 8821  -0.355   3.882   6.742  0.6741 -0.6472 -0.7097
   92SAPC    HA 8822  -0.398   3.961   6.807  1.6999 -2.2492  2.0690
   92SAPC    HB 8823  -0.313   3.933   6.653 -2.4075 -1.4095 -2.7850
   92SAPC    C2 8824  -0.470   3.790   6.703  0.6265  0.6223 -0.2691
   92SAPC    HS 8825  -0.477   3.713   6.783 -0.0261  0.2784 -0.6493
   92SAPC   O21 8826  -0.418   3.721   6.576 -0.2195  0.7914 -0.0658
   92SAPC   C21 8827  -0.495   3.613   6.544  0.8501 -0.9136 -0.1386
   92SAPC   O22 8828  -0.579   3.568   6.619  0.2695 -0.1332 -0.0102
   92SAPC   C22 8829  -0.467   3.568   6.407  0.1008  0.8339  0.1999
   92SAPC   H2R 8830  -0.516   3.651   6.351 -3.2315  0.8413  2.7845
   92SAPC   H2S 8831  -0.357   3.575   6.397  0.3329 -0.2528  1.7193
   92SAPC    C3 8832  -0.606   3.859   6.681 -0.1433 -0.6577  1.0948
   92SAPC    HX 8833  -0.625   3.903   6.781  0.4465  0.8261  0.5913
   92SAPC    HY 8834  -0.678   3.777   6.660 -2.2117  1.1348  0.8042
   92SAPC   O31 8835  -0.604   3.967   6.587 -0.6812 -0.0684 -0.1654
   92SAPC   C31 8836  -0.636   3.937   6.463 -0.6823  0.0565 -0.4043
   92SAPC   O32 8837  -0.664   3.826   6.419  0.2898 -0.0130 -0.2036
   92SAPC   C32 8838  -0.622   4.062   6.373 -0.3025  0.0801 -0.2164
   92SAPC   H2X 8839  -0.543   4.115   6.430 -1.2897 -0.5517  1.8491
   92SAPC   H2Y 8840  -0.720   4.113   6.370  0.0227  0.7430  0.2344
   92SAPC   C23 8841  -0.535   3.435   6.364  0.4742  0.8043 -0.2126
   92SAPC   H3R 8842  -0.639   3.435   6.405  1.4565  1.8424  2.5507
   92SAPC   H3S 8843  -0.516   3.333   6.407  1.0633  0.7986 -0.4823
   92SAPC   C24 8844  -0.560   3.414   6.214 -0.1844  0.0840  0.3396
   92SAPC   H4R 8845  -0.602   3.313   6.195  0.5161 -0.8349  3.1891
   92SAPC   H4S 8846  -0.463   3.401   6.161 -0.4125 -0.2230 -0.0087
   92SAPC   C25 8847  -0.644   3.534   6.170 -0.6839  0.0672  0.1557
   92SAPC   H5R 8848  -0.729   3.549   6.238  1.1091 -2.3534  3.1665
   92SAPC   C26 8849  -0.618   3.612   6.056  0.0850 -0.1846 -0.0123
   92SAPC   H6R 8850  -0.689   3.696   6.048 -0.0162 -0.0446  1.8964
   92SAPC   C27 8851  -0.514   3.597   5.952  0.2109 -0.9201 -0.2695
   92SAPC   H7R 8852  -0.423   3.567   6.008 -0.5707 -0.1139  1.5010
   92SAPC   H7S 8853  -0.483   3.699   5.922 -1.7444  0.2785  1.5230
   92SAPC   C28 8854  -0.557   3.504   5.839 -0.3795  0.2479  0.3236
   92SAPC   H8R 8855  -0.607   3.415   5.881 -0.0528 -1.2386 -2.2297
   92SAPC   C29 8856  -0.513   3.511   5.711  0.4821  0.1094  0.3150
   92SAPC   H9R 8857  -0.537   3.430   5.640 -3.8975  0.9516  0.5583
   92SAPC  C210 8858  -0.435   3.623   5.644  0.2985 -0.8731  0.1923
   92SAPC  H10R 8859  -0.362   3.674   5.711  2.1011 -1.8569 -0.9473
   92SAPC  H10S 8860  -0.512   3.699   5.620  2.2058  0.9337 -0.5282
   92SAPC  C211 8861  -0.371   3.593   5.513 -0.3433 -0.2510 -0.0990
   92SAPC  H11R 8862  -0.298   3.512   5.526 -1.1616 -1.1296 -0.8174
   92SAPC  C212 8863  -0.403   3.626   5.387  0.2248 -0.5370 -0.5356
   92SAPC  H12R 8864  -0.320   3.628   5.315 -0.6907  2.1803 -1.6563
   92SAPC  C213 8865  -0.519   3.722   5.352 -0.4843 -0.0073 -0.0904
   92SAPC  H13R 8866  -0.479   3.826   5.347  2.6483 -1.0965  0.0993
   92SAPC  H13S 8867  -0.596   3.709   5.430  2.3617 -1.4163  2.7405
   92SAPC  C214 8868  -0.578   3.676   5.225 -0.1984  0.0810 -0.6101
   92SAPC  H14R 8869  -0.649   3.591   5.227 -0.4761  0.2927 -1.2303
   92SAPC  C215 8870  -0.554   3.736   5.103 -0.0278  0.1897 -0.5623
   92SAPC  H15R 8871  -0.608   3.705   5.013 -1.7493 -1.4762  0.9384
   92SAPC  C216 8872  -0.459   3.838   5.077  0.2021  0.3380 -0.1379
   92SAPC  H16R 8873  -0.400   3.819   4.985  2.5979 -0.5447  1.4788
   92SAPC  H16S 8874  -0.377   3.845   5.152 -1.0848  3.9854  1.1712
   92SAPC  C217 8875  -0.509   3.983   5.063  0.3040 -0.1736  0.1164
   92SAPC  H17R 8876  -0.422   4.023   5.007  2.0367 -3.6950 -0.0315
   92SAPC  H17S 8877  -0.519   4.037   5.160  0.0779 -0.8104  0.4593
   92SAPC  C218 8878  -0.637   3.998   4.968 -0.0125  0.0013 -0.2926
   92SAPC  H18R 8879  -0.734   3.984   5.020  0.7024 -2.3614  0.5772
   92SAPC  H18S 8880  -0.634   3.920   4.888 -2.8274 -1.1713  0.6209
   92SAPC  C219 8881  -0.625   4.138   4.904 -0.2085  0.2784  0.0075
   92SAPC  H19R 8882  -0.540   4.137   4.833  0.6658  1.0809  1.0141
   92SAPC  H19S 8883  -0.600   4.218   4.977 -0.5524  0.4354 -0.0457
   92SAPC  C220 8884  -0.736   4.174   4.805 -1.3703 -0.0039  0.0655
   92SAPC  H20R 8885  -0.706   4.268   4.753  0.9241 -1.0407 -0.6290
   92SAPC  H20S 8886  -0.832   4.176   4.860 -1.5938 -1.8902 -0.1870
   92SAPC  H20T 8887  -0.736   4.097   4.725  3.1867 -1.0441  0.7809
   92SAPC   C33 8888  -0.543   4.031   6.241  0.5175  0.0686  0.0119
   92SAPC   H3X 8889  -0.585   3.948   6.180  0.1529  1.0873 -1.1850
   92SAPC   H3Y 8890  -0.441   3.996   6.267 -0.1814 -3.4390 -1.4002
   92SAPC   C34 8891  -0.546   4.152   6.155  0.1337  0.7910 -0.2281
   92SAPC   H4X 8892  -0.506   4.243   6.204 -1.3937  1.4937 -0.2184
   92SAPC   H4Y 8893  -0.651   4.187   6.150  0.6717  2.5921  0.3165
   92SAPC   C35 8894  -0.477   4.134   6.022 -0.5803  0.4994  0.7249
   92SAPC   H5X 8895  -0.519   4.047   5.968 -0.0431  0.5235  0.2456
   92SAPC   H5Y 8896  -0.372   4.101   6.038 -0.7624  0.0613  1.0159
   92SAPC   C36 8897  -0.480   4.266   5.938  1.0082 -0.5850 -0.0765
   92SAPC   H6X 8898  -0.425   4.348   5.988 -1.4481  0.2743  1.3668
   92SAPC   H6Y 8899  -0.582   4.305   5.919  1.9545  1.4860 -1.3008
   92SAPC   C37 8900  -0.412   4.248   5.805  0.3808  0.7693  0.9317
   92SAPC   H7X 8901  -0.478   4.174   5.755 -0.1551  1.5915  0.4112
   92SAPC   H7Y 8902  -0.307   4.211   5.814  0.1358 -0.8520 -1.6263
   92SAPC   C38 8903  -0.417   4.372   5.724 -0.2862  0.4631  0.7455
   92SAPC   H8X 8904  -0.370   4.454   5.783  1.8099 -0.4191  0.3836
   92SAPC   H8Y 8905  -0.526   4.389   5.719 -0.5403 -0.5753  2.0107
   92SAPC   C39 8906  -0.361   4.361   5.583 -0.0424 -0.2829 -0.5275
   92SAPC   H9X 8907  -0.385   4.262   5.539 -2.5751  0.2426 -0.4971
   92SAPC   H9Y 8908  -0.251   4.363   5.597 -0.0853 -0.4178 -0.1545
   92SAPC  C310 8909  -0.412   4.485   5.496 -0.4288 -0.0668  0.4197
   92SAPC  H10X 8910  -0.390   4.574   5.558 -1.2463 -0.8256  1.8464
   92SAPC  H10Y 8911  -0.520   4.471   5.473 -0.4313  0.7098 -0.0699
   92SAPC  C311 8912  -0.344   4.487   5.358  0.2260  0.3792  0.0309
   92SAPC  H11X 8913  -0.377   4.389   5.316 -0.8889  0.2380  1.1924
   92SAPC  H11Y 8914  -0.234   4.480   5.373  0.2689  0.0510 -0.3998
   92SAPC  C312 8915  -0.386   4.594   5.262 -0.1600 -0.3361 -0.3136
   92SAPC  H12X 8916  -0.368   4.697   5.301 -2.0881  0.7201 -1.9883
   92SAPC  H12Y 8917  -0.496   4.591   5.249 -0.1889 -0.1523 -0.1284
   92SAPC  C313 8918  -0.323   4.576   5.127 -0.7294  0.0892  0.6018
   92SAPC  H13X 8919  -0.321   4.467   5.106  1.4125  0.1671  0.1105
   92SAPC  H13Y 8920  -0.218   4.612   5.131 -1.6138  3.0744 -0.7499
   92SAPC  C314 8921  -0.399   4.648   5.020 -0.3426  0.2589  0.4326
   92SAPC  H14X 8922  -0.504   4.613   5.013  0.5349 -2.5074 -0.1594
   92SAPC  H14Y 8923  -0.349   4.615   4.926  0.6694  2.4700  0.1226
   92SAPC  C315 8924  -0.391   4.798   5.022 -0.8262 -0.1815  0.8123
   92SAPC  H15X 8925  -0.287   4.821   5.054  0.1030 -2.1400 -0.5686
   92SAPC  H15Y 8926  -0.464   4.841   5.094 -0.4982  2.2683 -0.2233
   92SAPC  C316 8927  -0.406   4.859   4.879 -0.6257  0.1493  0.3237
   92SAPC  H16X 8928  -0.331   4.806   4.815 -0.5701  0.5801  0.0278
   92SAPC  H16Y 8929  -0.387   4.968   4.879 -0.3623  0.1076  0.7031
   92SAPC  C317 8930  -0.537   4.839   4.804 -0.0908  0.3896 -0.0032
   92SAPC  H17X 8931  -0.534   4.733   4.770  3.8325  0.1267  0.7324
   92SAPC  H17Y 8932  -0.537   4.900   4.711  0.6266 -0.3844 -0.5247
   92SAPC  C318 8933  -0.663   4.877   4.880 -0.4296  0.3376 -0.7675
   92SAPC  H18X 8934  -0.758   4.867   4.824 -0.7379  0.8956 -0.3498
   92SAPC  H18Y 8935  -0.657   4.983   4.911  1.9236  0.0282 -0.0028
   92SAPC  H18Z 8936  -0.678   4.816   4.972 -0.6184  0.8388 -0.4650
   93SAPC     N 8937   0.531   6.052   7.672  1.1074  0.5032  0.0124
   93SAPC   C12 8938   0.477   6.006   7.539 -0.5759 -0.0591  0.0741
   93SAPC  H12A 8939   0.374   6.037   7.551 -0.6864 -1.2020  2.8824
   93SAPC  H12B 8940   0.474   5.899   7.526  1.2093  0.1230 -2.8227
   93SAPC   C13 8941   0.672   6.021   7.696 -0.3894  0.2272 -0.5863
   93SAPC  H13A 8942   0.695   6.069   7.790  0.6912  0.1625 -0.8129
   93SAPC  H13B 8943   0.690   5.915   7.701 -1.1704 -0.1023 -3.2561
   93SAPC  H13C 8944   0.720   6.062   7.608  1.1005 -0.7632 -0.2655
   93SAPC   C14 8945   0.515   6.201   7.680 -0.5935  0.2329 -0.1687
   93SAPC  H14A 8946   0.412   6.225   7.700 -0.5234 -0.1142  0.6546
   93SAPC  H14B 8947   0.570   6.245   7.762 -0.4958  0.3765 -0.3101
   93SAPC  H14C 8948   0.561   6.246   7.593  1.2536 -1.3675 -0.0928
   93SAPC   C15 8949   0.455   5.997   7.792 -0.2530  0.1825  0.0586
   93SAPC  H15A 8950   0.350   6.007   7.768 -0.3908  2.3191  1.2207
   93SAPC  H15B 8951   0.484   5.900   7.828 -0.0502  0.4063  0.5091
   93SAPC  H15C 8952   0.472   6.055   7.882 -0.4299 -2.5139  1.9671
   93SAPC   C11 8953   0.531   6.061   7.408 -0.0068  0.2780  0.0680
   93SAPC  H11A 8954   0.567   6.165   7.420  1.9031 -0.0841 -1.8240
   93SAPC  H11B 8955   0.461   6.064   7.321  0.3278 -1.4650 -0.3063
   93SAPC     P 8956   0.755   6.024   7.275 -0.2048 -0.3130 -0.3374
   93SAPC   O13 8957   0.799   6.159   7.322  0.3215 -0.1054 -0.0521
   93SAPC   O14 8958   0.861   5.926   7.255  0.1424  0.7163  0.1936
   93SAPC   O12 8959   0.634   5.982   7.368 -0.0298  0.0821  0.2369
   93SAPC   O11 8960   0.677   6.045   7.139 -0.2436  0.6304  0.3384
   93SAPC    C1 8961   0.620   5.944   7.063  0.2616  0.8647 -0.1610
   93SAPC    HA 8962   0.630   5.843   7.108  2.0222  1.0241 -0.1292
   93SAPC    HB 8963   0.510   5.946   7.048 -0.3608  0.0870  3.4708
   93SAPC    C2 8964   0.697   5.912   6.932  0.6289 -0.6011 -0.2255
   93SAPC    HS 8965   0.803   5.907   6.966  0.6098 -2.5850 -0.3551
   93SAPC   O21 8966   0.666   6.021   6.840  0.0967 -0.1038 -0.2424
   93SAPC   C21 8967   0.743   6.128   6.854 -0.3889  0.1957  0.8626
   93SAPC   O22 8968   0.854   6.127   6.909  0.1151  0.0030  0.0192
   93SAPC   C22 8969   0.700   6.230   6.753  0.0801 -0.5019 -0.3806
   93SAPC   H2R 8970   0.607   6.260   6.805 -0.5952 -0.6292 -1.4909
   93SAPC   H2S 8971   0.767   6.318   6.743 -1.4199  0.6673 -0.4932
   93SAPC    C3 8972   0.654   5.776   6.874 -0.7699 -0.0679  0.0239
   93SAPC    HX 8973   0.544   5.766   6.864 -0.5458 -1.5703 -1.2777
   93SAPC    HY 8974   0.691   5.700   6.945 -0.4545 -0.7676 -0.8836
   93SAPC   O31 8975   0.730   5.750   6.749 -0.7474  0.0068  0.1927
   93SAPC   C31 8976   0.666   5.776   6.638  0.7322  0.2713 -0.1355
   93SAPC   O32 8977   0.545   5.800   6.629  0.3020 -0.3835 -0.2334
   93SAPC   C32 8978   0.773   5.765   6.528  0.0588  0.1097 -0.2882
   93SAPC   H2X 8979   0.850   5.695   6.567 -1.5079 -0.7989  1.3229
   93SAPC   H2Y 8980   0.826   5.862   6.527  0.5086 -0.0386  2.2981
   93SAPC   C23 8981   0.669   6.167   6.615  0.2425  0.4075  0.2800
   93SAPC   H3R 8982   0.606   6.235   6.553 -1.0727 -0.7014  0.3595
   93SAPC   H3S 8983   0.608   6.075   6.625  0.2239  0.3183 -0.5694
   93SAPC   C24 8984   0.796   6.142   6.521  0.1303 -0.4864 -0.6091
   93SAPC   H4R 8985   0.777   6.084   6.428  0.3843  0.4224 -1.2427
   93SAPC   H4S 8986   0.860   6.066   6.571  1.8256  0.6084 -1.0277
   93SAPC   C25 8987   0.881   6.271   6.511  0.0807  0.1470 -0.1417
   93SAPC   H5R 8988   0.934   6.288   6.606  0.3018  0.8806 -0.3922
   93SAPC   C26 8989   0.876   6.357   6.412 -0.2266 -0.4093  1.3630
   93SAPC   H6R 8990   0.939   6.447   6.406 -1.0237  0.0494 -1.7980
   93SAPC   C27 8991   0.801   6.334   6.282 -0.1293  0.1620  0.2289
   93SAPC   H7R 8992   0.785   6.430   6.229 -0.8642  1.0472  1.9646
   93SAPC   H7S 8993   0.704   6.290   6.313  0.3386 -0.9104  0.2248
   93SAPC   C28 8994   0.849   6.235   6.187 -0.3053 -0.0331  0.5565
   93SAPC   H8R 8995   0.928   6.171   6.228 -1.1601  0.1363  2.5893
   93SAPC   C29 8996   0.832   6.238   6.055 -0.6206  0.0028  0.0261
   93SAPC   H9R 8997   0.868   6.146   6.007 -2.8015 -2.2148  2.2633
   93SAPC  C210 8998   0.743   6.326   5.974  0.2830 -1.0878 -0.0309
   93SAPC  H10R 8999   0.703   6.398   6.048  1.4150 -1.5076  1.0253
   93SAPC  H10S 9000   0.650   6.276   5.939 -0.2504 -0.6505  0.7329
   93SAPC  C211 9001   0.811   6.409   5.865 -0.2689  0.3067  0.3618
   93SAPC  H11R 9002   0.906   6.460   5.887  0.9042 -1.4415 -0.4094
   93SAPC  C212 9003   0.781   6.400   5.733  0.8934  0.2355 -0.0868
   93SAPC  H12R 9004   0.843   6.466   5.670  3.1550 -1.0496  0.6837
   93SAPC  C213 9005   0.658   6.332   5.673 -0.7053 -0.2367  0.0456
   93SAPC  H13R 9006   0.598   6.405   5.615 -2.5162 -0.2309  1.7962
   93SAPC  H13S 9007   0.582   6.292   5.743 -1.5629  0.2726 -0.5749
   93SAPC  C214 9008   0.705   6.212   5.592  0.6012 -0.4276 -0.3199
   93SAPC  H14R 9009   0.774   6.143   5.644 -2.7055 -2.3904  1.9057
   93SAPC  C215 9010   0.646   6.174   5.478  0.5754  0.1002  0.1616
   93SAPC  H15R 9011   0.689   6.083   5.434 -0.3850 -1.6936  2.7164
   93SAPC  C216 9012   0.540   6.243   5.389  0.5227 -0.5150 -0.1399
   93SAPC  H16R 9013   0.501   6.328   5.450 -0.1533 -0.8930 -0.0381
   93SAPC  H16S 9014   0.450   6.181   5.370 -0.6674  0.5269  1.7378
   93SAPC  C217 9015   0.595   6.316   5.270  0.7111 -0.6898 -0.1528
   93SAPC  H17R 9016   0.688   6.370   5.298  0.4637 -0.3022 -0.0675
   93SAPC  H17S 9017   0.518   6.386   5.232 -0.6215 -2.4701 -0.8640
   93SAPC  C218 9018   0.624   6.212   5.160  0.3783  0.3218  0.4052
   93SAPC  H18R 9019   0.545   6.136   5.145  1.4583 -0.8153  0.3002
   93SAPC  H18S 9020   0.712   6.149   5.187  1.3747  1.5183  0.0476
   93SAPC  C219 9021   0.664   6.276   5.022 -0.5603 -0.7240 -0.1659
   93SAPC  H19R 9022   0.720   6.199   4.964 -1.3964 -0.9519 -0.6832
   93SAPC  H19S 9023   0.734   6.356   5.056 -2.7936  0.4530  1.9871
   93SAPC  C220 9024   0.547   6.326   4.937  0.3306  0.4924 -0.1687
   93SAPC  H20R 9025   0.484   6.238   4.911  0.2140  0.1237  1.3012
   93SAPC  H20S 9026   0.588   6.376   4.846 -1.8003  2.1352 -0.3182
   93SAPC  H20T 9027   0.488   6.394   5.003  0.1448  1.2345 -1.0658
   93SAPC   C33 9028   0.718   5.726   6.393 -0.8074  0.6593  0.1229
   93SAPC   H3X 9029   0.644   5.800   6.357  0.9630  1.2482 -2.6662
   93SAPC   H3Y 9030   0.674   5.625   6.410  0.4137  0.4375  2.3607
   93SAPC   C34 9031   0.830   5.734   6.282  0.5365 -0.7762  0.2971
   93SAPC   H4X 9032   0.916   5.667   6.300  1.5588  0.5167  0.4066
   93SAPC   H4Y 9033   0.849   5.844   6.284 -0.8574 -0.5295  1.3850
   93SAPC   C35 9034   0.780   5.711   6.144  0.0306  0.5749 -0.0761
   93SAPC   H5X 9035   0.689   5.767   6.113  1.1079  2.5089  0.1025
   93SAPC   H5Y 9036   0.748   5.605   6.128 -2.8061  1.4820 -1.2084
   93SAPC   C36 9037   0.895   5.750   6.046 -0.1585  0.4666  1.3531
   93SAPC   H6X 9038   0.992   5.702   6.071 -0.1101 -0.6565 -0.7622
   93SAPC   H6Y 9039   0.905   5.860   6.049 -3.4596  1.2303 -3.6294
   93SAPC   C37 9040   0.858   5.727   5.896 -1.1047  0.3231 -0.3841
   93SAPC   H7X 9041   0.768   5.784   5.867 -0.0459  2.0853 -0.3448
   93SAPC   H7Y 9042   0.830   5.620   5.886  0.2406 -0.0523 -0.3436
   93SAPC   C38 9043   0.966   5.763   5.796 -0.7365  0.1339 -0.3146
   93SAPC   H8X 9044   1.050   5.691   5.806 -0.8222  0.1921  1.0694
   93SAPC   H8Y 9045   1.010   5.860   5.825  2.6022 -0.8236 -1.7070
   93SAPC   C39 9046   0.909   5.767   5.651  1.3193  0.0594 -0.2828
   93SAPC   H9X 9047   0.837   5.851   5.642 -0.1322 -1.2209 -1.1102
   93SAPC   H9Y 9048   0.844   5.679   5.629  0.1591  0.6054  0.8233
   93SAPC  C310 9049   1.012   5.793   5.554  1.4044 -0.2429  0.1520
   93SAPC  H10X 9050   0.964   5.759   5.459  1.5750  1.4500 -0.5630
   93SAPC  H10Y 9051   1.103   5.730   5.563  2.1324  0.1864 -3.0233
   93SAPC  C311 9052   1.068   5.929   5.546  0.7958 -0.1623 -1.0247
   93SAPC  H11X 9053   1.104   5.960   5.646  0.3058 -1.5870 -0.3778
   93SAPC  H11Y 9054   0.987   6.005   5.534 -1.0676 -1.9593 -0.4246
   93SAPC  C312 9055   1.169   5.953   5.435  0.1855  0.4084  0.6585
   93SAPC  H12X 9056   1.270   5.916   5.464  0.8217  3.0727  2.1610
   93SAPC  H12Y 9057   1.178   6.064   5.431 -1.7205  0.5481 -2.2203
   93SAPC  C313 9058   1.124   5.910   5.292 -0.3302  0.3255 -0.0136
   93SAPC  H13X 9059   1.019   5.942   5.277 -0.7502 -1.1424 -0.4025
   93SAPC  H13Y 9060   1.112   5.801   5.274 -2.7408  0.9934 -3.3359
   93SAPC  C314 9061   1.209   5.965   5.180  0.0766 -0.7628  0.0591
   93SAPC  H14X 9062   1.205   6.075   5.168  0.1135 -0.5327  1.8067
   93SAPC  H14Y 9063   1.168   5.925   5.085 -0.7232  3.8052 -1.7522
   93SAPC  C315 9064   1.354   5.931   5.189 -0.0607 -0.3092 -0.6643
   93SAPC  H15X 9065   1.373   5.828   5.226  0.0452 -0.3732 -0.9013
   93SAPC  H15Y 9066   1.415   5.988   5.263 -0.6736 -0.8286  0.2732
   93SAPC  C316 9067   1.434   5.940   5.057  0.0606  1.1032 -0.0239
   93SAPC  H16X 9068   1.393   5.861   4.990  1.5535 -0.6505  1.0421
   93SAPC  H16Y 9069   1.538   5.910   5.084 -0.6654 -1.6039  0.0534
   93SAPC  C317 9070   1.418   6.070   4.979 -0.1256 -0.6753  0.0354
   93SAPC  H17X 9071   1.316   6.077   4.935  0.0815 -0.4322 -0.4064
   93SAPC  H17Y 9072   1.481   6.068   4.888  0.0415  1.4787  0.0580
   93SAPC  C318 9073   1.458   6.191   5.053 -0.0479  0.3856 -0.3943
   93SAPC  H18X 9074   1.384   6.206   5.135  0.4255 -1.2961  0.3874
   93SAPC  H18Y 9075   1.443   6.279   4.987 -0.5167 -0.5807 -1.6179
   93SAPC  H18Z 9076   1.560   6.172   5.092  0.4451  0.2595 -1.7054
   94SAPC     N 9077   6.587   4.309   7.123  0.3340 -1.0703  0.3223
   94SAPC   C12 9078   6.535   4.181   7.073 -0.9681  0.1319  0.0280
   94SAPC  H12A 9079   6.545   4.105   7.149 -0.7717  0.7782  0.6601
   94SAPC  H12B 9080   6.610   4.146   7.003 -0.2588 -0.6348  1.1418
   94SAPC   C13 9081   6.729   4.281   7.170  0.2262  0.1789  0.3341
   94SAPC  H13A 9082   6.735   4.202   7.243  0.7901  2.2485  2.6204
   94SAPC  H13B 9083   6.794   4.254   7.088 -0.4210  1.9074 -0.8198
   94SAPC  H13C 9084   6.774   4.368   7.214  0.9682  1.1501 -2.1659
   94SAPC   C14 9085   6.586   4.419   7.022 -0.3471  0.2110 -0.0502
   94SAPC  H14A 9086   6.595   4.519   7.063 -3.6420  0.6367 -0.0727
   94SAPC  H14B 9087   6.666   4.407   6.950 -2.0952 -1.0321 -1.8758
   94SAPC  H14C 9088   6.499   4.419   6.958 -1.3655  1.3285  1.2594
   94SAPC   C15 9089   6.494   4.355   7.234  0.6580  0.2031 -0.4343
   94SAPC  H15A 9090   6.533   4.449   7.271 -0.1785  0.6840 -0.7530
   94SAPC  H15B 9091   6.395   4.387   7.205 -0.5310 -0.6486  2.3515
   94SAPC  H15C 9092   6.486   4.291   7.320  1.4756  1.0933  0.3332
   94SAPC   C11 9093   6.394   4.173   7.015  0.4037 -0.5966  0.0779
   94SAPC  H11A 9094   6.392   4.074   6.965  1.6889 -0.4182 -0.3540
   94SAPC  H11B 9095   6.385   4.248   6.933 -1.7690 -1.5655 -0.6527
   94SAPC     P 9096   6.146   4.187   7.062 -0.6037 -0.1240 -0.1299
   94SAPC   O13 9097   6.118   4.054   7.014 -0.1888  0.1563  0.0228
   94SAPC   O14 9098   6.053   4.242   7.162 -0.3651  0.0113 -0.3207
   94SAPC   O12 9099   6.295   4.183   7.120 -0.4007  0.0516 -0.1665
   94SAPC   O11 9100   6.166   4.291   6.944 -0.2714 -0.3851  0.4853
   94SAPC    C1 9101   6.079   4.289   6.829  0.3162 -0.3147  0.2674
   94SAPC    HA 9102   6.124   4.349   6.747 -0.6285 -0.5454 -0.4410
   94SAPC    HB 9103   6.064   4.195   6.770  0.0361  0.7255 -1.3771
   94SAPC    C2 9104   5.935   4.335   6.857  0.2047  0.2315  0.1276
   94SAPC    HS 9105   5.890   4.266   6.932  0.8144 -0.4419 -0.1180
   94SAPC   O21 9106   5.860   4.342   6.736  0.3758  0.2282  0.6295
   94SAPC   C21 9107   5.798   4.224   6.700 -0.0937 -0.2439 -0.7293
   94SAPC   O22 9108   5.781   4.126   6.775  0.7023  0.7823  0.0499
   94SAPC   C22 9109   5.760   4.230   6.550 -0.2639  0.5144  0.6072
   94SAPC   H2R 9110   5.735   4.338   6.540  1.5408  0.7850 -2.1686
   94SAPC   H2S 9111   5.855   4.193   6.507 -0.1942  0.0729  1.1359
   94SAPC    C3 9112   5.936   4.475   6.934 -0.3806  0.0773  0.7855
   94SAPC    HX 9113   5.977   4.450   7.034 -1.4173  0.4933  1.3349
   94SAPC    HY 9114   5.828   4.502   6.937 -0.2498  0.5691  1.0429
   94SAPC   O31 9115   6.020   4.575   6.871 -0.4586 -0.1472 -0.0175
   94SAPC   C31 9116   5.974   4.637   6.765 -0.0343 -0.0159  0.8471
   94SAPC   O32 9117   5.858   4.622   6.725  0.2044  0.1138  0.4943
   94SAPC   C32 9118   6.074   4.732   6.703  0.6888 -0.7997 -0.2000
   94SAPC   H2X 9119   6.171   4.702   6.747  1.0655 -0.3539 -0.7135
   94SAPC   H2Y 9120   6.050   4.832   6.745  0.5457 -1.5982  1.7422
   94SAPC   C23 9121   5.635   4.140   6.525 -0.1025 -0.1995  0.0246
   94SAPC   H3R 9122   5.552   4.198   6.570 -1.8952 -1.9848 -0.8336
   94SAPC   H3S 9123   5.641   4.045   6.583  2.4547 -0.7210 -0.9680
   94SAPC   C24 9124   5.602   4.095   6.381 -0.0878 -0.5030 -0.5405
   94SAPC   H4R 9125   5.608   4.183   6.314  2.6464 -0.0414  0.1976
   94SAPC   H4S 9126   5.493   4.074   6.383 -0.3096  0.3229 -2.4936
   94SAPC   C25 9127   5.694   3.979   6.342  1.1116  0.3574 -0.0077
   94SAPC   H5R 9128   5.684   3.896   6.413  1.9649  0.9930  0.8721
   94SAPC   C26 9129   5.779   3.971   6.241  0.0629  0.3245  0.1847
   94SAPC   H6R 9130   5.819   3.871   6.223  0.0709  0.4243 -0.3539
   94SAPC   C27 9131   5.804   4.086   6.144 -0.4146  0.0015 -0.0678
   94SAPC   H7R 9132   5.913   4.099   6.130 -0.3832 -1.1431 -1.0312
   94SAPC   H7S 9133   5.779   4.180   6.197 -0.1548  0.3208 -0.5073
   94SAPC   C28 9134   5.724   4.089   6.021 -0.7412  0.4858  0.1131
   94SAPC   H8R 9135   5.623   4.132   6.027 -1.2631 -0.7640  0.7180
   94SAPC   C29 9136   5.772   4.031   5.906  0.8883 -0.1874 -0.0774
   94SAPC   H9R 9137   5.707   4.046   5.818  0.9327  1.9365  0.1982
   94SAPC  C210 9138   5.898   3.953   5.889  0.3448 -1.4347  0.3572
   94SAPC  H10R 9139   5.894   3.891   5.981 -3.1197 -1.9316 -0.0053
   94SAPC  H10S 9140   5.984   4.023   5.893 -1.3260  0.6853  0.8397
   94SAPC  C211 9141   5.910   3.867   5.769  0.3050  0.0578  0.4728
   94SAPC  H11R 9142   5.900   3.758   5.779 -0.6845  0.1878  1.0703
   94SAPC  C212 9143   5.937   3.918   5.651  0.3341  0.5512  0.4998
   94SAPC  H12R 9144   5.951   3.845   5.570  5.3684  1.0444  0.5712
   94SAPC  C213 9145   5.940   4.063   5.617  0.0090 -0.2157  0.2684
   94SAPC  H13R 9146   5.936   4.137   5.701  0.0635 -1.2778  1.2233
   94SAPC  H13S 9147   5.853   4.077   5.550 -0.8527  1.1237  1.5774
   94SAPC  C214 9148   6.068   4.084   5.541 -0.4465 -0.3319 -0.5393
   94SAPC  H14R 9149   6.155   4.068   5.606 -0.8536 -2.3490 -0.4415
   94SAPC  C215 9150   6.090   4.132   5.421  0.0388  0.3400  0.2464
   94SAPC  H15R 9151   6.192   4.156   5.388  1.0263 -3.3803  0.1820
   94SAPC  C216 9152   5.989   4.167   5.312 -0.1503  0.0179  0.0229
   94SAPC  H16R 9153   5.893   4.115   5.335 -0.9066  1.3573 -0.0137
   94SAPC  H16S 9154   6.021   4.138   5.210 -0.4665 -1.5775  0.3477
   94SAPC  C217 9155   5.952   4.323   5.308  0.1505 -0.1614 -0.0147
   94SAPC  H17R 9156   6.047   4.380   5.297 -0.1002  0.4942  1.0400
   94SAPC  H17S 9157   5.917   4.357   5.407  0.9506 -1.9432  0.9320
   94SAPC  C218 9158   5.843   4.347   5.200  0.1695  0.2582  0.3244
   94SAPC  H18R 9159   5.747   4.304   5.235  0.8581 -2.3813 -0.7735
   94SAPC  H18S 9160   5.859   4.288   5.107  0.6070 -0.1123  0.6253
   94SAPC  C219 9161   5.825   4.494   5.158  0.7129 -0.0881  0.0072
   94SAPC  H19R 9162   5.797   4.560   5.244  0.6058 -0.1714  0.0353
   94SAPC  H19S 9163   5.737   4.491   5.090 -0.6348  1.1028  1.5965
   94SAPC  C220 9164   5.942   4.552   5.087 -0.4325  0.0624 -0.0497
   94SAPC  H20R 9165   6.033   4.568   5.148 -1.3595  0.6734  1.2182
   94SAPC  H20S 9166   5.908   4.654   5.058  2.3235  0.8547 -0.7695
   94SAPC  H20T 9167   5.967   4.504   4.990  1.5926  0.9673 -0.0154
   94SAPC   C33 9168   6.073   4.741   6.555 -0.0472  0.6541  0.3647
   94SAPC   H3X 9169   6.104   4.844   6.527  0.9673  0.2072 -0.2029
   94SAPC   H3Y 9170   5.967   4.736   6.522  0.1357  0.4164 -0.2045
   94SAPC   C34 9171   6.158   4.629   6.492 -0.2230  0.4718  0.4414
   94SAPC   H4X 9172   6.108   4.541   6.538 -0.3856  0.5539  0.4239
   94SAPC   H4Y 9173   6.267   4.638   6.511 -0.0128  0.4808 -0.6843
   94SAPC   C35 9174   6.130   4.627   6.344 -0.8222  0.1808  0.3410
   94SAPC   H5X 9175   6.022   4.641   6.322 -0.5732  0.5569 -0.6919
   94SAPC   H5Y 9176   6.138   4.522   6.309  0.6078  0.1221  0.7995
   94SAPC   C36 9177   6.214   4.733   6.275  0.5736  0.0099  0.0740
   94SAPC   H6X 9178   6.319   4.739   6.310  0.3182  0.0593  0.8515
   94SAPC   H6Y 9179   6.185   4.834   6.312 -1.0463 -1.6563  3.9064
   94SAPC   C37 9180   6.217   4.722   6.119  0.0062  0.3286 -0.3310
   94SAPC   H7X 9181   6.115   4.707   6.079 -0.4458  1.2432  0.4384
   94SAPC   H7Y 9182   6.271   4.628   6.096 -0.3779 -0.0152  0.1522
   94SAPC   C38 9183   6.279   4.836   6.035  0.4411  0.5131 -0.5192
   94SAPC   H8X 9184   6.379   4.868   6.071  0.3998  1.4880 -1.2183
   94SAPC   H8Y 9185   6.215   4.924   6.055 -2.3320 -1.4409 -0.3718
   94SAPC   C39 9186   6.306   4.806   5.884 -0.3155  0.0840  0.1464
   94SAPC   H9X 9187   6.203   4.785   5.846 -0.4546  2.3134 -0.8621
   94SAPC   H9Y 9188   6.377   4.722   5.872  0.9902  0.7272  2.6837
   94SAPC  C310 9189   6.348   4.926   5.805 -0.0110 -0.6497  0.2787
   94SAPC  H10X 9190   6.282   5.013   5.823  2.0059  1.5118 -2.0862
   94SAPC  H10Y 9191   6.331   4.906   5.698 -1.0198  1.7165 -0.0669
   94SAPC  C311 9192   6.500   4.966   5.821 -0.1790 -0.3626 -0.0682
   94SAPC  H11X 9193   6.570   4.890   5.781  1.6360  1.1780  0.0565
   94SAPC  H11Y 9194   6.523   4.979   5.929 -0.8068 -1.5434  0.2212
   94SAPC  C312 9195   6.522   5.092   5.732 -0.1072  0.1826 -0.2604
   94SAPC  H12X 9196   6.620   5.138   5.756 -0.5692  1.5920 -0.9460
   94SAPC  H12Y 9197   6.448   5.165   5.773 -0.2578 -0.4806  0.6918
   94SAPC  C313 9198   6.507   5.067   5.581 -0.0333 -0.5635  0.3561
   94SAPC  H13X 9199   6.413   5.017   5.551  0.5132 -1.4369  0.0631
   94SAPC  H13Y 9200   6.588   4.993   5.565  1.5828  1.3693 -0.7279
   94SAPC  C314 9201   6.533   5.184   5.489 -0.9535  0.8377  0.2133
   94SAPC  H14X 9202   6.641   5.203   5.469 -1.4465  2.4691 -1.0766
   94SAPC  H14Y 9203   6.491   5.274   5.540  0.8867  1.7293  0.2391
   94SAPC  C315 9204   6.454   5.162   5.360  0.4033  0.2300  0.4696
   94SAPC  H15X 9205   6.483   5.253   5.302 -2.7549  1.1374  0.0956
   94SAPC  H15Y 9206   6.345   5.175   5.375  0.2480 -0.4655 -0.0037
   94SAPC  C316 9207   6.493   5.038   5.266 -0.3587  0.5485  0.1365
   94SAPC  H16X 9208   6.430   5.037   5.175  0.0021 -2.4519 -0.1669
   94SAPC  H16Y 9209   6.457   4.951   5.326  0.0407  1.2590  1.4500
   94SAPC  C317 9210   6.647   5.033   5.253  0.2821  0.0919 -0.0176
   94SAPC  H17X 9211   6.700   5.039   5.350 -2.0542 -1.9186  1.5108
   94SAPC  H17Y 9212   6.663   5.122   5.188 -1.6477  1.5735  1.4128
   94SAPC  C318 9213   6.702   4.912   5.175 -0.0001 -0.4625  0.5404
   94SAPC  H18X 9214   6.806   4.877   5.196 -0.4526 -0.6184  2.7378
   94SAPC  H18Y 9215   6.687   4.931   5.066  0.0499  0.7096  0.7316
   94SAPC  H18Z 9216   6.635   4.828   5.203 -0.2051  0.0751  1.6972
   95SAPC     N 9217   3.391   5.317   2.432  0.2376 -0.1118 -0.1198
   95SAPC   C12 9218   3.362   5.207   2.541 -0.4353  0.4047  0.0305
   95SAPC  H12A 9219   3.451   5.156   2.572 -0.3719  0.9290  0.7446
   95SAPC  H12B 9220   3.302   5.132   2.492  1.2051 -1.1670  0.3139
   95SAPC   C13 9221   3.262   5.391   2.402  0.1526  0.8076  0.9914
   95SAPC  H13A 9222   3.182   5.324   2.376 -0.7765  1.2336  2.5937
   95SAPC  H13B 9223   3.245   5.446   2.494 -1.2816 -0.7916  1.7315
   95SAPC  H13C 9224   3.268   5.472   2.330  0.0847 -1.2712 -1.4875
   95SAPC   C14 9225   3.496   5.409   2.475 -0.0357  0.1640 -0.1654
   95SAPC  H14A 9226   3.481   5.454   2.572 -0.5647  0.3953 -0.3509
   95SAPC  H14B 9227   3.597   5.370   2.475 -0.1768 -0.2189  0.3385
   95SAPC  H14C 9228   3.507   5.494   2.409  1.1314  0.4861  0.4161
   95SAPC   C15 9229   3.430   5.247   2.305 -0.2380 -0.0779  0.0825
   95SAPC  H15A 9230   3.520   5.191   2.328  0.2286  0.8819  0.6557
   95SAPC  H15B 9231   3.366   5.179   2.250  0.7532 -1.7328  0.8768
   95SAPC  H15C 9232   3.456   5.320   2.231 -1.8629 -1.2846 -1.7848
   95SAPC   C11 9233   3.288   5.244   2.670 -0.0843  0.1264 -0.1397
   95SAPC  H11A 9234   3.336   5.335   2.713 -0.0726 -0.9519  2.3061
   95SAPC  H11B 9235   3.308   5.167   2.748 -0.7037 -1.5988 -1.6373
   95SAPC     P 9236   3.047   5.155   2.650 -0.3079 -0.1215  0.1334
   95SAPC   O13 9237   2.911   5.210   2.619  0.0782  0.5962  0.0077
   95SAPC   O14 9238   3.100   5.052   2.557 -0.7681 -0.0556  0.1062
   95SAPC   O12 9239   3.153   5.279   2.649  0.0737 -0.7197  0.3852
   95SAPC   O11 9240   3.042   5.099   2.799 -0.1957  0.3222  0.0325
   95SAPC    C1 9241   3.063   5.172   2.915  0.0305 -0.3997 -0.3008
   95SAPC    HA 9242   3.115   5.269   2.895  1.4757 -1.1008 -0.1036
   95SAPC    HB 9243   2.969   5.191   2.971  0.5172 -1.0456  0.7788
   95SAPC    C2 9244   3.159   5.097   3.016  0.2459  0.0893  0.7155
   95SAPC    HS 9245   3.225   5.041   2.947 -1.5097 -1.4699  0.2209
   95SAPC   O21 9246   3.080   5.017   3.103 -0.6498  0.0286 -0.2839
   95SAPC   C21 9247   3.144   4.919   3.162 -0.3821 -0.0979  0.7049
   95SAPC   O22 9248   3.260   4.882   3.135  0.1753 -0.3230 -0.0904
   95SAPC   C22 9249   3.061   4.866   3.276  0.4617 -0.3332  0.3425
   95SAPC   H2R 9250   2.977   4.932   3.305  1.3045  0.7774  0.3472
   95SAPC   H2S 9251   3.024   4.769   3.236  0.6633 -0.6610  0.9357
   95SAPC    C3 9252   3.258   5.192   3.081 -0.0176 -0.4485 -0.1499
   95SAPC    HX 9253   3.325   5.245   3.010  0.2251  1.2301  1.2735
   95SAPC    HY 9254   3.321   5.135   3.152 -2.1997 -1.1768  1.3211
   95SAPC   O31 9255   3.184   5.289   3.154  0.0449  0.0842  0.2507
   95SAPC   C31 9256   3.190   5.416   3.110  0.1194  0.0644  0.1452
   95SAPC   O32 9257   3.248   5.457   3.011  0.1172  0.0583 -0.2425
   95SAPC   C32 9258   3.119   5.502   3.211  0.0892 -0.8052 -0.0810
   95SAPC   H2X 9259   3.011   5.516   3.192  0.0248  1.2829  1.4774
   95SAPC   H2Y 9260   3.170   5.600   3.197  0.1076 -0.9013 -0.7296
   95SAPC   C23 9261   3.145   4.832   3.401  0.7603 -0.4069 -0.0997
   95SAPC   H3R 9262   3.216   4.754   3.366  1.8481  0.8645 -0.8286
   95SAPC   H3S 9263   3.076   4.793   3.479 -0.0557 -0.3251 -0.7718
   95SAPC   C24 9264   3.240   4.939   3.460  0.3329 -0.2998 -0.4937
   95SAPC   H4R 9265   3.176   5.025   3.490 -0.1023 -0.6614 -0.3582
   95SAPC   H4S 9266   3.310   4.978   3.384  0.4843  1.5061  0.5142
   95SAPC   C25 9267   3.324   4.879   3.576  0.9129  0.1298  0.3452
   95SAPC   H5R 9268   3.421   4.839   3.542  1.7990  1.0896  1.6269
   95SAPC   C26 9269   3.280   4.868   3.708  0.6329  0.3018  0.6220
   95SAPC   H6R 9270   3.344   4.828   3.787  1.1028 -0.5589 -0.1676
   95SAPC   C27 9271   3.143   4.908   3.752  0.9115 -0.0904 -0.2724
   95SAPC   H7R 9272   3.075   4.921   3.665 -2.1062 -1.4693  1.7220
   95SAPC   H7S 9273   3.139   5.007   3.802 -1.3021  0.0041 -0.5497
   95SAPC   C28 9274   3.082   4.802   3.831 -0.2313 -0.0559 -0.7503
   95SAPC   H8R 9275   3.039   4.716   3.777 -0.9199 -0.6921  0.7665
   95SAPC   C29 9276   3.078   4.806   3.965  0.2075  0.1320 -0.5117
   95SAPC   H9R 9277   3.030   4.726   4.024 -0.4019  1.2131  0.5016
   95SAPC  C210 9278   3.135   4.914   4.053  0.2263 -0.1575  0.2462
   95SAPC  H10R 9279   3.054   4.944   4.122  1.7732  2.5992  1.0121
   95SAPC  H10S 9280   3.157   5.011   4.003 -0.6644 -0.8993 -1.7203
   95SAPC  C211 9281   3.250   4.861   4.130  0.3096  0.2190  0.2170
   95SAPC  H11R 9282   3.339   4.872   4.066 -0.1031 -0.2024 -0.4385
   95SAPC  C212 9283   3.247   4.826   4.258  0.3550 -1.1714  0.0516
   95SAPC  H12R 9284   3.331   4.774   4.306 -0.4334 -2.3813  0.1555
   95SAPC  C213 9285   3.129   4.839   4.355 -0.5260 -0.5422 -0.1462
   95SAPC  H13R 9286   3.061   4.751   4.360 -1.5496  0.2878  1.1271
   95SAPC  H13S 9287   3.052   4.916   4.333  0.2317  0.4586  0.6468
   95SAPC  C214 9288   3.174   4.880   4.493 -0.3578 -0.1273  0.3755
   95SAPC  H14R 9289   3.191   4.988   4.502 -0.9855  0.1989 -1.8011
   95SAPC  C215 9290   3.168   4.806   4.605  0.0774  0.0342 -0.4135
   95SAPC  H15R 9291   3.200   4.852   4.699  0.5174 -1.5615  0.2478
   95SAPC  C216 9292   3.132   4.660   4.610 -1.4223 -0.0012 -0.3724
   95SAPC  H16R 9293   3.218   4.593   4.588 -1.3608  0.5980 -2.1326
   95SAPC  H16S 9294   3.047   4.637   4.542 -0.8367 -1.9077 -0.5254
   95SAPC  C217 9295   3.108   4.615   4.752  0.2821 -0.1217 -1.0131
   95SAPC  H17R 9296   3.055   4.517   4.744  0.7144 -0.4295 -0.1959
   95SAPC  H17S 9297   3.039   4.683   4.805 -0.4902 -1.6222 -0.0108
   95SAPC  C218 9298   3.228   4.608   4.850 -0.5988 -0.0969 -0.0565
   95SAPC  H18R 9299   3.188   4.561   4.942  0.7346  0.9905  1.1457
   95SAPC  H18S 9300   3.272   4.706   4.881  0.5257 -0.3167 -0.8659
   95SAPC  C219 9301   3.350   4.522   4.806  0.0721 -0.4607  0.3633
   95SAPC  H19R 9302   3.421   4.567   4.734 -1.3878  0.3161 -0.6278
   95SAPC  H19S 9303   3.308   4.431   4.760  0.8719 -0.0796 -1.1796
   95SAPC  C220 9304   3.443   4.489   4.925  0.4477  0.9064 -0.5582
   95SAPC  H20R 9305   3.530   4.424   4.901  1.2746  2.2759 -1.4229
   95SAPC  H20S 9306   3.399   4.433   5.010 -0.0339  2.0457 -0.0394
   95SAPC  H20T 9307   3.478   4.585   4.969  0.9215 -0.1719  1.5332
   95SAPC   C33 9308   3.127   5.456   3.359  0.3658  0.0998  0.0910
   95SAPC   H3X 9309   3.233   5.435   3.382  0.9877  2.9300  0.1446
   95SAPC   H3Y 9310   3.081   5.354   3.362  0.7489 -0.2487 -2.9375
   95SAPC   C34 9311   3.068   5.560   3.458  0.9140 -0.3227 -0.6775
   95SAPC   H4X 9312   2.961   5.534   3.476  1.5638 -2.5206  0.3724
   95SAPC   H4Y 9313   3.073   5.656   3.403  1.1576  0.6481  0.9598
   95SAPC   C35 9314   3.136   5.564   3.590  0.3029 -0.4780 -0.6383
   95SAPC   H5X 9315   3.227   5.628   3.590 -0.6517  0.9711  0.7993
   95SAPC   H5Y 9316   3.175   5.463   3.613  3.1879  1.1175  2.2304
   95SAPC   C36 9317   3.042   5.606   3.704  0.4646  0.2258 -0.1231
   95SAPC   H6X 9318   2.958   5.533   3.714  0.1365  0.7712  1.4373
   95SAPC   H6Y 9319   2.986   5.698   3.677  0.5450 -0.4096 -2.7602
   95SAPC   C37 9320   3.111   5.602   3.842 -0.6063  0.7956 -0.6830
   95SAPC   H7X 9321   3.208   5.655   3.831 -0.0725 -0.1930 -0.8744
   95SAPC   H7Y 9322   3.133   5.498   3.873 -0.3494  1.2265  0.6418
   95SAPC   C38 9323   3.028   5.683   3.942  0.1565 -0.7168 -0.4335
   95SAPC   H8X 9324   2.932   5.628   3.958  0.2056 -0.8433 -0.5688
   95SAPC   H8Y 9325   3.007   5.786   3.907 -0.7402 -0.6929  0.1403
   95SAPC   C39 9326   3.089   5.704   4.083  0.2281  0.0967  0.6385
   95SAPC   H9X 9327   3.017   5.764   4.143 -0.5819 -1.5110  1.3253
   95SAPC   H9Y 9328   3.182   5.766   4.073  0.1333  0.0595 -0.6876
   95SAPC  C310 9329   3.120   5.567   4.147 -0.0724  0.4057  0.2052
   95SAPC  H10X 9330   3.215   5.525   4.107  1.0144  2.8097  0.0803
   95SAPC  H10Y 9331   3.031   5.509   4.114 -0.0368  1.5538 -2.1049
   95SAPC  C311 9332   3.137   5.585   4.295  0.4362 -0.5598 -0.4773
   95SAPC  H11X 9333   3.155   5.492   4.352  0.8711  0.0042  0.3288
   95SAPC  H11Y 9334   3.038   5.611   4.338  0.5776 -0.7108 -0.0564
   95SAPC  C312 9335   3.227   5.700   4.338 -0.3572 -0.3269 -0.2218
   95SAPC  H12X 9336   3.197   5.805   4.317  0.2896 -0.2785 -0.9299
   95SAPC  H12Y 9337   3.329   5.688   4.296 -0.2226  1.0105 -0.3259
   95SAPC  C313 9338   3.238   5.700   4.492  0.7517 -0.3824 -0.1881
   95SAPC  H13X 9339   3.289   5.610   4.533 -0.9912 -1.5203 -0.4073
   95SAPC  H13Y 9340   3.132   5.703   4.527  0.5676  0.7122 -0.8166
   95SAPC  C314 9341   3.315   5.819   4.551  0.3467  0.0372  0.2978
   95SAPC  H14X 9342   3.270   5.915   4.518  2.1423  0.4189 -1.2303
   95SAPC  H14Y 9343   3.416   5.805   4.507 -0.0555 -1.9341 -0.1181
   95SAPC  C315 9344   3.311   5.833   4.705  0.3075 -0.4805 -0.7933
   95SAPC  H15X 9345   3.205   5.836   4.738  0.6626  0.6755  0.3268
   95SAPC  H15Y 9346   3.338   5.937   4.733 -3.3275  0.3196  0.2895
   95SAPC  C316 9347   3.380   5.721   4.789 -0.1933 -0.0842 -0.5583
   95SAPC  H16X 9348   3.480   5.695   4.747  1.2205  1.7624  1.4568
   95SAPC  H16Y 9349   3.324   5.625   4.787  0.7857 -0.6663 -2.3250
   95SAPC  C317 9350   3.425   5.760   4.928 -0.2532 -0.2365 -0.0508
   95SAPC  H17X 9351   3.345   5.830   4.960  0.8133  2.5772 -3.0063
   95SAPC  H17Y 9352   3.514   5.823   4.905  1.0532 -2.1281 -0.3582
   95SAPC  C318 9353   3.467   5.655   5.027 -0.3753  1.1035  0.0233
   95SAPC  H18X 9354   3.386   5.583   5.052  1.1575 -0.6693  0.0615
   95SAPC  H18Y 9355   3.520   5.700   5.114 -1.4110  1.0843  0.6836
   95SAPC  H18Z 9356   3.538   5.578   4.990 -1.0406 -0.2056  1.3463
   96SAPC     N 9357   3.157   6.059   2.758 -0.5283  0.1859 -0.3006
   96SAPC   C12 9358   3.265   6.116   2.665  0.4409 -0.0731  0.2942
   96SAPC  H12A 9359   3.214   6.153   2.577  2.1611  1.1618 -0.2369
   96SAPC  H12B 9360   3.337   6.037   2.646  0.3481 -0.3691  1.1311
   96SAPC   C13 9361   3.211   6.016   2.893 -0.2911  1.1348 -0.1208
   96SAPC  H13A 9362   3.279   5.934   2.876 -1.1722 -0.3243  2.6921
   96SAPC  H13B 9363   3.266   6.086   2.954 -1.3964  0.0994  2.1737
   96SAPC  H13C 9364   3.144   5.971   2.965  1.2401 -0.0605  0.6223
   96SAPC   C14 9365   3.052   6.160   2.785 -0.2725  0.7367  0.0749
   96SAPC  H14A 9366   3.106   6.252   2.804  2.2682 -0.3699 -1.2293
   96SAPC  H14B 9367   2.992   6.184   2.698 -2.0863 -1.8613  0.4895
   96SAPC  H14C 9368   2.982   6.132   2.862 -0.6146  0.6032 -0.2797
   96SAPC   C15 9369   3.098   5.940   2.702 -0.0011  0.4712 -0.3742
   96SAPC  H15A 9370   3.170   5.860   2.701 -0.8065 -0.3504  1.8524
   96SAPC  H15B 9371   3.018   5.900   2.762 -0.8179  0.6569 -1.3283
   96SAPC  H15C 9372   3.061   5.957   2.602  0.7300  1.4752 -0.4997
   96SAPC   C11 9373   3.337   6.245   2.715  0.6083  0.3266 -0.2475
   96SAPC  H11A 9374   3.422   6.270   2.648 -0.8868 -0.8338 -2.7309
   96SAPC  H11B 9375   3.368   6.220   2.819 -2.0235  2.0488  1.0644
   96SAPC     P 9376   3.294   6.490   2.779  0.1750  0.1382  0.0697
   96SAPC   O13 9377   3.411   6.537   2.699  0.6301  0.1986 -0.1333
   96SAPC   O14 9378   3.177   6.582   2.789  0.0155  0.3531 -0.2231
   96SAPC   O12 9379   3.243   6.351   2.720 -0.1324  0.4430 -0.5561
   96SAPC   O11 9380   3.343   6.457   2.926  0.0421 -0.4639  0.2359
   96SAPC    C1 9381   3.408   6.552   3.012  0.5900 -0.0744  0.4364
   96SAPC    HA 9382   3.505   6.586   2.970  0.5745 -1.5894 -0.9475
   96SAPC    HB 9383   3.341   6.639   3.029  0.2111 -0.3646  0.4613
   96SAPC    C2 9384   3.444   6.487   3.149  0.2567 -0.1743  0.4996
   96SAPC    HS 9385   3.519   6.411   3.118  1.8812  1.1640  1.0271
   96SAPC   O21 9386   3.332   6.431   3.218 -0.4921 -0.0090 -0.0660
   96SAPC   C21 9387   3.294   6.305   3.195  0.1635  0.0665  0.9469
   96SAPC   O22 9388   3.352   6.233   3.114 -0.3385  0.7228  0.0954
   96SAPC   C22 9389   3.172   6.275   3.267  0.1168 -0.2967 -0.7669
   96SAPC   H2R 9390   3.090   6.347   3.246  0.4553 -0.1015 -1.4468
   96SAPC   H2S 9391   3.137   6.171   3.250 -0.1640 -0.3493  0.0839
   96SAPC    C3 9392   3.511   6.584   3.243 -0.5674 -0.7366 -0.4386
   96SAPC    HX 9393   3.433   6.642   3.296 -0.4597 -1.2894  0.3324
   96SAPC    HY 9394   3.580   6.643   3.179 -0.1582 -1.4426 -0.6671
   96SAPC   O31 9395   3.597   6.512   3.333  0.0833 -0.4648  0.1389
   96SAPC   C31 9396   3.705   6.454   3.289  0.5487 -0.0930  0.2816
   96SAPC   O32 9397   3.742   6.449   3.168  0.0331 -0.1037 -0.3520
   96SAPC   C32 9398   3.779   6.386   3.399  0.0107 -0.1039 -0.3736
   96SAPC   H2X 9399   3.713   6.306   3.439  0.6222 -1.3976 -1.8662
   96SAPC   H2Y 9400   3.800   6.465   3.474 -0.4707  1.9953 -2.3575
   96SAPC   C23 9401   3.182   6.282   3.423  0.6992 -0.4996 -0.1593
   96SAPC   H3R 9402   3.080   6.272   3.464  0.5299 -0.9236 -0.6718
   96SAPC   H3S 9403   3.214   6.384   3.453  0.0078 -0.5564  0.8227
   96SAPC   C24 9404   3.278   6.183   3.498  0.0552 -0.3848 -0.0194
   96SAPC   H4R 9405   3.293   6.231   3.597  0.7321 -0.1144 -0.2426
   96SAPC   H4S 9406   3.377   6.184   3.449  0.6616 -2.4287  1.0739
   96SAPC   C25 9407   3.213   6.046   3.498  0.4096  0.4428 -0.0422
   96SAPC   H5R 9408   3.229   5.986   3.407  0.8328  0.8160 -0.2199
   96SAPC   C26 9409   3.149   5.984   3.600 -0.6411  0.2268 -0.2599
   96SAPC   H6R 9410   3.130   5.878   3.577  0.7248  0.1942 -1.4284
   96SAPC   C27 9411   3.145   6.036   3.742 -0.1789  0.6459  0.2076
   96SAPC   H7R 9412   3.042   6.016   3.778  0.0114 -2.2277 -0.5744
   96SAPC   H7S 9413   3.152   6.146   3.735  0.7208  0.5741 -0.1324
   96SAPC   C28 9414   3.247   5.978   3.846  0.3777  0.5609  0.2261
   96SAPC   H8R 9415   3.310   5.896   3.811  1.2534  0.9923  0.7550
   96SAPC   C29 9416   3.269   6.017   3.975  0.4023  0.1871  0.4381
   96SAPC   H9R 9417   3.351   5.968   4.029  1.0106  0.0050 -0.6112
   96SAPC  C210 9418   3.195   6.125   4.051  0.3647 -0.6135 -0.2745
   96SAPC  H10R 9419   3.154   6.072   4.139 -1.6793 -1.6026 -1.7409
   96SAPC  H10S 9420   3.110   6.171   3.996 -0.8281 -1.9658  0.3741
   96SAPC  C211 9421   3.287   6.242   4.095 -0.1400  0.4832 -0.0532
   96SAPC  H11R 9422   3.327   6.311   4.019  1.3192 -0.0261  0.2180
   96SAPC  C212 9423   3.329   6.270   4.218  0.6797 -0.2457 -0.9133
   96SAPC  H12R 9424   3.391   6.359   4.239 -2.9524  2.0985  0.8846
   96SAPC  C213 9425   3.299   6.188   4.345 -0.6138 -0.0443 -0.0712
   96SAPC  H13R 9426   3.245   6.091   4.335  0.6874 -0.8770  0.7157
   96SAPC  H13S 9427   3.224   6.245   4.403 -1.8138 -1.1174 -0.5030
   96SAPC  C214 9428   3.420   6.169   4.434 -0.1862  0.4021  0.4869
   96SAPC  H14R 9429   3.499   6.109   4.386  0.9186  2.3025 -0.1880
   96SAPC  C215 9430   3.423   6.199   4.563  0.5478  0.5100 -0.0331
   96SAPC  H15R 9431   3.513   6.175   4.622 -0.8179  0.1994  2.0531
   96SAPC  C216 9432   3.325   6.255   4.653 -0.1377 -0.5593 -0.1917
   96SAPC  H16R 9433   3.304   6.203   4.749 -0.2964 -0.7614 -0.3345
   96SAPC  H16S 9434   3.226   6.271   4.604 -0.7606  1.4063  1.5436
   96SAPC  C217 9435   3.366   6.398   4.686 -0.4280  0.1460 -0.0371
   96SAPC  H17R 9436   3.285   6.437   4.752  1.6355  0.2840  2.6167
   96SAPC  H17S 9437   3.378   6.461   4.595  2.6409 -0.9716 -0.5492
   96SAPC  C218 9438   3.492   6.417   4.770 -0.0928  0.3947 -0.3410
   96SAPC  H18R 9439   3.581   6.377   4.718 -1.1686 -2.2070 -0.3258
   96SAPC  H18S 9440   3.494   6.368   4.870 -0.1859 -0.6137 -0.8255
   96SAPC  C219 9441   3.503   6.564   4.812  0.4203 -0.6130  0.5580
   96SAPC  H19R 9442   3.410   6.591   4.867  1.0207  2.7338  0.1378
   96SAPC  H19S 9443   3.506   6.633   4.726 -0.2999  0.3228  1.2627
   96SAPC  C220 9444   3.627   6.596   4.884  0.3563  0.3357 -0.4541
   96SAPC  H20R 9445   3.658   6.525   4.964  1.2504 -0.4933 -1.4932
   96SAPC  H20S 9446   3.638   6.701   4.918 -0.9453  0.7077 -1.1164
   96SAPC  H20T 9447   3.714   6.591   4.815  3.3529  1.1078  2.9871
   96SAPC   C33 9448   3.922   6.325   3.371  0.1919 -0.2974  0.6964
   96SAPC   H3X 9449   3.997   6.396   3.329 -0.9364  0.6992  0.3125
   96SAPC   H3Y 9450   3.913   6.246   3.293  0.0503  1.6696 -1.4151
   96SAPC   C34 9451   3.986   6.270   3.498 -0.6725  0.2346  0.4386
   96SAPC   H4X 9452   3.933   6.177   3.527 -0.7935  0.7193  1.8523
   96SAPC   H4Y 9453   3.971   6.341   3.582 -2.1447 -1.5673  1.8074
   96SAPC   C35 9454   4.126   6.230   3.472  0.5508  0.3266 -0.3968
   96SAPC   H5X 9455   4.188   6.321   3.462  0.7513  0.1451 -0.7933
   96SAPC   H5Y 9456   4.128   6.176   3.375 -4.5320 -2.6692  0.7588
   96SAPC   C36 9457   4.194   6.156   3.587 -0.9104  0.1739 -0.6856
   96SAPC   H6X 9458   4.303   6.159   3.567 -0.8917 -0.5932 -0.7272
   96SAPC   H6Y 9459   4.169   6.048   3.588 -1.8983  0.3898 -0.2642
   96SAPC   C37 9460   4.176   6.220   3.728  0.0744  0.1279 -0.2254
   96SAPC   H7X 9461   4.072   6.222   3.767  1.0169  1.7300  2.5198
   96SAPC   H7Y 9462   4.219   6.322   3.729  2.1891 -0.6923  1.8560
   96SAPC   C38 9463   4.261   6.129   3.823 -0.1035 -0.4201 -0.0048
   96SAPC   H8X 9464   4.367   6.147   3.796 -0.6825  1.5836 -1.1497
   96SAPC   H8Y 9465   4.243   6.021   3.806 -1.4502 -0.2834  0.4216
   96SAPC   C39 9466   4.237   6.178   3.972  0.2217  0.3890 -0.5901
   96SAPC   H9X 9467   4.127   6.165   3.986  0.5518 -2.1539  0.2178
   96SAPC   H9Y 9468   4.260   6.287   3.977 -0.6219  0.5357  3.5729
   96SAPC  C310 9469   4.300   6.100   4.086  0.4752 -0.7452  0.2635
   96SAPC  H10X 9470   4.404   6.081   4.052  0.0775 -0.9853 -0.8345
   96SAPC  H10Y 9471   4.251   6.002   4.107 -0.2843 -0.3046  0.6002
   96SAPC  C311 9472   4.310   6.177   4.218  0.4174 -0.9250  0.3819
   96SAPC  H11X 9473   4.373   6.266   4.195 -1.2138  0.0148 -0.5989
   96SAPC  H11Y 9474   4.370   6.109   4.282  2.8169  2.1523  1.6631
   96SAPC  C312 9475   4.185   6.211   4.302 -0.1728 -0.6887 -0.6425
   96SAPC  H12X 9476   4.119   6.122   4.303 -2.0026  0.5329  2.8616
   96SAPC  H12Y 9477   4.132   6.296   4.253  2.0718  1.7365  0.8283
   96SAPC  C313 9478   4.203   6.237   4.460 -0.0983  0.3103  0.0734
   96SAPC  H13X 9479   4.242   6.144   4.507 -2.5227 -1.9918 -2.0993
   96SAPC  H13Y 9480   4.102   6.264   4.497 -0.1010  0.5888 -0.1386
   96SAPC  C314 9481   4.300   6.350   4.491 -0.2638 -0.6886 -0.7209
   96SAPC  H14X 9482   4.248   6.445   4.468 -2.1653 -0.8568  2.3682
   96SAPC  H14Y 9483   4.396   6.350   4.434 -1.1336 -1.1730 -2.2342
   96SAPC  C315 9484   4.336   6.353   4.641 -0.4441  0.7550  0.2459
   96SAPC  H15X 9485   4.402   6.265   4.655 -0.5305  0.7264  0.4739
   96SAPC  H15Y 9486   4.242   6.356   4.700  0.2923 -2.4008  1.8138
   96SAPC  C316 9487   4.403   6.483   4.675 -0.1799 -0.4754  0.3264
   96SAPC  H16X 9488   4.340   6.564   4.634  0.3767  0.5111  1.3767
   96SAPC  H16Y 9489   4.500   6.480   4.620  0.9053 -2.4716  2.1993
   96SAPC  C317 9490   4.423   6.497   4.829  0.1412  0.3814  0.0184
   96SAPC  H17X 9491   4.322   6.498   4.874 -0.5163 -0.0697 -1.4071
   96SAPC  H17Y 9492   4.463   6.600   4.842  1.1266  0.4891 -3.0922
   96SAPC  C318 9493   4.515   6.395   4.896  0.0944 -0.1543 -0.1658
   96SAPC  H18X 9494   4.476   6.292   4.891 -3.3369  0.9536  1.1055
   96SAPC  H18Y 9495   4.519   6.413   5.006 -0.3079 -1.6118  0.1085
   96SAPC  H18Z 9496   4.616   6.398   4.849 -0.3734  0.0526 -1.1907
   97SAPC     N 9497   2.343   5.849   2.346 -0.4291  0.0972 -0.3021
   97SAPC   C12 9498   2.343   5.852   2.497 -0.6145 -0.2204 -0.7627
   97SAPC  H12A 9499   2.407   5.772   2.531 -0.7173  0.3614  0.8823
   97SAPC  H12B 9500   2.242   5.830   2.528  0.1704 -1.8107  0.8214
   97SAPC   C13 9501   2.256   5.960   2.288 -0.7913  0.0584  0.0925
   97SAPC  H13A 9502   2.289   6.052   2.334 -0.4224 -1.0072  2.0657
   97SAPC  H13B 9503   2.269   5.961   2.181  0.4310  0.3915  0.2262
   97SAPC  H13C 9504   2.151   5.952   2.314 -0.2966 -1.9487  1.7963
   97SAPC   C14 9505   2.480   5.867   2.296  0.5319 -0.7204 -0.0890
   97SAPC  H14A 9506   2.480   5.854   2.189 -0.4933 -2.3808  0.0803
   97SAPC  H14B 9507   2.508   5.965   2.334 -0.5871  0.1294 -1.4026
   97SAPC  H14C 9508   2.545   5.786   2.326  0.7627 -0.9377 -1.1598
   97SAPC   C15 9509   2.287   5.719   2.303  0.1235  0.5901 -0.1219
   97SAPC  H15A 9510   2.343   5.634   2.340 -0.8098 -0.6945 -1.5337
   97SAPC  H15B 9511   2.184   5.702   2.331  0.0740 -0.3080 -0.7787
   97SAPC  H15C 9512   2.297   5.715   2.196  0.4003  2.7919 -0.2193
   97SAPC   C11 9513   2.387   5.991   2.549  0.1042  0.1573  0.2804
   97SAPC  H11A 9514   2.488   6.013   2.508  0.7184 -0.0301  1.6325
   97SAPC  H11B 9515   2.412   5.973   2.656 -0.7064  0.4770  0.5308
   97SAPC     P 9516   2.315   6.237   2.589  0.5346  0.2778 -0.1165
   97SAPC   O13 9517   2.430   6.298   2.520  0.2093 -0.3632 -0.2043
   97SAPC   O14 9518   2.193   6.315   2.582 -0.0265 -1.0819  0.2541
   97SAPC   O12 9519   2.279   6.087   2.536 -0.1267  0.1618  0.2681
   97SAPC   O11 9520   2.362   6.214   2.741  0.3861  0.6095 -0.6944
   97SAPC    C1 9521   2.272   6.229   2.852 -0.1897  0.0010  0.1014
   97SAPC    HA 9522   2.228   6.331   2.843  0.3072  0.0744 -1.9327
   97SAPC    HB 9523   2.185   6.164   2.828  0.4785 -0.5422 -0.9194
   97SAPC    C2 9524   2.328   6.203   2.995 -0.0205 -0.2653 -0.0465
   97SAPC    HS 9525   2.240   6.194   3.062  0.6262  2.6445  1.3322
   97SAPC   O21 9526   2.408   6.311   3.034 -0.1838  0.2183  0.7570
   97SAPC   C21 9527   2.355   6.406   3.111  0.4433  0.9621  0.3151
   97SAPC   O22 9528   2.238   6.415   3.144  0.2378 -0.0478  0.4113
   97SAPC   C22 9529   2.464   6.502   3.147 -0.5658  0.6825  0.5074
   97SAPC   H2R 9530   2.542   6.449   3.204  1.3521  1.8023 -0.9428
   97SAPC   H2S 9531   2.500   6.539   3.048 -1.9319 -1.3676 -0.8464
   97SAPC    C3 9532   2.409   6.075   3.005 -0.1168  0.2983 -0.6070
   97SAPC    HX 9533   2.501   6.084   2.943  0.6439  1.3550  0.6286
   97SAPC    HY 9534   2.346   6.001   2.951 -0.1805  0.3963 -0.6670
   97SAPC   O31 9535   2.419   6.036   3.141  0.1072 -0.4942  0.0578
   97SAPC   C31 9536   2.539   5.996   3.179 -0.3465 -0.2242  0.6840
   97SAPC   O32 9537   2.637   5.986   3.106  0.2218 -0.0517  0.1252
   97SAPC   C32 9538   2.533   5.954   3.323 -0.7977 -0.1769 -0.2351
   97SAPC   H2X 9539   2.445   5.887   3.332 -0.6744 -0.5082 -1.3952
   97SAPC   H2Y 9540   2.515   6.038   3.393  0.5020 -0.2074  0.1797
   97SAPC   C23 9541   2.399   6.606   3.241 -0.2567  0.2729 -0.4406
   97SAPC   H3R 9542   2.359   6.566   3.337 -1.5830  4.5022  0.9942
   97SAPC   H3S 9543   2.312   6.649   3.187 -0.8405 -0.5178 -0.1477
   97SAPC   C24 9544   2.496   6.720   3.282 -0.3851  0.1860  0.2006
   97SAPC   H4R 9545   2.534   6.777   3.194 -1.4609 -0.0296 -0.4278
   97SAPC   H4S 9546   2.590   6.674   3.318 -1.3943 -1.8082  0.4267
   97SAPC   C25 9547   2.425   6.799   3.383  0.8070 -0.6321 -0.2363
   97SAPC   H5R 9548   2.359   6.874   3.339 -0.0268 -2.2352 -1.8393
   97SAPC   C26 9549   2.437   6.787   3.517 -0.0835  0.4958 -0.1926
   97SAPC   H6R 9550   2.381   6.848   3.590 -3.6281 -2.5068 -0.0728
   97SAPC   C27 9551   2.515   6.683   3.595 -0.6492 -0.1135 -0.1326
   97SAPC   H7R 9552   2.565   6.605   3.533 -2.5432  0.2249 -2.2072
   97SAPC   H7S 9553   2.459   6.627   3.673  1.2619 -1.6772  0.1843
   97SAPC   C28 9554   2.626   6.764   3.664  1.0201  0.0218 -0.3491
   97SAPC   H8R 9555   2.704   6.806   3.599  2.4049 -0.1166  1.1735
   97SAPC   C29 9556   2.649   6.780   3.799 -0.3084 -0.2768  0.4058
   97SAPC   H9R 9557   2.730   6.849   3.825  0.9183 -1.3368 -0.5025
   97SAPC  C210 9558   2.566   6.714   3.909 -0.1516 -0.0957  0.5522
   97SAPC  H10R 9559   2.480   6.659   3.866  1.4665 -1.9795 -0.4245
   97SAPC  H10S 9560   2.526   6.793   3.977  1.4702  1.6885 -0.4431
   97SAPC  C211 9561   2.649   6.623   3.994  0.8659  0.6658  0.0550
   97SAPC  H11R 9562   2.701   6.548   3.933 -1.8303 -2.3228  1.1103
   97SAPC  C212 9563   2.656   6.608   4.129  0.1184  0.0055 -1.0558
   97SAPC  H12R 9564   2.727   6.530   4.162 -1.4910 -0.5007  1.5622
   97SAPC  C213 9565   2.589   6.690   4.237  0.3989 -0.0769  0.0550
   97SAPC  H13R 9566   2.487   6.647   4.244  1.1870 -2.0011  0.4181
   97SAPC  H13S 9567   2.588   6.798   4.211  0.6755  0.2035  1.1723
   97SAPC  C214 9568   2.645   6.679   4.373 -0.1775  0.1736  0.2578
   97SAPC  H14R 9569   2.720   6.758   4.387  0.2514  0.2878 -2.2026
   97SAPC  C215 9570   2.621   6.583   4.464  0.0273  0.3775 -0.0230
   97SAPC  H15R 9571   2.683   6.586   4.555  0.6040  1.9816 -0.4397
   97SAPC  C216 9572   2.526   6.467   4.451 -0.2945 -0.4560 -0.4307
   97SAPC  H16R 9573   2.574   6.371   4.482 -0.9162 -1.0057 -1.1230
   97SAPC  H16S 9574   2.495   6.452   4.345  0.1299  1.7176 -0.8965
   97SAPC  C217 9575   2.405   6.486   4.538 -0.8349  0.3652 -0.0052
   97SAPC  H17R 9576   2.360   6.385   4.552  0.4389 -0.1484  0.4920
   97SAPC  H17S 9577   2.322   6.546   4.493 -1.5166 -3.1537 -4.0129
   97SAPC  C218 9578   2.436   6.523   4.692  0.2188  0.4892 -0.4542
   97SAPC  H18R 9579   2.346   6.511   4.756 -0.2194  1.0115 -0.9645
   97SAPC  H18S 9580   2.465   6.630   4.697 -0.5779  0.6836  0.2730
   97SAPC  C219 9581   2.533   6.433   4.769  0.7627  0.5588 -0.0646
   97SAPC  H19R 9582   2.636   6.448   4.729  0.9352  0.4999  0.3543
   97SAPC  H19S 9583   2.499   6.329   4.752  0.0310  1.0800 -2.0639
   97SAPC  C220 9584   2.536   6.466   4.922 -0.2906 -0.0177  0.0801
   97SAPC  H20R 9585   2.570   6.571   4.937  1.9422 -0.7044  0.1601
   97SAPC  H20S 9586   2.603   6.399   4.980 -1.5715 -1.4139 -0.0130
   97SAPC  H20T 9587   2.434   6.453   4.963  0.4738 -1.9598  1.5151
   97SAPC   C33 9588   2.657   5.877   3.368 -0.8920  0.1591 -0.4876
   97SAPC   H3X 9589   2.743   5.947   3.376 -0.9373  0.0130  2.0796
   97SAPC   H3Y 9590   2.681   5.806   3.286  1.8149  1.8969 -1.3220
   97SAPC   C34 9591   2.646   5.795   3.500 -0.9332  0.2343  0.1124
   97SAPC   H4X 9592   2.728   5.720   3.500 -0.3769  0.8352  0.0512
   97SAPC   H4Y 9593   2.543   5.754   3.511 -0.4290 -0.3341  4.0784
   97SAPC   C35 9594   2.666   5.892   3.621  0.4496  0.2967 -0.5233
   97SAPC   H5X 9595   2.571   5.946   3.641  0.6285  0.2329  0.5383
   97SAPC   H5Y 9596   2.741   5.970   3.595  0.0421  0.6036 -0.7999
   97SAPC   C36 9597   2.685   5.822   3.759  0.9599  0.6396 -0.6262
   97SAPC   H6X 9598   2.725   5.901   3.825 -0.7418  1.7183 -0.8229
   97SAPC   H6Y 9599   2.769   5.750   3.748  0.2135 -0.2597 -0.6113
   97SAPC   C37 9600   2.563   5.740   3.818 -1.0213  0.3735  0.4390
   97SAPC   H7X 9601   2.541   5.677   3.729 -0.3944  1.3538 -0.4329
   97SAPC   H7Y 9602   2.481   5.803   3.857  1.0838  2.1099  2.3483
   97SAPC   C38 9603   2.590   5.639   3.934 -0.1084  0.2885 -0.2708
   97SAPC   H8X 9604   2.657   5.556   3.905 -3.3866 -2.0025 -1.8726
   97SAPC   H8Y 9605   2.497   5.595   3.977 -0.2106 -0.0823 -0.8659
   97SAPC   C39 9606   2.658   5.717   4.055  0.0863  0.0940  0.6330
   97SAPC   H9X 9607   2.598   5.808   4.078 -0.4236  0.5979 -2.2566
   97SAPC   H9Y 9608   2.759   5.749   4.021  0.5829 -1.7967  0.2268
   97SAPC  C310 9609   2.672   5.624   4.175  0.3904 -0.1908 -0.7930
   97SAPC  H10X 9610   2.730   5.535   4.144  1.2643 -0.2177  0.8352
   97SAPC  H10Y 9611   2.569   5.592   4.201  0.3357  0.6267  0.0813
   97SAPC  C311 9612   2.730   5.694   4.295 -0.2415  0.2931  0.5052
   97SAPC  H11X 9613   2.736   5.804   4.280  0.1549  0.2278  0.1710
   97SAPC  H11Y 9614   2.837   5.665   4.283  0.0661  2.2166 -2.8225
   97SAPC  C312 9615   2.689   5.659   4.431 -0.2468  0.3852 -0.5296
   97SAPC  H12X 9616   2.587   5.696   4.455  0.2583  0.9269  0.8615
   97SAPC  H12Y 9617   2.766   5.708   4.494 -0.0952  0.4722 -0.7831
   97SAPC  C313 9618   2.698   5.501   4.453 -0.1496 -0.5469 -0.2008
   97SAPC  H13X 9619   2.806   5.479   4.440  0.4411  1.6756  0.4977
   97SAPC  H13Y 9620   2.638   5.445   4.378 -1.1132 -0.5720  0.5650
   97SAPC  C314 9621   2.648   5.465   4.594  0.1051 -0.2929  0.4947
   97SAPC  H14X 9622   2.540   5.479   4.573  0.3391  0.7532 -0.0670
   97SAPC  H14Y 9623   2.677   5.546   4.664  0.5278  0.9735 -1.0919
   97SAPC  C315 9624   2.680   5.316   4.627  0.4495  0.5666 -0.0941
   97SAPC  H15X 9625   2.653   5.261   4.535 -2.8186  2.9488 -0.7397
   97SAPC  H15Y 9626   2.610   5.295   4.711  0.1249  0.9148 -0.2778
   97SAPC  C316 9627   2.823   5.293   4.681  0.2707  0.6713 -0.2849
   97SAPC  H16X 9628   2.840   5.358   4.770 -2.5718  1.0774  0.0430
   97SAPC  H16Y 9629   2.904   5.326   4.613  1.8358 -2.2350  0.0113
   97SAPC  C317 9630   2.844   5.142   4.704 -0.7441 -0.4630 -0.1064
   97SAPC  H17X 9631   2.953   5.124   4.721 -0.0072  2.1664 -1.5550
   97SAPC  H17Y 9632   2.816   5.081   4.616  1.7608  0.1904 -1.4366
   97SAPC  C318 9633   2.778   5.089   4.838  0.5428 -0.1229  0.0331
   97SAPC  H18X 9634   2.667   5.096   4.830  0.2220 -0.9913  2.6637
   97SAPC  H18Y 9635   2.823   5.132   4.931  0.8299  0.7084 -0.4761
   97SAPC  H18Z 9636   2.792   4.979   4.840  0.5511 -0.1192  1.0156
   98SAPC     N 9637   4.638   0.296   2.478  0.2581 -0.1704  0.1873
   98SAPC   C12 9638   4.681   0.221   2.606  0.0616  0.5748 -0.0989
   98SAPC  H12A 9639   4.609   0.149   2.643 -0.2678  0.6272 -0.6367
   98SAPC  H12B 9640   4.689   0.286   2.692  1.1768 -0.0677  0.3107
   98SAPC   C13 9641   4.720   0.420   2.457 -0.1013 -0.0625  0.3698
   98SAPC  H13A 9642   4.704   0.482   2.370  0.6415  0.1417  0.3682
   98SAPC  H13B 9643   4.700   0.484   2.542 -0.9909  1.7228 -1.1198
   98SAPC  H13C 9644   4.827   0.402   2.457  0.4188  2.4014 -1.3637
   98SAPC   C14 9645   4.643   0.204   2.359 -0.1068 -0.0252 -0.3386
   98SAPC  H14A 9646   4.742   0.173   2.330  0.8611  1.3298  1.2863
   98SAPC  H14B 9647   4.578   0.119   2.374 -0.9411  0.7069  0.3325
   98SAPC  H14C 9648   4.612   0.256   2.270  2.1365  1.4504 -0.3368
   98SAPC   C15 9649   4.496   0.338   2.487 -0.8367  0.2371  0.3592
   98SAPC  H15A 9650   4.445   0.246   2.510 -0.2146 -0.3680 -0.6140
   98SAPC  H15B 9651   4.474   0.423   2.550 -0.8610 -0.3073  1.1044
   98SAPC  H15C 9652   4.458   0.352   2.387  2.4407  0.4586 -0.9920
   98SAPC   C11 9653   4.816   0.145   2.597  0.8606 -0.0834  0.6714
   98SAPC  H11A 9654   4.801   0.061   2.527  0.0292  0.5815  0.0341
   98SAPC  H11B 9655   4.839   0.115   2.702 -0.2400  1.9558  1.5458
   98SAPC     P 9656   5.061   0.169   2.499  0.4701 -0.0747 -0.0694
   98SAPC   O13 9657   5.051   0.018   2.491 -0.0262 -0.0085 -0.2340
   98SAPC   O14 9658   5.094   0.242   2.380 -0.2742  0.5671 -0.2718
   98SAPC   O12 9659   4.927   0.234   2.555 -0.4479 -0.1067 -0.0348
   98SAPC   O11 9660   5.169   0.203   2.602 -0.2456 -0.5235 -0.0960
   98SAPC    C1 9661   5.177   0.322   2.676 -0.5558  0.3607  0.3348
   98SAPC    HA 9662   5.274   0.372   2.656 -0.5755  0.0169 -0.7083
   98SAPC    HB 9663   5.088   0.388   2.663 -1.1842 -0.2670  1.2642
   98SAPC    C2 9664   5.182   0.292   2.826  0.0598  0.2896  0.2041
   98SAPC    HS 9665   5.275   0.235   2.848 -0.1397  0.6490  2.1227
   98SAPC   O21 9666   5.062   0.214   2.863  0.0229  0.2840  0.2569
   98SAPC   C21 9667   5.073   0.131   2.961 -0.0919 -0.7387  0.1669
   98SAPC   O22 9668   5.179   0.121   3.025 -0.3718  0.0313 -0.4676
   98SAPC   C22 9669   4.963   0.031   2.970  0.0753 -0.6238  0.4875
   98SAPC   H2R 9670   4.867   0.075   3.004  0.0345 -0.1784 -0.1715
   98SAPC   H2S 9671   4.937   0.005   2.865 -1.8248 -0.7063  0.9458
   98SAPC    C3 9672   5.177   0.426   2.902  0.3009  0.2197 -0.0430
   98SAPC    HX 9673   5.085   0.482   2.878  0.4269  0.7177  0.6265
   98SAPC    HY 9674   5.263   0.488   2.866 -0.2170  2.3894  2.2280
   98SAPC   O31 9675   5.169   0.405   3.044 -0.4703  0.1034  0.2668
   98SAPC   C31 9676   5.288   0.396   3.105  0.2279  0.4331  0.1580
   98SAPC   O32 9677   5.399   0.399   3.045  0.1788 -0.3545 -0.1330
   98SAPC   C32 9678   5.270   0.379   3.256  0.0261 -0.3389  1.0592
   98SAPC   H2X 9679   5.170   0.335   3.275  0.2035 -0.9015  0.7240
   98SAPC   H2Y 9680   5.268   0.483   3.295 -2.4623  0.0048  0.2109
   98SAPC   C23 9681   4.984  -0.102   3.032 -1.1895  0.3069 -0.5019
   98SAPC   H3R 9682   5.092  -0.122   3.020 -1.2882 -0.3260 -0.3586
   98SAPC   H3S 9683   4.914  -0.177   2.989  0.4751 -1.3378 -0.4220
   98SAPC   C24 9684   4.946  -0.087   3.177 -0.1333 -0.6844 -0.1860
   98SAPC   H4R 9685   4.841  -0.052   3.179  0.0046 -0.2833  1.4758
   98SAPC   H4S 9686   5.007  -0.003   3.216  0.6060 -0.6701 -1.3232
   98SAPC   C25 9687   4.963  -0.216   3.256  0.0623  0.7277 -0.2977
   98SAPC   H5R 9688   4.901  -0.294   3.210  0.1735 -1.3045  2.6745
   98SAPC   C26 9689   5.037  -0.247   3.364  0.7029 -0.3741 -0.1700
   98SAPC   H6R 9690   5.045  -0.350   3.402  3.5205  0.3286  1.4615
   98SAPC   C27 9691   5.116  -0.152   3.445 -0.6302 -0.4220  0.2619
   98SAPC   H7R 9692   5.109  -0.049   3.402 -0.8885  0.3017  1.9465
   98SAPC   H7S 9693   5.219  -0.186   3.425 -1.1861 -1.5421 -0.7992
   98SAPC   C28 9694   5.092  -0.144   3.590  0.2879 -0.1169 -0.3488
   98SAPC   H8R 9695   5.032  -0.060   3.627 -0.8425 -1.2481  0.4533
   98SAPC   C29 9696   5.162  -0.214   3.686  0.4482 -0.2602 -1.2398
   98SAPC   H9R 9697   5.143  -0.182   3.790  0.2909 -1.9135 -0.7232
   98SAPC  C210 9698   5.267  -0.321   3.668  0.0274 -0.8701 -0.5689
   98SAPC  H10R 9699   5.369  -0.280   3.679  0.4364 -1.5194 -1.7838
   98SAPC  H10S 9700   5.269  -0.372   3.570 -0.4784 -1.7353 -0.1438
   98SAPC  C211 9701   5.246  -0.428   3.778  0.1072  0.1946  0.3766
   98SAPC  H11R 9702   5.167  -0.501   3.753  0.3824  0.2857 -0.8596
   98SAPC  C212 9703   5.322  -0.448   3.889  0.3605  0.5809  0.5462
   98SAPC  H12R 9704   5.282  -0.518   3.964  0.0591 -0.4722 -0.5580
   98SAPC  C213 9705   5.435  -0.367   3.933 -0.9478 -1.0350 -0.2027
   98SAPC  H13R 9706   5.519  -0.365   3.861 -1.0912  1.2574 -0.3898
   98SAPC  H13S 9707   5.480  -0.426   4.016 -3.1370 -1.3417  0.8592
   98SAPC  C214 9708   5.418  -0.229   3.988  0.7022  0.0380  0.2514
   98SAPC  H14R 9709   5.333  -0.175   3.945  0.2066  0.7646  2.0680
   98SAPC  C215 9710   5.485  -0.176   4.085 -0.1106 -0.7681 -0.7221
   98SAPC  H15R 9711   5.457  -0.075   4.117 -0.2910 -1.3059  0.9371
   98SAPC  C216 9712   5.592  -0.227   4.174  0.2820  0.1285 -0.1367
   98SAPC  H16R 9713   5.688  -0.174   4.157  0.1722  0.6568  0.7917
   98SAPC  H16S 9714   5.616  -0.335   4.157 -0.0803 -0.1301  0.8630
   98SAPC  C217 9715   5.566  -0.223   4.329  0.3980  0.3376 -0.5594
   98SAPC  H17R 9716   5.629  -0.307   4.365 -0.4118  0.0947  0.3188
   98SAPC  H17S 9717   5.461  -0.258   4.337  1.1484 -1.8900  0.5207
   98SAPC  C218 9718   5.579  -0.084   4.394  0.1494  0.5867  0.3262
   98SAPC  H18R 9719   5.665  -0.038   4.340  1.1772  0.5013  1.8228
   98SAPC  H18S 9720   5.609  -0.091   4.501  0.9335  3.2863  0.3688
   98SAPC  C219 9721   5.456   0.013   4.389  0.6475 -0.1258  0.2149
   98SAPC  H19R 9722   5.366  -0.016   4.447 -0.6851  0.5185 -1.4614
   98SAPC  H19S 9723   5.419   0.029   4.286  0.2761 -1.3469  0.1445
   98SAPC  C220 9724   5.494   0.142   4.459 -0.1093 -0.3390  0.5339
   98SAPC  H20R 9725   5.416   0.222   4.459 -0.7899 -0.9888 -0.4784
   98SAPC  H20S 9726   5.587   0.185   4.416 -0.1305 -0.4171  0.4106
   98SAPC  H20T 9727   5.523   0.133   4.566  0.5657 -0.0844  0.3804
   98SAPC   C33 9728   5.384   0.307   3.328  0.8057  0.1154 -0.6553
   98SAPC   H3X 9729   5.354   0.331   3.433 -0.2851  2.1900 -1.3726
   98SAPC   H3Y 9730   5.483   0.350   3.305  0.3654  1.5550 -0.0109
   98SAPC   C34 9731   5.378   0.156   3.323 -0.1137 -0.5054 -0.4927
   98SAPC   H4X 9732   5.417   0.133   3.221  1.7366 -0.5817  0.1850
   98SAPC   H4Y 9733   5.272   0.125   3.320 -0.8323  1.7350  0.1611
   98SAPC   C35 9734   5.463   0.076   3.424  1.0057 -0.5438  0.6495
   98SAPC   H5X 9735   5.564   0.082   3.376  0.0533 -2.5626 -1.8450
   98SAPC   H5Y 9736   5.428  -0.030   3.425 -0.3369 -0.2193 -1.9874
   98SAPC   C36 9737   5.458   0.128   3.572 -0.3838  0.1350 -0.6730
   98SAPC   H6X 9738   5.354   0.137   3.608  0.1788  1.2519  0.7650
   98SAPC   H6Y 9739   5.523   0.218   3.575 -0.4854  0.1810  0.9378
   98SAPC   C37 9740   5.527   0.025   3.668 -0.6010  0.1640 -0.7206
   98SAPC   H7X 9741   5.503  -0.080   3.642 -1.5526 -0.3604  1.9853
   98SAPC   H7Y 9742   5.480   0.043   3.768  0.2323 -1.1356 -0.0722
   98SAPC   C38 9743   5.680   0.035   3.674  0.4164  0.2691  0.4721
   98SAPC   H8X 9744   5.716   0.031   3.569 -1.8198 -0.6634 -0.3342
   98SAPC   H8Y 9745   5.718  -0.054   3.728  0.7269  1.5895  2.5336
   98SAPC   C39 9746   5.718   0.148   3.760  0.3327  0.4885  0.8393
   98SAPC   H9X 9747   5.683   0.250   3.732  0.9207  0.3191 -0.6157
   98SAPC   H9Y 9748   5.828   0.143   3.749  0.9055  2.1904  4.4333
   98SAPC  C310 9749   5.697   0.125   3.907 -0.4798 -0.0963 -0.5880
   98SAPC  H10X 9750   5.730   0.022   3.929  1.8560  0.9693  1.4407
   98SAPC  H10Y 9751   5.591   0.133   3.937  0.0565  2.3955  1.0045
   98SAPC  C311 9752   5.770   0.235   3.998 -0.2088 -0.4067 -0.1784
   98SAPC  H11X 9753   5.707   0.327   3.995  1.1773  0.6194  1.0804
   98SAPC  H11Y 9754   5.864   0.263   3.946  0.8018 -0.1312  1.7021
   98SAPC  C312 9755   5.791   0.177   4.139  0.1734  0.4065  0.1657
   98SAPC  H12X 9756   5.859   0.089   4.136  0.2726  0.5121 -1.7557
   98SAPC  H12Y 9757   5.688   0.149   4.172 -0.4025 -0.3953 -2.1425
   98SAPC  C313 9758   5.851   0.277   4.231  0.3506  0.3803 -0.4644
   98SAPC  H13X 9759   5.768   0.349   4.247  1.0723  1.1189  0.0161
   98SAPC  H13Y 9760   5.934   0.332   4.182  1.0716 -0.8656 -0.6878
   98SAPC  C314 9761   5.906   0.223   4.362 -0.5793  0.3621 -0.0338
   98SAPC  H14X 9762   6.016   0.207   4.354 -0.6682  0.0632 -0.7297
   98SAPC  H14Y 9763   5.852   0.129   4.384  1.6234 -1.2515 -1.0826
   98SAPC  C315 9764   5.882   0.314   4.493 -0.2625  0.7435  0.4530
   98SAPC  H15X 9765   5.781   0.357   4.479  0.2993  1.2737 -2.7783
   98SAPC  H15Y 9766   5.955   0.397   4.479  2.3589 -1.4961  0.0310
   98SAPC  C316 9767   5.910   0.244   4.623 -0.6196  0.4166  0.5994
   98SAPC  H16X 9768   6.013   0.206   4.605 -0.4276  1.6049 -0.9318
   98SAPC  H16Y 9769   5.835   0.163   4.632  1.0320 -1.2782 -0.1602
   98SAPC  C317 9770   5.907   0.322   4.757  0.2664 -0.2386  0.6909
   98SAPC  H17X 9771   5.802   0.358   4.765  0.0582 -0.9162  1.1151
   98SAPC  H17Y 9772   5.968   0.414   4.748  1.0068 -0.9166 -2.6867
   98SAPC  C318 9773   5.933   0.239   4.880 -0.4592 -0.1149 -0.1993
   98SAPC  H18X 9774   6.019   0.169   4.881  0.0949  0.5646 -0.2566
   98SAPC  H18Y 9775   5.840   0.185   4.910 -0.2019  0.0481  0.9294
   98SAPC  H18Z 9776   5.945   0.314   4.961 -0.0129  1.3610 -1.5915
   99SAPC     N 9777   4.643   3.372   2.055  0.2586  0.2837  0.5728
   99SAPC   C12 9778   4.713   3.320   2.176  0.9052  0.9819  0.4660
   99SAPC  H12A 9779   4.781   3.394   2.216 -1.7337  3.7039  0.2801
   99SAPC  H12B 9780   4.772   3.232   2.153 -0.2557 -0.1699  1.7116
   99SAPC   C13 9781   4.566   3.495   2.074  0.6461 -0.0630 -0.4016
   99SAPC  H13A 9782   4.514   3.527   1.985  0.5556 -2.9007 -1.4630
   99SAPC  H13B 9783   4.495   3.487   2.155  0.1334 -0.4793 -0.8874
   99SAPC  H13C 9784   4.633   3.574   2.103 -0.5894  1.3012 -1.1414
   99SAPC   C14 9785   4.747   3.390   1.941  0.2252  0.2518  0.2462
   99SAPC  H14A 9786   4.822   3.467   1.952 -1.8316  2.0957  2.1028
   99SAPC  H14B 9787   4.787   3.294   1.909 -1.1865  0.8924 -4.1160
   99SAPC  H14C 9788   4.694   3.415   1.850 -1.6739 -0.5155  1.0814
   99SAPC   C15 9789   4.555   3.255   2.014 -0.0877 -0.1007  0.3012
   99SAPC  H15A 9790   4.497   3.268   1.923  0.4876 -0.2002 -0.0857
   99SAPC  H15B 9791   4.610   3.166   1.988 -1.0866 -0.6665  0.0776
   99SAPC  H15C 9792   4.478   3.235   2.087 -0.0612 -0.2714  0.2822
   99SAPC   C11 9793   4.625   3.284   2.302 -0.3099  0.5107 -0.5067
   99SAPC  H11A 9794   4.678   3.227   2.381 -1.5164 -1.1287 -0.8344
   99SAPC  H11B 9795   4.546   3.209   2.281  0.6456 -0.5987 -0.2542
   99SAPC     P 9796   4.667   3.492   2.451  0.0499  0.0195  0.5799
   99SAPC   O13 9797   4.786   3.415   2.495  0.4227 -0.3026 -0.6386
   99SAPC   O14 9798   4.683   3.620   2.377 -0.2551  0.2871 -0.3795
   99SAPC   O12 9799   4.570   3.399   2.363  0.2851  0.4058  0.0952
   99SAPC   O11 9800   4.580   3.528   2.583 -0.4214  0.2077  0.6788
   99SAPC    C1 9801   4.490   3.434   2.646  0.0579  0.3655  0.0547
   99SAPC    HA 9802   4.389   3.459   2.607 -0.1031  1.0637  0.9006
   99SAPC    HB 9803   4.511   3.331   2.610  0.1466  0.4549 -0.1537
   99SAPC    C2 9804   4.500   3.431   2.798  0.1454 -0.1378 -0.5841
   99SAPC    HS 9805   4.434   3.352   2.840 -1.0033  0.6204 -0.9231
   99SAPC   O21 9806   4.469   3.553   2.874 -0.3575 -0.5506  0.9858
   99SAPC   C21 9807   4.354   3.615   2.842 -0.3794  0.1249  0.1897
   99SAPC   O22 9808   4.255   3.563   2.795  0.0947  0.1538  0.1648
   99SAPC   C22 9809   4.367   3.760   2.886  0.0696  0.0609  0.1967
   99SAPC   H2R 9810   4.394   3.822   2.798  0.8012  1.9059  1.6664
   99SAPC   H2S 9811   4.263   3.795   2.903 -0.7568 -0.9021 -2.3487
   99SAPC    C3 9812   4.645   3.398   2.843 -0.7797 -0.3349  0.2049
   99SAPC    HX 9813   4.710   3.454   2.773 -0.0350 -0.2047  0.9858
   99SAPC    HY 9814   4.669   3.293   2.818 -0.2118 -0.0139 -0.6397
   99SAPC   O31 9815   4.697   3.439   2.967 -0.1180 -0.2914 -0.0556
   99SAPC   C31 9816   4.631   3.390   3.068 -0.5452  0.0851  0.6951
   99SAPC   O32 9817   4.566   3.292   3.070  0.1106 -0.0005 -0.1901
   99SAPC   C32 9818   4.656   3.470   3.194  0.1330  0.1223 -0.5342
   99SAPC   H2X 9819   4.562   3.477   3.252  1.4178  1.4497  1.5528
   99SAPC   H2Y 9820   4.679   3.573   3.158  1.7356  0.3366  0.9442
   99SAPC   C23 9821   4.455   3.782   3.015  0.3338 -0.0237  0.0525
   99SAPC   H3R 9822   4.470   3.888   3.041 -2.1820  0.8001 -1.4422
   99SAPC   H3S 9823   4.549   3.727   2.997 -0.5052 -0.4963 -3.6325
   99SAPC   C24 9824   4.381   3.720   3.137 -0.5737  0.7038  0.3744
   99SAPC   H4R 9825   4.461   3.694   3.210 -0.9146  0.8484  0.8045
   99SAPC   H4S 9826   4.337   3.623   3.104 -0.6485  1.3355 -1.4675
   99SAPC   C25 9827   4.275   3.807   3.196  0.3147  0.4317 -0.2417
   99SAPC   H5R 9828   4.197   3.832   3.123  0.3172  1.7084  0.1614
   99SAPC   C26 9829   4.271   3.851   3.323  0.2226  0.1871  0.1149
   99SAPC   H6R 9830   4.189   3.918   3.351 -1.3883 -1.0286 -1.4196
   99SAPC   C27 9831   4.379   3.824   3.425  0.0405  0.3526 -0.6694
   99SAPC   H7R 9832   4.468   3.766   3.393  0.9725  2.3755 -1.9820
   99SAPC   H7S 9833   4.332   3.768   3.508  1.1790 -0.3018 -0.4481
   99SAPC   C28 9834   4.437   3.956   3.474 -0.1143  0.0689 -0.5800
   99SAPC   H8R 9835   4.488   4.014   3.396 -0.8845  0.3056 -0.9224
   99SAPC   C29 9836   4.452   4.003   3.600 -0.1537  0.2759 -0.1039
   99SAPC   H9R 9837   4.485   4.107   3.613  0.4919 -0.2452  3.1089
   99SAPC  C210 9838   4.417   3.930   3.724  0.6708 -0.9168 -0.2649
   99SAPC  H10R 9839   4.495   3.954   3.798 -1.1026  0.1980  1.3489
   99SAPC  H10S 9840   4.398   3.821   3.718 -0.2674 -0.7674 -0.1803
   99SAPC  C211 9841   4.288   3.994   3.769  0.6811 -0.0241 -0.4565
   99SAPC  H11R 9842   4.199   3.991   3.704  0.8613  0.2622 -0.7209
   99SAPC  C212 9843   4.270   4.056   3.889 -0.4020  0.8901 -0.5160
   99SAPC  H12R 9844   4.172   4.098   3.915 -0.8508 -0.5676  0.2386
   99SAPC  C213 9845   4.376   4.059   4.002  0.6232  0.0292 -0.0111
   99SAPC  H13R 9846   4.360   4.142   4.075  2.5069  0.1283  0.3415
   99SAPC  H13S 9847   4.476   4.074   3.956  1.1671 -1.7131  0.5126
   99SAPC  C214 9848   4.375   3.925   4.082  0.0007 -0.4435 -0.3477
   99SAPC  H14R 9849   4.417   3.836   4.033 -2.0002 -0.6270 -1.8488
   99SAPC  C215 9850   4.328   3.902   4.210 -0.1777 -0.4613 -0.1314
   99SAPC  H15R 9851   4.354   3.808   4.261 -0.1441  0.4315  1.5610
   99SAPC  C216 9852   4.277   4.005   4.304  0.3821  0.0550  0.1916
   99SAPC  H16R 9853   4.200   3.956   4.368  0.0339 -1.2197 -1.1508
   99SAPC  H16S 9854   4.230   4.089   4.249  0.4749 -0.1034 -0.1310
   99SAPC  C217 9855   4.391   4.069   4.391  0.1356  0.5352  0.3131
   99SAPC  H17R 9856   4.449   4.129   4.317 -1.9160 -0.6534 -2.4306
   99SAPC  H17S 9857   4.451   3.990   4.442 -1.3192 -1.5212 -0.9899
   99SAPC  C218 9858   4.322   4.170   4.485  0.0946  0.4638 -0.1407
   99SAPC  H18R 9859   4.279   4.108   4.566  2.3392  2.1373  2.5169
   99SAPC  H18S 9860   4.237   4.209   4.426 -0.3138  1.2909  0.9571
   99SAPC  C219 9861   4.418   4.278   4.545  0.0437 -0.2666  0.7632
   99SAPC  H19R 9862   4.488   4.306   4.464  1.0714  2.2515  2.3825
   99SAPC  H19S 9863   4.482   4.236   4.626 -0.3263  0.5983  1.5303
   99SAPC  C220 9864   4.345   4.401   4.585  0.0085 -0.3377  0.0125
   99SAPC  H20R 9865   4.253   4.367   4.636 -1.7240  2.2937 -1.0998
   99SAPC  H20S 9866   4.332   4.468   4.497 -3.0961  0.6664  1.0974
   99SAPC  H20T 9867   4.407   4.450   4.663 -0.4747 -1.0121  0.8364
   99SAPC   C33 9868   4.778   3.437   3.284 -0.2496 -0.1305  0.2409
   99SAPC   H3X 9869   4.867   3.465   3.223 -0.2364  1.3662  0.8846
   99SAPC   H3Y 9870   4.774   3.333   3.323 -2.0968  0.0702  0.7072
   99SAPC   C34 9871   4.765   3.523   3.409 -0.1878 -0.4433  1.0104
   99SAPC   H4X 9872   4.717   3.621   3.386  0.3504 -0.5733 -0.8103
   99SAPC   H4Y 9873   4.865   3.540   3.454 -0.2740 -0.6143  1.2701
   99SAPC   C35 9874   4.668   3.466   3.511 -0.6314 -0.3958 -0.5591
   99SAPC   H5X 9875   4.724   3.376   3.543  2.3914  0.1729 -3.6944
   99SAPC   H5Y 9876   4.568   3.424   3.483 -0.7167 -1.3145  1.0240
   99SAPC   C36 9877   4.649   3.553   3.636  0.5802  0.0106 -0.3329
   99SAPC   H6X 9878   4.559   3.617   3.621 -0.2619 -1.0699 -0.0754
   99SAPC   H6Y 9879   4.742   3.611   3.652  0.9494 -0.2285 -1.5381
   99SAPC   C37 9880   4.635   3.465   3.763  0.1722 -0.0974  0.1330
   99SAPC   H7X 9881   4.710   3.384   3.769 -1.2486 -1.4306  0.5423
   99SAPC   H7Y 9882   4.543   3.404   3.751 -0.1933  0.2657  1.0429
   99SAPC   C38 9883   4.648   3.540   3.896 -0.6264 -0.8784  0.2718
   99SAPC   H8X 9884   4.582   3.629   3.894 -2.0536 -1.8532 -3.2985
   99SAPC   H8Y 9885   4.753   3.577   3.896 -0.4749 -1.3025 -0.1341
   99SAPC   C39 9886   4.606   3.460   4.019  0.4989 -0.5296 -0.0695
   99SAPC   H9X 9887   4.676   3.377   4.044 -0.3072 -1.2212 -0.0707
   99SAPC   H9Y 9888   4.504   3.425   3.993  0.4750  0.6388 -1.7367
   99SAPC  C310 9889   4.591   3.553   4.142 -0.1011  0.0894 -0.1059
   99SAPC  H10X 9890   4.512   3.627   4.116 -0.3230 -0.4314 -0.9509
   99SAPC  H10Y 9891   4.685   3.610   4.151  0.8997 -1.2238 -1.6533
   99SAPC  C311 9892   4.545   3.476   4.262  0.4099  0.1375  0.6564
   99SAPC  H11X 9893   4.614   3.393   4.285  0.5137  0.6623  2.3416
   99SAPC  H11Y 9894   4.448   3.431   4.230  1.1029 -0.3597 -0.8231
   99SAPC  C312 9895   4.548   3.563   4.384 -0.1670 -0.6752  0.3703
   99SAPC  H12X 9896   4.496   3.499   4.458  2.0413 -3.4463 -0.3001
   99SAPC  H12Y 9897   4.495   3.656   4.356  1.3266 -0.2074 -1.0454
   99SAPC  C313 9898   4.689   3.605   4.432  1.0012 -0.3585 -0.2745
   99SAPC  H13X 9899   4.748   3.662   4.357  2.1198 -1.2699 -0.1137
   99SAPC  H13Y 9900   4.743   3.510   4.453 -1.7521 -1.6806  1.3122
   99SAPC  C314 9901   4.685   3.675   4.566  0.3907 -0.2866 -0.2443
   99SAPC  H14X 9902   4.782   3.696   4.616 -0.3660  2.4735  0.2544
   99SAPC  H14Y 9903   4.636   3.599   4.630  0.1193 -0.4616 -0.6614
   99SAPC  C315 9904   4.610   3.806   4.579 -0.3260  0.1423  0.0986
   99SAPC  H15X 9905   4.508   3.794   4.537 -0.1886 -0.6971 -0.0072
   99SAPC  H15Y 9906   4.658   3.883   4.515  1.8803 -0.8725  0.4451
   99SAPC  C316 9907   4.607   3.850   4.725 -0.2998  0.2432  0.0384
   99SAPC  H16X 9908   4.709   3.836   4.767  1.7275  1.8735 -3.8098
   99SAPC  H16Y 9909   4.535   3.785   4.780 -0.8314  2.5210  2.2313
   99SAPC  C317 9910   4.562   3.993   4.740 -0.1213 -0.8184  1.1365
   99SAPC  H17X 9911   4.479   4.004   4.667  1.7734  1.0657 -0.8837
   99SAPC  H17Y 9912   4.640   4.064   4.705 -1.1117 -0.7353 -1.1112
   99SAPC  C318 9913   4.513   4.027   4.879  0.0797 -0.1977 -0.0204
   99SAPC  H18X 9914   4.570   3.995   4.969 -0.9057  1.5898  1.2952
   99SAPC  H18Y 9915   4.417   3.975   4.898 -0.3243  0.4661 -0.2457
   99SAPC  H18Z 9916   4.485   4.134   4.888 -0.5324 -0.1459 -2.0479
  100SAPC     N 9917   0.809   1.736   2.782  0.6617 -0.0104 -0.1308
  100SAPC   C12 9918   0.752   1.856   2.695 -0.4186  0.1941  0.0729
  100SAPC  H12A 9919   0.721   1.816   2.600  0.4296 -1.0203  0.2758
  100SAPC  H12B 9920   0.838   1.916   2.667  0.3006 -0.0613  1.6227
  100SAPC   C13 9921   0.907   1.672   2.691  0.1464  0.8155  0.0973
  100SAPC  H13A 9922   0.852   1.620   2.615 -1.9397  2.2457  0.5358
  100SAPC  H13B 9923   0.980   1.739   2.647  0.7137 -0.5013 -1.0518
  100SAPC  H13C 9924   0.965   1.598   2.745  0.5649 -0.7586 -2.3543
  100SAPC   C14 9925   0.885   1.784   2.900  0.2893  0.2640 -0.7559
  100SAPC  H14A 9926   0.929   1.706   2.961  2.6276  0.9889 -1.3984
  100SAPC  H14B 9927   0.967   1.850   2.875 -1.5813  2.4006 -1.5234
  100SAPC  H14C 9928   0.817   1.846   2.956  1.1208 -0.5556  1.2703
  100SAPC   C15 9929   0.693   1.647   2.823 -0.3144 -0.1423  0.1188
  100SAPC  H15A 9930   0.637   1.691   2.904 -0.9959 -0.6320 -0.0765
  100SAPC  H15B 9931   0.632   1.636   2.735 -0.1727  0.4386 -0.0539
  100SAPC  H15C 9932   0.729   1.554   2.864 -0.3811  0.6862  2.1780
  100SAPC   C11 9933   0.646   1.946   2.760  0.0364 -0.2111  0.2750
  100SAPC  H11A 9934   0.567   1.887   2.810  0.0524 -1.0257 -0.6377
  100SAPC  H11B 9935   0.589   2.011   2.691  2.8228  2.3789  0.1804
  100SAPC     P 9936   0.788   2.158   2.796  0.2276  0.0191  0.0313
  100SAPC   O13 9937   0.897   2.118   2.701  0.0306  0.3144 -0.1129
  100SAPC   O14 9938   0.686   2.251   2.736 -0.7363  0.1730  0.2913
  100SAPC   O12 9939   0.714   2.030   2.856  0.7682  0.1011  0.1448
  100SAPC   O11 9940   0.873   2.217   2.912  0.0922 -0.5624 -0.0105
  100SAPC    C1 9941   0.804   2.267   3.036  0.0962  0.1718  0.3973
  100SAPC    HA 9942   0.702   2.306   3.017  0.6654  2.3535  1.4861
  100SAPC    HB 9943   0.798   2.194   3.119  0.5454 -0.2553  0.0595
  100SAPC    C2 9944   0.887   2.393   3.089  0.3809 -0.4315  0.3772
  100SAPC    HS 9945   0.992   2.361   3.102 -0.4292 -3.1713  0.9619
  100SAPC   O21 9946   0.834   2.446   3.210 -0.1468 -0.1000 -0.5517
  100SAPC   C21 9947   0.918   2.468   3.315  0.0536  0.4049  0.5389
  100SAPC   O22 9948   1.032   2.427   3.323  0.1658  0.3386 -0.7478
  100SAPC   C22 9949   0.828   2.532   3.424  0.5494  0.5209 -0.1543
  100SAPC   H2R 9950   0.845   2.637   3.394 -0.0001  0.4014 -0.9269
  100SAPC   H2S 9951   0.719   2.512   3.413  0.8637 -0.8900 -1.1339
  100SAPC    C3 9952   0.906   2.506   2.989 -0.3143  0.0954  0.2940
  100SAPC    HX 9953   0.938   2.468   2.889 -2.5822  2.0238 -1.2986
  100SAPC    HY 9954   0.987   2.570   3.028  1.3840 -1.7705 -0.0059
  100SAPC   O31 9955   0.783   2.576   2.963 -0.7392  0.0103 -0.2601
  100SAPC   C31 9956   0.784   2.705   2.996  0.0923  0.0334 -0.5587
  100SAPC   O32 9957   0.877   2.759   3.053 -0.4636 -0.5429 -0.5874
  100SAPC   C32 9958   0.665   2.772   2.930  0.5858  0.2568  0.4964
  100SAPC   H2X 9959   0.590   2.691   2.944  0.5898 -0.1185 -1.3468
  100SAPC   H2Y 9960   0.691   2.791   2.824  1.9092 -0.4364  0.6786
  100SAPC   C23 9961   0.879   2.513   3.571 -0.2184  0.7234  0.2643
  100SAPC   H3R 9962   0.975   2.558   3.602  0.2917  0.3977 -0.7959
  100SAPC   H3S 9963   0.901   2.405   3.587  3.2266  1.3772  0.6617
  100SAPC   C24 9964   0.778   2.568   3.675  0.0563 -0.4379  0.3698
  100SAPC   H4R 9965   0.671   2.553   3.648  0.1304 -1.2769  0.5122
  100SAPC   H4S 9966   0.791   2.678   3.672 -0.2840 -0.3947 -2.0581
  100SAPC   C25 9967   0.798   2.500   3.813 -0.3160 -0.7638  0.1528
  100SAPC   H5R 9968   0.734   2.413   3.833 -0.9777  0.3600  3.4231
  100SAPC   C26 9969   0.872   2.556   3.917  0.2151  0.3778  1.0739
  100SAPC   H6R 9970   0.893   2.486   3.999  0.7161  2.0415  2.4359
  100SAPC   C27 9971   0.963   2.673   3.915 -0.6573 -0.7296  0.5053
  100SAPC   H7R 9972   0.976   2.714   3.812  1.1686  0.8572  1.3100
  100SAPC   H7S 9973   1.058   2.640   3.961 -0.2251 -0.1241  0.0741
  100SAPC   C28 9974   0.884   2.787   3.979  0.1182 -0.0986 -0.3268
  100SAPC   H8R 9975   0.778   2.772   3.956  0.4087 -4.1686  0.2462
  100SAPC   C29 9976   0.924   2.878   4.067  0.3086 -0.5384 -0.1771
  100SAPC   H9R 9977   0.859   2.963   4.092 -0.4463 -1.0188 -0.4650
  100SAPC  C210 9978   1.063   2.889   4.121  0.3644 -0.2106 -0.2972
  100SAPC  H10R 9979   1.097   2.991   4.095 -0.7147 -0.1747 -1.6677
  100SAPC  H10S 9980   1.138   2.822   4.074 -0.1396 -0.6016 -0.5516
  100SAPC  C211 9981   1.069   2.850   4.270 -0.7286  0.4797  0.3093
  100SAPC  H11R 9982   1.131   2.761   4.293 -1.6980 -0.2841  0.0227
  100SAPC  C212 9983   1.018   2.915   4.378  0.9245 -0.1153 -0.3293
  100SAPC  H12R 9984   1.044   2.863   4.471  0.2278 -0.3138 -0.2372
  100SAPC  C213 9985   0.932   3.043   4.380  0.6066  0.1485 -0.5190
  100SAPC  H13R 9986   0.828   3.011   4.359  0.6960 -1.4044  1.1193
  100SAPC  H13S 9987   0.960   3.108   4.295  0.3416  0.1946 -0.5705
  100SAPC  C214 9988   0.956   3.127   4.509  0.3072 -0.2786 -0.6494
  100SAPC  H14R 9989   1.030   3.209   4.500 -0.3667  1.0237  3.6066
  100SAPC  C215 9990   0.898   3.112   4.628 -0.0822  0.2486  0.8348
  100SAPC  H15R 9991   0.919   3.191   4.701  0.2630  0.2637  0.7233
  100SAPC  C216 9992   0.791   3.020   4.669  0.0735 -0.3426 -0.9703
  100SAPC  H16R 9993   0.775   2.943   4.591  2.4475 -1.6425 -0.2972
  100SAPC  H16S 9994   0.692   3.068   4.681  1.0936  1.8252 -0.8585
  100SAPC  C217 9995   0.834   2.937   4.789  0.4770  0.4004 -0.4457
  100SAPC  H17R 9996   0.833   3.002   4.878  1.6075 -0.5996  0.3361
  100SAPC  H17S 9997   0.934   2.892   4.769  0.4435  0.7964 -1.6181
  100SAPC  C218 9998   0.741   2.812   4.809 -0.0711 -0.3222  0.4014
  100SAPC  H18R 9999   0.739   2.758   4.712  1.7346 -0.2769  0.2976
  100SAPC  H18S10000   0.639   2.855   4.822  0.4075  1.3120 -0.8660
  100SAPC  C21910001   0.783   2.719   4.915  0.6699  0.4889  0.0294
  100SAPC  H19R10002   0.893   2.725   4.926  0.9511 -2.4354 -0.3040
  100SAPC  H19S10003   0.750   2.615   4.892  0.9856  0.6973 -1.4486
  100SAPC  C22010004   0.731   2.753   5.059 -0.0020  0.1331 -0.1862
  100SAPC  H20R10005   0.741   2.663   5.123 -0.9509  0.7493  0.8577
  100SAPC  H20S10006   0.623   2.777   5.050 -0.3687 -0.9782  1.0098
  100SAPC  H20T10007   0.793   2.841   5.085 -0.7699  0.7483 -0.4156
  100SAPC   C3310008   0.617   2.904   2.992 -0.3836  0.2053 -0.2840
  100SAPC   H3X10009   0.553   2.962   2.922 -0.4831 -2.1080 -2.2653
  100SAPC   H3Y10010   0.700   2.972   3.020 -2.4433  2.9269 -0.4162
  100SAPC   C3410011   0.530   2.883   3.116 -0.0098 -0.2854 -0.1732
  100SAPC   H4X10012   0.461   2.797   3.101  1.5190 -1.9214  1.5959
  100SAPC   H4Y10013   0.483   2.980   3.138  0.5717 -0.0212 -0.0822
  100SAPC   C3510014   0.608   2.858   3.252  0.3407 -0.3554 -0.0231
  100SAPC   H5X10015   0.674   2.944   3.278 -3.5706  2.5904  1.0952
  100SAPC   H5Y10016   0.672   2.767   3.245  1.2962  0.0531  2.3979
  100SAPC   C3610017   0.515   2.856   3.371  0.0887  0.0897 -0.8861
  100SAPC   H6X10018   0.443   2.773   3.352  0.5559  0.0702 -2.8954
  100SAPC   H6Y10019   0.454   2.948   3.385  0.1465  0.2306 -1.5005
  100SAPC   C3710020   0.580   2.830   3.504  0.3666  0.3160 -0.1537
  100SAPC   H7X10021   0.667   2.899   3.505  0.4447  0.2421 -1.2455
  100SAPC   H7Y10022   0.620   2.727   3.513  1.4628  0.8377  1.3853
  100SAPC   C3810023   0.484   2.854   3.621 -0.7992 -0.0475 -0.0414
  100SAPC   H8X10024   0.403   2.778   3.625  1.5031 -2.5818  1.9207
  100SAPC   H8Y10025   0.430   2.948   3.597  0.8310  1.3060  1.2789
  100SAPC   C3910026   0.549   2.852   3.756  0.3081  0.7511  0.1706
  100SAPC   H9X10027   0.620   2.936   3.771 -0.3658  1.3152  0.2453
  100SAPC   H9Y10028   0.603   2.757   3.774 -1.8002 -0.6943 -0.7073
  100SAPC  C31010029   0.440   2.862   3.868 -0.2487 -0.3618 -0.0156
  100SAPC  H10X10030   0.355   2.793   3.855  0.9191 -1.8753  0.1762
  100SAPC  H10Y10031   0.396   2.963   3.883  0.9616 -0.0669  2.0550
  100SAPC  C31110032   0.506   2.848   4.006 -0.6938 -0.2222  0.4860
  100SAPC  H11X10033   0.570   2.936   4.029 -0.1735 -0.7705  1.1843
  100SAPC  H11Y10034   0.574   2.760   4.004 -0.1973  0.0421  2.8874
  100SAPC  C31210035   0.405   2.822   4.116 -0.3961 -0.4414  0.1379
  100SAPC  H12X10036   0.323   2.754   4.084 -1.0452 -0.0006  0.8386
  100SAPC  H12Y10037   0.354   2.919   4.136 -1.2001 -1.0098  0.9455
  100SAPC  C31310038   0.461   2.779   4.250 -0.0461  0.5853  0.2866
  100SAPC  H13X10039   0.554   2.831   4.282  3.2639 -3.8965 -1.0370
  100SAPC  H13Y10040   0.485   2.671   4.240  0.5207  0.5506  1.7001
  100SAPC  C31410041   0.353   2.791   4.366 -0.3368  0.3832  0.2506
  100SAPC  H14X10042   0.254   2.744   4.345 -0.5107  0.4171  0.9526
  100SAPC  H14Y10043   0.332   2.899   4.377  1.5125  1.0897 -2.3048
  100SAPC  C31510044   0.405   2.723   4.491  0.1896  0.5768  0.1327
  100SAPC  H15X10045   0.499   2.772   4.523  1.1768 -1.9089  1.3235
  100SAPC  H15Y10046   0.435   2.616   4.479 -0.5890  0.4433 -0.7367
  100SAPC  C31610047   0.304   2.729   4.604 -0.0464 -0.4419  0.3954
  100SAPC  H16X10048   0.230   2.646   4.596  0.1108 -0.7626  1.9422
  100SAPC  H16Y10049   0.243   2.821   4.589  2.5477  1.4493  0.8070
  100SAPC  C31710050   0.366   2.724   4.743 -0.4716  0.2670  0.6812
  100SAPC  H17X10051   0.287   2.730   4.821 -0.6475  0.7039  0.4721
  100SAPC  H17Y10052   0.429   2.815   4.758  0.3133 -0.2230  0.4095
  100SAPC  C31810053   0.443   2.594   4.775  0.3862  0.0934  0.5899
  100SAPC  H18X10054   0.525   2.576   4.702 -1.1167 -0.1183 -1.1410
  100SAPC  H18Y10055   0.365   2.515   4.765 -0.3772  0.9127 -0.0569
  100SAPC  H18Z10056   0.489   2.588   4.875 -0.3122  0.8510  0.9644
  101OSM      N10057   4.027   0.869   7.590 -0.9102 -0.0360  0.7572
  101OSM    C1510058   4.178   0.860   7.560  0.2357 -0.2288 -0.2850
  101OSM   H15A10059   4.244   0.814   7.633  0.3486  0.4313  0.0390
  101OSM   H15B10060   4.223   0.954   7.532  2.9667 -1.7742 -1.4975
  101OSM   H15C10061   4.180   0.788   7.480 -0.3196 -1.4272  0.7589
  101OSM    C1410062   3.969   0.726   7.599  0.3592  0.6220 -0.5623
  101OSM   H14A10063   3.876   0.729   7.653  0.3088  1.4761 -0.6814
  101OSM   H14B10064   4.036   0.660   7.651  1.2780  2.9049  1.3375
  101OSM   H14C10065   3.945   0.685   7.502  1.9450  0.6810 -1.0154
  101OSM    C1310066   4.003   0.938   7.715  0.2295 -0.4877  0.2601
  101OSM   H13A10067   3.902   0.912   7.743 -1.1345  0.8909 -2.9116
  101OSM   H13B10068   4.008   1.046   7.704  0.9206 -0.5390  0.0154
  101OSM   H13C10069   4.073   0.912   7.793  0.7102 -0.9271 -0.3091
  101OSM    C1210070   3.963   0.947   7.476  0.0395  0.3584 -0.1730
  101OSM   H12A10071   3.995   1.050   7.483  1.7683 -0.1219 -0.4106
  101OSM   H12B10072   3.857   0.943   7.495 -0.4953  1.4993 -2.5739
  101OSM    C1110073   3.979   0.898   7.328 -0.0860  0.7906  0.1826
  101OSM   H11A10074   4.089   0.895   7.309 -0.1683 -1.2551 -0.1665
  101OSM   H11B10075   3.927   0.970   7.262 -1.7611  1.6786  2.3431
  101OSM      P10076   3.787   0.742   7.247 -0.0897  0.2673 -0.6726
  101OSM    O1310077   3.765   0.599   7.224  0.4106  0.0562 -0.4869
  101OSM    O1410078   3.698   0.804   7.352 -0.3164  0.7071 -0.4890
  101OSM    O1110079   3.767   0.828   7.121 -0.1328  0.1794  0.0384
  101OSM    O1210080   3.938   0.764   7.304  0.1800 -0.7584  0.5722
  101OSM    C1S10081   3.850   0.799   7.013  0.2483 -0.6754  0.1704
  101OSM    H1S10082   3.823   0.701   6.971  0.5720 -0.5486 -0.3412
  101OSM    H1T10083   3.957   0.796   7.042 -0.2219 -1.4496  1.9950
  101OSM     NF10084   3.914   0.853   6.780 -0.2738 -0.1183  0.2387
  101OSM    HNF10085   4.012   0.867   6.778 -0.4087  0.8467 -1.2509
  101OSM    C2S10086   3.841   0.906   6.895 -0.4383  0.3897 -0.7643
  101OSM    H2S10087   3.735   0.917   6.866 -0.7591 -0.6552 -0.0283
  101OSM    C3S10088   3.898   1.038   6.948 -0.3260 -0.1268  0.3163
  101OSM    H3S10089   4.002   1.007   6.973 -0.1220  0.7077  0.5112
  101OSM     O310090   3.845   1.094   7.071 -0.6892  0.4432  0.3109
  101OSM    HO310091   3.807   1.016   7.113 -1.0819  0.6020  0.2577
  101OSM    C4S10092   3.910   1.151   6.846 -0.3637 -0.6691  0.0844
  101OSM    H4S10093   3.817   1.172   6.791 -0.3977 -2.7749 -0.7812
  101OSM    C5S10094   4.024   1.219   6.812 -0.1727  0.1560 -0.4726
  101OSM    H5S10095   4.115   1.188   6.865 -1.1139 -0.7913  0.6389
  101OSM    C6S10096   4.041   1.319   6.711  0.4135  0.6193  0.6248
  101OSM    H6S10097   4.112   1.389   6.759  0.5316  0.0181  1.3366
  101OSM    H6T10098   3.939   1.362   6.698  0.5602  0.5919 -0.7919
  101OSM    C7S10099   4.094   1.265   6.575  0.1433 -0.2634 -0.4657
  101OSM    H7S10100   4.187   1.206   6.585  0.7364  0.2086 -2.7066
  101OSM    H7T10101   4.128   1.358   6.524  0.9759  0.2085  0.8728
  101OSM    C8S10102   3.995   1.184   6.491  0.4249 -0.8038  0.0358
  101OSM    H8S10103   3.898   1.237   6.476  1.3832  0.6271 -1.3403
  101OSM    H8T10104   3.949   1.095   6.540 -0.6576  0.4888  1.4904
  101OSM    C9S10105   4.060   1.139   6.360  0.7722 -0.0331 -0.2210
  101OSM    H9S10106   4.000   1.071   6.295  2.3900 -0.3480 -1.4551
  101OSM    H9T10107   4.161   1.097   6.381 -0.0929 -1.7280  0.8195
  101OSM   C10S10108   4.073   1.264   6.269  0.0007  0.0621  0.2803
  101OSM   H10S10109   4.151   1.244   6.192 -0.0578  0.2065  0.1824
  101OSM   H10T10110   4.104   1.358   6.318 -0.6489  0.6349 -0.3908
  101OSM   C11S10111   3.950   1.281   6.183  0.2318  0.2764  0.7473
  101OSM   H11S10112   3.866   1.297   6.254  1.2903  0.7357  1.9395
  101OSM   H11T10113   3.929   1.190   6.121 -0.1323  0.1666  1.0259
  101OSM   C12S10114   3.957   1.394   6.079 -0.2929  0.6975 -0.3962
  101OSM   H12S10115   4.031   1.371   6.000 -1.5834 -1.6131 -1.0324
  101OSM   H12T10116   3.979   1.497   6.116 -1.1793  1.8997 -2.9176
  101OSM   C13S10117   3.821   1.410   6.007  0.2075  0.1368  0.2968
  101OSM   H13S10118   3.748   1.402   6.090  0.0139 -2.6230 -0.0513
  101OSM   H13T10119   3.796   1.317   5.950 -1.8705 -0.2613  1.7429
  101OSM   C14S10120   3.806   1.535   5.932  0.2625 -1.0874  0.7134
  101OSM   H14S10121   3.892   1.559   5.866 -1.4940  1.5756 -0.8166
  101OSM   H14T10122   3.803   1.622   6.001 -2.3410 -0.9613  0.5532
  101OSM   C15S10123   3.677   1.559   5.854 -0.3856  0.7491  0.4435
  101OSM   H15S10124   3.662   1.470   5.790  2.3432 -2.1981  3.4926
  101OSM   H15T10125   3.689   1.648   5.789 -1.9737  1.2052  0.7195
  101OSM   C16S10126   3.553   1.578   5.940 -0.4238 -0.0096 -0.3575
  101OSM   H16S10127   3.569   1.665   6.007 -0.2612 -0.1608 -0.1957
  101OSM   H16T10128   3.540   1.489   6.006 -0.3656  0.2724  0.0365
  101OSM   C17S10129   3.421   1.583   5.869 -0.2310 -0.0029  0.4561
  101OSM   H17S10130   3.337   1.557   5.936 -0.7828 -1.2436 -0.6672
  101OSM   H17T10131   3.412   1.514   5.783  3.3439  0.3802 -0.4082
  101OSM   C18S10132   3.383   1.717   5.815  0.0066 -1.1603  0.2508
  101OSM   H18S10133   3.274   1.718   5.794  0.3138  0.3774 -1.5199
  101OSM   H18T10134   3.436   1.734   5.719  2.6091  1.5884  1.9774
  101OSM   H18U10135   3.401   1.800   5.888 -3.2383  0.3603 -0.4916
  101OSM    C1F10136   3.866   0.757   6.697  0.0693  0.0605  0.3631
  101OSM     OF10137   3.748   0.723   6.692 -0.6460 -0.6164  0.4034
  101OSM    C2F10138   3.965   0.692   6.604  0.0350  0.4944 -0.7024
  101OSM    H2F10139   3.916   0.605   6.555 -0.8434 -0.6726  2.0625
  101OSM    H2G10140   4.040   0.648   6.673 -0.3796 -0.7202 -1.0004
  101OSM    C3F10141   4.025   0.784   6.503  0.2804  0.7023 -0.1130
  101OSM    H3F10142   4.059   0.870   6.565 -1.7786 -1.4687  4.5458
  101OSM    H3G10143   3.960   0.822   6.422 -2.1644 -0.8630  0.9851
  101OSM    C4F10144   4.138   0.722   6.413 -0.3885 -0.1934  0.7450
  101OSM    H4F10145   4.086   0.634   6.369  1.9786 -2.1006  1.5390
  101OSM    H4G10146   4.227   0.698   6.476 -1.4648  1.3841  2.9991
  101OSM    C5F10147   4.190   0.817   6.302 -0.3902  0.0608  0.0087
  101OSM    H5F10148   4.257   0.895   6.344 -1.0254  1.5216 -1.5806
  101OSM    H5G10149   4.103   0.864   6.252 -0.9862 -0.3365  0.6686
  101OSM    C6F10150   4.271   0.739   6.193 -0.2679  0.1737  0.2472
  101OSM    H6F10151   4.212   0.649   6.165  0.1233 -0.3243  0.9914
  101OSM    H6G10152   4.365   0.698   6.236  0.2978 -0.2505 -1.2998
  101OSM    C7F10153   4.299   0.816   6.062  0.5942 -0.3879 -0.6776
  101OSM    H7F10154   4.362   0.905   6.084  1.4449 -1.1189 -0.0525
  101OSM    H7G10155   4.201   0.861   6.038  0.0211 -0.2828  1.6175
  101OSM    C8F10156   4.383   0.731   5.967  0.4428  0.6973  0.8329
  101OSM    H8F10157   4.325   0.637   5.971  2.8229 -0.8277  1.7445
  101OSM    H8G10158   4.487   0.724   6.008  1.4572  1.0139 -1.5297
  101OSM    C9F10159   4.387   0.766   5.818  0.2336 -0.0531 -0.2369
  101OSM    H9F10160   4.488   0.756   5.778 -0.1206 -0.8567 -0.9672
  101OSM   C10F10161   4.281   0.808   5.738 -0.5262  0.5351 -0.1587
  101OSM   H10F10162   4.310   0.833   5.635 -2.4300 -1.2912 -1.2114
  101OSM   C11F10163   4.138   0.807   5.781 -0.3539  0.2028 -0.4315
  101OSM   H11F10164   4.114   0.740   5.866 -0.3626 -1.8853 -1.9979
  101OSM   H11G10165   4.086   0.757   5.697 -0.6045 -1.3799  0.6188
  101OSM   C12F10166   4.097   0.959   5.803  0.5037 -0.2057  0.1483
  101OSM   H12F10167   4.166   1.013   5.872  0.6507 -0.5502  0.2756
  101OSM   H12G10168   3.997   0.942   5.848 -0.3098  0.5915 -1.2831
  101OSM   C13F10169   4.079   1.041   5.673  0.1178  0.5532  0.3065
  101OSM   H13F10170   4.045   0.969   5.595 -1.6885  3.3638 -1.6939
  101OSM   H13G10171   4.175   1.083   5.638 -0.1921  1.0986  0.1041
  101OSM   C14F10172   3.998   1.160   5.703  0.8822 -0.1330 -0.0074
  101OSM   H14F10173   4.068   1.227   5.757  0.7994 -0.3779  0.4084
  101OSM   H14G10174   3.907   1.138   5.761  1.5380 -1.0208  0.6956
  101OSM   C15F10175   3.943   1.226   5.570  0.0377 -0.0950  0.0683
  101OSM   H15F10176   3.877   1.159   5.512 -0.9289  1.2082 -0.3957
  101OSM   H15G10177   4.033   1.255   5.511 -0.6375  0.1173 -0.8921
  101OSM   C16F10178   3.863   1.362   5.586 -0.1131  0.7345  0.2962
  101OSM   H16F10179   3.901   1.413   5.677  0.8874 -0.8084  0.7817
  101OSM   H16G10180   3.757   1.337   5.606  0.2700 -3.2148 -1.6249
  101OSM   C17F10181   3.876   1.455   5.465  0.3987  0.0661 -0.2371
  101OSM   H17F10182   3.825   1.408   5.378  1.2695 -1.0485 -0.1645
  101OSM   H17G10183   3.980   1.471   5.428  0.5686 -2.3133 -0.9289
  101OSM   C18F10184   3.829   1.596   5.503 -0.3367  0.0872 -0.0645
  101OSM   H18F10185   3.848   1.661   5.414 -0.4594 -1.1202 -1.0032
  101OSM   H18G10186   3.894   1.629   5.587  0.2811 -0.0643 -0.4740
  101OSM   H18H10187   3.724   1.610   5.535  0.1190  0.9747  1.1125
  102OSM      N10188   5.713   1.349   7.396  0.0947 -0.5828  0.4699
  102OSM    C1510189   5.636   1.466   7.416 -0.4324  0.0749  0.4506
  102OSM   H15A10190   5.652   1.513   7.512 -0.4534 -1.4780  1.2424
  102OSM   H15B10191   5.531   1.444   7.413 -0.5322  0.6083 -0.8011
  102OSM   H15C10192   5.652   1.542   7.341  0.7245  0.5742  1.1788
  102OSM    C1410193   5.860   1.390   7.382 -0.0677  0.1092  0.4744
  102OSM   H14A10194   5.885   1.470   7.314  1.3347 -0.1328  0.6788
  102OSM   H14B10195   5.918   1.310   7.339 -0.8659  0.3039 -1.0450
  102OSM   H14C10196   5.905   1.414   7.477 -0.9274 -0.8361  1.1397
  102OSM    C1310197   5.696   1.256   7.507 -0.3990  0.2131 -0.3728
  102OSM   H13A10198   5.592   1.228   7.516 -0.1446 -0.6875 -0.1496
  102OSM   H13B10199   5.726   1.295   7.603 -0.6889  1.8184 -0.8926
  102OSM   H13C10200   5.742   1.159   7.494  1.8934  1.3793 -1.5378
  102OSM    C1210201   5.667   1.290   7.260  0.0605  0.3556 -0.1295
  102OSM   H12A10202   5.672   1.363   7.181 -0.0483  0.0382 -0.4313
  102OSM   H12B10203   5.561   1.272   7.268 -0.1962  1.7633 -0.1114
  102OSM    C1110204   5.717   1.145   7.222 -0.1182  0.0308 -0.4823
  102OSM   H11A10205   5.827   1.159   7.214 -0.0707  0.9470  1.2437
  102OSM   H11B10206   5.678   1.136   7.118  0.0757  1.9530 -0.7680
  102OSM      P10207   5.530   0.995   7.312 -0.1768  0.0407  0.0425
  102OSM    O1310208   5.512   0.877   7.405 -0.2536  0.4001  0.1229
  102OSM    O1410209   5.434   1.111   7.319  0.3564 -0.2088  0.6620
  102OSM    O1110210   5.534   0.939   7.165 -0.0690  0.0106 -0.1088
  102OSM    O1210211   5.678   1.045   7.318 -0.1769  0.0731  0.0327
  102OSM    C1S10212   5.412   0.894   7.100  0.2354  0.4957 -0.0469
  102OSM    H1S10213   5.327   0.947   7.146  0.8174 -0.0432  1.7460
  102OSM    H1T10214   5.400   0.787   7.129  0.3503 -0.0695 -1.9113
  102OSM     NF10215   5.268   0.867   6.883 -0.3787  0.4098 -0.0719
  102OSM    HNF10216   5.269   0.794   6.815 -0.9811  1.3052 -1.0721
  102OSM    C2S10217   5.400   0.908   6.940  0.6309 -1.1046 -0.2741
  102OSM    H2S10218   5.393   1.018   6.925 -2.0538 -0.8501  2.0553
  102OSM    C3S10219   5.526   0.850   6.861 -0.3278 -0.4450 -0.2329
  102OSM    H3S10220   5.520   0.739   6.857 -1.5964 -0.4485  0.9354
  102OSM     O310221   5.646   0.876   6.939 -0.3539 -0.0353 -0.2960
  102OSM    HO310222   5.618   0.920   7.019  3.5712 -1.0046  1.8254
  102OSM    C4S10223   5.548   0.897   6.724  0.1476 -0.9858  0.5617
  102OSM    H4S10224   5.583   1.001   6.712 -3.2661  0.1085 -1.1304
  102OSM    C5S10225   5.503   0.832   6.615 -0.2571  0.0045 -0.0215
  102OSM    H5S10226   5.451   0.735   6.621 -0.1923 -0.0315 -0.0431
  102OSM    C6S10227   5.521   0.895   6.478  0.1999 -0.0928 -0.5981
  102OSM    H6S10228   5.560   0.819   6.407  0.7057 -0.8455  0.4646
  102OSM    H6T10229   5.601   0.972   6.470 -0.7764  0.9800 -0.2969
  102OSM    C7S10230   5.391   0.954   6.433  0.0454 -0.1694 -0.0446
  102OSM    H7S10231   5.353   1.032   6.503  0.8755 -0.9701  1.3482
  102OSM    H7T10232   5.310   0.880   6.420  0.4190 -0.4154 -1.0558
  102OSM    C8S10233   5.404   1.017   6.293 -0.3494  0.4156  0.2470
  102OSM    H8S10234   5.433   0.937   6.221 -0.0404 -1.0897  1.9667
  102OSM    H8T10235   5.486   1.091   6.306  0.8553 -1.0472  1.3339
  102OSM    C9S10236   5.280   1.088   6.239  0.0071  0.8725  0.4366
  102OSM    H9S10237   5.258   1.184   6.290  0.5693  0.7762  0.8690
  102OSM    H9T10238   5.197   1.014   6.244  0.0716  0.8747  1.9490
  102OSM   C10S10239   5.300   1.118   6.086 -0.1873 -0.0374  0.0884
  102OSM   H10S10240   5.324   1.031   6.021 -0.0869  0.6984 -0.8782
  102OSM   H10T10241   5.383   1.187   6.058 -0.3767  0.4484  0.7017
  102OSM   C11S10242   5.166   1.171   6.025 -0.0131  0.1677 -0.5343
  102OSM   H11S10243   5.163   1.280   6.048  1.9168  0.4557 -1.4291
  102OSM   H11T10244   5.081   1.104   6.050  2.1327 -3.2704 -1.6477
  102OSM   C12S10245   5.160   1.167   5.870  0.0311  0.2439 -0.8214
  102OSM   H12S10246   5.064   1.191   5.821  1.1558  0.7868 -2.8409
  102OSM   H12T10247   5.184   1.061   5.850  1.8418  0.8901 -2.3293
  102OSM   C13S10248   5.273   1.246   5.804 -0.4757 -0.1684 -0.1715
  102OSM   H13S10249   5.374   1.239   5.850 -0.9965 -1.5727  0.8436
  102OSM   H13T10250   5.248   1.354   5.810  0.3419  0.0563 -0.6420
  102OSM   C14S10251   5.302   1.200   5.661  0.1233 -0.5602 -0.0110
  102OSM   H14S10252   5.273   1.093   5.652 -0.1882 -0.6284  1.4671
  102OSM   H14T10253   5.410   1.204   5.637 -0.3371 -3.4065 -3.2715
  102OSM   C15S10254   5.219   1.273   5.547 -0.6652 -0.1817  0.1771
  102OSM   H15S10255   5.227   1.381   5.568 -0.4046 -0.5618  2.1790
  102OSM   H15T10256   5.113   1.244   5.564 -0.7652 -1.3669 -2.0777
  102OSM   C16S10257   5.280   1.240   5.407 -0.3060  0.5411  0.3627
  102OSM   H16S10258   5.202   1.234   5.328 -0.5657 -2.2346  0.7109
  102OSM   H16T10259   5.344   1.150   5.418  0.1235  1.0668  2.8098
  102OSM   C17S10260   5.377   1.351   5.366 -0.5929 -0.7463 -0.0292
  102OSM   H17S10261   5.445   1.379   5.449 -0.1253 -0.3376 -0.5378
  102OSM   H17T10262   5.307   1.435   5.345 -0.5615 -0.4903  0.8396
  102OSM   C18S10263   5.470   1.312   5.246  0.9529  0.4320 -0.0090
  102OSM   H18S10264   5.415   1.287   5.153  3.4958 -0.7843 -1.2773
  102OSM   H18T10265   5.542   1.232   5.273  0.3996 -0.0526  0.0418
  102OSM   H18U10266   5.530   1.403   5.224 -1.5068  2.0457 -0.4347
  102OSM    C1F10267   5.152   0.925   6.916 -0.1623 -0.3057 -0.2730
  102OSM     OF10268   5.146   1.035   6.972  0.6315 -0.1176  0.0206
  102OSM    C2F10269   5.030   0.860   6.872  0.3295  0.0128  0.3471
  102OSM    H2F10270   4.975   0.830   6.964  1.6975 -0.1814  1.1411
  102OSM    H2G10271   5.050   0.765   6.819 -0.7677 -0.4841  0.7895
  102OSM    C3F10272   4.932   0.947   6.786 -0.4571 -0.0692 -0.5153
  102OSM    H3F10273   4.881   1.024   6.848  0.5450 -1.3746  2.0905
  102OSM    H3G10274   4.857   0.876   6.746 -0.9161  0.1173  0.0042
  102OSM    C4F10275   5.004   1.011   6.665 -0.1672 -1.2850 -0.1823
  102OSM    H4F10276   5.077   0.940   6.619  0.7077 -1.5329  1.5039
  102OSM    H4G10277   5.064   1.099   6.695 -0.5857 -1.1731  0.3370
  102OSM    C5F10278   4.909   1.023   6.551 -0.0764 -0.1931  0.6950
  102OSM    H5F10279   4.820   1.084   6.580  1.8370  2.4362  1.3534
  102OSM    H5G10280   4.864   0.924   6.527 -1.8988  0.6515  0.4148
  102OSM    C6F10281   4.963   1.087   6.421 -0.5244  0.4246 -0.8611
  102OSM    H6F10282   4.908   1.052   6.331 -3.0701 -1.7919  1.3707
  102OSM    H6G10283   5.069   1.058   6.401 -0.8891  0.5682 -3.2696
  102OSM    C7F10284   4.944   1.237   6.435  0.2022  0.6059  0.3809
  102OSM    H7F10285   5.007   1.276   6.518 -1.5478  2.2251  1.0239
  102OSM    H7G10286   4.837   1.248   6.463 -0.1058  2.5042 -1.3514
  102OSM    C8F10287   4.973   1.321   6.305  0.1758 -0.6300  0.2729
  102OSM    H8F10288   4.939   1.256   6.221 -0.3707 -1.8073  1.3742
  102OSM    H8G10289   5.083   1.323   6.289  0.1287 -2.4142 -0.5298
  102OSM    C9F10290   4.902   1.454   6.304  0.3636 -0.3854 -0.2330
  102OSM    H9F10291   4.895   1.512   6.397  0.9517  4.1160 -2.7104
  102OSM   C10F10292   4.855   1.513   6.188  0.1079  0.3500 -0.3811
  102OSM   H10F10293   4.805   1.610   6.198 -0.6481  0.0982 -1.5561
  102OSM   C11F10294   4.861   1.463   6.045 -0.2299 -0.5939 -0.3042
  102OSM   H11F10295   4.767   1.415   6.013 -0.6073  0.9729 -1.6985
  102OSM   H11G10296   4.945   1.390   6.038  0.5376  0.1299  0.9429
  102OSM   C12F10297   4.883   1.552   5.934  0.2210 -0.8798 -0.1492
  102OSM   H12F10298   4.975   1.610   5.956  0.5090  0.0917 -3.4036
  102OSM   H12G10299   4.798   1.623   5.944  0.8397 -0.2822  1.1461
  102OSM   C13F10300   4.889   1.492   5.802 -0.1644  0.3679  0.0895
  102OSM   H13F10301   4.806   1.419   5.792  1.7497 -1.8254 -0.6400
  102OSM   H13G10302   4.982   1.433   5.806 -0.0501  0.6308  1.8265
  102OSM   C14F10303   4.868   1.590   5.687  0.3008  0.5661 -0.6744
  102OSM   H14F10304   4.958   1.655   5.685  2.2720 -2.0103 -1.9797
  102OSM   H14G10305   4.776   1.652   5.689  0.5521  0.9471  0.6598
  102OSM   C15F10306   4.891   1.517   5.555 -0.1075 -0.3129  0.1117
  102OSM   H15F10307   4.813   1.439   5.538 -0.8287  0.5534 -0.6490
  102OSM   H15G10308   4.990   1.467   5.551  0.1249  0.1801 -0.5160
  102OSM   C16F10309   4.884   1.608   5.426  0.7819 -0.1048 -0.3837
  102OSM   H16F10310   4.964   1.685   5.434  1.7567 -1.0177 -1.0903
  102OSM   H16G10311   4.783   1.652   5.406  0.6636 -0.0596  0.3151
  102OSM   C17F10312   4.912   1.527   5.302  0.0764 -0.2121 -0.4721
  102OSM   H17F10313   4.815   1.481   5.276  1.1137 -1.5884 -2.1328
  102OSM   H17G10314   4.988   1.449   5.324  1.5066  1.2171 -0.1394
  102OSM   C18F10315   4.941   1.626   5.189 -0.4627 -0.2039  1.1539
  102OSM   H18F10316   5.032   1.686   5.210 -0.1638 -0.7732  1.4946
  102OSM   H18G10317   4.860   1.703   5.185  0.4589  0.7817  1.1777
  102OSM   H18H10318   4.959   1.583   5.089  1.3973  1.9007  0.4973
  103OSM      N10319   5.035   2.940   7.600 -0.6493 -0.5321 -0.3402
  103OSM    C1510320   5.127   3.055   7.595  0.0962 -0.5845 -0.3696
  103OSM   H15A10321   5.193   3.061   7.680 -1.5406  0.3512  0.8779
  103OSM   H15B10322   5.062   3.141   7.589 -2.1912 -2.1718  0.4644
  103OSM   H15C10323   5.186   3.047   7.505  2.3376  1.1945  0.8211
  103OSM    C1410324   5.113   2.819   7.628 -0.1856 -0.4724  0.5947
  103OSM   H14A10325   5.217   2.825   7.599 -0.3723 -0.3072 -0.0470
  103OSM   H14B10326   5.060   2.748   7.566  0.9452  0.6682 -1.7730
  103OSM   H14C10327   5.101   2.792   7.732  0.2853  0.3122  0.8559
  103OSM    C1310328   4.932   2.977   7.706  0.2038  0.2614  0.3332
  103OSM   H13A10329   4.888   3.072   7.680 -0.3696  0.7687  2.8918
  103OSM   H13B10330   4.982   2.988   7.801  3.9007 -0.2435 -1.3972
  103OSM   H13C10331   4.856   2.900   7.712  1.9900 -1.6395 -0.2503
  103OSM    C1210332   4.968   2.928   7.465 -0.5281  0.1206 -0.9941
  103OSM   H12A10333   5.048   2.904   7.398 -0.5874 -1.6356 -0.4889
  103OSM   H12B10334   4.933   3.024   7.430 -1.1293 -0.3691 -1.7726
  103OSM    C1110335   4.863   2.821   7.432  1.1031  0.0788  0.1106
  103OSM   H11A10336   4.809   2.840   7.337  3.6174  0.7137 -1.2873
  103OSM   H11B10337   4.785   2.826   7.511  1.7161  2.3364  0.6522
  103OSM      P10338   4.856   2.565   7.388 -0.5401 -0.0251 -0.1164
  103OSM    O1310339   4.958   2.456   7.397 -0.5793  0.0649 -0.2130
  103OSM    O1410340   4.721   2.533   7.437  0.1117 -0.2934 -0.4368
  103OSM    O1110341   4.835   2.615   7.235  0.9372  0.3244  0.1021
  103OSM    O1210342   4.924   2.698   7.455 -0.0424  0.4078 -0.5502
  103OSM    C1S10343   4.839   2.513   7.129  0.0337  0.3174 -0.2044
  103OSM    H1S10344   4.793   2.416   7.158 -0.5832  0.7049  0.1641
  103OSM    H1T10345   4.945   2.500   7.099  0.1740  0.2665  0.2915
  103OSM     NF10346   4.768   2.426   6.902  0.3505 -0.3335 -0.0937
  103OSM    HNF10347   4.840   2.443   6.835  3.0663 -2.2036  2.1268
  103OSM    C2S10348   4.762   2.541   6.990  0.0504  0.3614 -0.4409
  103OSM    H2S10349   4.659   2.566   7.024  0.4098  2.8761 -0.9911
  103OSM    C3S10350   4.812   2.680   6.936 -0.9792  0.1503 -0.4380
  103OSM    H3S10351   4.918   2.663   6.909 -0.5740 -0.8691  1.6016
  103OSM     O310352   4.798   2.780   7.040  0.3652  0.5076  0.3412
  103OSM    HO310353   4.786   2.723   7.116 -0.5848  2.6273  1.8807
  103OSM    C4S10354   4.742   2.730   6.812  0.2117  0.0849  0.7058
  103OSM    H4S10355   4.632   2.728   6.822  0.2287  1.6438  1.4409
  103OSM    C5S10356   4.787   2.752   6.691 -0.0545  0.9490  0.4236
  103OSM    H5S10357   4.886   2.720   6.657  0.4635  0.7582  2.0285
  103OSM    C6S10358   4.701   2.780   6.563 -0.4464  0.1490 -0.1341
  103OSM    H6S10359   4.718   2.699   6.489 -0.4657 -0.6135  0.6826
  103OSM    H6T10360   4.731   2.878   6.520 -0.3846  0.2832  0.2094
  103OSM    C7S10361   4.547   2.766   6.586 -0.1675  0.2324 -0.4849
  103OSM    H7S10362   4.515   2.840   6.663 -0.3288  0.0327 -0.3592
  103OSM    H7T10363   4.504   2.666   6.608  1.4206 -0.3768  0.0002
  103OSM    C8S10364   4.483   2.832   6.468  0.7170  0.1019  0.9427
  103OSM    H8S10365   4.519   2.935   6.449  0.1870  0.2501  0.7264
  103OSM    H8T10366   4.374   2.843   6.486  0.2706 -1.2782 -0.6633
  103OSM    C9S10367   4.496   2.743   6.337  0.3084 -0.5883  0.6372
  103OSM    H9S10368   4.443   2.647   6.356  0.5993 -0.7315  0.7387
  103OSM    H9T10369   4.600   2.723   6.302  0.3770  0.6287  0.1161
  103OSM   C10S10370   4.428   2.810   6.218 -0.7910 -0.3661  0.1057
  103OSM   H10S10371   4.487   2.902   6.199 -0.0669 -0.7403  0.4824
  103OSM   H10T10372   4.330   2.856   6.242 -1.3276 -0.1385 -2.3087
  103OSM   C11S10373   4.420   2.716   6.097  0.1767 -0.1804  0.3869
  103OSM   H11S10374   4.346   2.750   6.022  0.0135 -0.2701  0.5075
  103OSM   H11T10375   4.375   2.620   6.130 -1.3620  0.1123 -0.7452
  103OSM   C12S10376   4.564   2.681   6.053  0.6024  0.4097 -0.1901
  103OSM   H12S10377   4.580   2.581   6.100  0.7168 -0.3147 -1.7183
  103OSM   H12T10378   4.633   2.754   6.101  0.8539  0.0227  0.0415
  103OSM   C13S10379   4.584   2.688   5.902  1.0951 -0.9371 -0.2502
  103OSM   H13S10380   4.509   2.623   5.853  0.0661 -0.2891  0.4374
  103OSM   H13T10381   4.680   2.643   5.869  0.7803 -1.3432 -0.6233
  103OSM   C14S10382   4.568   2.820   5.832 -0.3105  0.1573 -0.0998
  103OSM   H14S10383   4.654   2.885   5.859  0.6065 -1.7261  1.7788
  103OSM   H14T10384   4.473   2.870   5.862 -0.4623  0.5033 -1.1019
  103OSM   C15S10385   4.589   2.814   5.682  0.3499  0.8385 -0.5383
  103OSM   H15S10386   4.611   2.915   5.641  0.5708  1.1412  0.3155
  103OSM   H15T10387   4.505   2.768   5.626 -0.6523 -0.4224  1.8546
  103OSM   C16S10388   4.705   2.722   5.635  0.3309 -0.0922 -0.0125
  103OSM   H16S10389   4.682   2.614   5.643  4.4052 -1.0361  0.8632
  103OSM   H16T10390   4.794   2.736   5.699  0.2957 -1.9076  0.4775
  103OSM   C17S10391   4.746   2.753   5.483  0.1825  0.6204 -0.3551
  103OSM   H17S10392   4.756   2.864   5.476 -1.5728  0.8705  0.5700
  103OSM   H17T10393   4.663   2.719   5.418  1.4789  0.7264 -2.1360
  103OSM   C18S10394   4.872   2.670   5.448  0.6432  0.2754 -0.3202
  103OSM   H18S10395   4.962   2.722   5.487 -0.3236  0.1234  2.3605
  103OSM   H18T10396   4.883   2.656   5.339  1.0691 -1.7059 -0.0575
  103OSM   H18U10397   4.866   2.567   5.489 -1.8998  0.4982  0.0291
  103OSM    C1F10398   4.719   2.304   6.929 -0.2532 -0.7913  0.0161
  103OSM     OF10399   4.643   2.291   7.025  0.8960 -0.3617  0.0371
  103OSM    C2F10400   4.774   2.182   6.856 -0.2380 -0.6937  0.4229
  103OSM    H2F10401   4.770   2.095   6.925 -1.8324  0.0716  1.3549
  103OSM    H2G10402   4.879   2.197   6.822  0.4603 -2.4389  1.6570
  103OSM    C3F10403   4.684   2.154   6.728 -1.0489 -0.0152 -0.2592
  103OSM    H3F10404   4.576   2.149   6.754 -0.9940 -0.8174 -0.1821
  103OSM    H3G10405   4.705   2.048   6.702  0.2555  0.4909 -1.3767
  103OSM    C4F10406   4.701   2.256   6.608  0.4366 -0.7043 -0.2694
  103OSM    H4F10407   4.799   2.253   6.555  0.1037  0.6703 -1.0270
  103OSM    H4G10408   4.702   2.349   6.668 -1.4358 -1.5178  1.0871
  103OSM    C5F10409   4.585   2.259   6.515  0.9894  0.7955  0.2666
  103OSM    H5F10410   4.602   2.353   6.457 -0.7521  0.2973 -1.1412
  103OSM    H5G10411   4.487   2.253   6.567  2.0240 -0.8618  2.1722
  103OSM    C6F10412   4.590   2.132   6.420  0.3840  0.8272  0.3472
  103OSM    H6F10413   4.580   2.036   6.474 -0.2406  0.3991 -0.5084
  103OSM    H6G10414   4.688   2.115   6.371  0.7646 -0.2007  1.4272
  103OSM    C7F10415   4.486   2.139   6.309  0.1958  0.5418 -0.1021
  103OSM    H7F10416   4.387   2.152   6.357  1.2503 -0.6593  2.6185
  103OSM    H7G10417   4.504   2.049   6.247  1.4409  1.2762 -0.8718
  103OSM    C8F10418   4.506   2.254   6.207  0.2763 -0.9996  0.4768
  103OSM    H8F10419   4.504   2.352   6.258  0.6209  0.7756 -2.6778
  103OSM    H8G10420   4.419   2.257   6.138  0.7376 -2.0265 -0.1829
  103OSM    C9F10421   4.621   2.245   6.108 -0.4703  0.1740  0.4410
  103OSM    H9F10422   4.712   2.205   6.154 -0.9728 -1.4279  0.0808
  103OSM   C10F10423   4.611   2.265   5.971 -0.8401 -0.0045 -0.5642
  103OSM   H10F10424   4.706   2.251   5.919 -0.6172  2.3332 -0.9252
  103OSM   C11F10425   4.487   2.280   5.887 -0.6880 -0.2536 -0.1522
  103OSM   H11F10426   4.440   2.373   5.924  2.0266  1.7229 -1.3265
  103OSM   H11G10427   4.416   2.199   5.915  1.0473 -0.8854  2.8924
  103OSM   C12F10428   4.510   2.300   5.741  0.0636 -0.1231  0.6812
  103OSM   H12F10429   4.598   2.244   5.702  0.7453  0.8307  0.8204
  103OSM   H12G10430   4.546   2.404   5.725  1.5747 -0.8734 -1.2213
  103OSM   C13F10431   4.387   2.283   5.650 -1.0361  0.1800  0.6665
  103OSM   H13F10432   4.296   2.332   5.690 -0.6842  0.5340  1.0465
  103OSM   H13G10433   4.359   2.176   5.643 -0.4581  0.1437 -2.2752
  103OSM   C14F10434   4.415   2.329   5.507 -0.2433  0.8663  0.6564
  103OSM   H14F10435   4.508   2.286   5.465  0.1807  1.4474  0.9885
  103OSM   H14G10436   4.431   2.439   5.501  2.6781  0.4843  0.2390
  103OSM   C15F10437   4.305   2.284   5.415 -0.1362 -0.0396  0.4168
  103OSM   H15F10438   4.207   2.280   5.466 -0.2552 -0.6477  0.1529
  103OSM   H15G10439   4.317   2.177   5.388  2.2489  0.4939 -0.9115
  103OSM   C16F10440   4.290   2.380   5.290 -0.7063 -0.2886 -0.4927
  103OSM   H16F10441   4.395   2.391   5.256 -0.2290 -0.4661  0.8552
  103OSM   H16G10442   4.261   2.483   5.319 -0.4415 -0.3736  0.0762
  103OSM   C17F10443   4.196   2.322   5.179 -0.5145 -0.4954 -0.5328
  103OSM   H17F10444   4.094   2.333   5.220 -0.0019  0.8940  0.4171
  103OSM   H17G10445   4.230   2.216   5.166 -0.4498 -0.6403  0.7181
  103OSM   C18F10446   4.217   2.401   5.055  0.3197  0.3191 -0.0559
  103OSM   H18F10447   4.319   2.395   5.011 -0.4770 -1.9966 -1.8033
  103OSM   H18G10448   4.199   2.509   5.075 -1.8153 -0.3080  1.6983
  103OSM   H18H10449   4.145   2.369   4.977  0.6782  0.9488 -0.6643
  104OSM      N10450   5.295   3.516   7.583 -1.2447 -0.6910 -0.2581
  104OSM    C1510451   5.443   3.518   7.621 -0.3182  0.1089 -0.3962
  104OSM   H15A10452   5.492   3.434   7.572 -2.0850  0.1617 -2.4210
  104OSM   H15B10453   5.463   3.511   7.726 -0.8817 -0.8746 -0.3460
  104OSM   H15C10454   5.487   3.607   7.578 -0.9404  0.0635 -1.1642
  104OSM    C1410455   5.216   3.394   7.633 -0.5259 -0.0778 -0.4250
  104OSM   H14A10456   5.116   3.383   7.593 -1.6371 -0.3197  2.2183
  104OSM   H14B10457   5.216   3.382   7.740  1.6771 -1.6143 -0.5352
  104OSM   H14C10458   5.273   3.312   7.592 -1.1091  0.1817 -1.8295
  104OSM    C1310459   5.233   3.637   7.650 -0.3114  0.3387  0.1677
  104OSM   H13A10460   5.126   3.649   7.643 -0.1153  1.4068 -1.7348
  104OSM   H13B10461   5.281   3.728   7.618  1.1548  0.1415  1.6654
  104OSM   H13C10462   5.245   3.632   7.757 -0.0292  0.0521  0.1239
  104OSM    C1210463   5.275   3.540   7.430 -0.1011  0.6569 -0.2438
  104OSM   H12A10464   5.334   3.623   7.394 -0.1191  0.6764 -0.2285
  104OSM   H12B10465   5.171   3.557   7.405 -0.1720  1.1297  0.3577
  104OSM    C1110466   5.318   3.424   7.334 -0.3307 -0.4067  0.1177
  104OSM   H11A10467   5.294   3.449   7.229  0.3809 -1.6875 -0.3648
  104OSM   H11B10468   5.253   3.336   7.354 -0.0847 -0.7615 -0.6286
  104OSM      P10469   5.566   3.482   7.283 -0.5457  0.3881 -0.0591
  104OSM    O1310470   5.552   3.617   7.346  0.2098  0.2189 -0.0190
  104OSM    O1410471   5.695   3.419   7.317  0.0746 -0.1299 -0.9786
  104OSM    O1110472   5.559   3.501   7.126  0.1673 -0.0173 -0.1019
  104OSM    O1210473   5.456   3.385   7.334  0.4060 -0.2428 -0.1666
  104OSM    C1S10474   5.568   3.379   7.047 -0.4155 -0.0815  0.6990
  104OSM    H1S10475   5.472   3.325   7.063 -1.4784  1.5451  0.1318
  104OSM    H1T10476   5.641   3.306   7.086 -2.2785 -2.0692  0.6744
  104OSM     NF10477   5.531   3.305   6.807 -0.7124 -0.4556 -0.6129
  104OSM    HNF10478   5.610   3.269   6.758  1.5264  0.0317  2.3655
  104OSM    C2S10479   5.571   3.414   6.896 -0.2826 -0.4734  0.4514
  104OSM    H2S10480   5.512   3.501   6.860  0.7213 -0.4372 -1.1713
  104OSM    C3S10481   5.717   3.466   6.870 -0.0677  0.8581  0.5488
  104OSM    H3S10482   5.796   3.392   6.895  0.3135  0.7135 -0.9635
  104OSM     O310483   5.748   3.584   6.946  0.7856  0.2138 -0.1842
  104OSM    HO310484   5.678   3.587   7.011  0.9641  0.3714 -0.0013
  104OSM    C4S10485   5.721   3.498   6.719 -0.2633 -0.5532  0.5842
  104OSM    H4S10486   5.625   3.538   6.684 -1.4354 -1.7292  2.2902
  104OSM    C5S10487   5.836   3.491   6.645  0.0092  0.3190 -0.3976
  104OSM    H5S10488   5.931   3.462   6.692  0.8117 -0.4832 -2.3758
  104OSM    C6S10489   5.845   3.533   6.501 -0.0057 -0.0550 -0.2067
  104OSM    H6S10490   5.883   3.442   6.451  1.2868 -0.2630  1.0774
  104OSM    H6T10491   5.913   3.616   6.475  0.7966 -0.6814 -0.1538
  104OSM    C7S10492   5.721   3.574   6.418 -0.1249  0.2028 -0.5479
  104OSM    H7S10493   5.684   3.674   6.447  0.2115  0.8672 -2.2948
  104OSM    H7T10494   5.648   3.492   6.437  0.2422 -0.5177 -2.1040
  104OSM    C8S10495   5.750   3.564   6.268 -0.5221 -0.0729  0.2918
  104OSM    H8S10496   5.785   3.463   6.237  0.0227  1.0733 -3.1759
  104OSM    H8T10497   5.840   3.623   6.243  0.5506 -1.1278  1.5250
  104OSM    C9S10498   5.639   3.616   6.184 -0.1677  0.4993  0.5088
  104OSM    H9S10499   5.627   3.725   6.197 -3.4127  0.0367  2.6553
  104OSM    H9T10500   5.547   3.560   6.209  0.0367  0.3810  1.0131
  104OSM   C10S10501   5.665   3.590   6.035  1.1091 -0.3974  0.2619
  104OSM   H10S10502   5.638   3.484   6.021 -1.1912  0.0618  0.8324
  104OSM   H10T10503   5.773   3.604   6.013  1.5978 -0.4332  2.3949
  104OSM   C11S10504   5.566   3.681   5.951 -0.0939 -0.0995  0.5793
  104OSM   H11S10505   5.600   3.784   5.972  1.6461 -1.0121  2.6401
  104OSM   H11T10506   5.466   3.674   6.000  0.9929 -1.2548  2.7468
  104OSM   C12S10507   5.566   3.630   5.809 -0.4300 -0.1063  0.3926
  104OSM   H12S10508   5.522   3.528   5.810  1.1965 -0.8380  0.3171
  104OSM   H12T10509   5.677   3.623   5.800 -0.2358  2.0880  0.5731
  104OSM   C13S10510   5.516   3.730   5.705 -1.0170  0.2171 -0.2497
  104OSM   H13S10511   5.544   3.832   5.741  1.0756 -0.7280  0.9590
  104OSM   H13T10512   5.407   3.718   5.687 -0.5161  0.0939 -3.7669
  104OSM   C14S10513   5.585   3.712   5.571 -0.1708 -0.0136 -0.3287
  104OSM   H14S10514   5.575   3.604   5.548 -1.5488 -0.2495  1.1545
  104OSM   H14T10515   5.693   3.734   5.583 -0.3475  0.4418  0.5420
  104OSM   C15S10516   5.500   3.782   5.458  0.0915  0.0914  0.1054
  104OSM   H15S10517   5.457   3.881   5.484  1.0410  0.6729 -0.4735
  104OSM   H15T10518   5.412   3.716   5.446 -2.1218  2.9148 -0.4058
  104OSM   C16S10519   5.574   3.798   5.326  0.0174  1.0224  0.4813
  104OSM   H16S10520   5.501   3.794   5.242  0.1940  0.7372  0.3414
  104OSM   H16T10521   5.639   3.709   5.309  0.5671  1.8870 -2.4694
  104OSM   C17S10522   5.656   3.926   5.302 -0.5473 -0.9549  1.0361
  104OSM   H17S10523   5.747   3.927   5.365 -0.6282 -1.1785  1.1562
  104OSM   H17T10524   5.581   4.004   5.327  0.0063 -0.2825  0.6169
  104OSM   C18S10525   5.703   3.941   5.157 -0.9487  0.2299 -0.0033
  104OSM   H18S10526   5.619   3.960   5.087 -1.7688  0.2219  0.9579
  104OSM   H18T10527   5.765   3.856   5.123 -0.0348  0.4563  1.0259
  104OSM   H18U10528   5.763   4.034   5.148 -0.9607  0.1709 -0.7880
  104OSM    C1F10529   5.403   3.256   6.801 -0.8286  0.1947 -0.0912
  104OSM     OF10530   5.320   3.290   6.877  0.1094 -0.3425  0.5222
  104OSM    C2F10531   5.368   3.152   6.699 -0.1282 -0.0768  1.2590
  104OSM    H2F10532   5.260   3.127   6.708 -0.9442  0.0627 -4.5550
  104OSM    H2G10533   5.434   3.067   6.727  4.6049  2.4056 -1.0068
  104OSM    C3F10534   5.406   3.196   6.551 -0.4719  0.3048 -0.9775
  104OSM    H3F10535   5.386   3.098   6.501  0.7479  0.1326 -1.1672
  104OSM    H3G10536   5.513   3.223   6.546 -0.0314 -1.0323  0.5155
  104OSM    C4F10537   5.308   3.299   6.491  0.2640 -0.4519  0.6786
  104OSM    H4F10538   5.318   3.391   6.553  0.4372  0.1618 -0.2320
  104OSM    H4G10539   5.205   3.258   6.500 -0.8051  1.5452 -1.2620
  104OSM    C5F10540   5.334   3.329   6.341 -0.8999 -0.1094 -0.0368
  104OSM    H5F10541   5.365   3.230   6.301 -0.1807 -1.3701  3.3692
  104OSM    H5G10542   5.418   3.402   6.334 -1.1062  0.2312  0.9430
  104OSM    C6F10543   5.216   3.410   6.281  0.5575 -0.0984 -0.5476
  104OSM    H6F10544   5.193   3.503   6.336 -0.5571 -2.9230  4.3234
  104OSM    H6G10545   5.118   3.357   6.289  0.3886  0.4044  1.0134
  104OSM    C7F10546   5.240   3.444   6.129 -0.0458 -0.1407  0.2523
  104OSM    H7F10547   5.244   3.354   6.064  0.0447  0.7113 -0.9501
  104OSM    H7G10548   5.334   3.497   6.106 -0.7661  0.4910 -1.4009
  104OSM    C8F10549   5.132   3.536   6.075 -0.1001 -0.3772  0.2391
  104OSM    H8F10550   5.095   3.599   6.158 -1.9402  1.3594 -1.7599
  104OSM    H8G10551   5.055   3.463   6.043  1.9282 -1.7691 -1.8242
  104OSM    C9F10552   5.171   3.630   5.959 -0.1964 -0.9879  0.4643
  104OSM    H9F10553   5.265   3.687   5.965 -0.4886 -0.3342 -0.8931
  104OSM   C10F10554   5.106   3.643   5.843 -0.4668  0.7803 -0.1959
  104OSM   H10F10555   5.139   3.722   5.773  0.1010  0.3039 -0.4683
  104OSM   C11F10556   4.990   3.557   5.796 -0.3705 -0.9522 -0.2771
  104OSM   H11F10557   4.900   3.621   5.782  0.4188 -0.1977 -2.2718
  104OSM   H11G10558   4.982   3.465   5.857 -0.9962 -1.2406 -0.7787
  104OSM   C12F10559   5.028   3.512   5.650  0.3496  0.8256 -0.7906
  104OSM   H12F10560   4.959   3.440   5.599  0.2889  1.7071 -1.9989
  104OSM   H12G10561   5.128   3.465   5.639  0.5441  0.9955  0.2315
  104OSM   C13F10562   5.039   3.636   5.551 -0.4631 -0.0951 -0.9499
  104OSM   H13F10563   5.117   3.703   5.595 -1.1099 -0.7847  1.4137
  104OSM   H13G10564   4.942   3.688   5.562 -0.5569 -0.4536 -0.0008
  104OSM   C14F10565   5.056   3.606   5.402  0.0434 -0.1655  0.2964
  104OSM   H14F10566   4.967   3.550   5.368 -1.1846  1.2313  1.0955
  104OSM   H14G10567   5.141   3.535   5.389  0.3084 -0.1752  1.8762
  104OSM   C15F10568   5.090   3.729   5.308  1.1694 -0.8577 -0.4686
  104OSM   H15F10569   5.095   3.692   5.203  1.4075 -0.0063 -0.7607
  104OSM   H15G10570   5.189   3.774   5.333  0.1882  2.3925 -1.9255
  104OSM   C16F10571   4.984   3.840   5.302 -0.1536 -0.9333  0.1927
  104OSM   H16F10572   4.967   3.888   5.401 -0.4463 -1.4952  0.4218
  104OSM   H16G10573   4.885   3.800   5.270 -1.2131  2.5707 -1.3902
  104OSM   C17F10574   5.011   3.960   5.200 -0.6505 -0.2047  0.0994
  104OSM   H17F10575   4.943   4.045   5.222  0.6875  0.7056  0.8335
  104OSM   H17G10576   4.981   3.923   5.099  1.6870 -1.1572 -0.3022
  104OSM   C18F10577   5.153   4.002   5.228 -0.3167  0.2391  0.3609
  104OSM   H18F10578   5.179   4.107   5.203 -1.0820  0.3645  0.0334
  104OSM   H18G10579   5.229   3.939   5.178  1.0966  1.6574  0.6648
  104OSM   H18H10580   5.164   3.995   5.338  1.8711  1.7758  0.2861
  105OSM      N10581   5.791   1.949   6.984 -0.2537  0.1115 -0.4622
  105OSM    C1510582   5.755   1.891   7.115 -0.2938  0.0072  0.6152
  105OSM   H15A10583   5.712   1.972   7.172  0.0025  0.7927 -0.2358
  105OSM   H15B10584   5.844   1.861   7.169  1.5235  0.1039 -2.1122
  105OSM   H15C10585   5.673   1.821   7.106 -2.7605  2.8741 -1.4639
  105OSM    C1410586   5.905   2.042   7.006 -0.1595 -0.0898  0.0686
  105OSM   H14A10587   5.948   2.084   6.916 -0.9029  0.0273 -0.2326
  105OSM   H14B10588   5.983   1.996   7.066 -1.9793 -1.5314  1.4409
  105OSM   H14C10589   5.861   2.117   7.069  0.7664 -1.6850  2.7970
  105OSM    C1310590   5.823   1.837   6.888  0.4550 -0.7139 -0.2062
  105OSM   H13A10591   5.851   1.871   6.790 -0.8103 -0.3161 -0.4435
  105OSM   H13B10592   5.738   1.770   6.888 -1.3254  1.4168  1.3722
  105OSM   H13C10593   5.911   1.789   6.929  1.9939  1.6195 -0.6009
  105OSM    C1210594   5.670   2.027   6.941  0.2775  0.2084 -0.0232
  105OSM   H12A10595   5.603   1.950   6.908  1.9214 -1.5547  0.6008
  105OSM   H12B10596   5.690   2.073   6.844 -0.7195  1.2574  0.2472
  105OSM    C1110597   5.596   2.134   7.028 -0.0740  1.3080  0.1872
  105OSM   H11A10598   5.567   2.066   7.111  1.2844 -1.4357 -1.4328
  105OSM   H11B10599   5.502   2.171   6.981 -0.7581  0.2230  0.6508
  105OSM      P10600   5.653   2.384   7.061  0.0003  0.0725  0.1543
  105OSM    O1310601   5.518   2.420   7.111  0.7220  0.0205  0.6445
  105OSM    O1410602   5.770   2.464   7.106  0.2496 -0.0646  0.2045
  105OSM    O1110603   5.639   2.396   6.908 -0.0760  0.3131 -0.2213
  105OSM    O1210604   5.689   2.227   7.075 -0.3022  0.4888  0.2040
  105OSM    C1S10605   5.742   2.386   6.812  0.1159 -0.1918  0.2749
  105OSM    H1S10606   5.795   2.288   6.817  1.9755  0.8344  1.5790
  105OSM    H1T10607   5.815   2.466   6.835  1.8551 -1.6458  0.0238
  105OSM     NF10608   5.809   2.423   6.580  0.5955 -0.0617  0.0405
  105OSM    HNF10609   5.866   2.505   6.574 -1.2127  1.1890 -1.1547
  105OSM    C2S10610   5.693   2.430   6.666  0.1565  0.1240  0.1308
  105OSM    H2S10611   5.608   2.364   6.638  0.3538 -0.1062  0.0736
  105OSM    C3S10612   5.635   2.577   6.672 -0.0764 -0.4528 -0.3556
  105OSM    H3S10613   5.720   2.647   6.687  0.7778 -1.6129  0.4149
  105OSM     O310614   5.543   2.604   6.774  0.1594 -0.1220  0.3269
  105OSM    HO310615   5.581   2.550   6.844 -1.0566  0.6965  1.6697
  105OSM    C4S10616   5.581   2.604   6.527 -0.0637 -0.2176 -0.1168
  105OSM    H4S10617   5.667   2.601   6.459 -0.1920 -0.7511 -0.2576
  105OSM    C5S10618   5.454   2.627   6.486  0.6167  0.9277  0.3677
  105OSM    H5S10619   5.373   2.630   6.560 -2.4640  0.1092 -2.7132
  105OSM    C6S10620   5.410   2.647   6.346 -0.1315  0.8151  0.0943
  105OSM    H6S10621   5.307   2.609   6.326  0.3217 -0.6308  0.3647
  105OSM    H6T10622   5.481   2.593   6.280 -1.2031  1.5213 -1.7290
  105OSM    C7S10623   5.418   2.792   6.293  0.3023 -0.3630 -0.2621
  105OSM    H7S10624   5.522   2.821   6.317  0.7779 -1.8120 -0.4893
  105OSM    H7T10625   5.347   2.854   6.353  0.3054 -0.3700 -0.2510
  105OSM    C8S10626   5.384   2.806   6.145  0.1474  0.2058  0.2233
  105OSM    H8S10627   5.299   2.738   6.122  0.0402  0.8445 -1.3883
  105OSM    H8T10628   5.473   2.772   6.088  1.0721  0.7756  1.2913
  105OSM    C9S10629   5.349   2.953   6.110  0.3496 -0.0141  0.4065
  105OSM    H9S10630   5.404   3.012   6.186  0.5128 -1.7318  1.6867
  105OSM    H9T10631   5.239   2.971   6.109  0.2353 -0.5573 -1.2249
  105OSM   C10S10632   5.409   2.989   5.983  0.6400  0.2913  0.4860
  105OSM   H10S10633   5.373   2.921   5.903  2.6211 -2.9082  2.0868
  105OSM   H10T10634   5.519   2.978   5.975  0.6348  1.4862 -4.1816
  105OSM   C11S10635   5.378   3.130   5.935 -0.0956 -0.4645 -0.1737
  105OSM   H11S10636   5.413   3.204   6.010 -1.2762 -0.0280 -0.0310
  105OSM   H11T10637   5.267   3.133   5.927 -0.0735 -0.9963 -0.7479
  105OSM   C12S10638   5.428   3.153   5.795 -0.3058  0.4254 -0.4189
  105OSM   H12S10639   5.407   3.058   5.740 -3.0194  0.7560 -0.1013
  105OSM   H12T10640   5.539   3.145   5.797 -0.2232  1.0003 -2.0370
  105OSM   C13S10641   5.356   3.270   5.723 -0.2935  0.0129  0.4803
  105OSM   H13S10642   5.348   3.349   5.801  0.6986 -1.7057  2.4189
  105OSM   H13T10643   5.253   3.243   5.691 -0.2117  0.5684 -0.2683
  105OSM   C14S10644   5.437   3.307   5.598 -0.3060  0.4948 -0.1435
  105OSM   H14S10645   5.477   3.210   5.560 -4.1164 -1.7984  1.1113
  105OSM   H14T10646   5.529   3.365   5.619  0.6480 -0.4156 -1.5480
  105OSM   C15S10647   5.354   3.384   5.492 -0.2447  0.5864  0.4209
  105OSM   H15S10648   5.372   3.494   5.502  0.9798  0.3983  0.4029
  105OSM   H15T10649   5.248   3.354   5.505  0.3725 -1.0632  1.9722
  105OSM   C16S10650   5.420   3.353   5.351 -0.3722 -0.3129 -0.5987
  105OSM   H16S10651   5.410   3.245   5.323  0.3364 -0.3324 -0.8034
  105OSM   H16T10652   5.529   3.360   5.366 -0.3989 -1.7399  0.4251
  105OSM   C17S10653   5.377   3.433   5.235  0.0137  0.2447  0.7949
  105OSM   H17S10654   5.366   3.541   5.257  1.0978  0.8722 -1.3687
  105OSM   H17T10655   5.280   3.389   5.204 -0.0596 -0.5030  2.0302
  105OSM   C18S10656   5.477   3.416   5.108 -0.3522  0.2185 -0.3859
  105OSM   H18S10657   5.490   3.305   5.105 -1.8849  0.0361 -1.4815
  105OSM   H18T10658   5.567   3.474   5.136  0.5246 -1.2728  0.0231
  105OSM   H18U10659   5.429   3.447   5.013 -0.6426 -0.6201 -0.5236
  105OSM    C1F10660   5.839   2.309   6.523  0.1275  0.1303  0.4440
  105OSM     OF10661   5.770   2.206   6.546  0.4341 -0.1432  0.3353
  105OSM    C2F10662   5.967   2.306   6.441 -0.2337 -0.0681 -0.1069
  105OSM    H2F10663   6.056   2.289   6.505  0.1095 -2.1957 -1.0676
  105OSM    H2G10664   5.975   2.405   6.392  1.3763 -1.2528 -2.3945
  105OSM    C3F10665   5.962   2.202   6.324 -0.2663  0.0186 -0.3576
  105OSM    H3F10666   6.010   2.249   6.236  1.4246 -1.2384 -0.1533
  105OSM    H3G10667   5.857   2.193   6.289  0.4133 -1.3273 -2.2270
  105OSM    C4F10668   6.036   2.076   6.363 -0.2122  0.5748  0.6111
  105OSM    H4F10669   5.975   2.033   6.445  0.1970 -1.3036 -0.0150
  105OSM    H4G10670   6.140   2.096   6.397 -1.0073  0.7067  3.1942
  105OSM    C5F10671   6.038   1.985   6.236 -0.1986  0.3589  0.0973
  105OSM    H5F10672   6.091   1.891   6.262  0.2749  0.2812 -1.0565
  105OSM    H5G10673   6.108   2.027   6.160  0.9170 -0.9141  0.3882
  105OSM    C6F10674   5.900   1.950   6.169 -0.2318 -0.8325 -0.4055
  105OSM    H6F10675   5.853   2.044   6.134 -0.6394 -0.5774  0.8103
  105OSM    H6G10676   5.828   1.904   6.239  1.6783 -4.0960 -0.3542
  105OSM    C7F10677   5.880   1.844   6.060  0.1254 -0.0087  0.4011
  105OSM    H7F10678   5.774   1.851   6.029  0.5726  0.6634 -1.0376
  105OSM    H7G10679   5.892   1.741   6.100  0.5240 -0.9707 -2.0433
  105OSM    C8F10680   5.965   1.866   5.936  0.3503 -0.0102 -0.1388
  105OSM    H8F10681   5.953   1.782   5.863  3.0735  1.8247 -2.9606
  105OSM    H8G10682   6.071   1.863   5.966  0.5992 -2.8824 -1.0291
  105OSM    C9F10683   5.956   2.000   5.877  0.4044 -0.0154 -0.5771
  105OSM    H9F10684   5.973   2.084   5.947  0.1858  0.6288 -1.2857
  105OSM   C10F10685   5.964   2.033   5.743 -0.2176  0.8181 -0.3070
  105OSM   H10F10686   5.952   2.138   5.714 -0.7913  0.7107 -0.4745
  105OSM   C11F10687   5.958   1.935   5.620 -0.4712 -0.0003 -0.4418
  105OSM   H11F10688   5.957   1.830   5.657 -1.0197  0.6516  1.5855
  105OSM   H11G10689   6.051   1.949   5.562 -0.9529  1.9088 -0.8229
  105OSM   C12F10690   5.829   1.960   5.534 -0.6397 -0.1040  0.0168
  105OSM   H12F10691   5.834   2.068   5.511 -0.9888  0.3455  1.8319
  105OSM   H12G10692   5.748   1.940   5.608  0.8114 -0.1677  1.6785
  105OSM   C13F10693   5.805   1.877   5.409  0.0132 -0.5927  0.2147
  105OSM   H13F10694   5.711   1.916   5.364  0.6036  1.3959  0.6045
  105OSM   H13G10695   5.807   1.767   5.423  3.0129 -0.6010  0.4995
  105OSM   C14F10696   5.927   1.901   5.312  0.8099 -0.3820 -0.3009
  105OSM   H14F10697   6.005   1.826   5.337  0.7649 -0.5881 -0.7785
  105OSM   H14G10698   5.969   2.004   5.321 -1.7415  0.6457  1.1104
  105OSM   C15F10699   5.872   1.887   5.169  0.3862  0.4581 -0.4785
  105OSM   H15F10700   5.935   1.923   5.085  2.2477 -1.0595  0.1898
  105OSM   H15G10701   5.790   1.960   5.158 -1.5987 -1.5853  0.0697
  105OSM   C16F10702   5.842   1.744   5.143  0.4512  0.4619 -0.5421
  105OSM   H16F10703   5.748   1.724   5.199  0.5554 -2.0460 -1.1346
  105OSM   H16G10704   5.923   1.680   5.184  0.0779  0.5482  0.3639
  105OSM   C17F10705   5.801   1.705   4.998 -0.3164 -0.3703 -0.1668
  105OSM   H17F10706   5.899   1.694   4.947 -1.7407 -4.2106 -2.5509
  105OSM   H17G10707   5.747   1.783   4.940  0.7540  0.2868 -0.2979
  105OSM   C18F10708   5.734   1.576   4.988 -0.7079  0.0066  0.9212
  105OSM   H18F10709   5.676   1.545   5.078 -2.2699 -1.5949 -0.5391
  105OSM   H18G10710   5.809   1.494   4.988 -2.5275 -1.8143  3.1850
  105OSM   H18H10711   5.676   1.559   4.895  2.7258 -0.8944 -1.2371
  106OSM      N10712   2.973   6.487   6.896  0.0040 -0.1318 -0.0156
  106OSM    C1510713   2.974   6.521   6.747 -0.0000 -0.3213 -0.4598
  106OSM   H15A10714   3.076   6.534   6.715 -0.1769  2.4319 -0.1680
  106OSM   H15B10715   2.914   6.608   6.724 -2.0271 -1.4945  0.1197
  106OSM   H15C10716   2.932   6.443   6.685  0.3829 -0.0273 -1.0902
  106OSM    C1410717   2.832   6.508   6.941 -0.9101  0.2013  0.4589
  106OSM   H14A10718   2.812   6.614   6.950 -1.1189  0.1389  0.7549
  106OSM   H14B10719   2.816   6.454   7.033 -0.1772  1.8103  1.5798
  106OSM   H14C10720   2.764   6.463   6.870 -3.3557  1.4198  1.8657
  106OSM    C1310721   3.007   6.341   6.902  0.0607  0.4344 -0.2228
  106OSM   H13A10722   2.930   6.280   6.856  0.1821 -0.5311  0.8234
  106OSM   H13B10723   3.012   6.310   7.005  0.6151 -0.5482 -0.5373
  106OSM   H13C10724   3.100   6.324   6.851 -0.7302 -0.4166 -1.4554
  106OSM    C1210725   3.071   6.570   6.976  0.4700 -0.1366 -0.1324
  106OSM   H12A10726   3.168   6.554   6.932 -0.3757  3.6462 -4.0022
  106OSM   H12B10727   3.068   6.539   7.080  2.0616 -2.7048 -0.7673
  106OSM    C1110728   3.042   6.725   6.965 -0.0134  0.2654  0.7224
  106OSM   H11A10729   2.943   6.743   7.014  0.5778  0.3974  1.9135
  106OSM   H11B10730   3.032   6.765   6.862 -1.1042  0.4636  0.8845
  106OSM      P10731   3.276   6.817   6.986  0.4490 -0.2821 -0.4262
  106OSM    O1310732   3.328   6.952   7.031  0.1388  0.1998  0.2412
  106OSM    O1410733   3.337   6.696   7.045 -0.5786 -0.0941  0.4098
  106OSM    O1110734   3.273   6.801   6.836  0.0479 -0.2770  0.1630
  106OSM    O1210735   3.134   6.798   7.045  0.3581 -0.6376 -0.0251
  106OSM    C1S10736   3.308   6.911   6.754 -0.2323  0.4331  0.3085
  106OSM    H1S10737   3.396   6.961   6.799 -1.3332  0.1512  2.9541
  106OSM    H1T10738   3.230   6.990   6.760  1.3423  2.1557 -0.8523
  106OSM     NF10739   3.394   6.985   6.537 -0.3744  0.2206 -0.0486
  106OSM    HNF10740   3.324   7.039   6.492 -0.1681 -0.2140 -0.9122
  106OSM    C2S10741   3.345   6.869   6.608 -0.0741  0.4328 -0.6098
  106OSM    H2S10742   3.429   6.797   6.604 -0.2190  0.2746 -0.8586
  106OSM    C3S10743   3.231   6.792   6.535 -0.6406 -0.7959 -0.1503
  106OSM    H3S10744   3.146   6.863   6.525  0.5143  0.4072 -2.1699
  106OSM     O310745   3.183   6.690   6.613 -0.0440 -0.4470  0.0493
  106OSM    HO310746   3.216   6.700   6.702 -3.2058 -0.6982  1.3712
  106OSM    C4S10747   3.269   6.738   6.404  0.1653  0.2915  0.3247
  106OSM    H4S10748   3.344   6.659   6.419  0.9911  1.3039  1.6827
  106OSM    C5S10749   3.235   6.783   6.279  0.1360  0.1028 -0.2904
  106OSM    H5S10750   3.184   6.880   6.271 -1.2212 -0.5776 -0.1697
  106OSM    C6S10751   3.291   6.727   6.153  0.3150  0.2203  0.2281
  106OSM    H6S10752   3.222   6.649   6.114  0.8115 -0.6374  1.0093
  106OSM    H6T10753   3.385   6.668   6.162 -0.3620 -1.1083 -1.0008
  106OSM    C7S10754   3.296   6.832   6.038 -0.6313  0.3434  0.0143
  106OSM    H7S10755   3.362   6.921   6.045 -0.5338  0.5446 -2.5516
  106OSM    H7T10756   3.197   6.882   6.029 -1.8045 -1.7717  0.4325
  106OSM    C8S10757   3.314   6.769   5.903  0.2295 -0.0015 -0.1812
  106OSM    H8S10758   3.225   6.718   5.862 -1.5744  1.9445  1.0973
  106OSM    H8T10759   3.399   6.697   5.905  1.0925  0.9982 -0.0622
  106OSM    C9S10760   3.357   6.874   5.794  0.1594  1.1599  0.8948
  106OSM    H9S10761   3.465   6.894   5.811  0.3839  0.0774  0.8434
  106OSM    H9T10762   3.290   6.960   5.816 -1.1727 -0.0969  1.9789
  106OSM   C10S10763   3.325   6.818   5.651 -0.8061 -0.3867  0.3007
  106OSM   H10S10764   3.214   6.825   5.644 -0.6871  0.0019 -2.0859
  106OSM   H10T10765   3.362   6.714   5.640  0.5695  0.2689 -1.6271
  106OSM   C11S10766   3.385   6.912   5.545 -0.0968 -0.0041 -0.6189
  106OSM   H11S10767   3.494   6.925   5.562 -0.2531 -0.2497  0.6670
  106OSM   H11T10768   3.328   7.008   5.547 -0.5557 -0.2804  0.5129
  106OSM   C12S10769   3.373   6.848   5.405  0.1638 -0.5235  0.2926
  106OSM   H12S10770   3.431   6.907   5.331 -0.4115  1.5724  1.4373
  106OSM   H12T10771   3.270   6.867   5.368  0.5255 -1.8594 -1.5788
  106OSM   C13S10772   3.403   6.700   5.382  0.5412  0.4032 -0.2719
  106OSM   H13S10773   3.334   6.628   5.433  1.2162  1.0163  1.5759
  106OSM   H13T10774   3.502   6.681   5.428  2.2823  0.8559 -3.5358
  106OSM   C14S10775   3.414   6.654   5.239 -0.1482 -0.6080  0.3417
  106OSM   H14S10776   3.490   6.576   5.221  1.0636  0.4875  0.5189
  106OSM   H14T10777   3.445   6.733   5.166 -0.5016 -2.2731 -1.7039
  106OSM   C15S10778   3.270   6.629   5.186 -0.1357  0.6738  0.5944
  106OSM   H15S10779   3.283   6.633   5.076 -0.7332 -0.6581  0.4598
  106OSM   H15T10780   3.197   6.699   5.231 -0.4137 -0.7010  2.3968
  106OSM   C16S10781   3.217   6.490   5.213  0.5375  0.2061 -0.4837
  106OSM   H16S10782   3.106   6.486   5.208  0.4189  2.0222 -0.0421
  106OSM   H16T10783   3.244   6.448   5.313 -1.3438  0.7849  0.3237
  106OSM   C17S10784   3.267   6.382   5.116 -1.0117 -0.2445 -0.2202
  106OSM   H17S10785   3.378   6.377   5.111 -0.9504  1.5167 -1.8571
  106OSM   H17T10786   3.245   6.419   5.014  0.7895  2.9355  0.4132
  106OSM   C18S10787   3.205   6.237   5.139  0.3007 -0.6284 -0.6310
  106OSM   H18S10788   3.234   6.207   5.242  0.3800  1.3292 -0.0296
  106OSM   H18T10789   3.243   6.165   5.064  1.0289  0.1779 -1.0650
  106OSM   H18U10790   3.095   6.228   5.130 -0.1488 -3.2002  4.2728
  106OSM    C1F10791   3.507   7.050   6.570 -0.2609  0.2895 -0.0649
  106OSM     OF10792   3.591   6.997   6.642  0.1234  0.2208  0.2495
  106OSM    C2F10793   3.516   7.187   6.519 -0.7279  0.1813 -0.0797
  106OSM    H2F10794   3.545   7.252   6.605 -1.6446 -2.6679  2.5979
  106OSM    H2G10795   3.417   7.205   6.472 -1.0576 -0.6295  0.3029
  106OSM    C3F10796   3.620   7.192   6.403  0.0106  0.8276 -1.0636
  106OSM    H3F10797   3.580   7.150   6.309  0.7094 -1.1865 -0.5017
  106OSM    H3G10798   3.714   7.140   6.430  0.6613  1.9063 -1.2020
  106OSM    C4F10799   3.667   7.333   6.372  0.6269  0.1883  0.0146
  106OSM    H4F10800   3.698   7.383   6.466 -1.0094 -0.2553  0.8313
  106OSM    H4G10801   3.588   7.404   6.337 -0.6925 -1.3188 -0.1891
  106OSM    C5F10802   3.781   7.327   6.266 -0.3300  0.5268  0.2170
  106OSM    H5F10803   3.865   7.262   6.296 -1.4671 -0.6820  0.8793
  106OSM    H5G10804   3.821   7.430   6.251  0.0498  0.1116 -1.9619
  106OSM    C6F10805   3.730   7.286   6.121  0.2268  0.2049  0.0003
  106OSM    H6F10806   3.648   7.356   6.095  1.3339  1.5272 -0.0443
  106OSM    H6G10807   3.698   7.180   6.125  1.3377 -0.1761 -0.7773
  106OSM    C7F10808   3.843   7.307   6.018  0.3608  0.6817 -0.1247
  106OSM    H7F10809   3.910   7.221   6.039 -1.2298 -0.4527  0.4567
  106OSM    H7G10810   3.896   7.403   6.033 -0.1657  1.1738 -1.2671
  106OSM    C8F10811   3.787   7.313   5.877 -0.0137 -0.4035  0.6275
  106OSM    H8F10812   3.866   7.337   5.802 -0.2469 -1.8563 -0.1293
  106OSM    H8G10813   3.725   7.405   5.871  0.3210 -0.2590 -1.1460
  106OSM    C9F10814   3.698   7.200   5.825 -0.2007 -0.2326  0.2877
  106OSM    H9F10815   3.634   7.161   5.906  1.2062 -1.6989  0.7497
  106OSM   C10F10816   3.711   7.135   5.710  0.0468  0.3375 -0.1228
  106OSM   H10F10817   3.651   7.045   5.690 -1.2085  1.3171 -0.8646
  106OSM   C11F10818   3.804   7.177   5.599  0.0745  0.1584 -0.7470
  106OSM   H11F10819   3.890   7.108   5.585  0.0011  0.2037 -1.4694
  106OSM   H11G10820   3.852   7.276   5.602  1.7225 -0.6063 -0.7821
  106OSM   C12F10821   3.717   7.180   5.474  0.1224  0.0689  0.3345
  106OSM   H12F10822   3.658   7.275   5.474 -1.3696 -0.8155 -0.4258
  106OSM   H12G10823   3.640   7.100   5.464 -2.7341  2.5824  0.5993
  106OSM   C13F10824   3.792   7.178   5.339  0.2398 -0.0742 -0.0639
  106OSM   H13F10825   3.856   7.087   5.346  0.7020  0.2719  0.3004
  106OSM   H13G10826   3.871   7.255   5.350  0.5493 -0.4840  0.6919
  106OSM   C14F10827   3.702   7.203   5.224  0.7261  0.8011  0.9545
  106OSM   H14F10828   3.644   7.295   5.248 -0.2604  0.3308  0.4314
  106OSM   H14G10829   3.632   7.117   5.219 -0.2496  1.6316 -0.5758
  106OSM   C15F10830   3.768   7.215   5.089 -0.1958 -0.0537  0.0830
  106OSM   H15F10831   3.859   7.279   5.096 -0.3448  0.2923 -0.9436
  106OSM   H15G10832   3.709   7.259   5.006 -0.0611  0.0023  0.0162
  106OSM   C16F10833   3.813   7.085   5.031 -0.2947  0.2170  0.1071
  106OSM   H16F10834   3.739   7.002   5.028  0.9820 -0.9491 -0.5719
  106OSM   H16G10835   3.892   7.044   5.097  0.3199 -0.9665 -1.2970
  106OSM   C17F10836   3.881   7.102   4.892  0.0791  0.2494  0.1107
  106OSM   H17F10837   3.969   7.168   4.907  1.9763 -2.0862 -0.0224
  106OSM   H17G10838   3.805   7.135   4.818 -2.3200 -3.3578  0.6588
  106OSM   C18F10839   3.945   6.968   4.845  0.6843 -0.0636 -0.1972
  106OSM   H18F10840   3.999   6.992   4.751  0.9570  3.3120  0.6826
  106OSM   H18G10841   3.871   6.886   4.835 -0.2604  0.6058  1.0278
  106OSM   H18H10842   4.011   6.928   4.924 -1.8941 -1.0575  1.5951
  107OSM      N10843   3.038   3.862   7.206 -0.0594 -0.1241  0.2342
  107OSM    C1510844   3.086   4.000   7.232 -0.0267 -0.2393 -0.5193
  107OSM   H15A10845   3.053   4.045   7.324  0.0827  0.0245 -0.6085
  107OSM   H15B10846   3.052   4.058   7.148 -1.5654  0.2791  0.4398
  107OSM   H15C10847   3.194   4.005   7.235  0.0170  1.3693 -2.4912
  107OSM    C1410848   3.091   3.827   7.070  0.5516 -0.3786 -0.0034
  107OSM   H14A10849   3.197   3.813   7.060  0.5959 -0.2302  0.2629
  107OSM   H14B10850   3.066   3.902   6.996 -0.1464 -0.6677 -0.0724
  107OSM   H14C10851   3.032   3.748   7.025 -0.7023 -0.2717  1.3855
  107OSM    C1310852   3.107   3.767   7.301  0.5357  0.1383  0.3377
  107OSM   H13A10853   3.088   3.792   7.404 -2.6297 -0.7072  0.0755
  107OSM   H13B10854   3.213   3.775   7.283  0.1921  0.2877 -1.9453
  107OSM   H13C10855   3.063   3.669   7.291 -0.0759  0.6148 -2.7511
  107OSM    C1210856   2.883   3.861   7.210 -0.4450  0.3550  0.5082
  107OSM   H12A10857   2.850   3.898   7.306 -0.7405  0.1053  0.5035
  107OSM   H12B10858   2.848   3.760   7.196  0.8482 -0.2981  1.6539
  107OSM    C1110859   2.807   3.946   7.104  0.2084  0.1265  0.2705
  107OSM   H11A10860   2.779   3.892   7.010 -0.6162 -1.0249  1.1468
  107OSM   H11B10861   2.876   4.024   7.067 -0.9196  0.7687 -0.5704
  107OSM      P10862   2.678   4.144   7.229  0.1893 -0.0464  0.3860
  107OSM    O1310863   2.544   4.194   7.261  0.4128  0.2835 -0.3348
  107OSM    O1410864   2.777   4.164   7.335 -0.4083 -0.1033 -0.4453
  107OSM    O1110865   2.717   4.223   7.099 -0.2160  0.2743 -0.6841
  107OSM    O1210866   2.684   3.997   7.166  0.0850  0.1884  0.5038
  107OSM    C1S10867   2.630   4.212   6.985 -0.6543  0.5649 -0.2257
  107OSM    H1S10868   2.524   4.240   7.002 -0.8229 -1.2939  2.4225
  107OSM    H1T10869   2.633   4.104   6.958  1.3210  0.9002 -1.6021
  107OSM     NF10870   2.601   4.252   6.740  0.3768 -0.4582  0.1888
  107OSM    HNF10871   2.611   4.170   6.684  0.7383 -0.6988  0.6037
  107OSM    C2S10872   2.686   4.280   6.854 -0.1260  0.0583  0.4223
  107OSM    H2S10873   2.689   4.389   6.876 -2.1376  0.5125 -1.2039
  107OSM    C3S10874   2.833   4.233   6.832 -0.1261 -0.2711  0.0759
  107OSM    H3S10875   2.838   4.122   6.836  1.5014 -0.2855 -1.3430
  107OSM     O310876   2.922   4.259   6.940  0.2489  0.1482  0.0524
  107OSM    HO310877   2.878   4.223   7.018 -0.8381 -1.3560 -1.2058
  107OSM    C4S10878   2.891   4.285   6.704  1.1235 -0.7031  0.0842
  107OSM    H4S10879   2.859   4.216   6.624 -3.1717  1.3438 -0.2586
  107OSM    C5S10880   2.964   4.399   6.671  0.4372  0.2113  0.3978
  107OSM    H5S10881   2.981   4.470   6.753 -0.3026 -0.8859  1.5350
  107OSM    C6S10882   3.032   4.415   6.535  0.0791  0.2871  0.0667
  107OSM    H6S10883   3.137   4.380   6.530 -0.9178 -3.0062 -0.2425
  107OSM    H6T10884   3.034   4.525   6.519 -1.5086  0.9050  3.1832
  107OSM    C7S10885   2.956   4.351   6.422 -0.1802  0.4296 -0.4666
  107OSM    H7S10886   2.848   4.374   6.435 -0.3007 -0.3069 -0.1009
  107OSM    H7T10887   2.969   4.241   6.429  1.0147  0.5822 -0.1511
  107OSM    C8S10888   3.014   4.406   6.287  0.4991  0.2935 -0.0794
  107OSM    H8S10889   3.101   4.339   6.271 -0.6050 -0.9709 -0.9621
  107OSM    H8T10890   3.059   4.506   6.303 -0.5131  0.7233  0.1513
  107OSM    C9S10891   2.919   4.389   6.167  0.0999  0.0026 -0.7737
  107OSM    H9S10892   2.834   4.458   6.184 -0.5033 -1.1037  0.8940
  107OSM    H9T10893   2.870   4.289   6.162  0.6207 -0.4223  1.3523
  107OSM   C10S10894   2.987   4.436   6.039  0.1152  0.0435 -0.0571
  107OSM   H10S10895   3.071   4.374   5.999  0.3295  1.5352 -2.1134
  107OSM   H10T10896   3.025   4.539   6.059 -0.5380  0.5387 -1.2446
  107OSM   C11S10897   2.883   4.447   5.923  0.1559  0.5997  0.0998
  107OSM   H11S10898   2.880   4.550   5.881 -0.8661  0.7935  0.6238
  107OSM   H11T10899   2.785   4.420   5.966  0.3561  0.2666  0.3573
  107OSM   C12S10900   2.904   4.342   5.817  0.1124  0.8209  0.6963
  107OSM   H12S10901   2.870   4.242   5.853 -2.5175  2.1853  2.3479
  107OSM   H12T10902   3.011   4.343   5.787  0.1556  1.1114  0.8583
  107OSM   C13S10903   2.821   4.380   5.690  0.5188  0.7706  0.1628
  107OSM   H13S10904   2.784   4.485   5.687 -0.6166  0.3647 -0.3717
  107OSM   H13T10905   2.727   4.323   5.700 -0.1590  2.2062  3.0282
  107OSM   C14S10906   2.896   4.355   5.565 -0.1590  0.2038  0.2102
  107OSM   H14S10907   2.930   4.250   5.554  0.8626  0.6353 -0.9368
  107OSM   H14T10908   2.985   4.421   5.566  2.4267 -2.9784 -0.7877
  107OSM   C15S10909   2.810   4.395   5.441 -0.2972 -0.2557 -0.3710
  107OSM   H15S10910   2.793   4.505   5.442  0.2020 -0.0824 -3.3782
  107OSM   H15T10911   2.716   4.336   5.442 -0.1160 -0.5538 -0.6054
  107OSM   C16S10912   2.862   4.356   5.304 -0.0669 -0.4960 -0.3472
  107OSM   H16S10913   2.789   4.371   5.221  2.1689  1.4038 -2.0999
  107OSM   H16T10914   2.893   4.250   5.295  0.0205 -0.6432  1.3804
  107OSM   C17S10915   2.990   4.443   5.272  0.5287  0.2294 -0.3197
  107OSM   H17S10916   3.064   4.433   5.354 -0.3155 -0.2925  0.4063
  107OSM   H17T10917   2.963   4.551   5.278 -0.2232  0.1169 -1.3420
  107OSM   C18S10918   3.052   4.422   5.136 -0.0481 -0.0184 -0.4165
  107OSM   H18S10919   3.108   4.326   5.139 -0.2738 -0.1381  1.7008
  107OSM   H18T10920   3.124   4.504   5.115 -1.9798  1.6106 -0.9958
  107OSM   H18U10921   2.975   4.427   5.056 -2.0105  2.4154  1.4756
  107OSM    C1F10922   2.486   4.320   6.727  0.2735  0.3440  0.4363
  107OSM     OF10923   2.450   4.396   6.816  0.5448  0.2348 -0.4281
  107OSM    C2F10924   2.403   4.296   6.605  0.1221 -0.4205  0.3302
  107OSM    H2F10925   2.295   4.279   6.623 -0.1747 -0.5554 -1.3679
  107OSM    H2G10926   2.443   4.213   6.542  0.2340  2.6265 -4.1147
  107OSM    C3F10927   2.406   4.431   6.517 -0.7964  0.1898 -0.0590
  107OSM    H3F10928   2.514   4.452   6.501 -1.2113  2.9832  0.2801
  107OSM    H3G10929   2.353   4.498   6.588 -2.2434  0.4402 -1.2996
  107OSM    C4F10930   2.329   4.417   6.388  0.5449 -0.6886  0.6134
  107OSM    H4F10931   2.321   4.511   6.330  3.0174 -0.7951 -0.0032
  107OSM    H4G10932   2.223   4.398   6.414  0.0448 -0.1999 -0.9897
  107OSM    C5F10933   2.377   4.298   6.307 -0.1541 -0.4760  0.2229
  107OSM    H5F10934   2.323   4.204   6.331  0.0879 -0.4029  1.0830
  107OSM    H5G10935   2.486   4.279   6.321  0.6860 -1.1568 -5.1230
  107OSM    C6F10936   2.363   4.313   6.156  0.0482 -0.6246 -0.1082
  107OSM    H6F10937   2.266   4.363   6.136  1.9921  3.0472 -1.1509
  107OSM    H6G10938   2.368   4.212   6.109  0.4298 -1.1679  1.0416
  107OSM    C7F10939   2.469   4.398   6.083  0.4738 -0.0420  0.3302
  107OSM    H7F10940   2.569   4.373   6.125  0.9694  1.0387 -0.1482
  107OSM    H7G10941   2.453   4.502   6.119  2.0409 -0.0695  1.1961
  107OSM    C8F10942   2.456   4.379   5.931 -0.0026 -0.3572 -1.0582
  107OSM    H8F10943   2.460   4.269   5.916  0.4349 -0.5842  0.4826
  107OSM    H8G10944   2.544   4.430   5.885 -0.7034  3.4041  1.2758
  107OSM    C9F10945   2.329   4.445   5.886 -0.2861 -0.9433 -0.2901
  107OSM    H9F10946   2.285   4.517   5.957 -0.8147  2.4480 -3.7067
  107OSM   C10F10947   2.273   4.428   5.767 -0.0092 -0.7031  0.1275
  107OSM   H10F10948   2.181   4.479   5.735 -0.9390 -1.4271  1.5497
  107OSM   C11F10949   2.338   4.344   5.662  0.3560 -0.2437 -0.1654
  107OSM   H11F10950   2.257   4.308   5.595  1.5744 -0.6800 -1.4554
  107OSM   H11G10951   2.397   4.256   5.696  0.3659  0.2062  1.0205
  107OSM   C12F10952   2.427   4.423   5.568 -0.4770  0.2781  0.1946
  107OSM   H12F10953   2.462   4.338   5.504 -0.7582 -0.4961  1.0472
  107OSM   H12G10954   2.511   4.464   5.628  0.1827  1.6992 -1.5970
  107OSM   C13F10955   2.373   4.525   5.468  0.3173  0.0007 -0.3933
  107OSM   H13F10956   2.449   4.552   5.393  0.0388 -0.5745 -0.8874
  107OSM   H13G10957   2.355   4.619   5.526 -1.3014 -0.8270  0.5245
  107OSM   C14F10958   2.238   4.501   5.393 -0.4513  0.0676 -0.0247
  107OSM   H14F10959   2.151   4.505   5.462 -0.7471  0.2699 -0.4048
  107OSM   H14G10960   2.245   4.403   5.341  0.1173  1.5642 -2.9641
  107OSM   C15F10961   2.213   4.602   5.282 -0.6836 -0.4688  0.4945
  107OSM   H15F10962   2.297   4.604   5.209 -0.7940 -1.0899  0.3440
  107OSM   H15G10963   2.198   4.702   5.327 -0.1036 -0.1336 -0.0303
  107OSM   C16F10964   2.083   4.561   5.210 -0.4104  0.5228  0.3592
  107OSM   H16F10965   2.004   4.536   5.284 -0.9631 -1.8743 -0.9271
  107OSM   H16G10966   2.116   4.465   5.165  0.4989  2.2565 -2.9721
  107OSM   C17F10967   2.047   4.664   5.100  0.2223 -0.1009 -0.4098
  107OSM   H17F10968   2.141   4.676   5.042  1.2687 -0.2208  1.1833
  107OSM   H17G10969   2.031   4.764   5.144  0.2837  0.0389 -0.7002
  107OSM   C18F10970   1.925   4.626   5.008 -0.7196 -0.2078 -0.5749
  107OSM   H18F10971   1.919   4.704   4.929  1.4575  0.3443 -0.2559
  107OSM   H18G10972   1.832   4.613   5.068 -2.1639 -0.9453 -2.8438
  107OSM   H18H10973   1.947   4.524   4.971 -0.3996 -1.1420  1.9984
  108OSM      N10974   0.228   5.300   7.333 -0.2682  0.1760 -0.3663
  108OSM    C1510975   0.132   5.340   7.440 -0.5072 -0.5635 -0.3640
  108OSM   H15A10976   0.108   5.257   7.505  0.3451  0.2008  0.9744
  108OSM   H15B10977   0.048   5.380   7.384 -2.3404 -0.6761  2.1582
  108OSM   H15C10978   0.168   5.419   7.503  1.1732 -1.7930  0.2812
  108OSM    C1410979   0.259   5.418   7.245 -0.2531  0.1681  0.5068
  108OSM   H14A10980   0.171   5.449   7.191  0.3844 -0.3738 -0.8969
  108OSM   H14B10981   0.318   5.390   7.159 -0.3745  0.0165  0.4721
  108OSM   H14C10982   0.298   5.508   7.289 -0.4026  1.2001 -1.3665
  108OSM    C1310983   0.359   5.270   7.402  0.7118 -0.2899  0.2574
  108OSM   H13A10984   0.436   5.241   7.332 -0.2367 -0.8478 -0.5701
  108OSM   H13B10985   0.333   5.190   7.470 -1.7252 -0.4790 -0.8319
  108OSM   H13C10986   0.389   5.358   7.457 -2.7648  0.4647  1.2002
  108OSM    C1210987   0.196   5.177   7.251  0.5012  0.1226 -0.0488
  108OSM   H12A10988   0.209   5.085   7.306 -1.3643  0.1087  0.4373
  108OSM   H12B10989   0.265   5.181   7.168 -1.1372  1.9507 -1.4129
  108OSM    C1110990   0.054   5.167   7.196 -0.0543 -0.1038  0.2678
  108OSM   H11A10991  -0.008   5.139   7.284 -0.0055  1.0098  0.6742
  108OSM   H11B10992   0.052   5.093   7.114  2.2019  0.1146 -0.0518
  108OSM      P10993  -0.129   5.360   7.172  0.0858 -0.0657 -0.1259
  108OSM    O1310994  -0.144   5.350   7.317  0.0527 -0.3635  0.3125
  108OSM    O1410995  -0.144   5.495   7.118 -0.6271 -0.3766 -0.1161
  108OSM    O1110996  -0.231   5.259   7.104  0.4947  0.7353 -0.0362
  108OSM    O1210997   0.007   5.291   7.135 -0.3664 -0.5348  0.2625
  108OSM    C1S10998  -0.246   5.272   6.962  0.2871 -0.8442 -0.0152
  108OSM    H1S10999  -0.212   5.373   6.932 -1.5611  0.4488  1.9472
  108OSM    H1T11000  -0.355   5.272   6.941 -0.1615 -0.7624  2.0237
  108OSM     NF11001  -0.165   5.191   6.745  0.1735 -1.2300  0.2643
  108OSM    HNF11002  -0.213   5.136   6.677  0.3207 -0.8420 -0.1522
  108OSM    C2S11003  -0.169   5.164   6.883  0.5509 -0.0778 -0.1941
  108OSM    H2S11004  -0.067   5.152   6.926 -0.1819 -0.1647  1.6234
  108OSM    C3S11005  -0.250   5.031   6.912 -0.7826  0.4909 -0.5167
  108OSM    H3S11006  -0.354   5.036   6.874 -0.3455 -0.3227 -1.9346
  108OSM     O311007  -0.254   4.990   7.052 -0.4987 -0.0794 -0.4269
  108OSM    HO311008  -0.244   5.073   7.100  1.5323 -0.2779 -0.3879
  108OSM    C4S11009  -0.198   4.915   6.830  0.1878  0.6199 -0.3239
  108OSM    H4S11010  -0.098   4.880   6.857  1.4172  2.8008 -1.7013
  108OSM    C5S11011  -0.270   4.859   6.728 -0.5440  0.0145  0.2430
  108OSM    H5S11012  -0.366   4.898   6.690 -0.4819  0.1096  0.1805
  108OSM    C6S11013  -0.219   4.745   6.650  0.0837  0.3979  0.8698
  108OSM    H6S11014  -0.278   4.746   6.556  1.1903 -2.7023  0.0065
  108OSM    H6T11015  -0.244   4.653   6.706 -3.5754  1.1620  0.7474
  108OSM    C7S11016  -0.071   4.755   6.602  0.1514  0.0653 -0.4963
  108OSM    H7S11017  -0.040   4.666   6.542 -1.4627  0.4845 -2.0442
  108OSM    H7T11018  -0.005   4.764   6.690 -0.4783  0.7184 -0.0807
  108OSM    C8S11019  -0.056   4.880   6.511  0.7861 -0.1162  0.1981
  108OSM    H8S11020  -0.113   4.968   6.548  0.8173  0.0767 -0.2140
  108OSM    H8T11021  -0.112   4.866   6.417 -3.7287  4.4163  1.7968
  108OSM    C9S11022   0.090   4.912   6.495 -0.4011 -0.4467 -0.3296
  108OSM    H9S11023   0.146   4.817   6.492 -0.9383 -0.8884  1.8064
  108OSM    H9T11024   0.130   4.959   6.588 -1.3982 -0.7742  0.2861
  108OSM   C10S11025   0.131   4.996   6.376 -0.7435 -0.2537 -0.0509
  108OSM   H10S11026   0.239   5.020   6.377 -0.7137 -0.3951  0.5872
  108OSM   H10T11027   0.079   5.094   6.378  0.2997  0.3071  1.5225
  108OSM   C11S11028   0.110   4.918   6.243 -0.0393 -0.2168  0.1193
  108OSM   H11S11029   0.014   4.863   6.241 -0.1444 -0.0296 -0.0214
  108OSM   H11T11030   0.187   4.839   6.226  1.0274  1.1076 -1.5004
  108OSM   C12S11031   0.123   5.006   6.113  0.6698  0.0066  0.2443
  108OSM   H12S11032   0.209   5.070   6.140 -0.4294  0.7654  2.0961
  108OSM   H12T11033   0.031   5.064   6.095 -0.1541 -1.6607 -1.2975
  108OSM   C13S11034   0.155   4.925   5.984  0.6170 -0.0167 -0.4355
  108OSM   H13S11035   0.070   4.855   5.967  0.1958  0.6027 -0.9946
  108OSM   H13T11036   0.252   4.873   5.996  1.5050  1.9780  1.6841
  108OSM   C14S11037   0.158   5.008   5.856 -0.1696 -0.4292  0.1308
  108OSM   H14S11038   0.241   5.082   5.861 -1.6555  1.2553  0.9926
  108OSM   H14T11039   0.063   5.066   5.849  0.4654  0.7531  0.8062
  108OSM   C15S11040   0.181   4.933   5.720  0.3045 -1.0824  0.3626
  108OSM   H15S11041   0.101   4.857   5.706 -2.4996  1.5592  0.9839
  108OSM   H15T11042   0.272   4.872   5.736  0.6530 -1.8457 -3.6353
  108OSM   C16S11043   0.185   5.020   5.591  0.1717  0.1694 -0.7202
  108OSM   H16S11044   0.252   5.108   5.601  0.7416 -0.3305  0.0421
  108OSM   H16T11045   0.084   5.062   5.571 -0.1951 -1.5201 -2.7524
  108OSM   C17S11046   0.233   4.947   5.475  0.1407  0.0721 -0.3510
  108OSM   H17S11047   0.163   4.863   5.458 -2.3036  1.8000  0.6504
  108OSM   H17T11048   0.334   4.904   5.495 -2.2279 -5.0804  2.5693
  108OSM   C18S11049   0.242   5.030   5.352 -0.4926  0.1907 -0.1734
  108OSM   H18S11050   0.142   5.069   5.325  0.5559  0.3782 -4.4521
  108OSM   H18T11051   0.272   4.954   5.278 -1.0289  0.5623 -0.7798
  108OSM   H18U11052   0.318   5.110   5.365 -0.4329 -0.0597  1.2013
  108OSM    C1F11053  -0.106   5.296   6.688 -0.4809 -0.3838 -0.3521
  108OSM     OF11054  -0.029   5.370   6.758 -0.1077 -0.0637  0.8094
  108OSM    C2F11055  -0.142   5.331   6.548 -0.0072 -0.2617 -0.7552
  108OSM    H2F11056  -0.252   5.342   6.548 -0.0853 -0.9083  0.4456
  108OSM    H2G11057  -0.127   5.242   6.484  0.8901  0.3574 -1.4325
  108OSM    C3F11058  -0.070   5.452   6.493 -0.1034 -0.0612 -0.0419
  108OSM    H3F11059   0.039   5.429   6.495  0.0422  0.4900 -0.9459
  108OSM    H3G11060  -0.102   5.535   6.560 -1.5117 -0.8655  0.3300
  108OSM    C4F11061  -0.109   5.486   6.349 -0.5052  0.2018 -0.0085
  108OSM    H4F11062  -0.087   5.594   6.339  2.6940 -0.4210 -0.6400
  108OSM    H4G11063  -0.214   5.455   6.330 -0.1438 -0.2220 -1.4040
  108OSM    C5F11064  -0.012   5.421   6.246 -0.2014  0.0742 -0.2609
  108OSM    H5F11065  -0.027   5.311   6.245  0.9227 -0.0966 -1.6521
  108OSM    H5G11066   0.090   5.419   6.292 -0.3959 -2.0336  0.1552
  108OSM    C6F11067  -0.012   5.473   6.103 -0.0820 -0.1289 -0.5391
  108OSM    H6F11068   0.010   5.582   6.099  0.3228 -0.1541  0.5784
  108OSM    H6G11069  -0.118   5.458   6.073 -0.3588 -1.3222  0.9492
  108OSM    C7F11070   0.073   5.382   6.008  0.2616  0.2356 -0.4713
  108OSM    H7F11071   0.048   5.280   6.043 -1.8329  0.8237 -0.0941
  108OSM    H7G11072   0.182   5.382   6.026 -0.0769 -0.7021  1.9761
  108OSM    C8F11073   0.035   5.385   5.862  0.3507  1.2541 -0.1457
  108OSM    H8F11074  -0.073   5.362   5.853  0.5407 -0.9014  2.2282
  108OSM    H8G11075   0.085   5.297   5.816 -1.2196 -2.2144  4.1460
  108OSM    C9F11076   0.073   5.513   5.791 -0.5896  0.1797  0.5024
  108OSM    H9F11077   0.004   5.595   5.816 -2.4207 -1.3999  0.8948
  108OSM   C10F11078   0.143   5.529   5.672  0.4637 -0.0169 -0.2232
  108OSM   H10F11079   0.192   5.623   5.643 -0.0144  0.5017  0.6226
  108OSM   C11F11080   0.212   5.423   5.601  0.2414  0.4434 -0.0719
  108OSM   H11F11081   0.244   5.338   5.665 -1.0968 -1.9187 -2.3349
  108OSM   H11G11082   0.299   5.457   5.541  0.2202  1.4467  0.4452
  108OSM   C12F11083   0.121   5.348   5.500  0.2163  0.3718 -0.2101
  108OSM   H12F11084   0.058   5.278   5.558  0.7980 -0.4082 -0.5118
  108OSM   H12G11085   0.187   5.292   5.430  0.9134 -0.5143  1.1195
  108OSM   C13F11086   0.044   5.437   5.397 -0.5814  0.5057 -0.2350
  108OSM   H13F11087  -0.029   5.494   5.457  1.6886  2.1135  1.1913
  108OSM   H13G11088  -0.022   5.375   5.333  0.6873 -0.3687 -0.7447
  108OSM   C14F11089   0.117   5.545   5.324 -0.1340  0.1361 -0.2007
  108OSM   H14F11090   0.171   5.607   5.399 -2.3520  1.0721  0.6939
  108OSM   H14G11091   0.048   5.618   5.277 -0.5254  0.3755  0.7296
  108OSM   C15F11092   0.208   5.482   5.220  0.2798 -0.3006 -0.1701
  108OSM   H15F11093   0.149   5.417   5.153  1.4657 -0.6328 -0.9171
  108OSM   H15G11094   0.288   5.416   5.260  0.3657  0.8217  1.6636
  108OSM   C16F11095   0.268   5.592   5.123 -0.1611  0.5864 -0.5056
  108OSM   H16F11096   0.330   5.664   5.180  0.7552  0.0111 -0.7425
  108OSM   H16G11097   0.186   5.656   5.086 -0.3590 -0.3656 -1.8157
  108OSM   C17F11098   0.367   5.539   5.027 -0.3606 -0.0200  0.6663
  108OSM   H17F11099   0.326   5.454   4.969  0.9388 -0.1520 -0.1078
  108OSM   H17G11100   0.448   5.489   5.083 -1.0513 -0.1700  1.5448
  108OSM   C18F11101   0.436   5.648   4.943  0.2070 -0.1191 -0.3556
  108OSM   H18F11102   0.368   5.679   4.861 -0.1284 -1.3342 -0.5638
  108OSM   H18G11103   0.535   5.615   4.905  0.1636 -0.5768 -0.0818
  108OSM   H18H11104   0.452   5.738   5.006 -1.5108 -0.6749  0.9613
  109OSM      N11105   3.268   0.862   7.202  0.3577  0.5774  0.4830
  109OSM    C1511106   3.281   0.882   7.350 -0.1442  0.3673  0.0355
  109OSM   H15A11107   3.330   0.804   7.407  0.8382  0.2258 -0.9586
  109OSM   H15B11108   3.182   0.893   7.392 -1.3259 -3.7768 -1.1490
  109OSM   H15C11109   3.332   0.975   7.367  1.9528 -0.7615  0.2922
  109OSM    C1411110   3.225   0.991   7.146 -1.0428  0.4905  0.8660
  109OSM   H14A11111   3.120   1.004   7.168 -1.1280  1.9038 -0.2254
  109OSM   H14B11112   3.228   0.986   7.038  4.5799  1.9217  0.6434
  109OSM   H14C11113   3.292   1.067   7.182  0.5088 -1.6447  2.7397
  109OSM    C1311114   3.403   0.832   7.139 -0.0228  0.0223 -0.0656
  109OSM   H13A11115   3.448   0.744   7.182 -1.0280 -0.2570  0.4405
  109OSM   H13B11116   3.468   0.917   7.149 -0.0800 -0.0751  1.1865
  109OSM   H13C11117   3.399   0.812   7.032 -0.0130 -0.2912 -0.0084
  109OSM    C1211118   3.164   0.751   7.169  0.1517  0.2076 -0.3617
  109OSM   H12A11119   3.085   0.747   7.243  0.3922 -2.4777 -0.1535
  109OSM   H12B11120   3.207   0.653   7.177 -1.0651 -0.3172  0.0705
  109OSM    C1111121   3.094   0.749   7.030  0.4209  0.0074  0.6875
  109OSM   H11A11122   3.026   0.835   7.014  1.1721  0.2060 -1.7241
  109OSM   H11B11123   3.045   0.649   7.022  2.9486 -1.2259 -0.4644
  109OSM      P11124   3.258   0.604   6.886  0.0011 -0.3435 -0.0124
  109OSM    O1311125   3.378   0.648   6.818 -0.6346 -0.0852 -0.4999
  109OSM    O1411126   3.279   0.527   7.013  0.3555  0.0165  0.1551
  109OSM    O1111127   3.167   0.519   6.785 -0.1171 -0.2254  0.0469
  109OSM    O1211128   3.184   0.741   6.917 -0.2818 -0.8737  0.1748
  109OSM    C1S11129   3.181   0.543   6.643  0.1075  0.3102  1.3909
  109OSM    H1S11130   3.253   0.477   6.590 -0.5699 -1.3016  2.3828
  109OSM    H1T11131   3.215   0.647   6.623  1.4174 -0.1893  0.9158
  109OSM     NF11132   3.071   0.563   6.434 -0.4106 -0.4351 -0.1381
  109OSM    HNF11133   3.035   0.653   6.410 -2.9130 -1.4614 -0.5655
  109OSM    C2S11134   3.048   0.529   6.571  0.1761 -0.1216 -0.4119
  109OSM    H2S11135   3.010   0.425   6.577 -0.3065 -0.1610 -3.0614
  109OSM    C3S11136   2.937   0.622   6.634  0.0586  0.7290 -0.2224
  109OSM    H3S11137   2.986   0.721   6.625 -1.0530  1.3008 -0.1354
  109OSM     O311138   2.920   0.609   6.777 -0.2074 -0.1377  0.3151
  109OSM    HO311139   2.999   0.558   6.797  2.3153  3.6380  0.9298
  109OSM    C4S11140   2.818   0.604   6.542 -0.1528 -0.0219 -0.1916
  109OSM    H4S11141   2.834   0.667   6.453 -1.2336  0.3087 -0.1666
  109OSM    C5S11142   2.709   0.524   6.554 -0.7506  0.4685 -0.2240
  109OSM    H5S11143   2.698   0.464   6.645 -0.9304 -0.9768 -1.1756
  109OSM    C6S11144   2.594   0.509   6.461 -0.3778  0.5131  0.4424
  109OSM    H6S11145   2.503   0.551   6.508 -0.7315  0.2074  0.0358
  109OSM    H6T11146   2.576   0.400   6.455 -0.4938  0.5177  0.7405
  109OSM    C7S11147   2.618   0.568   6.319  0.4517 -0.2035 -0.2725
  109OSM    H7S11148   2.663   0.667   6.340  0.9024 -0.6188  0.8030
  109OSM    H7T11149   2.522   0.587   6.267  0.9544  0.0085 -1.1228
  109OSM    C8S11150   2.722   0.497   6.236 -0.2356 -0.9461  0.3326
  109OSM    H8S11151   2.681   0.399   6.202  0.5050 -1.1518  0.0238
  109OSM    H8T11152   2.807   0.474   6.304 -0.3366 -0.9346  0.4629
  109OSM    C9S11153   2.773   0.586   6.114  0.6297 -0.2000  0.4112
  109OSM    H9S11154   2.870   0.552   6.074 -0.1826 -0.7767 -1.1741
  109OSM    H9T11155   2.782   0.692   6.145  0.5708  1.1888 -3.8047
  109OSM   C10S11156   2.678   0.590   5.996 -0.9342 -0.7703  1.0364
  109OSM   H10S11157   2.584   0.640   6.026 -0.9696  0.3134 -0.7280
  109OSM   H10T11158   2.651   0.488   5.961 -0.0197 -1.1810  1.4910
  109OSM   C11S11159   2.732   0.683   5.887 -0.1806  0.1673 -0.0235
  109OSM   H11S11160   2.819   0.640   5.833 -1.0681 -0.7416 -0.7515
  109OSM   H11T11161   2.771   0.772   5.940 -2.4652  1.3037 -0.1452
  109OSM   C12S11162   2.644   0.747   5.788 -0.1514 -0.0894 -0.2798
  109OSM   H12S11163   2.683   0.846   5.754 -0.4684  0.5761  1.2036
  109OSM   H12T11164   2.550   0.775   5.841 -0.0924  1.0224 -0.7292
  109OSM   C13S11165   2.614   0.666   5.662 -0.4383 -0.7191  1.3990
  109OSM   H13S11166   2.574   0.566   5.689 -0.1489 -1.6330 -1.2399
  109OSM   H13T11167   2.700   0.650   5.594 -0.6531  1.6855  0.4598
  109OSM   C14S11168   2.509   0.736   5.579  0.2673  0.3473  0.4683
  109OSM   H14S11169   2.557   0.824   5.531  2.1428 -0.6272  0.4877
  109OSM   H14T11170   2.426   0.774   5.643  1.4108  1.8408  1.1123
  109OSM   C15S11171   2.435   0.643   5.476 -0.0473  0.1108 -0.0264
  109OSM   H15S11172   2.384   0.570   5.543  0.2555  0.9289  1.1267
  109OSM   H15T11173   2.499   0.577   5.414  1.2079  0.3034  1.0159
  109OSM   C16S11174   2.333   0.720   5.388  0.3614  0.1570  0.7649
  109OSM   H16S11175   2.375   0.775   5.301 -0.5743 -0.8678 -0.3643
  109OSM   H16T11176   2.272   0.783   5.456 -2.3487 -1.5157  0.0620
  109OSM   C17S11177   2.233   0.625   5.324 -0.2733  0.0890 -0.1197
  109OSM   H17S11178   2.190   0.570   5.411 -1.4553  1.3855  0.1628
  109OSM   H17T11179   2.277   0.545   5.261 -1.5647 -0.8655  0.1474
  109OSM   C18S11180   2.129   0.697   5.234 -0.1596  0.8929  0.0219
  109OSM   H18S11181   2.063   0.761   5.297  2.4459  1.9229  1.9127
  109OSM   H18T11182   2.066   0.618   5.189 -0.2933  0.7970  0.3709
  109OSM   H18U11183   2.196   0.756   5.167  2.5194 -0.1653  1.5875
  109OSM    C1F11184   3.145   0.482   6.354 -0.3247 -0.0893  0.4455
  109OSM     OF11185   3.174   0.368   6.385 -0.3588  0.0814  0.8613
  109OSM    C2F11186   3.184   0.548   6.224  0.2655  0.5539  0.6445
  109OSM    H2F11187   3.238   0.643   6.245 -0.2248  1.2867 -1.1417
  109OSM    H2G11188   3.088   0.576   6.175  0.9481  0.2737 -0.9190
  109OSM    C3F11189   3.260   0.465   6.125 -0.0665  0.0805  0.3313
  109OSM    H3F11190   3.217   0.364   6.112 -1.1629  0.6541 -0.6896
  109OSM    H3G11191   3.358   0.434   6.167  0.1019 -0.0830 -0.1796
  109OSM    C4F11192   3.279   0.535   5.993  0.6192 -0.0472 -0.0764
  109OSM    H4F11193   3.359   0.476   5.945  1.0512  0.7882 -0.4103
  109OSM    H4G11194   3.325   0.636   5.990 -0.6146  0.5579  0.5082
  109OSM    C5F11195   3.149   0.545   5.912  0.1828  0.1083 -0.1604
  109OSM    H5F11196   3.082   0.611   5.971 -1.7983 -0.6008 -1.5179
  109OSM    H5G11197   3.107   0.444   5.890 -0.0437 -0.1217  1.1856
  109OSM    C6F11198   3.165   0.617   5.774 -0.6888  0.0298 -0.4664
  109OSM    H6F11199   3.211   0.718   5.775 -1.8415  0.5739 -0.6703
  109OSM    H6G11200   3.062   0.639   5.738 -0.7111 -1.6914 -1.5444
  109OSM    C7F11201   3.239   0.522   5.676  0.0511  0.3881  0.1202
  109OSM    H7F11202   3.171   0.436   5.658 -2.2289  1.5279  2.5434
  109OSM    H7G11203   3.338   0.491   5.715  0.3030  3.1181  1.9303
  109OSM    C8F11204   3.256   0.580   5.536  0.3591 -0.1839 -0.0810
  109OSM    H8F11205   3.293   0.684   5.550 -0.3055 -0.1951  1.9835
  109OSM    H8G11206   3.157   0.581   5.484  1.2871 -0.6318 -1.9310
  109OSM    C9F11207   3.347   0.498   5.449  0.0573 -0.2161  0.1571
  109OSM    H9F11208   3.438   0.470   5.504  0.0787  1.7566  1.2311
  109OSM   C10F11209   3.336   0.460   5.323  0.0187 -0.3068  0.4460
  109OSM   H10F11210   3.413   0.389   5.289 -1.8170 -1.8323 -0.7703
  109OSM   C11F11211   3.224   0.498   5.222  0.2387  0.2282  0.1170
  109OSM   H11F11212   3.260   0.564   5.140 -0.2029  0.1137 -0.1719
  109OSM   H11G11213   3.143   0.560   5.266  0.9916  1.1052  0.3048
  109OSM   C12F11214   3.139   0.383   5.163 -0.5908  0.2431 -0.1550
  109OSM   H12F11215   3.111   0.328   5.256 -1.1087  1.6468  0.5537
  109OSM   H12G11216   3.212   0.324   5.105 -1.1018 -0.0744 -0.4828
  109OSM   C13F11217   3.022   0.438   5.086  1.0289  0.1226 -0.0853
  109OSM   H13F11218   3.065   0.516   5.019  3.6017 -0.4948  0.7021
  109OSM   H13G11219   2.951   0.488   5.155  0.2536  0.5381 -1.1679
  109OSM   C14F11220   2.945   0.327   5.015  0.2779 -0.0659 -0.1988
  109OSM   H14F11221   2.893   0.256   5.082  0.6241  1.5822  1.9413
  109OSM   H14G11222   3.023   0.272   4.958  1.6697 -0.3924  1.9165
  109OSM   C15F11223   2.836   0.382   4.914  0.2507 -0.6163 -0.0328
  109OSM   H15F11224   2.772   0.457   4.964  0.1139 -0.7180 -0.0524
  109OSM   H15G11225   2.783   0.296   4.867 -0.1741  0.3392 -1.3639
  109OSM   C16F11226   2.891   0.456   4.794  0.3045  0.1905  0.3382
  109OSM   H16F11227   2.979   0.519   4.817  2.4009 -2.7617  1.1018
  109OSM   H16G11228   2.812   0.514   4.743  0.7549  1.1709  0.7374
  109OSM   C17F11229   2.948   0.355   4.692  0.4149  0.1523 -0.7716
  109OSM   H17F11230   2.872   0.274   4.686 -0.7381  0.6826  3.4370
  109OSM   H17G11231   3.034   0.309   4.744 -2.2238 -1.6740  2.3775
  109OSM   C18F11232   2.994   0.417   4.564  0.4807 -0.4350  0.7275
  109OSM   H18F11233   3.061   0.502   4.589  1.9039 -0.7466 -1.6803
  109OSM   H18G11234   2.917   0.461   4.496 -0.3284 -1.2890  1.0669
  109OSM   H18H11235   3.066   0.355   4.507 -1.2507 -1.2199 -0.7184
  110OSM      N11236   5.482   5.104   7.294 -0.4077  0.3289  0.2519
  110OSM    C1511237   5.599   5.014   7.245 -0.9399 -0.1950 -0.3239
  110OSM   H15A11238   5.669   5.073   7.188 -0.6781  1.4818  1.5941
  110OSM   H15B11239   5.561   4.941   7.176 -0.7313  0.1120 -0.7679
  110OSM   H15C11240   5.642   4.969   7.333  0.1855 -0.7520 -1.1438
  110OSM    C1411241   5.503   5.149   7.428 -0.5266 -0.2151  0.1118
  110OSM   H14A11242   5.600   5.197   7.428  0.2664 -1.7604 -0.0344
  110OSM   H14B11243   5.512   5.066   7.496 -1.4691 -0.4829 -0.0699
  110OSM   H14C11244   5.435   5.226   7.460  0.3240  1.2947 -1.5587
  110OSM    C1311245   5.480   5.223   7.199  0.3553 -0.3129 -0.5899
  110OSM   H13A11246   5.395   5.284   7.229 -0.9809 -2.6790  0.7785
  110OSM   H13B11247   5.466   5.185   7.099 -0.3004  1.7170 -1.3255
  110OSM   H13C11248   5.564   5.291   7.203 -0.8394  1.1811  1.0560
  110OSM    C1211249   5.352   5.023   7.284  0.1900 -0.3180  0.3164
  110OSM   H12A11250   5.268   5.089   7.300  1.0877  0.5294  1.7202
  110OSM   H12B11251   5.346   4.953   7.366  0.2178 -0.6629  0.0255
  110OSM    C1111252   5.332   4.953   7.151 -0.2526  0.1607 -0.0356
  110OSM   H11A11253   5.397   4.864   7.139 -1.4006 -0.6743 -0.2617
  110OSM   H11B11254   5.344   5.019   7.063 -1.0760 -1.0525 -1.1067
  110OSM      P11255   5.084   5.003   7.107 -0.1604 -0.3070  0.0833
  110OSM    O1311256   4.959   4.931   7.123  0.8013 -0.0617  0.2121
  110OSM    O1411257   5.102   5.129   7.177 -0.6412 -0.0142  0.1028
  110OSM    O1111258   5.115   5.033   6.954 -0.1872  0.9827  0.2486
  110OSM    O1211259   5.199   4.906   7.148  0.0922  0.3332  0.2798
  110OSM    C1S11260   5.050   4.954   6.856  1.8485 -0.7326  0.2032
  110OSM    H1S11261   4.939   4.955   6.858  1.8326 -1.2155 -0.1746
  110OSM    H1T11262   5.081   4.851   6.886  0.1624 -0.8257  1.7924
  110OSM     NF11263   5.023   4.874   6.628 -0.3671  0.1496 -0.1036
  110OSM    HNF11264   5.086   4.802   6.598  2.6225  1.6612  2.1010
  110OSM    C2S11265   5.092   4.977   6.706  0.0228  0.3666 -0.6274
  110OSM    H2S11266   5.054   5.078   6.677  0.3087  1.7022  3.1331
  110OSM    C3S11267   5.250   4.967   6.691  0.4233 -0.0635  0.1366
  110OSM    H3S11268   5.295   4.871   6.726  1.2434  0.3967  0.3865
  110OSM     O311269   5.328   5.056   6.775 -0.4718 -0.3973  0.0195
  110OSM    HO311270   5.277   5.071   6.855 -0.2593 -1.4863  0.3712
  110OSM    C4S11271   5.282   4.968   6.544  0.3489 -1.1293  0.1562
  110OSM    H4S11272   5.240   5.055   6.492 -0.6712 -3.0464 -2.4722
  110OSM    C5S11273   5.340   4.873   6.478 -0.3130 -0.6229  0.5183
  110OSM    H5S11274   5.379   4.786   6.533 -0.8902 -0.4439  1.2255
  110OSM    C6S11275   5.380   4.866   6.331  0.1997  0.1615  0.2586
  110OSM    H6S11276   5.291   4.814   6.291  0.4160 -1.6026  1.8857
  110OSM    H6T11277   5.467   4.798   6.316  0.3221  0.5624 -0.9078
  110OSM    C7S11278   5.385   5.001   6.255  0.2792 -0.5915 -0.3697
  110OSM    H7S11279   5.472   5.062   6.284  0.5005 -0.5082 -1.1708
  110OSM    H7T11280   5.296   5.065   6.273  0.8889  0.6219 -1.4952
  110OSM    C8S11281   5.407   4.973   6.109  0.1356  0.2530 -0.2061
  110OSM    H8S11282   5.344   5.049   6.059  1.6169  1.7032  0.0574
  110OSM    H8T11283   5.376   4.871   6.076  1.5925 -1.4819  3.2732
  110OSM    C9S11284   5.555   4.993   6.081 -0.7130 -0.3451  0.8660
  110OSM    H9S11285   5.607   4.914   6.138 -1.3257 -1.8898 -0.6422
  110OSM    H9T11286   5.581   5.096   6.114  0.8553 -0.2759 -0.4718
  110OSM   C10S11287   5.595   4.995   5.935 -0.1233  0.1154  0.3481
  110OSM   H10S11288   5.562   5.093   5.894  1.6550  0.0006 -1.5230
  110OSM   H10T11289   5.535   4.918   5.882 -1.9471  0.5071  1.7244
  110OSM   C11S11290   5.748   4.962   5.903  0.1213  0.0198  0.1936
  110OSM   H11S11291   5.750   4.943   5.794 -1.0420 -0.8337  0.3069
  110OSM   H11T11292   5.768   4.862   5.947  0.0993 -0.6397 -1.2461
  110OSM   C12S11293   5.854   5.064   5.937  0.0264 -0.0184  0.1434
  110OSM   H12S11294   5.805   5.148   5.991 -2.0475 -1.6916  1.0203
  110OSM   H12T11295   5.906   5.108   5.850 -0.0075  0.6280  0.4446
  110OSM   C13S11296   5.971   5.019   6.033  0.2659 -0.1511  0.5640
  110OSM   H13S11297   6.060   5.061   5.980 -0.2075  0.4406  0.2208
  110OSM   H13T11298   5.985   4.912   6.005 -0.9293 -0.3201  0.5514
  110OSM   C14S11299   5.964   5.055   6.183 -0.5635 -0.2470  0.7430
  110OSM   H14S11300   5.930   5.160   6.195  0.0686  0.3634 -1.9900
  110OSM   H14T11301   6.064   5.033   6.226  1.1144  0.0007 -2.6311
  110OSM   C15S11302   5.866   4.978   6.267 -0.1653 -0.2675 -1.0377
  110OSM   H15S11303   5.892   4.872   6.246 -0.0818  0.0875 -2.8081
  110OSM   H15T11304   5.765   5.004   6.230  0.0389  1.1286 -0.6654
  110OSM   C16S11305   5.875   5.009   6.414  0.1383  0.2334 -0.1430
  110OSM   H16S11306   5.867   5.112   6.454  1.8816 -0.1798  1.4501
  110OSM   H16T11307   5.973   4.976   6.456 -0.1041 -0.5489 -0.1809
  110OSM   C17S11308   5.768   4.928   6.492 -0.1229 -0.1358  0.4391
  110OSM   H17S11309   5.772   4.820   6.469 -1.0361  0.2441 -1.7618
  110OSM   H17T11310   5.671   4.961   6.449  0.0236 -0.7740 -0.4029
  110OSM   C18S11311   5.752   4.951   6.641 -0.3870 -0.0710  0.0831
  110OSM   H18S11312   5.843   4.924   6.699 -0.4017 -1.2109 -0.4125
  110OSM   H18T11313   5.667   4.886   6.669 -1.0370  0.1512 -1.3027
  110OSM   H18U11314   5.728   5.055   6.674  2.3019  1.3746 -2.0899
  110OSM    C1F11315   4.898   4.889   6.595 -0.1984  0.2425  0.4937
  110OSM     OF11316   4.823   4.988   6.625 -0.1053 -0.3495  0.4021
  110OSM    C2F11317   4.849   4.779   6.514  0.3206  0.2373 -0.1062
  110OSM    H2F11318   4.757   4.733   6.556  0.3059 -1.3563 -1.7390
  110OSM    H2G11319   4.924   4.697   6.504 -0.8317 -1.1729  2.2206
  110OSM    C3F11320   4.817   4.825   6.375  0.3504 -0.1147  0.4702
  110OSM    H3F11321   4.745   4.909   6.371  1.0401  0.4728 -0.0377
  110OSM    H3G11322   4.767   4.745   6.317  2.3885 -0.2715 -1.2318
  110OSM    C4F11323   4.937   4.862   6.283 -0.3709  0.2113 -0.1552
  110OSM    H4F11324   4.996   4.772   6.257  1.0207  1.1951 -0.5127
  110OSM    H4G11325   5.003   4.931   6.339 -0.7137 -1.8221  3.0343
  110OSM    C5F11326   4.915   4.922   6.143  0.4503  0.0640 -0.2595
  110OSM    H5F11327   4.885   5.029   6.136  2.0357  0.5086 -0.6463
  110OSM    H5G11328   4.837   4.865   6.088 -1.5970  0.4542  2.0410
  110OSM    C6F11329   5.045   4.922   6.054 -0.1745  0.2188 -0.4012
  110OSM    H6F11330   5.089   4.820   6.056  0.5143  0.5004 -0.8652
  110OSM    H6G11331   5.124   4.989   6.093  0.3216 -0.3546 -0.4162
  110OSM    C7F11332   5.007   4.969   5.912  0.3772 -0.1329 -0.0913
  110OSM    H7F11333   4.956   5.063   5.943  0.1826 -0.6879  1.3295
  110OSM    H7G11334   4.945   4.901   5.850  0.9236 -1.1262  0.4425
  110OSM    C8F11335   5.127   4.990   5.820 -0.1051  0.5088 -0.1887
  110OSM    H8F11336   5.159   4.885   5.801 -0.0954  0.3678  0.5874
  110OSM    H8G11337   5.217   5.033   5.869  0.1714  0.2415 -0.4528
  110OSM    C9F11338   5.104   5.052   5.687 -0.5449 -0.3449  0.0095
  110OSM    H9F11339   4.999   5.068   5.657 -1.1252 -0.8688  1.6230
  110OSM   C10F11340   5.204   5.082   5.601  0.6187 -0.0967 -0.5410
  110OSM   H10F11341   5.181   5.144   5.513  1.7512  2.6549  0.9851
  110OSM   C11F11342   5.347   5.057   5.617  0.0150  0.3274 -0.7892
  110OSM   H11F11343   5.381   5.071   5.722 -1.8018  3.1582 -0.4805
  110OSM   H11G11344   5.405   5.138   5.566 -1.6460  1.8338 -0.3807
  110OSM   C12F11345   5.390   4.923   5.550 -0.0762 -0.4917  0.0348
  110OSM   H12F11346   5.317   4.841   5.568 -0.4917  0.3996  3.0410
  110OSM   H12G11347   5.481   4.883   5.600  0.7295  1.3855  0.1820
  110OSM   C13F11348   5.413   4.933   5.399 -1.2366  0.1765  0.4346
  110OSM   H13F11349   5.342   5.001   5.347 -0.8056 -0.3009 -0.8308
  110OSM   H13G11350   5.419   4.832   5.352  2.1125  0.4223  0.0619
  110OSM   C14F11351   5.559   4.992   5.369  0.9921 -0.5349  0.2954
  110OSM   H14F11352   5.626   4.915   5.414  2.1811  1.2383  1.7251
  110OSM   H14G11353   5.578   5.090   5.418  1.1521 -0.5401  0.2456
  110OSM   C15F11354   5.577   4.992   5.218 -0.2138  0.6780  0.1882
  110OSM   H15F11355   5.537   5.084   5.169  0.0356  1.5066  1.5008
  110OSM   H15G11356   5.536   4.900   5.171 -1.3400  2.5494 -2.7715
  110OSM   C16F11357   5.725   4.984   5.177  0.9651 -0.1252 -0.2976
  110OSM   H16F11358   5.767   4.884   5.200  0.1280 -0.7474 -1.3568
  110OSM   H16G11359   5.783   5.056   5.238  2.7131 -0.3051 -1.6629
  110OSM   C17F11360   5.748   4.996   5.023  0.1242  0.3176  0.0842
  110OSM   H17F11361   5.854   4.993   4.989  0.5043  0.7139  1.1777
  110OSM   H17G11362   5.712   5.092   4.980 -1.2133  0.2613  0.9861
  110OSM   C18F11363   5.675   4.879   4.943 -0.2333 -0.8038 -1.1426
  110OSM   H18F11364   5.670   4.786   5.003 -1.2789 -0.1030 -0.1032
  110OSM   H18G11365   5.727   4.852   4.849  2.7091 -0.6142  0.3137
  110OSM   H18H11366   5.573   4.920   4.925 -0.0365  0.1811 -0.0952
  111OSM      N11367   1.215   3.385   7.494  0.3038  1.3619 -0.5071
  111OSM    C1511368   1.273   3.465   7.608  0.0004  0.1173 -0.0299
  111OSM   H15A11369   1.258   3.425   7.708  2.1895 -1.9236 -0.4162
  111OSM   H15B11370   1.245   3.569   7.603  0.2254  0.2465  1.1316
  111OSM   H15C11371   1.378   3.447   7.592  0.4712  1.0061  1.8292
  111OSM    C1411372   1.294   3.260   7.480  0.0166 -1.2230 -0.4156
  111OSM   H14A11373   1.295   3.212   7.576 -1.5923  1.5630  1.1135
  111OSM   H14B11374   1.395   3.274   7.444  0.6786 -1.0360  1.4338
  111OSM   H14C11375   1.245   3.197   7.407 -0.9812  0.4026 -1.2273
  111OSM    C1311376   1.079   3.350   7.527  0.0412 -0.3759  0.1351
  111OSM   H13A11377   1.020   3.312   7.445 -1.3145  1.6882  0.0687
  111OSM   H13B11378   1.038   3.449   7.544  0.5094  0.4570 -2.9570
  111OSM   H13C11379   1.066   3.297   7.620 -1.3127 -1.2705 -0.5440
  111OSM    C1211380   1.215   3.451   7.361  0.6398 -0.4094  0.0339
  111OSM   H12A11381   1.160   3.394   7.288  1.8280 -1.8184  0.1956
  111OSM   H12B11382   1.312   3.448   7.313  0.3632  0.9339 -0.6635
  111OSM    C1111383   1.173   3.600   7.351 -0.0457 -0.7588 -0.1696
  111OSM   H11A11384   1.201   3.640   7.251  0.0074  3.1529  1.2391
  111OSM   H11B11385   1.228   3.657   7.428  3.3725  0.5026 -3.2566
  111OSM      P11386   0.928   3.678   7.289 -0.2944 -0.1347  0.1669
  111OSM    O1311387   0.797   3.611   7.317  0.1079 -0.6758 -0.2673
  111OSM    O1411388   0.928   3.829   7.302 -0.1601  0.8398 -0.0902
  111OSM    O1111389   0.978   3.649   7.138 -0.2312  0.6666 -0.6276
  111OSM    O1211390   1.035   3.623   7.388 -0.0194 -0.1214 -0.9803
  111OSM    C1S11391   0.985   3.513   7.098 -0.0700  0.2952 -0.4131
  111OSM    H1S11392   0.880   3.477   7.095  0.1103 -0.3762  0.7649
  111OSM    H1T11393   1.041   3.438   7.158 -3.0015 -0.8793  1.0780
  111OSM     NF11394   1.030   3.357   6.920  0.6085 -0.0780 -0.5606
  111OSM    HNF11395   1.117   3.309   6.928 -0.1096 -1.2326  0.6578
  111OSM    C2S11396   1.033   3.494   6.948  0.6203 -0.1571  0.5018
  111OSM    H2S11397   0.956   3.538   6.882 -0.0759 -1.1965  0.6106
  111OSM    C3S11398   1.166   3.573   6.933 -0.4913 -0.3566 -0.3250
  111OSM    H3S11399   1.241   3.523   6.998  1.8256 -0.0439 -2.6070
  111OSM     O311400   1.163   3.711   6.967 -0.0501 -0.2242 -0.1465
  111OSM    HO311401   1.093   3.713   7.032  0.0777 -0.0030 -0.0141
  111OSM    C4S11402   1.232   3.554   6.804  0.6227 -0.1507 -0.0381
  111OSM    H4S11403   1.158   3.559   6.723  1.8417 -0.1843 -1.1863
  111OSM    C5S11404   1.363   3.543   6.776 -0.4415 -0.1798  0.2674
  111OSM    H5S11405   1.441   3.545   6.854 -0.8567  0.9678  0.6641
  111OSM    C6S11406   1.416   3.551   6.634  0.3581 -0.0347 -0.4918
  111OSM    H6S11407   1.479   3.460   6.625 -0.8365 -0.8964 -0.3833
  111OSM    H6T11408   1.495   3.629   6.629  0.0510  0.3127 -0.0359
  111OSM    C7S11409   1.331   3.584   6.504 -0.4639  0.5329 -0.1945
  111OSM    H7S11410   1.266   3.673   6.515 -0.3774  0.6687 -0.7229
  111OSM    H7T11411   1.252   3.507   6.487  0.5597 -0.9980  1.6400
  111OSM    C8S11412   1.421   3.580   6.377  0.8668  0.6778 -0.9822
  111OSM    H8S11413   1.433   3.471   6.359  2.4846  0.1775  2.3287
  111OSM    H8T11414   1.522   3.618   6.402  1.8455 -3.7259  3.4493
  111OSM    C9S11415   1.352   3.661   6.259  0.0416 -0.1305 -0.0333
  111OSM    H9S11416   1.359   3.768   6.290 -3.1538 -0.3810  2.0385
  111OSM    H9T11417   1.248   3.625   6.246 -0.4561  1.2873 -0.1852
  111OSM   C10S11418   1.437   3.650   6.126  0.6982  0.1059 -0.1592
  111OSM   H10S11419   1.467   3.543   6.124 -1.7836 -0.6653  0.1735
  111OSM   H10T11420   1.530   3.710   6.133  0.2843  0.7754 -0.3801
  111OSM   C11S11421   1.353   3.661   5.999 -0.4040 -0.4907  0.0412
  111OSM   H11S11422   1.293   3.755   5.994  0.8748  0.4159  1.0784
  111OSM   H11T11423   1.283   3.575   6.007 -0.3267 -0.4506  1.4846
  111OSM   C12S11424   1.438   3.653   5.866 -0.5901 -0.5835 -0.0309
  111OSM   H12S11425   1.507   3.569   5.892  0.7181  0.3940 -0.2472
  111OSM   H12T11426   1.494   3.747   5.852  1.5628 -1.7158  0.4904
  111OSM   C13S11427   1.361   3.621   5.736  0.3668 -0.7137 -0.5632
  111OSM   H13S11428   1.281   3.696   5.719  1.5980  0.8392  0.2268
  111OSM   H13T11429   1.309   3.524   5.750  1.0495 -0.9317  0.6580
  111OSM   C14S11430   1.463   3.614   5.616  0.7895  0.0984 -1.1088
  111OSM   H14S11431   1.543   3.540   5.641 -0.2057 -0.5902  0.1456
  111OSM   H14T11432   1.510   3.715   5.615  0.6507  0.1698 -0.5010
  111OSM   C15S11433   1.389   3.608   5.481 -0.9353 -0.0506  0.1018
  111OSM   H15S11434   1.323   3.696   5.499  1.1283  1.5237  0.5099
  111OSM   H15T11435   1.342   3.508   5.479 -1.0404 -0.0201 -2.8731
  111OSM   C16S11436   1.479   3.629   5.353 -0.6395  0.2558  0.0515
  111OSM   H16S11437   1.403   3.622   5.272 -1.2124  1.0622  0.4982
  111OSM   H16T11438   1.555   3.549   5.349 -1.7288 -0.8037  0.1574
  111OSM   C17S11439   1.533   3.777   5.354  1.1411  0.1130  0.4179
  111OSM   H17S11440   1.604   3.784   5.438  0.1073 -0.9641  1.4218
  111OSM   H17T11441   1.447   3.844   5.377 -1.9568 -2.2687 -3.0016
  111OSM   C18S11442   1.609   3.809   5.224 -0.9102  0.1673  0.2280
  111OSM   H18S11443   1.538   3.822   5.140  0.2704  0.0370 -0.8104
  111OSM   H18T11444   1.685   3.736   5.188 -0.6418  0.9333 -0.8145
  111OSM   H18U11445   1.669   3.902   5.235 -1.8466  0.9995 -1.3222
  111OSM    C1F11446   0.923   3.294   6.900  0.0233  0.2187  0.1746
  111OSM     OF11447   0.811   3.348   6.882 -0.0586 -0.0396 -0.1465
  111OSM    C2F11448   0.933   3.142   6.882  0.1675 -0.8713  0.0930
  111OSM    H2F11449   0.874   3.085   6.957  2.2197 -1.1391  1.5970
  111OSM    H2G11450   1.039   3.114   6.899  1.2945 -0.1379 -4.3531
  111OSM    C3F11451   0.878   3.089   6.744 -0.0856  0.0933 -0.4437
  111OSM    H3F11452   0.772   3.119   6.727 -0.0304 -0.2522 -1.4596
  111OSM    H3G11453   0.870   2.978   6.748 -2.7218  0.2395  0.0879
  111OSM    C4F11454   0.948   3.130   6.624 -0.2774 -0.2771  0.1602
  111OSM    H4F11455   1.008   3.046   6.584 -0.7284 -1.1347  1.2248
  111OSM    H4G11456   1.020   3.214   6.635  0.1874 -0.7191  0.6081
  111OSM    C5F11457   0.854   3.164   6.507  0.2564 -0.2029  0.0192
  111OSM    H5F11458   0.813   3.267   6.516  0.6231 -0.1195  0.8247
  111OSM    H5G11459   0.777   3.083   6.501 -1.0731  0.9270  1.0827
  111OSM    C6F11460   0.933   3.165   6.370  0.0662 -0.3563  0.1171
  111OSM    H6F11461   0.874   3.124   6.285  1.2935 -1.7970 -0.0677
  111OSM    H6G11462   1.019   3.097   6.384 -0.5209 -1.3613 -0.9753
  111OSM    C7F11463   0.998   3.306   6.331 -0.4456  0.0431  0.5020
  111OSM    H7F11464   1.094   3.315   6.386 -1.1254 -1.4694  1.9815
  111OSM    H7G11465   0.934   3.389   6.367  2.0522  1.7682  1.2488
  111OSM    C8F11466   1.023   3.332   6.180 -0.4334 -0.1162  1.1206
  111OSM    H8F11467   1.089   3.250   6.144 -1.7045  0.0262 -1.7812
  111OSM    H8G11468   1.075   3.426   6.154 -0.9441  0.1196  0.9350
  111OSM    C9F11469   0.904   3.342   6.091  0.5148  0.2607  0.5057
  111OSM    H9F11470   0.810   3.371   6.139  1.6477  0.8809  2.4723
  111OSM   C10F11471   0.906   3.300   5.965  0.8637  0.0760  0.4033
  111OSM   H10F11472   0.816   3.314   5.904  1.6118  0.9552 -0.5373
  111OSM   C11F11473   1.033   3.261   5.884  0.7491 -0.1116 -0.2263
  111OSM   H11F11474   1.035   3.151   5.870  0.3745 -0.2844  1.0582
  111OSM   H11G11475   1.123   3.293   5.941  0.9562  2.8942 -1.9992
  111OSM   C12F11476   1.037   3.333   5.750  0.9792 -0.0939  0.4494
  111OSM   H12F11477   1.139   3.321   5.708  0.8971 -2.4933  0.7951
  111OSM   H12G11478   1.025   3.442   5.769  0.5713 -0.0107 -0.2700
  111OSM   C13F11479   0.927   3.290   5.648  0.1635 -0.2169  0.7914
  111OSM   H13F11480   0.829   3.325   5.687  1.2852  3.2880  0.8516
  111OSM   H13G11481   0.931   3.180   5.631  0.8440  0.1931 -2.5722
  111OSM   C14F11482   0.929   3.357   5.509  0.0297 -0.5927  0.4822
  111OSM   H14F11483   0.891   3.460   5.526  1.6224  0.5485 -2.3325
  111OSM   H14G11484   0.861   3.304   5.439  0.3453 -0.3881  0.0144
  111OSM   C15F11485   1.073   3.377   5.457  0.1176  0.0009 -0.4714
  111OSM   H15F11486   1.149   3.300   5.482 -0.3369  0.2905  2.1129
  111OSM   H15G11487   1.104   3.474   5.501 -2.1287  0.1546  0.9649
  111OSM   C16F11488   1.079   3.423   5.302 -0.5360 -0.2739 -0.7348
  111OSM   H16F11489   1.176   3.476   5.288  0.5945 -2.1288 -0.3935
  111OSM   H16G11490   0.997   3.497   5.297 -0.9854 -0.6609  0.4948
  111OSM   C17F11491   1.060   3.317   5.193  0.2431  0.5972  0.6952
  111OSM   H17F11492   0.964   3.270   5.224 -0.1555 -0.0402 -1.3685
  111OSM   H17G11493   1.134   3.236   5.210 -1.5570 -0.7822  2.4728
  111OSM   C18F11494   1.067   3.374   5.052  0.3948  0.2426 -0.0159
  111OSM   H18F11495   1.167   3.417   5.028 -0.1282  0.9388 -1.0462
  111OSM   H18G11496   0.992   3.455   5.039  0.2496 -0.1741 -2.0966
  111OSM   H18H11497   1.054   3.299   4.971 -2.7189  2.0624 -1.4397
  112OSM      N11498   4.478   0.460   7.155 -0.1652  0.2645 -0.7245
  112OSM    C1511499   4.593   0.559   7.173  0.4437 -0.5322 -0.3975
  112OSM   H15A11500   4.692   0.516   7.168  1.5989  1.6996  1.3860
  112OSM   H15B11501   4.586   0.604   7.270 -0.7840 -2.0237  0.2565
  112OSM   H15C11502   4.586   0.636   7.098  0.3303  0.0057  0.1583
  112OSM    C1411503   4.482   0.363   7.272 -0.3425 -0.1555  0.5830
  112OSM   H14A11504   4.443   0.411   7.360 -0.1058  1.5465 -0.1929
  112OSM   H14B11505   4.579   0.317   7.276 -0.1563  0.1816  0.0523
  112OSM   H14C11506   4.413   0.282   7.253 -2.2656  0.7205  3.2853
  112OSM    C1311507   4.355   0.545   7.152 -0.2852 -0.8966  0.0465
  112OSM   H13A11508   4.361   0.612   7.068 -0.6248 -1.9265 -0.8301
  112OSM   H13B11509   4.339   0.595   7.247 -1.7532  0.1453 -0.7293
  112OSM   H13C11510   4.267   0.484   7.138 -1.2781  0.2706  1.0327
  112OSM    C1211511   4.505   0.387   7.021 -0.5640 -0.7055 -0.5688
  112OSM   H12A11512   4.610   0.369   7.000 -0.7298 -0.7486 -1.4059
  112OSM   H12B11513   4.491   0.463   6.945  1.0378  1.7025  1.3568
  112OSM    C1111514   4.437   0.251   6.989 -0.2598 -0.1387  0.5944
  112OSM   H11A11515   4.477   0.174   7.059 -0.6573  0.6561  1.7460
  112OSM   H11B11516   4.470   0.223   6.887 -1.1506 -2.3218  0.8588
  112OSM      P11517   4.211   0.176   7.095  0.4036  0.1304  0.0323
  112OSM    O1311518   4.294   0.125   7.208  0.2624 -0.6925  0.2594
  112OSM    O1411519   4.092   0.241   7.140  0.3434  0.6981  0.1954
  112OSM    O1111520   4.167   0.060   6.996  0.7646  0.4548  0.7458
  112OSM    O1211521   4.296   0.269   6.994 -0.6855  0.2914  0.1465
  112OSM    C1S11522   4.089   0.106   6.874  0.2526 -0.5042 -0.5860
  112OSM    H1S11523   4.043   0.207   6.877 -0.8738 -0.9441 -2.0664
  112OSM    H1T11524   4.004   0.036   6.861  0.6692 -0.8063 -1.8166
  112OSM     NF11525   4.088   0.154   6.628 -0.1922  0.3860 -0.1085
  112OSM    HNF11526   4.055   0.084   6.565 -0.7866 -0.6504  1.3068
  112OSM    C2S11527   4.170   0.105   6.741 -0.0201  0.2809  0.3160
  112OSM    H2S11528   4.259   0.170   6.748  1.5347 -1.6398 -0.7294
  112OSM    C3S11529   4.227  -0.039   6.720  0.5561  0.3668 -0.2942
  112OSM    H3S11530   4.146  -0.114   6.737  1.4211 -0.4010  0.5407
  112OSM     O311531   4.329  -0.072   6.815 -0.0641 -0.0540  0.0678
  112OSM    HO311532   4.297  -0.034   6.897 -0.1706  0.5435 -0.2461
  112OSM    C4S11533   4.266  -0.066   6.580 -0.0104 -0.3390 -0.2360
  112OSM    H4S11534   4.190  -0.111   6.514 -0.2618  0.8310 -0.7832
  112OSM    C5S11535   4.387  -0.052   6.530  0.2496 -0.3391  0.0028
  112OSM    H5S11536   4.467  -0.022   6.599 -0.5537 -2.1228  1.8289
  112OSM    C6S11537   4.427  -0.092   6.387 -0.5918  0.1822 -1.1432
  112OSM    H6S11538   4.451  -0.200   6.391 -3.1988 -0.5025 -1.8280
  112OSM    H6T11539   4.523  -0.041   6.362  0.6402 -1.1109  0.7005
  112OSM    C7S11540   4.317  -0.065   6.276  0.0955  0.6359 -0.7145
  112OSM    H7S11541   4.295   0.044   6.271 -0.6455  0.6947  1.9424
  112OSM    H7T11542   4.222  -0.115   6.306  0.6856  0.2688  0.6135
  112OSM    C8S11543   4.361  -0.126   6.139  0.0751  0.7527  0.2406
  112OSM    H8S11544   4.272  -0.127   6.072  0.3948 -0.2701 -0.1776
  112OSM    H8T11545   4.389  -0.230   6.164 -0.0483  1.0481  1.6587
  112OSM    C9S11546   4.467  -0.045   6.060 -0.0661  0.2501  0.7151
  112OSM    H9S11547   4.563  -0.049   6.116 -0.9929 -0.2042  2.2940
  112OSM    H9T11548   4.424   0.058   6.065 -0.7849 -0.0944  1.8317
  112OSM   C10S11549   4.467  -0.089   5.915 -0.0419 -0.9276  0.1245
  112OSM   H10S11550   4.360  -0.079   5.887 -0.1653 -2.3891  0.0302
  112OSM   H10T11551   4.489  -0.197   5.905 -1.5477 -1.2786  0.4332
  112OSM   C11S11552   4.556   0.009   5.834  0.0907 -0.1562  0.3927
  112OSM   H11S11553   4.659  -0.025   5.860  0.5729  0.5056 -0.5791
  112OSM   H11T11554   4.546   0.113   5.873  0.4957  0.3567 -0.8229
  112OSM   C12S11555   4.521  -0.008   5.689 -0.5209  0.2901  0.6105
  112OSM   H12S11556   4.424   0.042   5.666 -0.0515  1.0885  0.3089
  112OSM   H12T11557   4.493  -0.113   5.669 -1.4602  0.1470  2.4701
  112OSM   C13S11558   4.642   0.021   5.595  0.2956  0.5647  0.7612
  112OSM   H13S11559   4.603   0.017   5.491  0.9218 -0.9889  0.5627
  112OSM   H13T11560   4.721  -0.057   5.600  0.3027  0.5604  0.6093
  112OSM   C14S11561   4.706   0.160   5.608  0.5689 -0.1964 -0.6245
  112OSM   H14S11562   4.721   0.179   5.717 -0.5266  2.8493 -0.9109
  112OSM   H14T11563   4.631   0.232   5.568 -0.9332 -1.0121  0.6291
  112OSM   C15S11564   4.842   0.179   5.533  0.4789 -0.2699  0.1309
  112OSM   H15S11565   4.828   0.134   5.432  0.0515 -0.6851  0.3763
  112OSM   H15T11566   4.919   0.117   5.584 -0.4263 -1.0334  0.5738
  112OSM   C16S11567   4.888   0.317   5.518 -0.0504 -0.2944  0.0266
  112OSM   H16S11568   4.916   0.368   5.613  3.9287 -0.1096 -1.0588
  112OSM   H16T11569   4.800   0.374   5.481 -1.0750 -1.4594  0.6060
  112OSM   C17S11570   5.006   0.346   5.432 -0.2922 -0.4148 -0.1070
  112OSM   H17S11571   5.011   0.455   5.451 -0.6289 -0.3287 -0.4779
  112OSM   H17T11572   4.995   0.334   5.322 -1.7022  1.6914 -0.2504
  112OSM   C18S11573   5.140   0.277   5.469  0.4046  0.1191 -0.4851
  112OSM   H18S11574   5.131   0.168   5.451  1.1452 -0.9212  4.1601
  112OSM   H18T11575   5.155   0.288   5.579 -1.3491  0.7765 -0.2756
  112OSM   H18U11576   5.226   0.308   5.406 -0.5470 -0.2659 -2.0226
  112OSM    C1F11577   4.046   0.280   6.616  0.4792  0.4528  0.0308
  112OSM     OF11578   4.090   0.364   6.689 -0.3883 -0.4882 -0.2130
  112OSM    C2F11579   3.932   0.312   6.512  0.0916  0.2952 -0.2826
  112OSM    H2F11580   3.940   0.423   6.507  0.3563  0.6346  4.2222
  112OSM    H2G11581   3.837   0.278   6.560  0.7283  1.2845  1.7732
  112OSM    C3F11582   3.943   0.239   6.371  0.1509 -0.7578 -0.3030
  112OSM    H3F11583   3.843   0.261   6.328 -0.6455  1.8845  2.5736
  112OSM    H3G11584   3.942   0.130   6.396 -0.5724 -0.6314  0.2718
  112OSM    C4F11585   4.062   0.285   6.289 -0.0562 -0.3730 -0.6192
  112OSM    H4F11586   4.156   0.265   6.345  0.2928 -1.8313 -1.6679
  112OSM    H4G11587   4.058   0.396   6.283  0.8666 -0.3607 -1.3558
  112OSM    C5F11588   4.061   0.233   6.141 -0.1419  0.2819  0.1674
  112OSM    H5F11589   3.962   0.253   6.094 -0.5811 -0.8708  0.5451
  112OSM    H5G11590   4.083   0.124   6.139  2.4897  0.7679 -1.1306
  112OSM    C6F11591   4.158   0.309   6.053  0.4516 -0.3017  0.1751
  112OSM    H6F11592   4.261   0.292   6.091  0.3902 -1.4157 -0.0971
  112OSM    H6G11593   4.140   0.418   6.057 -1.4714 -0.5165 -1.0073
  112OSM    C7F11594   4.151   0.268   5.898 -0.2943 -0.1921 -0.1657
  112OSM    H7F11595   4.046   0.289   5.869 -1.1865 -0.1375  2.7581
  112OSM    H7G11596   4.167   0.158   5.900  0.5278 -0.0819 -0.1960
  112OSM    C8F11597   4.253   0.338   5.808  0.2987 -0.8808  0.0618
  112OSM    H8F11598   4.351   0.330   5.859  0.3197  1.6785  0.5837
  112OSM    H8G11599   4.238   0.448   5.807 -0.9373 -0.9860  1.6589
  112OSM    C9F11600   4.255   0.275   5.666  0.3305 -0.0240 -0.7338
  112OSM    H9F11601   4.299   0.174   5.668  0.6896  0.1427  1.0253
  112OSM   C10F11602   4.224   0.333   5.549  0.2082  0.1082 -0.0875
  112OSM   H10F11603   4.218   0.277   5.455 -2.0586 -1.1953  0.7434
  112OSM   C11F11604   4.168   0.476   5.535 -0.2830 -0.1349  0.0317
  112OSM   H11F11605   4.221   0.548   5.602  2.7947 -3.5476  1.6555
  112OSM   H11G11606   4.060   0.462   5.558 -0.2440 -1.2694 -0.3987
  112OSM   C12F11607   4.182   0.532   5.392  0.8640 -1.1932 -0.2962
  112OSM   H12F11608   4.134   0.456   5.326 -0.2776 -1.6988  1.0628
  112OSM   H12G11609   4.289   0.541   5.365  1.3320  0.8927  1.9155
  112OSM   C13F11610   4.104   0.666   5.377 -0.4999 -0.3614  0.3679
  112OSM   H13F11611   4.165   0.747   5.423 -2.4968  1.6216 -0.2871
  112OSM   H13G11612   4.007   0.662   5.433 -1.8365 -0.9781 -1.8776
  112OSM   C14F11613   4.072   0.708   5.231 -0.0806  0.0137 -0.0406
  112OSM   H14F11614   4.001   0.794   5.229 -1.1010 -0.8202 -2.0570
  112OSM   H14G11615   4.037   0.622   5.170  0.9508  0.0673 -0.7330
  112OSM   C15F11616   4.202   0.764   5.165  0.2954 -0.0429 -0.3156
  112OSM   H15F11617   4.295   0.712   5.196  1.2706  0.8529 -1.6574
  112OSM   H15G11618   4.211   0.866   5.210 -0.1134  0.4198 -1.2518
  112OSM   C16F11619   4.192   0.755   5.017 -0.0635 -0.9757 -0.6630
  112OSM   H16F11620   4.114   0.833   5.004  0.5042 -0.0852  0.9633
  112OSM   H16G11621   4.142   0.659   4.991 -1.3186 -0.5952  0.2490
  112OSM   C17F11622   4.312   0.793   4.929  0.2185  0.1231  0.4288
  112OSM   H17F11623   4.280   0.793   4.823 -0.6763  0.8989  0.6819
  112OSM   H17G11624   4.390   0.718   4.953  0.2748  0.2193  0.5512
  112OSM   C18F11625   4.379   0.925   4.957  0.4530  0.7082 -0.0947
  112OSM   H18F11626   4.306   1.006   4.978 -0.1968  0.0124  0.3744
  112OSM   H18G11627   4.451   0.963   4.882 -0.3799  0.9294 -0.7940
  112OSM   H18H11628   4.439   0.897   5.047 -2.1301  0.3418  1.6288
  113OSM      N11629   2.302   1.473   7.696 -0.0700  0.6253 -0.3105
  113OSM    C1511630   2.321   1.556   7.818 -0.1058 -0.3215 -0.4952
  113OSM   H15A11631   2.288   1.503   7.907  1.7607 -0.6705  0.0516
  113OSM   H15B11632   2.269   1.650   7.809 -1.1103 -0.6620  1.3238
  113OSM   H15C11633   2.426   1.572   7.837 -0.7239  0.7178  2.6848
  113OSM    C1411634   2.373   1.544   7.575  0.3158  0.1155 -0.6277
  113OSM   H14A11635   2.480   1.554   7.587  0.1978 -0.3061  0.9704
  113OSM   H14B11636   2.332   1.643   7.566  1.4025  0.5984 -0.5082
  113OSM   H14C11637   2.355   1.486   7.486 -2.2860  0.3298 -0.3142
  113OSM    C1311638   2.380   1.347   7.724 -0.0713 -0.3691  0.7731
  113OSM   H13A11639   2.336   1.288   7.804 -2.1807 -1.9393 -1.4036
  113OSM   H13B11640   2.480   1.379   7.750  0.4324 -1.6001  0.4060
  113OSM   H13C11641   2.383   1.292   7.631 -0.7227  1.4675 -0.3867
  113OSM    C1211642   2.160   1.446   7.663 -0.4751 -0.0761 -0.7992
  113OSM   H12A11643   2.086   1.516   7.699  0.7802  0.5018  0.7194
  113OSM   H12B11644   2.133   1.354   7.712  1.0000 -0.2043 -0.1812
  113OSM    C1111645   2.129   1.414   7.513 -0.9661 -0.0120  0.2023
  113OSM   H11A11646   2.151   1.507   7.457 -0.1638  0.3295  1.0593
  113OSM   H11B11647   2.021   1.390   7.498 -0.9813 -0.3380  0.8012
  113OSM      P11648   2.146   1.195   7.373 -0.0656  0.1091 -0.2131
  113OSM    O1311649   2.235   1.164   7.263 -0.3719 -0.1168  0.0094
  113OSM    O1411650   2.113   1.082   7.470 -0.1769 -0.1554 -0.2884
  113OSM    O1111651   2.017   1.246   7.306 -0.2925  0.4241 -0.3623
  113OSM    O1211652   2.209   1.312   7.459 -0.0336 -0.2251  0.1258
  113OSM    C1S11653   2.014   1.361   7.225  0.0366 -0.1537  0.2042
  113OSM    H1S11654   2.107   1.420   7.233 -1.2135  1.7344  2.0407
  113OSM    H1T11655   1.928   1.427   7.249  1.0034  1.5787 -0.9577
  113OSM     NF11656   1.944   1.456   7.001 -0.2973  0.1494 -0.5421
  113OSM    HNF11657   1.851   1.489   6.988 -0.5138  0.2495  1.0900
  113OSM    C2S11658   1.972   1.335   7.073 -0.2805  0.3021  0.2873
  113OSM    H2S11659   2.060   1.282   7.029 -1.4582 -2.7979  1.3975
  113OSM    C3S11660   1.860   1.233   7.061 -1.2088  0.1491  0.1283
  113OSM    H3S11661   1.772   1.266   7.119 -2.3259 -0.5526 -1.1024
  113OSM     O311662   1.898   1.102   7.109 -0.0828 -0.0811  0.3005
  113OSM    HO311663   1.982   1.115   7.154 -0.3844 -0.1617  0.9068
  113OSM    C4S11664   1.814   1.213   6.913 -0.2835 -0.5656 -0.3528
  113OSM    H4S11665   1.724   1.271   6.890 -0.4630 -0.6300  0.1596
  113OSM    C5S11666   1.871   1.144   6.813  0.4880  0.1296 -0.7190
  113OSM    H5S11667   1.959   1.078   6.819  0.3840  0.0146 -0.3851
  113OSM    C6S11668   1.816   1.146   6.672 -0.2306  0.7380 -0.1607
  113OSM    H6S11669   1.815   1.040   6.640  4.2784  0.4322  0.0233
  113OSM    H6T11670   1.896   1.188   6.608 -0.6707 -2.0112 -2.7428
  113OSM    C7S11671   1.673   1.211   6.652 -0.3251  0.4225  0.8769
  113OSM    H7S11672   1.686   1.320   6.664  2.4117  0.1313  1.1968
  113OSM    H7T11673   1.597   1.170   6.723 -1.0977 -1.0986 -0.7532
  113OSM    C8S11674   1.612   1.187   6.511  0.4907  0.5906 -0.6507
  113OSM    H8S11675   1.601   1.078   6.493 -2.0699  0.6164  0.3585
  113OSM    H8T11676   1.686   1.225   6.438 -0.8532 -0.4819 -2.6905
  113OSM    C9S11677   1.470   1.243   6.495  0.4611  0.1668 -0.0323
  113OSM    H9S11678   1.469   1.353   6.506  0.6249  0.0596  1.1527
  113OSM    H9T11679   1.419   1.203   6.585 -0.7698  1.3655 -0.1582
  113OSM   C10S11680   1.387   1.211   6.376 -0.0486  0.9462 -0.0400
  113OSM   H10S11681   1.294   1.271   6.379 -1.8288 -1.5063  4.3115
  113OSM   H10T11682   1.374   1.101   6.364  1.9009  0.8115 -1.3772
  113OSM   C11S11683   1.445   1.259   6.240 -0.2160  0.2342  0.0465
  113OSM   H11S11684   1.555   1.253   6.224 -0.3419 -0.4298 -0.6327
  113OSM   H11T11685   1.416   1.365   6.224  2.4102  0.8521 -1.1003
  113OSM   C12S11686   1.377   1.188   6.124 -0.5390  0.3870 -0.0328
  113OSM   H12S11687   1.270   1.220   6.123 -0.9391 -0.6672  2.2476
  113OSM   H12T11688   1.389   1.078   6.126  0.5140  0.4187 -2.3191
  113OSM   C13S11689   1.434   1.216   5.985  0.2188 -0.5543  0.2921
  113OSM   H13S11690   1.370   1.186   5.900 -0.7892  0.5209  0.6488
  113OSM   H13T11691   1.533   1.166   5.975  1.7949  2.1384  1.5348
  113OSM   C14S11692   1.455   1.372   5.953 -0.3852 -0.3799  0.9053
  113OSM   H14S11693   1.528   1.411   6.027  1.8140  0.3921 -1.5115
  113OSM   H14T11694   1.358   1.426   5.963 -1.9235 -3.0674  1.3001
  113OSM   C15S11695   1.502   1.408   5.810  0.5447 -0.4334 -0.5839
  113OSM   H15S11696   1.592   1.350   5.779  0.2156 -1.1808 -0.1594
  113OSM   H15T11697   1.536   1.514   5.809 -1.2660  0.2614  1.9135
  113OSM   C16S11698   1.384   1.385   5.713  0.0891 -0.4060 -0.5733
  113OSM   H16S11699   1.297   1.436   5.760  0.1666 -1.5661  0.9093
  113OSM   H16T11700   1.371   1.275   5.703  0.8630 -0.4056 -1.7904
  113OSM   C17S11701   1.414   1.442   5.570  0.5270 -0.4485 -0.1081
  113OSM   H17S11702   1.427   1.552   5.577  3.2187 -0.6492 -0.6982
  113OSM   H17T11703   1.323   1.416   5.511 -0.4296  2.6035 -0.1711
  113OSM   C18S11704   1.535   1.398   5.498 -0.0623  0.0495  0.1996
  113OSM   H18S11705   1.544   1.458   5.404 -1.4368 -0.5453 -0.3354
  113OSM   H18T11706   1.520   1.290   5.475  0.7325 -0.3042  1.2675
  113OSM   H18U11707   1.626   1.410   5.560 -0.8443  0.0606  1.3728
  113OSM    C1F11708   2.041   1.548   6.970  0.2694  0.6694 -0.3961
  113OSM     OF11709   2.150   1.537   7.019  0.0221  1.3371 -0.1234
  113OSM    C2F11710   1.999   1.662   6.881 -0.0762 -0.1547 -0.4854
  113OSM    H2F11711   2.086   1.684   6.815 -1.6531 -0.2929 -2.7207
  113OSM    H2G11712   1.991   1.755   6.940 -1.0662 -1.2706  1.2355
  113OSM    C3F11713   1.870   1.628   6.801  0.1414  0.4957  0.1287
  113OSM    H3F11714   1.781   1.641   6.866 -1.3459  2.3491 -2.1293
  113OSM    H3G11715   1.884   1.529   6.752  0.0991 -0.1779  1.4286
  113OSM    C4F11716   1.853   1.730   6.684 -0.5497 -0.2965 -0.2502
  113OSM    H4F11717   1.946   1.733   6.624 -1.1804 -0.3982 -1.2548
  113OSM    H4G11718   1.839   1.831   6.729  0.9490 -0.2364  0.1337
  113OSM    C5F11719   1.725   1.699   6.605 -0.4378 -0.2621 -0.6005
  113OSM    H5F11720   1.635   1.714   6.668 -0.3474  1.6325 -0.8560
  113OSM    H5G11721   1.737   1.597   6.563 -2.6584 -1.5115  1.5018
  113OSM    C6F11722   1.708   1.790   6.477  0.4986  0.3887  0.7633
  113OSM    H6F11723   1.801   1.778   6.417 -0.2541 -1.6252 -0.0788
  113OSM    H6G11724   1.693   1.893   6.517  1.3475  0.2089  1.5869
  113OSM    C7F11725   1.584   1.739   6.393 -0.0357 -0.0380  0.8008
  113OSM    H7F11726   1.487   1.732   6.447 -1.0544 -1.9292 -1.1593
  113OSM    H7G11727   1.605   1.633   6.369  1.4678 -0.1087  2.2206
  113OSM    C8F11728   1.557   1.817   6.263  0.3273 -0.1321 -0.4022
  113OSM    H8F11729   1.536   1.921   6.296  1.7174  0.2824 -0.7588
  113OSM    H8G11730   1.465   1.770   6.222 -0.1046 -0.4479  0.9025
  113OSM    C9F11731   1.665   1.807   6.156 -0.3151 -0.2571  1.0081
  113OSM    H9F11732   1.769   1.806   6.193  0.3642  2.1034 -0.5719
  113OSM   C10F11733   1.641   1.804   6.023 -0.0293  0.3151  0.1834
  113OSM   H10F11734   1.724   1.809   5.951 -0.8318  1.8327 -0.6841
  113OSM   C11F11735   1.500   1.802   5.964  0.3900  0.7064  0.4413
  113OSM   H11F11736   1.421   1.819   6.040  1.8220  0.1597  2.1217
  113OSM   H11G11737   1.480   1.702   5.920 -0.3973  0.9546  0.2285
  113OSM   C12F11738   1.473   1.915   5.860 -0.1447 -0.2145 -0.6740
  113OSM   H12F11739   1.516   2.008   5.905 -2.8105  0.8511 -0.0940
  113OSM   H12G11740   1.367   1.926   5.828  0.5305  0.2270 -2.9431
  113OSM   C13F11741   1.550   1.903   5.732  0.8615 -0.3308  0.4617
  113OSM   H13F11742   1.517   1.803   5.695  1.4717 -0.5886  0.5985
  113OSM   H13G11743   1.660   1.900   5.743  0.6723 -1.0432  2.7609
  113OSM   C14F11744   1.511   2.008   5.623  0.2137 -0.6394 -0.3949
  113OSM   H14F11745   1.572   2.098   5.642 -1.7235  0.5200  0.6399
  113OSM   H14G11746   1.406   2.044   5.635  0.3885 -0.6244  1.1975
  113OSM   C15F11747   1.518   1.933   5.480  0.3140 -0.0665 -0.1839
  113OSM   H15F11748   1.605   1.863   5.486  1.7693  1.7873  2.5574
  113OSM   H15G11749   1.527   2.017   5.408  1.8469  2.4180  2.6799
  113OSM   C16F11750   1.402   1.842   5.440  0.7995 -0.3341  0.5688
  113OSM   H16F11751   1.324   1.914   5.407  2.2057  0.4304 -1.2069
  113OSM   H16G11752   1.364   1.796   5.534 -0.3009  0.0524  0.3305
  113OSM   C17F11753   1.420   1.748   5.321 -0.5779 -0.0321 -0.6815
  113OSM   H17F11754   1.499   1.678   5.356 -0.7964  0.2337  0.3718
  113OSM   H17G11755   1.460   1.811   5.239 -0.4070 -0.8294 -1.2185
  113OSM   C18F11756   1.299   1.669   5.277 -0.4699 -0.2296  0.1227
  113OSM   H18F11757   1.328   1.593   5.202 -2.2680  0.9270 -1.8480
  113OSM   H18G11758   1.226   1.734   5.226 -0.5449 -0.6564 -0.3231
  113OSM   H18H11759   1.255   1.618   5.366  0.5363 -1.9072 -0.2906
  114OSM      N11760   1.182   6.234   7.450  0.1102  0.2171  0.8782
  114OSM    C1511761   1.142   6.366   7.501 -0.4436  0.3449  0.1597
  114OSM   H15A11762   1.073   6.408   7.430 -0.2782 -0.8376 -0.7241
  114OSM   H15B11763   1.228   6.428   7.523 -0.0021 -0.4038  0.5749
  114OSM   H15C11764   1.088   6.356   7.594  0.8889 -0.8057  0.8401
  114OSM    C1411765   1.290   6.187   7.528 -0.1697  0.5996  0.6656
  114OSM   H14A11766   1.266   6.184   7.634 -2.0802 -1.3018  0.2563
  114OSM   H14B11767   1.373   6.246   7.493 -1.8246  1.8678 -1.3339
  114OSM   H14C11768   1.308   6.084   7.503  0.4900  0.9579 -0.3659
  114OSM    C1311769   1.066   6.140   7.468 -0.2875  0.2173 -0.7181
  114OSM   H13A11770   1.087   6.037   7.444 -0.5111 -1.5255  5.1194
  114OSM   H13B11771   0.975   6.178   7.424 -1.4782  1.0712  2.2815
  114OSM   H13C11772   1.056   6.128   7.575  3.8403  0.4387 -0.1436
  114OSM    C1211773   1.229   6.260   7.310  0.3134  0.7946  0.4696
  114OSM   H12A11774   1.278   6.172   7.271 -1.6675  0.5733 -1.7990
  114OSM   H12B11775   1.306   6.335   7.306  0.0906  0.9791 -1.2188
  114OSM    C1111776   1.126   6.273   7.199  0.7469  0.2521 -0.8451
  114OSM   H11A11777   1.061   6.183   7.206  0.7612  0.3885  3.4976
  114OSM   H11B11778   1.165   6.263   7.095 -0.8306  0.1241 -1.4495
  114OSM      P11779   1.103   6.529   7.171  0.2354 -0.1692 -0.1972
  114OSM    O1311780   1.041   6.628   7.260  0.3163 -0.1476  0.2412
  114OSM    O1411781   1.251   6.514   7.171  0.6396 -0.6398 -0.7481
  114OSM    O1111782   1.045   6.534   7.022  0.3699 -0.2343 -0.5444
  114OSM    O1211783   1.046   6.390   7.217 -0.0060  0.1700  0.2535
  114OSM    C1S11784   1.052   6.651   6.940 -0.0016 -0.2995 -0.2797
  114OSM    H1S11785   1.155   6.671   6.905 -1.0072  3.1044 -1.7027
  114OSM    H1T11786   1.009   6.741   6.989  0.0343 -0.8202  0.7298
  114OSM     NF11787   0.980   6.767   6.732 -0.4437 -0.3639 -0.0965
  114OSM    HNF11788   0.900   6.825   6.721 -0.2181 -0.5200 -3.5878
  114OSM    C2S11789   0.974   6.649   6.805 -0.2380  0.9134 -0.0472
  114OSM    H2S11790   1.021   6.572   6.740 -2.1590  0.2222 -0.6730
  114OSM    C3S11791   0.826   6.600   6.829  0.5556  0.4242  0.7946
  114OSM    H3S11792   0.779   6.679   6.892  0.1353  0.4567  0.4442
  114OSM     O311793   0.812   6.489   6.911  0.6906  0.5655  0.2969
  114OSM    HO311794   0.897   6.484   6.956  0.3656  0.9044  0.9722
  114OSM    C4S11795   0.742   6.579   6.708 -0.4813 -0.6064  0.0331
  114OSM    H4S11796   0.790   6.497   6.654 -1.0261 -1.6219  1.0403
  114OSM    C5S11797   0.635   6.641   6.651  0.1862  0.1010 -0.0336
  114OSM    H5S11798   0.592   6.722   6.712  1.5097 -0.0549  1.1583
  114OSM    C6S11799   0.568   6.595   6.527 -0.2765  0.7770 -0.7379
  114OSM    H6S11800   0.457   6.587   6.528 -0.1870 -1.5924  1.9064
  114OSM    H6T11801   0.601   6.492   6.504 -0.6821  0.6324 -0.6918
  114OSM    C7S11802   0.613   6.688   6.416 -0.2304  0.4819 -0.6648
  114OSM    H7S11803   0.723   6.688   6.399 -0.2215  2.0126 -0.7003
  114OSM    H7T11804   0.586   6.795   6.431  1.9356  1.1136 -0.8718
  114OSM    C8S11805   0.544   6.637   6.288 -0.1583  0.0918 -0.4804
  114OSM    H8S11806   0.434   6.647   6.304 -0.3933 -2.1508 -0.4128
  114OSM    H8T11807   0.568   6.529   6.279  2.6213  0.6140  0.0577
  114OSM    C9S11808   0.586   6.711   6.161  0.4542 -0.2702  0.0631
  114OSM    H9S11809   0.696   6.705   6.148  0.5301  2.7684 -1.5713
  114OSM    H9T11810   0.569   6.820   6.168  2.6855  0.1037  0.4633
  114OSM   C10S11811   0.522   6.658   6.039  0.5556 -0.8499  0.3830
  114OSM   H10S11812   0.413   6.672   6.026  0.5571  0.6340  1.7423
  114OSM   H10T11813   0.535   6.548   6.032  0.8220 -1.0208  2.8301
  114OSM   C11S11814   0.580   6.715   5.909  0.4374  0.0739 -0.4404
  114OSM   H11S11815   0.687   6.684   5.911 -0.2269 -2.4476  0.6828
  114OSM   H11T11816   0.571   6.825   5.902 -0.1084  0.1725  1.4760
  114OSM   C12S11817   0.509   6.662   5.787  0.1153  0.8788 -0.1871
  114OSM   H12S11818   0.403   6.695   5.776  0.1364  0.7330 -0.8947
  114OSM   H12T11819   0.514   6.551   5.789  0.7110  0.8916 -0.6213
  114OSM   C13S11820   0.572   6.714   5.651 -0.7378  0.1984  0.2842
  114OSM   H13S11821   0.671   6.667   5.631 -1.9409 -2.2102 -0.4519
  114OSM   H13T11822   0.583   6.823   5.664  0.5575  0.1672 -0.3926
  114OSM   C14S11823   0.497   6.679   5.522  0.4323 -0.1981 -0.2893
  114OSM   H14S11824   0.390   6.705   5.538  0.5961  0.9423 -0.8848
  114OSM   H14T11825   0.509   6.572   5.495  1.0339 -0.0660 -0.5575
  114OSM   C15S11826   0.550   6.782   5.411  0.4248  0.9851  0.4082
  114OSM   H15S11827   0.646   6.737   5.379 -0.5975 -0.7012 -0.4743
  114OSM   H15T11828   0.576   6.883   5.450 -0.7702  2.1296 -1.5658
  114OSM   C16S11829   0.441   6.772   5.301 -0.0440 -0.8817  0.6045
  114OSM   H16S11830   0.352   6.820   5.347 -0.0832 -0.7216  0.3625
  114OSM   H16T11831   0.404   6.667   5.294 -0.6360 -0.6595  0.3221
  114OSM   C17S11832   0.468   6.835   5.160  0.0185  0.0545 -0.8136
  114OSM   H17S11833   0.563   6.783   5.138  1.3109  0.5620  2.8725
  114OSM   H17T11834   0.496   6.942   5.176  2.4629 -0.5264 -0.8501
  114OSM   C18S11835   0.364   6.810   5.050 -0.3392 -0.0090 -0.6719
  114OSM   H18S11836   0.410   6.841   4.953 -0.2882 -0.3372 -0.7538
  114OSM   H18T11837   0.270   6.866   5.070  0.4543  1.8231 -1.7627
  114OSM   H18U11838   0.336   6.703   5.047  0.0371 -0.0996 -1.0088
  114OSM    C1F11839   1.095   6.828   6.693  0.0330  0.7022  0.0915
  114OSM     OF11840   1.195   6.761   6.692  0.3144  0.5734  0.6377
  114OSM    C2F11841   1.093   6.963   6.639  0.4173  0.2469 -0.1893
  114OSM    H2F11842   1.117   7.031   6.723 -0.7287 -0.8212  1.0487
  114OSM    H2G11843   0.991   6.980   6.597 -0.2290 -1.7936  0.4242
  114OSM    C3F11844   1.194   6.998   6.521  0.1779  1.1745  0.6080
  114OSM    H3F11845   1.300   6.971   6.544  0.3203 -1.8929 -2.6909
  114OSM    H3G11846   1.186   7.108   6.511 -0.8649  1.1891  1.4148
  114OSM    C4F11847   1.160   6.940   6.384 -0.4213  0.2158 -0.0604
  114OSM    H4F11848   1.173   6.830   6.387  0.9217  0.2772 -1.7440
  114OSM    H4G11849   1.237   6.972   6.310  1.7548 -2.4258  0.9109
  114OSM    C5F11850   1.019   6.969   6.332 -0.1320 -0.4821 -0.2921
  114OSM    H5F11851   0.999   7.077   6.317  3.1732  0.4123  0.9351
  114OSM    H5G11852   0.947   6.930   6.408  2.4939 -0.0769  2.6063
  114OSM    C6F11853   0.996   6.892   6.206  0.4583  0.0666  0.0138
  114OSM    H6F11854   0.885   6.904   6.204  0.4940  0.6739  1.2099
  114OSM    H6G11855   1.008   6.783   6.225 -1.2215 -0.5290 -1.9182
  114OSM    C7F11856   1.076   6.931   6.076  0.2434 -0.1045 -0.0150
  114OSM    H7F11857   1.185   6.917   6.098  0.4490 -0.5020 -1.2198
  114OSM    H7G11858   1.062   7.037   6.049 -0.6330 -0.2673 -0.2301
  114OSM    C8F11859   1.049   6.832   5.964  0.2801 -0.1880  0.0482
  114OSM    H8F11860   1.060   6.729   6.005 -0.2834 -1.1040 -1.9559
  114OSM    H8G11861   1.124   6.834   5.882 -1.6764  2.0090 -1.8454
  114OSM    C9F11862   0.913   6.851   5.895 -0.7673 -0.4207 -0.3629
  114OSM    H9F11863   0.827   6.851   5.964 -0.8255 -1.2946 -0.4223
  114OSM   C10F11864   0.888   6.886   5.770  0.6237 -0.1752 -0.3160
  114OSM   H10F11865   0.781   6.896   5.748  0.5828 -0.7544 -0.3983
  114OSM   C11F11866   0.991   6.894   5.656 -0.4660  0.1141  0.7898
  114OSM   H11F11867   0.966   6.818   5.579  1.8947 -1.2193  1.2580
  114OSM   H11G11868   1.095   6.880   5.690 -0.2746  1.7873  0.9570
  114OSM   C12F11869   0.989   7.023   5.570 -0.3409 -0.3416 -0.4061
  114OSM   H12F11870   1.001   7.103   5.646 -1.9516 -1.0715  0.6676
  114OSM   H12G11871   0.886   7.030   5.528 -1.2017 -1.6958  1.3421
  114OSM   C13F11872   1.103   7.020   5.470 -0.2349  0.2303  0.3303
  114OSM   H13F11873   1.102   6.922   5.419  2.0977 -0.0909  0.8203
  114OSM   H13G11874   1.199   7.028   5.526  0.0441 -1.5147  0.1557
  114OSM   C14F11875   1.087   7.124   5.358  0.1972  0.0354  0.2153
  114OSM   H14F11876   1.064   7.227   5.393  0.6766  0.4045 -0.5379
  114OSM   H14G11877   0.997   7.089   5.302  0.4648 -0.4318  0.0713
  114OSM   C15F11878   1.203   7.110   5.265 -0.0315  0.0830 -0.0364
  114OSM   H15F11879   1.200   7.008   5.223  2.7601 -0.0856  0.0194
  114OSM   H15G11880   1.299   7.112   5.320 -1.0167 -1.0913  1.8386
  114OSM   C16F11881   1.207   7.200   5.139 -0.9875 -0.7254 -0.3110
  114OSM   H16F11882   1.307   7.218   5.094 -1.1406 -0.1954 -0.4546
  114OSM   H16G11883   1.175   7.298   5.181  1.2502 -0.2640  0.4849
  114OSM   C17F11884   1.108   7.185   5.020  0.1548 -0.7175  0.6472
  114OSM   H17F11885   1.013   7.175   5.077 -1.1165 -3.6436 -1.7084
  114OSM   H17G11886   1.128   7.093   4.961 -1.6144 -0.0266 -1.1426
  114OSM   C18F11887   1.094   7.308   4.921  0.4409  0.4428  0.1825
  114OSM   H18F11888   1.050   7.395   4.974 -0.5813  0.3794 -0.5333
  114OSM   H18G11889   1.026   7.278   4.838  2.3896 -2.3368 -0.5719
  114OSM   H18H11890   1.195   7.336   4.886  1.2939  0.0170  2.1667
  115OSM      N11891   6.011   1.844   7.702  0.6991  0.4697 -0.0389
  115OSM    C1511892   5.978   1.747   7.591 -0.4992 -0.0018  0.2408
  115OSM   H15A11893   5.983   1.643   7.622  1.4529 -0.3739 -1.0929
  115OSM   H15B11894   6.048   1.765   7.511 -0.5204 -0.2911  0.1552
  115OSM   H15C11895   5.884   1.772   7.544 -0.9643 -1.2535  0.4632
  115OSM    C1411896   5.890   1.845   7.790  0.3518 -0.2316 -0.2393
  115OSM   H14A11897   5.880   1.746   7.830  3.7784 -0.6463 -0.0608
  115OSM   H14B11898   5.810   1.881   7.727  0.7003 -1.2804 -1.3061
  115OSM   H14C11899   5.909   1.912   7.873  0.9619  0.3819 -0.8482
  115OSM    C1311900   6.134   1.792   7.778  0.9394  0.5750 -0.0014
  115OSM   H13A11901   6.209   1.781   7.701 -0.4597 -1.3529 -1.1562
  115OSM   H13B11902   6.122   1.693   7.819  2.1373  1.1483  1.8650
  115OSM   H13C11903   6.168   1.854   7.861 -1.0196 -0.4599  1.6637
  115OSM    C1211904   6.034   1.986   7.649  0.1629  0.3921  0.5072
  115OSM   H12A11905   6.027   2.053   7.732 -2.4324  1.9382 -0.8393
  115OSM   H12B11906   5.953   2.017   7.584  1.6317  0.3555 -1.4219
  115OSM    C1111907   6.158   2.028   7.568 -0.1415  0.3816  0.3490
  115OSM   H11A11908   6.256   2.000   7.613 -0.9886 -2.8830  0.4519
  115OSM   H11B11909   6.150   2.139   7.567  0.3999  0.4224 -0.4336
  115OSM      P11910   6.079   2.018   7.311  0.3703 -0.1262 -0.0754
  115OSM    O1311911   6.102   1.910   7.206 -0.3121  0.7148 -0.4896
  115OSM    O1411912   5.942   2.061   7.337 -0.6083 -0.0463 -0.0022
  115OSM    O1111913   6.165   2.137   7.263 -0.6199 -0.7014 -0.3644
  115OSM    O1211914   6.149   1.961   7.442  0.0998  0.0214 -0.2199
  115OSM    C1S11915   6.301   2.121   7.237 -0.6247  0.1225 -0.2104
  115OSM    H1S11916   6.350   2.044   7.301 -0.9586  1.1729  1.3616
  115OSM    H1T11917   6.359   2.213   7.261 -3.1819  2.0952 -1.1762
  115OSM     NF11918   6.487   2.060   7.080 -0.3008 -0.0762  0.5019
  115OSM    HNF11919   6.563   2.117   7.050  1.1267 -1.7550  0.7706
  115OSM    C2S11920   6.340   2.108   7.087  0.1476 -0.4479  0.2037
  115OSM    H2S11921   6.272   2.032   7.042 -2.0037  1.4418  0.0838
  115OSM    C3S11922   6.289   2.239   7.016 -0.0382 -0.0943 -0.4335
  115OSM    H3S11923   6.338   2.325   7.068  1.4648 -1.8524  1.2222
  115OSM     O311924   6.146   2.260   7.026  0.3419 -0.4450  0.0885
  115OSM    HO311925   6.125   2.215   7.108  1.0740  1.3903  1.3525
  115OSM    C4S11926   6.321   2.240   6.876  0.2902  0.0974  0.0529
  115OSM    H4S11927   6.320   2.136   6.839  0.3130  0.1249 -0.0235
  115OSM    C5S11928   6.374   2.334   6.790  0.4532  0.0820 -0.1273
  115OSM    H5S11929   6.411   2.431   6.825  0.7174 -0.0045 -0.1694
  115OSM    C6S11930   6.401   2.303   6.644 -0.5480 -0.5771  0.0188
  115OSM    H6S11931   6.358   2.208   6.607 -0.2985 -1.5073  1.9572
  115OSM    H6T11932   6.511   2.298   6.628 -0.6590  0.2904 -1.1060
  115OSM    C7S11933   6.356   2.419   6.546  0.0913  0.3928  0.0352
  115OSM    H7S11934   6.384   2.517   6.589  1.2575 -0.2629  0.8489
  115OSM    H7T11935   6.246   2.412   6.540  0.0796  1.3910 -1.5014
  115OSM    C8S11936   6.415   2.389   6.408  0.1535 -0.4918  0.3767
  115OSM    H8S11937   6.360   2.296   6.383  0.2769 -0.6903  0.8278
  115OSM    H8T11938   6.523   2.363   6.408  0.3714  0.3016 -1.4011
  115OSM    C9S11939   6.388   2.503   6.303 -0.0464  0.2269  0.0578
  115OSM    H9S11940   6.463   2.583   6.324  0.8500 -1.1643  2.5882
  115OSM    H9T11941   6.287   2.540   6.332 -0.0109 -0.8803  1.7303
  115OSM   C10S11942   6.412   2.453   6.159 -0.3563  0.1594 -1.4328
  115OSM   H10S11943   6.321   2.397   6.129  0.4462 -0.3482 -3.0532
  115OSM   H10T11944   6.505   2.393   6.162 -0.4777  0.0013  1.0648
  115OSM   C11S11945   6.446   2.566   6.062 -0.5981 -0.8825  0.0394
  115OSM   H11S11946   6.520   2.639   6.099  1.2592 -2.3105 -0.6791
  115OSM   H11T11947   6.352   2.623   6.050  0.6485  1.7937  2.0820
  115OSM   C12S11948   6.477   2.512   5.923 -0.0344 -0.5369  0.2807
  115OSM   H12S11949   6.389   2.453   5.889  0.6122 -0.3989 -1.8085
  115OSM   H12T11950   6.569   2.450   5.924 -1.6555 -3.1255 -0.7168
  115OSM   C13S11951   6.501   2.630   5.819  0.7421 -0.2794 -0.4019
  115OSM   H13S11952   6.584   2.693   5.858 -0.4071 -1.1533  3.9215
  115OSM   H13T11953   6.407   2.690   5.816 -1.5870 -3.6104  0.0388
  115OSM   C14S11954   6.537   2.594   5.677 -0.2109 -0.1895  0.1146
  115OSM   H14S11955   6.483   2.497   5.671  1.0186 -0.8447 -0.6780
  115OSM   H14T11956   6.646   2.576   5.675 -0.1854 -0.0138 -1.1103
  115OSM   C15S11957   6.500   2.697   5.567 -0.3242 -1.3738  0.0118
  115OSM   H15S11958   6.544   2.790   5.607 -3.9138  0.8759 -0.8090
  115OSM   H15T11959   6.393   2.724   5.554 -0.3872 -1.1611  0.9143
  115OSM   C16S11960   6.559   2.664   5.431 -0.3745  0.0020 -0.7300
  115OSM   H16S11961   6.515   2.567   5.397 -0.3512 -0.0112 -0.7229
  115OSM   H16T11962   6.669   2.663   5.445 -0.3524 -1.2394 -0.9000
  115OSM   C17S11963   6.536   2.771   5.332 -0.3480  0.3783 -0.0688
  115OSM   H17S11964   6.549   2.859   5.398  1.6378 -0.8637  1.2715
  115OSM   H17T11965   6.434   2.765   5.288  0.4603 -2.0933 -1.8223
  115OSM   C18S11966   6.643   2.778   5.221  0.3024  0.0600 -0.2839
  115OSM   H18S11967   6.619   2.877   5.177 -0.1938  0.4918  0.8977
  115OSM   H18T11968   6.639   2.695   5.148 -2.5598  1.3515 -1.7720
  115OSM   H18U11969   6.741   2.773   5.272  0.2448 -0.5111 -0.2242
  115OSM    C1F11970   6.519   1.940   7.128  0.1219  0.1003  0.4476
  115OSM     OF11971   6.435   1.861   7.166 -0.9279  0.4843  0.4042
  115OSM    C2F11972   6.663   1.909   7.129 -0.5546  0.0786 -0.6438
  115OSM    H2F11973   6.706   1.944   7.226 -0.6982  2.4997 -1.3937
  115OSM    H2G11974   6.713   1.972   7.052  1.8952 -1.5554 -0.5232
  115OSM    C3F11975   6.688   1.758   7.111  0.2278  0.6108  0.4629
  115OSM    H3F11976   6.671   1.701   7.205  3.0595  0.9829  1.3222
  115OSM    H3G11977   6.798   1.747   7.095  0.0023 -0.7031 -0.3975
  115OSM    C4F11978   6.632   1.695   6.980  0.7560  0.2781  1.1279
  115OSM    H4F11979   6.523   1.717   6.970  1.1015  1.1757 -1.8551
  115OSM    H4G11980   6.650   1.586   6.982 -0.0327  0.0013 -1.8750
  115OSM    C5F11981   6.683   1.765   6.848 -0.3710 -1.0559 -0.5922
  115OSM    H5F11982   6.794   1.755   6.843 -0.1917 -1.7180  2.4917
  115OSM    H5G11983   6.658   1.872   6.861 -1.1638 -1.1658 -1.1367
  115OSM    C6F11984   6.613   1.712   6.720 -0.7253  0.5868  0.2439
  115OSM    H6F11985   6.508   1.742   6.740 -0.3386  1.4253  1.0742
  115OSM    H6G11986   6.594   1.603   6.713 -2.3182  0.7977  0.8202
  115OSM    C7F11987   6.665   1.775   6.596 -0.8160  0.4849 -0.5453
  115OSM    H7F11988   6.764   1.727   6.580 -0.9619  0.3049 -0.9246
  115OSM    H7G11989   6.680   1.883   6.617 -1.1771  0.2961  0.8322
  115OSM    C8F11990   6.580   1.763   6.468 -0.0139  0.7961  0.8714
  115OSM    H8F11991   6.570   1.653   6.454 -0.1576  0.6480  2.0520
  115OSM    H8G11992   6.649   1.789   6.385  0.5662 -1.7335  0.4518
  115OSM    C9F11993   6.450   1.844   6.487 -0.6030  0.1944 -0.1298
  115OSM    H9F11994   6.386   1.813   6.570  2.0227 -1.0365  1.5896
  115OSM   C10F11995   6.437   1.956   6.419 -0.6742 -0.3391 -0.5047
  115OSM   H10F11996   6.344   2.013   6.433 -1.1958 -0.8142 -1.8306
  115OSM   C11F11997   6.527   2.018   6.317  0.7475 -0.2828 -0.5216
  115OSM   H11F11998   6.626   1.968   6.306  0.0232 -2.3757  1.5730
  115OSM   H11G11999   6.553   2.119   6.357 -2.6527  1.5410 -2.5057
  115OSM   C12F12000   6.467   2.042   6.177  0.0362 -0.4455 -0.4099
  115OSM   H12F12001   6.530   2.123   6.134  0.5283 -1.3324 -1.3972
  115OSM   H12G12002   6.360   2.070   6.192  0.0910 -0.7949  0.7798
  115OSM   C13F12003   6.490   1.907   6.104  1.4044  1.0436 -0.1859
  115OSM   H13F12004   6.419   1.836   6.152 -0.3624 -0.2529 -4.2839
  115OSM   H13G12005   6.586   1.852   6.097 -0.7153 -2.7935 -4.8884
  115OSM   C14F12006   6.448   1.916   5.956 -0.1538  0.4549 -0.1754
  115OSM   H14F12007   6.342   1.887   5.966  0.3355 -0.7802  2.3013
  115OSM   H14G12008   6.496   1.833   5.900 -1.6189 -0.3216 -0.3292
  115OSM   C15F12009   6.481   2.044   5.878 -0.3121  0.1875  0.0546
  115OSM   H15F12010   6.589   2.052   5.851 -0.2087 -1.3168 -0.0483
  115OSM   H15G12011   6.460   2.129   5.947  3.2385  0.0576  1.5357
  115OSM   C16F12012   6.389   2.070   5.763  0.1589 -0.0612  0.2993
  115OSM   H16F12013   6.287   2.100   5.795  0.1116  0.8798 -0.6686
  115OSM   H16G12014   6.376   1.976   5.704 -0.0320  0.4621 -0.5024
  115OSM   C17F12015   6.436   2.189   5.674 -0.2260  0.3120 -0.0711
  115OSM   H17F12016   6.519   2.146   5.615 -1.3418  1.9043 -2.9801
  115OSM   H17G12017   6.482   2.266   5.739 -2.3041 -0.6654  2.7972
  115OSM   C18F12018   6.338   2.252   5.580 -0.5017 -0.6691 -0.0216
  115OSM   H18F12019   6.244   2.279   5.632  0.0896 -2.4077  2.0927
  115OSM   H18G12020   6.308   2.186   5.496  0.3221 -0.9723 -0.0910
  115OSM   H18H12021   6.383   2.343   5.534 -1.7805 -0.7177 -1.4417
  116OSM      N12022   1.931   0.659   7.303 -0.0436  0.5344  0.2753
  116OSM    C1512023   1.986   0.723   7.175  0.1231  0.4630 -0.6750
  116OSM   H15A12024   2.080   0.770   7.201 -0.2529  0.7224  0.2866
  116OSM   H15B12025   1.931   0.806   7.133  0.6909  0.4562 -1.4569
  116OSM   H15C12026   2.002   0.649   7.098  2.4456 -1.2670  1.2884
  116OSM    C1412027   2.016   0.545   7.343 -0.9917  0.2715  0.3586
  116OSM   H14A12028   1.983   0.495   7.433 -1.4497  0.4444  0.2886
  116OSM   H14B12029   2.120   0.571   7.361 -0.0511 -2.6588 -0.3477
  116OSM   H14C12030   2.029   0.468   7.269 -0.5780  0.3509  0.3415
  116OSM    C1312031   1.933   0.763   7.410  0.0382 -0.4390 -0.3092
  116OSM   H13A12032   1.877   0.854   7.393  0.2848 -0.0018  1.0613
  116OSM   H13B12033   2.028   0.810   7.433 -1.5403  3.2348 -0.6193
  116OSM   H13C12034   1.887   0.721   7.498 -0.8507  4.7254  2.0789
  116OSM    C1212035   1.788   0.614   7.265 -0.3559  0.0804  0.3229
  116OSM   H12A12036   1.730   0.704   7.259 -0.2228  0.1524  0.1259
  116OSM   H12B12037   1.740   0.559   7.345 -1.3481 -1.4461 -1.2461
  116OSM    C1112038   1.762   0.529   7.137 -0.0346  0.7638 -0.0733
  116OSM   H11A12039   1.776   0.586   7.043 -0.2697  1.1880  0.1459
  116OSM   H11B12040   1.655   0.500   7.146 -0.6028  2.3997 -1.2467
  116OSM      P12041   1.814   0.283   7.209  0.3626 -0.2511 -0.2089
  116OSM    O1312042   1.937   0.210   7.250  0.4068  0.7325  0.0038
  116OSM    O1412043   1.724   0.314   7.317 -0.1686 -0.0105  0.3841
  116OSM    O1112044   1.738   0.199   7.103 -0.4627  0.4253  0.1103
  116OSM    O1212045   1.852   0.410   7.127  0.5907  0.1487  0.1813
  116OSM    C1S12046   1.733   0.225   6.961 -0.5655 -0.1995 -0.6734
  116OSM    H1S12047   1.745   0.331   6.933  1.0156 -0.1473  0.0772
  116OSM    H1T12048   1.631   0.201   6.925 -0.6875 -1.2303  0.3012
  116OSM     NF12049   1.794   0.153   6.729 -0.0765  0.2037 -0.3778
  116OSM    HNF12050   1.744   0.080   6.682  0.2914  0.9056 -1.9112
  116OSM    C2S12051   1.832   0.139   6.869  0.3980  0.3844  0.2242
  116OSM    H2S12052   1.934   0.180   6.888  1.9292 -2.2898 -1.4962
  116OSM    C3S12053   1.838  -0.012   6.917  0.0102 -0.0836 -0.1345
  116OSM    H3S12054   1.742  -0.061   6.889  0.3179  0.0831 -1.5428
  116OSM     O312055   1.839  -0.035   7.054 -0.0285 -0.2891 -0.6562
  116OSM    HO312056   1.819   0.051   7.092  1.5096 -0.2067  0.0898
  116OSM    C4S12057   1.953  -0.074   6.849 -0.7084 -1.1631 -0.1753
  116OSM    H4S12058   2.047  -0.022   6.872  0.3479 -2.9449 -0.3070
  116OSM    C5S12059   1.956  -0.169   6.750 -0.4174 -0.3289 -0.0130
  116OSM    H5S12060   1.867  -0.203   6.696  0.5732 -2.9151 -0.1446
  116OSM    C6S12061   2.083  -0.210   6.683  0.1906 -0.3155  0.7950
  116OSM    H6S12062   2.104  -0.311   6.723 -0.6377  0.3289  3.0049
  116OSM    H6T12063   2.170  -0.149   6.716 -2.9480  3.1654  3.5689
  116OSM    C7S12064   2.058  -0.236   6.532  0.1058  0.2335  0.2800
  116OSM    H7S12065   1.977  -0.312   6.524  3.5523 -3.8521  0.7141
  116OSM    H7T12066   2.143  -0.293   6.489 -2.9932 -2.2145 -3.2252
  116OSM    C8S12067   2.010  -0.114   6.452 -0.4265  0.2646 -0.2466
  116OSM    H8S12068   2.081  -0.030   6.469  0.4645  0.0347 -2.4597
  116OSM    H8T12069   1.911  -0.074   6.482 -0.8576  0.5509 -1.9412
  116OSM    C9S12070   2.012  -0.138   6.297  0.4196  0.1580  0.0921
  116OSM    H9S12071   1.946  -0.223   6.270  0.0795  0.2024  0.7672
  116OSM    H9T12072   2.113  -0.169   6.265 -0.0118 -0.7485 -0.4224
  116OSM   C10S12073   1.981  -0.018   6.195 -0.8852  0.2528 -0.1448
  116OSM   H10S12074   2.068   0.050   6.208  0.5739 -1.2369 -1.7155
  116OSM   H10T12075   1.896   0.037   6.242 -1.6504 -1.6759  0.8322
  116OSM   C11S12076   1.958  -0.060   6.051 -0.0434 -0.1286  0.5295
  116OSM   H11S12077   1.878  -0.135   6.035 -0.5177  0.3549  0.6152
  116OSM   H11T12078   2.055  -0.104   6.019  0.6424  1.4611  0.3359
  116OSM   C12S12079   1.931   0.049   5.940  0.4857  0.1202 -0.1060
  116OSM   H12S12080   1.978   0.144   5.971 -0.8808  0.3421  1.4236
  116OSM   H12T12081   1.823   0.073   5.946  0.5816  0.3758  0.6175
  116OSM   C13S12082   1.978   0.011   5.799 -0.1548 -0.3965 -0.1761
  116OSM   H13S12083   1.905  -0.066   5.765 -0.9057 -0.9052  2.3931
  116OSM   H13T12084   2.082  -0.027   5.806  0.0859  0.2514 -0.2167
  116OSM   C14S12085   1.975   0.123   5.700 -0.0300  0.0704  0.4584
  116OSM   H14S12086   2.061   0.192   5.700 -0.5290  1.1335 -4.8976
  116OSM   H14T12087   1.888   0.191   5.709  0.5544  1.1129 -1.2241
  116OSM   C15S12088   1.973   0.063   5.552  0.2782 -0.6064  1.2072
  116OSM   H15S12089   1.893  -0.014   5.554  1.0987 -1.4569  2.2983
  116OSM   H15T12090   2.068   0.007   5.538  0.6228  0.1188  0.4854
  116OSM   C16S12091   1.957   0.172   5.444 -0.7290  0.0998  0.1937
  116OSM   H16S12092   2.008   0.267   5.470 -1.4576  0.2358  1.2191
  116OSM   H16T12093   1.847   0.188   5.439 -0.4070  2.5536 -0.4425
  116OSM   C17S12094   2.000   0.117   5.306 -0.2255 -0.1642  0.2540
  116OSM   H17S12095   1.946   0.171   5.226  1.5720  1.9566  0.3484
  116OSM   H17T12096   1.981   0.008   5.298 -1.5621  0.1221 -0.7511
  116OSM   C18S12097   2.147   0.152   5.275  0.0144  0.4776 -0.3861
  116OSM   H18S12098   2.164   0.151   5.166 -1.4131  0.4169 -0.6368
  116OSM   H18T12099   2.224   0.098   5.334  0.2714  4.7606  3.8171
  116OSM   H18U12100   2.151   0.260   5.299  0.5822 -0.0182  2.0760
  116OSM    C1F12101   1.821   0.270   6.672  0.6687 -0.2476 -0.6722
  116OSM     OF12102   1.895   0.355   6.728  0.2895 -0.6003 -0.1496
  116OSM    C2F12103   1.758   0.306   6.541  0.3145  0.5658  0.8319
  116OSM    H2F12104   1.720   0.409   6.553  0.9114  1.2340 -2.1768
  116OSM    H2G12105   1.672   0.240   6.514 -1.4791  3.1652 -0.2885
  116OSM    C3F12106   1.861   0.306   6.426  0.3778 -0.2745  1.1620
  116OSM    H3F12107   1.920   0.212   6.425 -0.8505 -1.0551  0.1716
  116OSM    H3G12108   1.929   0.389   6.457  1.1955 -1.2372  2.0391
  116OSM    C4F12109   1.820   0.329   6.280 -0.2999  0.0115 -0.2459
  116OSM    H4F12110   1.736   0.402   6.282 -0.9670 -0.7540  0.1370
  116OSM    H4G12111   1.783   0.244   6.218 -0.8466  0.4596 -0.5455
  116OSM    C5F12112   1.929   0.397   6.193  0.0818 -0.2652 -0.5181
  116OSM    H5F12113   1.982   0.322   6.130  1.0183  0.0432 -0.1206
  116OSM    H5G12114   2.008   0.453   6.247 -0.4572 -2.0556  2.3523
  116OSM    C6F12115   1.882   0.495   6.080  0.6229  0.2457 -0.2580
  116OSM    H6F12116   1.975   0.539   6.037  2.0358 -1.5141  0.8449
  116OSM    H6G12117   1.822   0.579   6.121  1.3488  0.6442  0.0204
  116OSM    C7F12118   1.824   0.419   5.966 -0.5576  0.0705 -0.2481
  116OSM    H7F12119   1.748   0.349   6.006  0.6929  0.7930  3.7996
  116OSM    H7G12120   1.905   0.356   5.924 -0.4361  0.2009 -0.2096
  116OSM    C8F12121   1.774   0.503   5.844 -0.4442  0.2311 -0.4198
  116OSM    H8F12122   1.727   0.591   5.893  0.0860 -0.0836  0.6795
  116OSM    H8G12123   1.695   0.440   5.799  0.8867 -1.7744 -0.1020
  116OSM    C9F12124   1.888   0.541   5.753 -0.1824 -0.6796  0.0898
  116OSM    H9F12125   1.964   0.606   5.797 -0.8074  1.7460 -2.2041
  116OSM   C10F12126   1.886   0.529   5.622 -0.2262  0.1264 -0.1538
  116OSM   H10F12127   1.983   0.545   5.574  0.4534 -2.6105  0.1349
  116OSM   C11F12128   1.780   0.465   5.530 -0.2607  0.0215 -0.1618
  116OSM   H11F12129   1.679   0.505   5.552 -0.2107 -0.5660  1.2332
  116OSM   H11G12130   1.767   0.356   5.549 -0.4437  0.1309  0.3708
  116OSM   C12F12131   1.809   0.502   5.382 -0.1050  0.1639  0.0342
  116OSM   H12F12132   1.900   0.449   5.345  0.2598  2.2840 -2.3596
  116OSM   H12G12133   1.836   0.609   5.382  3.7767 -0.6577 -0.8432
  116OSM   C13F12134   1.690   0.454   5.306  0.0416 -0.4009  0.5825
  116OSM   H13F12135   1.599   0.513   5.329 -0.4424 -1.6847  2.1110
  116OSM   H13G12136   1.654   0.349   5.321 -2.7427  0.0294 -2.0240
  116OSM   C14F12137   1.722   0.471   5.155  0.0558  0.7314  0.0011
  116OSM   H14F12138   1.793   0.389   5.131 -0.4295 -0.4142  2.2782
  116OSM   H14G12139   1.777   0.566   5.141  0.4430  1.1217  3.3421
  116OSM   C15F12140   1.591   0.455   5.071  0.2278 -0.4200  0.3534
  116OSM   H15F12141   1.533   0.550   5.072 -0.4951 -0.8604  0.3869
  116OSM   H15G12142   1.524   0.373   5.104 -0.5295 -0.3689 -0.9974
  116OSM   C16F12143   1.614   0.420   4.922 -0.2124  0.2607 -0.1527
  116OSM   H16F12144   1.647   0.314   4.919  1.0921  0.6659 -0.8406
  116OSM   H16G12145   1.694   0.477   4.871 -1.4598  0.3223 -2.1414
  116OSM   C17F12146   1.479   0.420   4.842 -0.5427 -0.0041 -0.1012
  116OSM   H17F12147   1.441   0.525   4.846 -3.8857 -1.0936  2.6977
  116OSM   H17G12148   1.402   0.357   4.892 -0.6213 -0.1026 -0.3469
  116OSM   C18F12149   1.488   0.347   4.702  0.2696 -0.4621 -0.0311
  116OSM   H18F12150   1.552   0.395   4.624  0.8367 -0.2829  0.5344
  116OSM   H18G12151   1.384   0.335   4.666 -0.3646  1.3619  1.0469
  116OSM   H18H12152   1.533   0.248   4.727  0.7656  0.1030  1.3857
  117OSM      N12153   0.663   4.091   7.283 -0.4858  0.2595 -0.0049
  117OSM    C1512154   0.555   4.190   7.335 -0.7677  0.3017  0.8279
  117OSM   H15A12155   0.464   4.138   7.360 -1.3337  1.3812  1.0854
  117OSM   H15B12156   0.541   4.266   7.259  2.5446 -2.1729 -2.6318
  117OSM   H15C12157   0.587   4.245   7.422 -2.3565  2.6015  0.0833
  117OSM    C1412158   0.799   4.159   7.262 -0.5618 -0.1602 -0.1112
  117OSM   H14A12159   0.803   4.212   7.168 -1.2527 -0.0570 -0.0895
  117OSM   H14B12160   0.880   4.088   7.263 -0.2050  0.1807 -2.1185
  117OSM   H14C12161   0.805   4.231   7.343  0.5586  2.0089 -2.0246
  117OSM    C1312162   0.685   3.993   7.393 -0.2822 -0.9179  0.0440
  117OSM   H13A12163   0.745   3.910   7.359  1.3129 -1.2484  3.2761
  117OSM   H13B12164   0.591   3.944   7.418  0.1490  0.5863  6.2634
  117OSM   H13C12165   0.737   4.023   7.482 -1.2768 -0.0681  0.3596
  117OSM    C1212166   0.620   4.024   7.149  0.2916  0.2606  0.2894
  117OSM   H12A12167   0.711   3.989   7.103 -0.1351 -0.9089  0.3055
  117OSM   H12B12168   0.574   4.095   7.082  1.7057 -1.2985 -2.5288
  117OSM    C1112169   0.520   3.900   7.157  0.3468  0.2706  0.3689
  117OSM   H11A12170   0.574   3.812   7.197  0.9590  0.8899  0.9403
  117OSM   H11B12171   0.497   3.869   7.053  3.6444 -0.1705 -0.3251
  117OSM      P12172   0.270   3.989   7.183  0.0378 -0.0300 -0.2926
  117OSM    O1312173   0.158   3.933   7.268  0.0955  0.1623 -0.2540
  117OSM    O1412174   0.278   4.134   7.172  0.3942  0.0744  0.0740
  117OSM    O1112175   0.264   3.936   7.038  0.1265  0.2117 -0.7638
  117OSM    O1212176   0.405   3.921   7.235  0.8082  0.5938  0.2458
  117OSM    C1S12177   0.164   3.998   6.953  0.1777  0.6189 -0.3918
  117OSM    H1S12178   0.107   4.074   7.011 -1.8090 -1.5831  0.7434
  117OSM    H1T12179   0.091   3.916   6.934  1.9242 -1.7252  2.1505
  117OSM     NF12180   0.090   4.083   6.735  0.1142  0.5961  0.8030
  117OSM    HNF12181   0.055   4.016   6.670 -0.6144  1.5371  0.2000
  117OSM    C2S12182   0.206   4.049   6.814  1.1133 -0.5745 -0.4779
  117OSM    H2S12183   0.250   4.150   6.828 -3.3739  1.5654 -0.0830
  117OSM    C3S12184   0.303   3.958   6.740  0.3347 -0.0315  0.2537
  117OSM    H3S12185   0.256   3.858   6.732  1.0610 -0.4091  0.6592
  117OSM     O312186   0.422   3.931   6.809 -0.6780 -0.0411  0.4639
  117OSM    HO312187   0.399   3.952   6.900 -0.4293 -0.5367  0.6435
  117OSM    C4S12188   0.330   4.005   6.600 -0.2771 -0.0027  0.3459
  117OSM    H4S12189   0.241   3.993   6.536 -0.8346  3.0458  0.4272
  117OSM    C5S12190   0.443   4.071   6.555  0.0525  0.0597 -0.6259
  117OSM    H5S12191   0.522   4.078   6.631 -0.3403 -0.9975 -0.1072
  117OSM    C6S12192   0.459   4.138   6.420  0.2350 -0.5181 -0.6374
  117OSM    H6S12193   0.483   4.060   6.346 -1.1419 -0.3881 -1.2569
  117OSM    H6T12194   0.548   4.204   6.424 -0.6662  0.7752 -1.0708
  117OSM    C7S12195   0.345   4.231   6.374  0.3062 -0.5788  0.3581
  117OSM    H7S12196   0.321   4.312   6.446  0.4069  0.0523 -0.2979
  117OSM    H7T12197   0.254   4.167   6.360  0.5861 -0.8478 -0.2877
  117OSM    C8S12198   0.361   4.303   6.241  0.0250 -0.2623  0.2206
  117OSM    H8S12199   0.447   4.373   6.239  0.8805 -1.2337  1.4117
  117OSM    H8T12200   0.276   4.370   6.214  0.2096 -0.1378 -0.0490
  117OSM    C9S12201   0.369   4.210   6.120 -0.1816  0.0356 -0.2891
  117OSM    H9S12202   0.279   4.145   6.116  0.1236 -0.3971 -0.1752
  117OSM    H9T12203   0.461   4.150   6.140 -2.2358 -3.2928 -0.0298
  117OSM   C10S12204   0.372   4.285   5.989  0.3092 -0.6862  0.9666
  117OSM   H10S12205   0.441   4.371   6.000 -1.7716  0.8554  2.8701
  117OSM   H10T12206   0.268   4.322   5.978  0.5499 -0.3156 -0.0996
  117OSM   C11S12207   0.399   4.193   5.868  0.5691 -0.8272 -0.6054
  117OSM   H11S12208   0.329   4.107   5.863  1.2414 -1.4549  0.5975
  117OSM   H11T12209   0.502   4.152   5.873 -0.3750 -3.2448  0.6238
  117OSM   C12S12210   0.377   4.273   5.738 -0.0036  0.3208  0.2532
  117OSM   H12S12211   0.444   4.362   5.742  1.3598 -0.5758 -1.2449
  117OSM   H12T12212   0.273   4.307   5.714 -0.1268 -0.8323 -1.0310
  117OSM   C13S12213   0.417   4.189   5.617 -0.1111 -0.5286  0.0267
  117OSM   H13S12214   0.354   4.099   5.625  0.9710 -1.3439 -0.4034
  117OSM   H13T12215   0.525   4.170   5.637 -0.7252 -0.2016  4.9968
  117OSM   C14S12216   0.389   4.257   5.480 -0.1182 -0.1958 -0.1588
  117OSM   H14S12217   0.452   4.349   5.485 -0.1138 -0.0678 -2.0079
  117OSM   H14T12218   0.283   4.285   5.466  0.5888  2.3957 -0.8547
  117OSM   C15S12219   0.422   4.169   5.355 -0.7481 -0.2599  0.8087
  117OSM   H15S12220   0.360   4.078   5.357  2.6884 -2.8879 -1.0780
  117OSM   H15T12221   0.531   4.148   5.355 -0.0703  2.6931  0.0728
  117OSM   C16S12222   0.407   4.245   5.228 -0.0553 -0.2426  0.3074
  117OSM   H16S12223   0.472   4.335   5.235 -2.2753  1.5336 -0.7449
  117OSM   H16T12224   0.301   4.272   5.207  0.5351  0.1743 -2.5860
  117OSM   C17S12225   0.448   4.169   5.099 -0.4138  0.1430 -0.7091
  117OSM   H17S12226   0.388   4.080   5.070 -0.4061 -0.8328  2.0123
  117OSM   H17T12227   0.553   4.134   5.113 -0.4760  0.3505  0.3423
  117OSM   C18S12228   0.465   4.250   4.979 -0.6205 -0.8352  0.5988
  117OSM   H18S12229   0.526   4.190   4.908 -1.3305  0.3811 -1.0996
  117OSM   H18T12230   0.527   4.338   5.008 -1.7979  0.2671 -0.1113
  117OSM   H18U12231   0.366   4.284   4.942 -0.1120  2.0540  1.6375
  117OSM    C1F12232   0.008   4.184   6.766  0.3008 -0.3890  0.4463
  117OSM     OF12233   0.032   4.281   6.844 -0.0969 -0.1915  0.3996
  117OSM    C2F12234  -0.116   4.179   6.683 -0.4023 -0.0697  0.1569
  117OSM    H2F12235  -0.182   4.097   6.718 -0.2408 -0.7133 -1.0136
  117OSM    H2G12236  -0.100   4.154   6.576 -1.0355  0.7445 -0.1356
  117OSM    C3F12237  -0.204   4.301   6.678  0.2870 -0.7788  0.5301
  117OSM    H3F12238  -0.136   4.382   6.643  1.5333 -1.9794  0.0784
  117OSM    H3G12239  -0.241   4.321   6.781 -0.1271 -1.7377  0.5807
  117OSM    C4F12240  -0.336   4.296   6.595  0.4650 -0.2002  0.3296
  117OSM    H4F12241  -0.382   4.396   6.590 -0.8802 -0.8534 -1.8044
  117OSM    H4G12242  -0.412   4.227   6.638  0.3419  0.7952  1.7814
  117OSM    C5F12243  -0.321   4.257   6.445 -0.2565  0.2107 -0.3383
  117OSM    H5F12244  -0.417   4.285   6.396  0.4233  0.6037 -1.4692
  117OSM    H5G12245  -0.304   4.148   6.435 -0.8771 -0.0030  0.7463
  117OSM    C6F12246  -0.217   4.332   6.356  0.4730  0.7832 -0.0285
  117OSM    H6F12247  -0.226   4.275   6.262  0.7552 -0.8266  0.8774
  117OSM    H6G12248  -0.112   4.303   6.379 -0.3615 -1.6658  1.0819
  117OSM    C7F12249  -0.235   4.478   6.361 -0.3552  0.4517  0.3315
  117OSM    H7F12250  -0.195   4.504   6.462 -2.5540  0.5240  1.2338
  117OSM    H7G12251  -0.341   4.513   6.358 -0.8279 -1.0066 -1.1910
  117OSM    C8F12252  -0.150   4.561   6.259 -0.4075  0.3692  0.3590
  117OSM    H8F12253  -0.047   4.524   6.277 -0.4888  0.5814  1.3683
  117OSM    H8G12254  -0.155   4.672   6.269 -0.6891  0.5137 -1.1471
  117OSM    C9F12255  -0.197   4.527   6.119  0.2012  0.1491 -0.8631
  117OSM    H9F12256  -0.293   4.475   6.115 -0.0935  0.4491  1.1896
  117OSM   C10F12257  -0.128   4.516   6.006 -0.3582  0.6575  0.0559
  117OSM   H10F12258  -0.172   4.491   5.908 -0.8943  3.2359 -0.4506
  117OSM   C11F12259   0.021   4.550   5.973 -0.4304  0.1585  0.0118
  117OSM   H11F12260   0.078   4.456   5.958 -2.6568 -0.8119 -3.3934
  117OSM   H11G12261   0.073   4.609   6.051  0.5626  1.2662 -1.4219
  117OSM   C12F12262   0.038   4.627   5.845 -0.7857 -0.0348  0.2147
  117OSM   H12F12263   0.143   4.661   5.832 -0.6407 -0.3822  0.4746
  117OSM   H12G12264  -0.022   4.720   5.833  0.4288  0.6778 -0.6259
  117OSM   C13F12265  -0.002   4.538   5.726  0.0568 -0.1160 -0.3622
  117OSM   H13F12266  -0.112   4.522   5.722 -0.1867  1.3168  0.2490
  117OSM   H13G12267   0.055   4.442   5.732 -0.5799 -0.5257 -0.7269
  117OSM   C14F12268   0.051   4.601   5.595 -0.2793 -0.2684  0.8108
  117OSM   H14F12269   0.161   4.618   5.599 -0.1962 -1.0263  2.7598
  117OSM   H14G12270   0.005   4.697   5.564 -0.3536 -0.8941 -1.2081
  117OSM   C15F12271   0.028   4.501   5.478 -0.8510 -1.0690 -0.2921
  117OSM   H15F12272  -0.075   4.459   5.474 -1.0104 -0.6212 -3.7939
  117OSM   H15G12273   0.077   4.407   5.511  0.0371 -0.9177 -1.1298
  117OSM   C16F12274   0.072   4.547   5.343 -0.1053 -0.4244 -0.0300
  117OSM   H16F12275   0.177   4.579   5.327 -0.1602 -0.3558 -0.2649
  117OSM   H16G12276   0.011   4.634   5.308  2.1036  0.5791 -1.6080
  117OSM   C17F12277   0.046   4.441   5.230 -0.2238  0.8410 -0.0175
  117OSM   H17F12278  -0.060   4.405   5.227 -0.0445  0.2580  0.4027
  117OSM   H17G12279   0.107   4.351   5.251 -2.0028 -0.8139 -1.4726
  117OSM   C18F12280   0.071   4.496   5.092 -0.1836 -0.0596 -0.3074
  117OSM   H18F12281   0.008   4.448   5.014  0.7821 -3.2887  0.7322
  117OSM   H18G12282   0.181   4.495   5.072  0.2480  0.0931  1.8475
  117OSM   H18H12283   0.059   4.606   5.091  2.4883  0.3146 -0.4851
  118OSM      N12284   6.449   3.056   7.418 -0.6813  0.7645  0.3463
  118OSM    C1512285   6.578   3.137   7.437 -0.2342  0.0178  0.2950
  118OSM   H15A12286   6.668   3.080   7.450 -1.2928 -1.5337  1.0481
  118OSM   H15B12287   6.571   3.202   7.523  1.9088  0.1888  0.3949
  118OSM   H15C12288   6.590   3.208   7.356 -0.1796  1.4389  1.5176
  118OSM    C1412289   6.450   2.948   7.522  0.0688  0.6234 -1.0793
  118OSM   H14A12290   6.547   2.900   7.516 -0.3000 -0.1581 -0.8964
  118OSM   H14B12291   6.379   2.869   7.501  0.5690 -0.5616  1.2978
  118OSM   H14C12292   6.441   2.987   7.622 -1.1507 -0.1048 -0.8886
  118OSM    C1312293   6.322   3.135   7.443 -0.5822  0.2272  0.5769
  118OSM   H13A12294   6.231   3.077   7.445  0.3471 -1.2588  2.0347
  118OSM   H13B12295   6.320   3.218   7.374  1.0540  0.2374  0.5112
  118OSM   H13C12296   6.328   3.175   7.543  0.3597  0.8299  0.2926
  118OSM    C1212297   6.434   2.999   7.275  0.6618 -0.0700 -0.2741
  118OSM   H12A12298   6.441   3.084   7.209 -0.5612 -0.0654 -0.4264
  118OSM   H12B12299   6.331   2.967   7.265  0.7942 -0.8013  0.5791
  118OSM    C1112300   6.530   2.891   7.218 -0.3313  0.5899  0.0795
  118OSM   H11A12301   6.634   2.930   7.224 -0.3136  0.5439  0.0663
  118OSM   H11B12302   6.510   2.877   7.110  0.0635  1.0588 -0.0590
  118OSM      P12303   6.446   2.654   7.243 -0.2347  0.2405 -0.2459
  118OSM    O1312304   6.434   2.553   7.344 -0.6668  0.2451 -0.1963
  118OSM    O1412305   6.319   2.711   7.190 -0.2113  0.1349  0.1309
  118OSM    O1112306   6.546   2.601   7.132  0.0458  0.3734  0.2204
  118OSM    O1212307   6.529   2.771   7.293  0.2746 -0.3536 -0.2332
  118OSM    C1S12308   6.674   2.534   7.165  0.5017 -0.1832 -0.0940
  118OSM    H1S12309   6.663   2.442   7.226 -0.4998 -0.9506 -1.3763
  118OSM    H1T12310   6.750   2.609   7.197  2.2859 -0.1106 -3.8399
  118OSM     NF12311   6.852   2.374   7.066  0.6072 -0.1322  0.2875
  118OSM    HNF12312   6.944   2.411   7.052  1.3328 -1.5644  1.0401
  118OSM    C2S12313   6.742   2.466   7.039 -0.1912  0.0568 -0.2078
  118OSM    H2S12314   6.669   2.396   6.994  0.4684 -0.2088 -0.8944
  118OSM    C3S12315   6.785   2.577   6.938  0.0301 -0.3919  0.3832
  118OSM    H3S12316   6.876   2.617   6.987  0.0547 -0.7552  0.6314
  118OSM     O312317   6.695   2.688   6.929 -0.0593  0.6272  0.4289
  118OSM    HO312318   6.637   2.675   7.004  0.9145 -2.2766  0.7981
  118OSM    C4S12319   6.831   2.529   6.793  0.4027 -0.0071 -0.6276
  118OSM    H4S12320   6.915   2.459   6.785  0.6173  0.0344  1.0597
  118OSM    C5S12321   6.758   2.527   6.677 -0.3169  0.5579 -0.0008
  118OSM    H5S12322   6.651   2.555   6.681 -0.5421 -0.4132  1.9698
  118OSM    C6S12323   6.805   2.453   6.555 -0.7702  0.3620 -0.6781
  118OSM    H6S12324   6.750   2.360   6.529  0.4636  0.1632 -2.7878
  118OSM    H6T12325   6.909   2.416   6.546 -1.3344 -1.4100 -0.2881
  118OSM    C7S12326   6.795   2.551   6.440  0.2209 -0.1221  0.2623
  118OSM    H7S12327   6.859   2.639   6.462 -1.0802  0.7472  0.7248
  118OSM    H7T12328   6.690   2.585   6.429  0.0481 -1.1052 -1.4052
  118OSM    C8S12329   6.847   2.496   6.309 -0.5443  0.5921  0.2636
  118OSM    H8S12330   6.760   2.446   6.261  0.4154 -1.2146  0.3365
  118OSM    H8T12331   6.931   2.424   6.315  0.6713  2.0123  1.0002
  118OSM    C9S12332   6.900   2.610   6.220  0.3112 -0.0566  0.2578
  118OSM    H9S12333   7.000   2.640   6.257  0.5821  0.6001 -0.9574
  118OSM    H9T12334   6.844   2.702   6.250 -0.0767 -1.0598  2.9013
  118OSM   C10S12335   6.861   2.589   6.068 -0.6827  1.1840  0.2226
  118OSM   H10S12336   6.897   2.671   6.002  0.7739  0.3700 -0.0440
  118OSM   H10T12337   6.751   2.574   6.065 -0.3292 -2.2179  0.5566
  118OSM   C11S12338   6.924   2.460   6.018  0.7856  0.2940  0.0292
  118OSM   H11S12339   6.870   2.382   6.076  0.6783  0.6551  0.4181
  118OSM   H11T12340   7.033   2.462   6.037  0.7283 -3.2758  1.5256
  118OSM   C12S12341   6.900   2.415   5.871  0.8492  0.4304 -0.2143
  118OSM   H12S12342   6.794   2.384   5.870  1.1457 -0.6543  0.6832
  118OSM   H12T12343   6.959   2.325   5.844  0.2633 -0.7975  2.3947
  118OSM   C13S12344   6.944   2.522   5.773  0.1893  0.3841  0.3562
  118OSM   H13S12345   7.050   2.551   5.793  1.5470 -3.0232 -1.1875
  118OSM   H13T12346   6.872   2.605   5.793 -0.8596 -0.4873  0.2661
  118OSM   C14S12347   6.937   2.480   5.631 -0.4882 -0.1639 -0.1889
  118OSM   H14S12348   6.834   2.443   5.609 -0.2014 -1.5759  0.6909
  118OSM   H14T12349   7.012   2.402   5.607 -1.1022 -1.0179  0.5775
  118OSM   C15S12350   6.954   2.604   5.544 -0.2880  0.4516  0.6854
  118OSM   H15S12351   7.032   2.668   5.592 -0.8445  0.4430  1.6154
  118OSM   H15T12352   6.861   2.662   5.566  0.1712  0.0079  4.3738
  118OSM   C16S12353   6.980   2.575   5.393  0.6005 -0.1025  0.0424
  118OSM   H16S12354   6.880   2.555   5.350  1.1640  1.3712 -2.1351
  118OSM   H16T12355   7.045   2.485   5.381  1.4239 -0.1105  3.3728
  118OSM   C17S12356   7.033   2.697   5.318  0.1633 -0.1199  0.6720
  118OSM   H17S12357   7.126   2.726   5.372  0.3683  1.8698 -0.6171
  118OSM   H17T12358   6.957   2.776   5.334 -1.2208 -1.0174 -1.1342
  118OSM   C18S12359   7.055   2.689   5.168 -0.0773 -0.3773 -0.6570
  118OSM   H18S12360   7.085   2.788   5.129 -1.4840  0.8623  1.2420
  118OSM   H18T12361   6.962   2.650   5.120  0.2408 -0.7396 -0.9952
  118OSM   H18U12362   7.137   2.617   5.148 -0.4293 -1.9008  2.7815
  118OSM    C1F12363   6.840   2.251   7.129  0.2950 -0.3001  0.4319
  118OSM     OF12364   6.727   2.229   7.165 -0.5006  0.0761 -0.2971
  118OSM    C2F12365   6.958   2.161   7.166  0.5855  0.3337 -0.2519
  118OSM    H2F12366   6.926   2.059   7.195  1.9303 -0.0432 -0.0270
  118OSM    H2G12367   7.011   2.198   7.256 -0.3886 -2.1068  1.4411
  118OSM    C3F12368   7.048   2.148   7.044  0.0217  0.4469 -0.0828
  118OSM    H3F12369   7.132   2.077   7.058 -0.3919 -0.0731 -0.2130
  118OSM    H3G12370   7.102   2.239   7.010  1.1592 -0.2070 -0.0646
  118OSM    C4F12371   6.968   2.086   6.923 -0.6171 -0.4539  0.3475
  118OSM    H4F12372   6.865   2.129   6.923 -0.0995  0.8378  0.2351
  118OSM    H4G12373   6.954   1.977   6.932 -0.5835 -0.5584 -0.6998
  118OSM    C5F12374   7.020   2.129   6.790  0.0659  0.1774 -0.0882
  118OSM    H5F12375   7.131   2.132   6.784  0.3503 -0.1873  3.2532
  118OSM    H5G12376   6.976   2.231   6.778 -2.2289 -0.6692  0.4916
  118OSM    C6F12377   6.977   2.032   6.679  0.7289  0.5631  0.1882
  118OSM    H6F12378   6.868   2.013   6.686  0.8373 -0.3107 -0.3548
  118OSM    H6G12379   7.026   1.934   6.698 -0.6920  0.1663  2.1611
  118OSM    C7F12380   7.021   2.082   6.541  0.0824 -0.5621  0.1407
  118OSM    H7F12381   7.113   2.143   6.527 -0.3442  0.0578  0.0116
  118OSM    H7G12382   6.937   2.151   6.518  0.7429 -0.0596 -0.8250
  118OSM    C8F12383   7.017   1.969   6.431 -0.4082 -0.9171 -0.3366
  118OSM    H8F12384   7.018   2.022   6.334  0.7081 -1.5910 -0.7141
  118OSM    H8G12385   6.922   1.912   6.431  0.8252 -3.1290  0.8773
  118OSM    C9F12386   7.131   1.866   6.443 -0.1119 -0.8507 -0.2660
  118OSM    H9F12387   7.103   1.786   6.514  0.1026 -0.5081  0.2085
  118OSM   C10F12388   7.240   1.851   6.366 -0.3782 -0.5531  0.5661
  118OSM   H10F12389   7.316   1.774   6.384  0.0579 -0.1287  0.5799
  118OSM   C11F12390   7.277   1.948   6.257 -0.2900 -0.1097  0.2860
  118OSM   H11F12391   7.386   1.959   6.238 -0.3056 -1.5761 -0.8871
  118OSM   H11G12392   7.242   2.047   6.292  1.7137 -0.2423  2.9337
  118OSM   C12F12393   7.206   1.912   6.129  0.5882  0.4145  0.4124
  118OSM   H12F12394   7.101   1.876   6.130  0.3783  0.8760 -1.3389
  118OSM   H12G12395   7.258   1.822   6.088 -2.4825 -0.7866 -1.1307
  118OSM   C13F12396   7.211   2.027   6.026 -0.6768  0.4205  0.4812
  118OSM   H13F12397   7.314   2.068   6.033  0.3670 -2.0935  1.0481
  118OSM   H13G12398   7.143   2.106   6.064 -1.7554 -0.2078 -0.0854
  118OSM   C14F12399   7.189   1.993   5.876 -0.1394  0.0076 -0.0490
  118OSM   H14F12400   7.086   1.954   5.864 -0.3035  0.6237 -0.6976
  118OSM   H14G12401   7.265   1.922   5.839 -0.0154  0.2992 -0.3627
  118OSM   C15F12402   7.205   2.130   5.804 -0.2382  0.2123  0.4768
  118OSM   H15F12403   7.312   2.158   5.807 -0.0930 -0.1143 -0.7946
  118OSM   H15G12404   7.140   2.203   5.857 -2.7461 -0.2665 -1.7052
  118OSM   C16F12405   7.160   2.120   5.657  0.5879  0.3140 -0.1105
  118OSM   H16F12406   7.172   2.220   5.608 -3.8957  0.7727 -0.7076
  118OSM   H16G12407   7.051   2.098   5.649  0.7578 -0.1815 -1.3343
  118OSM   C17F12408   7.231   2.002   5.589 -0.1775  0.9459 -0.0304
  118OSM   H17F12409   7.190   1.905   5.625  0.1473 -0.2029 -2.5417
  118OSM   H17G12410   7.342   1.999   5.599 -0.0461  2.0916 -0.9251
  118OSM   C18F12411   7.213   2.011   5.438 -0.4117 -0.4399 -0.2435
  118OSM   H18F12412   7.108   2.015   5.400 -0.5812  0.0750  0.2698
  118OSM   H18G12413   7.273   1.934   5.386  1.6662  1.3602 -0.6205
  118OSM   H18H12414   7.272   2.102   5.413 -2.8089  1.1638 -0.4646
  119OSM      N12415   2.618   4.434   7.593  0.7766  0.5702  0.6156
  119OSM    C1512416   2.692   4.351   7.692  0.2544  0.9107 -0.3384
  119OSM   H15A12417   2.678   4.381   7.795  0.5800 -0.3487  0.0867
  119OSM   H15B12418   2.794   4.382   7.679 -0.6043  4.0831 -0.2698
  119OSM   H15C12419   2.673   4.245   7.686  0.6581  0.6457  2.0417
  119OSM    C1412420   2.480   4.371   7.584  0.1142 -0.4236  0.2425
  119OSM   H14A12421   2.410   4.434   7.531  0.0443  0.2583  1.1219
  119OSM   H14B12422   2.438   4.360   7.683 -1.1550 -3.5397 -0.5163
  119OSM   H14C12423   2.477   4.280   7.526 -0.8654  0.0784 -0.5203
  119OSM    C1312424   2.603   4.573   7.645 -0.0983 -0.0405 -0.1222
  119OSM   H13A12425   2.532   4.578   7.726  1.4853 -0.0405  1.3246
  119OSM   H13B12426   2.581   4.641   7.564 -1.6770  0.5206  0.7364
  119OSM   H13C12427   2.691   4.617   7.689 -0.7987 -0.4958  1.8043
  119OSM    C1212428   2.697   4.436   7.454  0.0295 -0.3532 -0.3705
  119OSM   H12A12429   2.701   4.338   7.411 -1.6194  0.1984 -1.9029
  119OSM   H12B12430   2.800   4.467   7.468  0.3702 -1.6296  0.0546
  119OSM    C1112431   2.640   4.522   7.341 -0.6195  0.0732 -0.3296
  119OSM   H11A12432   2.533   4.498   7.319 -0.0194  0.5578 -4.6492
  119OSM   H11B12433   2.684   4.485   7.246  1.1287 -0.7281  0.7444
  119OSM      P12434   2.796   4.729   7.348  0.2569 -0.0890 -0.2866
  119OSM    O1312435   2.806   4.848   7.431 -0.0024 -0.6827 -0.4483
  119OSM    O1412436   2.905   4.630   7.357 -0.2554  0.4495  0.1297
  119OSM    O1112437   2.783   4.771   7.192 -0.4904  0.3014 -0.3170
  119OSM    O1212438   2.657   4.663   7.376 -0.1923 -0.5269  0.3077
  119OSM    C1S12439   2.664   4.757   7.115 -0.0439 -0.2787  0.2795
  119OSM    H1S12440   2.594   4.819   7.175  2.4318  1.9103  1.1156
  119OSM    H1T12441   2.639   4.649   7.106 -0.4452 -0.2425  0.8869
  119OSM     NF12442   2.579   4.875   6.915  0.5389 -0.0161  0.3557
  119OSM    HNF12443   2.529   4.831   6.841  0.2704 -0.7079  0.9302
  119OSM    C2S12444   2.693   4.808   6.967 -0.1904 -0.2417  0.0121
  119OSM    H2S12445   2.769   4.889   6.972  0.4050 -0.5160 -2.9477
  119OSM    C3S12446   2.764   4.701   6.889  0.0258  0.3528  0.0522
  119OSM    H3S12447   2.691   4.618   6.878  1.4903 -1.0021  0.1790
  119OSM     O312448   2.870   4.639   6.969 -0.1048 -0.1048  0.3202
  119OSM    HO312449   2.842   4.671   7.055 -1.1432 -0.5454  0.1647
  119OSM    C4S12450   2.816   4.744   6.746  0.1330 -0.1618 -0.5443
  119OSM    H4S12451   2.916   4.783   6.722  0.2666 -0.9323 -1.2929
  119OSM    C5S12452   2.748   4.704   6.640 -0.1016 -0.5163 -0.3037
  119OSM    H5S12453   2.650   4.668   6.675  0.4664 -1.5753  0.2547
  119OSM    C6S12454   2.775   4.712   6.493 -0.7977 -0.6022  0.8559
  119OSM    H6S12455   2.730   4.627   6.438 -0.8079  1.4485 -2.5922
  119OSM    H6T12456   2.878   4.713   6.452 -1.5618 -2.3428 -1.2985
  119OSM    C7S12457   2.710   4.841   6.428  0.2434  0.7977 -0.4994
  119OSM    H7S12458   2.753   4.930   6.479 -0.7765  1.0998 -0.1387
  119OSM    H7T12459   2.603   4.840   6.460  0.7108 -0.9672  1.2062
  119OSM    C8S12460   2.740   4.863   6.283 -0.4833  0.1483  0.4080
  119OSM    H8S12461   2.846   4.832   6.266 -1.4169 -3.7935  0.6778
  119OSM    H8T12462   2.728   4.969   6.253 -0.2126 -0.2653 -1.2414
  119OSM    C9S12463   2.649   4.777   6.190 -0.6843 -0.6098 -0.3390
  119OSM    H9S12464   2.545   4.771   6.230  0.2109  0.9074  2.4480
  119OSM    H9T12465   2.699   4.678   6.187  0.9931  0.2308 -1.6485
  119OSM   C10S12466   2.625   4.845   6.054 -0.0621  1.2909  0.5140
  119OSM   H10S12467   2.725   4.862   6.009 -0.2437 -1.4160 -1.1033
  119OSM   H10T12468   2.582   4.947   6.061 -1.5221  0.7875 -0.6852
  119OSM   C11S12469   2.543   4.751   5.956 -0.4562 -0.1659  0.1871
  119OSM   H11S12470   2.440   4.748   5.997 -0.5724  2.6115  0.2456
  119OSM   H11T12471   2.580   4.647   5.943 -1.2447 -0.2440 -1.9026
  119OSM   C12S12472   2.549   4.805   5.811  0.2211  0.4239 -0.1362
  119OSM   H12S12473   2.537   4.916   5.819 -0.0099  0.5004 -1.3438
  119OSM   H12T12474   2.461   4.762   5.758 -0.7739  0.6280  1.2890
  119OSM   C13S12475   2.682   4.769   5.744  0.1806 -0.1252  0.8193
  119OSM   H13S12476   2.732   4.675   5.775  0.1829  0.1896  1.8171
  119OSM   H13T12477   2.749   4.852   5.776  0.2274  0.0919  0.1593
  119OSM   C14S12478   2.667   4.776   5.593 -0.0252  0.7460 -0.1949
  119OSM   H14S12479   2.590   4.851   5.565 -0.3127  0.2837 -0.6534
  119OSM   H14T12480   2.634   4.682   5.544  0.7447  0.6328 -0.5109
  119OSM   C15S12481   2.804   4.815   5.529 -0.0430 -0.4654 -0.3145
  119OSM   H15S12482   2.882   4.737   5.543  0.6661 -0.3623 -3.0752
  119OSM   H15T12483   2.835   4.919   5.556 -0.2672 -0.7181  0.9463
  119OSM   C16S12484   2.788   4.830   5.373 -0.1447 -0.2653  0.0914
  119OSM   H16S12485   2.692   4.873   5.338 -0.8181 -2.8754 -1.5291
  119OSM   H16T12486   2.785   4.720   5.357  1.6715 -0.6552  2.0132
  119OSM   C17S12487   2.910   4.880   5.299 -0.7170 -0.1698  0.5839
  119OSM   H17S12488   3.004   4.850   5.352  0.6843  3.1453  0.2204
  119OSM   H17T12489   2.905   4.991   5.303 -1.7878  0.0751 -3.4143
  119OSM   C18S12490   2.928   4.844   5.147  0.7706 -0.0928 -0.1308
  119OSM   H18S12491   2.910   4.735   5.137  1.5246 -0.1414 -1.0208
  119OSM   H18T12492   3.024   4.873   5.101  0.6339  1.7298  0.6253
  119OSM   H18U12493   2.843   4.892   5.095 -0.9417 -0.9873  1.6815
  119OSM    C1F12494   2.529   4.989   6.970  0.2444  0.4527 -0.3691
  119OSM     OF12495   2.590   5.049   7.055  0.4174 -0.5812  0.3877
  119OSM    C2F12496   2.390   5.038   6.928 -0.5166 -0.6963  0.0362
  119OSM    H2F12497   2.346   5.091   7.016 -2.3619  1.1103 -1.8728
  119OSM    H2G12498   2.329   4.949   6.903 -0.5487 -0.2647 -1.5208
  119OSM    C3F12499   2.377   5.125   6.804 -1.1732 -0.2123 -0.6853
  119OSM    H3F12500   2.448   5.210   6.808  0.7673 -1.4743 -4.0073
  119OSM    H3G12501   2.274   5.167   6.806 -0.6013  1.3425 -1.7831
  119OSM    C4F12502   2.417   5.049   6.674  0.6085 -0.0173 -0.3598
  119OSM    H4F12503   2.355   4.957   6.670  1.6101 -0.7159 -0.1449
  119OSM    H4G12504   2.525   5.025   6.661  0.3529 -0.6922 -1.3710
  119OSM    C5F12505   2.381   5.141   6.555 -0.2593 -0.0472 -0.2511
  119OSM    H5F12506   2.424   5.242   6.570 -0.7258 -0.0393  1.1356
  119OSM    H5G12507   2.274   5.171   6.546  0.3941  2.6832  0.0047
  119OSM    C6F12508   2.411   5.082   6.414 -0.2462 -0.7111 -1.1057
  119OSM    H6F12509   2.377   4.976   6.427  0.5927 -1.1371 -2.2236
  119OSM    H6G12510   2.520   5.093   6.401  0.2267  1.1277  2.9848
  119OSM    C7F12511   2.341   5.149   6.300  0.4935 -0.1123 -0.0434
  119OSM    H7F12512   2.242   5.178   6.340  1.6375  0.1983  2.8852
  119OSM    H7G12513   2.327   5.083   6.213  1.0441 -0.1189 -0.1329
  119OSM    C8F12514   2.420   5.281   6.260  0.4005  0.5764 -1.4988
  119OSM    H8F12515   2.525   5.255   6.236  0.2271 -0.6603 -0.9842
  119OSM    H8G12516   2.416   5.355   6.344 -1.5165 -1.8654  0.7283
  119OSM    C9F12517   2.342   5.340   6.141 -0.3367 -0.4367  0.2137
  119OSM    H9F12518   2.243   5.386   6.151  0.2039  1.3115 -1.8266
  119OSM   C10F12519   2.392   5.341   6.017  0.6345 -0.2750  0.7542
  119OSM   H10F12520   2.324   5.381   5.940  2.1633  1.8764  0.4185
  119OSM   C11F12521   2.531   5.291   5.976  0.2157  0.0149  0.2061
  119OSM   H11F12522   2.599   5.253   6.055  2.4042  1.8685 -0.6787
  119OSM   H11G12523   2.584   5.371   5.921  0.2655 -1.0209 -1.3183
  119OSM   C12F12524   2.514   5.174   5.876 -0.2802  0.0584  0.0994
  119OSM   H12F12525   2.437   5.100   5.907  1.4702 -1.2541  1.5328
  119OSM   H12G12526   2.614   5.126   5.879  0.5161  1.6954  2.3019
  119OSM   C13F12527   2.494   5.230   5.734 -0.4462 -0.0381  0.1019
  119OSM   H13F12528   2.483   5.341   5.740 -1.5085 -0.1919  1.7205
  119OSM   H13G12529   2.415   5.180   5.674  0.0518  1.1243 -1.5880
  119OSM   C14F12530   2.608   5.177   5.649 -0.1122  0.0663  0.4812
  119OSM   H14F12531   2.599   5.066   5.643 -0.4665  0.0600  1.0343
  119OSM   H14G12532   2.707   5.210   5.688  1.7187 -2.0607 -2.0299
  119OSM   C15F12533   2.591   5.237   5.509 -1.3267  0.2713 -0.4621
  119OSM   H15F12534   2.611   5.346   5.504  0.9884 -0.0559  0.5302
  119OSM   H15G12535   2.485   5.228   5.478 -0.5778 -1.6659 -2.7227
  119OSM   C16F12536   2.681   5.176   5.399  0.0477  0.2342 -0.5127
  119OSM   H16F12537   2.652   5.070   5.383  1.2260 -0.3657  1.1134
  119OSM   H16G12538   2.786   5.170   5.433  0.2738  0.8503 -1.0804
  119OSM   C17F12539   2.672   5.228   5.258  0.2494 -0.1055 -0.2887
  119OSM   H17F12540   2.732   5.157   5.197 -0.8952 -3.0873  1.7876
  119OSM   H17G12541   2.734   5.320   5.259  2.1405 -1.2942 -1.7061
  119OSM   C18F12542   2.536   5.278   5.203 -0.7502  0.6913  0.6044
  119OSM   H18F12543   2.481   5.344   5.273  0.2148  1.1179  0.9784
  119OSM   H18G12544   2.472   5.191   5.178 -0.2970 -0.1401  2.2197
  119OSM   H18H12545   2.556   5.342   5.114 -1.0323  0.2971  0.2520
  120OSM      N12546   4.404   5.605   7.399  0.0752  0.1108 -0.9899
  120OSM    C1512547   4.416   5.719   7.499 -0.1680 -0.0278 -0.5302
  120OSM   H15A12548   4.368   5.810   7.466 -2.0342 -0.4935  0.7191
  120OSM   H15B12549   4.517   5.752   7.516 -0.3612  0.2178  0.1762
  120OSM   H15C12550   4.366   5.698   7.593 -0.4312  1.4194 -0.3212
  120OSM    C1412551   4.464   5.486   7.460  0.4260  0.0711  0.1520
  120OSM   H14A12552   4.568   5.496   7.485  0.1112  1.3366  1.0713
  120OSM   H14B12553   4.460   5.405   7.389 -0.7294 -0.9779  1.3453
  120OSM   H14C12554   4.409   5.443   7.542 -0.6331  0.6673 -0.2222
  120OSM    C1312555   4.263   5.585   7.377 -0.1769  0.4263 -0.1436
  120OSM   H13A12556   4.215   5.669   7.330 -0.0769  1.2593  1.1803
  120OSM   H13B12557   4.221   5.565   7.475 -1.4442  2.8366 -0.1337
  120OSM   H13C12558   4.236   5.499   7.317  0.3362  0.7326 -0.8226
  120OSM    C1212559   4.472   5.653   7.267 -0.1523 -0.1263 -0.4568
  120OSM   H12A12560   4.575   5.679   7.287 -0.5876  2.6399 -1.3950
  120OSM   H12B12561   4.436   5.752   7.245  0.7883  0.1301 -0.8608
  120OSM    C1112562   4.473   5.561   7.147  0.7277  0.7322 -0.1613
  120OSM   H11A12563   4.506   5.611   7.054  0.1032 -0.5646 -1.1105
  120OSM   H11B12564   4.365   5.541   7.131  1.2001 -1.2931 -1.0847
  120OSM      P12565   4.695   5.424   7.160  0.7188 -0.3704 -0.4895
  120OSM    O1312566   4.774   5.550   7.178 -0.3444  0.3346  0.5723
  120OSM    O1412567   4.725   5.315   7.257 -0.3321  0.2598 -0.2260
  120OSM    O1112568   4.718   5.378   7.014 -0.1179  0.0664  0.5017
  120OSM    O1212569   4.539   5.435   7.166 -0.1136 -0.0987 -0.0156
  120OSM    C1S12570   4.691   5.242   6.963 -0.0854 -0.3855 -0.5787
  120OSM    H1S12571   4.616   5.192   7.029  0.6974  1.9277  2.2801
  120OSM    H1T12572   4.786   5.185   6.962  0.1285 -0.1217 -3.2214
  120OSM     NF12573   4.603   5.102   6.773  0.0166  0.1550 -0.1977
  120OSM    HNF12574   4.671   5.047   6.725  0.3349 -0.5954  1.0893
  120OSM    C2S12575   4.652   5.239   6.814  0.3611 -0.7110  0.3856
  120OSM    H2S12576   4.568   5.311   6.806 -0.4426 -1.6469  0.2520
  120OSM    C3S12577   4.755   5.311   6.722 -0.2741 -0.0962 -0.9445
  120OSM    H3S12578   4.852   5.259   6.737 -1.0818 -1.4351 -0.0745
  120OSM     O312579   4.778   5.450   6.761 -0.6179 -0.0543 -0.0956
  120OSM    HO312580   4.755   5.452   6.854  2.0353 -0.1808  0.6508
  120OSM    C4S12581   4.716   5.303   6.575 -0.1494 -0.2064 -0.5249
  120OSM    H4S12582   4.756   5.214   6.523  0.7280  0.7979 -1.6131
  120OSM    C5S12583   4.633   5.379   6.500 -0.2873  0.0161  0.1082
  120OSM    H5S12584   4.592   5.467   6.552  2.0212  1.9040 -1.0756
  120OSM    C6S12585   4.589   5.363   6.357 -0.1320  0.2728  0.1448
  120OSM    H6S12586   4.480   5.342   6.361  0.0585 -1.0448 -0.8027
  120OSM    H6T12587   4.627   5.270   6.310 -0.1077  0.4539 -0.1932
  120OSM    C7S12588   4.604   5.490   6.278 -0.3013  0.4580  0.6051
  120OSM    H7S12589   4.710   5.509   6.250 -0.6188  1.7062  0.2054
  120OSM    H7T12590   4.564   5.572   6.341 -0.4749 -0.7826  2.1723
  120OSM    C8S12591   4.537   5.495   6.140 -0.2652  0.1328 -0.2849
  120OSM    H8S12592   4.432   5.483   6.175 -0.0196  0.0449  0.4389
  120OSM    H8T12593   4.575   5.416   6.072 -0.9046  0.0774 -0.5841
  120OSM    C9S12594   4.556   5.637   6.080 -0.6495 -0.1160 -0.1858
  120OSM    H9S12595   4.664   5.662   6.072 -0.8292  0.7573 -0.0023
  120OSM    H9T12596   4.503   5.709   6.146 -1.7487  0.4121 -1.5805
  120OSM   C10S12597   4.494   5.657   5.941 -0.6413 -0.0537  0.1966
  120OSM   H10S12598   4.466   5.765   5.940 -1.2368 -0.1852  1.1818
  120OSM   H10T12599   4.407   5.588   5.933 -0.6733  0.0469 -0.3275
  120OSM   C11S12600   4.603   5.633   5.836 -0.1370  0.6277  0.4976
  120OSM   H11S12601   4.641   5.532   5.863 -0.3325  0.7880  1.4121
  120OSM   H11T12602   4.661   5.727   5.849 -0.2754  0.6189  1.2253
  120OSM   C12S12603   4.559   5.621   5.692 -0.2513 -0.3551 -0.0401
  120OSM   H12S12604   4.509   5.713   5.654 -0.0115 -1.2438 -2.7109
  120OSM   H12T12605   4.502   5.530   5.663  0.9287 -0.9372 -0.6502
  120OSM   C13S12606   4.683   5.599   5.601  0.0093  0.6039 -0.3156
  120OSM   H13S12607   4.718   5.495   5.616 -1.1050  0.0663 -1.2549
  120OSM   H13T12608   4.765   5.671   5.621 -1.0903  2.1370 -1.0355
  120OSM   C14S12609   4.641   5.604   5.454 -0.0584  0.2404 -0.0211
  120OSM   H14S12610   4.610   5.707   5.425 -2.6881 -0.1901  1.0442
  120OSM   H14T12611   4.555   5.536   5.436  0.7381 -0.6308 -0.6358
  120OSM   C15S12612   4.750   5.565   5.358 -0.0541  0.2859 -1.1632
  120OSM   H15S12613   4.797   5.470   5.392  0.0423  0.1665 -1.6237
  120OSM   H15T12614   4.829   5.643   5.362  0.2745 -0.0389 -1.2096
  120OSM   C16S12615   4.700   5.548   5.220  0.0379 -0.4103  0.2510
  120OSM   H16S12616   4.642   5.638   5.192  1.0430  0.4006  0.6990
  120OSM   H16T12617   4.633   5.459   5.219 -1.1721  0.4812 -0.1318
  120OSM   C17S12618   4.816   5.524   5.122  0.0438 -0.1743  0.1533
  120OSM   H17S12619   4.861   5.435   5.171 -0.6938 -0.5058  0.2475
  120OSM   H17T12620   4.881   5.614   5.124 -1.3913  0.9256 -0.5267
  120OSM   C18S12621   4.776   5.494   4.977  0.3543 -0.5840 -0.1067
  120OSM   H18S12622   4.719   5.399   4.979 -1.6872  0.5208 -1.4887
  120OSM   H18T12623   4.873   5.486   4.924 -0.0315  1.4960 -1.2588
  120OSM   H18U12624   4.719   5.576   4.928  0.5747 -1.3249 -1.6534
  120OSM    C1F12625   4.483   5.050   6.789  0.7239 -0.1309 -0.1584
  120OSM     OF12626   4.402   5.100   6.865  0.0649 -0.0566 -0.1816
  120OSM    C2F12627   4.445   4.922   6.712  0.1558  0.2881 -0.0580
  120OSM    H2F12628   4.399   4.849   6.781 -1.0592 -1.6094 -2.6988
  120OSM    H2G12629   4.538   4.879   6.669 -0.3754 -1.3074  0.3483
  120OSM    C3F12630   4.341   4.957   6.599 -0.0508  0.2904  0.0098
  120OSM    H3F12631   4.366   5.055   6.553 -1.2444  0.3804 -0.4937
  120OSM    H3G12632   4.247   4.964   6.657 -0.0667  2.7405 -0.1793
  120OSM    C4F12633   4.338   4.846   6.501 -0.0079  0.9338  0.9720
  120OSM    H4F12634   4.236   4.846   6.458  0.9843  0.6864 -1.5772
  120OSM    H4G12635   4.361   4.747   6.545  1.5955  0.8264 -0.0340
  120OSM    C5F12636   4.433   4.863   6.377 -0.5015  0.2323  0.9007
  120OSM    H5F12637   4.425   4.785   6.298  0.8143 -0.5357  1.4922
  120OSM    H5G12638   4.539   4.851   6.407  0.5793  1.2761 -2.1269
  120OSM    C6F12639   4.428   5.002   6.305 -0.4380 -0.8161 -0.7365
  120OSM    H6F12640   4.459   5.084   6.374 -2.1164 -0.9802  0.2803
  120OSM    H6G12641   4.321   5.030   6.289 -0.3918 -0.0008  0.2409
  120OSM    C7F12642   4.511   4.998   6.174 -0.0841 -0.6430 -0.3225
  120OSM    H7F12643   4.612   4.970   6.211 -0.5319 -0.0435  1.4474
  120OSM    H7G12644   4.519   5.103   6.138  2.4163 -1.0910 -1.3344
  120OSM    C8F12645   4.451   4.914   6.060  0.4721  0.3756 -0.0027
  120OSM    H8F12646   4.364   4.966   6.013  0.6038 -0.5857 -1.3869
  120OSM    H8G12647   4.394   4.825   6.092  1.6099 -0.4865 -0.3044
  120OSM    C9F12648   4.558   4.867   5.965  0.3353 -0.2823  0.5425
  120OSM    H9F12649   4.632   4.797   6.007 -1.9586 -2.2749  1.5218
  120OSM   C10F12650   4.551   4.869   5.826  0.0061  0.3840  0.3130
  120OSM   H10F12651   4.639   4.845   5.765 -0.3918  0.8716 -0.4666
  120OSM   C11F12652   4.443   4.928   5.741  1.3320  0.4935 -0.4548
  120OSM   H11F12653   4.340   4.922   5.783 -0.5829 -0.0159 -4.6930
  120OSM   H11G12654   4.417   4.863   5.655 -0.5069 -1.2691  1.3490
  120OSM   C12F12655   4.476   5.073   5.700 -0.6682  0.0876  0.0100
  120OSM   H12F12656   4.511   5.130   5.789  0.2628  2.0686 -1.5491
  120OSM   H12G12657   4.381   5.126   5.676 -2.3017 -1.2484  2.9263
  120OSM   C13F12658   4.579   5.090   5.593 -0.9653  0.3861 -0.2424
  120OSM   H13F12659   4.672   5.061   5.647 -0.9366  2.5138  0.9874
  120OSM   H13G12660   4.590   5.198   5.568 -1.4512 -0.2360 -3.5286
  120OSM   C14F12661   4.567   5.005   5.471 -0.0223  0.1524 -0.3633
  120OSM   H14F12662   4.477   5.038   5.414  0.1250  0.0626 -0.6491
  120OSM   H14G12663   4.567   4.896   5.496  2.1807  0.4133  1.0636
  120OSM   C15F12664   4.678   5.033   5.368  0.0458 -0.6380  0.1099
  120OSM   H15F12665   4.775   5.016   5.420 -0.4849 -0.7048  1.1074
  120OSM   H15G12666   4.671   5.141   5.342  0.3671 -0.5667  0.3132
  120OSM   C16F12667   4.662   4.945   5.237 -0.2831 -0.1080 -1.1716
  120OSM   H16F12668   4.555   4.964   5.213 -0.0155  0.7668 -1.7507
  120OSM   H16G12669   4.688   4.842   5.266 -1.2210  0.8414  4.0776
  120OSM   C17F12670   4.758   4.997   5.124 -0.3995 -0.5104 -0.1619
  120OSM   H17F12671   4.760   4.915   5.050 -0.4897  0.4468 -1.2525
  120OSM   H17G12672   4.860   5.005   5.167  0.2145 -2.7806 -1.0648
  120OSM   C18F12673   4.724   5.130   5.063 -0.0115 -0.0462 -0.0328
  120OSM   H18F12674   4.703   5.198   5.148 -1.1197  1.3579 -1.3629
  120OSM   H18G12675   4.630   5.117   5.005  0.3738 -0.9403 -0.4865
  120OSM   H18H12676   4.804   5.169   4.996  1.4154 -1.4569  0.7790
  121OSM      N12677   6.382   0.686   7.257  0.3732 -0.4158  0.4263
  121OSM    C1512678   6.430   0.603   7.376  0.0744 -0.0482  0.0519
  121OSM   H15A12679   6.528   0.634   7.408  1.2654 -1.2935 -2.1197
  121OSM   H15B12680   6.427   0.501   7.341  0.5380  0.5047 -1.6981
  121OSM   H15C12681   6.365   0.601   7.462  0.8146  1.1393  0.6572
  121OSM    C1412682   6.242   0.629   7.235  0.1167  0.4895  0.6584
  121OSM   H14A12683   6.197   0.640   7.333 -1.2130  0.6858  0.0493
  121OSM   H14B12684   6.252   0.523   7.217 -0.9497  0.2870  1.1466
  121OSM   H14C12685   6.180   0.680   7.163 -1.2153 -1.8053  0.0676
  121OSM    C1312686   6.365   0.828   7.289 -0.0525  0.4195 -0.6735
  121OSM   H13A12687   6.288   0.851   7.362  2.0434  0.1638  1.7666
  121OSM   H13B12688   6.314   0.876   7.207 -2.7454 -0.6631  0.2553
  121OSM   H13C12689   6.461   0.868   7.319  0.3372 -1.8488  1.4003
  121OSM    C1212690   6.483   0.663   7.145  0.3980  0.2093 -0.1257
  121OSM   H12A12691   6.581   0.680   7.190  0.3300 -0.0841  0.1365
  121OSM   H12B12692   6.471   0.743   7.074 -0.2963 -0.4271 -0.7273
  121OSM    C1112693   6.484   0.533   7.066  0.4132 -0.5617 -0.6496
  121OSM   H11A12694   6.557   0.526   6.983  0.7454 -4.9059 -0.2548
  121OSM   H11B12695   6.382   0.521   7.024 -0.0737 -0.2683  0.4017
  121OSM      P12696   6.652   0.354   7.155  0.3352 -0.5045  0.2376
  121OSM    O1312697   6.748   0.460   7.186  0.6379 -0.4429  0.8138
  121OSM    O1412698   6.652   0.245   7.256  0.3997  0.1609  0.7941
  121OSM    O1112699   6.668   0.297   7.004  0.0162  0.7991  0.1614
  121OSM    O1212700   6.509   0.424   7.150 -0.1303  0.4934  0.2023
  121OSM    C1S12701   6.567   0.216   6.947 -0.9945  0.5406  0.1952
  121OSM    H1S12702   6.471   0.272   6.934 -1.8696 -1.1266 -0.9940
  121OSM    H1T12703   6.537   0.139   7.021 -2.3334  2.1200  1.3750
  121OSM     NF12704   6.493   0.066   6.766  0.1942 -0.1568 -0.6132
  121OSM    HNF12705   6.502  -0.033   6.774 -1.5569 -0.2866  0.2690
  121OSM    C2S12706   6.603   0.155   6.808  0.0720 -0.9681  0.1012
  121OSM    H2S12707   6.608   0.237   6.734  0.6047 -1.5783 -0.5515
  121OSM    C3S12708   6.743   0.090   6.803  0.5215 -0.1741 -0.0147
  121OSM    H3S12709   6.738  -0.002   6.865  1.2316  1.2661  2.2818
  121OSM     O312710   6.854   0.162   6.873  0.4724  0.1725 -0.5257
  121OSM    HO312711   6.806   0.226   6.927 -0.5462 -0.9333 -0.0898
  121OSM    C4S12712   6.789   0.045   6.663  0.8276  0.1529 -0.4400
  121OSM    H4S12713   6.735  -0.044   6.626 -1.7566  0.6704  1.7536
  121OSM    C5S12714   6.894   0.089   6.591  0.1500 -0.0411  0.6513
  121OSM    H5S12715   6.952   0.171   6.635 -0.5991  0.7619  0.1547
  121OSM    C6S12716   6.936   0.047   6.452  0.2718  0.7409 -0.7042
  121OSM    H6S12717   6.930  -0.064   6.457  1.5792  0.7038  1.6870
  121OSM    H6T12718   7.046   0.064   6.444  0.0216  2.0537 -1.6515
  121OSM    C7S12719   6.864   0.123   6.338  0.1349  0.5212  0.2377
  121OSM    H7S12720   6.891   0.230   6.338  0.7412  0.3743  0.5474
  121OSM    H7T12721   6.757   0.111   6.364  0.1039  0.8434  0.2616
  121OSM    C8S12722   6.902   0.059   6.202 -0.3334  0.6408  0.6617
  121OSM    H8S12723   6.886  -0.051   6.196 -0.9885  0.6641  1.6836
  121OSM    H8T12724   7.011   0.079   6.191  0.0338 -1.0134  1.0796
  121OSM    C9S12725   6.842   0.126   6.081  0.0231 -0.6291  0.0548
  121OSM    H9S12726   6.892   0.222   6.056 -1.1215  0.1180  0.5560
  121OSM    H9T12727   6.733   0.142   6.095  0.0750 -0.1653 -0.0703
  121OSM   C10S12728   6.860   0.039   5.957  0.1201 -0.3085  0.2293
  121OSM   H10S12729   6.791  -0.048   5.969  0.4061 -0.8147 -1.6005
  121OSM   H10T12730   6.960  -0.007   5.947  1.0628  1.7509 -0.2972
  121OSM   C11S12731   6.826   0.120   5.831  0.1746 -0.1866  0.4735
  121OSM   H11S12732   6.867   0.222   5.817 -1.7658  0.6879  0.8538
  121OSM   H11T12733   6.716   0.140   5.830 -0.0737 -0.3151  4.9524
  121OSM   C12S12734   6.845   0.047   5.703 -0.0793  0.9962  0.1396
  121OSM   H12S12735   6.784  -0.046   5.696  0.0396  0.9914 -1.0239
  121OSM   H12T12736   6.947   0.005   5.695 -0.1390  0.6098  1.1752
  121OSM   C13S12737   6.825   0.135   5.574  0.2572  0.1843  0.1499
  121OSM   H13S12738   6.908   0.208   5.562  0.4123 -0.2196 -1.5063
  121OSM   H13T12739   6.732   0.194   5.591  0.6859  0.4948  1.5236
  121OSM   C14S12740   6.810   0.049   5.440 -0.4067 -0.3009  0.7683
  121OSM   H14S12741   6.720  -0.016   5.447  0.1533 -1.2334 -0.3119
  121OSM   H14T12742   6.892  -0.026   5.434 -0.3792 -0.6199  3.8386
  121OSM   C15S12743   6.798   0.130   5.307 -0.0720 -0.1901 -0.2537
  121OSM   H15S12744   6.830   0.068   5.221  1.5468 -0.6910  0.6543
  121OSM   H15T12745   6.870   0.214   5.313 -0.4396  0.1636 -0.7213
  121OSM   C16S12746   6.661   0.193   5.270  0.1215  0.2219  0.0226
  121OSM   H16S12747   6.583   0.113   5.268  1.9177 -1.6887  1.6232
  121OSM   H16T12748   6.674   0.237   5.169  2.8551  2.7783  1.3229
  121OSM   C17S12749   6.602   0.311   5.352  0.1117  0.4825 -0.0811
  121OSM   H17S12750   6.680   0.385   5.380 -1.5074  2.9733 -1.8276
  121OSM   H17T12751   6.548   0.269   5.440  1.5295 -0.1772  0.5185
  121OSM   C18S12752   6.504   0.380   5.266 -0.4982 -0.3097  0.1008
  121OSM   H18S12753   6.459   0.460   5.329  2.7298  1.1096  0.8119
  121OSM   H18T12754   6.430   0.312   5.220  1.3064 -0.9455 -2.0737
  121OSM   H18U12755   6.562   0.422   5.180  0.9894  0.7580  1.5676
  121OSM    C1F12756   6.376   0.116   6.724 -0.1744  0.9651 -0.1769
  121OSM     OF12757   6.357   0.239   6.704  0.2864  0.2688  0.4562
  121OSM    C2F12758   6.275   0.017   6.701 -0.5896 -0.0287  0.7225
  121OSM    H2F12759   6.252  -0.045   6.791  0.1458 -0.4581  0.6227
  121OSM    H2G12760   6.304  -0.062   6.628 -0.3702  0.1237  0.6459
  121OSM    C3F12761   6.141   0.089   6.658  0.0260  0.2985  0.5468
  121OSM    H3F12762   6.113   0.170   6.730  2.5317  0.3264  1.6003
  121OSM    H3G12763   6.058   0.016   6.662  0.5982 -0.3163  1.7178
  121OSM    C4F12764   6.157   0.143   6.514  0.3139  0.7634 -0.1673
  121OSM    H4F12765   6.188   0.061   6.446  1.2558  1.2966 -0.3933
  121OSM    H4G12766   6.242   0.214   6.505 -0.1671  1.3310 -0.3291
  121OSM    C5F12767   6.030   0.213   6.455  0.5429  0.8698  0.3852
  121OSM    H5F12768   6.005   0.305   6.512  0.3700  0.8928  0.2708
  121OSM    H5G12769   5.941   0.148   6.465 -0.9132  2.9406  1.7200
  121OSM    C6F12770   6.047   0.251   6.304 -0.2658 -0.6088 -0.0341
  121OSM    H6F12771   5.942   0.262   6.268 -0.7981 -0.4713  1.4906
  121OSM    H6G12772   6.090   0.169   6.243 -0.5303 -1.3376  0.7329
  121OSM    C7F12773   6.124   0.380   6.287  0.0452  0.4152 -0.3564
  121OSM    H7F12774   6.223   0.369   6.335  0.0509  0.0240 -0.4591
  121OSM    H7G12775   6.071   0.457   6.347  0.5693 -0.0966  0.7739
  121OSM    C8F12776   6.132   0.407   6.138  0.4945 -0.2639  0.2198
  121OSM    H8F12777   6.181   0.319   6.091 -0.5217 -0.6528 -0.1555
  121OSM    H8G12778   6.198   0.495   6.124 -0.5447  0.5855  0.5049
  121OSM    C9F12779   5.997   0.436   6.070 -0.6239 -0.4753  0.2641
  121OSM    H9F12780   5.925   0.495   6.128 -2.3862 -0.8966 -1.3953
  121OSM   C10F12781   5.956   0.390   5.949  0.6649 -0.0555 -0.5097
  121OSM   H10F12782   5.867   0.442   5.910 -0.3691 -1.0347  0.4799
  121OSM   C11F12783   6.030   0.307   5.844  0.4093  0.3200  0.3170
  121OSM   H11F12784   6.002   0.200   5.852 -0.8100  0.7412  2.1076
  121OSM   H11G12785   6.136   0.305   5.875  0.1241 -0.5194  1.2962
  121OSM   C12F12786   6.021   0.351   5.699 -0.5380 -0.1028 -0.1328
  121OSM   H12F12787   6.085   0.281   5.642  1.6196  0.1874  1.7764
  121OSM   H12G12788   6.063   0.453   5.687 -0.6033  0.2470  2.1551
  121OSM   C13F12789   5.882   0.347   5.642 -0.9690 -0.1959  0.2057
  121OSM   H13F12790   5.852   0.454   5.644  0.3204  0.1872  0.8520
  121OSM   H13G12791   5.807   0.294   5.705 -2.1275  1.8738  0.6471
  121OSM   C14F12792   5.875   0.286   5.500  0.2644 -0.6862 -0.1301
  121OSM   H14F12793   5.772   0.289   5.457  0.7874  0.1142 -1.3716
  121OSM   H14G12794   5.902   0.180   5.520  1.3495  0.1516  3.9378
  121OSM   C15F12795   5.979   0.347   5.399  0.0480 -0.7613 -0.1004
  121OSM   H15F12796   5.967   0.290   5.305  1.1370  1.6364 -1.7911
  121OSM   H15G12797   6.083   0.334   5.437  0.0287  2.1643  1.1975
  121OSM   C16F12798   5.949   0.496   5.357  0.1024  0.2844  0.1756
  121OSM   H16F12799   5.956   0.562   5.446 -2.4063 -1.2015  1.5807
  121OSM   H16G12800   5.848   0.495   5.309 -0.1219 -2.4476  0.5684
  121OSM   C17F12801   6.048   0.552   5.250  0.1836 -0.0025  0.4628
  121OSM   H17F12802   6.033   0.662   5.249 -0.2470 -0.0599 -0.3865
  121OSM   H17G12803   6.039   0.520   5.144  3.1439 -2.2993  0.7598
  121OSM   C18F12804   6.193   0.547   5.293  0.6839  0.0513 -0.0719
  121OSM   H18F12805   6.228   0.454   5.244 -1.9571  0.2736 -2.6727
  121OSM   H18G12806   6.201   0.533   5.403 -2.5924  1.4566  0.4673
  121OSM   H18H12807   6.241   0.644   5.267 -2.5636  2.2796  1.5712
  122OSM      N12808   5.621   2.824   7.303 -0.3601  0.3101 -0.3559
  122OSM    C1512809   5.769   2.809   7.311  0.1567 -0.3282  0.1991
  122OSM   H15A12810   5.795   2.707   7.335 -0.6455 -0.2522  1.4931
  122OSM   H15B12811   5.804   2.882   7.383 -0.2285  0.3425 -0.2873
  122OSM   H15C12812   5.816   2.824   7.215 -1.3014  1.7720 -0.2561
  122OSM    C1412813   5.565   2.706   7.234 -0.2754  0.8078  0.3980
  122OSM   H14A12814   5.459   2.718   7.220 -0.6650 -1.4181  1.0338
  122OSM   H14B12815   5.576   2.611   7.285 -0.7892  0.3263 -0.3676
  122OSM   H14C12816   5.613   2.691   7.138 -1.6581  1.2412 -0.3897
  122OSM    C1312817   5.570   2.825   7.443  0.1871 -0.6592  0.4896
  122OSM   H13A12818   5.635   2.890   7.500 -0.4781  0.8323 -0.4171
  122OSM   H13B12819   5.573   2.731   7.496  1.7064 -1.6521 -1.2256
  122OSM   H13C12820   5.468   2.858   7.452  0.1880 -0.3595 -0.4864
  122OSM    C1212821   5.588   2.948   7.227 -0.5458 -0.3579  0.0008
  122OSM   H12A12822   5.624   3.031   7.285 -0.8467 -0.6436  0.6041
  122OSM   H12B12823   5.480   2.950   7.227 -0.5868  1.8955  2.1095
  122OSM    C1112824   5.631   2.957   7.079  0.2390 -0.2605  0.0465
  122OSM   H11A12825   5.599   3.056   7.041  2.0399 -0.2451 -1.5763
  122OSM   H11B12826   5.565   2.889   7.021 -0.1919  0.8877 -0.8298
  122OSM      P12827   5.894   2.988   7.033  0.2572  0.2578 -0.2581
  122OSM    O1312828   5.861   3.127   7.068 -0.5337 -0.1315  0.0458
  122OSM    O1412829   5.996   2.911   7.114  0.2961 -0.5717  0.5191
  122OSM    O1112830   5.933   2.974   6.876  0.2393  0.1465  0.6855
  122OSM    O1212831   5.758   2.901   7.039  0.2051 -0.3815  0.1519
  122OSM    C1S12832   5.894   2.865   6.796  0.4227  0.2780  1.0255
  122OSM    H1S12833   5.804   2.814   6.836  0.5872  2.3641  4.3945
  122OSM    H1T12834   5.970   2.786   6.812 -1.0380 -1.0749  1.5358
  122OSM     NF12835   6.006   2.876   6.585  0.2822  0.4582  0.6415
  122OSM    HNF12836   6.065   2.955   6.598  0.1583  0.3583  1.8876
  122OSM    C2S12837   5.880   2.905   6.647  0.3636 -0.0772  0.3690
  122OSM    H2S12838   5.796   2.841   6.613  1.3124 -1.3207  0.3204
  122OSM    C3S12839   5.833   3.052   6.636 -0.0911  0.0432 -0.4782
  122OSM    H3S12840   5.906   3.111   6.696  0.4003 -1.2105  0.1873
  122OSM     O312841   5.715   3.086   6.709 -0.0299 -0.8165 -0.0631
  122OSM    HO312842   5.690   3.014   6.767 -2.1575  0.1206  0.2618
  122OSM    C4S12843   5.830   3.104   6.488  0.0619 -0.3432 -0.6222
  122OSM    H4S12844   5.922   3.154   6.455 -0.9442  0.8360 -1.7666
  122OSM    C5S12845   5.738   3.094   6.389 -0.5826  0.0424 -0.0149
  122OSM    H5S12846   5.639   3.047   6.402  0.5647 -2.4218  0.2473
  122OSM    C6S12847   5.756   3.145   6.246  0.0182 -0.0815 -0.0059
  122OSM    H6S12848   5.686   3.229   6.225 -0.1653 -0.3372 -0.4467
  122OSM    H6T12849   5.731   3.065   6.173 -0.7717  0.3113 -0.1743
  122OSM    C7S12850   5.897   3.189   6.193  0.2190 -0.1129 -0.0782
  122OSM    H7S12851   5.966   3.103   6.184  0.7991  0.4402 -1.0843
  122OSM    H7T12852   5.935   3.269   6.260  0.6406  0.8176 -1.3747
  122OSM    C8S12853   5.881   3.267   6.062 -0.4221  0.2908 -0.8456
  122OSM    H8S12854   5.976   3.318   6.038  0.4499 -0.3104  1.1496
  122OSM    H8T12855   5.817   3.357   6.070 -1.2258 -0.3496  0.2868
  122OSM    C9S12856   5.839   3.176   5.945 -0.8612 -0.4083  0.2188
  122OSM    H9S12857   5.729   3.181   5.937 -1.1370  2.5993  3.5706
  122OSM    H9T12858   5.865   3.073   5.978 -1.4107  0.1022  2.3555
  122OSM   C10S12859   5.886   3.223   5.803 -0.7036 -0.1454  0.6168
  122OSM   H10S12860   5.866   3.138   5.734 -0.4630 -1.0785  1.6680
  122OSM   H10T12861   5.996   3.235   5.801 -0.7419  0.3381  1.0826
  122OSM   C11S12862   5.829   3.364   5.766 -0.4788  1.2262 -0.4081
  122OSM   H11S12863   5.881   3.447   5.820 -1.1249  1.2543  0.1778
  122OSM   H11T12864   5.722   3.356   5.795 -0.0599  0.3417  1.0298
  122OSM   C12S12865   5.823   3.384   5.614 -0.4736 -0.1603  0.0193
  122OSM   H12S12866   5.755   3.471   5.606 -0.9504 -0.5065  0.2057
  122OSM   H12T12867   5.768   3.295   5.574 -1.8355  0.2210  0.9582
  122OSM   C13S12868   5.955   3.404   5.540 -0.3229 -0.5593 -1.0165
  122OSM   H13S12869   6.009   3.314   5.577 -2.6924 -1.6909 -0.1037
  122OSM   H13T12870   6.007   3.497   5.570 -1.2290 -0.4291  0.2339
  122OSM   C14S12871   5.959   3.397   5.391  0.1060 -1.0911  0.4457
  122OSM   H14S12872   6.064   3.397   5.357 -0.1710  1.1988 -0.5238
  122OSM   H14T12873   5.900   3.483   5.355  0.5299 -1.2095 -0.5725
  122OSM   C15S12874   5.886   3.271   5.330 -0.1276 -0.0940 -0.0568
  122OSM   H15S12875   5.776   3.268   5.343 -0.0454 -3.6502  0.7211
  122OSM   H15T12876   5.912   3.185   5.394  0.5876 -0.2310 -0.5213
  122OSM   C16S12877   5.924   3.237   5.190 -0.0610  0.2391  0.0806
  122OSM   H16S12878   6.031   3.265   5.174 -0.1897  0.9404  0.4157
  122OSM   H16T12879   5.865   3.304   5.123 -0.2392  0.1120  0.1104
  122OSM   C17S12880   5.903   3.096   5.152 -0.4257 -0.0075 -0.1226
  122OSM   H17S12881   5.793   3.091   5.136 -0.2450 -0.2109 -1.4270
  122OSM   H17T12882   5.928   3.029   5.237 -0.4805  0.2102  0.0672
  122OSM   C18S12883   5.980   3.041   5.029 -0.0875  0.2233  0.2310
  122OSM   H18S12884   5.957   2.932   5.026 -1.3130  0.4307 -3.7114
  122OSM   H18T12885   6.090   3.054   5.041 -0.0061  0.6174 -0.8297
  122OSM   H18U12886   5.947   3.089   4.934  2.6386  2.6279  0.3683
  122OSM    C1F12887   6.054   2.764   6.536 -0.1800 -0.8951  0.7369
  122OSM     OF12888   5.980   2.665   6.522 -0.2470 -0.3817 -0.3260
  122OSM    C2F12889   6.204   2.763   6.508  0.3096 -0.7197  0.3986
  122OSM    H2F12890   6.227   2.666   6.459  0.4765  0.3245 -1.6890
  122OSM    H2G12891   6.253   2.786   6.605  1.6836 -0.3457 -0.3721
  122OSM    C3F12892   6.258   2.882   6.417  0.1286  0.0578  0.8155
  122OSM    H3F12893   6.368   2.877   6.396 -0.1281  3.1837 -2.4798
  122OSM    H3G12894   6.247   2.986   6.456  2.4012  0.0552  1.6152
  122OSM    C4F12895   6.206   2.877   6.279  0.1373 -0.2757  0.1220
  122OSM    H4F12896   6.095   2.874   6.270  0.1453  1.6077 -1.2696
  122OSM    H4G12897   6.248   2.788   6.227 -1.9184 -2.5754  2.1281
  122OSM    C5F12898   6.251   2.993   6.184  0.3636 -0.2455 -0.9949
  122OSM    H5F12899   6.361   3.007   6.192  0.2950  0.3366 -1.0526
  122OSM    H5G12900   6.195   3.079   6.226 -1.2219 -1.6652 -0.0818
  122OSM    C6F12901   6.198   2.960   6.044  0.2107  0.9184 -0.2089
  122OSM    H6F12902   6.087   2.953   6.037  0.1496  2.2486 -0.8235
  122OSM    H6G12903   6.261   2.872   6.018  0.9180  1.4213 -0.2380
  122OSM    C7F12904   6.230   3.069   5.940 -0.4976 -0.2954 -0.5519
  122OSM    H7F12905   6.326   3.110   5.978 -2.4507  1.5503  2.8239
  122OSM    H7G12906   6.155   3.151   5.935  1.1633  1.2213 -1.7649
  122OSM    C8F12907   6.258   3.035   5.792 -0.8134  0.7092  0.2410
  122OSM    H8F12908   6.344   2.964   5.790 -0.7210  0.8404 -1.0998
  122OSM    H8G12909   6.278   3.131   5.740 -1.5035  1.5730  1.5137
  122OSM    C9F12910   6.146   2.963   5.725 -0.6055  0.5155  0.0508
  122OSM    H9F12911   6.062   2.928   5.787 -1.2602  2.0643  0.0863
  122OSM   C10F12912   6.133   2.941   5.594  0.2804 -0.2428 -0.3916
  122OSM   H10F12913   6.049   2.882   5.556  1.2248 -1.6645 -0.3246
  122OSM   C11F12914   6.244   2.967   5.485  0.0993 -0.2943 -0.3824
  122OSM   H11F12915   6.228   2.900   5.397  0.3504 -0.2057 -0.4959
  122OSM   H11G12916   6.344   2.944   5.526 -0.1999 -3.8133 -1.2974
  122OSM   C12F12917   6.265   3.109   5.423  0.2173 -0.4735 -0.5364
  122OSM   H12F12918   6.267   3.186   5.504  1.8733  2.2210 -2.9262
  122OSM   H12G12919   6.168   3.135   5.375 -1.1395 -0.4252  2.0349
  122OSM   C13F12920   6.377   3.113   5.311  0.5061  0.3360  0.3179
  122OSM   H13F12921   6.364   3.032   5.236  0.8360 -0.6217  1.2686
  122OSM   H13G12922   6.481   3.103   5.349  0.9317 -0.0703 -0.9122
  122OSM   C14F12923   6.350   3.241   5.233 -0.3090 -0.3585  0.4008
  122OSM   H14F12924   6.340   3.337   5.288 -0.4567 -0.5724  0.7582
  122OSM   H14G12925   6.254   3.227   5.179 -0.6414  0.5537  0.7367
  122OSM   C15F12926   6.457   3.271   5.126 -0.0726 -0.0868  0.2401
  122OSM   H15F12927   6.489   3.175   5.082  0.2620  0.0253  0.2331
  122OSM   H15G12928   6.546   3.325   5.164 -1.0420  1.9148 -0.1784
  122OSM   C16F12929   6.414   3.371   5.017 -0.0052  0.6709  0.5556
  122OSM   H16F12930   6.392   3.472   5.057 -1.7199  0.7696 -0.5261
  122OSM   H16G12931   6.322   3.325   4.973 -0.2755  0.3819  1.3994
  122OSM   C17F12932   6.514   3.381   4.901  0.6944 -0.4906 -0.5355
  122OSM   H17F12933   6.457   3.386   4.806  0.0328  2.2137 -0.0802
  122OSM   H17G12934   6.576   3.289   4.888  2.3416  0.5995 -0.6750
  122OSM   C18F12935   6.604   3.511   4.906  0.3226 -0.2966  0.1003
  122OSM   H18F12936   6.637   3.539   5.008  0.2158 -1.3250  0.4252
  122OSM   H18G12937   6.542   3.586   4.853 -0.6287 -0.8641  0.3763
  122OSM   H18H12938   6.686   3.500   4.831 -1.2637 -0.3622 -1.7236
  123OSM      N12939   3.606   2.002   2.715  0.4710  0.2107  0.1994
  123OSM    C1512940   3.551   2.096   2.621  0.6976  0.4126 -0.8639
  123OSM   H15A12941   3.534   2.045   2.528  0.7419 -1.0759 -0.0883
  123OSM   H15B12942   3.614   2.182   2.608 -0.3125  1.6330  1.5830
  123OSM   H15C12943   3.457   2.130   2.663  0.7659 -1.6236  1.1666
  123OSM    C1412944   3.723   1.946   2.641  0.3978  0.0731 -0.2250
  123OSM   H14A12945   3.766   1.868   2.703  0.4787  0.2674 -0.0336
  123OSM   H14B12946   3.807   2.013   2.628  1.5451 -1.4104 -0.7962
  123OSM   H14C12947   3.699   1.908   2.543  2.2867  1.6667 -1.3881
  123OSM    C1312948   3.640   2.080   2.838 -0.2362 -0.7202  0.0619
  123OSM   H13A12949   3.565   2.092   2.915 -0.2138  1.6048 -0.2374
  123OSM   H13B12950   3.669   2.181   2.815 -1.5032 -0.6997 -1.5527
  123OSM   H13C12951   3.726   2.039   2.890 -0.5865  0.8154  1.9672
  123OSM    C1212952   3.511   1.891   2.754  0.7095 -0.3954 -0.5921
  123OSM   H12A12953   3.478   1.846   2.661  3.6964 -4.0075 -0.1271
  123OSM   H12B12954   3.425   1.932   2.805  0.0874 -1.4109 -0.8005
  123OSM    C1112955   3.564   1.781   2.844  0.2313 -0.5625 -0.2248
  123OSM   H11A12956   3.470   1.732   2.877 -1.5431  1.3460 -2.1998
  123OSM   H11B12957   3.613   1.831   2.930 -1.4884  0.3716  0.2456
  123OSM      P12958   3.592   1.585   2.683  0.0158 -0.0121  0.2925
  123OSM    O1312959   3.493   1.644   2.583 -0.7473  0.4283  0.1850
  123OSM    O1412960   3.698   1.501   2.621  0.2839 -0.8498  0.1159
  123OSM    O1112961   3.506   1.491   2.774 -0.4409 -0.6244 -0.1545
  123OSM    O1212962   3.660   1.696   2.773  0.1484  0.8148  0.1688
  123OSM    C1S12963   3.571   1.413   2.879 -0.2531 -0.3687 -0.8813
  123OSM    H1S12964   3.656   1.471   2.922 -0.6456 -0.2729 -0.2176
  123OSM    H1T12965   3.601   1.315   2.835 -0.7624 -0.7047 -0.4966
  123OSM     NF12966   3.544   1.293   3.100 -0.2062  0.2051 -0.0311
  123OSM    HNF12967   3.533   1.194   3.105  3.8225 -0.5955 -2.2784
  123OSM    C2S12968   3.476   1.363   2.990  0.0442 -0.3612 -0.0862
  123OSM    H2S12969   3.445   1.464   3.026 -0.4907 -0.7629  0.6220
  123OSM    C3S12970   3.348   1.286   2.946  0.1732  0.3150  0.6468
  123OSM    H3S12971   3.376   1.182   2.920 -1.0326 -0.0208  0.6214
  123OSM     O312972   3.290   1.330   2.825 -0.5891  0.6910 -0.1117
  123OSM    HO312973   3.349   1.400   2.797 -0.6303  1.0499  0.6857
  123OSM    C4S12974   3.249   1.284   3.054  0.0301 -0.0176 -0.0579
  123OSM    H4S12975   3.246   1.199   3.124 -0.5629  0.4369  0.4863
  123OSM    C5S12976   3.154   1.378   3.074 -0.0127 -0.2692  0.4872
  123OSM    H5S12977   3.132   1.463   3.007 -0.2705 -1.7745 -1.4221
  123OSM    C6S12978   3.044   1.371   3.174 -0.1159  0.0401  0.5987
  123OSM    H6S12979   3.048   1.266   3.213 -1.6886  0.0148  0.7365
  123OSM    H6T12980   2.948   1.388   3.121  0.4136 -0.0959 -0.4186
  123OSM    C7S12981   3.045   1.473   3.299 -0.4377 -0.5376  0.7985
  123OSM    H7S12982   2.944   1.468   3.346 -0.3234  0.1252  1.1340
  123OSM    H7T12983   3.062   1.574   3.256  1.6910 -1.6594 -1.1770
  123OSM    C8S12984   3.155   1.437   3.405  0.2847  0.4658 -0.1040
  123OSM    H8S12985   3.154   1.523   3.476  3.5782  1.5447 -1.2017
  123OSM    H8T12986   3.257   1.440   3.363  0.2948  1.5526 -0.0282
  123OSM    C9S12987   3.139   1.304   3.477 -0.3994 -0.5019  0.2133
  123OSM    H9S12988   3.202   1.223   3.434 -0.1622 -1.5307  2.3933
  123OSM    H9T12989   3.035   1.271   3.459  0.3322 -3.1578  0.3578
  123OSM   C10S12990   3.158   1.319   3.631  0.0046  0.4060  0.1837
  123OSM   H10S12991   3.117   1.233   3.687 -2.5081  0.2874 -1.6821
  123OSM   H10T12992   3.102   1.410   3.661  1.9962  2.2207 -1.2672
  123OSM   C11S12993   3.310   1.340   3.668 -0.5693 -0.6342  0.1818
  123OSM   H11S12994   3.339   1.440   3.629 -1.9382 -0.1024  0.4825
  123OSM   H11T12995   3.372   1.266   3.614  1.6604  0.9349  0.4454
  123OSM   C12S12996   3.354   1.325   3.818  0.8180 -0.1863 -0.6891
  123OSM   H12S12997   3.312   1.401   3.887  1.9777 -1.1748  1.1907
  123OSM   H12T12998   3.464   1.326   3.830  0.6545 -0.1505  1.2746
  123OSM   C13S12999   3.308   1.189   3.872  0.2806 -0.2484 -0.3857
  123OSM   H13S13000   3.320   1.110   3.796 -1.6093 -1.5980  0.6248
  123OSM   H13T13001   3.198   1.189   3.887  0.1292  2.6485 -0.8193
  123OSM   C14S13002   3.379   1.134   4.004 -0.5249  0.4415 -0.0043
  123OSM   H14S13003   3.376   1.217   4.078  1.4737  0.1452  0.4802
  123OSM   H14T13004   3.475   1.093   3.967 -0.6032 -0.4077  0.6982
  123OSM   C15S13005   3.299   1.023   4.072  0.2207 -0.2553  0.4371
  123OSM   H15S13006   3.301   0.938   4.000 -0.6719  1.9251 -2.2955
  123OSM   H15T13007   3.193   1.053   4.080  0.3809  0.8306 -1.1060
  123OSM   C16S13008   3.358   0.976   4.208 -0.1760  0.0357  0.5173
  123OSM   H16S13009   3.466   0.949   4.199 -0.5773 -1.1399 -1.1867
  123OSM   H16T13010   3.301   0.888   4.243  1.5364 -1.0866  0.6200
  123OSM   C17S13011   3.332   1.080   4.314 -0.2710  0.2589  0.4002
  123OSM   H17S13012   3.227   1.110   4.335  0.6203  2.9853  1.3598
  123OSM   H17T13013   3.396   1.166   4.287  2.6652 -1.3998  1.5908
  123OSM   C18S13014   3.383   1.024   4.450 -0.7970  0.3079  0.2598
  123OSM   H18S13015   3.309   0.953   4.494  1.5304 -1.2076  1.9694
  123OSM   H18T13016   3.395   1.107   4.523 -0.9546  0.1054  0.5192
  123OSM   H18U13017   3.483   0.976   4.445 -0.0164  1.8180  0.7507
  123OSM    C1F13018   3.643   1.349   3.168 -0.5369 -0.1370 -0.3935
  123OSM     OF13019   3.668   1.466   3.153 -0.1460  0.4600  0.4132
  123OSM    C2F13020   3.732   1.260   3.250  0.4803  0.9294 -0.3330
  123OSM    H2F13021   3.819   1.233   3.186  0.6646  1.4712 -0.3192
  123OSM    H2G13022   3.681   1.167   3.282 -1.1501  2.2371  1.0524
  123OSM    C3F13023   3.792   1.337   3.378  0.4891  0.9483  0.0986
  123OSM    H3F13024   3.709   1.361   3.448  1.2137  0.6638  1.0846
  123OSM    H3G13025   3.828   1.434   3.336 -3.0173  1.9874 -0.7739
  123OSM    C4F13026   3.900   1.263   3.454 -0.6483  0.0455 -0.1487
  123OSM    H4F13027   3.967   1.248   3.367 -1.5579  1.1773 -1.0919
  123OSM    H4G13028   3.872   1.164   3.496 -0.6575 -0.2191 -0.7769
  123OSM    C5F13029   3.959   1.346   3.569 -0.4821 -0.3099 -0.7190
  123OSM    H5F13030   3.873   1.359   3.639 -0.9769  1.0902 -1.5381
  123OSM    H5G13031   3.983   1.451   3.538 -0.1851 -0.7518 -2.0476
  123OSM    C6F13032   4.069   1.274   3.633 -0.4515  0.1595  0.0376
  123OSM    H6F13033   4.136   1.242   3.550 -1.3459 -0.0072 -0.6339
  123OSM    H6G13034   4.034   1.182   3.685  1.4851 -0.8461 -0.3210
  123OSM    C7F13035   4.145   1.366   3.732  0.7330  0.2132 -0.2547
  123OSM    H7F13036   4.063   1.415   3.788  1.9660  1.9542  0.1128
  123OSM    H7G13037   4.191   1.442   3.666  1.5287 -0.7739 -0.8699
  123OSM    C8F13038   4.230   1.293   3.832  0.4285  0.1702 -0.8062
  123OSM    H8F13039   4.306   1.231   3.780  0.8966  0.4643 -0.4842
  123OSM    H8G13040   4.170   1.218   3.888  2.4797 -1.2672 -0.3953
  123OSM    C9F13041   4.298   1.403   3.916  0.4969 -0.4877  0.4313
  123OSM    H9F13042   4.393   1.434   3.870  0.5820 -1.3952 -0.0279
  123OSM   C10F13043   4.269   1.430   4.041  0.3884  0.1420  0.3985
  123OSM   H10F13044   4.318   1.514   4.092  0.4917  0.3489 -0.0431
  123OSM   C11F13045   4.157   1.373   4.117  0.3882  0.4256 -0.7401
  123OSM   H11F13046   4.175   1.264   4.128 -0.2216  0.0441 -3.0219
  123OSM   H11G13047   4.057   1.385   4.070 -1.3717 -3.2233  1.5749
  123OSM   C12F13048   4.134   1.433   4.253  0.4580 -0.1163 -0.2659
  123OSM   H12F13049   4.051   1.380   4.305  0.2347 -0.3597 -0.8691
  123OSM   H12G13050   4.105   1.540   4.239 -0.2358  0.3079  3.4423
  123OSM   C13F13051   4.250   1.435   4.362  0.6878 -0.1493  0.1737
  123OSM   H13F13052   4.318   1.515   4.326 -2.1595  3.0574  1.4123
  123OSM   H13G13053   4.306   1.339   4.368 -3.5536 -3.2146 -2.9010
  123OSM   C14F13054   4.216   1.474   4.504 -0.8171  0.4201 -0.1447
  123OSM   H14F13055   4.138   1.552   4.516 -1.5381 -0.1232 -1.1040
  123OSM   H14G13056   4.318   1.506   4.535  0.6486 -1.2455 -2.7888
  123OSM   C15F13057   4.187   1.350   4.591  0.1360 -0.3739  0.2756
  123OSM   H15F13058   4.165   1.394   4.690  1.4926  1.1180 -0.0449
  123OSM   H15G13059   4.279   1.288   4.593 -0.3808 -1.1886 -0.3894
  123OSM   C16F13060   4.074   1.260   4.539 -0.1636  0.1503 -0.4791
  123OSM   H16F13061   4.103   1.216   4.441  0.0213 -1.9074  0.4469
  123OSM   H16G13062   3.981   1.316   4.516 -0.9352 -0.8075  0.2085
  123OSM   C17F13063   4.016   1.138   4.623 -1.1246 -0.3311  0.8436
  123OSM   H17F13064   3.975   1.174   4.720  0.4753 -1.3619  1.9473
  123OSM   H17G13065   4.106   1.078   4.648  0.3866  0.6333 -1.8532
  123OSM   C18F13066   3.912   1.061   4.543 -0.0690  0.0087 -0.7077
  123OSM   H18F13067   3.816   1.117   4.537  0.5726  1.3397  0.8317
  123OSM   H18G13068   3.883   0.967   4.594 -0.9544 -0.5183 -2.1162
  123OSM   H18H13069   3.936   1.037   4.437  1.8558 -0.4416 -0.1919
  124OSM      N13070   0.972   2.993   2.462 -0.0552 -0.5192  0.1536
  124OSM    C1513071   0.932   3.117   2.391 -0.2734  0.0691  0.5605
  124OSM   H15A13072   0.985   3.202   2.432 -1.9175  0.9203  0.9854
  124OSM   H15B13073   0.831   3.150   2.411  0.6480  2.2403  2.0405
  124OSM   H15C13074   0.944   3.111   2.284  0.7374 -2.2718  0.7441
  124OSM    C1413075   0.893   2.883   2.410  0.8518 -0.4687 -0.0262
  124OSM   H14A13076   0.788   2.888   2.435  1.2544 -0.2030  1.7163
  124OSM   H14B13077   0.933   2.793   2.455  1.2413  0.9772  2.7584
  124OSM   H14C13078   0.903   2.865   2.304 -3.4056  1.0686 -0.8948
  124OSM    C1313079   1.122   2.962   2.438 -0.1035  0.4032 -0.1064
  124OSM   H13A13080   1.140   2.944   2.333 -0.9535  0.3762 -0.2599
  124OSM   H13B13081   1.149   2.869   2.485  0.5726  1.8891  2.6570
  124OSM   H13C13082   1.192   3.036   2.475 -0.8470  0.2527  1.6797
  124OSM    C1213083   0.955   3.002   2.612 -0.4917  0.0699  0.1590
  124OSM   H12A13084   0.859   3.047   2.630  0.1679  1.2134  0.9407
  124OSM   H12B13085   1.031   3.068   2.652  0.2340 -1.0043  0.6130
  124OSM    C1113086   0.952   2.873   2.700 -1.1712 -0.5484  0.2877
  124OSM   H11A13087   0.870   2.808   2.662  1.4067 -2.6430 -2.1908
  124OSM   H11B13088   0.940   2.899   2.807 -1.4948  1.2875 -0.1644
  124OSM      P13089   1.118   2.652   2.678 -0.1726 -0.1713 -0.2532
  124OSM    O1313090   0.999   2.571   2.645  0.3025 -0.3463  0.7533
  124OSM    O1413091   1.223   2.634   2.580  0.0913 -0.2088  0.1610
  124OSM    O1113092   1.180   2.619   2.813  0.3437 -0.3125 -0.4243
  124OSM    O1213093   1.084   2.809   2.688  0.5756  0.6076 -0.0382
  124OSM    C1S13094   1.320   2.641   2.847  0.5912 -0.4334  0.3910
  124OSM    H1S13095   1.342   2.750   2.858  2.2999 -0.6751 -0.3829
  124OSM    H1T13096   1.380   2.606   2.761  0.0573 -0.7657  0.1508
  124OSM     NF13097   1.509   2.607   3.014 -0.2308  0.1337  0.1681
  124OSM    HNF13098   1.576   2.533   3.012 -1.5235 -1.0718  0.3385
  124OSM    C2S13099   1.366   2.573   2.975 -0.6988  0.2240 -0.3053
  124OSM    H2S13100   1.303   2.615   3.056  0.7007  1.0617  0.3909
  124OSM    C3S13101   1.338   2.420   2.972  0.6915 -0.5869 -0.4330
  124OSM    H3S13102   1.427   2.373   2.926 -1.1428 -0.8746 -4.0349
  124OSM     O313103   1.229   2.379   2.894  0.8183 -0.4144 -0.0725
  124OSM    HO313104   1.215   2.458   2.841 -0.2389  1.1294  2.2908
  124OSM    C4S13105   1.327   2.365   3.118 -0.7044  0.2616 -0.1302
  124OSM    H4S13106   1.241   2.398   3.177 -0.4329 -1.4233  1.2742
  124OSM    C5S13107   1.418   2.278   3.176 -0.3391  0.2530  0.1585
  124OSM    H5S13108   1.510   2.243   3.126  0.5972  0.4588  1.6735
  124OSM    C6S13109   1.410   2.228   3.317  0.1078 -0.2181  0.5511
  124OSM    H6S13110   1.518   2.229   3.343 -0.0750  2.5798  1.5943
  124OSM    H6T13111   1.363   2.129   3.331  0.0359 -0.2701 -0.0280
  124OSM    C7S13112   1.347   2.339   3.413  0.0231  0.1608 -0.3427
  124OSM    H7S13113   1.238   2.359   3.408  0.5738  3.8302 -0.6480
  124OSM    H7T13114   1.396   2.433   3.378  1.2078 -0.3484 -0.1075
  124OSM    C8S13115   1.394   2.325   3.563  0.2747 -0.6593  0.4283
  124OSM    H8S13116   1.505   2.330   3.564  0.2440  1.3508 -1.2138
  124OSM    H8T13117   1.376   2.221   3.598  1.0157 -1.2100 -0.7519
  124OSM    C9S13118   1.317   2.414   3.663 -0.6120  0.2813 -0.6447
  124OSM    H9S13119   1.213   2.377   3.676 -0.3694 -0.8090 -1.6100
  124OSM    H9T13120   1.311   2.522   3.641 -1.7199  0.5190  0.6815
  124OSM   C10S13121   1.394   2.415   3.800 -0.0826  0.0576  0.8409
  124OSM   H10S13122   1.497   2.456   3.790 -0.9322  2.0299 -0.3034
  124OSM   H10T13123   1.404   2.308   3.831  0.6764 -1.6849 -4.4248
  124OSM   C11S13124   1.320   2.491   3.902  0.6065  0.0871 -1.0315
  124OSM   H11S13125   1.222   2.442   3.919  1.5107 -0.9895  1.5267
  124OSM   H11T13126   1.306   2.594   3.863  0.6070  0.1898 -0.7586
  124OSM   C12S13127   1.395   2.494   4.030 -0.7291 -0.4150 -0.2049
  124OSM   H12S13128   1.499   2.534   4.022 -0.8276  0.2086  1.3674
  124OSM   H12T13129   1.410   2.386   4.053  0.2624  0.0358  1.4370
  124OSM   C13S13130   1.319   2.559   4.148  0.3452  0.1725  0.7732
  124OSM   H13S13131   1.233   2.488   4.151 -0.0809  0.4757 -1.8567
  124OSM   H13T13132   1.289   2.659   4.111 -0.1456  0.0020  0.6923
  124OSM   C14S13133   1.391   2.561   4.279 -0.5380  0.2111 -0.5401
  124OSM   H14S13134   1.458   2.649   4.279  1.3599 -1.1572 -0.0847
  124OSM   H14T13135   1.462   2.476   4.274 -0.0438  0.2084  3.2976
  124OSM   C15S13136   1.306   2.547   4.406  0.5979  0.0373 -0.0272
  124OSM   H15S13137   1.235   2.465   4.385 -0.4444  1.0992 -0.7763
  124OSM   H15T13138   1.254   2.645   4.412  1.5487  0.7214 -1.9668
  124OSM   C16S13139   1.379   2.525   4.533  1.2223  0.0858 -0.6258
  124OSM   H16S13140   1.439   2.614   4.558 -0.7834  0.5289  3.2572
  124OSM   H16T13141   1.435   2.430   4.543  1.0228  0.1526  1.6458
  124OSM   C17S13142   1.282   2.529   4.648  0.4307  0.5033  0.3127
  124OSM   H17S13143   1.206   2.448   4.642  1.3434 -0.5949  2.4176
  124OSM   H17T13144   1.220   2.621   4.651 -2.6428 -1.3782 -0.9064
  124OSM   C18S13145   1.356   2.522   4.781  0.2391  0.3764 -0.7631
  124OSM   H18S13146   1.285   2.543   4.864  0.1965 -0.8318 -0.4808
  124OSM   H18T13147   1.425   2.608   4.764 -1.0235  1.5288 -0.2919
  124OSM   H18U13148   1.420   2.436   4.807  0.4382  2.0000  5.7345
  124OSM    C1F13149   1.549   2.730   3.039 -0.0012  0.1032 -0.2590
  124OSM     OF13150   1.485   2.829   2.996 -0.1597 -0.2224 -0.0982
  124OSM    C2F13151   1.686   2.744   3.106  0.3514 -0.3006 -1.0214
  124OSM    H2F13152   1.708   2.851   3.087  2.7831 -0.7875 -1.2756
  124OSM    H2G13153   1.766   2.685   3.057 -0.2506 -1.8585 -0.1867
  124OSM    C3F13154   1.679   2.721   3.258  0.0967 -0.4208 -0.2355
  124OSM    H3F13155   1.589   2.768   3.301  1.5652  0.3351  2.2182
  124OSM    H3G13156   1.770   2.763   3.308  0.2436 -2.5792  1.4500
  124OSM    C4F13157   1.681   2.572   3.290 -0.1831 -0.8069 -0.4700
  124OSM    H4F13158   1.753   2.515   3.228  0.7249  1.2418 -1.3963
  124OSM    H4G13159   1.580   2.529   3.275 -0.9442  0.5163  0.5519
  124OSM    C5F13160   1.693   2.538   3.443 -0.8052  0.4028 -0.7045
  124OSM    H5F13161   1.641   2.444   3.471  0.5785  0.3462  2.0664
  124OSM    H5G13162   1.637   2.607   3.509  0.5762  0.6979  0.2115
  124OSM    C6F13163   1.836   2.530   3.494  0.4499  0.1711  0.5193
  124OSM    H6F13164   1.876   2.630   3.522  0.3484 -0.3387  2.7168
  124OSM    H6G13165   1.900   2.491   3.413  1.8643  1.5428  0.9315
  124OSM    C7F13166   1.846   2.448   3.625  0.0337 -0.3521  0.4489
  124OSM    H7F13167   1.829   2.340   3.606  1.6154 -0.7348  1.0549
  124OSM    H7G13168   1.756   2.481   3.681  0.2627 -0.7892  1.0851
  124OSM    C8F13169   1.977   2.479   3.704 -0.2078 -0.0701  0.1318
  124OSM    H8F13170   1.981   2.581   3.748  0.3179 -0.1097  0.1775
  124OSM    H8G13171   2.069   2.456   3.646 -0.5465  2.3829 -1.5743
  124OSM    C9F13172   1.971   2.393   3.820 -0.8059 -0.2044 -0.3478
  124OSM    H9F13173   2.041   2.309   3.814  0.6621  1.0686 -1.6639
  124OSM   C10F13174   1.902   2.412   3.935  0.2651 -0.3471  0.1676
  124OSM   H10F13175   1.913   2.347   4.022  0.1108  0.5084  0.8464
  124OSM   C11F13176   1.787   2.514   3.957  0.5193  0.2865 -0.1317
  124OSM   H11F13177   1.688   2.467   3.939  0.3147  1.1407 -1.3303
  124OSM   H11G13178   1.794   2.598   3.885  1.7987  0.2390 -0.0910
  124OSM   C12F13179   1.769   2.568   4.100 -0.2718 -0.1583 -1.3663
  124OSM   H12F13180   1.683   2.638   4.111  0.4475  0.7992 -1.6947
  124OSM   H12G13181   1.856   2.636   4.115 -0.6570  0.1727 -0.5909
  124OSM   C13F13182   1.758   2.453   4.209 -0.4359 -0.5376 -0.0389
  124OSM   H13F13183   1.849   2.389   4.205  0.2991  0.4057  0.9534
  124OSM   H13G13184   1.673   2.383   4.198 -0.0550 -0.9777 -0.2411
  124OSM   C14F13185   1.751   2.509   4.349  0.2447  0.0840 -0.6590
  124OSM   H14F13186   1.660   2.571   4.365 -1.6432 -2.5651 -0.5382
  124OSM   H14G13187   1.830   2.588   4.358  0.8485 -0.7202  1.8637
  124OSM   C15F13188   1.763   2.415   4.464  0.6423 -0.2235 -0.1997
  124OSM   H15F13189   1.860   2.362   4.461 -0.1778 -1.8947  1.1766
  124OSM   H15G13190   1.682   2.339   4.464 -1.2307  1.6732  1.0984
  124OSM   C16F13191   1.750   2.479   4.604  0.5611  0.2966 -0.2275
  124OSM   H16F13192   1.655   2.536   4.598  0.7303  0.5075 -1.2055
  124OSM   H16G13193   1.832   2.553   4.618  1.5333 -0.9697  1.1756
  124OSM   C17F13194   1.745   2.382   4.724  0.2249  0.1926 -0.2007
  124OSM   H17F13195   1.843   2.329   4.719 -0.7622 -1.6709 -0.9848
  124OSM   H17G13196   1.669   2.304   4.698 -1.4304  1.7222 -0.1360
  124OSM   C18F13197   1.706   2.440   4.862 -1.1394 -0.3675 -0.5185
  124OSM   H18F13198   1.780   2.506   4.911 -1.4883 -0.1693 -0.2546
  124OSM   H18G13199   1.679   2.355   4.928 -2.2565  0.9097  0.7173
  124OSM   H18H13200   1.606   2.489   4.852 -1.1568 -0.3642 -0.3270
  125OSM      N13201   4.253   5.357   2.306 -0.3291 -0.9521 -0.1788
  125OSM    C1513202   4.116   5.334   2.246  0.7640  0.2007 -0.9118
  125OSM   H15A13203   4.054   5.275   2.312 -0.0253 -0.7614 -2.4407
  125OSM   H15B13204   4.123   5.269   2.160 -0.3059 -1.6982  0.3694
  125OSM   H15C13205   4.082   5.433   2.222 -1.9368 -0.3523  0.3332
  125OSM    C1413206   4.327   5.229   2.310 -0.2738 -0.2767 -0.0311
  125OSM   H14A13207   4.369   5.203   2.215 -0.7094 -0.6169 -0.1365
  125OSM   H14B13208   4.270   5.139   2.333 -1.1138  0.1802 -0.2676
  125OSM   H14C13209   4.407   5.245   2.380 -0.2560 -1.9188  0.3713
  125OSM    C1313210   4.325   5.451   2.218 -0.3204  0.1305 -0.0352
  125OSM   H13A13211   4.279   5.549   2.220 -3.3596 -1.1852  1.9327
  125OSM   H13B13212   4.323   5.419   2.115 -1.9811 -0.8120  0.2502
  125OSM   H13C13213   4.430   5.459   2.243 -0.5200  1.6466  0.4199
  125OSM    C1213214   4.247   5.423   2.441 -0.3634 -0.3202 -0.1190
  125OSM   H12A13215   4.196   5.519   2.437  1.6083  0.7899  0.0602
  125OSM   H12B13216   4.345   5.440   2.482 -0.5230 -3.6971  2.0050
  125OSM    C1113217   4.156   5.356   2.549  0.2835  0.7582  0.2285
  125OSM   H11A13218   4.162   5.405   2.649  0.9751 -1.4170  1.3127
  125OSM   H11B13219   4.196   5.256   2.573  0.8039  1.2664  1.5656
  125OSM      P13220   3.930   5.464   2.532  0.2734 -0.2786 -0.0515
  125OSM    O1313221   4.007   5.593   2.515 -0.5888 -0.0081 -0.6106
  125OSM    O1413222   3.806   5.446   2.453 -0.2411 -0.3857 -0.0221
  125OSM    O1113223   3.897   5.453   2.686  0.0528  0.0552 -0.1876
  125OSM    O1213224   4.020   5.336   2.506  0.2172  0.0745  0.0988
  125OSM    C1S13225   3.912   5.334   2.765  0.9859  0.1691  0.0161
  125OSM    H1S13226   4.015   5.293   2.769 -0.0811 -2.7642 -0.0636
  125OSM    H1T13227   3.854   5.250   2.719 -0.1061  0.7014  0.3794
  125OSM     NF13228   3.878   5.237   2.994 -0.0742 -0.0825 -0.0316
  125OSM    HNF13229   3.816   5.170   3.033  1.5049 -1.1719  0.6826
  125OSM    C2S13230   3.840   5.348   2.908  0.6975  0.4831  0.2989
  125OSM    H2S13231   3.872   5.443   2.956  0.4508  0.3800  0.6675
  125OSM    C3S13232   3.684   5.375   2.887 -0.2632 -0.0358  1.0354
  125OSM    H3S13233   3.644   5.296   2.821  1.7389  1.6774 -2.5339
  125OSM     O313234   3.657   5.494   2.817 -0.2417  0.0614  0.3718
  125OSM    HO313235   3.743   5.510   2.778 -0.2897 -0.6818 -0.0653
  125OSM    C4S13236   3.610   5.376   3.012 -0.3241 -0.8343 -0.1797
  125OSM    H4S13237   3.550   5.287   3.037 -1.0290  0.4483  3.3931
  125OSM    C5S13238   3.585   5.482   3.096 -0.4566 -0.0126  0.2218
  125OSM    H5S13239   3.628   5.580   3.072 -1.8512  0.6881  0.4632
  125OSM    C6S13240   3.518   5.479   3.232 -0.0846  0.1900 -0.0443
  125OSM    H6S13241   3.414   5.516   3.221 -0.3599 -0.7092 -0.6235
  125OSM    H6T13242   3.569   5.551   3.299  2.0470 -0.9286 -0.3812
  125OSM    C7S13243   3.541   5.337   3.303 -0.6589 -0.1007  0.5409
  125OSM    H7S13244   3.650   5.316   3.301 -0.8843 -1.5128  1.6222
  125OSM    H7T13245   3.489   5.250   3.258  0.6232 -0.2339 -0.7543
  125OSM    C8S13246   3.514   5.354   3.457  0.3603  0.0938 -0.1031
  125OSM    H8S13247   3.414   5.399   3.476  0.0026 -0.0050 -1.5868
  125OSM    H8T13248   3.585   5.426   3.501  0.7984  0.3487 -1.1875
  125OSM    C9S13249   3.534   5.230   3.538 -0.3827  0.2906 -0.2843
  125OSM    H9S13250   3.638   5.192   3.529 -1.0311 -1.8914  0.6985
  125OSM    H9T13251   3.460   5.155   3.501 -1.5422  0.6220  1.2607
  125OSM   C10S13252   3.508   5.235   3.689  0.6625 -0.2580  0.7763
  125OSM   H10S13253   3.587   5.293   3.740  1.3599 -1.1152  0.6935
  125OSM   H10T13254   3.527   5.131   3.722  1.2851 -1.3028 -2.4461
  125OSM   C11S13255   3.361   5.268   3.710  0.5793  0.2391 -0.2609
  125OSM   H11S13256   3.299   5.226   3.627  0.8756 -1.1591  0.1971
  125OSM   H11T13257   3.355   5.378   3.713  1.5870  0.3202 -0.7165
  125OSM   C12S13258   3.317   5.229   3.845 -0.3592 -0.0464 -0.3977
  125OSM   H12S13259   3.323   5.119   3.861 -0.1467  0.2736  2.1631
  125OSM   H12T13260   3.209   5.254   3.858 -0.1482 -0.0716  1.7370
  125OSM   C13S13261   3.391   5.296   3.963  0.6637 -0.8621 -0.4407
  125OSM   H13S13262   3.391   5.407   3.960 -3.4878 -0.6989 -3.3813
  125OSM   H13T13263   3.495   5.259   3.957  1.8890  2.2546 -0.2829
  125OSM   C14S13264   3.336   5.245   4.096 -0.3598 -0.2529  0.3482
  125OSM   H14S13265   3.357   5.136   4.103  2.4128  0.1705 -0.1896
  125OSM   H14T13266   3.227   5.268   4.098 -0.5752 -1.2332  2.4946
  125OSM   C15S13267   3.415   5.303   4.213  0.0528 -0.4289  0.3159
  125OSM   H15S13268   3.402   5.414   4.209 -0.5153 -0.5138 -0.3445
  125OSM   H15T13269   3.524   5.289   4.193 -0.0828  1.0067 -1.9277
  125OSM   C16S13270   3.386   5.235   4.349 -0.0778 -0.0962  0.3360
  125OSM   H16S13271   3.401   5.125   4.348  0.5174 -0.0821  2.4964
  125OSM   H16T13272   3.275   5.245   4.355 -0.4869 -1.5064 -2.8401
  125OSM   C17S13273   3.450   5.306   4.467 -0.5430  0.3718 -0.4006
  125OSM   H17S13274   3.484   5.409   4.446  1.8032 -0.4387 -0.9748
  125OSM   H17T13275   3.541   5.254   4.505 -1.9135 -0.4538  1.9203
  125OSM   C18S13276   3.352   5.318   4.587 -0.5882 -0.2339 -0.3405
  125OSM   H18S13277   3.410   5.377   4.661 -0.4156 -0.3334 -0.3952
  125OSM   H18T13278   3.319   5.219   4.624  0.1451  0.2074  1.6232
  125OSM   H18U13279   3.263   5.384   4.579 -0.0310  0.8995  1.9303
  125OSM    C1F13280   4.005   5.222   3.039  0.1047 -0.2490 -0.4780
  125OSM     OF13281   4.074   5.320   3.040 -0.5148 -0.2275 -0.3768
  125OSM    C2F13282   4.045   5.079   3.086 -0.0885  0.4159 -0.0654
  125OSM    H2F13283   4.121   5.045   3.014 -2.3556 -2.0875 -1.4812
  125OSM    H2G13284   3.970   5.005   3.051  0.9036  0.1284 -1.6474
  125OSM    C3F13285   4.120   5.059   3.224 -0.6386 -0.2235 -0.7341
  125OSM    H3F13286   4.056   5.089   3.310  1.5179 -1.3338  1.3912
  125OSM    H3G13287   4.207   5.127   3.215  0.5195 -1.0879  2.3465
  125OSM    C4F13288   4.165   4.918   3.244 -0.8735  0.7926 -1.3093
  125OSM    H4F13289   4.232   4.904   3.156 -1.6832  0.0009 -1.8141
  125OSM    H4G13290   4.085   4.842   3.250 -1.7158  1.7155  3.7596
  125OSM    C5F13291   4.241   4.903   3.377  0.2576 -0.0533 -0.0259
  125OSM    H5F13292   4.314   4.985   3.391  0.1491 -0.1369  1.1478
  125OSM    H5G13293   4.299   4.808   3.371  2.2562  1.1807 -2.0959
  125OSM    C6F13294   4.157   4.908   3.512  0.2007  0.4266  0.3255
  125OSM    H6F13295   4.104   4.813   3.533 -0.1175  0.8895  1.6948
  125OSM    H6G13296   4.075   4.982   3.514 -1.1288 -0.9824  1.8547
  125OSM    C7F13297   4.248   4.934   3.630  0.4316  0.2642  0.2372
  125OSM    H7F13298   4.300   5.030   3.609  6.1774 -2.1926  1.4611
  125OSM    H7G13299   4.328   4.857   3.639  1.1259  1.1991  3.1593
  125OSM    C8F13300   4.172   4.944   3.762 -0.5606  0.5438 -0.1301
  125OSM    H8F13301   4.085   5.008   3.738  0.2899  0.8561 -2.7363
  125OSM    H8G13302   4.236   5.002   3.832 -1.0123  0.2119  0.5665
  125OSM    C9F13303   4.124   4.817   3.828  0.7753 -0.5278 -0.0395
  125OSM    H9F13304   4.084   4.739   3.762  1.0780 -0.7718  0.0600
  125OSM   C10F13305   4.118   4.795   3.956  0.1552  0.0558  0.0355
  125OSM   H10F13306   4.081   4.697   3.991  1.7804 -1.7981 -2.9756
  125OSM   C11F13307   4.173   4.891   4.065  0.4947 -0.1253  0.2471
  125OSM   H11F13308   4.126   4.990   4.044 -0.3146 -0.7965 -1.2765
  125OSM   H11G13309   4.282   4.903   4.049  1.2680 -2.9237  2.5377
  125OSM   C12F13310   4.145   4.842   4.206  0.1175  0.0967  0.2556
  125OSM   H12F13311   4.190   4.740   4.203  0.0140  0.0629 -0.2719
  125OSM   H12G13312   4.035   4.833   4.219  0.1213  0.7675  0.8122
  125OSM   C13F13313   4.190   4.934   4.319  0.3213 -0.0078 -0.1230
  125OSM   H13F13314   4.157   5.038   4.298 -0.4951 -0.2537 -0.0727
  125OSM   H13G13315   4.301   4.934   4.328  0.2402 -1.5366  1.5269
  125OSM   C14F13316   4.136   4.901   4.458 -0.0192 -0.2761  0.0338
  125OSM   H14F13317   4.123   4.791   4.468  0.5653 -0.4569 -1.0167
  125OSM   H14G13318   4.037   4.951   4.460  0.6268  1.0279  0.2491
  125OSM   C15F13319   4.215   4.958   4.578  0.3312 -0.8515  0.0023
  125OSM   H15F13320   4.249   5.060   4.551  1.2491 -0.8041  1.2612
  125OSM   H15G13321   4.312   4.905   4.577  0.6216 -0.4234  1.9832
  125OSM   C16F13322   4.140   4.927   4.705  1.4417  0.2571  0.0041
  125OSM   H16F13323   4.093   4.827   4.695  1.6023  0.3471 -2.1401
  125OSM   H16G13324   4.054   4.997   4.713  2.1367  1.0031  1.4546
  125OSM   C17F13325   4.217   4.953   4.838  0.0415  0.0153  0.2698
  125OSM   H17F13326   4.234   5.063   4.848  0.8986 -0.1279  0.4543
  125OSM   H17G13327   4.317   4.905   4.835 -0.2477 -0.5564 -0.3698
  125OSM   C18F13328   4.123   4.918   4.953 -0.4608  0.6453 -0.1278
  125OSM   H18F13329   4.090   4.814   4.932 -1.2387  0.9626 -0.5118
  125OSM   H18G13330   4.032   4.982   4.954  0.8526  2.5990 -0.3550
  125OSM   H18H13331   4.178   4.919   5.050  3.3457 -0.1625 -2.0644
  126OSM      N13332   1.629   6.431   2.192 -0.1985 -0.5007 -0.1383
  126OSM    C1513333   1.690   6.418   2.060 -0.0763 -0.5639 -0.7111
  126OSM   H15A13334   1.769   6.344   2.071  2.2993  1.6759 -1.5459
  126OSM   H15B13335   1.743   6.507   2.029 -2.9827  1.3245 -0.5776
  126OSM   H15C13336   1.632   6.383   1.976  1.4624 -0.7200 -1.7600
  126OSM    C1413337   1.544   6.552   2.192 -0.1174 -0.8960  0.6005
  126OSM   H14A13338   1.483   6.553   2.282  0.8934  1.0684  1.3347
  126OSM   H14B13339   1.471   6.550   2.113 -1.7108 -0.3984  1.9828
  126OSM   H14C13340   1.596   6.642   2.163 -2.5952 -0.2929 -2.5595
  126OSM    C1313341   1.545   6.315   2.212  0.1563 -0.0685 -0.0897
  126OSM   H13A13342   1.539   6.297   2.319 -2.4432  3.4587  0.5450
  126OSM   H13B13343   1.582   6.229   2.159  1.5890  0.1894  0.4544
  126OSM   H13C13344   1.446   6.329   2.172 -0.5307 -2.3304  0.6699
  126OSM    C1213345   1.747   6.431   2.294  0.7947  0.6554  0.2782
  126OSM   H12A13346   1.817   6.505   2.258 -0.8070  0.4499 -3.8734
  126OSM   H12B13347   1.804   6.339   2.299 -1.5574 -0.7799  3.2590
  126OSM    C1113348   1.708   6.462   2.442 -0.0914 -0.5544  0.4855
  126OSM   H11A13349   1.637   6.547   2.440  1.5672  0.8837  0.8498
  126OSM   H11B13350   1.801   6.497   2.492 -0.1279 -1.9561  1.6287
  126OSM      P13351   1.723   6.203   2.513 -0.0182  0.0706  0.0073
  126OSM    O1313352   1.637   6.109   2.439  0.1313  0.5838 -0.1967
  126OSM    O1413353   1.851   6.211   2.449 -0.6109  0.3033 -0.3560
  126OSM    O1113354   1.741   6.163   2.665  0.1187  0.4117  0.2744
  126OSM    O1213355   1.654   6.347   2.511 -0.3998  0.6497 -0.0638
  126OSM    C1S13356   1.779   6.275   2.748 -0.4495  0.0063  0.1091
  126OSM    H1S13357   1.723   6.368   2.726  0.6280  1.2703  2.3333
  126OSM    H1T13358   1.887   6.290   2.728  0.0955 -0.7633  2.1841
  126OSM     NF13359   1.808   6.351   2.982  0.3782 -0.4466 -0.5160
  126OSM    HNF13360   1.886   6.334   3.042  1.2281 -0.5093 -1.6067
  126OSM    C2S13361   1.766   6.240   2.902  0.3086 -0.1469  0.3444
  126OSM    H2S13362   1.656   6.228   2.910  0.2396  0.0468 -0.2494
  126OSM    C3S13363   1.826   6.113   2.946  0.1022  0.1830 -0.4257
  126OSM    H3S13364   1.936   6.120   2.931 -0.0455  1.5655 -0.9989
  126OSM     O313365   1.803   5.997   2.859 -0.5172 -0.3217 -0.3471
  126OSM    HO313366   1.755   6.038   2.787 -0.0905 -0.6420 -0.8259
  126OSM    C4S13367   1.780   6.091   3.091 -0.5246 -0.5911 -0.3652
  126OSM    H4S13368   1.833   6.149   3.167 -0.3874  1.0351 -1.6430
  126OSM    C5S13369   1.692   5.997   3.138 -0.6914 -0.2031 -0.0496
  126OSM    H5S13370   1.655   5.928   3.061  0.5116 -1.1254  0.1626
  126OSM    C6S13371   1.652   5.974   3.283  0.7894  0.9182  0.8542
  126OSM    H6S13372   1.676   5.867   3.304  0.3626  0.5480 -0.4621
  126OSM    H6T13373   1.541   5.974   3.287  0.6972  0.4771 -1.0200
  126OSM    C7S13374   1.725   6.055   3.385  0.0047  0.0849  0.8743
  126OSM    H7S13375   1.702   6.163   3.371  1.3017  0.4836  1.6132
  126OSM    H7T13376   1.834   6.042   3.368  0.0240 -1.7182  2.0570
  126OSM    C8S13377   1.701   6.008   3.526 -0.3083  0.0843 -0.6475
  126OSM    H8S13378   1.729   5.901   3.527 -0.4000  0.0525 -1.0135
  126OSM    H8T13379   1.593   6.009   3.552 -0.2911 -1.8785 -0.4006
  126OSM    C9S13380   1.778   6.081   3.641 -0.2076  1.2020 -0.2163
  126OSM    H9S13381   1.756   6.189   3.628 -1.0028  1.5205  2.8939
  126OSM    H9T13382   1.886   6.057   3.639 -0.6677 -1.0846 -1.9699
  126OSM   C10S13383   1.727   6.037   3.782 -0.5488  0.0173  0.3585
  126OSM   H10S13384   1.754   5.932   3.809 -2.9269 -0.4458  1.2357
  126OSM   H10T13385   1.616   6.039   3.778 -0.5521 -0.1077  0.3800
  126OSM   C11S13386   1.771   6.136   3.890  0.0462  0.4734 -0.1152
  126OSM   H11S13387   1.741   6.232   3.844 -2.4741 -0.8523 -1.4395
  126OSM   H11T13388   1.881   6.126   3.882 -0.0532  0.0192 -0.9880
  126OSM   C12S13389   1.707   6.107   4.029  0.2751 -1.2195 -0.4103
  126OSM   H12S13390   1.605   6.071   4.004 -1.3037  2.1724  0.6060
  126OSM   H12T13391   1.698   6.197   4.093 -0.4306 -2.0122  0.6202
  126OSM   C13S13392   1.785   6.015   4.115 -0.3847 -0.1397 -0.3358
  126OSM   H13S13393   1.889   6.052   4.125 -1.5187  3.6291 -0.8753
  126OSM   H13T13394   1.798   5.917   4.064  4.2473 -0.6737  1.3955
  126OSM   C14S13395   1.710   5.981   4.252  0.1377 -0.2282 -0.0364
  126OSM   H14S13396   1.747   5.879   4.278 -1.3209 -1.3544 -2.1286
  126OSM   H14T13397   1.604   5.972   4.221  0.2058 -3.8359  0.2842
  126OSM   C15S13398   1.718   6.081   4.368 -0.6813  0.4394 -0.1660
  126OSM   H15S13399   1.717   6.182   4.322 -2.3035  0.5202 -0.0216
  126OSM   H15T13400   1.816   6.085   4.419 -1.3191  1.1004  1.0356
  126OSM   C16S13401   1.624   6.056   4.484 -0.0369 -0.5970  0.2312
  126OSM   H16S13402   1.631   5.950   4.517 -0.5391 -0.7837 -0.2432
  126OSM   H16T13403   1.516   6.058   4.457 -0.6626 -1.0833  2.4290
  126OSM   C17S13404   1.642   6.154   4.609  0.4770  0.2546 -0.2943
  126OSM   H17S13405   1.749   6.185   4.616  0.5984 -0.0700 -0.6964
  126OSM   H17T13406   1.635   6.083   4.694  0.4381  1.3371  0.6319
  126OSM   C18S13407   1.540   6.267   4.614 -0.8588  0.3035 -0.2189
  126OSM   H18S13408   1.545   6.319   4.713 -0.1308  0.4307 -0.3155
  126OSM   H18T13409   1.435   6.233   4.604 -0.5220 -0.5886 -0.8097
  126OSM   H18U13410   1.546   6.345   4.535 -2.0633  0.2998 -0.3207
  126OSM    C1F13411   1.756   6.473   2.962  0.5550  0.6397  0.4597
  126OSM     OF13412   1.638   6.481   2.922  0.3554  0.2617 -0.7134
  126OSM    C2F13413   1.841   6.592   2.989 -0.6721  0.5655 -0.7142
  126OSM    H2F13414   1.823   6.677   2.920  1.7036  2.4734  0.8308
  126OSM    H2G13415   1.949   6.565   2.983 -0.9139 -1.2028  1.4182
  126OSM    C3F13416   1.818   6.637   3.139  0.3593  0.1593 -0.3804
  126OSM    H3F13417   1.824   6.553   3.212  0.7982  2.1151  1.9550
  126OSM    H3G13418   1.719   6.687   3.134  0.0691  0.0375  2.3928
  126OSM    C4F13419   1.935   6.726   3.184  0.4163 -0.2316 -0.6764
  126OSM    H4F13420   1.934   6.817   3.120 -0.0932  1.4909  1.6681
  126OSM    H4G13421   2.031   6.674   3.163 -0.5771 -1.6350 -2.0075
  126OSM    C5F13422   1.914   6.771   3.327 -0.1839  0.4651  0.3719
  126OSM    H5F13423   1.890   6.678   3.383 -2.8087 -0.1593 -1.6114
  126OSM    H5G13424   1.824   6.836   3.327 -0.4854  0.2804 -3.7043
  126OSM    C6F13425   2.025   6.863   3.382  0.0026 -0.2571 -0.2189
  126OSM    H6F13426   2.047   6.948   3.313  1.3543 -0.6148 -0.2700
  126OSM    H6G13427   2.125   6.813   3.376  0.1749  0.2963 -3.1318
  126OSM    C7F13428   2.008   6.923   3.521 -0.7024  0.5997 -0.0300
  126OSM    H7F13429   1.914   6.982   3.530  0.4195  2.5977 -0.8920
  126OSM    H7G13430   2.093   6.982   3.560  1.1376 -1.7215 -0.2932
  126OSM    C8F13431   2.006   6.813   3.638 -0.7931 -0.4056 -0.5244
  126OSM    H8F13432   1.930   6.741   3.601  1.0914 -2.7415 -0.1055
  126OSM    H8G13433   1.983   6.874   3.728  1.6161  0.9772 -0.7620
  126OSM    C9F13434   2.136   6.741   3.673 -0.8085 -0.3897  0.5961
  126OSM    H9F13435   2.172   6.683   3.587 -2.0543  0.6882 -0.7039
  126OSM   C10F13436   2.194   6.735   3.793 -0.2522  0.0260  0.0882
  126OSM   H10F13437   2.288   6.681   3.811 -0.9956 -0.3640  3.7438
  126OSM   C11F13438   2.134   6.788   3.921  0.0473  0.4046 -0.3868
  126OSM   H11F13439   2.041   6.729   3.941  0.3257  0.2516  0.4931
  126OSM   H11G13440   2.109   6.895   3.903 -0.2452  0.1174 -1.7785
  126OSM   C12F13441   2.216   6.775   4.057  0.2987 -0.4608  0.8890
  126OSM   H12F13442   2.317   6.814   4.032 -0.4856 -0.2496 -2.5359
  126OSM   H12G13443   2.220   6.667   4.085  0.1671 -1.0636 -1.2178
  126OSM   C13F13444   2.148   6.849   4.171  0.2523 -0.4738 -0.3206
  126OSM   H13F13445   2.040   6.820   4.169  0.5971 -1.8773 -0.0836
  126OSM   H13G13446   2.156   6.959   4.157 -0.6564 -0.5043 -1.2073
  126OSM   C14F13447   2.198   6.790   4.302  0.8623 -0.0558 -0.4173
  126OSM   H14F13448   2.303   6.814   4.328  0.3510  0.4073  1.3592
  126OSM   H14G13449   2.177   6.681   4.301 -2.5876  0.4392  1.2426
  126OSM   C15F13450   2.115   6.848   4.411 -0.5514 -0.0184 -0.3781
  126OSM   H15F13451   2.007   6.825   4.396 -0.9466  1.0782  0.5681
  126OSM   H15G13452   2.115   6.959   4.398 -2.3356 -0.0907 -1.3366
  126OSM   C16F13453   2.162   6.809   4.553  0.7646 -0.0407  0.4610
  126OSM   H16F13454   2.272   6.823   4.550  0.9086 -1.2962 -0.6036
  126OSM   H16G13455   2.135   6.703   4.570 -2.1801 -0.0892 -3.3029
  126OSM   C17F13456   2.104   6.897   4.666 -0.3779  0.0986  0.0828
  126OSM   H17F13457   1.996   6.914   4.651 -0.8732 -1.5371  1.5545
  126OSM   H17G13458   2.150   6.997   4.686 -0.5754  0.0338  0.8720
  126OSM   C18F13459   2.099   6.812   4.795 -0.3773 -0.1684 -0.2994
  126OSM   H18F13460   2.042   6.864   4.876 -1.8377 -0.7088 -0.9431
  126OSM   H18G13461   2.196   6.782   4.839 -1.1311 -0.4858  1.2064
  126OSM   H18H13462   2.040   6.720   4.777  0.3426 -0.5627 -0.6550
  127OSM      N13463   1.217   1.365   2.703 -0.0347  0.5905  0.5940
  127OSM    C1513464   1.188   1.433   2.833 -0.0917 -0.5178  0.1397
  127OSM   H15A13465   1.170   1.539   2.825  0.7477 -0.3870 -0.1280
  127OSM   H15B13466   1.277   1.420   2.893 -0.4190 -0.1009  0.7277
  127OSM   H15C13467   1.102   1.387   2.878 -3.0058  0.9180 -3.4143
  127OSM    C1413468   1.325   1.431   2.627  0.1306  0.1513  0.0638
  127OSM   H14A13469   1.342   1.380   2.533 -0.8622 -1.2063  0.5791
  127OSM   H14B13470   1.423   1.441   2.672  0.2439  0.6290 -0.2733
  127OSM   H14C13471   1.307   1.536   2.612  1.1820  0.6486  1.9844
  127OSM    C1313472   1.277   1.224   2.732  0.0526  0.3081  0.1716
  127OSM   H13A13473   1.313   1.174   2.643 -1.4230  0.7616 -0.7276
  127OSM   H13B13474   1.203   1.162   2.779 -1.2269  0.1789 -1.8636
  127OSM   H13C13475   1.364   1.237   2.794 -0.3666 -0.0916  0.8491
  127OSM    C1213476   1.091   1.351   2.617  0.6052  0.0943  0.9160
  127OSM   H12A13477   1.124   1.303   2.525  3.5829  0.6590  1.5996
  127OSM   H12B13478   1.067   1.455   2.597  2.3546  0.2833 -0.4687
  127OSM    C1113479   0.965   1.273   2.675 -0.3114  0.3859  1.0294
  127OSM   H11A13480   1.001   1.171   2.698  2.5928  1.0595 -0.0991
  127OSM   H11B13481   0.889   1.266   2.594  0.1733 -0.0611  0.6077
  127OSM      P13482   0.802   1.246   2.873  0.0904 -0.1279  0.3439
  127OSM    O1313483   0.749   1.339   2.976  0.1146 -0.0942  0.2645
  127OSM    O1413484   0.699   1.188   2.777  0.2847 -0.1156 -0.3100
  127OSM    O1113485   0.881   1.130   2.945  0.5729  0.0832  0.0913
  127OSM    O1213486   0.913   1.327   2.792 -0.0073  0.0839  0.0418
  127OSM    C1S13487   1.016   1.139   2.993  0.5558  0.1547  0.7701
  127OSM    H1S13488   1.065   1.236   2.974  0.7171 -0.2745 -1.1606
  127OSM    H1T13489   1.081   1.068   2.938  1.3982  0.5873  1.1870
  127OSM     NF13490   1.168   1.154   3.187  0.8520  0.2623 -0.1079
  127OSM    HNF13491   1.225   1.073   3.202 -0.0400 -0.3820 -0.0828
  127OSM    C2S13492   1.034   1.122   3.145 -0.5513  0.5034 -0.2109
  127OSM    H2S13493   0.958   1.186   3.196 -1.3976 -2.1412  2.0471
  127OSM    C3S13494   0.987   0.977   3.183  0.0306 -0.0304 -0.2685
  127OSM    H3S13495   1.050   0.909   3.122  1.2242  0.4343  0.4040
  127OSM     O313496   0.860   0.936   3.144  0.5662 -0.8571 -0.3035
  127OSM    HO313497   0.842   1.010   3.085  0.1943 -0.2822  0.5102
  127OSM    C4S13498   1.012   0.948   3.323 -0.2566 -0.3076  0.0378
  127OSM    H4S13499   1.103   0.887   3.336  0.5212  0.5232 -1.2746
  127OSM    C5S13500   0.935   0.979   3.431  0.3678  0.1374 -0.1561
  127OSM    H5S13501   0.833   1.013   3.409 -0.3726 -1.3456  0.7346
  127OSM    C6S13502   0.957   0.930   3.576  0.1064  0.1823 -0.4058
  127OSM    H6S13503   0.975   0.821   3.566  2.4305  0.5785 -1.1421
  127OSM    H6T13504   0.873   0.957   3.644  0.1459  2.5364 -1.1917
  127OSM    C7S13505   1.091   0.995   3.626 -0.1147  0.5133  0.3027
  127OSM    H7S13506   1.091   1.106   3.615  0.6882  0.3845 -1.3764
  127OSM    H7T13507   1.179   0.970   3.563  0.7375  0.5091  1.4765
  127OSM    C8S13508   1.121   0.971   3.777  0.4511 -0.2314 -0.0785
  127OSM    H8S13509   1.072   0.876   3.808  0.7238 -0.0865  0.8582
  127OSM    H8T13510   1.066   1.042   3.843 -0.2620  0.5762 -1.5133
  127OSM    C9S13511   1.272   0.963   3.799 -0.3311  1.0453  0.2325
  127OSM    H9S13512   1.322   1.062   3.795 -0.1423  0.9374 -0.1249
  127OSM    H9T13513   1.330   0.930   3.710  0.7974  1.3078  0.8503
  127OSM   C10S13514   1.308   0.885   3.927  0.0150  0.2516  0.4509
  127OSM   H10S13515   1.417   0.862   3.916 -0.3617 -1.4259 -0.0492
  127OSM   H10T13516   1.259   0.787   3.910 -0.9970  0.4723  1.9315
  127OSM   C11S13517   1.274   0.940   4.065 -0.6462 -0.0988 -0.4272
  127OSM   H11S13518   1.340   0.884   4.134  0.3291  3.0550  1.3855
  127OSM   H11T13519   1.170   0.911   4.093 -1.0303 -1.8183 -3.2557
  127OSM   C12S13520   1.306   1.089   4.075 -0.5499  0.1602  0.0703
  127OSM   H12S13521   1.229   1.152   4.025 -1.7508  2.3750  4.1966
  127OSM   H12T13522   1.412   1.109   4.049 -1.0552  0.2657 -2.1085
  127OSM   C13S13523   1.287   1.136   4.218 -0.2684  0.8182 -0.4563
  127OSM   H13S13524   1.195   1.082   4.250 -0.3505  0.9936 -0.3966
  127OSM   H13T13525   1.265   1.244   4.213 -1.2035  0.6519 -0.1247
  127OSM   C14S13526   1.404   1.103   4.314  0.0886 -0.6732 -0.0892
  127OSM   H14S13527   1.493   1.159   4.278 -0.8658  1.0592  0.1706
  127OSM   H14T13528   1.425   0.994   4.317 -0.6339 -0.7913  1.0902
  127OSM   C15S13529   1.377   1.165   4.452  0.1838 -0.2682 -0.6898
  127OSM   H15S13530   1.271   1.144   4.479  0.8371 -1.6830  0.9264
  127OSM   H15T13531   1.382   1.276   4.446 -0.3813 -0.1163  1.0571
  127OSM   C16S13532   1.478   1.103   4.561  0.4396 -0.8040  0.1546
  127OSM   H16S13533   1.583   1.113   4.525  1.0302 -1.7533  1.5187
  127OSM   H16T13534   1.451   0.996   4.554  0.4364 -0.7114 -1.9925
  127OSM   C17S13535   1.478   1.179   4.691 -0.2988 -0.4701  0.1938
  127OSM   H17S13536   1.382   1.156   4.741  0.9858 -2.8421  1.7898
  127OSM   H17T13537   1.506   1.285   4.672 -0.4059  0.0431  2.5923
  127OSM   C18S13538   1.585   1.131   4.799  0.1781 -0.2184  0.1606
  127OSM   H18S13539   1.685   1.146   4.754  0.2150  1.7152  0.8024
  127OSM   H18T13540   1.571   1.021   4.797  0.8864 -0.3302  0.8336
  127OSM   H18U13541   1.576   1.179   4.899  1.1218 -1.3983  0.8416
  127OSM    C1F13542   1.219   1.280   3.199  0.7587  0.4223 -0.7931
  127OSM     OF13543   1.149   1.372   3.164 -0.2786 -0.0814  0.4629
  127OSM    C2F13544   1.363   1.291   3.235  0.1766 -0.2435  0.5194
  127OSM    H2F13545   1.417   1.362   3.169 -1.4255  0.0671 -0.5273
  127OSM    H2G13546   1.414   1.193   3.217  1.3323  0.3997  0.2076
  127OSM    C3F13547   1.375   1.348   3.372  0.2656 -0.1663 -0.3651
  127OSM    H3F13548   1.348   1.456   3.374 -0.9677 -0.4708  0.5289
  127OSM    H3G13549   1.480   1.333   3.406 -0.3220 -0.9453  1.2287
  127OSM    C4F13550   1.283   1.296   3.490 -0.5868  0.1421 -0.3846
  127OSM    H4F13551   1.309   1.188   3.494  1.4310  0.3714 -3.7144
  127OSM    H4G13552   1.175   1.315   3.470 -0.9123  0.0811  1.1909
  127OSM    C5F13553   1.322   1.338   3.632 -0.2745 -0.6152  0.7831
  127OSM    H5F13554   1.419   1.290   3.657  0.9970  2.1699  1.6026
  127OSM    H5G13555   1.254   1.298   3.710  1.2068 -1.4431  1.7072
  127OSM    C6F13556   1.319   1.490   3.650 -0.2435 -0.3593  0.1142
  127OSM    H6F13557   1.227   1.532   3.604  0.1350 -2.7609 -3.2323
  127OSM    H6G13558   1.402   1.541   3.596 -1.9178  0.0292 -2.2263
  127OSM    C7F13559   1.335   1.527   3.798 -0.0249 -0.1442 -0.2596
  127OSM    H7F13560   1.266   1.460   3.853  2.6261 -0.5806  2.8338
  127OSM    H7G13561   1.304   1.634   3.797 -0.8664 -0.3623  1.0941
  127OSM    C8F13562   1.480   1.493   3.848  0.4758 -0.5705  0.4726
  127OSM    H8F13563   1.537   1.515   3.755  1.1482 -1.6299  0.6268
  127OSM    H8G13564   1.504   1.388   3.873  0.1796 -0.2135  2.4340
  127OSM    C9F13565   1.525   1.577   3.958 -0.4954  0.4189  0.4790
  127OSM    H9F13566   1.614   1.638   3.934 -0.9331  0.6824 -0.5083
  127OSM   C10F13567   1.487   1.582   4.085  0.0824 -0.2162  0.2625
  127OSM   H10F13568   1.551   1.639   4.154 -0.1416 -0.2913  0.5368
  127OSM   C11F13569   1.360   1.517   4.138 -0.1798 -0.6859 -0.2782
  127OSM   H11F13570   1.372   1.408   4.124 -1.1745 -0.8114 -0.2448
  127OSM   H11G13571   1.269   1.559   4.089 -0.1506  0.3362  0.5066
  127OSM   C12F13572   1.336   1.553   4.280 -0.4257 -0.4491 -0.1049
  127OSM   H12F13573   1.419   1.546   4.353  0.4988  0.2463 -1.0553
  127OSM   H12G13574   1.257   1.484   4.314  0.5579 -0.6476  1.9613
  127OSM   C13F13575   1.293   1.698   4.301  0.7007  0.1091 -0.1197
  127OSM   H13F13576   1.214   1.713   4.225  0.6258  0.9807  0.1254
  127OSM   H13G13577   1.380   1.765   4.285 -1.4085  2.5405 -2.3479
  127OSM   C14F13578   1.242   1.739   4.443 -0.0261  0.1067 -0.0319
  127OSM   H14F13579   1.207   1.845   4.442  0.1982  0.2082  1.1019
  127OSM   H14G13580   1.319   1.728   4.522 -1.8113 -3.7745  1.4173
  127OSM   C15F13581   1.118   1.655   4.485  0.2064 -0.1145  0.1528
  127OSM   H15F13582   1.147   1.552   4.513  1.6418  0.5743  1.3198
  127OSM   H15G13583   1.051   1.630   4.401 -1.5180 -0.5038  1.5742
  127OSM   C16F13584   1.027   1.726   4.600  0.2153  0.0053  0.0246
  127OSM   H16F13585   0.958   1.648   4.639  0.2046  0.5921  1.2467
  127OSM   H16G13586   0.970   1.811   4.556  1.2449  0.6796 -0.0518
  127OSM   C17F13587   1.101   1.793   4.720  0.2995 -0.6948 -0.2877
  127OSM   H17F13588   1.026   1.847   4.781  1.1945 -1.1515  1.2553
  127OSM   H17G13589   1.171   1.868   4.676  1.2334 -2.2910 -1.6195
  127OSM   C18F13590   1.181   1.700   4.807  0.0436 -0.4031 -0.1948
  127OSM   H18F13591   1.275   1.669   4.757 -1.6959 -1.7413 -2.9323
  127OSM   H18G13592   1.111   1.616   4.828  0.1000 -0.9912 -2.1591
  127OSM   H18H13593   1.199   1.759   4.899 -2.0827  1.6501 -0.9736
  128OSM      N13594   2.715   0.885   2.674 -0.0651  0.5235  0.2780
  128OSM    C1513595   2.797   0.971   2.588  0.4080  0.3598 -0.3810
  128OSM   H15A13596   2.788   1.078   2.605 -0.4396  0.6337 -2.2860
  128OSM   H15B13597   2.777   0.955   2.483 -0.9028  3.0285 -0.6433
  128OSM   H15C13598   2.903   0.951   2.595  0.8467  2.0297 -1.6053
  128OSM    C1413599   2.762   0.910   2.815 -0.7809  0.0924 -0.5982
  128OSM   H14A13600   2.718   0.840   2.884  0.5435  0.1821  0.3665
  128OSM   H14B13601   2.737   1.011   2.845  0.0365  0.6035 -1.5631
  128OSM   H14C13602   2.870   0.902   2.815 -0.5862  1.4500 -3.2290
  128OSM    C1313603   2.577   0.947   2.660  0.2198 -0.2555 -1.0389
  128OSM   H13A13604   2.564   0.988   2.562 -3.0328 -1.1076 -1.0632
  128OSM   H13B13605   2.568   1.014   2.744  0.5147 -1.8489  0.3368
  128OSM   H13C13606   2.504   0.869   2.679  1.0417 -0.8200 -0.0865
  128OSM    C1213607   2.718   0.742   2.633 -0.0182 -0.1020  0.2154
  128OSM   H12A13608   2.821   0.711   2.638  0.3427  1.2405  1.9229
  128OSM   H12B13609   2.688   0.746   2.529 -0.1056  1.2980  0.2794
  128OSM    C1113610   2.645   0.638   2.712 -0.2856 -0.3715  0.1638
  128OSM   H11A13611   2.658   0.647   2.822 -0.9581 -1.2388  0.3196
  128OSM   H11B13612   2.684   0.540   2.678  0.7360  0.5906 -1.5822
  128OSM      P13613   2.385   0.571   2.726  0.1000  0.1352  0.2881
  128OSM    O1313614   2.264   0.622   2.666  0.6178  0.6250 -0.6835
  128OSM    O1413615   2.428   0.428   2.704  0.6331 -0.1105 -0.3427
  128OSM    O1113616   2.386   0.596   2.884  0.2197  0.3266  0.5804
  128OSM    O1213617   2.508   0.662   2.678  0.5429 -0.0648  0.0936
  128OSM    C1S13618   2.385   0.735   2.921  0.4690  0.4417  1.3337
  128OSM    H1S13619   2.284   0.775   2.898  1.0996  1.5784  0.4192
  128OSM    H1T13620   2.453   0.794   2.855  2.0164 -2.3145  0.2719
  128OSM     NF13621   2.416   0.905   3.101  0.1871  0.6234  0.3058
  128OSM    HNF13622   2.498   0.962   3.096  1.3734 -1.0212 -0.0802
  128OSM    C2S13623   2.423   0.759   3.065 -0.1420  0.5643  0.0600
  128OSM    H2S13624   2.350   0.711   3.134 -0.4993  2.3654  0.9925
  128OSM    C3S13625   2.563   0.688   3.098 -0.0347 -0.4747  0.0119
  128OSM    H3S13626   2.636   0.737   3.030 -0.2858 -0.5686 -0.3253
  128OSM     O313627   2.564   0.549   3.067 -0.2281 -0.2562  0.2127
  128OSM    HO313628   2.503   0.542   2.994  0.3067  0.9955 -0.3752
  128OSM    C4S13629   2.601   0.723   3.242  0.6517 -0.6265 -0.6461
  128OSM    H4S13630   2.683   0.797   3.239 -0.7481  0.9664 -0.7479
  128OSM    C5S13631   2.561   0.667   3.360  0.6573  0.1260 -0.8541
  128OSM    H5S13632   2.488   0.585   3.356 -0.1212  0.7862 -0.2902
  128OSM    C6S13633   2.618   0.698   3.494 -0.2891 -0.0945 -0.1266
  128OSM    H6S13634   2.547   0.674   3.576 -0.4815 -2.4914 -0.9418
  128OSM    H6T13635   2.632   0.808   3.504 -2.1008  0.1465 -0.0472
  128OSM    C7S13636   2.760   0.638   3.539  0.6970  0.1022 -0.1468
  128OSM    H7S13637   2.782   0.692   3.633 -0.6926  0.3165  0.0758
  128OSM    H7T13638   2.823   0.681   3.459 -1.6865  3.7435 -0.3155
  128OSM    C8S13639   2.776   0.488   3.548  0.6044  0.8866  0.2403
  128OSM    H8S13640   2.775   0.454   3.442  0.7460  0.0670  0.4968
  128OSM    H8T13641   2.693   0.443   3.606  1.4088  1.9689  2.3481
  128OSM    C9S13642   2.912   0.449   3.613 -0.0000 -0.2739 -0.0586
  128OSM    H9S13643   2.981   0.536   3.609  3.4188 -2.8164 -1.6335
  128OSM    H9T13644   2.967   0.370   3.558  0.8716 -2.4465  3.6250
  128OSM   C10S13645   2.914   0.396   3.750 -0.3225 -0.3421 -0.8323
  128OSM   H10S13646   2.867   0.295   3.753  1.6423 -1.2689  0.0994
  128OSM   H10T13647   2.853   0.454   3.823 -1.7633 -1.0620 -1.4237
  128OSM   C11S13648   3.059   0.367   3.798 -0.1593  0.3606 -0.5124
  128OSM   H11S13649   3.116   0.462   3.785  0.8844 -0.2548 -0.5878
  128OSM   H11T13650   3.108   0.302   3.721  0.8772  0.1873  0.2701
  128OSM   C12S13651   3.080   0.308   3.938  0.4416  0.8689  0.0949
  128OSM   H12S13652   3.188   0.294   3.961  0.6157  2.0631  0.0289
  128OSM   H12T13653   3.025   0.211   3.934 -3.2546  2.8116 -0.5716
  128OSM   C13S13654   3.033   0.404   4.048 -0.0337 -0.1033 -0.7822
  128OSM   H13S13655   2.939   0.458   4.025 -1.2646 -1.5868  0.5050
  128OSM   H13T13656   3.114   0.467   4.090 -1.7505  1.1416  0.8198
  128OSM   C14S13657   2.997   0.309   4.166  0.7187  0.2387  0.4564
  128OSM   H14S13658   2.981   0.376   4.254  1.8473  2.1455 -0.7147
  128OSM   H14T13659   3.090   0.250   4.185  1.2504  1.0196  0.3551
  128OSM   C15S13660   2.870   0.225   4.145 -0.6199  0.4089 -0.4514
  128OSM   H15S13661   2.871   0.148   4.225  3.1062 -1.8308 -2.3714
  128OSM   H15T13662   2.861   0.170   4.049  2.2899 -0.4605 -0.3371
  128OSM   C16S13663   2.737   0.304   4.145  0.0089  0.1849 -0.0378
  128OSM   H16S13664   2.652   0.233   4.143  0.7264 -0.6768 -0.3512
  128OSM   H16T13665   2.735   0.355   4.046 -1.1949  0.8205  0.2933
  128OSM   C17S13666   2.708   0.390   4.268  0.3302 -0.8195 -0.5453
  128OSM   H17S13667   2.618   0.450   4.241  0.0909 -0.6926  0.5057
  128OSM   H17T13668   2.792   0.461   4.285  1.0212 -1.6941 -0.1987
  128OSM   C18S13669   2.683   0.303   4.396  0.7921 -0.3562  0.3231
  128OSM   H18S13670   2.609   0.223   4.374 -0.0457  0.6946 -0.9254
  128OSM   H18T13671   2.635   0.352   4.483  1.6306 -2.1067  1.8376
  128OSM   H18U13672   2.781   0.264   4.430  0.9409 -0.9815 -0.7534
  128OSM    C1F13673   2.303   0.957   3.118 -0.4329 -0.5022  0.1131
  128OSM     OF13674   2.203   0.901   3.072  0.6478 -0.3186 -0.3291
  128OSM    C2F13675   2.292   1.094   3.183 -0.2669 -0.2611  0.0128
  128OSM    H2F13676   2.303   1.177   3.110 -2.3306 -1.2695 -1.5311
  128OSM    H2G13677   2.384   1.105   3.245  0.2149  0.5430 -0.8165
  128OSM    C3F13678   2.170   1.114   3.273 -0.3582 -0.0587  0.0918
  128OSM    H3F13679   2.083   1.110   3.204 -0.5535 -2.5229  0.4056
  128OSM    H3G13680   2.176   1.219   3.309 -2.5905 -0.5244  2.0487
  128OSM    C4F13681   2.154   1.025   3.399  0.1462  0.0113 -0.4173
  128OSM    H4F13682   2.126   0.919   3.384  0.5460 -0.3180  1.0249
  128OSM    H4G13683   2.086   1.072   3.473 -2.4086 -1.0016 -1.9947
  128OSM    C5F13684   2.280   1.011   3.487  0.0691 -0.2572  0.4688
  128OSM    H5F13685   2.319   1.113   3.510 -0.6150  0.2347 -0.4851
  128OSM    H5G13686   2.358   0.958   3.428  0.0385  1.3291 -1.0803
  128OSM    C6F13687   2.257   0.937   3.615 -0.1766  0.2799 -0.2377
  128OSM    H6F13688   2.339   0.864   3.631 -0.9119 -0.3874  0.6110
  128OSM    H6G13689   2.163   0.877   3.611 -0.1563  0.1317  1.0374
  128OSM    C7F13690   2.246   1.032   3.735 -0.5812  0.8939  0.0475
  128OSM    H7F13691   2.186   1.121   3.705 -0.0449  1.0411 -0.6195
  128OSM    H7G13692   2.345   1.077   3.758 -0.5063  1.6051 -1.5215
  128OSM    C8F13693   2.185   0.959   3.858  0.7821 -0.6245 -0.2710
  128OSM    H8F13694   2.277   0.917   3.905  0.1771  1.2057  2.7917
  128OSM    H8G13695   2.118   0.879   3.821 -0.4799  0.2373  0.0837
  128OSM    C9F13696   2.116   1.053   3.951 -0.1505 -0.9852 -0.4889
  128OSM    H9F13697   2.008   1.065   3.934 -0.3802 -0.0923  1.4054
  128OSM   C10F13698   2.173   1.119   4.052 -0.4475 -0.1615  0.1408
  128OSM   H10F13699   2.112   1.184   4.117 -3.1001 -0.2263 -2.0991
  128OSM   C11F13700   2.324   1.104   4.077  0.3002  0.2800  0.5813
  128OSM   H11F13701   2.375   1.169   4.003 -0.6629  3.0091  2.1923
  128OSM   H11G13702   2.352   0.997   4.065 -1.1582 -0.0142 -0.5045
  128OSM   C12F13703   2.369   1.149   4.213  0.9427 -0.0700 -0.0606
  128OSM   H12F13704   2.479   1.149   4.227  0.7695  0.4139  1.5411
  128OSM   H12G13705   2.322   1.084   4.290 -0.0722 -0.0770 -0.6669
  128OSM   C13F13706   2.316   1.287   4.245 -0.5188  0.2859  0.0292
  128OSM   H13F13707   2.211   1.263   4.272 -0.3760 -0.6346 -0.2058
  128OSM   H13G13708   2.340   1.351   4.157  1.0543  1.4652  1.2444
  128OSM   C14F13709   2.384   1.359   4.364 -0.0848 -0.1940  0.0471
  128OSM   H14F13710   2.494   1.353   4.350 -0.1560  0.1503 -0.7257
  128OSM   H14G13711   2.365   1.316   4.464  0.4484 -0.7534 -0.0847
  128OSM   C15F13712   2.358   1.515   4.364 -0.3239  0.6352  0.3986
  128OSM   H15F13713   2.411   1.552   4.274  0.2319  0.0097  0.4611
  128OSM   H15G13714   2.408   1.553   4.456  0.2142 -0.8096  0.7178
  128OSM   C16F13715   2.209   1.554   4.344  0.0883  0.4874  0.1248
  128OSM   H16F13716   2.173   1.511   4.248 -1.5124 -0.2844  1.0196
  128OSM   H16G13717   2.211   1.665   4.334  0.5876  0.3249 -2.2670
  128OSM   C17F13718   2.120   1.503   4.461 -0.0729 -0.4443  0.4115
  128OSM   H17F13719   2.153   1.548   4.558  0.8321  1.0440 -0.5467
  128OSM   H17G13720   2.138   1.396   4.484  1.9425 -0.2368 -0.0061
  128OSM   C18F13721   1.968   1.518   4.434 -0.1488  0.2855 -0.1618
  128OSM   H18F13722   1.913   1.523   4.531  0.6051 -0.9088  0.3588
  128OSM   H18G13723   1.919   1.426   4.394 -0.9014 -0.2674  1.8732
  128OSM   H18H13724   1.938   1.608   4.376 -0.9635  0.1125 -0.0339
  129OSM      N13725   3.978   4.666   2.652  0.6249  0.3958  0.9155
  129OSM    C1513726   3.945   4.696   2.505  0.2070 -0.4154  0.3926
  129OSM   H15A13727   4.014   4.651   2.436 -0.9736 -1.9098  0.1200
  129OSM   H15B13728   3.953   4.803   2.494  1.3855 -0.6340 -1.0575
  129OSM   H15C13729   3.852   4.651   2.472  0.1162 -0.6234  0.9154
  129OSM    C1413730   3.939   4.521   2.680  0.6805 -0.0016  0.1846
  129OSM   H14A13731   4.005   4.446   2.638 -1.5559 -2.4303  0.7196
  129OSM   H14B13732   3.835   4.502   2.661  0.1293  0.6765  2.3163
  129OSM   H14C13733   3.948   4.514   2.787 -3.0593 -2.6648  0.4944
  129OSM    C1313734   4.128   4.675   2.660  0.2149 -0.3981 -0.1362
  129OSM   H13A13735   4.153   4.642   2.760  0.5387 -2.8457 -0.9596
  129OSM   H13B13736   4.160   4.775   2.637  0.4226 -0.6390 -0.9381
  129OSM   H13C13737   4.183   4.607   2.597  1.3605 -1.2028  1.6233
  129OSM    C1213738   3.907   4.765   2.745  0.3241  0.1010  0.1614
  129OSM   H12A13739   3.918   4.734   2.848 -2.2446 -0.5521  0.3183
  129OSM   H12B13740   3.800   4.754   2.738 -0.0649  0.5230  3.6200
  129OSM    C1113741   3.929   4.917   2.708  0.2393 -0.4150 -0.6768
  129OSM   H11A13742   4.038   4.931   2.697 -0.0741  0.4591 -3.2537
  129OSM   H11B13743   3.900   4.975   2.798  0.7276 -2.7346  1.0782
  129OSM      P13744   3.704   4.964   2.586  0.7642 -0.1000  0.2042
  129OSM    O1313745   3.663   5.089   2.534  0.5411 -0.4492  0.1039
  129OSM    O1413746   3.660   4.844   2.509 -0.9335 -0.2104 -0.0052
  129OSM    O1113747   3.655   4.953   2.737  0.5056 -0.5824 -0.0788
  129OSM    O1213748   3.860   4.965   2.591 -0.2138  0.1452  0.0573
  129OSM    C1S13749   3.532   4.884   2.775  0.2984  0.6650 -0.5000
  129OSM    H1S13750   3.522   4.783   2.729  1.5399 -0.9372  2.4556
  129OSM    H1T13751   3.437   4.932   2.742  0.0885 -0.3372 -1.4080
  129OSM     NF13752   3.436   4.739   2.961 -0.8614 -0.2855 -0.8248
  129OSM    HNF13753   3.360   4.784   3.008  0.9307  2.2071 -0.0927
  129OSM    C2S13754   3.540   4.838   2.923 -0.4835  0.9976  0.3849
  129OSM    H2S13755   3.636   4.784   2.923 -0.7267  0.4453 -1.9938
  129OSM    C3S13756   3.548   4.961   3.014  0.8728  0.2745 -0.0200
  129OSM    H3S13757   3.449   5.012   3.016 -0.1363 -1.5699  0.3146
  129OSM     O313758   3.643   5.058   2.966 -0.4651 -0.2534 -0.0164
  129OSM    HO313759   3.663   5.018   2.881  0.8827 -0.3705  0.3417
  129OSM    C4S13760   3.577   4.912   3.156  0.1661 -0.1206 -0.1601
  129OSM    H4S13761   3.490   4.900   3.223 -0.6416  2.2573 -0.6761
  129OSM    C5S13762   3.702   4.884   3.201 -0.4909  0.4777  0.9355
  129OSM    H5S13763   3.786   4.893   3.130 -0.7210 -0.1951  0.5678
  129OSM    C6S13764   3.741   4.816   3.330 -0.1805 -0.1747 -0.2914
  129OSM    H6S13765   3.849   4.795   3.318 -0.2270 -0.8856  0.4980
  129OSM    H6T13766   3.694   4.717   3.345 -2.2740  1.2041  3.7778
  129OSM    C7S13767   3.708   4.903   3.448 -0.0428 -0.2412  0.2219
  129OSM    H7S13768   3.599   4.926   3.448 -0.2906 -1.1982  1.8801
  129OSM    H7T13769   3.746   5.005   3.430  0.7458 -0.4029  0.9064
  129OSM    C8S13770   3.749   4.837   3.583 -0.2772 -0.1886 -0.0626
  129OSM    H8S13771   3.858   4.819   3.585 -0.3252 -0.5233 -0.2969
  129OSM    H8T13772   3.707   4.734   3.593  0.3429 -0.2604  2.2231
  129OSM    C9S13773   3.706   4.921   3.702  0.6459  0.6917 -0.0040
  129OSM    H9S13774   3.598   4.942   3.686  0.9902  1.9455 -0.7558
  129OSM    H9T13775   3.759   5.018   3.701 -0.7962  1.5173 -1.8683
  129OSM   C10S13776   3.715   4.837   3.829 -1.3143 -0.1223  1.1508
  129OSM   H10S13777   3.821   4.806   3.846 -1.5130 -1.0483  0.7358
  129OSM   H10T13778   3.661   4.741   3.833  1.2883 -1.7483 -0.1196
  129OSM   C11S13779   3.665   4.910   3.952 -0.1096 -0.3410  0.8285
  129OSM   H11S13780   3.554   4.918   3.943 -0.3116 -3.5225 -2.0812
  129OSM   H11T13781   3.714   5.009   3.947  0.2845 -0.5198  1.0972
  129OSM   C12S13782   3.714   4.856   4.089 -0.4572 -0.4081 -0.7696
  129OSM   H12S13783   3.823   4.863   4.111 -0.6102 -0.3025 -0.0390
  129OSM   H12T13784   3.709   4.745   4.080 -0.6715 -0.5495  0.9066
  129OSM   C13S13785   3.641   4.913   4.213 -0.0856 -0.1267  0.4132
  129OSM   H13S13786   3.535   4.939   4.196  0.0045  0.7310  1.0873
  129OSM   H13T13787   3.688   5.011   4.234 -0.8678  0.3352  0.0082
  129OSM   C14S13788   3.667   4.832   4.341  0.0634  0.6783  0.1598
  129OSM   H14S13789   3.772   4.823   4.374  0.7217  0.3712 -1.8511
  129OSM   H14T13790   3.627   4.729   4.327  0.9579  0.3735 -0.2098
  129OSM   C15S13791   3.580   4.892   4.454  0.3375  0.5866  0.3024
  129OSM   H15S13792   3.476   4.888   4.415  0.0823  0.9166  0.9317
  129OSM   H15T13793   3.616   4.996   4.466  1.8304  0.4930 -2.6032
  129OSM   C16S13794   3.577   4.807   4.580 -0.4382 -0.2926 -0.6258
  129OSM   H16S13795   3.594   4.700   4.554  2.3110  0.6530 -3.2562
  129OSM   H16T13796   3.476   4.812   4.627 -0.0893 -0.6770  0.1904
  129OSM   C17S13797   3.677   4.848   4.689  0.0060  0.8365 -0.6385
  129OSM   H17S13798   3.785   4.830   4.667 -0.0698 -0.0547 -0.3511
  129OSM   H17T13799   3.662   4.779   4.775  0.1527  1.7968  0.1740
  129OSM   C18S13800   3.658   4.984   4.750  0.3418 -0.6243  0.6395
  129OSM   H18S13801   3.561   4.993   4.802  1.0194  0.8461  1.7086
  129OSM   H18T13802   3.666   5.068   4.678 -0.1014 -0.6723  0.5334
  129OSM   H18U13803   3.735   5.002   4.828 -0.7212  3.4106  0.9431
  129OSM    C1F13804   3.427   4.610   2.921  0.3562 -0.0823 -0.1354
  129OSM     OF13805   3.520   4.560   2.857  0.4412 -0.2964 -0.4236
  129OSM    C2F13806   3.317   4.525   2.974  0.0775  0.5162  0.9009
  129OSM    H2F13807   3.286   4.436   2.917 -1.2283  0.8045  1.1433
  129OSM    H2G13808   3.232   4.593   2.997 -0.2229 -0.1942  1.9439
  129OSM    C3F13809   3.372   4.452   3.102  0.2961  0.1809  0.7328
  129OSM    H3F13810   3.472   4.411   3.076 -0.1950 -1.5758  1.4710
  129OSM    H3G13811   3.305   4.372   3.138  0.2611 -0.1074  0.0537
  129OSM    C4F13812   3.386   4.541   3.222 -0.1847  0.2802  0.2478
  129OSM    H4F13813   3.277   4.550   3.239 -0.9271 -1.5808 -2.7719
  129OSM    H4G13814   3.451   4.626   3.194  0.5678 -0.4843 -0.3999
  129OSM    C5F13815   3.463   4.457   3.327 -0.2178 -0.9136 -0.7115
  129OSM    H5F13816   3.562   4.442   3.281  0.7410 -0.4847  1.0858
  129OSM    H5G13817   3.417   4.357   3.338 -2.6164  0.3170  1.9315
  129OSM    C6F13818   3.456   4.525   3.461  1.2385  0.5035 -0.6505
  129OSM    H6F13819   3.351   4.529   3.497  0.9839  0.2161 -1.3430
  129OSM    H6G13820   3.495   4.628   3.448  0.6579  0.9302  0.7601
  129OSM    C7F13821   3.542   4.463   3.573 -0.3368  0.5935  0.2290
  129OSM    H7F13822   3.646   4.457   3.534 -0.9690  2.6041 -2.0246
  129OSM    H7G13823   3.500   4.360   3.574 -2.1144  1.2777 -0.2544
  129OSM    C8F13824   3.523   4.532   3.705 -0.1061 -0.7029 -0.1196
  129OSM    H8F13825   3.530   4.639   3.677  3.4430 -0.7723  0.0025
  129OSM    H8G13826   3.609   4.519   3.774  0.7289  0.5311 -0.8917
  129OSM    C9F13827   3.401   4.495   3.785 -0.0765 -0.3119  0.1797
  129OSM    H9F13828   3.325   4.446   3.722  1.3905  0.8210 -2.6386
  129OSM   C10F13829   3.382   4.498   3.915  0.1410 -0.2823 -0.4146
  129OSM   H10F13830   3.282   4.480   3.957  0.8226 -2.0461  0.5762
  129OSM   C11F13831   3.479   4.556   4.012 -0.6405  0.6405 -0.5645
  129OSM   H11F13832   3.514   4.658   3.986 -0.4927  1.1845  1.5689
  129OSM   H11G13833   3.572   4.504   3.980  0.3958  2.0540  0.0466
  129OSM   C12F13834   3.449   4.534   4.158 -0.0493  1.3511  0.1846
  129OSM   H12F13835   3.355   4.588   4.182 -0.6814  1.3392 -2.0376
  129OSM   H12G13836   3.528   4.588   4.215 -1.5120  3.1972  0.5544
  129OSM   C13F13837   3.441   4.385   4.198 -0.3777  0.3402 -0.0696
  129OSM   H13F13838   3.528   4.335   4.152 -0.5594  0.1194 -0.1787
  129OSM   H13G13839   3.352   4.333   4.156 -0.0246 -1.7881  1.6608
  129OSM   C14F13840   3.432   4.362   4.352  0.4287 -0.1568  0.0520
  129OSM   H14F13841   3.331   4.388   4.391 -0.5454  0.1513 -2.4763
  129OSM   H14G13842   3.505   4.425   4.406  0.4465 -0.1483  0.0190
  129OSM   C15F13843   3.467   4.223   4.386 -1.2564  0.3017 -0.4677
  129OSM   H15F13844   3.568   4.210   4.342 -0.7208  1.2346  0.4457
  129OSM   H15G13845   3.395   4.149   4.345 -2.0618  0.0655  1.2641
  129OSM   C16F13846   3.493   4.207   4.533  0.2475  0.1670  0.8985
  129OSM   H16F13847   3.391   4.225   4.573 -0.1938  2.1996 -0.9294
  129OSM   H16G13848   3.562   4.291   4.559 -0.0449  1.2112 -1.4187
  129OSM   C17F13849   3.533   4.067   4.570 -0.1717 -0.0708 -0.4340
  129OSM   H17F13850   3.631   4.051   4.520 -1.5927  0.4491 -3.6045
  129OSM   H17G13851   3.470   3.988   4.526  0.1931 -0.8256  0.3676
  129OSM   C18F13852   3.571   4.047   4.717 -0.0041 -0.1710  0.5544
  129OSM   H18F13853   3.630   3.954   4.734 -1.8105 -1.1851  1.7305
  129OSM   H18G13854   3.479   4.039   4.779 -0.8790 -0.9204 -0.8117
  129OSM   H18H13855   3.623   4.136   4.760  1.5815 -0.4210 -0.7544
  130OSM      N13856   1.994   2.219   2.073 -0.5176  0.5586 -0.5019
  130OSM    C1513857   1.872   2.206   2.144  0.4660 -0.7801 -0.3899
  130OSM   H15A13858   1.869   2.103   2.176  0.6126 -0.5762  0.2945
  130OSM   H15B13859   1.788   2.217   2.077  0.8497 -1.8532 -1.0797
  130OSM   H15C13860   1.876   2.271   2.229  0.7791  0.9712 -1.6871
  130OSM    C1413861   1.991   2.127   1.963  0.0608 -0.0860 -0.0387
  130OSM   H14A13862   1.923   2.149   1.882  0.8366  0.7793 -0.4802
  130OSM   H14B13863   1.968   2.028   2.000 -3.6646  0.4060 -0.6332
  130OSM   H14C13864   2.089   2.124   1.917 -0.3573 -1.9730 -0.8923
  130OSM    C1313865   2.010   2.357   2.024 -0.0580  0.3074  0.1012
  130OSM   H13A13866   2.115   2.380   2.012 -0.2685  0.9697 -0.5361
  130OSM   H13B13867   1.950   2.429   2.078 -2.7725 -1.0464 -0.8936
  130OSM   H13C13868   1.977   2.359   1.921 -1.0682 -0.9552  0.3736
  130OSM    C1213869   2.114   2.187   2.164 -0.0315  0.1941  0.3101
  130OSM   H12A13870   2.208   2.188   2.111  1.6642  0.5094  3.1096
  130OSM   H12B13871   2.109   2.086   2.202  2.9353 -0.2911 -0.3222
  130OSM    C1113872   2.142   2.292   2.278  0.3174  0.2164 -0.2043
  130OSM   H11A13873   2.158   2.392   2.231  1.1699  1.0978  1.8332
  130OSM   H11B13874   2.234   2.265   2.333 -1.3861 -2.9249  1.3609
  130OSM      P13875   2.028   2.174   2.481 -0.5358  0.0019 -0.0587
  130OSM    O1313876   1.887   2.125   2.480  0.0004  0.0025  0.1349
  130OSM    O1413877   2.136   2.068   2.462  0.4033 -0.5890  0.1991
  130OSM    O1113878   2.060   2.243   2.618 -1.3026  0.4304  0.7481
  130OSM    O1213879   2.030   2.289   2.371 -0.5778 -0.0442 -0.5326
  130OSM    C1S13880   1.964   2.334   2.667 -1.0075 -0.0698 -0.1744
  130OSM    H1S13881   1.869   2.278   2.684 -0.9214 -0.1738 -0.0371
  130OSM    H1T13882   1.938   2.418   2.599 -0.4476 -0.0471 -0.3650
  130OSM     NF13883   1.885   2.430   2.882 -0.2161  0.5015 -0.6918
  130OSM    HNF13884   1.869   2.528   2.882 -2.3814  0.2129  0.2695
  130OSM    C2S13885   2.004   2.383   2.810 -0.1448 -0.8524 -0.1579
  130OSM    H2S13886   2.040   2.288   2.855 -0.5270 -0.9248 -0.0011
  130OSM    C3S13887   2.123   2.474   2.804  0.2781  0.0745  1.0975
  130OSM    H3S13888   2.087   2.563   2.748  0.6392 -0.3278  0.2070
  130OSM     O313889   2.236   2.415   2.740  0.2837  0.5559 -0.3502
  130OSM    HO313890   2.204   2.333   2.701 -0.4963  1.0570 -0.7867
  130OSM    C4S13891   2.176   2.507   2.938 -0.2560  0.2262 -0.2587
  130OSM    H4S13892   2.241   2.431   2.985 -2.0915  0.3076  2.6549
  130OSM    C5S13893   2.128   2.606   3.013  0.1424  0.1990  0.2651
  130OSM    H5S13894   2.033   2.642   2.971 -1.0097 -3.4907 -0.5840
  130OSM    C6S13895   2.170   2.628   3.156 -0.6011  0.1582  0.2057
  130OSM    H6S13896   2.096   2.582   3.224 -2.2600 -1.3391 -2.4055
  130OSM    H6T13897   2.169   2.736   3.181 -1.4907  0.1895  0.0401
  130OSM    C7S13898   2.314   2.596   3.188  0.3266 -0.0398 -0.0914
  130OSM    H7S13899   2.394   2.655   3.138  2.2135 -2.1651  0.2530
  130OSM    H7T13900   2.344   2.490   3.175  2.6473  0.5018  0.3565
  130OSM    C8S13901   2.340   2.605   3.344  0.4824 -0.1207 -0.1112
  130OSM    H8S13902   2.258   2.547   3.390  0.3130  0.9503  0.9950
  130OSM    H8T13903   2.324   2.706   3.388  0.8778  0.0042 -0.2439
  130OSM    C9S13904   2.473   2.550   3.395  0.1877  0.0651  0.2967
  130OSM    H9S13905   2.558   2.613   3.361  0.2021  1.5849  2.9071
  130OSM    H9T13906   2.489   2.453   3.343 -1.4971 -0.5800  0.9117
  130OSM   C10S13907   2.469   2.526   3.548 -0.4024  1.0494  0.4882
  130OSM   H10S13908   2.558   2.467   3.580 -0.5481  0.3450 -0.3758
  130OSM   H10T13909   2.377   2.470   3.575 -0.4302 -1.3881 -3.8415
  130OSM   C11S13910   2.481   2.657   3.636 -0.1727 -0.8011 -0.1657
  130OSM   H11S13911   2.433   2.744   3.586  0.2593 -0.2138  0.4421
  130OSM   H11T13912   2.590   2.675   3.623 -0.2127 -0.4709 -0.0298
  130OSM   C12S13913   2.425   2.645   3.780 -0.4668 -0.9631  0.2867
  130OSM   H12S13914   2.446   2.540   3.809  2.5917 -1.1007 -1.9231
  130OSM   H12T13915   2.315   2.655   3.776 -0.3680 -0.1077 -1.4524
  130OSM   C13S13916   2.494   2.747   3.874  0.2355 -0.1741  1.0052
  130OSM   H13S13917   2.450   2.844   3.842 -2.6128 -1.9406 -0.8564
  130OSM   H13T13918   2.604   2.750   3.857  0.0807 -0.8544 -0.2392
  130OSM   C14S13919   2.462   2.722   4.020 -0.5007  0.5845  0.9203
  130OSM   H14S13920   2.497   2.621   4.052  1.7507  0.4653 -1.5979
  130OSM   H14T13921   2.351   2.728   4.032 -0.3305 -0.0668  3.3187
  130OSM   C15S13922   2.527   2.830   4.113  0.6260  0.4148  0.2591
  130OSM   H15S13923   2.470   2.923   4.090  1.1966  0.7890  0.3251
  130OSM   H15T13924   2.633   2.852   4.086 -0.0506  1.6595 -1.5895
  130OSM   C16S13925   2.505   2.785   4.260  0.3948  0.1996 -0.4278
  130OSM   H16S13926   2.529   2.677   4.276 -1.9052 -0.1715  1.0132
  130OSM   H16T13927   2.396   2.797   4.279  0.5416 -0.9415  1.4033
  130OSM   C17S13928   2.567   2.870   4.371  0.0455 -0.1698  0.0897
  130OSM   H17S13929   2.592   2.803   4.456  1.6848 -0.9066 -0.9301
  130OSM   H17T13930   2.494   2.941   4.417 -1.7107 -1.9245  0.1790
  130OSM   C18S13931   2.693   2.939   4.331  0.8486 -0.0056  0.5250
  130OSM   H18S13932   2.668   3.010   4.249 -0.6976 -0.1598  0.8378
  130OSM   H18T13933   2.763   2.870   4.279  0.7239  0.1341  0.1716
  130OSM   H18U13934   2.751   2.998   4.405 -1.2244  2.2668  0.4443
  130OSM    C1F13935   1.787   2.353   2.936  0.3304 -0.2441  0.1150
  130OSM     OF13936   1.684   2.411   2.957 -0.3071 -0.2431 -0.1999
  130OSM    C2F13937   1.797   2.209   2.963 -0.5699 -0.5518 -0.3906
  130OSM    H2F13938   1.818   2.158   2.866 -1.9368 -3.1554  0.5832
  130OSM    H2G13939   1.694   2.183   2.997 -1.3523  0.8025 -1.5457
  130OSM    C3F13940   1.901   2.180   3.068 -0.4030  0.5299  0.2947
  130OSM    H3F13941   1.998   2.232   3.050 -1.4208  1.8379 -1.7218
  130OSM    H3G13942   1.935   2.074   3.066 -2.5949 -0.2156 -0.4315
  130OSM    C4F13943   1.853   2.208   3.207  0.2745  0.1881  0.0805
  130OSM    H4F13944   1.754   2.160   3.219  0.6749 -1.6539 -2.9834
  130OSM    H4G13945   1.836   2.314   3.239  1.2330  0.0382  1.1953
  130OSM    C5F13946   1.940   2.153   3.322 -0.0694  0.1843 -0.6014
  130OSM    H5F13947   1.966   2.045   3.316  2.1238  0.5695  0.8973
  130OSM    H5G13948   1.871   2.169   3.407 -0.7997 -0.0266 -1.1479
  130OSM    C6F13949   2.066   2.241   3.355  0.8493 -0.5676  0.0232
  130OSM    H6F13950   2.052   2.333   3.416 -2.6450 -0.8113 -0.2115
  130OSM    H6G13951   2.108   2.269   3.256  0.1790 -0.2641 -0.1829
  130OSM    C7F13952   2.185   2.166   3.418  0.5836  0.2756 -0.0362
  130OSM    H7F13953   2.263   2.245   3.411 -0.1108  0.9674 -0.0689
  130OSM    H7G13954   2.210   2.089   3.341  0.6325 -0.1493  0.4029
  130OSM    C8F13955   2.162   2.114   3.563 -0.2564  0.3946 -0.0678
  130OSM    H8F13956   2.075   2.046   3.554  0.8922 -1.1882  0.3412
  130OSM    H8G13957   2.132   2.206   3.617 -0.2164 -0.0230  0.6845
  130OSM    C9F13958   2.286   2.041   3.613  0.1158  0.5772 -0.6688
  130OSM    H9F13959   2.311   1.945   3.565  1.7365 -0.8955  2.7346
  130OSM   C10F13960   2.369   2.091   3.707 -0.6638  0.5625 -0.1797
  130OSM   H10F13961   2.449   2.025   3.745 -0.7621 -1.2032 -2.7589
  130OSM   C11F13962   2.347   2.206   3.794 -0.0024  0.0239 -0.5501
  130OSM   H11F13963   2.256   2.262   3.764 -1.3001 -1.1082  1.0378
  130OSM   H11G13964   2.435   2.273   3.802 -0.5441  0.6778  0.1120
  130OSM   C12F13965   2.313   2.157   3.935 -0.0556  0.5852 -0.1197
  130OSM   H12F13966   2.392   2.088   3.974 -0.2349  0.1521 -0.5103
  130OSM   H12G13967   2.219   2.098   3.941 -0.0556  0.7291  1.9643
  130OSM   C13F13968   2.300   2.265   4.042 -0.1049 -0.6446  0.1881
  130OSM   H13F13969   2.267   2.360   3.996 -0.8160 -1.1928 -0.4553
  130OSM   H13G13970   2.402   2.297   4.074 -0.7884  0.0688  1.7514
  130OSM   C14F13971   2.213   2.229   4.161  0.7399 -0.0360  0.1436
  130OSM   H14F13972   2.220   2.128   4.207  0.9078 -0.5225 -0.9201
  130OSM   H14G13973   2.108   2.243   4.129  0.0065  1.1209  2.8304
  130OSM   C15F13974   2.228   2.329   4.275 -0.5909  0.3699  0.6859
  130OSM   H15F13975   2.135   2.329   4.335 -2.4246  0.6218 -1.9882
  130OSM   H15G13976   2.251   2.431   4.236  1.6939 -1.1127 -2.2366
  130OSM   C16F13977   2.351   2.306   4.377  0.8686 -0.4008  0.6854
  130OSM   H16F13978   2.387   2.410   4.389 -2.1224  0.9028 -0.5514
  130OSM   H16G13979   2.442   2.256   4.339  2.2077  0.9043  2.0747
  130OSM   C17F13980   2.306   2.241   4.504  0.2876 -0.7515 -0.0015
  130OSM   H17F13981   2.236   2.156   4.490 -2.6972  1.5670 -0.1844
  130OSM   H17G13982   2.237   2.314   4.553  0.5152 -0.7811  0.3707
  130OSM   C18F13983   2.416   2.221   4.606  0.0758  0.0535 -0.3435
  130OSM   H18F13984   2.477   2.129   4.593  0.6010  0.4949 -1.0926
  130OSM   H18G13985   2.380   2.236   4.710 -1.5481  0.8405 -0.9729
  130OSM   H18H13986   2.488   2.305   4.593  0.6188 -0.7491 -3.1127
  131OSM      N13987   1.569   5.726   2.673 -0.6909 -0.5956  0.7706
  131OSM    C1513988   1.454   5.704   2.587  0.0702 -0.0996  0.8619
  131OSM   H15A13989   1.493   5.705   2.487  0.0552  1.6007  0.8448
  131OSM   H15B13990   1.391   5.791   2.600 -0.6412 -0.5959  0.8151
  131OSM   H15C13991   1.398   5.615   2.610  2.7737 -2.4201 -0.8590
  131OSM    C1413992   1.668   5.616   2.662  0.7110 -0.2349  0.1436
  131OSM   H14A13993   1.767   5.640   2.698 -0.0874 -0.8614  3.0636
  131OSM   H14B13994   1.669   5.598   2.556 -2.9333  1.3239 -0.2964
  131OSM   H14C13995   1.623   5.534   2.715 -3.0107  0.4969 -1.6126
  131OSM    C1313996   1.638   5.846   2.627  0.0986 -0.4595  0.1963
  131OSM   H13A13997   1.719   5.870   2.693  0.0479  0.0908  0.0650
  131OSM   H13B13998   1.576   5.934   2.627  0.2072 -0.3838  0.2653
  131OSM   H13C13999   1.681   5.833   2.529 -0.2147 -0.0624  0.0009
  131OSM    C1214000   1.528   5.750   2.813  0.2199  0.0346 -0.2593
  131OSM   H12A14001   1.615   5.755   2.877  1.9223 -1.5028 -2.3160
  131OSM   H12B14002   1.476   5.661   2.843 -0.0892 -0.0222 -0.9514
  131OSM    C1114003   1.453   5.882   2.842 -0.0518 -0.4992 -0.4771
  131OSM   H11A14004   1.523   5.960   2.805  1.5461 -1.3048  0.7245
  131OSM   H11B14005   1.441   5.879   2.952  1.2314 -1.3022 -0.3466
  131OSM      P14006   1.258   6.024   2.753  0.3032  0.1151  0.4534
  131OSM    O1314007   1.336   6.091   2.643 -0.0929 -0.0571 -0.0238
  131OSM    O1414008   1.112   6.006   2.728  0.3769 -0.1942  0.7246
  131OSM    O1114009   1.273   6.099   2.889  0.1807  0.0954  0.6183
  131OSM    O1214010   1.321   5.881   2.780  0.0421 -0.4221 -0.3166
  131OSM    C1S14011   1.161   6.130   2.976 -0.2416  0.0683 -0.8662
  131OSM    H1S14012   1.097   6.041   2.997  1.2778 -1.1896 -1.3229
  131OSM    H1T14013   1.090   6.202   2.931 -0.3170  0.3684 -0.2798
  131OSM     NF14014   1.110   6.181   3.219 -0.1197 -0.0523  1.1478
  131OSM    HNF14015   1.056   6.264   3.234  0.7164  0.1657  3.4678
  131OSM    C2S14016   1.212   6.190   3.113  0.3872  0.0037 -0.3566
  131OSM    H2S14017   1.294   6.123   3.149 -0.3653 -1.0087 -0.4673
  131OSM    C3S14018   1.265   6.332   3.101 -0.8702 -0.5908  0.3246
  131OSM    H3S14019   1.183   6.406   3.091 -0.3801 -0.2172 -1.2266
  131OSM     O314020   1.348   6.346   2.983  0.2552 -0.2679  0.3016
  131OSM    HO314021   1.344   6.257   2.948 -1.7480 -0.9247  2.0143
  131OSM    C4S14022   1.338   6.366   3.226 -0.0389  0.1146 -0.6824
  131OSM    H4S14023   1.266   6.403   3.300  0.8149  0.2604  0.0828
  131OSM    C5S14024   1.469   6.358   3.268  0.8365 -0.4383  0.3881
  131OSM    H5S14025   1.551   6.327   3.203  0.5223  0.9346 -0.7070
  131OSM    C6S14026   1.503   6.384   3.408 -0.1760 -0.5540 -0.3279
  131OSM    H6S14027   1.523   6.295   3.471  0.1226 -1.0180 -1.0746
  131OSM    H6T14028   1.414   6.416   3.467 -0.4897 -1.0831 -0.5140
  131OSM    C7S14029   1.623   6.477   3.414 -0.1105 -0.1635 -0.2350
  131OSM    H7S14030   1.611   6.566   3.350 -1.2566  0.8302  1.2742
  131OSM    H7T14031   1.715   6.430   3.375 -0.8788 -1.2753 -0.7777
  131OSM    C8S14032   1.659   6.537   3.550  0.5266  0.2712  0.0770
  131OSM    H8S14033   1.764   6.571   3.534  0.8077 -0.6501 -0.0987
  131OSM    H8T14034   1.663   6.446   3.614  1.4367 -0.0441 -0.4132
  131OSM    C9S14035   1.573   6.651   3.603 -0.2750 -0.8258  0.1443
  131OSM    H9S14036   1.478   6.604   3.637 -2.1555  1.3850 -1.6561
  131OSM    H9T14037   1.542   6.710   3.514 -0.5926 -3.2307 -1.4253
  131OSM   C10S14038   1.644   6.747   3.704  0.6081  0.3397  0.2718
  131OSM   H10S14039   1.559   6.800   3.753  1.4015  0.7973  1.2048
  131OSM   H10T14040   1.707   6.822   3.652 -2.2090  0.8637 -2.6586
  131OSM   C11S14041   1.725   6.677   3.812  0.0400  0.3089 -0.7801
  131OSM   H11S14042   1.821   6.632   3.777  1.2853  2.3438 -0.1557
  131OSM   H11T14043   1.654   6.598   3.845  0.0930 -0.0980 -1.5965
  131OSM   C12S14044   1.742   6.754   3.947  0.1903 -0.1776  0.5939
  131OSM   H12S14045   1.645   6.805   3.962  1.6281  1.8168  4.6673
  131OSM   H12T14046   1.812   6.840   3.944  0.3303 -0.1655  2.9907
  131OSM   C13S14047   1.764   6.665   4.070 -0.5430 -0.3584  0.3400
  131OSM   H13S14048   1.871   6.652   4.096 -0.7987  0.4044  1.8785
  131OSM   H13T14049   1.725   6.563   4.049 -0.5088  0.0940 -2.2611
  131OSM   C14S14050   1.679   6.716   4.182  0.2155  0.0690  0.3007
  131OSM   H14S14051   1.580   6.743   4.139  0.1792  1.7436  1.3311
  131OSM   H14T14052   1.721   6.816   4.209 -1.7286  0.9224  0.3509
  131OSM   C15S14053   1.670   6.625   4.308  0.1573  0.6226  0.1970
  131OSM   H15S14054   1.776   6.627   4.342 -0.0595  0.4766  0.9126
  131OSM   H15T14055   1.645   6.524   4.269 -4.0694  1.5640 -0.0746
  131OSM   C16S14056   1.562   6.656   4.414 -0.0827 -0.3610 -0.3849
  131OSM   H16S14057   1.582   6.591   4.501 -0.6080  1.7565  1.4039
  131OSM   H16T14058   1.458   6.644   4.375 -0.4053  0.4593  0.1785
  131OSM   C17S14059   1.570   6.802   4.470  0.3605  0.5353  0.3789
  131OSM   H17S14060   1.497   6.819   4.551  0.4939 -1.3672  0.9504
  131OSM   H17T14061   1.538   6.866   4.385 -0.3449  0.9366  0.9443
  131OSM   C18S14062   1.709   6.848   4.517 -0.6746  0.8570  0.2683
  131OSM   H18S14063   1.746   6.772   4.589 -1.2182  1.3134  1.0512
  131OSM   H18T14064   1.711   6.943   4.575  0.3524 -0.0146  1.7415
  131OSM   H18U14065   1.787   6.864   4.440  1.0562  1.4049  2.0302
  131OSM    C1F14066   1.073   6.059   3.278 -0.2375 -0.3604 -0.8295
  131OSM     OF14067   1.120   5.953   3.243 -0.2761 -0.2142 -0.5309
  131OSM    C2F14068   0.964   6.055   3.387 -0.0665  0.2490  0.1592
  131OSM    H2F14069   1.005   5.976   3.454  0.1202 -1.6078 -2.0092
  131OSM    H2G14070   0.867   6.022   3.345 -1.3146  2.0250  1.4972
  131OSM    C3F14071   0.955   6.190   3.466  0.4194 -0.1293 -0.8998
  131OSM    H3F14072   0.882   6.167   3.546  0.6897  0.0958 -0.5839
  131OSM    H3G14073   0.909   6.268   3.402  0.3604 -0.1171 -0.8416
  131OSM    C4F14074   1.079   6.242   3.534  0.4171 -0.4188  0.2243
  131OSM    H4F14075   1.046   6.327   3.598  0.4629 -1.0983  1.1706
  131OSM    H4G14076   1.161   6.286   3.472  1.0213 -1.4035  0.3039
  131OSM    C5F14077   1.132   6.147   3.638  0.3461 -0.7536 -0.3047
  131OSM    H5F14078   1.117   6.043   3.602  0.9482 -1.1390  0.5236
  131OSM    H5G14079   1.068   6.151   3.729  1.6768  1.9958  0.6025
  131OSM    C6F14080   1.281   6.168   3.664 -0.2990 -0.0039  0.5232
  131OSM    H6F14081   1.332   6.177   3.566  1.7480 -0.9277  1.4184
  131OSM    H6G14082   1.331   6.079   3.708  1.9767  0.4231 -1.0122
  131OSM    C7F14083   1.306   6.292   3.749 -0.3796  0.3667  1.0224
  131OSM    H7F14084   1.242   6.289   3.840  1.4533 -1.8390  2.3351
  131OSM    H7G14085   1.281   6.382   3.689  2.2859 -0.0042 -0.8417
  131OSM    C8F14086   1.450   6.298   3.811  0.3259 -0.1365  0.1778
  131OSM    H8F14087   1.524   6.324   3.732  0.4811 -0.9767  0.0430
  131OSM    H8G14088   1.486   6.197   3.839 -0.9827 -0.1067  2.2023
  131OSM    C9F14089   1.444   6.390   3.934  0.9381  0.0561 -0.0038
  131OSM    H9F14090   1.451   6.496   3.906  2.9534  0.0084  0.1418
  131OSM   C10F14091   1.406   6.357   4.058  0.2768 -0.0776 -0.0176
  131OSM   H10F14092   1.410   6.439   4.131  0.8830 -1.1629  1.2123
  131OSM   C11F14093   1.382   6.220   4.116 -0.3382 -0.0364 -1.0909
  131OSM   H11F14094   1.475   6.201   4.174 -0.0896 -2.9154 -2.2908
  131OSM   H11G14095   1.386   6.139   4.041  1.4128 -3.0290  1.9716
  131OSM   C12F14096   1.259   6.186   4.212  0.3667 -0.4214  0.3851
  131OSM   H12F14097   1.258   6.085   4.258  3.3480 -1.0597 -0.7336
  131OSM   H12G14098   1.161   6.216   4.169  0.9702  1.7379  0.4132
  131OSM   C13F14099   1.275   6.280   4.340 -0.3258  0.1670  0.5570
  131OSM   H13F14100   1.252   6.382   4.301  1.4698  1.0434  1.6616
  131OSM   H13G14101   1.379   6.287   4.378  0.8073  3.5850 -2.6588
  131OSM   C14F14102   1.186   6.239   4.451 -0.1981  0.4203  0.1470
  131OSM   H14F14103   1.219   6.149   4.506  0.3621  1.6034  1.8446
  131OSM   H14G14104   1.083   6.232   4.409 -1.4428 -0.6990  3.1049
  131OSM   C15F14105   1.163   6.353   4.556  0.2348 -0.3070  0.4019
  131OSM   H15F14106   1.115   6.440   4.508  1.3180  0.1372  0.0987
  131OSM   H15G14107   1.265   6.391   4.576  0.6117 -0.2281 -1.4761
  131OSM   C16F14108   1.108   6.294   4.681  0.0754 -0.2187 -0.1874
  131OSM   H16F14109   1.142   6.191   4.705  1.4423  0.0858 -0.6834
  131OSM   H16G14110   0.998   6.292   4.667  0.1736  0.2556 -1.1677
  131OSM   C17F14111   1.144   6.378   4.805  0.3697  0.8361 -0.7172
  131OSM   H17F14112   1.122   6.486   4.794 -0.0771  0.8126 -0.1267
  131OSM   H17G14113   1.252   6.376   4.832  0.4403 -2.0345 -0.8324
  131OSM   C18F14114   1.071   6.323   4.925  0.6632  0.7376 -0.5253
  131OSM   H18F14115   0.964   6.312   4.897  0.5911 -0.7914  0.2600
  131OSM   H18G14116   1.076   6.383   5.018 -0.5721  1.8963 -1.1602
  131OSM   H18H14117   1.097   6.220   4.956  1.0626  1.1736  0.6271
  132OSM      N14118   5.779   6.588   2.750 -0.2639 -0.0876 -0.7707
  132OSM    C1514119   5.755   6.731   2.757  0.0174  0.0302  0.1998
  132OSM   H15A14120   5.655   6.754   2.790 -0.7373 -3.8603  1.0316
  132OSM   H15B14121   5.782   6.785   2.667  0.1557  0.2708  0.3834
  132OSM   H15C14122   5.820   6.772   2.834 -0.2016 -2.7672  1.9910
  132OSM    C1414123   5.930   6.560   2.746 -0.6416  0.1022 -0.3340
  132OSM   H14A14124   5.932   6.452   2.744 -1.6598  0.0829 -0.5258
  132OSM   H14B14125   5.975   6.604   2.834  0.7811 -1.3763 -0.2709
  132OSM   H14C14126   5.985   6.599   2.662  1.2559  1.5527  1.4689
  132OSM    C1314127   5.724   6.531   2.880  0.2715 -0.6185  0.5267
  132OSM   H13A14128   5.618   6.547   2.883  0.1369 -1.3336  4.7821
  132OSM   H13B14129   5.769   6.571   2.969  1.0968 -0.0420 -0.1323
  132OSM   H13C14130   5.740   6.424   2.884 -0.2352 -0.6780  1.1072
  132OSM    C1214131   5.722   6.519   2.629 -0.3445 -0.1645 -0.1800
  132OSM   H12A14132   5.767   6.424   2.605 -3.2070 -1.5714 -0.3897
  132OSM   H12B14133   5.732   6.582   2.541  0.9927  0.1238  0.1551
  132OSM    C1114134   5.566   6.489   2.633 -0.5236 -0.5215 -0.6464
  132OSM   H11A14135   5.543   6.455   2.530  1.2822 -0.4922 -1.1031
  132OSM   H11B14136   5.509   6.583   2.647  1.5337  0.9691 -1.7460
  132OSM      P14137   5.564   6.239   2.690 -0.3619  0.1743  0.0605
  132OSM    O1314138   5.427   6.177   2.671  0.2198  0.3077 -0.0301
  132OSM    O1414139   5.662   6.222   2.582 -0.2270 -0.0468 -0.6976
  132OSM    O1114140   5.631   6.185   2.821 -0.1714  0.0301  0.0002
  132OSM    O1214141   5.532   6.385   2.729 -0.5653 -0.2733  0.8758
  132OSM    C1S14142   5.553   6.191   2.939 -0.5806 -0.1109 -0.2117
  132OSM    H1S14143   5.470   6.116   2.934 -1.3161  0.4225  2.2575
  132OSM    H1T14144   5.508   6.290   2.961  0.1305  0.9198 -2.9716
  132OSM     NF14145   5.532   6.171   3.179  0.8769  0.3254  0.9149
  132OSM    HNF14146   5.529   6.259   3.225  0.2171  1.4193 -1.1062
  132OSM    C2S14147   5.628   6.161   3.077 -0.0416 -0.0144 -0.2344
  132OSM    H2S14148   5.676   6.061   3.071  3.5651  1.5646 -0.3403
  132OSM    C3S14149   5.747   6.259   3.091 -0.1018  0.2793  0.2300
  132OSM    H3S14150   5.722   6.368   3.091 -1.0594  0.1037 -1.3581
  132OSM     O314151   5.832   6.270   2.970 -0.3002 -0.1132 -0.2891
  132OSM    HO314152   5.776   6.259   2.893  1.8519 -2.6816 -1.6386
  132OSM    C4S14153   5.831   6.228   3.218  0.1314 -0.2965 -0.8206
  132OSM    H4S14154   5.780   6.270   3.306 -1.9863 -0.0704 -2.0868
  132OSM    C5S14155   5.957   6.183   3.222 -0.2294 -0.4069 -0.1571
  132OSM    H5S14156   6.017   6.159   3.133 -0.1308 -0.3493 -0.1060
  132OSM    C6S14157   6.033   6.150   3.351  0.0491 -0.2177  0.1877
  132OSM    H6S14158   6.117   6.221   3.365 -1.9407  2.7434 -1.6611
  132OSM    H6T14159   6.073   6.046   3.345  0.8911  0.0903  0.2683
  132OSM    C7S14160   5.938   6.162   3.476  1.0041  0.1068 -0.4021
  132OSM    H7S14161   5.842   6.105   3.471  0.6976  0.6609 -0.9836
  132OSM    H7T14162   5.916   6.271   3.483 -0.6525 -0.2291  0.1891
  132OSM    C8S14163   6.022   6.128   3.603  0.2048 -0.1199  1.0457
  132OSM    H8S14164   6.104   6.203   3.606 -0.0280  0.2739 -1.0798
  132OSM    H8T14165   6.080   6.033   3.598  0.0834 -0.2112  1.3117
  132OSM    C9S14166   5.936   6.135   3.724 -0.0664  0.2997 -0.0886
  132OSM    H9S14167   5.869   6.046   3.722 -0.2994  0.3575  2.3029
  132OSM    H9T14168   5.870   6.225   3.723  2.1296  1.9986 -1.7245
  132OSM   C10S14169   6.011   6.140   3.865 -0.2833 -1.0054  0.0499
  132OSM   H10S14170   6.064   6.235   3.884 -1.2732 -0.2881 -0.6649
  132OSM   H10T14171   6.080   6.053   3.864 -1.6870 -2.1503 -0.0447
  132OSM   C11S14172   5.908   6.135   3.980 -0.8073 -0.0096  0.2194
  132OSM   H11S14173   5.846   6.043   3.970 -2.1070  0.6854  1.4619
  132OSM   H11T14174   5.833   6.216   3.974 -1.2088 -0.3506  0.5603
  132OSM   C12S14175   5.981   6.132   4.118 -0.3849  0.0527  0.6856
  132OSM   H12S14176   6.026   6.233   4.131  0.2902 -0.2805  0.9787
  132OSM   H12T14177   6.059   6.053   4.122 -0.7177 -0.3982 -0.9936
  132OSM   C13S14178   5.882   6.109   4.228 -0.5513  1.0088 -1.1351
  132OSM   H13S14179   5.810   6.029   4.199  0.5962 -0.4901 -0.0007
  132OSM   H13T14180   5.817   6.197   4.246 -1.0430  0.2706  1.0251
  132OSM   C14S14181   5.945   6.057   4.360  0.2359 -0.5522  0.3090
  132OSM   H14S14182   6.022   6.132   4.389  0.0993 -0.5504  0.6667
  132OSM   H14T14183   6.006   5.965   4.343 -0.2114 -0.9894  1.0280
  132OSM   C15S14184   5.838   6.016   4.470  0.2245  0.3665 -0.2267
  132OSM   H15S14185   5.770   5.939   4.427  0.5183  0.6225 -1.1566
  132OSM   H15T14186   5.779   6.108   4.491  0.5718  0.1482  1.9492
  132OSM   C16S14187   5.909   5.956   4.594  0.2398  0.2076  0.4206
  132OSM   H16S14188   5.837   5.956   4.679 -0.2622  1.3278  0.0199
  132OSM   H16T14189   5.992   6.027   4.614  1.2273  0.1396 -2.8673
  132OSM   C17S14190   5.968   5.814   4.576 -0.3999 -0.4877  0.0264
  132OSM   H17S14191   6.015   5.824   4.476 -0.3639  1.3704  0.2003
  132OSM   H17T14192   5.892   5.733   4.566 -1.4943  0.6494 -1.1859
  132OSM   C18S14193   6.077   5.771   4.670 -0.0241 -0.1991 -0.0811
  132OSM   H18S14194   6.157   5.848   4.675 -0.5061  0.4760 -1.8102
  132OSM   H18T14195   6.108   5.670   4.635  0.0097  0.1545 -1.1170
  132OSM   H18U14196   6.049   5.755   4.776  1.2833 -0.0226  0.3131
  132OSM    C1F14197   5.443   6.077   3.211  0.1230 -0.6906 -0.1437
  132OSM     OF14198   5.451   5.961   3.170 -0.1812 -0.2256 -0.0284
  132OSM    C2F14199   5.329   6.130   3.299 -0.5517  0.6677 -0.9043
  132OSM    H2F14200   5.236   6.128   3.237 -0.4900 -2.1904 -1.0467
  132OSM    H2G14201   5.348   6.235   3.328  0.3455  0.8400 -2.0483
  132OSM    C3F14202   5.300   6.051   3.442  0.0191 -1.0624  0.0568
  132OSM    H3F14203   5.262   5.948   3.425 -1.1472 -0.6160 -0.0824
  132OSM    H3G14204   5.219   6.106   3.495  0.3008  0.7610 -1.3427
  132OSM    C4F14205   5.417   6.045   3.539  0.5881  0.0111  0.3461
  132OSM    H4F14206   5.446   6.148   3.568 -1.9791  0.9238 -0.0594
  132OSM    H4G14207   5.498   5.991   3.484  0.3315 -0.6211  0.5804
  132OSM    C5F14208   5.367   5.964   3.659  0.3124  0.1657 -0.0071
  132OSM    H5F14209   5.330   5.862   3.633  0.7081  0.0614 -0.1813
  132OSM    H5G14210   5.275   6.006   3.706  0.0890 -0.6233  0.2760
  132OSM    C6F14211   5.471   5.955   3.774  0.3405 -0.3872 -0.3726
  132OSM    H6F14212   5.504   6.060   3.791  1.5721 -0.6529 -1.0376
  132OSM    H6G14213   5.566   5.910   3.740 -0.7760 -3.5166  0.2962
  132OSM    C7F14214   5.411   5.900   3.907 -0.2516  0.1350 -0.2805
  132OSM    H7F14215   5.377   5.795   3.895 -1.0249 -0.1084  2.8973
  132OSM    H7G14216   5.326   5.964   3.939 -0.1610  0.3578 -0.4887
  132OSM    C8F14217   5.516   5.906   4.029  0.1971  0.1456  0.2158
  132OSM    H8F14218   5.612   5.893   3.975 -1.3801 -0.3794 -2.6696
  132OSM    H8G14219   5.509   5.811   4.086  2.1362 -0.3287 -0.2625
  132OSM    C9F14220   5.516   6.030   4.113  0.5590 -0.0762  0.4712
  132OSM    H9F14221   5.603   6.096   4.096  0.4908  0.1967  1.1777
  132OSM   C10F14222   5.422   6.060   4.204  0.4136 -0.1708  0.3039
  132OSM   H10F14223   5.435   6.154   4.260  1.0683  0.0891 -0.2644
  132OSM   C11F14224   5.287   5.995   4.223  0.2223 -0.6811  0.5231
  132OSM   H11F14225   5.278   5.908   4.154 -1.7696 -0.3101  0.2614
  132OSM   H11G14226   5.215   6.074   4.192  0.8688  0.5412  1.9827
  132OSM   C12F14227   5.263   5.963   4.370 -0.1611 -0.2701  0.1804
  132OSM   H12F14228   5.344   5.890   4.391 -1.3524 -1.7980 -0.3499
  132OSM   H12G14229   5.164   5.913   4.381 -1.5519  2.5253  1.5815
  132OSM   C13F14230   5.270   6.081   4.468 -0.0280 -0.2212 -0.7949
  132OSM   H13F14231   5.168   6.116   4.494  0.4125  1.1551 -0.8316
  132OSM   H13G14232   5.312   6.171   4.420 -1.6068  1.2761  0.4939
  132OSM   C14F14233   5.341   6.053   4.597 -0.1390 -0.1208 -0.4815
  132OSM   H14F14234   5.345   5.944   4.617 -0.6930 -0.4055 -1.8001
  132OSM   H14G14235   5.285   6.089   4.686  3.0482 -0.8079  1.9708
  132OSM   C15F14236   5.485   6.112   4.608 -0.2016 -0.3245 -0.0550
  132OSM   H15F14237   5.550   6.057   4.536  1.5554  0.7289  0.6740
  132OSM   H15G14238   5.526   6.082   4.707  0.8397 -1.9820 -0.9359
  132OSM   C16F14239   5.495   6.271   4.592 -0.8632  0.4369  0.0914
  132OSM   H16F14240   5.432   6.321   4.669 -0.0411  1.4207  0.1393
  132OSM   H16G14241   5.459   6.284   4.488 -0.1508  1.2417 -0.0631
  132OSM   C17F14242   5.641   6.322   4.608 -0.6291 -0.1862 -0.8292
  132OSM   H17F14243   5.647   6.432   4.612  1.0101 -0.2385 -1.0978
  132OSM   H17G14244   5.694   6.284   4.518 -1.0109 -0.1819 -1.0562
  132OSM   C18F14245   5.714   6.267   4.736  0.4083  0.2789  0.4144
  132OSM   H18F14246   5.676   6.314   4.829 -1.1674  1.2014 -0.6664
  132OSM   H18G14247   5.824   6.287   4.729  0.5059  1.3608  3.2699
  132OSM   H18H14248   5.702   6.157   4.748  0.2110  0.0572 -1.5917
  133OSM      N14249   3.441   1.245   2.411  0.5264 -0.0569 -0.5387
  133OSM    C1514250   3.449   1.121   2.336 -0.4519  0.3930  0.5856
  133OSM   H15A14251   3.385   1.050   2.385 -2.4800  1.5850 -0.2335
  133OSM   H15B14252   3.550   1.081   2.336 -0.0250  1.4525  0.7910
  133OSM   H15C14253   3.423   1.130   2.232  2.5855 -5.8282 -1.2696
  133OSM    C1414254   3.487   1.365   2.333  0.2285  0.0371  0.4009
  133OSM   H14A14255   3.575   1.347   2.274  0.6043  0.1772  0.9189
  133OSM   H14B14256   3.508   1.449   2.398 -0.5553 -0.4279  1.2797
  133OSM   H14C14257   3.412   1.398   2.262  0.2494 -1.7665 -0.5067
  133OSM    C1314258   3.298   1.270   2.447 -0.1768  0.6975 -0.6616
  133OSM   H13A14259   3.285   1.358   2.509  1.9142  1.0759 -0.6770
  133OSM   H13B14260   3.257   1.190   2.507 -2.7125  3.1466  1.1766
  133OSM   H13C14261   3.237   1.284   2.359 -1.2974  1.0724  0.1533
  133OSM    C1214262   3.526   1.227   2.544  0.5051  0.2385  0.7243
  133OSM   H12A14263   3.523   1.319   2.600  0.6946  0.1965  0.8040
  133OSM   H12B14264   3.630   1.215   2.516 -0.0086  1.9501 -2.3874
  133OSM    C1114265   3.485   1.114   2.635 -0.0796  0.3289 -0.6657
  133OSM   H11A14266   3.388   1.118   2.689  0.0724  0.2341 -0.3798
  133OSM   H11B14267   3.552   1.122   2.723  1.2870 -1.2082 -1.5230
  133OSM      P14268   3.412   0.868   2.592 -0.2137 -0.0373  0.1659
  133OSM    O1314269   3.298   0.882   2.495  0.1271 -0.2758  0.1012
  133OSM    O1414270   3.481   0.737   2.596  0.5138  0.0106  0.4860
  133OSM    O1114271   3.340   0.893   2.731  0.0332  0.0233  0.0076
  133OSM    O1214272   3.515   0.987   2.575 -0.0247 -0.1483 -0.5443
  133OSM    C1S14273   3.389   0.838   2.852 -0.1547 -0.0500 -0.4660
  133OSM    H1S14274   3.494   0.867   2.872 -0.2513  1.3439 -1.8227
  133OSM    H1T14275   3.375   0.728   2.856  0.5833 -0.1714 -0.9661
  133OSM     NF14276   3.339   0.824   3.097 -0.8317  0.1393  0.4605
  133OSM    HNF14277   3.283   0.748   3.130 -0.7775 -0.8007 -1.4749
  133OSM    C2S14278   3.295   0.873   2.967  0.0103 -0.0649  0.2089
  133OSM    H2S14279   3.303   0.984   2.966  0.4010 -0.0920  0.1823
  133OSM    C3S14280   3.147   0.838   2.937 -0.6260  0.3083 -0.5045
  133OSM    H3S14281   3.135   0.728   2.926  1.0735  0.0702 -0.2668
  133OSM     O314282   3.086   0.902   2.821  0.3925  0.1565  0.0068
  133OSM    HO314283   3.157   0.923   2.760 -1.0939  0.9360 -1.5443
  133OSM    C4S14284   3.063   0.874   3.060  0.8799 -0.6202  0.4939
  133OSM    H4S14285   3.052   0.784   3.123 -1.8396  0.2820  1.4254
  133OSM    C5S14286   2.999   0.985   3.100 -0.4349 -0.9983 -0.3814
  133OSM    H5S14287   3.009   1.076   3.039 -2.3040 -0.9166 -0.6434
  133OSM    C6S14288   2.931   1.004   3.232  0.2980 -0.4050  0.3565
  133OSM    H6S14289   2.846   0.932   3.230  0.5174 -0.6661  0.4781
  133OSM    H6T14290   2.900   1.109   3.255  1.4593 -0.1235  0.6797
  133OSM    C7S14291   3.027   0.982   3.349 -0.1020  0.6213 -0.0986
  133OSM    H7S14292   3.093   1.071   3.341 -0.4778  0.7666 -2.1540
  133OSM    H7T14293   3.089   0.891   3.335  0.6342  1.3013 -1.4723
  133OSM    C8S14294   2.972   0.971   3.484 -1.4541 -0.2065 -0.7234
  133OSM    H8S14295   2.883   0.905   3.491 -1.3649 -0.2206  0.5565
  133OSM    H8T14296   2.949   1.076   3.512  1.3139 -0.0534  1.5084
  133OSM    C9S14297   3.064   0.904   3.587 -0.1880  0.0433 -0.4230
  133OSM    H9S14298   3.166   0.946   3.601  2.0724 -4.5259 -1.2911
  133OSM    H9T14299   3.093   0.802   3.553  0.1621 -0.2454  0.7258
  133OSM   C10S14300   3.008   0.905   3.725  0.4155  0.3927  0.1602
  133OSM   H10S14301   2.903   0.868   3.728  0.8797 -0.9699  0.0637
  133OSM   H10T14302   3.002   1.009   3.764 -2.0184  0.5931 -0.5939
  133OSM   C11S14303   3.093   0.817   3.820 -0.3085 -0.3849  0.0216
  133OSM   H11S14304   3.192   0.869   3.818 -0.9935  1.0346  1.2455
  133OSM   H11T14305   3.101   0.711   3.787  0.6793 -0.1376 -0.5766
  133OSM   C12S14306   3.036   0.826   3.955  0.4947  0.2339  0.3032
  133OSM   H12S14307   3.029   0.935   3.976  1.7454  0.1882  1.0780
  133OSM   H12T14308   3.099   0.769   4.026 -0.7860  0.5054  1.6971
  133OSM   C13S14309   2.899   0.754   3.971  0.2310  0.5834  0.2126
  133OSM   H13S14310   2.888   0.668   3.902  1.3782  1.8189 -1.5952
  133OSM   H13T14311   2.822   0.832   3.948  1.0674  1.7930  1.3104
  133OSM   C14S14312   2.882   0.709   4.121  0.3558  0.4547 -0.0707
  133OSM   H14S14313   2.976   0.658   4.150  0.4662 -0.0876 -1.3514
  133OSM   H14T14314   2.787   0.654   4.137 -0.8504  2.6618  0.9593
  133OSM   C15S14315   2.861   0.829   4.216  0.3225 -0.3075  0.0914
  133OSM   H15S14316   2.773   0.891   4.188  1.0832  0.5249 -0.5274
  133OSM   H15T14317   2.951   0.894   4.222 -0.4694  0.7379  1.4686
  133OSM   C16S14318   2.848   0.787   4.362 -0.2027 -0.9750 -0.9481
  133OSM   H16S14319   2.943   0.742   4.401 -0.0631 -0.4376 -0.6686
  133OSM   H16T14320   2.765   0.723   4.398 -2.5403  1.2939 -1.9946
  133OSM   C17S14321   2.833   0.919   4.439  0.0229  0.1910  0.7050
  133OSM   H17S14322   2.732   0.957   4.415 -0.6104 -1.4126  0.7029
  133OSM   H17T14323   2.912   0.986   4.399 -0.8439  0.8117 -0.0088
  133OSM   C18S14324   2.853   0.903   4.585  0.1223 -0.4405 -0.5426
  133OSM   H18S14325   2.952   0.857   4.607 -0.0999 -0.3195  0.7942
  133OSM   H18T14326   2.776   0.840   4.636 -0.4469  1.4171  0.9688
  133OSM   H18U14327   2.845   1.005   4.626 -1.6720  0.0295 -1.8895
  133OSM    C1F14328   3.445   0.881   3.161 -0.3855 -0.2218 -0.2332
  133OSM     OF14329   3.489   0.991   3.130 -0.0624 -0.0953  0.0638
  133OSM    C2F14330   3.471   0.820   3.296 -0.2112 -0.0428  0.0483
  133OSM    H2F14331   3.433   0.716   3.304 -0.0218 -0.0559  0.8502
  133OSM    H2G14332   3.404   0.875   3.365 -1.1312 -0.1986 -0.7125
  133OSM    C3F14333   3.617   0.839   3.340  1.3136  0.0070 -0.0307
  133OSM    H3F14334   3.636   0.948   3.336 -0.1457  0.2477 -0.9038
  133OSM    H3G14335   3.675   0.780   3.266 -0.2139  1.8391 -2.8461
  133OSM    C4F14336   3.652   0.786   3.492  0.0782 -0.0245 -0.7337
  133OSM    H4F14337   3.762   0.796   3.501  0.0917  0.6536 -1.4939
  133OSM    H4G14338   3.621   0.679   3.484  2.8966 -1.0610  0.6881
  133OSM    C5F14339   3.579   0.861   3.606  0.3334  0.1406 -0.3281
  133OSM    H5F14340   3.470   0.872   3.585 -0.2899 -2.3754  1.1819
  133OSM    H5G14341   3.623   0.960   3.631 -2.8847  1.7055 -0.3657
  133OSM    C6F14342   3.581   0.792   3.744 -1.0731  0.4902 -0.8307
  133OSM    H6F14343   3.508   0.825   3.821  1.3764  1.1238  1.3718
  133OSM    H6G14344   3.681   0.829   3.774 -0.2516 -0.7688 -1.9290
  133OSM    C7F14345   3.574   0.642   3.741 -0.4581  0.0244 -0.7181
  133OSM    H7F14346   3.652   0.599   3.673 -1.8625 -1.0921 -1.6801
  133OSM    H7G14347   3.483   0.629   3.679 -0.5626  1.2306 -0.8361
  133OSM    C8F14348   3.568   0.567   3.877  0.2394 -0.8299 -0.8205
  133OSM    H8F14349   3.568   0.457   3.862 -0.3530 -1.3828  2.4380
  133OSM    H8G14350   3.470   0.587   3.926 -0.2269  1.1007 -2.4292
  133OSM    C9F14351   3.693   0.602   3.960  0.6232  0.9606  0.0731
  133OSM    H9F14352   3.788   0.588   3.907  1.4086  0.8627  1.4746
  133OSM   C10F14353   3.713   0.607   4.096  0.7629 -0.5772 -0.0818
  133OSM   H10F14354   3.814   0.636   4.129  1.0848 -0.2105 -1.3290
  133OSM   C11F14355   3.604   0.600   4.199  0.1387 -0.7059  0.2953
  133OSM   H11F14356   3.522   0.534   4.162 -1.2635  1.2733 -0.3343
  133OSM   H11G14357   3.548   0.695   4.214 -0.4212 -0.8003 -0.9865
  133OSM   C12F14358   3.670   0.564   4.339 -0.7693 -0.7021 -0.0682
  133OSM   H12F14359   3.734   0.648   4.375 -0.9913 -1.6745  2.8574
  133OSM   H12G14360   3.746   0.486   4.319  1.4982  1.3838 -0.1758
  133OSM   C13F14361   3.561   0.526   4.436 -0.0102  0.3962  0.2424
  133OSM   H13F14362   3.493   0.457   4.381 -0.7806 -0.6181  2.3615
  133OSM   H13G14363   3.498   0.615   4.456  0.1416  0.6060 -0.2096
  133OSM   C14F14364   3.598   0.452   4.562  0.3489  0.3734  0.4476
  133OSM   H14F14365   3.636   0.535   4.625 -2.8287  1.9490  0.4532
  133OSM   H14G14366   3.673   0.372   4.543 -0.4086  0.1311 -1.9452
  133OSM   C15F14367   3.489   0.374   4.637  0.2389  0.2528  0.4881
  133OSM   H15F14368   3.428   0.304   4.576 -0.8159  2.5647 -1.2914
  133OSM   H15G14369   3.414   0.447   4.674 -0.5996 -0.3756  0.0675
  133OSM   C16F14370   3.536   0.299   4.773  0.2656 -0.2673  0.7312
  133OSM   H16F14371   3.612   0.355   4.832 -0.8051  0.2583  1.6259
  133OSM   H16G14372   3.565   0.194   4.753 -2.3532 -0.7306 -1.0466
  133OSM   C17F14373   3.411   0.285   4.852  0.4685  0.0462 -0.3235
  133OSM   H17F14374   3.330   0.246   4.787  0.5206 -1.7524  0.6094
  133OSM   H17G14375   3.385   0.384   4.895  0.9123  0.5903 -1.2629
  133OSM   C18F14376   3.413   0.184   4.969 -0.1895 -0.2659 -0.4077
  133OSM   H18F14377   3.311   0.163   5.007 -0.7732  2.9275  0.0804
  133OSM   H18G14378   3.474   0.223   5.054 -1.4123 -2.0627  1.4002
  133OSM   H18H14379   3.460   0.089   4.934  1.0648  0.1844 -0.0024
  134OSM      N14380   4.090   2.582   2.425 -0.1215  0.0780 -0.1012
  134OSM    C1514381   4.140   2.608   2.287 -0.4462  0.4870  0.0070
  134OSM   H15A14382   4.117   2.708   2.254 -2.9383  0.1384  0.4289
  134OSM   H15B14383   4.096   2.537   2.218 -0.6702  1.6295 -1.0724
  134OSM   H15C14384   4.247   2.599   2.291 -0.3571  1.5813  0.5078
  134OSM    C1414385   4.154   2.694   2.503 -0.7499 -0.7180  0.0280
  134OSM   H14A14386   4.115   2.693   2.603  0.9662 -0.4795  0.7257
  134OSM   H14B14387   4.126   2.794   2.474  1.7521  0.6517  2.0043
  134OSM   H14C14388   4.262   2.698   2.496 -0.6968 -1.7081  0.0637
  134OSM    C1314389   3.938   2.595   2.440  0.1398 -0.0607 -0.0860
  134OSM   H13A14390   3.889   2.516   2.383  1.2414 -0.6133 -0.2875
  134OSM   H13B14391   3.908   2.691   2.400  4.3836  1.0370 -1.0910
  134OSM   H13C14392   3.901   2.585   2.541 -1.0024  2.4174 -0.1943
  134OSM    C1214393   4.142   2.455   2.487 -0.1959  0.3542  0.8378
  134OSM   H12A14394   4.246   2.437   2.466 -0.0018  1.4052  0.8497
  134OSM   H12B14395   4.094   2.387   2.418 -0.3693  2.9487 -1.7883
  134OSM    C1114396   4.125   2.436   2.636  0.0159  0.7978  0.4250
  134OSM   H11A14397   4.167   2.514   2.703 -1.4180  2.6907 -0.7915
  134OSM   H11B14398   4.183   2.345   2.664 -1.0806 -0.0818 -0.0601
  134OSM      P14399   3.920   2.267   2.627 -0.0262  0.2056 -0.2595
  134OSM    O1314400   3.778   2.293   2.671  0.7621 -0.5704 -0.2020
  134OSM    O1414401   3.943   2.223   2.489  0.6696 -0.6072 -1.0756
  134OSM    O1114402   3.982   2.177   2.735  0.6459  0.0778 -0.3360
  134OSM    O1214403   3.988   2.400   2.660 -0.4167  0.5090  0.3134
  134OSM    C1S14404   3.970   2.222   2.871  0.2355  0.2744  0.1824
  134OSM    H1S14405   3.865   2.215   2.907  1.0544 -0.8178  2.5673
  134OSM    H1T14406   3.988   2.331   2.879  1.3471  0.2650 -1.6941
  134OSM     NF14407   4.047   2.189   3.107 -0.7326  0.1231  0.3386
  134OSM    HNF14408   4.115   2.256   3.136 -2.0870  1.6827  0.0353
  134OSM    C2S14409   4.062   2.138   2.972 -0.1766  0.1517  0.2009
  134OSM    H2S14410   4.027   2.032   2.966  0.2823  0.0125 -0.0550
  134OSM    C3S14411   4.204   2.138   2.920  1.0738 -0.4479 -0.0987
  134OSM    H3S14412   4.254   2.237   2.924  0.5889 -0.1812 -0.5584
  134OSM     O314413   4.216   2.094   2.787  0.1702 -0.2195 -0.6223
  134OSM    HO314414   4.125   2.082   2.759 -0.1117 -0.8417  0.5421
  134OSM    C4S14415   4.279   2.053   3.019  0.2845  0.7415 -0.2413
  134OSM    H4S14416   4.288   2.109   3.112 -0.4542  2.8223 -1.3526
  134OSM    C5S14417   4.335   1.931   3.000  0.3517  0.2924  0.7735
  134OSM    H5S14418   4.340   1.887   2.900 -0.5208  1.7377  0.0600
  134OSM    C6S14419   4.421   1.855   3.101  0.0617  0.6042 -0.2963
  134OSM    H6S14420   4.502   1.812   3.038 -2.1844 -0.6555 -2.4949
  134OSM    H6T14421   4.372   1.772   3.157  2.2580 -0.8484 -0.4168
  134OSM    C7S14422   4.503   1.945   3.199  0.0958  0.0348 -0.0471
  134OSM    H7S14423   4.430   1.985   3.272 -0.8128  0.5390 -1.1922
  134OSM    H7T14424   4.554   2.031   3.149  0.3374  1.2922  2.2305
  134OSM    C8S14425   4.604   1.858   3.280  0.1215  0.0266 -0.0647
  134OSM    H8S14426   4.681   1.807   3.219  1.6304 -2.1326  3.3904
  134OSM    H8T14427   4.543   1.773   3.318 -2.5104  1.0470 -1.7284
  134OSM    C9S14428   4.656   1.938   3.397  0.7253  0.0622 -0.2088
  134OSM    H9S14429   4.564   1.969   3.451  1.0149  0.9730 -0.2239
  134OSM    H9T14430   4.711   2.023   3.351  1.3826  0.3620  1.0668
  134OSM   C10S14431   4.758   1.874   3.487 -0.6511  0.4509  1.1317
  134OSM   H10S14432   4.791   1.959   3.551 -1.9006  2.3918 -0.6559
  134OSM   H10T14433   4.849   1.837   3.437 -1.6960 -1.8899  0.8421
  134OSM   C11S14434   4.688   1.766   3.567  0.8650  0.7697 -1.1235
  134OSM   H11S14435   4.680   1.674   3.505  0.6092 -0.9493  1.3139
  134OSM   H11T14436   4.581   1.790   3.588  0.3922 -2.2567  0.5027
  134OSM   C12S14437   4.748   1.748   3.709 -0.0403  0.0174  0.6132
  134OSM   H12S14438   4.756   1.842   3.768 -0.7853  0.8668 -0.6083
  134OSM   H12T14439   4.849   1.705   3.694 -0.8253 -2.1311  1.0260
  134OSM   C13S14440   4.657   1.660   3.800  0.1943 -0.1545  0.3736
  134OSM   H13S14441   4.644   1.563   3.747  3.4771 -0.4768 -0.0531
  134OSM   H13T14442   4.553   1.701   3.801  0.9362  1.8991 -0.9356
  134OSM   C14S14443   4.716   1.645   3.932  0.3841 -0.0624 -1.0053
  134OSM   H14S14444   4.722   1.743   3.985 -1.7916  0.1954 -1.1744
  134OSM   H14T14445   4.816   1.597   3.930  0.5766  0.3454 -2.6124
  134OSM   C15S14446   4.632   1.543   4.012 -0.0817  0.1685 -0.3092
  134OSM   H15S14447   4.618   1.443   3.965 -1.5867 -0.2309  0.9324
  134OSM   H15T14448   4.532   1.588   4.028 -0.0555 -0.1624  0.7950
  134OSM   C16S14449   4.684   1.530   4.160 -0.3622 -0.2825 -0.2881
  134OSM   H16S14450   4.662   1.630   4.202  1.2105  0.0953 -0.2718
  134OSM   H16T14451   4.794   1.512   4.161 -0.3072 -0.0042  1.4584
  134OSM   C17S14452   4.612   1.420   4.239 -0.1188 -0.6486 -0.3365
  134OSM   H17S14453   4.649   1.321   4.205  1.4476 -0.0088 -0.5706
  134OSM   H17T14454   4.507   1.405   4.205  0.7382 -1.0381 -3.0411
  134OSM   C18S14455   4.626   1.442   4.388  0.4958 -0.4871 -0.2990
  134OSM   H18S14456   4.627   1.548   4.420 -1.1670 -0.1706 -1.1972
  134OSM   H18T14457   4.723   1.400   4.423 -1.6691 -3.4146  2.8147
  134OSM   H18U14458   4.545   1.392   4.444  0.1340  0.1289 -0.2684
  134OSM    C1F14459   3.934   2.173   3.176 -0.3689 -0.2145  0.1736
  134OSM     OF14460   3.839   2.121   3.120  0.2314 -0.3477  0.2675
  134OSM    C2F14461   3.933   2.214   3.323 -0.2183  0.1866  0.0091
  134OSM    H2F14462   3.953   2.322   3.335 -0.1892  0.2924 -0.8855
  134OSM    H2G14463   4.011   2.156   3.377  0.1070 -0.0322 -0.6820
  134OSM    C3F14464   3.797   2.192   3.400 -0.5393  0.4058  0.3324
  134OSM    H3F14465   3.773   2.084   3.410 -0.6866  0.4381  0.3334
  134OSM    H3G14466   3.722   2.239   3.332 -0.6899 -0.1830  0.0902
  134OSM    C4F14467   3.794   2.257   3.542  0.5262  0.5941 -0.0859
  134OSM    H4F14468   3.690   2.242   3.579  0.9466 -0.6235  0.6763
  134OSM    H4G14469   3.804   2.364   3.517  1.1642  0.6076  0.2105
  134OSM    C5F14470   3.898   2.197   3.636 -0.1598 -1.3059  0.2522
  134OSM    H5F14471   3.998   2.226   3.599 -0.1946  0.2594  1.2842
  134OSM    H5G14472   3.880   2.088   3.627 -3.8463 -0.7076 -1.9165
  134OSM    C6F14473   3.877   2.249   3.777 -0.0335 -0.3085 -0.7444
  134OSM    H6F14474   3.782   2.215   3.822  0.4352  3.4655  3.8204
  134OSM    H6G14475   3.856   2.358   3.782  0.2980 -0.2881  2.0742
  134OSM    C7F14476   3.994   2.221   3.868  0.5240 -1.2264  0.1982
  134OSM    H7F14477   4.078   2.268   3.814 -0.9495  1.6266  0.1904
  134OSM    H7G14478   4.014   2.112   3.881 -1.6693 -1.4936  2.2381
  134OSM    C8F14479   3.975   2.283   4.005  0.1671  0.7223  0.2864
  134OSM    H8F14480   3.875   2.253   4.044  0.0671  1.2749  0.4625
  134OSM    H8G14481   3.976   2.394   3.999  1.1294  0.7068  0.0638
  134OSM    C9F14482   4.082   2.254   4.105  0.2052 -0.2835  0.1106
  134OSM    H9F14483   4.186   2.258   4.068  1.1438 -1.9508  2.3097
  134OSM   C10F14484   4.062   2.230   4.239 -0.0888  0.7830  0.0204
  134OSM   H10F14485   4.149   2.215   4.304  0.4359 -0.5952 -0.9421
  134OSM   C11F14486   3.924   2.242   4.315 -0.3087 -0.1145 -0.3108
  134OSM   H11F14487   3.916   2.147   4.371 -1.4736  0.4048  0.4281
  134OSM   H11G14488   3.831   2.240   4.253 -2.7421  0.0901  3.0827
  134OSM   C12F14489   3.912   2.364   4.412  0.6075 -0.1311  0.0884
  134OSM   H12F14490   3.995   2.365   4.485  0.8698  2.7196 -0.1468
  134OSM   H12G14491   3.817   2.337   4.463  0.3094 -1.6221 -1.1870
  134OSM   C13F14492   3.904   2.494   4.335  0.3215 -0.4709  0.3427
  134OSM   H13F14493   3.826   2.478   4.257  2.0421 -0.6019 -1.4266
  134OSM   H13G14494   4.002   2.503   4.283  1.2349  3.2673  2.3429
  134OSM   C14F14495   3.890   2.629   4.406 -0.6579  0.5625 -0.0013
  134OSM   H14F14496   3.871   2.700   4.323 -1.4781 -0.4146 -0.6678
  134OSM   H14G14497   3.978   2.659   4.467 -0.1825  0.8249 -0.7997
  134OSM   C15F14498   3.784   2.642   4.515  0.2938 -0.4002 -0.6722
  134OSM   H15F14499   3.788   2.748   4.548  0.2551 -0.3681 -0.7699
  134OSM   H15G14500   3.811   2.579   4.603 -1.3399  0.1095  0.2463
  134OSM   C16F14501   3.638   2.626   4.468  0.5128  0.6540 -0.3566
  134OSM   H16F14502   3.625   2.516   4.468  0.7842  0.5883  1.1401
  134OSM   H16G14503   3.627   2.670   4.367  0.8429 -0.5038 -0.9036
  134OSM   C17F14504   3.531   2.679   4.561 -0.1873 -0.2016 -0.0427
  134OSM   H17F14505   3.446   2.735   4.516 -2.0343 -0.0785  3.2514
  134OSM   H17G14506   3.580   2.758   4.621 -0.2426 -0.2112  0.0158
  134OSM   C18F14507   3.475   2.567   4.649  0.2303 -0.2387  0.2063
  134OSM   H18F14508   3.547   2.502   4.704 -0.2133 -1.0719 -0.1796
  134OSM   H18G14509   3.424   2.491   4.586 -0.5024 -2.1255  2.8911
  134OSM   H18H14510   3.404   2.604   4.726 -1.7760 -2.0608 -0.6593
  135OSM      N14511   1.063   6.380   2.419 -0.2599  0.3966  0.0100
  135OSM    C1514512   0.948   6.286   2.435  0.5432  0.0642  0.4046
  135OSM   H15A14513   0.894   6.317   2.523  0.4870  1.3140 -0.0479
  135OSM   H15B14514   0.988   6.188   2.459  1.2340  0.2400  0.0056
  135OSM   H15C14515   0.885   6.282   2.348  1.9433 -2.0234 -0.6098
  135OSM    C1414516   1.138   6.339   2.296  0.2473  0.4259  0.0696
  135OSM   H14A14517   1.222   6.405   2.281 -0.0425  0.7988  0.0731
  135OSM   H14B14518   1.072   6.334   2.211  1.7253  0.6838 -1.1398
  135OSM   H14C14519   1.168   6.236   2.310 -0.5496 -0.2560 -2.5925
  135OSM    C1314520   1.005   6.518   2.396 -0.0336  0.2383 -0.4482
  135OSM   H13A14521   0.974   6.565   2.488  1.6144  0.9861 -0.2485
  135OSM   H13B14522   0.922   6.513   2.326 -1.3346 -3.5051  1.0905
  135OSM   H13C14523   1.077   6.581   2.346 -1.4493 -0.4990 -3.7035
  135OSM    C1214524   1.153   6.379   2.539 -0.0390  0.1877 -0.5020
  135OSM   H12A14525   1.216   6.466   2.547 -1.0492  0.8685  0.4179
  135OSM   H12B14526   1.213   6.289   2.535  1.7902  1.2479  0.9945
  135OSM    C1114527   1.085   6.367   2.674  0.1121 -0.3114 -1.0828
  135OSM   H11A14528   1.161   6.344   2.753  0.1870  0.1943 -1.0078
  135OSM   H11B14529   1.017   6.279   2.669  1.1105 -1.1315 -0.6926
  135OSM      P14530   1.079   6.623   2.750 -0.6369 -0.5071  0.4910
  135OSM    O1314531   1.217   6.598   2.798  0.3731 -0.1606  0.3509
  135OSM    O1414532   1.063   6.703   2.628 -0.2012 -0.3494  0.6970
  135OSM    O1114533   0.992   6.675   2.876 -0.5940 -0.4383  0.3172
  135OSM    O1214534   1.013   6.484   2.712  0.2942  0.2931 -0.1512
  135OSM    C1S14535   0.894   6.587   2.930 -0.4930  0.4063  0.3283
  135OSM    H1S14536   0.933   6.484   2.942  0.0402  0.7542  1.9126
  135OSM    H1T14537   0.799   6.580   2.873 -1.4042  0.1596  1.8049
  135OSM     NF14538   0.763   6.538   3.137  0.3968  0.1767 -0.3790
  135OSM    HNF14539   0.666   6.560   3.147  0.8172  1.7438  0.4791
  135OSM    C2S14540   0.845   6.635   3.071 -0.4191  0.1383  0.1453
  135OSM    H2S14541   0.936   6.646   3.133  0.0375  3.1884 -0.9257
  135OSM    C3S14542   0.780   6.779   3.059 -0.0399  0.0604 -0.8222
  135OSM    H3S14543   0.690   6.764   2.995  0.0797 -0.0677 -0.9621
  135OSM     O314544   0.857   6.879   2.995 -0.1828  0.3334  0.6462
  135OSM    HO314545   0.924   6.822   2.956 -1.6398 -1.0741  0.0639
  135OSM    C4S14546   0.730   6.827   3.193  0.0730  0.1702 -0.1130
  135OSM    H4S14547   0.622   6.809   3.201 -0.4043  1.1856 -3.1607
  135OSM    C5S14548   0.803   6.898   3.289  0.6980  0.4106 -0.2091
  135OSM    H5S14549   0.908   6.929   3.272  1.6323 -1.6870  1.3543
  135OSM    C6S14550   0.746   6.955   3.414  0.0041 -0.2180 -0.2338
  135OSM    H6S14551   0.643   6.989   3.388  0.3225 -0.5162 -1.9875
  135OSM    H6T14552   0.795   7.046   3.455 -1.2920 -0.4822  2.1354
  135OSM    C7S14553   0.744   6.856   3.535  0.5030  0.2410 -0.1252
  135OSM    H7S14554   0.849   6.829   3.560  0.6338 -0.6618 -1.4860
  135OSM    H7T14555   0.689   6.763   3.511 -2.0654  2.3204 -3.1286
  135OSM    C8S14556   0.677   6.925   3.655 -0.1233  0.1500 -0.1511
  135OSM    H8S14557   0.572   6.956   3.635 -0.5437 -1.1379 -0.0371
  135OSM    H8T14558   0.738   7.014   3.681  2.5049 -2.0914  1.9316
  135OSM    C9S14559   0.688   6.845   3.789 -0.2331 -0.3631  0.4788
  135OSM    H9S14560   0.792   6.808   3.797  0.0965 -0.0800 -1.8354
  135OSM    H9T14561   0.618   6.760   3.777 -0.2636 -0.2438 -0.2469
  135OSM   C10S14562   0.651   6.923   3.912  0.2448 -0.1383  0.6098
  135OSM   H10S14563   0.540   6.916   3.921  0.1015 -2.1075 -1.7605
  135OSM   H10T14564   0.691   7.027   3.907  1.0534 -0.4898 -0.4103
  135OSM   C11S14565   0.718   6.845   4.033  0.4173 -0.3926 -0.0100
  135OSM   H11S14566   0.826   6.838   4.007  0.7022  0.5831  0.8293
  135OSM   H11T14567   0.688   6.738   4.039 -2.9126  0.4869  0.8352
  135OSM   C12S14568   0.709   6.902   4.172 -0.0858 -0.3212  0.6951
  135OSM   H12S14569   0.604   6.938   4.184 -1.4022 -3.0023 -1.5241
  135OSM   H12T14570   0.780   6.987   4.181 -0.6877  0.8347 -3.4231
  135OSM   C13S14571   0.732   6.791   4.275 -0.2028  0.3523 -0.7163
  135OSM   H13S14572   0.836   6.751   4.279 -0.6424 -0.8048  2.3513
  135OSM   H13T14573   0.670   6.703   4.249  1.3740 -0.8290 -0.6695
  135OSM   C14S14574   0.703   6.836   4.416  0.4694 -0.2768  0.2377
  135OSM   H14S14575   0.602   6.884   4.420 -0.2756 -1.7848  0.0675
  135OSM   H14T14576   0.761   6.925   4.450 -1.4018  2.2044 -2.5159
  135OSM   C15S14577   0.685   6.719   4.514 -0.6686 -0.0963 -0.2674
  135OSM   H15S14578   0.638   6.635   4.460 -1.8182  1.1741 -1.3230
  135OSM   H15T14579   0.612   6.739   4.595 -2.2105  0.1497 -1.6717
  135OSM   C16S14580   0.816   6.667   4.578 -0.0042 -0.2254 -0.3767
  135OSM   H16S14581   0.866   6.754   4.624  1.4936 -0.7881 -0.8904
  135OSM   H16T14582   0.875   6.641   4.488  0.6621  2.9479 -0.9759
  135OSM   C17S14583   0.789   6.555   4.676 -0.6340 -0.1141 -0.3337
  135OSM   H17S14584   0.885   6.508   4.707 -0.3034  1.4919  1.2481
  135OSM   H17T14585   0.729   6.473   4.630  0.0946 -0.7852 -0.1087
  135OSM   C18S14586   0.720   6.607   4.802  0.7066 -0.2382  0.0473
  135OSM   H18S14587   0.759   6.704   4.840  0.6510 -0.7915  1.5747
  135OSM   H18T14588   0.729   6.537   4.887 -0.6738 -0.6509 -0.1102
  135OSM   H18U14589   0.612   6.625   4.778  0.4910 -0.9251  0.4753
  135OSM    C1F14590   0.809   6.412   3.169 -0.0654  0.0532 -0.1611
  135OSM     OF14591   0.930   6.384   3.184  0.1340 -0.1444  0.8185
  135OSM    C2F14592   0.718   6.305   3.198  0.2250  0.1329  0.2989
  135OSM    H2F14593   0.765   6.218   3.249 -1.0534 -0.6005  0.2669
  135OSM    H2G14594   0.698   6.265   3.096 -0.8056 -0.9063  0.8839
  135OSM    C3F14595   0.579   6.339   3.252 -0.2041 -0.8272 -0.5747
  135OSM    H3F14596   0.526   6.243   3.272 -0.3544 -0.9553 -1.5245
  135OSM    H3G14597   0.516   6.402   3.186  0.5171  3.2481  2.2865
  135OSM    C4F14598   0.590   6.402   3.391  0.3942 -0.6831  0.6456
  135OSM    H4F14599   0.501   6.465   3.412  1.5650  0.6368  1.8833
  135OSM    H4G14600   0.673   6.476   3.402  0.3220 -0.4516 -0.3007
  135OSM    C5F14601   0.582   6.301   3.499  0.1559  0.3521 -0.7717
  135OSM    H5F14602   0.670   6.235   3.495  1.3964  1.7248  1.4694
  135OSM    H5G14603   0.492   6.236   3.494 -1.7387  2.2514  3.3909
  135OSM    C6F14604   0.588   6.354   3.644  0.3415  0.7075 -0.1807
  135OSM    H6F14605   0.569   6.265   3.708  0.6933  1.2641  0.7137
  135OSM    H6G14606   0.507   6.429   3.658  0.4150  1.2161 -2.2037
  135OSM    C7F14607   0.720   6.417   3.685 -0.4686  0.1205  0.0136
  135OSM    H7F14608   0.756   6.488   3.608  0.5328 -1.6077 -1.1746
  135OSM    H7G14609   0.792   6.332   3.688  0.7352  1.0884 -0.7513
  135OSM    C8F14610   0.708   6.484   3.821  0.8548 -0.0906  0.2634
  135OSM    H8F14611   0.651   6.428   3.899  0.6850 -0.9842 -0.4928
  135OSM    H8G14612   0.678   6.588   3.798  0.1052 -0.3849 -0.1344
  135OSM    C9F14613   0.846   6.503   3.876 -0.3186 -0.1806  0.8255
  135OSM    H9F14614   0.909   6.563   3.809 -1.7330 -0.2944 -0.6766
  135OSM   C10F14615   0.900   6.449   3.989 -0.2968 -0.7626 -0.2005
  135OSM   H10F14616   1.001   6.485   4.013 -0.6895  1.2883 -1.3266
  135OSM   C11F14617   0.832   6.372   4.091  0.5421  0.4087  0.8480
  135OSM   H11F14618   0.852   6.264   4.070  1.3613  0.9871 -1.5714
  135OSM   H11G14619   0.724   6.391   4.079  0.0318 -2.7052 -0.4016
  135OSM   C12F14620   0.854   6.408   4.239 -0.1923  0.0056  0.0117
  135OSM   H12F14621   0.843   6.519   4.241  0.6653  0.0893  1.2531
  135OSM   H12G14622   0.962   6.390   4.262 -0.3355 -2.5949 -1.0443
  135OSM   C13F14623   0.765   6.330   4.332  0.0867  0.3530  0.3411
  135OSM   H13F14624   0.781   6.350   4.440  1.1421  1.0151  0.0746
  135OSM   H13G14625   0.796   6.224   4.317  0.7378  0.5792  0.0514
  135OSM   C14F14626   0.616   6.339   4.307  0.6955  0.0879 -0.2270
  135OSM   H14F14627   0.581   6.278   4.221  0.6223  0.5601 -0.5381
  135OSM   H14G14628   0.593   6.441   4.271 -1.3114 -0.3221 -0.2341
  135OSM   C15F14629   0.526   6.306   4.430  0.1949  0.1258  0.1674
  135OSM   H15F14630   0.419   6.324   4.407  0.4287 -0.3920 -1.3939
  135OSM   H15G14631   0.567   6.349   4.524 -0.7854 -1.7067  1.5124
  135OSM   C16F14632   0.530   6.152   4.457  0.5503  0.1518  0.1578
  135OSM   H16F14633   0.633   6.115   4.436  0.8648  1.2876 -0.3678
  135OSM   H16G14634   0.460   6.102   4.387 -0.5106 -0.2745  1.4666
  135OSM   C17F14635   0.496   6.110   4.604 -0.7463  0.0775  0.3800
  135OSM   H17F14636   0.392   6.138   4.633 -0.6760  1.2635 -0.4582
  135OSM   H17G14637   0.552   6.176   4.674 -2.1496 -0.0321  1.6625
  135OSM   C18F14638   0.533   5.963   4.628 -0.1636  0.0276  0.4830
  135OSM   H18F14639   0.637   5.942   4.594 -0.3451  0.6358 -0.4800
  135OSM   H18G14640   0.453   5.899   4.586 -1.2975  0.6236  1.6616
  135OSM   H18H14641   0.536   5.937   4.736  3.4769 -0.1095  0.4843
  136OSM      N14642   3.491   3.167   2.292  0.3898 -0.1740  0.0824
  136OSM    C1514643   3.585   3.250   2.200 -0.4459  0.1214 -1.0104
  136OSM   H15A14644   3.691   3.233   2.211 -0.2035  1.2416 -1.4756
  136OSM   H15B14645   3.576   3.356   2.214 -0.2226 -0.1537  1.9326
  136OSM   H15C14646   3.566   3.229   2.096 -0.3564  1.9978 -1.4398
  136OSM    C1414647   3.348   3.215   2.282 -0.2953  0.2302 -0.9340
  136OSM   H14A14648   3.313   3.222   2.180 -1.2582 -1.0655 -0.7209
  136OSM   H14B14649   3.342   3.312   2.330  0.0789 -0.5096  0.6642
  136OSM   H14C14650   3.291   3.146   2.342  2.6794  0.0543  2.0117
  136OSM    C1314651   3.492   3.032   2.231  0.2072  0.3300  0.1610
  136OSM   H13A14652   3.500   3.039   2.124  0.5873 -2.0663 -0.0237
  136OSM   H13B14653   3.401   2.979   2.258  0.2501  0.9837  1.7213
  136OSM   H13C14654   3.576   2.974   2.265 -1.4975 -1.4870  1.5604
  136OSM    C1214655   3.555   3.175   2.439 -0.3215  0.7782 -0.0546
  136OSM   H12A14656   3.663   3.173   2.432 -0.2248 -0.0394  1.2898
  136OSM   H12B14657   3.526   3.081   2.483 -2.5245  0.3159 -2.2787
  136OSM    C1114658   3.518   3.287   2.539  0.5696  0.1136 -1.1870
  136OSM   H11A14659   3.564   3.263   2.637 -1.4489 -0.5503 -0.3444
  136OSM   H11B14660   3.410   3.284   2.563  0.7143  0.1921 -0.4988
  136OSM      P14661   3.702   3.451   2.460 -0.0118 -0.2429  0.2110
  136OSM    O1314662   3.792   3.341   2.498 -0.0913  0.5928 -0.2217
  136OSM    O1414663   3.713   3.509   2.319  0.5273 -0.2750 -0.8024
  136OSM    O1114664   3.718   3.572   2.564  0.4132  0.0773  0.1886
  136OSM    O1214665   3.549   3.414   2.479 -0.0234  0.0912 -0.5164
  136OSM    C1S14666   3.622   3.645   2.636 -0.5440 -0.1963  0.3675
  136OSM    H1S14667   3.519   3.604   2.626  0.0096 -1.7073  0.5967
  136OSM    H1T14668   3.620   3.750   2.599 -0.3890 -0.2956  0.0733
  136OSM     NF14669   3.554   3.701   2.873 -0.1224 -0.7168  0.7006
  136OSM    HNF14670   3.580   3.782   2.925  2.1465 -1.1763  0.4069
  136OSM    C2S14671   3.662   3.644   2.794  0.1099 -0.4816  0.6235
  136OSM    H2S14672   3.666   3.535   2.814 -0.4220 -1.5719 -3.9873
  136OSM    C3S14673   3.800   3.705   2.802  0.5327  0.0200  0.3486
  136OSM    H3S14674   3.799   3.808   2.760 -1.3792  0.1932  0.7557
  136OSM     O314675   3.908   3.642   2.732 -0.0606 -0.1977 -0.2705
  136OSM    HO314676   3.867   3.595   2.659 -0.6558  0.6010 -0.4616
  136OSM    C4S14677   3.832   3.705   2.950 -0.1459 -0.0996  0.1181
  136OSM    H4S14678   3.818   3.807   2.988 -2.3440 -0.9387  1.7790
  136OSM    C5S14679   3.895   3.606   3.022  0.4336  0.5871  0.3629
  136OSM    H5S14680   3.915   3.517   2.960 -2.9631 -0.3168  0.3425
  136OSM    C6S14681   3.932   3.610   3.174 -0.7083  0.2829  0.4960
  136OSM    H6S14682   4.040   3.587   3.184  0.3505  3.8463 -1.0035
  136OSM    H6T14683   3.869   3.529   3.217  0.8769 -1.2017  0.0741
  136OSM    C7S14684   3.893   3.736   3.255 -0.3176 -0.4563  0.5236
  136OSM    H7S14685   3.787   3.766   3.242 -0.3500 -0.5175  0.6468
  136OSM    H7T14686   3.959   3.814   3.211  1.1134 -2.2185 -0.6200
  136OSM    C8S14687   3.913   3.721   3.404 -0.1930 -0.4755  0.7234
  136OSM    H8S14688   4.021   3.702   3.425  0.1840  2.7677  2.4487
  136OSM    H8T14689   3.856   3.630   3.433 -0.1951 -0.5867  0.3720
  136OSM    C9S14690   3.862   3.833   3.492 -0.4667  0.2521  0.8628
  136OSM    H9S14691   3.755   3.839   3.464  0.6812  0.6335 -4.5168
  136OSM    H9T14692   3.914   3.926   3.460  0.4554 -0.4129  0.3881
  136OSM   C10S14693   3.878   3.794   3.636  0.8853 -1.2799 -0.3570
  136OSM   H10S14694   3.980   3.750   3.635  1.2915 -0.3357 -0.6956
  136OSM   H10T14695   3.808   3.707   3.646 -1.3649  0.3467 -1.0264
  136OSM   C11S14696   3.863   3.905   3.740  0.5320 -0.3809 -0.2675
  136OSM   H11S14697   3.758   3.941   3.729  1.1478  1.1826 -1.5405
  136OSM   H11T14698   3.925   3.995   3.719 -2.1217  1.2908 -1.4633
  136OSM   C12S14699   3.899   3.850   3.885 -0.2265 -0.4248  0.0745
  136OSM   H12S14700   4.006   3.843   3.915 -0.7893 -2.1697  1.9517
  136OSM   H12T14701   3.859   3.748   3.900 -0.2897 -0.1572  2.0738
  136OSM   C13S14702   3.833   3.928   4.003  0.8179  0.2001 -0.7785
  136OSM   H13S14703   3.723   3.916   3.996  0.5479  1.7113  0.2574
  136OSM   H13T14704   3.850   4.035   3.976 -1.3957  0.4983 -1.2062
  136OSM   C14S14705   3.885   3.868   4.138  0.4140  0.1598 -0.4423
  136OSM   H14S14706   3.988   3.910   4.148  0.0492  0.6156  1.8530
  136OSM   H14T14707   3.888   3.758   4.127 -1.2238  0.1830 -1.4980
  136OSM   C15S14708   3.800   3.926   4.253 -0.5836 -0.1416 -0.5370
  136OSM   H15S14709   3.698   3.885   4.239 -0.3858 -0.8786  0.0985
  136OSM   H15T14710   3.795   4.037   4.252  3.3664  0.2326  1.1129
  136OSM   C16S14711   3.849   3.876   4.394 -0.1312 -0.3404  0.6085
  136OSM   H16S14712   3.814   3.956   4.463 -0.0826  0.4123 -0.2162
  136OSM   H16T14713   3.959   3.885   4.388 -0.2992  1.6464 -0.8697
  136OSM   C17S14714   3.792   3.738   4.419  0.1935  0.3477 -0.3937
  136OSM   H17S14715   3.843   3.655   4.365 -1.4018 -0.9235 -0.0626
  136OSM   H17T14716   3.685   3.729   4.390 -0.3883 -0.4890  1.7545
  136OSM   C18S14717   3.791   3.705   4.572 -0.3818  0.3710 -1.0248
  136OSM   H18S14718   3.763   3.599   4.593  2.8343 -0.3044  0.4725
  136OSM   H18T14719   3.715   3.767   4.625  1.2868  0.3721  1.5271
  136OSM   H18U14720   3.892   3.717   4.616 -0.8208  2.0208 -0.3945
  136OSM    C1F14721   3.433   3.659   2.876  0.0641  0.5856 -0.8403
  136OSM     OF14722   3.398   3.566   2.801 -0.1218 -0.4946  0.4701
  136OSM    C2F14723   3.339   3.709   2.988  0.4391 -0.1582  0.3821
  136OSM    H2F14724   3.302   3.810   2.959  0.3704 -0.6178 -1.2612
  136OSM    H2G14725   3.405   3.715   3.077  2.3123  1.0629 -1.0343
  136OSM    C3F14726   3.215   3.629   3.026 -0.0795  0.5040  0.1730
  136OSM    H3F14727   3.239   3.523   3.049 -0.5323  0.3276 -0.1557
  136OSM    H3G14728   3.128   3.629   2.957 -0.4164  0.9907  0.5887
  136OSM    C4F14729   3.148   3.673   3.154  0.0346 -0.3148  1.1853
  136OSM    H4F14730   3.053   3.616   3.153 -0.4839  0.5079  1.7346
  136OSM    H4G14731   3.119   3.780   3.140 -1.8671 -0.7665  1.4141
  136OSM    C5F14732   3.227   3.671   3.286  0.2492 -0.3477 -0.3141
  136OSM    H5F14733   3.319   3.733   3.286  2.2088 -3.0584 -1.3547
  136OSM    H5G14734   3.265   3.569   3.306  0.1305 -0.3575 -0.1376
  136OSM    C6F14735   3.143   3.719   3.405 -0.1754  0.2807  0.3659
  136OSM    H6F14736   3.039   3.682   3.415 -1.1952  3.1407  1.3033
  136OSM    H6G14737   3.139   3.830   3.401 -1.6879  0.2194 -1.3213
  136OSM    C7F14738   3.215   3.685   3.536  0.2337 -0.1500  0.1962
  136OSM    H7F14739   3.322   3.714   3.537  0.9381 -2.4952 -0.5016
  136OSM    H7G14740   3.213   3.574   3.542 -0.9919 -0.0889  1.3140
  136OSM    C8F14741   3.133   3.734   3.658 -0.6319 -0.0896 -0.8269
  136OSM    H8F14742   3.030   3.694   3.656 -0.7540  0.2412 -1.5223
  136OSM    H8G14743   3.122   3.844   3.645 -1.4102 -0.0457  0.1252
  136OSM    C9F14744   3.206   3.711   3.787 -0.0116 -0.3904  0.2057
  136OSM    H9F14745   3.306   3.757   3.789 -0.9940  1.9711 -0.6637
  136OSM   C10F14746   3.167   3.643   3.892 -0.3296 -0.8213 -0.2151
  136OSM   H10F14747   3.246   3.625   3.966 -0.8942  1.5305  1.0315
  136OSM   C11F14748   3.025   3.590   3.912 -0.7514  1.2325  0.2540
  136OSM   H11F14749   2.951   3.633   3.841 -0.6737  1.4992  0.3355
  136OSM   H11G14750   2.981   3.609   4.013 -1.3651  0.0902  0.2300
  136OSM   C12F14751   3.027   3.431   3.896  0.4189  0.1940  0.4529
  136OSM   H12F14752   3.065   3.399   3.796 -1.3445 -3.2290  0.7163
  136OSM   H12G14753   2.918   3.412   3.901  0.1320  1.1041 -1.4533
  136OSM   C13F14754   3.104   3.351   3.997  0.1075  0.6734 -0.5412
  136OSM   H13F14755   3.215   3.360   3.992  0.3001 -1.2755 -0.5706
  136OSM   H13G14756   3.084   3.242   3.988 -0.3444  0.5185  1.7277
  136OSM   C14F14757   3.076   3.381   4.154 -0.5076  0.1299  0.3866
  136OSM   H14F14758   2.966   3.368   4.155 -0.4882 -0.0621  0.1617
  136OSM   H14G14759   3.098   3.486   4.185 -1.9562  0.0064  1.9646
  136OSM   C15F14760   3.150   3.292   4.246 -0.3160  0.3196  0.0333
  136OSM   H15F14761   3.132   3.335   4.346  0.1012  0.3089  0.1143
  136OSM   H15G14762   3.260   3.305   4.233 -0.3462  2.1403  1.2404
  136OSM   C16F14763   3.097   3.150   4.237 -0.1700  0.5752 -0.2814
  136OSM   H16F14764   3.113   3.100   4.139 -2.4389 -2.2882  0.6460
  136OSM   H16G14765   2.989   3.141   4.263 -0.0727 -1.4868 -0.3934
  136OSM   C17F14766   3.172   3.057   4.339 -0.4096  0.3630 -0.1106
  136OSM   H17F14767   3.282   3.069   4.327 -0.5521  0.9209 -0.9656
  136OSM   H17G14768   3.153   2.949   4.323 -2.8036  0.8738 -1.3268
  136OSM   C18F14769   3.120   3.081   4.480  0.1052 -0.2120  0.0819
  136OSM   H18F14770   3.187   3.020   4.545 -0.8205 -0.8240  0.4879
  136OSM   H18G14771   3.013   3.060   4.501  0.6772 -3.4735  0.2827
  136OSM   H18H14772   3.147   3.182   4.517  2.1924 -1.4121  2.0650
  137OSM      N14773   0.116   0.235   2.507 -0.1870 -0.1108  0.1989
  137OSM    C1514774   0.160   0.089   2.510 -0.2018  0.0108  0.5445
  137OSM   H15A14775   0.130   0.044   2.417 -0.4604 -0.6096  0.9241
  137OSM   H15B14776   0.107   0.034   2.586  1.0558 -2.0283  0.0314
  137OSM   H15C14777   0.266   0.069   2.518 -0.2665 -0.9110 -0.5968
  137OSM    C1414778   0.176   0.297   2.375  0.9908  0.2005 -0.5060
  137OSM   H14A14779   0.154   0.402   2.385 -0.6548 -0.0905 -0.7816
  137OSM   H14B14780   0.133   0.267   2.281  0.4924  1.3544 -0.6584
  137OSM   H14C14781   0.283   0.281   2.372  1.0732  0.9210 -2.3157
  137OSM    C1314782  -0.036   0.234   2.492  0.1093  0.3538  0.5746
  137OSM   H13A14783  -0.068   0.334   2.468 -1.8334 -0.6940 -1.5050
  137OSM   H13B14784  -0.088   0.202   2.581  0.2699 -0.4461  0.3852
  137OSM   H13C14785  -0.063   0.175   2.406  2.1331 -0.3630  0.3781
  137OSM    C1214786   0.154   0.327   2.625  0.6592  0.2966 -0.1738
  137OSM   H12A14787   0.114   0.425   2.604 -0.3027  0.0960  0.6252
  137OSM   H12B14788   0.260   0.345   2.634  0.5847  0.2135  1.1576
  137OSM    C1114789   0.117   0.285   2.770 -0.1071  0.0349  0.1365
  137OSM   H11A14790   0.007   0.290   2.784  0.0285  1.7631  0.8212
  137OSM   H11B14791   0.154   0.360   2.843  2.2593 -1.2606  0.3850
  137OSM      P14792   0.318   0.140   2.851 -0.0236 -0.1367  0.3938
  137OSM    O1314793   0.335  -0.007   2.879 -0.7905 -0.0221  0.3100
  137OSM    O1414794   0.418   0.203   2.759 -1.2661 -0.5408 -1.3604
  137OSM    O1114795   0.317   0.223   2.983 -0.1299  0.3877 -0.0441
  137OSM    O1214796   0.171   0.163   2.808  0.1781  0.4269 -0.3719
  137OSM    C1S14797   0.268   0.171   3.103 -0.0572  0.6150  0.0528
  137OSM    H1S14798   0.287   0.061   3.102  0.4365  0.6096 -4.0758
  137OSM    H1T14799   0.158   0.183   3.114 -0.1199 -0.4895  0.8009
  137OSM     NF14800   0.325   0.155   3.353  0.6103  0.4105 -0.7663
  137OSM    HNF14801   0.264   0.206   3.413  0.3051  0.1198 -0.8271
  137OSM    C2S14802   0.348   0.227   3.222 -0.2127 -0.7525 -0.9146
  137OSM    H2S14803   0.458   0.220   3.204  0.2635  0.9879  0.9778
  137OSM    C3S14804   0.329   0.383   3.227  0.4590  1.0071  0.0871
  137OSM    H3S14805   0.220   0.402   3.241  0.3300  0.9311 -0.7361
  137OSM     O314806   0.355   0.454   3.102  0.3936 -0.0793  0.2967
  137OSM    HO314807   0.373   0.382   3.040  2.3542  0.5443  0.0730
  137OSM    C4S14808   0.401   0.448   3.348  0.0164  0.7285  1.1858
  137OSM    H4S14809   0.347   0.435   3.443  0.2133 -2.6883  0.9420
  137OSM    C5S14810   0.526   0.508   3.358 -0.0091 -0.6437 -0.1898
  137OSM    H5S14811   0.585   0.515   3.265 -1.2477  0.0785 -0.9539
  137OSM    C6S14812   0.585   0.552   3.489 -0.4863 -0.3154 -0.7724
  137OSM    H6S14813   0.696   0.565   3.490 -0.5849  0.9117  1.4947
  137OSM    H6T14814   0.592   0.477   3.571  0.2997  1.0101  0.4226
  137OSM    C7S14815   0.517   0.673   3.545  0.3811  0.1079  0.3257
  137OSM    H7S14816   0.412   0.652   3.575  1.0342 -3.1579  0.7288
  137OSM    H7T14817   0.517   0.759   3.474  1.5067 -0.2328 -0.1001
  137OSM    C8S14818   0.590   0.729   3.666  0.5872 -0.2533  0.3147
  137OSM    H8S14819   0.557   0.834   3.675  0.2206 -0.4083  0.7824
  137OSM    H8T14820   0.698   0.723   3.642  0.1850 -0.5712 -1.6152
  137OSM    C9S14821   0.572   0.652   3.798 -0.1154 -0.3405 -0.5488
  137OSM    H9S14822   0.554   0.544   3.776 -0.4459 -0.2685 -0.6390
  137OSM    H9T14823   0.482   0.696   3.847 -0.3485 -0.6345 -0.7039
  137OSM   C10S14824   0.688   0.655   3.893  0.4454  0.2342 -1.0416
  137OSM   H10S14825   0.779   0.612   3.846 -0.2972 -0.1675 -2.1487
  137OSM   H10T14826   0.660   0.593   3.981  0.3962  2.8958  0.9656
  137OSM   C11S14827   0.716   0.801   3.945  0.0479 -0.7797  0.4710
  137OSM   H11S14828   0.632   0.824   4.014  0.0694  3.4061 -0.6621
  137OSM   H11T14829   0.703   0.872   3.861  1.8182  0.3764  1.1254
  137OSM   C12S14830   0.848   0.819   4.021  0.4928 -0.9741 -0.0192
  137OSM   H12S14831   0.850   0.923   4.061 -2.8437 -0.3229 -1.2202
  137OSM   H12T14832   0.934   0.798   3.955  0.6495 -0.2156 -0.0639
  137OSM   C13S14833   0.854   0.713   4.135 -0.1873  0.1564  0.0608
  137OSM   H13S14834   0.867   0.613   4.088  1.0973 -0.4138  1.5206
  137OSM   H13T14835   0.754   0.720   4.184 -0.2891  0.8121 -0.2312
  137OSM   C14S14836   0.967   0.749   4.234  0.5154  0.3825  0.5497
  137OSM   H14S14837   0.956   0.858   4.253  2.1716  1.1635 -2.3759
  137OSM   H14T14838   1.065   0.729   4.184 -0.5117  0.4564 -1.6167
  137OSM   C15S14839   0.951   0.662   4.360 -0.0914 -0.0328  0.2736
  137OSM   H15S14840   1.002   0.564   4.354  1.3376  0.5455  2.0224
  137OSM   H15T14841   0.842   0.659   4.380  0.1606  1.6592  2.4096
  137OSM   C16S14842   1.032   0.715   4.484 -0.4526  0.0338  0.1026
  137OSM   H16S14843   1.029   0.626   4.551 -2.3918  0.8256  1.1713
  137OSM   H16T14844   0.975   0.796   4.535 -0.6000 -1.3169  2.2245
  137OSM   C17S14845   1.176   0.746   4.468  0.1736 -0.5578  1.0417
  137OSM   H17S14846   1.184   0.841   4.411 -2.0103 -1.6270 -1.2846
  137OSM   H17T14847   1.222   0.668   4.404  0.2678  0.2998  0.0259
  137OSM   C18S14848   1.240   0.758   4.609 -0.3429 -0.0200 -0.0437
  137OSM   H18S14849   1.176   0.684   4.661 -2.8546  1.8184 -0.3482
  137OSM   H18T14850   1.218   0.853   4.661 -0.7925 -0.6234  0.9072
  137OSM   H18U14851   1.348   0.731   4.610 -0.5789 -1.2741 -2.0443
  137OSM    C1F14852   0.332   0.022   3.377 -0.4667 -0.2789 -0.1198
  137OSM     OF14853   0.396  -0.055   3.312 -0.8792 -0.2566  0.0014
  137OSM    C2F14854   0.256  -0.027   3.500 -0.3751  0.0136  0.7012
  137OSM    H2F14855   0.200  -0.115   3.462 -4.8110  2.2343  1.5059
  137OSM    H2G14856   0.189   0.058   3.524 -0.9953  0.0627 -1.0178
  137OSM    C3F14857   0.351  -0.062   3.623  0.4201 -0.0023  0.1870
  137OSM    H3F14858   0.416   0.025   3.646  0.2550 -0.3209  1.9765
  137OSM    H3G14859   0.419  -0.146   3.595 -1.3251 -0.8024 -1.9397
  137OSM    C4F14860   0.271  -0.107   3.742 -0.5779  0.0105  1.1094
  137OSM    H4F14861   0.242  -0.214   3.737  1.7021 -0.6931 -3.7370
  137OSM    H4G14862   0.183  -0.039   3.748 -1.2792 -0.7908  0.1617
  137OSM    C5F14863   0.359  -0.082   3.870 -0.2909 -0.0732  0.9835
  137OSM    H5F14864   0.376   0.028   3.862  0.5412 -0.2787 -0.5447
  137OSM    H5G14865   0.457  -0.133   3.855 -0.3338  0.4040 -1.3146
  137OSM    C6F14866   0.293  -0.125   4.001  0.1766  0.5975  0.7120
  137OSM    H6F14867   0.283  -0.235   4.002  1.0630  0.4874 -0.3941
  137OSM    H6G14868   0.192  -0.078   4.002  0.8991  2.2721 -0.4232
  137OSM    C7F14869   0.384  -0.082   4.115  0.3224 -0.2343  1.2445
  137OSM    H7F14870   0.399   0.028   4.106 -0.6047 -0.1315  0.8633
  137OSM    H7G14871   0.483  -0.131   4.103  0.0118 -0.2950 -2.0161
  137OSM    C8F14872   0.326  -0.117   4.252 -0.4594 -0.6734 -0.5225
  137OSM    H8F14873   0.398  -0.098   4.335  2.1139 -0.6859 -2.6000
  137OSM    H8G14874   0.316  -0.227   4.258 -2.1635 -0.7027 -2.7283
  137OSM    C9F14875   0.193  -0.066   4.286 -0.2525  0.3028  0.0056
  137OSM    H9F14876   0.120  -0.143   4.256 -0.4180  1.1759 -1.9933
  137OSM   C10F14877   0.172   0.053   4.342  0.6857  0.2793 -0.0092
  137OSM   H10F14878   0.068   0.081   4.363  0.2426 -1.3870  0.1638
  137OSM   C11F14879   0.285   0.148   4.371 -0.0974 -0.5575 -0.3708
  137OSM   H11F14880   0.257   0.252   4.343 -2.4407 -1.0124  0.0165
  137OSM   H11G14881   0.376   0.124   4.312  1.3629  2.2928  0.5704
  137OSM   C12F14882   0.313   0.150   4.522  0.3499 -0.5060 -0.4666
  137OSM   H12F14883   0.412   0.200   4.534 -0.1336  0.1979  0.8235
  137OSM   H12G14884   0.321   0.051   4.571 -1.5984 -0.0468  0.8907
  137OSM   C13F14885   0.205   0.218   4.610  0.4109  0.2738  0.6688
  137OSM   H13F14886   0.106   0.185   4.572  0.6356  0.5765 -0.2177
  137OSM   H13G14887   0.213   0.328   4.593 -0.5783  0.1462 -0.8601
  137OSM   C14F14888   0.224   0.207   4.760  0.4301 -0.8808 -0.1943
  137OSM   H14F14889   0.331   0.229   4.779  0.0962  0.0747  0.7191
  137OSM   H14G14890   0.212   0.102   4.793  3.4411 -0.6353  2.0588
  137OSM   C15F14891   0.141   0.310   4.845 -0.1258 -0.0521  0.0636
  137OSM   H15F14892   0.149   0.403   4.784  0.2737 -0.3619 -0.3622
  137OSM   H15G14893   0.197   0.315   4.940  0.1138  0.3859 -0.0964
  137OSM   C16F14894  -0.005   0.266   4.869  0.4623 -0.8007  0.5466
  137OSM   H16F14895  -0.008   0.183   4.943  2.1227 -0.0545  1.5087
  137OSM   H16G14896  -0.048   0.243   4.769  0.2236  2.7301 -0.2687
  137OSM   C17F14897  -0.086   0.385   4.923  0.1498 -0.3330  0.0712
  137OSM   H17F14898  -0.037   0.418   5.017  3.0244 -1.7071 -0.8135
  137OSM   H17G14899  -0.187   0.346   4.944  0.1468 -0.6417 -0.5070
  137OSM   C18F14900  -0.103   0.501   4.823  0.3050  0.3816 -0.0908
  137OSM   H18F14901  -0.140   0.482   4.720  0.3020  2.6407 -0.5650
  137OSM   H18G14902  -0.006   0.551   4.804  0.7535  0.3929  1.9637
  137OSM   H18H14903  -0.177   0.574   4.863 -2.7084 -1.9393 -1.0137
  138OSM      N14904   0.110   4.557   2.351  0.3683 -0.1809  0.1968
  138OSM    C1514905   0.007   4.545   2.244 -0.0205  0.1457 -0.6460
  138OSM   H15A14906   0.048   4.525   2.146  2.9545 -0.5398  0.6382
  138OSM   H15B14907  -0.041   4.642   2.241  0.8934  0.6711  0.7562
  138OSM   H15C14908  -0.068   4.470   2.263 -2.4369  2.9663  2.0416
  138OSM    C1414909   0.209   4.664   2.311 -0.0967  1.2731 -0.5019
  138OSM   H14A14910   0.243   4.652   2.209 -1.5890  0.5245 -0.9266
  138OSM   H14B14911   0.299   4.656   2.371  1.2036  1.1763 -2.3626
  138OSM   H14C14912   0.161   4.761   2.308 -1.0463  0.7962 -1.1675
  138OSM    C1314913   0.041   4.597   2.480  0.5233  0.0652 -0.1637
  138OSM   H13A14914  -0.031   4.674   2.458 -0.6920 -0.6835  1.0331
  138OSM   H13B14915   0.117   4.619   2.554  0.6218 -1.0714  0.0950
  138OSM   H13C14916  -0.013   4.515   2.525 -0.5305  0.0018 -1.4674
  138OSM    C1214917   0.196   4.432   2.375  0.0708 -0.0483  0.9440
  138OSM   H12A14918   0.249   4.400   2.287  1.0185 -3.0124  2.4394
  138OSM   H12B14919   0.125   4.351   2.389  0.0552 -0.1757  0.1702
  138OSM    C1114920   0.303   4.424   2.488  0.7390 -0.1987  0.0606
  138OSM   H11A14921   0.342   4.320   2.488  0.5998 -0.2676  1.6395
  138OSM   H11B14922   0.243   4.437   2.580 -1.2453  0.7020 -1.2872
  138OSM      P14923   0.499   4.551   2.582 -0.0061  0.0174  0.1045
  138OSM    O1314924   0.604   4.649   2.540 -0.0507  0.2662  0.2739
  138OSM    O1414925   0.415   4.583   2.701 -0.9237 -0.5268  0.1009
  138OSM    O1114926   0.569   4.418   2.626 -0.2040  0.1089 -0.0369
  138OSM    O1214927   0.403   4.518   2.459 -0.1034 -0.0669 -0.4419
  138OSM    C1S14928   0.660   4.402   2.738 -0.0086  0.1407 -0.7138
  138OSM    H1S14929   0.654   4.496   2.797 -0.6466 -0.3527  0.0196
  138OSM    H1T14930   0.765   4.391   2.702  0.6848  0.6178  1.0641
  138OSM     NF14931   0.685   4.292   2.957 -0.3670 -0.4227  0.5903
  138OSM    HNF14932   0.773   4.247   2.968  0.0772  0.7430  2.2037
  138OSM    C2S14933   0.621   4.283   2.829 -0.3595  0.2422 -0.2460
  138OSM    H2S14934   0.513   4.264   2.847  0.2032 -0.6241  2.6810
  138OSM    C3S14935   0.661   4.150   2.749  0.3185  0.2072  0.0630
  138OSM    H3S14936   0.767   4.161   2.718  0.1563  0.7234 -0.3245
  138OSM     O314937   0.595   4.142   2.614  0.3276 -0.2022 -0.2074
  138OSM    HO314938   0.552   4.226   2.597  0.5678  0.7055  3.0887
  138OSM    C4S14939   0.655   4.028   2.839 -0.5029  0.2851 -0.3657
  138OSM    H4S14940   0.747   4.011   2.897 -0.3012  1.4222 -0.3334
  138OSM    C5S14941   0.565   3.923   2.823  0.1377 -0.4429 -0.3669
  138OSM    H5S14942   0.496   3.941   2.740  0.8137 -0.0763 -0.8559
  138OSM    C6S14943   0.575   3.789   2.894 -0.2419  0.4807 -0.4723
  138OSM    H6S14944   0.665   3.732   2.863 -0.4526  0.1173 -0.4270
  138OSM    H6T14945   0.485   3.732   2.861 -1.1894  3.0099 -2.6837
  138OSM    C7S14946   0.555   3.787   3.048 -0.1684  0.0898 -0.1222
  138OSM    H7S14947   0.452   3.821   3.070 -0.9143 -1.3830 -1.1054
  138OSM    H7T14948   0.619   3.865   3.096  2.3027 -2.1586  0.5193
  138OSM    C8S14949   0.574   3.639   3.109 -0.0089  0.0542 -0.3150
  138OSM    H8S14950   0.684   3.634   3.114 -0.0097 -5.4459  0.1180
  138OSM    H8T14951   0.524   3.570   3.037  2.8809 -2.5113 -0.0594
  138OSM    C9S14952   0.528   3.618   3.255 -0.6129  0.1787  0.0502
  138OSM    H9S14953   0.576   3.523   3.285 -1.3482 -1.5344 -3.5526
  138OSM    H9T14954   0.417   3.609   3.245 -0.3938 -0.5715 -2.3225
  138OSM   C10S14955   0.565   3.724   3.362  0.0768  0.0070 -0.4270
  138OSM   H10S14956   0.515   3.818   3.329 -1.1974  0.6142  2.8111
  138OSM   H10T14957   0.675   3.730   3.371  0.0981 -1.1856  0.2853
  138OSM   C11S14958   0.505   3.690   3.503  0.4445  0.5961  0.3638
  138OSM   H11S14959   0.453   3.592   3.504 -2.4279  1.9815  0.4196
  138OSM   H11T14960   0.439   3.776   3.527  0.9021  1.1326 -0.2533
  138OSM   C12S14961   0.605   3.708   3.619 -0.9615 -0.3519 -0.5173
  138OSM   H12S14962   0.636   3.814   3.624 -0.7150 -0.3344 -1.8630
  138OSM   H12T14963   0.695   3.650   3.591  2.3379  2.5614  2.9994
  138OSM   C13S14964   0.551   3.660   3.753  0.8001 -0.7575  0.5159
  138OSM   H13S14965   0.510   3.560   3.729 -0.9388  0.4934 -2.1490
  138OSM   H13T14966   0.469   3.727   3.787  2.0394  0.0068  2.1899
  138OSM   C14S14967   0.661   3.667   3.866  0.4025  0.4599  0.1532
  138OSM   H14S14968   0.717   3.763   3.866 -1.3363  1.5298 -1.1458
  138OSM   H14T14969   0.741   3.592   3.853  0.5614  0.4217  1.2394
  138OSM   C15S14970   0.602   3.650   4.013  0.3525 -0.1293 -0.1355
  138OSM   H15S14971   0.581   3.541   4.021 -0.0359 -0.3242 -2.8400
  138OSM   H15T14972   0.503   3.698   4.032 -0.1253 -0.7448 -0.9801
  138OSM   C16S14973   0.707   3.696   4.119 -0.5138  0.3403  0.4134
  138OSM   H16S14974   0.743   3.798   4.095  0.9222 -0.7675 -2.5971
  138OSM   H16T14975   0.791   3.623   4.121 -2.2384 -1.7483  0.4118
  138OSM   C17S14976   0.642   3.700   4.251 -0.0838 -0.6764 -0.2112
  138OSM   H17S14977   0.604   3.602   4.285 -2.4157  0.0491 -0.5181
  138OSM   H17T14978   0.549   3.761   4.238 -0.3659 -1.2137 -0.7304
  138OSM   C18S14979   0.727   3.746   4.374 -0.3094 -0.1380 -0.4188
  138OSM   H18S14980   0.781   3.841   4.355  1.4390 -1.0363 -0.1385
  138OSM   H18T14981   0.803   3.665   4.383 -0.0958  0.0462 -0.5452
  138OSM   H18U14982   0.667   3.758   4.466 -0.8230 -0.2574 -0.7341
  138OSM    C1F14983   0.635   4.390   3.039  0.1283  0.0429 -0.6124
  138OSM     OF14984   0.522   4.434   3.022 -0.1199  0.1214 -0.0049
  138OSM    C2F14985   0.731   4.441   3.140 -0.6310  0.1716 -0.5182
  138OSM    H2F14986   0.747   4.550   3.125 -0.3972  0.3915  1.1359
  138OSM    H2G14987   0.829   4.390   3.140 -0.5186  0.2001  2.4032
  138OSM    C3F14988   0.672   4.432   3.283 -0.5152  0.4132 -0.7879
  138OSM    H3F14989   0.661   4.328   3.320  3.7303  0.5488  1.5355
  138OSM    H3G14990   0.576   4.488   3.289  0.1063  1.3576  1.0492
  138OSM    C4F14991   0.764   4.498   3.383 -0.0669  0.0242  0.5172
  138OSM    H4F14992   0.770   4.604   3.348 -1.9801  0.4951  1.4692
  138OSM    H4G14993   0.862   4.447   3.393 -0.1178 -1.0879 -3.2610
  138OSM    C5F14994   0.679   4.500   3.514 -0.6389  0.1133  1.0036
  138OSM    H5F14995   0.635   4.399   3.531  1.2477 -0.6714  1.5010
  138OSM    H5G14996   0.594   4.570   3.502 -3.3099 -3.0265 -0.0398
  138OSM    C6F14997   0.752   4.521   3.642  0.0132  0.8193  0.5177
  138OSM    H6F14998   0.820   4.608   3.635  1.1730  0.0708  1.8376
  138OSM    H6G14999   0.825   4.438   3.657  0.6279  1.5441  1.7389
  138OSM    C7F15000   0.658   4.522   3.761 -0.1827 -0.1434  0.0238
  138OSM    H7F15001   0.589   4.437   3.745 -0.5061  0.4333 -1.8963
  138OSM    H7G15002   0.596   4.614   3.769 -0.8099 -0.6421  1.0979
  138OSM    C8F15003   0.724   4.506   3.900  0.3620  0.5230  0.2993
  138OSM    H8F15004   0.766   4.403   3.897 -1.8373 -0.3983 -2.5992
  138OSM    H8G15005   0.644   4.505   3.977  2.6694 -1.8635  2.8996
  138OSM    C9F15006   0.834   4.603   3.944  0.2365 -0.2017  0.4027
  138OSM    H9F15007   0.895   4.632   3.857  0.1142 -0.9101  0.0722
  138OSM   C10F15008   0.857   4.656   4.066  0.0301  0.4737 -0.3687
  138OSM   H10F15009   0.942   4.727   4.066  0.9559 -0.5177  1.9673
  138OSM   C11F15010   0.787   4.627   4.193  0.9123  0.3287 -0.2559
  138OSM   H11F15011   0.690   4.581   4.165  0.5602  1.5952 -1.2211
  138OSM   H11G15012   0.755   4.719   4.246 -1.1961 -1.7857  2.4699
  138OSM   C12F15013   0.858   4.543   4.300  0.2281 -0.0039  0.2809
  138OSM   H12F15014   0.889   4.445   4.258 -0.8754 -0.7631  1.1921
  138OSM   H12G15015   0.793   4.517   4.386 -0.0136 -3.9213 -0.8702
  138OSM   C13F15016   0.991   4.603   4.355  1.1015  0.1276  0.6251
  138OSM   H13F15017   0.987   4.701   4.407  3.3153  0.7951 -0.3642
  138OSM   H13G15018   1.063   4.606   4.270  0.5571 -1.0770  0.0939
  138OSM   C14F15019   1.044   4.512   4.466 -0.4189  0.3078  0.4172
  138OSM   H14F15020   1.066   4.410   4.429 -1.2452 -0.6452  2.4072
  138OSM   H14G15021   0.970   4.495   4.548 -1.5668  0.4818 -0.5483
  138OSM   C15F15022   1.168   4.567   4.538  0.3291 -0.2787  0.7733
  138OSM   H15F15023   1.148   4.634   4.625 -0.7928 -0.1227  0.4108
  138OSM   H15G15024   1.208   4.637   4.462 -2.6336  1.4125  0.6215
  138OSM   C16F15025   1.253   4.461   4.610 -0.2694  0.4202  0.1194
  138OSM   H16F15026   1.278   4.389   4.530  0.0749  0.2964  0.3368
  138OSM   H16G15027   1.183   4.413   4.683 -1.1616 -0.7860 -1.4522
  138OSM   C17F15028   1.381   4.512   4.674  0.2677  0.1525 -0.4444
  138OSM   H17F15029   1.371   4.617   4.709 -0.2554 -0.1921  0.4605
  138OSM   H17G15030   1.458   4.513   4.594  1.3694 -1.3673  0.5564
  138OSM   C18F15031   1.432   4.422   4.784  0.0385  0.6319 -0.7245
  138OSM   H18F15032   1.532   4.467   4.806 -0.2859  1.2949 -0.5850
  138OSM   H18G15033   1.440   4.317   4.750 -1.7328  0.0805  0.4430
  138OSM   H18H15034   1.360   4.425   4.868  0.0138  1.8496 -0.7609
  139OSM      N15035   0.847   0.663   2.651  0.6996  0.1056  0.2791
  139OSM    C1515036   0.711   0.717   2.628 -1.0182  0.4253 -0.8209
  139OSM   H15A15037   0.726   0.823   2.636  1.2744  0.0677  0.9924
  139OSM   H15B15038   0.652   0.689   2.715  0.4617 -0.4674 -0.0500
  139OSM   H15C15039   0.666   0.678   2.538 -0.0933  0.1579 -1.1829
  139OSM    C1415040   0.836   0.513   2.661 -0.2688  0.4515 -0.0886
  139OSM   H14A15041   0.797   0.476   2.567 -0.4249  2.1957 -0.7650
  139OSM   H14B15042   0.760   0.481   2.730 -0.1377  0.3583  0.0108
  139OSM   H14C15043   0.935   0.474   2.680 -0.5244 -0.1882 -0.0759
  139OSM    C1315044   0.946   0.688   2.543 -0.1892  0.4772  0.0688
  139OSM   H13A15045   0.954   0.794   2.528 -2.2704  0.5313 -1.0017
  139OSM   H13B15046   0.918   0.637   2.452 -1.0041 -1.5919  1.4101
  139OSM   H13C15047   1.047   0.650   2.554 -0.2014  0.3915 -0.1139
  139OSM    C1215048   0.897   0.718   2.781 -0.9181 -0.4546 -0.0062
  139OSM   H12A15049   0.969   0.648   2.821  1.1318  0.8026 -1.3073
  139OSM   H12B15050   0.812   0.721   2.848 -0.7401  0.0613  0.1943
  139OSM    C1115051   0.963   0.858   2.795  0.5483 -0.0832  0.0239
  139OSM   H11A15052   0.983   0.863   2.904  0.6182 -0.0159  0.0078
  139OSM   H11B15053   0.908   0.949   2.763  4.3961  1.9325 -1.4956
  139OSM      P15054   1.214   0.792   2.763  0.1020 -0.2287 -0.1220
  139OSM    O1315055   1.262   0.689   2.673  0.2023 -0.4688 -0.6602
  139OSM    O1415056   1.307   0.906   2.781  0.1368 -0.4324  0.0954
  139OSM    O1115057   1.187   0.736   2.908  1.0277  0.3764  0.2434
  139OSM    O1215058   1.080   0.860   2.722 -0.1852  0.2466  0.6550
  139OSM    C1S15059   1.290   0.720   3.001  0.3720 -0.3388  0.0545
  139OSM    H1S15060   1.347   0.814   3.015 -1.0861  0.7957 -1.2929
  139OSM    H1T15061   1.365   0.652   2.955  0.0897  0.6471 -1.9563
  139OSM     NF15062   1.368   0.685   3.228  0.1825  0.1843  0.4735
  139OSM    HNF15063   1.420   0.606   3.258 -0.8495  0.3957  3.0579
  139OSM    C2S15064   1.254   0.667   3.142 -0.5217  0.6982  0.9317
  139OSM    H2S15065   1.162   0.714   3.182 -1.4765  1.5736 -1.9953
  139OSM    C3S15066   1.205   0.515   3.137 -0.5834  0.1588  0.1809
  139OSM    H3S15067   1.291   0.447   3.122 -1.2362 -1.3332  2.6872
  139OSM     O315068   1.107   0.490   3.040 -0.2908 -0.0419  0.1096
  139OSM    HO315069   1.116   0.563   2.979  1.3147  0.1005  0.4867
  139OSM    C4S15070   1.161   0.467   3.274  0.6444  0.2975 -0.2717
  139OSM    H4S15071   1.240   0.427   3.340 -1.3536 -2.4049  0.6472
  139OSM    C5S15072   1.041   0.482   3.333  0.2337 -0.1640 -0.2011
  139OSM    H5S15073   0.958   0.532   3.282 -0.7777  0.1404  1.6576
  139OSM    C6S15074   1.015   0.438   3.474  0.5104  0.0322 -0.4413
  139OSM    H6S15075   0.990   0.330   3.461 -4.3162  1.1374 -3.0181
  139OSM    H6T15076   0.919   0.484   3.507  1.0814  2.0267 -1.3959
  139OSM    C7S15077   1.114   0.469   3.579 -0.6305 -0.5591  0.1173
  139OSM    H7S15078   1.166   0.567   3.570 -1.1986 -0.1124  1.5078
  139OSM    H7T15079   1.188   0.386   3.583 -1.5491 -1.3287  2.5349
  139OSM    C8S15080   1.054   0.463   3.725  1.1730  0.6241 -0.0047
  139OSM    H8S15081   0.995   0.370   3.738  1.0582  0.6079 -0.6217
  139OSM    H8T15082   0.994   0.556   3.738 -1.0784 -0.7610  0.0950
  139OSM    C9S15083   1.162   0.452   3.827  0.1426  0.3006 -0.1182
  139OSM    H9S15084   1.223   0.544   3.818 -0.0267  0.4426  0.1536
  139OSM    H9T15085   1.227   0.364   3.809 -1.8699 -0.5010 -5.1097
  139OSM   C10S15086   1.112   0.444   3.972 -0.3574 -1.0482 -0.5455
  139OSM   H10S15087   1.031   0.369   3.976 -0.3846 -0.9752  2.2339
  139OSM   H10T15088   1.071   0.543   4.002 -1.0701 -1.9025  1.4314
  139OSM   C11S15089   1.223   0.413   4.069 -0.1326  0.0684 -0.8458
  139OSM   H11S15090   1.271   0.316   4.044 -1.6006 -1.3756  1.5531
  139OSM   H11T15091   1.175   0.404   4.168  1.8179  0.5276  0.2026
  139OSM   C12S15092   1.336   0.519   4.085 -0.0674  0.1934  0.1790
  139OSM   H12S15093   1.293   0.615   4.119 -0.5411  0.9775 -2.3810
  139OSM   H12T15094   1.391   0.543   3.992 -0.8941  1.4905 -0.0011
  139OSM   C13S15095   1.443   0.469   4.185  0.3577  0.2041  0.4068
  139OSM   H13S15096   1.516   0.397   4.144 -0.1611  1.1700 -2.4231
  139OSM   H13T15097   1.401   0.432   4.281 -0.9826  0.6869  0.0364
  139OSM   C14S15098   1.530   0.588   4.232  0.3495 -0.0190 -0.2684
  139OSM   H14S15099   1.463   0.668   4.272  0.5539  0.1601 -0.2774
  139OSM   H14T15100   1.597   0.638   4.158 -1.2617  2.2507 -0.3078
  139OSM   C15S15101   1.616   0.550   4.356  0.6030 -0.9750 -0.2074
  139OSM   H15S15102   1.670   0.457   4.328 -0.4041 -1.3718 -0.8721
  139OSM   H15T15103   1.556   0.520   4.445  0.4933 -2.2338 -0.6862
  139OSM   C16S15104   1.706   0.666   4.401 -0.8605 -0.1880  0.1213
  139OSM   H16S15105   1.654   0.764   4.402  0.1171  0.3647  2.4383
  139OSM   H16T15106   1.779   0.672   4.317 -2.0303 -0.2301 -0.9264
  139OSM   C17S15107   1.765   0.640   4.534  0.4179 -0.1534 -0.3940
  139OSM   H17S15108   1.675   0.642   4.600  1.0747 -0.1949  0.5149
  139OSM   H17T15109   1.826   0.729   4.560 -1.3695  0.6889  1.2438
  139OSM   C18S15110   1.842   0.507   4.544  0.2223 -0.4255 -0.0472
  139OSM   H18S15111   1.780   0.417   4.566  0.0724 -0.0741  1.0180
  139OSM   H18T15112   1.926   0.505   4.616  1.7770 -0.8960 -1.7903
  139OSM   H18U15113   1.883   0.484   4.443 -1.2992  0.7077 -0.9588
  139OSM    C1F15114   1.402   0.811   3.265 -0.6025  0.2306  0.3846
  139OSM     OF15115   1.329   0.903   3.245  0.1948 -0.0801  0.0007
  139OSM    C2F15116   1.541   0.833   3.311 -0.0982  0.3954 -0.6994
  139OSM    H2F15117   1.599   0.874   3.225  2.3276  0.0589  0.6922
  139OSM    H2G15118   1.586   0.738   3.345 -2.9541 -0.0102  2.4623
  139OSM    C3F15119   1.559   0.943   3.424  0.0531 -0.0054  0.2486
  139OSM    H3F15120   1.506   0.911   3.517  0.6205  0.5097  0.7628
  139OSM    H3G15121   1.512   1.036   3.387  0.2118  0.1811  0.5016
  139OSM    C4F15122   1.711   0.976   3.460 -0.3224 -0.5085 -0.3434
  139OSM    H4F15123   1.717   1.064   3.528 -1.5873  0.1405 -1.0391
  139OSM    H4G15124   1.751   1.010   3.362 -1.1582  0.9654 -0.1976
  139OSM    C5F15125   1.802   0.866   3.508 -0.1259  0.3664 -0.3852
  139OSM    H5F15126   1.893   0.920   3.543 -0.4962  1.0345 -0.4343
  139OSM    H5G15127   1.829   0.805   3.419 -1.6943 -0.1621 -0.5302
  139OSM    C6F15128   1.760   0.789   3.625 -0.1815  0.0395 -0.6473
  139OSM    H6F15129   1.850   0.736   3.665 -0.1274  1.2495  0.9458
  139OSM    H6G15130   1.682   0.722   3.584  0.1555 -1.4426  1.0070
  139OSM    C7F15131   1.689   0.856   3.747 -0.0665 -0.1761  0.3627
  139OSM    H7F15132   1.656   0.771   3.810  0.4157 -1.5505 -1.1824
  139OSM    H7G15133   1.591   0.895   3.711 -0.6416 -2.1343 -0.3399
  139OSM    C8F15134   1.773   0.951   3.838 -0.4238 -0.2026  0.2486
  139OSM    H8F15135   1.829   1.025   3.777 -0.7069 -0.0547  0.1681
  139OSM    H8G15136   1.855   0.888   3.880 -0.4223 -0.3475  0.0328
  139OSM    C9F15137   1.694   1.020   3.941 -0.2148  0.3055 -0.2616
  139OSM    H9F15138   1.620   1.084   3.891 -0.1199  0.0934 -0.6765
  139OSM   C10F15139   1.703   1.011   4.073  0.3037  0.1218  0.0029
  139OSM   H10F15140   1.644   1.077   4.139 -0.9241 -0.3236 -0.6290
  139OSM   C11F15141   1.796   0.922   4.148  0.3242  0.4564  0.4858
  139OSM   H11F15142   1.884   0.894   4.086 -0.6581 -0.7564 -0.4023
  139OSM   H11G15143   1.743   0.828   4.173  0.4870  0.7581  2.0737
  139OSM   C12F15144   1.839   0.995   4.273 -0.3146  0.0434 -0.5415
  139OSM   H12F15145   1.746   0.982   4.333  0.9294 -1.2762  1.2145
  139OSM   H12G15146   1.868   1.098   4.244  1.7151 -0.4285 -0.3462
  139OSM   C13F15147   1.958   0.934   4.341 -0.1519  0.1968 -0.6007
  139OSM   H13F15148   2.038   0.908   4.268  2.0795  0.4501  1.6347
  139OSM   H13G15149   1.924   0.834   4.377  0.0955  0.4653  0.3879
  139OSM   C14F15150   2.010   1.016   4.462  0.3309  0.1630  0.4992
  139OSM   H14F15151   1.928   1.031   4.536 -0.5880  1.8145 -0.7579
  139OSM   H14G15152   2.029   1.117   4.420 -2.2343  0.2437 -0.6556
  139OSM   C15F15153   2.133   0.961   4.532  0.6538  0.2673  0.1404
  139OSM   H15F15154   2.206   0.942   4.450 -0.8449 -1.0631 -0.9617
  139OSM   H15G15155   2.107   0.863   4.577  0.5191  0.0150 -0.4684
  139OSM   C16F15156   2.199   1.062   4.627  0.4326 -0.5141  0.1349
  139OSM   H16F15157   2.128   1.110   4.698  0.9352 -0.8333  0.8704
  139OSM   H16G15158   2.244   1.142   4.565 -0.3934  1.3908  1.8805
  139OSM   C17F15159   2.317   0.999   4.708 -0.1670  0.0779 -0.2800
  139OSM   H17F15160   2.284   0.903   4.751 -0.4014 -0.1409 -0.9333
  139OSM   H17G15161   2.339   1.068   4.792 -0.8683  0.6056 -0.5190
  139OSM   C18F15162   2.443   0.968   4.623 -0.0275 -0.1741  0.1955
  139OSM   H18F15163   2.465   1.053   4.555  2.4599 -0.9898 -0.1025
  139OSM   H18G15164   2.434   0.879   4.557  1.8947  1.3761 -2.3595
  139OSM   H18H15165   2.531   0.950   4.688 -0.4838 -0.2294  0.8038
  140OSM      N15166   0.232   5.143   2.131  0.4100  0.5766 -0.3587
  140OSM    C1515167   0.222   5.147   2.281 -0.2949 -0.1709 -0.7010
  140OSM   H15A15168   0.206   5.048   2.322 -3.9103  0.6690  0.2510
  140OSM   H15B15169   0.130   5.199   2.304  0.8076  1.1667  0.9304
  140OSM   H15C15170   0.300   5.198   2.336 -0.9464  1.4710 -1.2534
  140OSM    C1415171   0.255   5.283   2.083  0.2228 -0.2028  0.3925
  140OSM   H14A15172   0.177   5.353   2.108  0.6777 -0.5664  3.1350
  140OSM   H14B15173   0.259   5.272   1.975 -1.4658 -2.5177  0.4943
  140OSM   H14C15174   0.350   5.318   2.120 -0.8754 -0.1371  3.3591
  140OSM    C1315175   0.358   5.070   2.094 -1.0206  0.3004  0.6120
  140OSM   H13A15176   0.439   5.130   2.133 -0.0113 -1.3613  1.1767
  140OSM   H13B15177   0.363   5.066   1.986 -0.8493 -1.8131  0.6491
  140OSM   H13C15178   0.367   4.968   2.128  1.0542 -0.4727 -1.8737
  140OSM    C1215179   0.126   5.082   2.060  0.4372  0.0171  0.9085
  140OSM   H12A15180   0.143   5.093   1.954 -1.2376  0.1715  0.6345
  140OSM   H12B15181   0.038   5.145   2.070 -0.4392 -1.4449  3.4651
  140OSM    C1115182   0.092   4.936   2.100 -0.2128 -0.7342 -0.2787
  140OSM   H11A15183   0.185   4.876   2.091  0.3272 -0.5357  2.9202
  140OSM   H11B15184   0.024   4.903   2.018 -1.5839  1.0580  0.0586
  140OSM      P15185  -0.118   4.931   2.243  0.6930  0.0747 -0.4897
  140OSM    O1315186  -0.159   5.059   2.176  0.0230  0.1551 -0.0334
  140OSM    O1415187  -0.168   4.807   2.184 -0.0756  0.2191  0.1754
  140OSM    O1115188  -0.151   4.938   2.394  0.7139 -0.6166 -0.4644
  140OSM    O1215189   0.040   4.911   2.230  0.2018 -0.4459 -0.6606
  140OSM    C1S15190  -0.056   4.981   2.490 -1.0729 -0.1457  0.3287
  140OSM    H1S15191  -0.014   5.080   2.463 -0.0877  0.0656  2.4018
  140OSM    H1T15192   0.031   4.913   2.499  0.6740  2.0859  1.1756
  140OSM     NF15193  -0.020   5.057   2.718  0.4101 -0.2419  0.1450
  140OSM    HNF15194   0.043   5.002   2.773  2.7897  1.5724 -0.5443
  140OSM    C2S15195  -0.111   4.989   2.630  0.1010  0.3426 -0.4414
  140OSM    H2S15196  -0.206   5.048   2.630 -0.3390 -0.3435  0.4136
  140OSM    C3S15197  -0.158   4.841   2.676 -0.2981 -0.7953 -0.0408
  140OSM    H3S15198  -0.061   4.793   2.700  1.0366  2.5081  1.8374
  140OSM     O315199  -0.211   4.763   2.569  0.0097 -0.1829 -0.2659
  140OSM    HO315200  -0.203   4.816   2.490 -0.3510 -1.9032 -1.5338
  140OSM    C4S15201  -0.243   4.848   2.796 -0.6933 -0.3454 -0.1800
  140OSM    H4S15202  -0.317   4.928   2.790 -0.5862  0.0538  2.5614
  140OSM    C5S15203  -0.227   4.780   2.906 -0.4111  0.3700 -0.4656
  140OSM    H5S15204  -0.149   4.702   2.903 -2.5529 -1.9225 -3.1649
  140OSM    C6S15205  -0.303   4.814   3.036 -0.7757  0.3090  0.7869
  140OSM    H6S15206  -0.229   4.799   3.118 -1.2100  0.9898  1.3117
  140OSM    H6T15207  -0.381   4.738   3.060  0.6385 -1.2273  0.7236
  140OSM    C7S15208  -0.371   4.951   3.050 -0.0787  0.0394  0.1091
  140OSM    H7S15209  -0.450   4.979   2.977  0.5368  1.6561  0.0309
  140OSM    H7T15210  -0.293   5.030   3.048  0.7167 -0.7427 -0.4698
  140OSM    C8S15211  -0.437   4.965   3.187 -0.2860 -0.9431 -0.0228
  140OSM    H8S15212  -0.500   4.873   3.189  0.4226 -1.4205  0.8339
  140OSM    H8T15213  -0.511   5.048   3.192 -0.4345 -1.0707 -0.0807
  140OSM    C9S15214  -0.342   4.968   3.305 -0.2954  0.1025  0.2543
  140OSM    H9S15215  -0.302   5.072   3.309 -0.6925  0.3304 -1.2012
  140OSM    H9T15216  -0.255   4.901   3.295 -0.8299 -0.6956  0.7832
  140OSM   C10S15217  -0.421   4.951   3.431  0.3092 -0.2128  0.2572
  140OSM   H10S15218  -0.445   4.843   3.437  0.3644 -0.2703 -0.4487
  140OSM   H10T15219  -0.510   5.018   3.438 -0.8713 -1.8256  1.5190
  140OSM   C11S15220  -0.339   4.975   3.561 -1.3502  0.0433  0.8164
  140OSM   H11S15221  -0.277   5.062   3.532 -1.4973 -0.8114 -2.4602
  140OSM   H11T15222  -0.268   4.890   3.573  0.0752  1.1561  0.4731
  140OSM   C12S15223  -0.424   5.000   3.688  1.0149  0.2503  0.3342
  140OSM   H12S15224  -0.350   5.000   3.772  0.7006  1.0738  0.6163
  140OSM   H12T15225  -0.494   4.917   3.712  1.3683  0.4089  2.0835
  140OSM   C13S15226  -0.497   5.138   3.698  0.3747  0.5161  0.1391
  140OSM   H13S15227  -0.561   5.150   3.608 -0.3558 -0.3043  0.5425
  140OSM   H13T15228  -0.417   5.215   3.710  0.2103  0.7040  0.0298
  140OSM   C14S15229  -0.591   5.141   3.814 -0.4220  0.2207  0.1551
  140OSM   H14S15230  -0.667   5.060   3.807 -2.1799  1.8558 -0.5989
  140OSM   H14T15231  -0.656   5.231   3.810 -1.0257 -0.2375 -1.1485
  140OSM   C15S15232  -0.521   5.139   3.952 -0.4121  0.2159  0.3372
  140OSM   H15S15233  -0.442   5.217   3.942 -1.4772  1.2088 -0.7478
  140OSM   H15T15234  -0.473   5.040   3.967  0.8136  0.7222 -0.1148
  140OSM   C16S15235  -0.626   5.160   4.053  0.0329 -0.0698 -0.7731
  140OSM   H16S15236  -0.706   5.085   4.041 -2.1552  2.2053 -1.1861
  140OSM   H16T15237  -0.669   5.263   4.044  0.9195  0.3019 -0.8875
  140OSM   C17S15238  -0.576   5.146   4.200 -0.1648 -0.4770  0.6980
  140OSM   H17S15239  -0.644   5.209   4.261 -0.3874  0.0306 -0.0714
  140OSM   H17T15240  -0.476   5.193   4.215  0.6545 -2.3116  1.3331
  140OSM   C18S15241  -0.584   5.014   4.272 -0.0519  0.0688 -0.4306
  140OSM   H18S15242  -0.566   5.020   4.382 -0.7065  0.6713 -0.3499
  140OSM   H18T15243  -0.502   4.947   4.237 -1.4117 -1.1692 -1.3279
  140OSM   H18U15244  -0.676   4.955   4.254 -2.2556  3.2969 -0.5350
  140OSM    C1F15245  -0.015   5.191   2.727  0.2452 -0.2066 -0.7289
  140OSM     OF15246  -0.071   5.269   2.655 -0.6531 -0.1673 -0.2977
  140OSM    C2F15247   0.063   5.247   2.843 -0.3461 -0.1529  0.1429
  140OSM    H2F15248   0.150   5.298   2.797 -0.7500  1.5776  1.2265
  140OSM    H2G15249   0.091   5.167   2.915 -1.8943  1.3093  2.5039
  140OSM    C3F15250  -0.017   5.362   2.919 -0.5272  0.5144  0.2105
  140OSM    H3F15251  -0.065   5.427   2.842 -1.0576 -1.4399 -1.2037
  140OSM    H3G15252   0.061   5.410   2.981 -0.2430 -0.9270  1.0334
  140OSM    C4F15253  -0.137   5.299   2.997 -0.3526 -0.0596 -0.1282
  140OSM    H4F15254  -0.199   5.232   2.934 -1.6650  1.8008 -0.9191
  140OSM    H4G15255  -0.207   5.381   3.024  0.8463  0.4163  1.7103
  140OSM    C5F15256  -0.102   5.229   3.134  0.4103  0.0325  0.0577
  140OSM    H5F15257  -0.058   5.133   3.099 -0.8905 -0.3975 -0.4241
  140OSM    H5G15258  -0.198   5.206   3.185 -0.9125 -1.1395 -2.7659
  140OSM    C6F15259  -0.006   5.302   3.226 -0.6596 -0.2784  0.1290
  140OSM    H6F15260  -0.056   5.398   3.251 -1.9798 -0.7681 -0.5330
  140OSM    H6G15261   0.087   5.325   3.170 -0.2451 -1.4852  0.2835
  140OSM    C7F15262   0.018   5.214   3.343  0.0267  1.1205  0.1489
  140OSM    H7F15263   0.096   5.148   3.299 -2.1589 -1.1708 -0.5085
  140OSM    H7G15264  -0.069   5.148   3.359  0.6564  0.2453  0.0067
  140OSM    C8F15265   0.065   5.285   3.472  0.4978  0.1254  0.8670
  140OSM    H8F15266  -0.020   5.342   3.515 -1.0991 -1.8124  0.4170
  140OSM    H8G15267   0.143   5.346   3.421  2.2727 -2.9769 -0.4113
  140OSM    C9F15268   0.129   5.180   3.560 -0.0403  0.2536  0.8668
  140OSM    H9F15269   0.191   5.101   3.516  0.8967 -0.2136  2.9017
  140OSM   C10F15270   0.113   5.160   3.689 -0.7424 -0.0900  0.2605
  140OSM   H10F15271   0.157   5.068   3.731 -0.4279 -0.4765 -0.8628
  140OSM   C11F15272   0.042   5.249   3.797 -0.5903 -0.2084  0.2834
  140OSM   H11F15273   0.007   5.341   3.746  0.9080 -0.7978 -1.9562
  140OSM   H11G15274   0.122   5.281   3.867  1.0474  1.1049 -2.0307
  140OSM   C12F15275  -0.080   5.175   3.857  0.2915 -0.3209 -0.0899
  140OSM   H12F15276  -0.034   5.087   3.906  1.7514 -0.0564 -0.9427
  140OSM   H12G15277  -0.152   5.137   3.782 -0.0639  0.5780 -0.2185
  140OSM   C13F15278  -0.157   5.246   3.971 -0.1028 -0.0766  0.1572
  140OSM   H13F15279  -0.247   5.191   4.006 -1.8813  1.4081 -1.7966
  140OSM   H13G15280  -0.183   5.348   3.933  1.0748  0.7245  1.4003
  140OSM   C14F15281  -0.078   5.267   4.100 -1.0091  0.5708  0.2815
  140OSM   H14F15282   0.013   5.328   4.084 -1.0196  1.0697  1.9093
  140OSM   H14G15283  -0.046   5.162   4.118  0.8244  1.1404  0.5250
  140OSM   C15F15284  -0.176   5.313   4.212  0.4321 -0.1577 -0.0639
  140OSM   H15F15285  -0.282   5.284   4.196 -0.2882  1.7655  0.8562
  140OSM   H15G15286  -0.183   5.423   4.224  1.0540 -0.0763 -0.4049
  140OSM   C16F15287  -0.130   5.260   4.352  0.0731  0.5441 -0.1978
  140OSM   H16F15288  -0.022   5.283   4.357  0.5047 -1.4376  1.4495
  140OSM   H16G15289  -0.149   5.151   4.342 -1.4857  0.7303  0.4503
  140OSM   C17F15290  -0.208   5.303   4.485 -0.0006  0.8375 -0.3566
  140OSM   H17F15291  -0.205   5.412   4.508 -2.0876  0.3281  3.0003
  140OSM   H17G15292  -0.161   5.242   4.566  0.3384 -3.8557 -3.6606
  140OSM   C18F15293  -0.361   5.262   4.480 -0.0868  0.1309  0.0523
  140OSM   H18F15294  -0.402   5.314   4.391 -0.2790  1.1671  0.7214
  140OSM   H18G15295  -0.419   5.297   4.568 -0.2053  1.5676 -0.5792
  140OSM   H18H15296  -0.381   5.153   4.476 -1.0737  0.2345  1.5218
  141OSM      N15297   6.378   2.904   2.242 -0.4499  0.2038  0.1393
  141OSM    C1515298   6.410   2.908   2.388 -0.2350  0.0512  0.0263
  141OSM   H15A15299   6.336   2.963   2.444 -1.0204 -1.3580  0.4201
  141OSM   H15B15300   6.504   2.954   2.414 -0.6622  0.6074  0.6112
  141OSM   H15C15301   6.404   2.805   2.421 -0.3432 -0.1508 -0.6092
  141OSM    C1415302   6.253   2.836   2.222  0.2687  0.0298  1.2733
  141OSM   H14A15303   6.179   2.875   2.290 -0.5409  0.5097  0.1555
  141OSM   H14B15304   6.253   2.729   2.234 -4.5708 -0.2633  0.4345
  141OSM   H14C15305   6.213   2.853   2.123 -0.0303 -0.3206  1.3308
  141OSM    C1315306   6.370   3.042   2.182 -0.2610  0.1874 -0.1076
  141OSM   H13A15307   6.375   3.050   2.074  0.0189 -1.1382 -0.2094
  141OSM   H13B15308   6.446   3.107   2.223 -1.2090  0.3509  1.4350
  141OSM   H13C15309   6.273   3.084   2.202 -0.8229 -0.6807 -0.9388
  141OSM    C1215310   6.485   2.823   2.177 -0.8523 -0.3020 -0.1710
  141OSM   H12A15311   6.579   2.874   2.191  1.0936 -3.9010  1.2659
  141OSM   H12B15312   6.470   2.825   2.070  0.2225  2.7028 -0.3514
  141OSM    C1115313   6.505   2.684   2.243 -0.7943 -0.1557 -0.2420
  141OSM   H11A15314   6.552   2.626   2.160  0.1543  0.4275 -0.1128
  141OSM   H11B15315   6.403   2.643   2.260 -0.1698 -1.7333 -0.0870
  141OSM      P15316   6.620   2.549   2.424 -0.1582  0.6127 -0.2426
  141OSM    O1315317   6.552   2.437   2.352 -0.5754 -0.5179 -0.7403
  141OSM    O1415318   6.766   2.535   2.425  0.3796  0.1294  0.2522
  141OSM    O1115319   6.576   2.555   2.574  0.0714  0.1602  0.2456
  141OSM    O1215320   6.586   2.684   2.364  0.0599 -0.1039  0.6471
  141OSM    C1S15321   6.640   2.658   2.656 -0.2129  0.1265  0.4628
  141OSM    H1S15322   6.617   2.755   2.606 -1.5826  0.1579  1.1062
  141OSM    H1T15323   6.749   2.644   2.671 -0.1534  1.3982  1.3781
  141OSM     NF15324   6.606   2.784   2.857 -0.1014 -0.2604 -0.2122
  141OSM    HNF15325   6.670   2.781   2.934  1.5517 -2.6351 -1.5424
  141OSM    C2S15326   6.567   2.661   2.794  0.0838  0.3003 -0.5769
  141OSM    H2S15327   6.458   2.652   2.773 -0.2802 -0.4988  1.4112
  141OSM    C3S15328   6.600   2.525   2.869  0.5176  0.2308  0.3452
  141OSM    H3S15329   6.711   2.533   2.876  0.7421 -2.8627  2.3114
  141OSM     O315330   6.596   2.406   2.786  0.0445 -0.3246 -0.1582
  141OSM    HO315331   6.600   2.428   2.693 -1.4843  0.5516 -0.0583
  141OSM    C4S15332   6.541   2.504   3.007  0.5176  0.2198  0.3573
  141OSM    H4S15333   6.606   2.529   3.092  0.4752  0.6653  0.2617
  141OSM    C5S15334   6.418   2.458   3.029  0.2777  0.0058 -0.3670
  141OSM    H5S15335   6.362   2.439   2.936  0.5971 -1.9695 -0.2103
  141OSM    C6S15336   6.340   2.446   3.156 -0.4947  0.0522 -0.5818
  141OSM    H6S15337   6.323   2.342   3.192 -1.0860  0.4822  0.4234
  141OSM    H6T15338   6.240   2.492   3.146  0.1870  1.7201 -0.0032
  141OSM    C7S15339   6.400   2.531   3.268 -0.2467 -0.1148 -0.1854
  141OSM    H7S15340   6.435   2.632   3.239  1.2906  0.1930  2.5069
  141OSM    H7T15341   6.485   2.473   3.309 -1.0455 -0.8479  0.4637
  141OSM    C8S15342   6.296   2.545   3.376  0.5054 -0.2481 -0.3504
  141OSM    H8S15343   6.262   2.441   3.394 -3.1334  0.9600  0.6162
  141OSM    H8T15344   6.216   2.612   3.339 -0.0474  1.1970  3.0972
  141OSM    C9S15345   6.360   2.598   3.509  0.7683  0.2550 -0.0747
  141OSM    H9S15346   6.395   2.703   3.497  0.8823  0.3321  0.8287
  141OSM    H9T15347   6.444   2.532   3.539  0.1145 -0.4127  0.3096
  141OSM   C10S15348   6.260   2.604   3.627  0.2060 -0.1550  0.5512
  141OSM   H10S15349   6.197   2.513   3.638 -3.3434  2.0913  0.3640
  141OSM   H10T15350   6.179   2.677   3.607  1.4591  1.4556  1.0263
  141OSM   C11S15351   6.321   2.654   3.763 -0.0366  0.7887  0.6682
  141OSM   H11S15352   6.365   2.754   3.742 -0.5872  1.0725  0.8492
  141OSM   H11T15353   6.406   2.587   3.790  1.5481 -0.0722 -5.0727
  141OSM   C12S15354   6.220   2.670   3.876  0.1088  0.0625 -0.1051
  141OSM   H12S15355   6.178   2.569   3.895  0.6608 -0.2421 -0.4842
  141OSM   H12T15356   6.133   2.722   3.831  0.7617  1.4630  0.1854
  141OSM   C13S15357   6.272   2.712   4.014 -0.2932 -0.2820 -0.1617
  141OSM   H13S15358   6.268   2.821   4.036 -1.3337 -0.5410  1.0598
  141OSM   H13T15359   6.381   2.692   4.010 -0.4652 -1.8060  1.4009
  141OSM   C14S15360   6.220   2.629   4.134  0.0786  0.1583  0.3111
  141OSM   H14S15361   6.278   2.534   4.146  2.2118  1.2953 -0.4099
  141OSM   H14T15362   6.113   2.605   4.115 -0.3163 -1.5742  3.7865
  141OSM   C15S15363   6.202   2.713   4.262  0.1881 -0.3036 -0.3930
  141OSM   H15S15364   6.149   2.804   4.225  1.7226 -0.4337 -3.2111
  141OSM   H15T15365   6.301   2.743   4.303 -1.1830  2.2807  1.2505
  141OSM   C16S15366   6.117   2.642   4.359  0.2544 -0.4973  0.2736
  141OSM   H16S15367   6.020   2.611   4.315 -0.3826  1.5531  0.1031
  141OSM   H16T15368   6.089   2.715   4.438  1.1430 -0.9717  1.0461
  141OSM   C17S15369   6.187   2.523   4.425  0.1881 -0.3978  0.4720
  141OSM   H17S15370   6.264   2.572   4.488  0.3660  0.0137 -0.0507
  141OSM   H17T15371   6.238   2.447   4.362 -1.0206  0.2586 -1.4067
  141OSM   C18S15372   6.104   2.446   4.527 -0.6172 -0.0224 -0.6317
  141OSM   H18S15373   6.175   2.386   4.587 -1.6345 -0.2610  0.3535
  141OSM   H18T15374   6.024   2.388   4.475  0.2658  1.1255 -3.4864
  141OSM   H18U15375   6.046   2.511   4.597 -2.2351 -3.0774  1.0711
  141OSM    C1F15376   6.575   2.911   2.826  0.1095 -0.1063  0.2940
  141OSM     OF15377   6.498   2.940   2.737 -0.1264  1.0413 -0.0506
  141OSM    C2F15378   6.644   3.028   2.901 -0.3466  0.2217  0.0302
  141OSM    H2F15379   6.649   3.107   2.823  1.0378  1.0580  0.9371
  141OSM    H2G15380   6.746   3.001   2.933  0.3502  1.2989 -1.1900
  141OSM    C3F15381   6.569   3.072   3.030 -0.0446  0.5810  0.0519
  141OSM    H3F15382   6.561   2.995   3.110 -1.9778  2.4914  1.8021
  141OSM    H3G15383   6.465   3.105   3.010 -1.4549 -1.4269  3.2557
  141OSM    C4F15384   6.632   3.192   3.111 -0.4991 -0.1354 -0.3208
  141OSM    H4F15385   6.647   3.278   3.042  0.7634  0.9903  1.2857
  141OSM    H4G15386   6.727   3.149   3.150  1.9985  3.6531 -1.6606
  141OSM    C5F15387   6.536   3.251   3.216  0.3644 -0.2851  0.4427
  141OSM    H5F15388   6.502   3.181   3.295 -0.9348  1.6626  1.7170
  141OSM    H5G15389   6.445   3.287   3.162  0.0826 -2.7448 -0.8836
  141OSM    C6F15390   6.618   3.367   3.274  0.3638 -0.2688  0.4834
  141OSM    H6F15391   6.674   3.401   3.185 -0.7084 -3.3857 -1.5760
  141OSM    H6G15392   6.692   3.328   3.348  0.2430 -0.0234  0.7337
  141OSM    C7F15393   6.530   3.473   3.333  0.4158  0.5063 -0.1302
  141OSM    H7F15394   6.462   3.502   3.250 -1.0364  0.0303  0.8569
  141OSM    H7G15395   6.593   3.558   3.367  2.4240 -0.2054 -1.8125
  141OSM    C8F15396   6.452   3.428   3.456 -0.1311 -0.5889  0.4862
  141OSM    H8F15397   6.434   3.320   3.438  1.9716 -1.1738  1.6059
  141OSM    H8G15398   6.357   3.482   3.477 -0.2851 -0.9734  0.7931
  141OSM    C9F15399   6.546   3.425   3.575  0.1694  1.1084  0.1504
  141OSM    H9F15400   6.640   3.370   3.558 -0.1295  0.1716  1.4226
  141OSM   C10F15401   6.525   3.457   3.706  0.5722 -0.1503 -0.1723
  141OSM   H10F15402   6.602   3.460   3.785  1.4885  1.9882 -1.0484
  141OSM   C11F15403   6.399   3.515   3.756  0.0551  0.3702 -0.6069
  141OSM   H11F15404   6.341   3.432   3.800  0.4630  0.9543  1.1141
  141OSM   H11G15405   6.339   3.568   3.679  2.6267  1.0342 -2.2767
  141OSM   C12F15406   6.416   3.620   3.869 -0.2791 -0.2978 -0.6343
  141OSM   H12F15407   6.317   3.668   3.880  0.8915  1.9778  0.6235
  141OSM   H12G15408   6.484   3.697   3.826 -1.0578  0.2904 -0.8172
  141OSM   C13F15409   6.469   3.571   4.009  0.1020  0.7716  1.6142
  141OSM   H13F15410   6.576   3.543   3.996  0.2345  1.7323  0.4797
  141OSM   H13G15411   6.419   3.472   4.013  1.1847 -0.1345 -2.2275
  141OSM   C14F15412   6.442   3.673   4.115 -0.6400  0.4652 -0.3357
  141OSM   H14F15413   6.336   3.703   4.108 -0.6595  0.4235 -0.2304
  141OSM   H14G15414   6.498   3.767   4.097 -0.5095  0.2276 -1.2034
  141OSM   C15F15415   6.478   3.617   4.260  0.2504 -0.2008  0.3568
  141OSM   H15F15416   6.580   3.574   4.252  0.4354  0.4548 -1.2187
  141OSM   H15G15417   6.418   3.525   4.273 -0.5333  0.0713 -1.0656
  141OSM   C16F15418   6.462   3.727   4.376  0.3282  0.3681  0.1888
  141OSM   H16F15419   6.361   3.772   4.377 -0.0679 -0.4355 -0.9441
  141OSM   H16G15420   6.536   3.805   4.348 -0.0120  0.5897 -0.0983
  141OSM   C17F15421   6.483   3.670   4.515 -0.4817  0.1882  0.3156
  141OSM   H17F15422   6.583   3.623   4.510  0.0447  1.0704  1.8776
  141OSM   H17G15423   6.408   3.591   4.539 -1.1078  0.5837 -0.2754
  141OSM   C18F15424   6.489   3.777   4.617 -0.0728 -0.3620 -0.6708
  141OSM   H18F15425   6.555   3.863   4.592  0.6648 -1.2660 -1.9616
  141OSM   H18G15426   6.526   3.736   4.713  0.5442  0.7717 -0.4020
  141OSM   H18H15427   6.395   3.827   4.648 -0.2697 -0.4961 -1.0444
  142OSM      N15428   1.618   4.814   2.468  0.0253  0.1543 -0.4968
  142OSM    C1515429   1.611   4.904   2.349  0.7739  0.6346 -0.2227
  142OSM   H15A15430   1.615   5.006   2.383  0.9452  1.2085 -1.8915
  142OSM   H15B15431   1.518   4.879   2.300  0.0200 -2.7184  2.4906
  142OSM   H15C15432   1.695   4.892   2.282 -0.9333  0.5256 -2.4563
  142OSM    C1415433   1.491   4.818   2.544 -0.1535 -0.3142 -0.3188
  142OSM   H14A15434   1.478   4.735   2.612 -2.1632 -0.3712 -0.7062
  142OSM   H14B15435   1.408   4.792   2.479 -0.5770 -0.5918  0.3186
  142OSM   H14C15436   1.476   4.912   2.594  1.0581 -1.2635  1.9746
  142OSM    C1315437   1.644   4.675   2.419  0.1552  0.5861 -0.1014
  142OSM   H13A15438   1.565   4.644   2.353  1.2419 -2.1616 -0.2657
  142OSM   H13B15439   1.643   4.606   2.503 -1.4525 -1.2564 -1.5463
  142OSM   H13C15440   1.739   4.673   2.367  0.4376 -1.4348  0.3835
  142OSM    C1215441   1.735   4.856   2.560  0.3037  0.3312  0.2218
  142OSM   H12A15442   1.826   4.877   2.506  0.7998  0.5874  1.1403
  142OSM   H12B15443   1.747   4.771   2.626 -0.4408  0.5235  0.6186
  142OSM    C1115444   1.709   4.971   2.660 -0.5345  0.1078  0.5464
  142OSM   H11A15445   1.790   4.983   2.736  0.2604 -0.2717 -0.2250
  142OSM   H11B15446   1.625   4.932   2.721 -0.3890 -0.5999  0.3028
  142OSM      P15447   1.577   5.186   2.644 -0.2356 -0.0459  0.0145
  142OSM    O1315448   1.573   5.302   2.557  0.8697  0.2435  0.3995
  142OSM    O1415449   1.452   5.116   2.659  0.5192  0.5860  0.4441
  142OSM    O1115450   1.616   5.228   2.790  0.1356  0.1023 -1.1335
  142OSM    O1215451   1.690   5.093   2.589  0.8460  0.3951 -0.2452
  142OSM    C1S15452   1.739   5.281   2.833  0.1223  0.0076 -0.0296
  142OSM    H1S15453   1.741   5.390   2.813 -1.7730 -0.2897 -2.2035
  142OSM    H1T15454   1.830   5.231   2.794 -0.9871 -1.5129 -0.7667
  142OSM     NF15455   1.869   5.362   3.029  0.2629 -0.2951  0.3407
  142OSM    HNF15456   1.953   5.330   3.072 -0.3119 -1.3894  0.6832
  142OSM    C2S15457   1.760   5.276   2.985  0.2704 -0.5781 -0.0386
  142OSM    H2S15458   1.662   5.316   3.018 -0.0030 -0.1071 -1.3412
  142OSM    C3S15459   1.769   5.128   3.045  0.0735  0.8117 -0.7737
  142OSM    H3S15460   1.859   5.085   2.996  0.0285 -0.7617  0.4473
  142OSM     O315461   1.663   5.047   2.999 -0.5110  0.4363 -0.5828
  142OSM    HO315462   1.617   5.092   2.928  1.2901 -0.1724 -2.2229
  142OSM    C4S15463   1.779   5.133   3.197  0.3406  0.3158 -0.3355
  142OSM    H4S15464   1.868   5.188   3.232 -0.0626  0.9124 -0.2296
  142OSM    C5S15465   1.685   5.084   3.284 -0.7232 -0.3073  0.0727
  142OSM    H5S15466   1.603   5.024   3.241 -1.6277  2.4622 -2.3899
  142OSM    C6S15467   1.699   5.093   3.433  0.0998  0.6847  0.2322
  142OSM    H6S15468   1.708   4.987   3.467  0.1500  0.5412 -0.2205
  142OSM    H6T15469   1.597   5.127   3.460 -0.4010 -0.0118 -0.6995
  142OSM    C7S15470   1.806   5.164   3.510 -0.3736  0.4328  0.5201
  142OSM    H7S15471   1.801   5.272   3.482  3.6162  0.6108 -0.0190
  142OSM    H7T15472   1.901   5.138   3.459 -0.2887 -1.8313  1.7291
  142OSM    C8S15473   1.817   5.138   3.661  0.1014 -0.6329  0.1293
  142OSM    H8S15474   1.873   5.042   3.666  2.1114  0.5257  1.2900
  142OSM    H8T15475   1.714   5.123   3.701  0.4991 -0.7392  1.1390
  142OSM    C9S15476   1.891   5.255   3.733 -0.1515  0.0381 -0.1966
  142OSM    H9S15477   1.835   5.348   3.708 -2.8480 -1.9473 -2.1780
  142OSM    H9T15478   1.996   5.258   3.697  0.0870 -0.7597  0.3938
  142OSM   C10S15479   1.905   5.224   3.888  0.8061  0.5254  0.2797
  142OSM   H10S15480   1.971   5.134   3.890  2.6081  1.7486 -0.7185
  142OSM   H10T15481   1.807   5.191   3.928  0.3356  2.6077  0.9946
  142OSM   C11S15482   1.968   5.342   3.959  0.0180  0.8816 -0.4731
  142OSM   H11S15483   1.905   5.433   3.946  0.9111  1.2421 -2.8618
  142OSM   H11T15484   2.062   5.384   3.917  0.7391  0.6602  0.8554
  142OSM   C12S15485   1.986   5.312   4.111  0.4862  0.2615 -0.3173
  142OSM   H12S15486   2.065   5.378   4.151  1.6415 -2.1420  1.6459
  142OSM   H12T15487   2.029   5.210   4.127  3.5288  1.6374  1.1096
  142OSM   C13S15488   1.847   5.337   4.190 -0.0714  0.2091  0.5200
  142OSM   H13S15489   1.767   5.266   4.160  0.4405 -0.6661  1.1772
  142OSM   H13T15490   1.809   5.439   4.166  0.4958  0.4494  0.6302
  142OSM   C14S15491   1.874   5.328   4.343 -0.2998  0.1584 -0.5959
  142OSM   H14S15492   1.956   5.402   4.354  0.3403 -0.7119  0.6724
  142OSM   H14T15493   1.906   5.228   4.380  0.8188  1.8467  3.4495
  142OSM   C15S15494   1.750   5.364   4.434  0.3190 -0.1322  0.0120
  142OSM   H15S15495   1.675   5.291   4.399  0.3600 -0.0745 -0.1964
  142OSM   H15T15496   1.727   5.473   4.426  0.5915 -0.2039 -2.4540
  142OSM   C16S15497   1.778   5.332   4.579 -0.2693 -0.0134  0.6564
  142OSM   H16S15498   1.858   5.399   4.615 -1.0947  0.1220  2.3083
  142OSM   H16T15499   1.823   5.232   4.596 -0.3014  0.1207  1.5572
  142OSM   C17S15500   1.655   5.366   4.660 -0.2261 -0.2631 -0.1234
  142OSM   H17S15501   1.572   5.305   4.619  1.1138 -2.8066  0.7426
  142OSM   H17T15502   1.631   5.471   4.633  2.3817  0.3373 -0.4030
  142OSM   C18S15503   1.657   5.345   4.808 -0.4905 -0.0023  0.5441
  142OSM   H18S15504   1.565   5.380   4.861  0.1778  0.7785  1.2167
  142OSM   H18T15505   1.738   5.406   4.853 -0.0660 -1.2434  1.5136
  142OSM   H18U15506   1.666   5.236   4.831 -0.0891 -0.7487 -2.7458
  142OSM    C1F15507   1.853   5.494   3.022  0.2492  0.2029  0.1208
  142OSM     OF15508   1.742   5.540   3.001 -0.2184 -0.6289 -0.3628
  142OSM    C2F15509   1.959   5.574   3.072 -0.8440  0.1902 -0.0139
  142OSM    H2F15510   2.025   5.606   2.988 -1.4104  1.4209 -0.0130
  142OSM    H2G15511   2.017   5.510   3.142  1.1974  1.9313 -0.0242
  142OSM    C3F15512   1.917   5.702   3.150  0.1499 -0.5046 -0.4098
  142OSM    H3F15513   1.828   5.674   3.210 -1.2730  1.6785 -1.3282
  142OSM    H3G15514   1.874   5.771   3.073  1.3805 -0.6259 -1.2250
  142OSM    C4F15515   2.027   5.769   3.232  0.2837 -0.1477 -0.6017
  142OSM    H4F15516   1.993   5.875   3.231  0.4678 -0.0475  0.8848
  142OSM    H4G15517   2.125   5.752   3.184  0.7598 -1.4492  0.7587
  142OSM    C5F15518   2.044   5.709   3.377 -0.3896 -1.2491 -0.3074
  142OSM    H5F15519   2.068   5.601   3.375  0.8033 -0.9824 -1.1631
  142OSM    H5G15520   1.943   5.718   3.425  0.5167 -1.6798  1.8166
  142OSM    C6F15521   2.151   5.786   3.462  0.0107 -0.3399 -0.5059
  142OSM    H6F15522   2.112   5.879   3.508 -0.3050 -1.3523  1.3410
  142OSM    H6G15523   2.244   5.806   3.405 -1.3626  2.7556 -1.9011
  142OSM    C7F15524   2.188   5.702   3.581 -0.8726  0.5653  0.0087
  142OSM    H7F15525   2.248   5.759   3.655 -0.5556  0.3970 -0.1152
  142OSM    H7G15526   2.249   5.619   3.539 -0.0579  1.6587 -1.0310
  142OSM    C8F15527   2.073   5.641   3.660 -0.0387 -0.4296  0.1826
  142OSM    H8F15528   2.106   5.566   3.734 -2.0289 -1.1547  0.3938
  142OSM    H8G15529   2.002   5.587   3.595 -1.7670 -0.5523  2.0837
  142OSM    C9F15530   1.989   5.744   3.729 -0.4033 -0.4812  0.1589
  142OSM    H9F15531   1.934   5.811   3.661  1.2703  0.2672 -0.5308
  142OSM   C10F15532   1.980   5.764   3.864  0.2034  0.1290 -0.5830
  142OSM   H10F15533   1.919   5.847   3.903  0.6930  1.2468 -2.1024
  142OSM   C11F15534   2.049   5.679   3.967  0.0000  0.1931  0.2685
  142OSM   H11F15535   2.127   5.611   3.928 -1.0573 -1.4856  0.9663
  142OSM   H11G15536   1.976   5.619   4.024 -0.1992 -1.1078 -1.2890
  142OSM   C12F15537   2.127   5.771   4.066 -0.0544  0.5690  0.4183
  142OSM   H12F15538   2.063   5.861   4.075 -0.4884  0.1989  1.1412
  142OSM   H12G15539   2.215   5.804   4.006 -0.3158 -0.7231 -0.7188
  142OSM   C13F15540   2.157   5.707   4.203 -0.1409  0.4022 -0.3244
  142OSM   H13F15541   2.264   5.719   4.231  0.4043 -0.5198 -1.8918
  142OSM   H13G15542   2.135   5.599   4.189 -0.3004  0.3699  0.1557
  142OSM   C14F15543   2.069   5.768   4.310  0.4083  0.7519  0.5809
  142OSM   H14F15544   1.966   5.748   4.272  0.7953 -0.4221  0.1245
  142OSM   H14G15545   2.086   5.878   4.320  1.9370  0.5647  0.2341
  142OSM   C15F15546   2.071   5.705   4.454 -0.1571  0.4388 -0.1709
  142OSM   H15F15547   2.171   5.715   4.503  0.3899  1.3416 -1.4085
  142OSM   H15G15548   2.058   5.595   4.449 -2.9011  0.7585 -2.3117
  142OSM   C16F15549   1.955   5.763   4.540  0.0226  0.0866  0.3744
  142OSM   H16F15550   1.895   5.680   4.582  0.0555 -0.4649 -0.6347
  142OSM   H16G15551   1.890   5.830   4.479  0.0458  0.4133  0.7095
  142OSM   C17F15552   2.015   5.846   4.651  0.3133 -0.4325  0.1819
  142OSM   H17F15553   2.059   5.938   4.608 -3.1068  1.6527  0.8156
  142OSM   H17G15554   2.094   5.775   4.685  0.7816 -0.8014 -1.5786
  142OSM   C18F15555   1.924   5.878   4.771  0.4481 -0.3768  0.3577
  142OSM   H18F15556   1.831   5.926   4.733  1.2356 -0.8909 -2.4921
  142OSM   H18G15557   1.988   5.941   4.837  0.2214  1.1627 -0.8496
  142OSM   H18H15558   1.908   5.780   4.822  1.4872 -0.8724 -0.2287
  143OSM      N15559   2.029   3.125   2.348 -0.6867  0.3473 -0.3920
  143OSM    C1515560   2.177   3.130   2.374  0.3455 -0.0684 -0.1115
  143OSM   H15A15561   2.235   3.100   2.289 -1.4156  0.4975 -1.5749
  143OSM   H15B15562   2.201   3.056   2.449 -1.4060  0.3332  0.9180
  143OSM   H15C15563   2.192   3.227   2.419 -2.6962  0.2907  0.3618
  143OSM    C1415564   2.003   3.225   2.241 -0.2301 -0.2323  0.3252
  143OSM   H14A15565   2.050   3.200   2.147 -0.3815  2.4993 -0.5727
  143OSM   H14B15566   2.046   3.322   2.259  0.6453 -0.5321 -0.0853
  143OSM   H14C15567   1.900   3.243   2.214 -0.1960  1.8669  1.3707
  143OSM    C1315568   2.018   2.987   2.291  0.9667  0.7001 -0.0702
  143OSM   H13A15569   1.922   2.992   2.242  1.7095  1.1486 -1.5235
  143OSM   H13B15570   2.015   2.910   2.367 -1.4283 -0.6700 -1.4139
  143OSM   H13C15571   2.095   2.958   2.222  0.4068 -4.0414  0.9642
  143OSM    C1215572   1.948   3.143   2.477  0.0905  0.6408  0.6722
  143OSM   H12A15573   1.965   3.060   2.545  0.2327  0.0285 -0.0951
  143OSM   H12B15574   1.842   3.132   2.454  0.3023  0.7518 -0.4071
  143OSM    C1115575   1.975   3.268   2.556  0.3155 -0.4986 -0.1184
  143OSM   H11A15576   2.085   3.267   2.571  0.0934  0.3689  1.8881
  143OSM   H11B15577   1.929   3.263   2.657 -0.8209  0.4107 -0.5664
  143OSM      P15578   1.786   3.434   2.499 -0.0302 -0.0382 -0.1405
  143OSM    O1315579   1.767   3.551   2.410 -0.6263 -0.3582  0.1231
  143OSM    O1415580   1.694   3.319   2.479 -0.2757  0.2613 -0.1468
  143OSM    O1115581   1.755   3.478   2.650 -0.1479 -0.1603 -0.4170
  143OSM    O1215582   1.933   3.382   2.471  0.5811  0.4662  0.0769
  143OSM    C1S15583   1.626   3.467   2.716 -0.0107  0.4639  0.6019
  143OSM    H1S15584   1.571   3.379   2.675 -1.9476  1.9084 -0.0734
  143OSM    H1T15585   1.567   3.554   2.679 -1.6563 -0.0436  1.9012
  143OSM     NF15586   1.492   3.477   2.916 -0.2218 -0.3043  0.3561
  143OSM    HNF15587   1.458   3.568   2.939 -2.4074 -1.0680  0.3563
  143OSM    C2S15588   1.626   3.454   2.869 -0.0857 -0.0488 -0.1675
  143OSM    H2S15589   1.645   3.348   2.895 -1.5242 -0.1322  0.6836
  143OSM    C3S15590   1.735   3.539   2.932 -0.0609  0.1718  0.0340
  143OSM    H3S15591   1.722   3.646   2.902 -0.1504 -0.1376 -1.0718
  143OSM     O315592   1.863   3.490   2.891 -0.1426 -0.0339  0.5757
  143OSM    HO315593   1.848   3.455   2.803  2.0305  2.7017 -1.0815
  143OSM    C4S15594   1.720   3.528   3.085 -0.3346 -0.1075 -0.3192
  143OSM    H4S15595   1.738   3.431   3.133  0.3142  1.3258  2.5037
  143OSM    C5S15596   1.666   3.630   3.161 -0.9243 -0.2830  0.4942
  143OSM    H5S15597   1.644   3.726   3.112  1.6289 -0.7848 -1.8898
  143OSM    C6S15598   1.630   3.619   3.303 -0.3605  0.1945  0.8157
  143OSM    H6S15599   1.530   3.575   3.325 -0.3827 -0.0190  0.3050
  143OSM    H6T15600   1.648   3.721   3.342  0.2696  0.2096  0.4896
  143OSM    C7S15601   1.741   3.545   3.386  0.9115  0.5109  0.3063
  143OSM    H7S15602   1.845   3.551   3.348  1.2710  2.9192  1.4605
  143OSM    H7T15603   1.706   3.443   3.360  0.7247  0.7763 -0.5394
  143OSM    C8S15604   1.731   3.566   3.534 -0.0615 -0.7203 -0.2741
  143OSM    H8S15605   1.624   3.573   3.562 -0.0101  2.4104 -0.5437
  143OSM    H8T15606   1.778   3.663   3.560  1.2973 -2.0978  2.8389
  143OSM    C9S15607   1.815   3.463   3.618  1.0105 -0.3768  0.5664
  143OSM    H9S15608   1.917   3.449   3.577  1.6342 -0.4664  2.0808
  143OSM    H9T15609   1.756   3.369   3.614 -0.9498  0.6629  2.4690
  143OSM   C10S15610   1.819   3.518   3.764  0.2686 -0.0902 -0.7042
  143OSM   H10S15611   1.729   3.568   3.806  0.3081 -1.2590  0.8352
  143OSM   H10T15612   1.886   3.604   3.739  0.3078 -0.4087 -1.7363
  143OSM   C11S15613   1.877   3.417   3.851  0.5189 -0.4634 -0.1138
  143OSM   H11S15614   1.968   3.372   3.806  0.4206  0.2715 -1.0766
  143OSM   H11T15615   1.800   3.337   3.859  0.0407  0.0857  1.0728
  143OSM   C12S15616   1.908   3.469   4.000  0.4914  0.2046  0.4238
  143OSM   H12S15617   1.808   3.493   4.043  0.3167 -2.4054  1.7074
  143OSM   H12T15618   1.978   3.554   4.006 -0.8147  1.2694  1.1818
  143OSM   C13S15619   1.966   3.362   4.096  0.0718 -0.2950  0.5428
  143OSM   H13S15620   2.061   3.323   4.054 -0.2139 -1.1351  0.6484
  143OSM   H13T15621   1.902   3.272   4.108 -0.1457 -0.3479 -0.9416
  143OSM   C14S15622   2.002   3.414   4.234  0.2800 -0.1245 -0.4370
  143OSM   H14S15623   2.084   3.488   4.226  0.2257 -0.0116  0.0016
  143OSM   H14T15624   2.043   3.321   4.281  0.5390  0.1082 -0.1951
  143OSM   C15S15625   1.882   3.484   4.301 -0.5849  0.4765  0.1246
  143OSM   H15S15626   1.804   3.407   4.280 -0.4151  0.3304  0.0223
  143OSM   H15T15627   1.861   3.580   4.249  0.4993  0.8945  0.4170
  143OSM   C16S15628   1.915   3.509   4.447  0.3967 -0.3151 -0.2819
  143OSM   H16S15629   1.970   3.604   4.462 -0.9372  0.2233  1.5267
  143OSM   H16T15630   1.976   3.420   4.474  0.1090 -0.7646 -1.0809
  143OSM   C17S15631   1.789   3.514   4.535  0.8354  0.2074 -0.3711
  143OSM   H17S15632   1.829   3.499   4.638  1.2383 -0.9399 -0.6815
  143OSM   H17T15633   1.726   3.425   4.515 -0.5369  1.0851 -0.0936
  143OSM   C18S15634   1.720   3.646   4.514  0.4637  0.4221  0.2676
  143OSM   H18S15635   1.791   3.732   4.510 -0.2667  1.0413  0.4136
  143OSM   H18T15636   1.645   3.665   4.594 -0.6108 -1.6525 -0.1932
  143OSM   H18U15637   1.663   3.643   4.419 -1.5932 -2.8678  1.4543
  143OSM    C1F15638   1.405   3.376   2.911 -0.2013  0.4076 -0.0426
  143OSM     OF15639   1.436   3.262   2.884  0.1333  0.3065  0.1649
  143OSM    C2F15640   1.265   3.405   2.958  0.3323 -0.4770  0.1431
  143OSM    H2F15641   1.194   3.362   2.885  1.5990 -0.0436 -1.3930
  143OSM    H2G15642   1.249   3.514   2.975  0.2298 -0.6548  1.2753
  143OSM    C3F15643   1.237   3.337   3.095  0.5695 -0.3414 -0.2788
  143OSM    H3F15644   1.277   3.234   3.094  0.7837 -0.2549 -0.8885
  143OSM    H3G15645   1.129   3.316   3.110  0.5745 -0.3710 -0.2838
  143OSM    C4F15646   1.282   3.438   3.211 -0.5706  0.0666 -0.0302
  143OSM    H4F15647   1.225   3.534   3.206 -1.2464 -0.0811  2.9716
  143OSM    H4G15648   1.392   3.449   3.210 -0.5646  0.5582  1.9441
  143OSM    C5F15649   1.251   3.365   3.339 -0.5547  0.5085  0.1345
  143OSM    H5F15650   1.334   3.291   3.341  0.5696  1.6937 -0.7795
  143OSM    H5G15651   1.152   3.319   3.321 -1.9074  3.9596 -2.1694
  143OSM    C6F15652   1.277   3.458   3.464  0.0084  0.4910  0.0226
  143OSM    H6F15653   1.217   3.550   3.450  0.2787  0.6104 -0.3758
  143OSM    H6G15654   1.381   3.496   3.467  0.3473 -0.3570 -0.4696
  143OSM    C7F15655   1.253   3.385   3.603 -0.6730 -0.1087  0.2403
  143OSM    H7F15656   1.310   3.292   3.623 -0.9057 -0.3928 -0.3984
  143OSM    H7G15657   1.149   3.349   3.617 -0.4609  0.5455  5.4835
  143OSM    C8F15658   1.275   3.480   3.723  0.1472  0.6140  0.4341
  143OSM    H8F15659   1.204   3.457   3.805 -0.8720 -3.3745 -1.3264
  143OSM    H8G15660   1.244   3.582   3.695 -0.9453 -0.1602 -1.3158
  143OSM    C9F15661   1.422   3.464   3.757 -0.4681 -0.6344 -0.0453
  143OSM    H9F15662   1.486   3.514   3.682 -1.6629  1.8459  0.4815
  143OSM   C10F15663   1.477   3.421   3.870  0.7488  0.1042  0.1585
  143OSM   H10F15664   1.586   3.434   3.883  0.9117  0.1319 -1.1816
  143OSM   C11F15665   1.403   3.380   3.993 -0.0973  0.1835  0.5883
  143OSM   H11F15666   1.368   3.278   3.964 -1.9642  0.6258  1.1468
  143OSM   H11G15667   1.311   3.442   4.002  0.0229  0.5792 -0.6469
  143OSM   C12F15668   1.479   3.371   4.126  0.5369 -0.5508 -0.1958
  143OSM   H12F15669   1.496   3.470   4.174  2.0750 -1.5937  1.5794
  143OSM   H12G15670   1.574   3.313   4.114  1.0378 -0.1203  1.3526
  143OSM   C13F15671   1.408   3.284   4.234  0.3660  0.7887 -0.6665
  143OSM   H13F15672   1.385   3.186   4.186 -0.1441  1.1179 -1.1049
  143OSM   H13G15673   1.309   3.328   4.257  0.0258  0.5773 -1.6449
  143OSM   C14F15674   1.486   3.263   4.359 -0.0333 -0.3843 -0.0773
  143OSM   H14F15675   1.531   3.359   4.391  1.6897 -0.4978 -1.9897
  143OSM   H14G15676   1.572   3.194   4.346  0.4822 -0.2154  2.0491
  143OSM   C15F15677   1.406   3.192   4.470  0.4269 -0.0441  0.3430
  143OSM   H15F15678   1.312   3.252   4.474  0.5557  0.1058  1.3915
  143OSM   H15G15679   1.453   3.221   4.567 -0.0207  2.0936 -0.0156
  143OSM   C16F15680   1.383   3.040   4.467  0.9656 -0.1959  0.3636
  143OSM   H16F15681   1.478   2.982   4.461  1.3200  0.2894  1.0665
  143OSM   H16G15682   1.321   3.008   4.381  1.2126 -0.4460  0.2786
  143OSM   C17F15683   1.318   2.987   4.599  1.0050  0.6626  0.0063
  143OSM   H17F15684   1.257   2.895   4.586  1.0324  0.6768 -0.2171
  143OSM   H17G15685   1.242   3.058   4.636 -0.7319 -1.6749  1.1893
  143OSM   C18F15686   1.399   2.980   4.730  0.2370 -0.0084 -0.1899
  143OSM   H18F15687   1.452   2.882   4.737 -0.5889 -0.3623  3.1159
  143OSM   H18G15688   1.339   2.998   4.822  0.2371 -1.0345  0.0293
  143OSM   H18H15689   1.471   3.064   4.726 -1.6249  1.6057 -2.8263
  144OSM      N15690   1.903   3.875   2.569  0.5755  0.9375  0.6248
  144OSM    C1515691   1.912   3.801   2.696 -0.1735 -0.3582 -0.5194
  144OSM   H15A15692   1.819   3.804   2.751 -0.5936  1.3148 -1.2558
  144OSM   H15B15693   1.997   3.835   2.754 -0.7204 -0.0736  0.1290
  144OSM   H15C15694   1.936   3.697   2.684  0.4778 -0.1590 -1.0195
  144OSM    C1415695   1.994   3.810   2.470 -0.1776 -0.0000 -1.1132
  144OSM   H14A15696   1.990   3.839   2.366 -1.7135 -0.8172 -1.3098
  144OSM   H14B15697   1.989   3.702   2.469 -0.3665 -0.1297  2.2161
  144OSM   H14C15698   2.093   3.839   2.502 -1.0367  2.7013 -0.6669
  144OSM    C1315699   1.767   3.834   2.525  0.1614 -0.2168  0.2192
  144OSM   H13A15700   1.761   3.726   2.517 -2.8583 -0.2359  1.6191
  144OSM   H13B15701   1.743   3.885   2.433 -1.8032 -0.7072  0.4084
  144OSM   H13C15702   1.690   3.861   2.595 -1.5078 -1.1688 -1.1660
  144OSM    C1215703   1.925   4.026   2.575  0.7226 -0.4425 -0.4153
  144OSM   H12A15704   1.893   4.076   2.485  0.2998 -1.0759 -0.6215
  144OSM   H12B15705   2.033   4.029   2.580  0.7509 -1.3047 -0.3755
  144OSM    C1115706   1.868   4.100   2.698  0.2925  0.0455  0.4267
  144OSM   H11A15707   1.894   4.206   2.676 -0.0278 -0.1028 -0.7390
  144OSM   H11B15708   1.924   4.071   2.789  1.0192 -0.9417 -0.3169
  144OSM      P15709   1.622   4.153   2.607 -0.0927 -0.0171  0.4658
  144OSM    O1315710   1.711   4.207   2.500  0.1629  0.3111 -0.3020
  144OSM    O1415711   1.513   4.062   2.577 -0.0404  0.3512 -0.3800
  144OSM    O1115712   1.553   4.275   2.683 -0.2954  0.5689  0.0200
  144OSM    O1215713   1.725   4.091   2.715  0.3391  0.0467  0.3736
  144OSM    C1S15714   1.494   4.243   2.814 -0.0501 -0.4652  0.4518
  144OSM    H1S15715   1.456   4.138   2.821  0.5526 -0.7144  0.0021
  144OSM    H1T15716   1.407   4.310   2.829  1.1600  1.1605  0.4328
  144OSM     NF15717   1.526   4.215   3.058 -0.1276  0.1957 -0.3620
  144OSM    HNF15718   1.501   4.292   3.116 -0.8852  0.1866 -0.6664
  144OSM    C2S15719   1.593   4.257   2.935  0.1308 -0.1398  0.5038
  144OSM    H2S15720   1.672   4.183   2.910 -1.1322 -2.5207  3.0571
  144OSM    C3S15721   1.666   4.396   2.949 -0.1003  0.4300  0.2141
  144OSM    H3S15722   1.606   4.463   3.015 -0.4568  0.2864  0.0405
  144OSM     O315723   1.674   4.477   2.831 -0.4531  0.1236 -0.0994
  144OSM    HO315724   1.637   4.424   2.759 -0.0650 -1.5745  0.9097
  144OSM    C4S15725   1.797   4.388   3.031 -0.1168 -0.3038 -0.8241
  144OSM    H4S15726   1.783   4.401   3.139 -0.7237  1.2338 -1.0555
  144OSM    C5S15727   1.919   4.380   2.981  0.2631 -0.0485 -0.2188
  144OSM    H5S15728   1.922   4.376   2.871  0.5155  0.9648 -0.2662
  144OSM    C6S15729   2.046   4.382   3.061  0.1315 -1.1552 -0.3635
  144OSM    H6S15730   2.124   4.437   3.004 -1.7527  0.6887 -1.3088
  144OSM    H6T15731   2.084   4.278   3.067  1.1324 -0.9038 -1.7882
  144OSM    C7S15732   2.056   4.446   3.200  0.0932  0.3030 -0.4292
  144OSM    H7S15733   1.977   4.400   3.263  0.0194  0.2867 -0.5325
  144OSM    H7T15734   2.026   4.553   3.199 -3.2102 -0.4551 -3.6360
  144OSM    C8S15735   2.206   4.440   3.253 -1.0422 -0.1754 -0.5440
  144OSM    H8S15736   2.269   4.500   3.184  0.3778 -1.1430 -0.1288
  144OSM    H8T15737   2.248   4.338   3.244  3.2631  0.9494  3.2591
  144OSM    C9S15738   2.237   4.481   3.392  0.3696 -0.1776  0.1881
  144OSM    H9S15739   2.199   4.405   3.464 -0.5441  1.7602  1.8647
  144OSM    H9T15740   2.179   4.575   3.410  0.8402  0.6951 -2.4475
  144OSM   C10S15741   2.382   4.509   3.424 -0.8252 -0.3327  0.1308
  144OSM   H10S15742   2.420   4.571   3.508  1.5744  1.4294 -2.0739
  144OSM   H10T15743   2.429   4.578   3.350  4.1943 -2.2681  1.1043
  144OSM   C11S15744   2.494   4.391   3.415  0.1769  1.1216  0.0411
  144OSM   H11S15745   2.592   4.440   3.434  0.8662 -0.4272  0.6255
  144OSM   H11T15746   2.500   4.335   3.319  2.3304  0.2289  0.6256
  144OSM   C12S15747   2.463   4.288   3.514  0.2477 -0.2944  0.2540
  144OSM   H12S15748   2.525   4.196   3.516 -0.1078 -0.5286  0.6918
  144OSM   H12T15749   2.361   4.247   3.495 -0.1488  1.0958 -0.8103
  144OSM   C13S15750   2.442   4.342   3.653  0.0736 -0.0728  0.1535
  144OSM   H13S15751   2.352   4.405   3.673 -0.5371 -1.0535  0.5986
  144OSM   H13T15752   2.519   4.421   3.659 -1.6881  2.0023 -2.3689
  144OSM   C14S15753   2.452   4.232   3.758  0.5576 -0.6498 -0.3704
  144OSM   H14S15754   2.513   4.146   3.724  1.5221  0.4335 -1.4413
  144OSM   H14T15755   2.347   4.198   3.769 -0.7999  3.3973  1.0912
  144OSM   C15S15756   2.499   4.270   3.900  0.0763 -0.5698 -0.1239
  144OSM   H15S15757   2.607   4.296   3.902  0.0351 -0.2817  2.7430
  144OSM   H15T15758   2.484   4.170   3.946 -1.5576 -1.5827 -2.6569
  144OSM   C16S15759   2.413   4.373   3.977  0.1864  0.0987  0.7541
  144OSM   H16S15760   2.311   4.329   3.981 -0.2714  0.9758 -0.6710
  144OSM   H16T15761   2.416   4.462   3.911 -2.9011 -1.1938 -1.3589
  144OSM   C17S15762   2.446   4.389   4.128 -0.4687  0.2763  0.3163
  144OSM   H17S15763   2.405   4.488   4.158  0.5631  0.7647  0.1735
  144OSM   H17T15764   2.556   4.401   4.141 -0.1358 -2.6802  0.8263
  144OSM   C18S15765   2.395   4.276   4.214  0.1791  0.4318  0.0940
  144OSM   H18S15766   2.285   4.274   4.225  0.3392 -0.2258  2.0045
  144OSM   H18T15767   2.436   4.276   4.317  1.3887  0.9400 -0.3610
  144OSM   H18U15768   2.407   4.173   4.175 -1.5365  0.9231 -1.9174
  144OSM    C1F15769   1.487   4.087   3.085 -0.2991  0.3704  0.2851
  144OSM     OF15770   1.501   3.996   3.009 -0.3431  0.2165 -0.0937
  144OSM    C2F15771   1.411   4.062   3.207 -0.2851 -0.2211 -0.1436
  144OSM    H2F15772   1.313   4.113   3.194 -0.7683 -1.1974 -0.4239
  144OSM    H2G15773   1.464   4.105   3.295  0.4191 -0.3233 -0.5116
  144OSM    C3F15774   1.390   3.908   3.241 -0.5482  0.1584  0.0088
  144OSM    H3F15775   1.490   3.859   3.235 -1.0808 -0.7679 -1.8553
  144OSM    H3G15776   1.319   3.855   3.174  0.8966 -0.1533 -1.3223
  144OSM    C4F15777   1.339   3.877   3.387 -0.2253 -0.8470  0.6709
  144OSM    H4F15778   1.333   3.766   3.382 -1.3995 -0.8160  1.1162
  144OSM    H4G15779   1.242   3.927   3.410  0.9070  1.6436  0.4069
  144OSM    C5F15780   1.438   3.933   3.492 -0.6682 -0.0638  0.4399
  144OSM    H5F15781   1.435   4.043   3.478 -0.2070 -0.1348 -0.2949
  144OSM    H5G15782   1.542   3.909   3.458  0.8778  3.6608  2.0161
  144OSM    C6F15783   1.404   3.887   3.633  0.2651 -0.6204  0.3970
  144OSM    H6F15784   1.429   3.780   3.648 -1.2018 -1.2823 -1.4796
  144OSM    H6G15785   1.293   3.886   3.635  0.2260  1.1009  1.0711
  144OSM    C7F15786   1.474   3.978   3.733 -0.2460 -0.0756  0.3086
  144OSM    H7F15787   1.480   4.084   3.703 -2.1055 -0.0267  0.0169
  144OSM    H7G15788   1.582   3.954   3.743  0.4320  2.7436  0.3903
  144OSM    C8F15789   1.424   3.970   3.880  0.5922 -0.1000 -0.1785
  144OSM    H8F15790   1.324   4.018   3.887  0.8531  0.2005  2.0849
  144OSM    H8G15791   1.492   4.034   3.940  1.0387  0.4720 -1.2648
  144OSM    C9F15792   1.406   3.828   3.934 -0.2183  0.4595  0.8602
  144OSM    H9F15793   1.321   3.770   3.892  0.5615 -1.8988  2.3092
  144OSM   C10F15794   1.459   3.776   4.046  1.0137 -1.0788 -0.3431
  144OSM   H10F15795   1.425   3.673   4.064  1.3943 -1.6319 -2.4967
  144OSM   C11F15796   1.558   3.838   4.138  0.5332 -0.3368  0.1849
  144OSM   H11F15797   1.592   3.935   4.095  2.3238 -1.8725 -2.0687
  144OSM   H11G15798   1.650   3.781   4.164  0.4383  0.0285  1.4005
  144OSM   C12F15799   1.493   3.859   4.274 -0.4915  0.4126  0.5923
  144OSM   H12F15800   1.478   3.762   4.326 -2.4377  1.6445  2.5161
  144OSM   H12G15801   1.393   3.906   4.275 -0.2512  0.9303  1.3569
  144OSM   C13F15802   1.577   3.954   4.364 -0.2134  0.6310  0.0309
  144OSM   H13F15803   1.605   4.050   4.317  1.9021  0.5263  0.9577
  144OSM   H13G15804   1.669   3.893   4.379 -0.8666 -0.3360  0.2389
  144OSM   C14F15805   1.519   3.976   4.500  0.5112 -0.1501  0.0205
  144OSM   H14F15806   1.480   3.879   4.537  0.5436  0.3273  1.3696
  144OSM   H14G15807   1.435   4.048   4.486 -0.6398 -0.4246  4.2207
  144OSM   C15F15808   1.615   4.033   4.604 -0.7763 -0.0053  0.1127
  144OSM   H15F15809   1.639   4.134   4.564 -0.9856 -0.6618 -1.7333
  144OSM   H15G15810   1.709   3.974   4.613 -1.2220 -1.1457 -1.9955
  144OSM   C16F15811   1.558   4.038   4.743  0.6960 -0.0565 -0.3788
  144OSM   H16F15812   1.547   3.934   4.779  1.4532 -0.2033 -0.5583
  144OSM   H16G15813   1.457   4.084   4.731 -0.8325 -2.9521  0.4361
  144OSM   C17F15814   1.644   4.106   4.848  0.3296  0.0239 -0.2127
  144OSM   H17F15815   1.688   4.200   4.809  1.1092 -0.6937 -1.0922
  144OSM   H17G15816   1.731   4.041   4.871  0.3350 -0.2186 -0.8987
  144OSM   C18F15817   1.567   4.140   4.982  0.0267 -0.2638 -0.1619
  144OSM   H18F15818   1.539   4.045   5.032  1.6185  0.3024  1.9574
  144OSM   H18G15819   1.471   4.195   4.968 -0.4219 -1.2853 -1.2570
  144OSM   H18H15820   1.641   4.184   5.052  0.6420 -0.3612 -0.7402
  145SAPE     N15821   2.397   1.293   6.881  0.0440 -0.1501 -0.4692
  145SAPE   HN115822   2.299   1.326   6.867  1.0098  2.2407 -2.3170
  145SAPE   HN215823   2.453   1.314   6.796 -0.4774  1.2735 -0.4880
  145SAPE   HN315824   2.402   1.191   6.898  0.1337 -0.6124 -2.9551
  145SAPE   C1215825   2.468   1.349   7.002 -0.1181 -0.3854  0.0657
  145SAPE  H12A15826   2.402   1.327   7.089 -0.1280 -0.0846  0.1352
  145SAPE  H12B15827   2.475   1.459   7.003 -1.2295 -0.2809 -1.1969
  145SAPE   C1115828   2.608   1.289   7.022  0.1954  0.9009 -0.3776
  145SAPE  H11A15829   2.650   1.319   7.121  2.1733 -1.1911 -0.5052
  145SAPE  H11B15830   2.678   1.320   6.942  1.7312  1.2382  1.0449
  145SAPE     P15831   2.705   1.056   7.094 -0.3509  0.0606 -0.0659
  145SAPE   O1315832   2.828   1.131   7.117 -0.0469 -0.0318  0.2378
  145SAPE   O1415833   2.628   1.010   7.211  0.6580  0.6598  0.0776
  145SAPE   O1215834   2.598   1.148   7.021 -0.2890 -0.4565  0.0171
  145SAPE   O1115835   2.730   0.933   7.003 -0.0591  0.1798 -0.3105
  145SAPE    C115836   2.771   0.946   6.867 -0.5905 -0.8844  0.5329
  145SAPE    HA15837   2.847   1.027   6.855 -0.2830 -1.0552  1.3132
  145SAPE    HB15838   2.812   0.851   6.825  0.7463  0.7133 -2.1088
  145SAPE    C215839   2.659   0.978   6.767 -0.1817  0.2886 -0.7665
  145SAPE    HS15840   2.601   1.065   6.806 -2.8034 -1.8317  0.3351
  145SAPE   O2115841   2.576   0.861   6.758  0.3685 -0.7470  0.3673
  145SAPE   C2115842   2.450   0.890   6.742  0.1067  0.0168  0.3553
  145SAPE   O2215843   2.404   1.006   6.732 -0.9703  0.2028 -0.3970
  145SAPE   C2215844   2.365   0.762   6.738  0.2631  0.0616 -0.7449
  145SAPE   H2R15845   2.426   0.679   6.780 -0.4045  0.3741  0.9471
  145SAPE   H2S15846   2.278   0.782   6.804  1.1696  1.8491 -0.0345
  145SAPE    C315847   2.720   1.013   6.626  0.5029 -0.5670 -0.5971
  145SAPE    HX15848   2.794   0.935   6.598  1.6073 -0.2783  1.3339
  145SAPE    HY15849   2.773   1.111   6.634 -0.1937 -0.0115 -2.3996
  145SAPE   O3115850   2.626   1.033   6.525 -0.1071 -0.0988  0.7733
  145SAPE   C3115851   2.655   0.991   6.398  0.3754 -0.0664  0.8061
  145SAPE   O3215852   2.762   0.948   6.362 -0.0620 -1.0379 -0.0748
  145SAPE   C3215853   2.532   1.004   6.309  0.3009  0.1417  0.8719
  145SAPE   H2X15854   2.452   1.032   6.380 -0.4140 -0.8697  0.4892
  145SAPE   H2Y15855   2.507   0.901   6.275 -0.2435  0.5212  0.1105
  145SAPE   C2315856   2.299   0.727   6.603 -0.0956  0.4107 -0.4384
  145SAPE   H3R15857   2.298   0.617   6.615  1.8048  0.3455 -0.6306
  145SAPE   H3S15858   2.371   0.759   6.525  1.6635 -0.8985  0.5934
  145SAPE   C2415859   2.164   0.799   6.574 -0.4314  0.3010 -0.0423
  145SAPE   H4R15860   2.087   0.784   6.653 -0.3393  0.0123 -0.0064
  145SAPE   H4S15861   2.124   0.742   6.488  0.9039 -2.3174  0.9723
  145SAPE   C2515862   2.180   0.939   6.524  0.2764 -0.8578  0.6626
  145SAPE   H5R15863   2.193   1.017   6.601 -1.0108 -1.3444  1.3992
  145SAPE   C2615864   2.187   0.986   6.396  0.2879  0.8359  0.2665
  145SAPE   H6R15865   2.203   1.091   6.368  1.1426  0.4644 -0.7105
  145SAPE   C2715866   2.160   0.898   6.271 -0.8038  0.3053  0.4023
  145SAPE   H7R15867   2.091   0.815   6.297 -0.8338 -0.4560 -1.8770
  145SAPE   H7S15868   2.253   0.855   6.229 -0.7796  2.2366 -1.7362
  145SAPE   C2815869   2.090   0.972   6.163  0.0113  0.9721  0.9890
  145SAPE   H8R15870   2.006   1.034   6.199 -1.0558  0.8153 -1.0995
  145SAPE   C2915871   2.129   0.973   6.037  0.7937 -0.3539  0.0814
  145SAPE   H9R15872   2.074   1.032   5.962  1.0634 -1.5381 -1.0848
  145SAPE  C21015873   2.253   0.909   5.978 -0.6488  0.5371 -0.2152
  145SAPE  H10R15874   2.295   0.836   6.050 -1.8299  0.7664  0.7383
  145SAPE  H10S15875   2.336   0.978   5.953  0.9445 -2.1392 -3.0298
  145SAPE  C21115876   2.222   0.845   5.843  0.1438  0.1436 -0.1621
  145SAPE  H11R15877   2.206   0.736   5.847  1.7154 -0.2279 -2.4317
  145SAPE  C21215878   2.204   0.904   5.719  0.5003 -0.1137  0.1985
  145SAPE  H12R15879   2.199   0.838   5.631  0.8428  0.0296  0.0722
  145SAPE  C21315880   2.209   1.052   5.700 -0.6414 -0.2227  0.7695
  145SAPE  H13R15881   2.305   1.071   5.648 -1.3498 -2.8067 -1.7555
  145SAPE  H13S15882   2.215   1.112   5.793 -2.0312  1.1684  0.0136
  145SAPE  C21415883   2.102   1.098   5.603  0.5593 -0.3146  0.0016
  145SAPE  H14R15884   2.000   1.082   5.640  0.4445  1.9139  0.7984
  145SAPE  C21515885   2.105   1.151   5.481  0.4620  0.5443  0.2468
  145SAPE  H15R15886   2.014   1.180   5.427 -0.8713  0.2483  2.1968
  145SAPE  C21615887   2.226   1.178   5.406 -0.0407  0.0141 -0.1707
  145SAPE  H16R15888   2.315   1.123   5.443 -1.0538 -1.2928  0.3796
  145SAPE  H16S15889   2.262   1.282   5.422  2.2304 -0.8133  0.6336
  145SAPE  C21715890   2.227   1.135   5.267 -0.1619 -0.3481  0.0132
  145SAPE  H17R15891   2.211   1.025   5.255 -3.0409 -0.1324  0.9859
  145SAPE  H17S15892   2.330   1.157   5.233  0.2846 -0.8113  1.0432
  145SAPE  C21815893   2.140   1.220   5.176  0.3242  0.7083 -0.0569
  145SAPE  H18R15894   2.148   1.330   5.193 -0.5696  0.9314 -0.9883
  145SAPE  H18S15895   2.037   1.184   5.198  0.1464  1.2648  0.0367
  145SAPE  C21915896   2.169   1.198   5.028 -0.6463  0.9565  0.5852
  145SAPE  H19R15897   2.142   1.094   4.998  2.8463  0.2624 -0.5895
  145SAPE  H19S15898   2.278   1.210   5.012 -0.4176 -0.1351  1.1893
  145SAPE  C22015899   2.100   1.299   4.936  0.1454  0.3224  0.8382
  145SAPE  H20R15900   2.137   1.404   4.945  3.2167 -0.6114  0.2303
  145SAPE  H20S15901   1.990   1.288   4.942  0.2462 -0.1107  2.3900
  145SAPE  H20T15902   2.135   1.268   4.835 -0.3177 -0.8402  1.0256
  145SAPE   C3315903   2.535   1.106   6.188 -0.4522 -0.0221 -0.4680
  145SAPE   H3X15904   2.587   1.193   6.232 -1.4160 -0.7933  2.3883
  145SAPE   H3Y15905   2.428   1.124   6.163 -0.2863 -0.8168 -1.8703
  145SAPE   C3415906   2.601   1.041   6.066 -0.3890  0.2351  0.1552
  145SAPE   H4X15907   2.529   0.962   6.036 -0.1789  0.0237  0.2022
  145SAPE   H4Y15908   2.694   0.991   6.101  0.9396  1.6582 -1.1872
  145SAPE   C3515909   2.636   1.139   5.954 -0.2915 -0.4435  0.5629
  145SAPE   H5X15910   2.683   1.072   5.879  1.0537  1.9892 -0.8981
  145SAPE   H5Y15911   2.716   1.207   5.990  0.3986 -0.4493 -0.8896
  145SAPE   C3615912   2.527   1.227   5.878  0.3074 -0.6467 -0.4657
  145SAPE   H6X15913   2.498   1.300   5.956 -1.8836 -0.2259 -1.6075
  145SAPE   H6Y15914   2.439   1.164   5.855  0.0173 -0.7431  0.8261
  145SAPE   C3715915   2.574   1.299   5.754  0.4521  0.9095 -0.3683
  145SAPE   H7X15916   2.668   1.357   5.771 -0.9692  2.8950  1.0612
  145SAPE   H7Y15917   2.490   1.364   5.723 -1.7511 -1.2335  0.7697
  145SAPE   C3815918   2.595   1.192   5.642  0.4705 -0.0327  0.4156
  145SAPE   H8X15919   2.509   1.123   5.632  1.0231 -0.4114 -2.5023
  145SAPE   H8Y15920   2.678   1.125   5.674  1.4454  1.8669  2.0788
  145SAPE   C3915921   2.618   1.247   5.495  0.1999  0.2720  0.6543
  145SAPE   H9X15922   2.714   1.302   5.489  1.1106 -1.0060  2.4139
  145SAPE   H9Y15923   2.546   1.326   5.468  1.4300  1.9077  1.9155
  145SAPE  C31015924   2.610   1.127   5.401  1.0165  0.1927  0.9193
  145SAPE  H10X15925   2.514   1.074   5.417  0.8432  0.3556  0.4363
  145SAPE  H10Y15926   2.682   1.048   5.431 -0.9576 -0.6275  3.9941
  145SAPE  C31115927   2.611   1.174   5.252 -0.5417 -0.1497 -0.1872
  145SAPE  H11X15928   2.706   1.227   5.232  0.3327 -1.4485  0.3820
  145SAPE  H11Y15929   2.525   1.244   5.249  0.3682  1.0060 -0.1658
  145SAPE  C31215930   2.613   1.050   5.155 -0.5778 -0.7768 -0.2400
  145SAPE  H12X15931   2.531   0.979   5.181 -2.3160  0.7873 -1.2824
  145SAPE  H12Y15932   2.710   0.995   5.156  0.2692  0.6372 -1.2720
  145SAPE  C31315933   2.584   1.110   5.014  0.6486  0.2740 -0.6479
  145SAPE  H13X15934   2.489   1.168   5.021  0.8026  0.4593  0.0077
  145SAPE  H13Y15935   2.554   1.024   4.950  0.7746  0.0356 -0.3892
  145SAPE  C31415936   2.681   1.192   4.940 -0.1354 -0.0469 -0.6277
  145SAPE  H14X15937   2.777   1.138   4.955 -1.4627 -2.3037  0.2776
  145SAPE  H14Y15938   2.700   1.283   5.002  0.6499  0.2884 -1.3396
  145SAPE  C31515939   2.641   1.219   4.795  0.2036 -0.1145 -0.5297
  145SAPE  H15X15940   2.530   1.226   4.786  0.1381 -2.1381 -1.8905
  145SAPE  H15Y15941   2.678   1.124   4.751 -0.3089 -2.2177  3.1515
  145SAPE  C31615942   2.730   1.325   4.729  0.0703 -1.3008 -0.2405
  145SAPE  H16X15943   2.836   1.316   4.758  0.0811  1.4753  0.9583
  145SAPE  H16Y15944   2.697   1.417   4.783  0.9797 -1.9989  1.5595
  145SAPE  C31715945   2.707   1.342   4.578 -0.0738  0.0294 -0.3291
  145SAPE  H17X15946   2.601   1.342   4.547  0.0160 -1.7050 -0.7278
  145SAPE  H17Y15947   2.761   1.259   4.528  0.4012  0.0461  0.1491
  145SAPE  C31815948   2.766   1.473   4.529 -0.2179 -0.4797 -0.7808
  145SAPE  H18X15949   2.876   1.476   4.542 -0.1809  2.4188 -1.2030
  145SAPE  H18Y15950   2.729   1.564   4.580  2.3099 -0.3281  0.9414
  145SAPE  H18Z15951   2.751   1.471   4.419 -1.3378  1.0266 -0.6874
  146SAPE     N15952   5.195   0.077   7.271 -0.0857  0.3863 -0.4412
  146SAPE   HN115953   5.202   0.181   7.270 -0.8500  0.4460 -0.0987
  146SAPE   HN215954   5.219   0.035   7.363  1.2177 -0.0888 -0.9688
  146SAPE   HN315955   5.266   0.035   7.207 -0.0535  0.2210 -0.2967
  146SAPE   C1215956   5.059   0.017   7.238 -0.7654 -0.2511  0.6032
  146SAPE  H12A15957   4.984   0.054   7.311 -1.8498 -1.1218 -0.0563
  146SAPE  H12B15958   5.081  -0.090   7.256  0.6243 -0.0428  0.3368
  146SAPE   C1115959   5.007   0.058   7.101 -0.4605 -0.4138 -0.1753
  146SAPE  H11A15960   4.913   0.003   7.077 -1.6511  1.3744  0.2251
  146SAPE  H11B15961   5.088   0.025   7.032 -0.8873 -3.4441  0.6048
  146SAPE     P15962   4.857   0.270   7.119 -0.3161 -0.2507 -0.0961
  146SAPE   O1315963   4.794   0.203   7.237 -0.2730  0.2000  0.0411
  146SAPE   O1415964   4.876   0.415   7.120  0.0383  0.0859 -0.1994
  146SAPE   O1215965   4.991   0.199   7.093  0.3729  0.0333 -0.0911
  146SAPE   O1115966   4.771   0.239   6.989 -0.0302 -0.5120  0.1188
  146SAPE    C115967   4.831   0.249   6.861 -0.0380  0.0161  0.3191
  146SAPE    HA15968   4.834   0.355   6.826 -1.7314 -0.2830 -0.8434
  146SAPE    HB15969   4.938   0.219   6.857 -0.2612 -0.6690 -0.9749
  146SAPE    C215970   4.756   0.155   6.759 -0.2199 -0.3859 -0.1192
  146SAPE    HS15971   4.824   0.158   6.671  0.7270  0.9705  0.6325
  146SAPE   O2115972   4.636   0.221   6.723  0.6169 -0.1977  0.2324
  146SAPE   C2115973   4.648   0.314   6.630  0.8753  0.0675  0.9421
  146SAPE   O2215974   4.745   0.325   6.554 -0.3016 -0.3573  0.2526
  146SAPE   C2215975   4.535   0.405   6.631  0.5073 -0.5046  0.6074
  146SAPE   H2R15976   4.447   0.347   6.666  1.0491 -0.8997  1.3605
  146SAPE   H2S15977   4.550   0.484   6.708  0.0657 -0.8940  1.1046
  146SAPE    C315978   4.731   0.009   6.819 -1.1581 -0.1962 -0.2834
  146SAPE    HX15979   4.657   0.013   6.902 -1.7125 -2.1293 -0.6398
  146SAPE    HY15980   4.833  -0.007   6.861 -1.3977 -0.5579  0.1706
  146SAPE   O3115981   4.698  -0.088   6.717 -0.0935  0.0001  0.3849
  146SAPE   C3115982   4.687  -0.216   6.749  0.7423  0.1087 -0.3579
  146SAPE   O3215983   4.705  -0.257   6.862 -0.2884 -0.3311  0.3272
  146SAPE   C3215984   4.659  -0.308   6.628  0.1451 -0.4179 -0.0161
  146SAPE   H2X15985   4.725  -0.279   6.543 -0.7330  0.4720 -0.4208
  146SAPE   H2Y15986   4.550  -0.292   6.611  0.2334  0.2216 -0.0036
  146SAPE   C2315987   4.499   0.473   6.498 -0.1439  0.0476 -0.8933
  146SAPE   H3R15988   4.583   0.484   6.426 -1.4901 -0.0205 -2.5251
  146SAPE   H3S15989   4.459   0.572   6.526 -0.0425 -0.5995  1.7820
  146SAPE   C2415990   4.392   0.414   6.409  0.3362  0.7375  0.2256
  146SAPE   H4R15991   4.381   0.489   6.327  3.2013  0.7632 -0.2213
  146SAPE   H4S15992   4.300   0.401   6.469  2.2626 -1.1186  2.9965
  146SAPE   C2515993   4.441   0.279   6.353  0.1159  0.3438  0.6643
  146SAPE   H5R15994   4.414   0.188   6.408  0.6474 -0.6061 -0.5633
  146SAPE   C2615995   4.507   0.261   6.238  0.3285 -0.7905  0.1331
  146SAPE   H6R15996   4.530   0.156   6.213 -2.0719 -1.3133 -0.1689
  146SAPE   C2715997   4.546   0.368   6.139  0.3786 -0.0124  0.0559
  146SAPE   H7R15998   4.540   0.468   6.187 -1.4141  1.2024 -2.4883
  146SAPE   H7S15999   4.473   0.362   6.056  0.8826 -0.0468 -0.3940
  146SAPE   C2816000   4.684   0.337   6.086 -0.1527  0.0197 -0.3689
  146SAPE   H8R16001   4.755   0.301   6.162 -0.2933 -0.0310 -0.2598
  146SAPE   C2916002   4.731   0.369   5.965 -1.0832 -0.1647 -0.7170
  146SAPE   H9R16003   4.826   0.320   5.940 -1.6706 -2.4010  1.1925
  146SAPE  C21016004   4.649   0.429   5.852  0.5253  0.7906  0.3691
  146SAPE  H10R16005   4.558   0.482   5.887 -0.8277 -0.4530 -1.1155
  146SAPE  H10S16006   4.607   0.350   5.786 -0.1226  0.2075  1.4544
  146SAPE  C21116007   4.729   0.524   5.772 -0.0266 -0.2565  0.6073
  146SAPE  H11R16008   4.821   0.561   5.820  0.2166 -1.8092  1.4157
  146SAPE  C21216009   4.694   0.585   5.653 -0.7780  0.4965  0.2082
  146SAPE  H12R16010   4.768   0.652   5.608 -0.2192  0.2273  0.7266
  146SAPE  C21316011   4.567   0.557   5.579  0.7428 -0.3366  0.6653
  146SAPE  H13R16012   4.480   0.529   5.644 -0.8968  1.8335 -0.4845
  146SAPE  H13S16013   4.584   0.468   5.515 -0.4425  0.1525 -0.3701
  146SAPE  C21416014   4.526   0.667   5.480  0.3134 -0.1345 -0.5331
  146SAPE  H14R16015   4.429   0.715   5.499  0.6427  0.2947  0.0888
  146SAPE  C21516016   4.583   0.683   5.359  0.2266 -0.1719 -0.0546
  146SAPE  H15R16017   4.557   0.777   5.308 -3.2363 -0.9145  0.1399
  146SAPE  C21616018   4.704   0.623   5.295  0.5035 -0.4416 -0.6949
  146SAPE  H16R16019   4.735   0.534   5.354 -2.2720 -0.9815  0.1079
  146SAPE  H16S16020   4.789   0.695   5.300  0.5978 -0.5994  0.1652
  146SAPE  C21716021   4.674   0.565   5.154 -0.0001  0.3922  0.0308
  146SAPE  H17R16022   4.648   0.651   5.089 -0.4888  0.9892  0.9897
  146SAPE  H17S16023   4.590   0.493   5.155 -0.4997  0.9273  2.1830
  146SAPE  C21816024   4.789   0.483   5.100 -0.5454  0.2874  0.1842
  146SAPE  H18R16025   4.806   0.389   5.158  0.8448  0.5410  0.2190
  146SAPE  H18S16026   4.880   0.547   5.109  0.4275 -0.9402 -0.5696
  146SAPE  C21916027   4.767   0.459   4.948  0.2829  0.0344  0.3216
  146SAPE  H19R16028   4.664   0.419   4.948  0.4698 -0.6767  3.0781
  146SAPE  H19S16029   4.831   0.377   4.910 -0.7132  0.3598 -2.2297
  146SAPE  C22016030   4.778   0.579   4.856  0.5738  0.0988 -0.3925
  146SAPE  H20R16031   4.885   0.609   4.858  0.3050  1.1230  1.6593
  146SAPE  H20S16032   4.714   0.666   4.882  0.2369 -0.0899 -0.5818
  146SAPE  H20T16033   4.755   0.553   4.750 -0.9859  1.6731 -0.4892
  146SAPE   C3316034   4.695  -0.451   6.664  0.7089 -0.0387 -0.0539
  146SAPE   H3X16035   4.644  -0.472   6.761 -0.3527  0.5477 -0.4728
  146SAPE   H3Y16036   4.802  -0.475   6.684  0.9702 -0.7371 -2.0661
  146SAPE   C3416037   4.641  -0.554   6.559 -0.2906 -0.1012  0.7032
  146SAPE   H4X16038   4.531  -0.543   6.550 -0.3882  0.8676  2.5291
  146SAPE   H4Y16039   4.678  -0.655   6.585  0.8084  0.0959 -0.0403
  146SAPE   C3516040   4.695  -0.529   6.416 -0.1711  0.5384 -0.4578
  146SAPE   H5X16041   4.805  -0.548   6.418  0.2988  2.8538  1.1854
  146SAPE   H5Y16042   4.671  -0.424   6.388 -0.2476  0.1168 -2.0354
  146SAPE   C3616043   4.635  -0.622   6.311  1.1762  0.1615  0.7785
  146SAPE   H6X16044   4.525  -0.620   6.330  1.0667 -0.0697  0.1943
  146SAPE   H6Y16045   4.671  -0.723   6.342 -0.8810 -1.4986 -1.8033
  146SAPE   C3716046   4.678  -0.578   6.175  0.1366 -0.5948  0.3317
  146SAPE   H7X16047   4.785  -0.608   6.163 -0.1924 -2.2992  1.3881
  146SAPE   H7Y16048   4.697  -0.469   6.177  1.3398 -0.7731  2.5599
  146SAPE   C3816049   4.581  -0.613   6.062  0.0121 -0.0295 -0.8109
  146SAPE   H8X16050   4.486  -0.561   6.082 -0.4687 -0.2074 -2.4358
  146SAPE   H8Y16051   4.559  -0.722   6.062 -1.9291  0.3368 -1.2478
  146SAPE   C3916052   4.619  -0.592   5.916  0.2109 -0.3066  0.1355
  146SAPE   H9X16053   4.536  -0.637   5.858  0.4559  0.8750 -1.1849
  146SAPE   H9Y16054   4.709  -0.652   5.890 -0.3295 -1.2819  0.5040
  146SAPE  C31016055   4.638  -0.447   5.870 -0.1411 -0.8174 -0.3407
  146SAPE  H10X16056   4.724  -0.407   5.927 -0.3881 -0.1600 -0.4089
  146SAPE  H10Y16057   4.548  -0.392   5.905 -1.6254 -3.5869  0.4576
  146SAPE  C31116058   4.662  -0.432   5.728 -0.5129 -0.3601  0.6531
  146SAPE  H11X16059   4.654  -0.324   5.701 -1.5127 -0.4751  0.4777
  146SAPE  H11Y16060   4.572  -0.476   5.681 -0.5241 -0.5139  0.8176
  146SAPE  C31216061   4.798  -0.479   5.672  0.8187 -0.2643  0.3659
  146SAPE  H12X16062   4.816  -0.587   5.692 -0.2005 -0.3911  0.6468
  146SAPE  H12Y16063   4.872  -0.416   5.725 -1.0071  1.5442  0.9135
  146SAPE  C31316064   4.807  -0.467   5.518 -0.8746  0.1387 -0.7297
  146SAPE  H13X16065   4.724  -0.529   5.477 -2.2010  1.5436 -0.2925
  146SAPE  H13Y16066   4.904  -0.490   5.470 -1.4533 -1.9970 -1.0274
  146SAPE  C31416067   4.772  -0.330   5.456 -0.9685  0.1756  0.2210
  146SAPE  H14X16068   4.812  -0.250   5.523 -0.6084  1.0419 -0.9963
  146SAPE  H14Y16069   4.664  -0.306   5.467 -0.5893  2.0496  0.2821
  146SAPE  C31516070   4.811  -0.300   5.306  0.4812  0.2605  0.5570
  146SAPE  H15X16071   4.765  -0.372   5.236 -1.7433  1.6062  0.5032
  146SAPE  H15Y16072   4.921  -0.308   5.292  0.6369  0.6006  1.4636
  146SAPE  C31616073   4.769  -0.160   5.262  0.3356 -0.1124 -0.0621
  146SAPE  H16X16074   4.823  -0.075   5.310  0.2364 -1.0027  1.6801
  146SAPE  H16Y16075   4.661  -0.143   5.284  0.4273 -1.7614  1.9169
  146SAPE  C31716076   4.775  -0.139   5.106  0.6699  0.4709 -0.1283
  146SAPE  H17X16077   4.723  -0.043   5.086 -0.7257  0.4754  2.9900
  146SAPE  H17Y16078   4.722  -0.218   5.049  1.1370  1.1950 -1.6052
  146SAPE  C31816079   4.920  -0.112   5.044  0.5948  0.5375  0.1557
  146SAPE  H18X16080   4.973  -0.034   5.104 -0.5896  1.0738  0.5277
  146SAPE  H18Y16081   4.899  -0.077   4.941  0.1153 -1.0369 -0.3159
  146SAPE  H18Z16082   4.971  -0.211   5.042 -0.0965  0.1848 -0.5825
  147SAPE     N16083   3.628   3.492   7.314  0.2017 -0.6648 -1.0096
  147SAPE   HN116084   3.622   3.543   7.404  0.3428 -0.4431 -1.1258
  147SAPE   HN216085   3.528   3.501   7.288 -0.6061  0.9225  2.1085
  147SAPE   HN316086   3.643   3.390   7.329 -0.7322 -0.4595  2.0074
  147SAPE   C1216087   3.715   3.553   7.201 -0.0049 -0.7353 -0.8192
  147SAPE  H12A16088   3.688   3.490   7.114 -0.3904 -0.6930 -0.7320
  147SAPE  H12B16089   3.817   3.539   7.242  0.5435 -0.6241 -2.1269
  147SAPE   C1116090   3.687   3.706   7.191 -0.3981  0.4461  0.1000
  147SAPE  H11A16091   3.765   3.755   7.128  1.8665 -2.5276  0.3541
  147SAPE  H11B16092   3.687   3.734   7.299  0.2031 -1.0412  0.5183
  147SAPE     P16093   3.526   3.755   6.988 -0.1082 -0.2360  0.0351
  147SAPE   O1316094   3.387   3.719   6.970  0.1582 -0.3108  0.4724
  147SAPE   O1416095   3.565   3.896   6.971 -0.2306  0.0834 -0.2663
  147SAPE   O1216096   3.563   3.729   7.144  0.3938 -0.0881 -0.4888
  147SAPE   O1116097   3.617   3.650   6.912 -0.1328 -0.4358  0.3711
  147SAPE    C116098   3.627   3.663   6.767 -0.4230  0.0929  0.2696
  147SAPE    HA16099   3.628   3.560   6.727  0.0873 -0.6926  2.2171
  147SAPE    HB16100   3.543   3.718   6.719  0.4420  1.2135  0.0008
  147SAPE    C216101   3.766   3.731   6.738  0.3068  0.1440 -1.1332
  147SAPE    HS16102   3.782   3.812   6.813  3.6066 -0.0090 -1.4995
  147SAPE   O2116103   3.773   3.772   6.596 -0.0137  0.4992 -0.1444
  147SAPE   C2116104   3.876   3.852   6.561  0.3866  0.1287 -0.1201
  147SAPE   O2216105   3.968   3.884   6.636  0.2831  0.0766 -0.3682
  147SAPE   C2216106   3.856   3.894   6.418  0.0049  0.9097 -0.0196
  147SAPE   H2R16107   3.941   3.964   6.402  1.1514 -0.1881  1.0566
  147SAPE   H2S16108   3.860   3.804   6.353 -0.5244  0.6473  0.3097
  147SAPE    C316109   3.869   3.612   6.765 -0.7059  0.5824  0.1291
  147SAPE    HX16110   3.871   3.584   6.872  4.2730 -0.3430  0.0511
  147SAPE    HY16111   3.969   3.659   6.751  0.2798 -1.5603 -0.6002
  147SAPE   O3116112   3.847   3.494   6.680  0.6054 -0.4680  0.3708
  147SAPE   C3116113   3.935   3.474   6.589 -0.0058  0.6979 -0.4349
  147SAPE   O3216114   4.014   3.554   6.543 -0.5446 -0.0022 -0.2744
  147SAPE   C3216115   3.912   3.343   6.527 -0.5632  0.1548 -0.1854
  147SAPE   H2X16116   3.807   3.306   6.518  0.5837 -3.7254  0.6940
  147SAPE   H2Y16117   3.962   3.262   6.584  0.6977  1.1908  0.2235
  147SAPE   C2316118   3.727   3.967   6.399 -0.3622 -1.0127  0.0121
  147SAPE   H3R16119   3.734   4.061   6.460 -3.8333 -0.6572  0.0870
  147SAPE   H3S16120   3.639   3.912   6.438 -0.6840  0.4523  1.4991
  147SAPE   C2416121   3.706   4.006   6.256  0.0011 -0.1701  0.2282
  147SAPE   H4R16122   3.601   4.041   6.249  0.1869  0.2199 -0.6580
  147SAPE   H4S16123   3.710   3.918   6.190  0.0986  1.2727 -1.7775
  147SAPE   C2516124   3.804   4.109   6.205  0.1700  0.0831  0.4908
  147SAPE   H5R16125   3.806   4.201   6.265 -1.0521  1.1759 -1.0439
  147SAPE   C2616126   3.875   4.102   6.084  0.7247 -0.2035  0.0481
  147SAPE   H6R16127   3.943   4.185   6.056  1.3945 -0.6596  0.3118
  147SAPE   C2716128   3.883   3.987   5.995  0.8745 -0.0831  0.3237
  147SAPE   H7R16129   3.858   3.894   6.050 -0.1538 -0.8018 -1.2659
  147SAPE   H7S16130   3.983   3.970   5.949  1.1621 -1.5822  1.4233
  147SAPE   C2816131   3.789   3.997   5.879 -0.3999  0.3890  0.5427
  147SAPE   H8R16132   3.692   3.946   5.889 -0.4816  0.4746  0.2119
  147SAPE   C2916133   3.816   4.064   5.763  0.3970  0.2637 -0.7431
  147SAPE   H9R16134   3.741   4.061   5.682  1.6149 -0.2337 -1.9022
  147SAPE  C21016135   3.943   4.142   5.730  0.1305 -0.3596  0.2426
  147SAPE  H10R16136   4.002   4.078   5.661 -1.4198 -1.3966 -0.1859
  147SAPE  H10S16137   4.008   4.154   5.819 -1.8709  0.7011  1.6339
  147SAPE  C21116138   3.932   4.284   5.676 -0.0924 -0.2952  0.7089
  147SAPE  H11R16139   3.953   4.367   5.744 -1.7890  1.3821 -0.7227
  147SAPE  C21216140   3.929   4.314   5.548  0.1474  0.6858 -0.4196
  147SAPE  H12R16141   3.941   4.420   5.520  2.6605  0.6269  0.1559
  147SAPE  C21316142   3.910   4.219   5.441 -0.5161 -0.1641  0.0533
  147SAPE  H13R16143   3.815   4.234   5.385 -0.9171  0.5261  0.8979
  147SAPE  H13S16144   3.910   4.114   5.476 -0.1569 -0.2457 -0.1840
  147SAPE  C21416145   4.024   4.229   5.342  0.5562  0.6812  0.6386
  147SAPE  H14R16146   4.109   4.166   5.374 -0.8756 -1.2411  0.8316
  147SAPE  C21516147   4.030   4.287   5.219  0.0380 -0.3098 -0.2128
  147SAPE  H15R16148   4.129   4.286   5.172  0.1381 -3.5930 -0.2222
  147SAPE  C21616149   3.926   4.374   5.149 -0.1474 -0.2875  0.0502
  147SAPE  H16R16150   3.822   4.336   5.154 -0.6801  0.8468 -1.7173
  147SAPE  H16S16151   3.956   4.388   5.043 -0.7720  0.0128 -0.0924
  147SAPE  C21716152   3.899   4.511   5.221 -0.5581 -0.1437  0.7343
  147SAPE  H17R16153   3.993   4.563   5.249  1.3867 -2.7101 -0.6334
  147SAPE  H17S16154   3.832   4.503   5.310 -5.0341  0.5134 -2.2252
  147SAPE  C21816155   3.832   4.616   5.125  0.3929 -0.2042 -0.5879
  147SAPE  H18R16156   3.735   4.565   5.105 -0.7902  1.8509 -0.3673
  147SAPE  H18S16157   3.901   4.631   5.039  1.1370  1.9535  0.3250
  147SAPE  C21916158   3.803   4.750   5.191 -0.7718  0.3590  0.1907
  147SAPE  H19R16159   3.908   4.784   5.201 -0.6317  0.5885 -1.6168
  147SAPE  H19S16160   3.747   4.723   5.283  0.1833  0.6764  0.8739
  147SAPE  C22016161   3.718   4.856   5.115  0.3382  0.4189 -0.0083
  147SAPE  H20R16162   3.781   4.879   5.027  1.5783  0.5675  0.8922
  147SAPE  H20S16163   3.695   4.931   5.194 -4.1486 -0.6031 -0.0394
  147SAPE  H20T16164   3.624   4.809   5.078 -0.0286  1.0010  0.1638
  147SAPE   C3316165   3.977   3.333   6.384  0.3900 -0.1284  0.6792
  147SAPE   H3X16166   3.964   3.225   6.360  1.6204  0.2153 -1.8474
  147SAPE   H3Y16167   4.088   3.346   6.382  0.4326 -0.5679 -0.9915
  147SAPE   C3416168   3.908   3.425   6.282 -0.0637 -0.1696  1.3382
  147SAPE   H4X16169   3.951   3.527   6.292 -1.0327  0.3583  0.3604
  147SAPE   H4Y16170   3.798   3.432   6.295 -0.5439 -0.4864 -1.7720
  147SAPE   C3516171   3.919   3.367   6.139 -0.5299  0.3859  0.1946
  147SAPE   H5X16172   3.829   3.302   6.137 -0.3481  0.1220  0.4709
  147SAPE   H5Y16173   4.003   3.297   6.121 -0.5343 -0.0693  1.7844
  147SAPE   C3616174   3.907   3.478   6.031  0.2404  0.3670 -0.0392
  147SAPE   H6X16175   3.987   3.555   6.041  0.4955  0.0504  0.4214
  147SAPE   H6Y16176   3.810   3.526   6.054 -0.1887 -0.9580  1.0190
  147SAPE   C3716177   3.905   3.419   5.885  0.0696 -0.0236 -0.6045
  147SAPE   H7X16178   3.808   3.368   5.866 -2.0036  1.6079  4.0794
  147SAPE   H7Y16179   3.978   3.336   5.876 -2.0196 -2.1901  1.1073
  147SAPE   C3816180   3.925   3.528   5.781  0.2814 -0.8613 -0.0982
  147SAPE   H8X16181   4.020   3.582   5.797  0.3006 -1.0839  0.5673
  147SAPE   H8Y16182   3.845   3.606   5.777  1.3392  0.2145 -1.0114
  147SAPE   C3916183   3.915   3.467   5.643  0.6488  0.1528 -0.2212
  147SAPE   H9X16184   3.822   3.418   5.606 -1.3811  4.4041 -1.3969
  147SAPE   H9Y16185   3.988   3.383   5.641 -2.1279 -2.4149 -0.5006
  147SAPE  C31016186   3.947   3.581   5.539  0.2028 -0.0820  0.6147
  147SAPE  H10X16187   3.959   3.531   5.440  0.5553 -1.7394  1.4497
  147SAPE  H10Y16188   4.040   3.633   5.571  0.1243  0.6578 -0.3008
  147SAPE  C31116189   3.836   3.689   5.522 -0.2629  0.3666 -0.1942
  147SAPE  H11X16190   3.831   3.758   5.609  0.6879 -0.5800  0.6353
  147SAPE  H11Y16191   3.742   3.630   5.526  0.1119 -0.2272 -0.0847
  147SAPE  C31216192   3.843   3.759   5.389 -0.3353 -0.3718  0.0385
  147SAPE  H12X16193   3.854   3.685   5.307 -1.3207 -0.0267 -0.4341
  147SAPE  H12Y16194   3.920   3.838   5.381 -1.5509  0.8450 -0.0892
  147SAPE  C31316195   3.707   3.829   5.368 -0.0651  0.3695  1.0531
  147SAPE  H13X16196   3.689   3.889   5.460 -2.1603  1.8212 -0.2304
  147SAPE  H13Y16197   3.631   3.749   5.365  1.2875 -0.9496  0.3899
  147SAPE  C31416198   3.709   3.923   5.242 -0.0840  0.1023  0.1174
  147SAPE  H14X16199   3.734   3.851   5.161 -2.7416 -1.3850  0.4957
  147SAPE  H14Y16200   3.786   4.002   5.250 -2.4669  2.5001  1.1174
  147SAPE  C31516201   3.567   3.987   5.208 -0.4071 -0.4904  0.0291
  147SAPE  H15X16202   3.501   3.948   5.288  0.8823 -3.4831 -0.2287
  147SAPE  H15Y16203   3.533   3.963   5.105  1.2013  0.2467 -0.7126
  147SAPE  C31616204   3.553   4.140   5.243  0.1736 -0.8834 -0.1244
  147SAPE  H16X16205   3.609   4.204   5.172 -0.7897 -0.7327 -0.7681
  147SAPE  H16Y16206   3.588   4.164   5.346  1.6219 -1.1765 -0.5249
  147SAPE  C31716207   3.412   4.198   5.232 -0.1718  0.6295  0.0692
  147SAPE  H17X16208   3.342   4.113   5.247 -0.4335  0.6085 -1.1543
  147SAPE  H17Y16209   3.398   4.225   5.125  0.6163 -0.1595 -0.2447
  147SAPE  C31816210   3.381   4.315   5.318 -0.3227 -0.4429  0.9140
  147SAPE  H18X16211   3.463   4.390   5.316  0.8012 -1.6445  0.8910
  147SAPE  H18Y16212   3.359   4.282   5.421  0.0533  0.8541  1.4332
  147SAPE  H18Z16213   3.288   4.365   5.283 -0.8645 -1.6772  0.5357
  148SAPE     N16214   1.024   4.781   7.257  0.3068  0.1832 -0.1771
  148SAPE   HN116215   1.048   4.681   7.239  1.9048  0.6095 -0.6581
  148SAPE   HN216216   1.096   4.832   7.313  1.8708 -0.4936 -1.4660
  148SAPE   HN316217   0.934   4.781   7.309  0.1630 -0.1130 -0.4207
  148SAPE   C1216218   0.999   4.860   7.130 -0.2325  0.9389  0.1428
  148SAPE  H12A16219   0.957   4.792   7.054  2.4747 -1.1000  0.3603
  148SAPE  H12B16220   1.099   4.897   7.101  0.5455  1.4100  3.0811
  148SAPE   C1116221   0.899   4.978   7.147  0.0011 -0.5982 -0.0939
  148SAPE  H11A16222   0.794   4.940   7.143 -0.0739 -0.3473 -0.8218
  148SAPE  H11B16223   0.915   5.045   7.060 -0.0133 -0.3459  0.0997
  148SAPE     P16224   0.967   5.190   7.296  0.5687  0.2597  0.1956
  148SAPE   O1316225   0.848   5.264   7.339 -0.6989  0.3536 -0.1324
  148SAPE   O1416226   1.087   5.202   7.374  0.2241  0.1464  0.2357
  148SAPE   O1216227   0.926   5.042   7.275 -0.1774  0.8754  0.1071
  148SAPE   O1116228   1.006   5.235   7.152 -0.3855 -0.7305  0.3262
  148SAPE    C116229   0.944   5.347   7.092  0.8754 -0.7864  0.4493
  148SAPE    HA16230   0.843   5.369   7.131 -0.0149 -4.2382  0.4208
  148SAPE    HB16231   0.997   5.443   7.110  0.2436 -0.5103  0.8488
  148SAPE    C216232   0.933   5.330   6.946  0.0609 -0.3430  0.3342
  148SAPE    HS16233   0.894   5.228   6.922 -0.7709  0.3076 -1.2748
  148SAPE   O2116234   1.059   5.361   6.887  0.3495 -0.1567  0.4759
  148SAPE   C2116235   1.117   5.267   6.813 -0.4920  0.4573  0.0172
  148SAPE   O2216236   1.075   5.156   6.793  0.2505 -0.0365  0.6065
  148SAPE   C2216237   1.246   5.324   6.747 -0.3855  0.1809 -0.2584
  148SAPE   H2R16238   1.227   5.433   6.734 -1.1224  0.1280  0.3183
  148SAPE   H2S16239   1.341   5.311   6.802 -0.0711  0.8300 -0.6305
  148SAPE    C316240   0.827   5.429   6.893  0.0628  0.9595 -0.2319
  148SAPE    HX16241   0.847   5.533   6.925  1.0738  0.9069 -0.6568
  148SAPE    HY16242   0.728   5.395   6.931 -0.5926  1.1889 -1.6990
  148SAPE   O3116243   0.826   5.434   6.751 -0.3410 -0.5669  0.0298
  148SAPE   C3116244   0.784   5.319   6.692 -0.6837  0.2057 -0.6613
  148SAPE   O3216245   0.726   5.233   6.758  0.0269  0.1900 -0.0894
  148SAPE   C3216246   0.817   5.318   6.542  0.0668 -0.0696 -0.3227
  148SAPE   H2X16247   0.906   5.381   6.521 -1.2525  2.1485  0.4975
  148SAPE   H2Y16248   0.728   5.349   6.484 -0.1140 -1.1867 -0.6748
  148SAPE   C2316249   1.272   5.257   6.613  0.0926  0.8449 -0.2151
  148SAPE   H3R16250   1.190   5.252   6.537  1.4062 -1.4274 -1.6083
  148SAPE   H3S16251   1.301   5.151   6.631 -1.3869  0.4811  0.1922
  148SAPE   C2416252   1.394   5.303   6.531 -0.5530  0.4021  0.3084
  148SAPE   H4R16253   1.484   5.266   6.585 -0.1180 -1.0486 -1.3072
  148SAPE   H4S16254   1.402   5.413   6.525 -1.4290  0.4133 -0.8623
  148SAPE   C2516255   1.382   5.257   6.387 -0.0299 -0.1402  0.9631
  148SAPE   H5R16256   1.345   5.334   6.317  0.8199 -0.5538  0.0355
  148SAPE   C2616257   1.406   5.133   6.342  0.2494 -0.0079 -0.2305
  148SAPE   H6R16258   1.378   5.119   6.237  1.4419 -1.2478 -0.4046
  148SAPE   C2716259   1.460   5.014   6.409  0.0244 -0.0709 -0.0801
  148SAPE   H7R16260   1.375   4.946   6.386 -0.7692 -0.3634  3.2481
  148SAPE   H7S16261   1.456   5.014   6.520  1.4584 -0.8366 -0.0053
  148SAPE   C2816262   1.602   4.981   6.373  0.3226 -1.1035 -0.0416
  148SAPE   H8R16263   1.674   5.009   6.451  1.1109 -0.5288 -0.9534
  148SAPE   C2916264   1.651   4.919   6.266 -0.1949  0.0372  0.0733
  148SAPE   H9R16265   1.759   4.900   6.256  0.0934 -0.5800  3.1781
  148SAPE  C21016266   1.560   4.855   6.159  0.8664  0.3841 -0.4667
  148SAPE  H10R16267   1.474   4.925   6.155  0.7182  0.1517 -1.4457
  148SAPE  H10S16268   1.531   4.755   6.199 -0.6290  1.2016  0.6060
  148SAPE  C21116269   1.628   4.849   6.027  0.1660 -1.1605  0.2716
  148SAPE  H11R16270   1.733   4.817   6.034  0.1739 -1.0633  0.6217
  148SAPE  C21216271   1.576   4.888   5.911 -0.2812 -0.1269  0.4023
  148SAPE  H12R16272   1.633   4.883   5.817 -1.5959  1.2672 -0.5113
  148SAPE  C21316273   1.437   4.952   5.891  0.3131 -0.2543  0.2244
  148SAPE  H13R16274   1.445   5.052   5.938 -0.2250  0.0386 -0.3043
  148SAPE  H13S16275   1.355   4.901   5.946 -1.0434  1.8177  0.2435
  148SAPE  C21416276   1.387   4.952   5.745 -0.9002 -0.0457 -0.6165
  148SAPE  H14R16277   1.398   4.855   5.694  1.2023 -0.3778  0.3730
  148SAPE  C21516278   1.359   5.061   5.670  0.0532  0.4323 -0.3808
  148SAPE  H15R16279   1.343   5.041   5.563 -1.2370  0.6786 -0.2520
  148SAPE  C21616280   1.393   5.201   5.717 -0.8540  0.0413 -0.1439
  148SAPE  H16R16281   1.426   5.259   5.628  0.6596 -0.1856  0.2482
  148SAPE  H16S16282   1.479   5.186   5.784 -1.9491  0.4603  1.4057
  148SAPE  C21716283   1.285   5.278   5.790 -0.0904  0.6110 -0.2126
  148SAPE  H17R16284   1.321   5.382   5.810  0.3986  0.4439 -0.2057
  148SAPE  H17S16285   1.275   5.233   5.891  1.1811 -1.5518 -1.0041
  148SAPE  C21816286   1.155   5.268   5.708 -0.1218 -0.5593 -0.0180
  148SAPE  H18R16287   1.109   5.167   5.718  0.5613 -1.1488 -2.3256
  148SAPE  H18S16288   1.182   5.296   5.604 -2.4087 -0.5214 -0.6431
  148SAPE  C21916289   1.057   5.380   5.755  0.3330 -0.8972 -0.5875
  148SAPE  H19R16290   0.974   5.393   5.682  0.6891 -3.4057 -1.5289
  148SAPE  H19S16291   1.108   5.479   5.749  0.4671 -0.9080  0.2110
  148SAPE  C22016292   0.996   5.364   5.893 -0.7253 -0.0061 -0.6466
  148SAPE  H20R16293   1.077   5.382   5.967 -1.4532 -1.4377  0.5517
  148SAPE  H20S16294   0.965   5.257   5.899 -0.6026 -0.0283 -0.3728
  148SAPE  H20T16295   0.912   5.433   5.913 -0.5752 -0.0082  0.0049
  148SAPE   C3316296   0.851   5.178   6.502  0.7206 -0.0608  0.3427
  148SAPE   H3X16297   0.775   5.103   6.534  0.0716  1.6370  3.1088
  148SAPE   H3Y16298   0.945   5.153   6.555  0.5263  1.6328  1.5490
  148SAPE   C3416299   0.878   5.164   6.351  0.1121 -0.0061 -0.0859
  148SAPE   H4X16300   0.819   5.241   6.297 -0.3752  1.1393  1.9415
  148SAPE   H4Y16301   0.854   5.060   6.322 -0.0889  0.5264 -1.9352
  148SAPE   C3516302   1.027   5.196   6.316 -0.8371  0.1503 -0.6286
  148SAPE   H5X16303   1.082   5.132   6.388 -2.0844  1.2996  1.4467
  148SAPE   H5Y16304   1.051   5.301   6.340  0.2580 -0.2824  0.2117
  148SAPE   C3616305   1.068   5.146   6.177  0.8483  0.0522 -0.2038
  148SAPE   H6X16306   1.178   5.137   6.175  0.7639 -0.9483 -1.6005
  148SAPE   H6Y16307   1.032   5.223   6.107 -1.2997  0.3506  1.1130
  148SAPE   C3716308   1.001   5.019   6.124 -0.0835  0.0593 -0.6054
  148SAPE   H7X16309   0.891   5.002   6.130  0.3178 -2.8410 -0.4442
  148SAPE   H7Y16310   1.038   4.943   6.195  1.3855  1.4062  0.1362
  148SAPE   C3816311   1.038   4.968   5.985  0.5518 -0.1638  0.0541
  148SAPE   H8X16312   1.149   4.976   5.972  0.5564 -2.9566 -3.0993
  148SAPE   H8Y16313   0.981   5.026   5.909 -2.3652 -0.8515  1.6184
  148SAPE   C3916314   1.000   4.815   5.974  0.2786 -0.3100  0.5203
  148SAPE   H9X16315   0.891   4.810   5.996 -0.0119 -0.5700 -0.9236
  148SAPE   H9Y16316   1.044   4.752   6.055 -0.0002 -0.7640  0.3229
  148SAPE  C31016317   1.042   4.751   5.841  0.2744  0.1095  0.2592
  148SAPE  H10X16318   0.997   4.649   5.847  2.0143 -0.7184 -0.0213
  148SAPE  H10Y16319   1.153   4.751   5.836  0.2442 -0.4066 -0.9708
  148SAPE  C31116320   0.975   4.828   5.721 -0.6940  0.0864 -1.2110
  148SAPE  H11X16321   1.024   4.927   5.709 -0.3117 -0.2507 -2.7152
  148SAPE  H11Y16322   0.865   4.841   5.732 -0.5794 -0.1273  0.4601
  148SAPE  C31216323   1.010   4.746   5.595 -0.2775  0.6952 -0.2148
  148SAPE  H12X16324   0.967   4.644   5.603 -3.1780  1.2297 -4.9763
  148SAPE  H12Y16325   1.119   4.729   5.587 -0.4963 -1.1470  0.2497
  148SAPE  C31316326   0.934   4.807   5.473 -0.9279 -0.0637 -0.3443
  148SAPE  H13X16327   0.938   4.918   5.474 -2.7882  0.0566  1.4108
  148SAPE  H13Y16328   0.827   4.782   5.487 -0.8285 -0.3508 -0.0938
  148SAPE  C31416329   0.986   4.757   5.336  0.1687  0.0220 -0.7450
  148SAPE  H14X16330   0.918   4.808   5.265 -1.3494  0.3936  0.8957
  148SAPE  H14Y16331   0.975   4.647   5.325 -1.2570  0.1031 -0.2374
  148SAPE  C31516332   1.132   4.784   5.306 -0.8911  0.1566  0.0914
  148SAPE  H15X16333   1.206   4.723   5.362  1.8265  2.2937 -0.9603
  148SAPE  H15Y16334   1.161   4.890   5.325  2.6589 -0.7432  0.4116
  148SAPE  C31616335   1.167   4.743   5.161  0.0727 -0.8365  0.1070
  148SAPE  H16X16336   1.113   4.811   5.092 -0.5433 -0.8710  0.5392
  148SAPE  H16Y16337   1.128   4.641   5.138  0.3850 -1.0967  0.7100
  148SAPE  C31716338   1.314   4.757   5.135 -0.0996 -0.8318  0.5781
  148SAPE  H17X16339   1.367   4.672   5.182  1.2139 -0.9609 -1.0484
  148SAPE  H17Y16340   1.346   4.856   5.173  0.3132 -0.8709  0.3347
  148SAPE  C31816341   1.342   4.743   4.983  0.0552  0.3610  0.0411
  148SAPE  H18X16342   1.445   4.756   4.945 -0.8009  1.4761 -2.0295
  148SAPE  H18Y16343   1.291   4.825   4.928  1.5951  0.1491 -1.7786
  148SAPE  H18Z16344   1.288   4.660   4.933  0.7548  0.7544 -1.4020
  149SAPE     N16345   2.675   2.021   7.262 -0.0471 -0.2770 -0.0519
  149SAPE   HN116346   2.611   1.939   7.274 -0.6709  0.2951  0.5796
  149SAPE   HN216347   2.773   1.987   7.276  0.3270  1.3734  1.7640
  149SAPE   HN316348   2.653   2.101   7.324 -0.6940  0.5428 -1.2847
  149SAPE   C1216349   2.681   2.075   7.121  0.2515 -0.3676  0.8639
  149SAPE  H12A16350   2.775   2.132   7.104  1.1118 -2.5815 -2.9381
  149SAPE  H12B16351   2.592   2.137   7.097  0.8714  0.1880 -0.0683
  149SAPE   C1116352   2.698   1.966   7.011 -0.3843  0.3474 -0.1153
  149SAPE  H11A16353   2.608   1.902   7.002 -0.1618  0.0455 -0.2287
  149SAPE  H11B16354   2.778   1.893   7.034 -1.4585 -0.9708 -0.4472
  149SAPE     P16355   2.760   1.956   6.755 -0.1443 -0.4764 -0.1902
  149SAPE   O1316356   2.756   2.045   6.640 -0.0928 -0.4799 -0.4913
  149SAPE   O1416357   2.893   1.898   6.770 -0.4468 -0.0214 -0.1192
  149SAPE   O1216358   2.728   2.036   6.892 -0.2381 -0.0401 -0.0965
  149SAPE   O1116359   2.658   1.831   6.734 -0.0758 -0.1826  0.3574
  149SAPE    C116360   2.526   1.875   6.684  0.0232 -0.2854  0.6190
  149SAPE    HA16361   2.451   1.895   6.763 -1.6410  0.8862 -1.1709
  149SAPE    HB16362   2.516   1.968   6.623  1.2325 -1.0036 -0.7235
  149SAPE    C216363   2.459   1.764   6.599  0.4839  1.3447  0.1977
  149SAPE    HS16364   2.489   1.669   6.647 -0.5983  0.6566 -0.4210
  149SAPE   O2116365   2.504   1.781   6.458 -0.2948 -0.4014 -0.0275
  149SAPE   C2116366   2.545   1.665   6.407 -0.2233 -0.1085 -0.3959
  149SAPE   O2216367   2.544   1.560   6.464  0.2332 -0.0565  0.3863
  149SAPE   C2216368   2.584   1.688   6.263  0.1864 -0.3816  0.2800
  149SAPE   H2R16369   2.561   1.793   6.233  1.3907 -0.2632 -0.2888
  149SAPE   H2S16370   2.694   1.675   6.270  0.2632  0.5642  1.0582
  149SAPE    C316371   2.308   1.762   6.599  0.6403  0.4155  0.1510
  149SAPE    HX16372   2.288   1.860   6.550  0.1935 -0.0660 -0.6556
  149SAPE    HY16373   2.254   1.759   6.696 -1.6036  2.1693 -0.9418
  149SAPE   O3116374   2.251   1.661   6.522 -0.5463 -0.7319  0.3158
  149SAPE   C3116375   2.223   1.546   6.573  0.2102 -0.4318  0.5361
  149SAPE   O3216376   2.244   1.506   6.688  0.1404  0.6676  0.3516
  149SAPE   C3216377   2.139   1.468   6.468 -0.0419  0.6260 -0.1665
  149SAPE   H2X16378   2.125   1.367   6.512  2.1454  0.4945  0.3229
  149SAPE   H2Y16379   2.207   1.456   6.381  1.3852 -1.5409  1.1632
  149SAPE   C2316380   2.521   1.592   6.157  0.1166 -0.4558 -0.0459
  149SAPE   H3R16381   2.511   1.488   6.195 -0.1342 -0.6491 -0.6285
  149SAPE   H3S16382   2.594   1.596   6.074  1.4822  0.6578  1.1368
  149SAPE   C2416383   2.375   1.628   6.119 -0.7572 -0.0365 -0.1148
  149SAPE   H4R16384   2.375   1.736   6.096 -0.3877  0.1719  0.8112
  149SAPE   H4S16385   2.306   1.598   6.202 -0.7494 -3.3873 -1.1632
  149SAPE   C2516386   2.332   1.532   6.012 -0.2478 -0.1949  0.0100
  149SAPE   H5R16387   2.278   1.441   6.042 -0.4071  0.1128  0.6589
  149SAPE   C2616388   2.334   1.556   5.876 -0.2957  0.0051  0.2781
  149SAPE   H6R16389   2.306   1.471   5.811  0.3751 -0.7490  0.9519
  149SAPE   C2716390   2.396   1.673   5.794  0.2273  0.4958 -0.8315
  149SAPE   H7R16391   2.437   1.752   5.860  0.0288  0.8148 -1.0873
  149SAPE   H7S16392   2.312   1.727   5.744  0.0729 -0.8562 -2.1039
  149SAPE   C2816393   2.505   1.628   5.702 -0.4956  0.2610  0.4693
  149SAPE   H8R16394   2.605   1.611   5.744 -0.0181 -0.2929 -0.8201
  149SAPE   C2916395   2.498   1.598   5.566  0.2106 -0.1163 -0.6603
  149SAPE   H9R16396   2.590   1.595   5.506 -0.8674  2.5924 -2.6495
  149SAPE  C21016397   2.376   1.619   5.481  0.4812  0.2131 -0.0941
  149SAPE  H10R16398   2.360   1.728   5.465  1.0873  0.3285  0.0547
  149SAPE  H10S16399   2.289   1.587   5.543  1.8030  1.7291  2.7178
  149SAPE  C21116400   2.378   1.559   5.344 -0.0684  0.2014 -0.2938
  149SAPE  H11R16401   2.429   1.462   5.344  2.2884  1.3773 -0.4014
  149SAPE  C21216402   2.343   1.611   5.224 -0.2133  0.7076  0.1199
  149SAPE  H12R16403   2.354   1.544   5.137  1.0594  0.0340  0.7771
  149SAPE  C21316404   2.285   1.748   5.195 -0.6445 -0.2701 -0.2449
  149SAPE  H13R16405   2.217   1.791   5.272 -0.5442 -0.5131 -0.0167
  149SAPE  H13S16406   2.224   1.750   5.103 -1.3484  1.9466  0.1965
  149SAPE  C21416407   2.406   1.840   5.186 -0.5250  0.7492 -0.5681
  149SAPE  H14R16408   2.450   1.862   5.284  0.5200  0.9778 -1.0702
  149SAPE  C21516409   2.457   1.885   5.074 -0.1050 -0.0962 -0.2112
  149SAPE  H15R16410   2.550   1.944   5.080 -0.4238  0.4630 -0.6839
  149SAPE  C21616411   2.414   1.851   4.928 -0.2144  0.0763  0.3048
  149SAPE  H16R16412   2.345   1.930   4.890  1.5708  2.5006  1.8173
  149SAPE  H16S16413   2.360   1.755   4.910 -0.0319  0.2869 -1.6240
  149SAPE  C21716414   2.537   1.835   4.841  0.0871  0.5641  0.3173
  149SAPE  H17R16415   2.504   1.812   4.737  2.4320 -0.9076 -0.1906
  149SAPE  H17S16416   2.584   1.742   4.880 -2.0912 -0.0497  1.6490
  149SAPE  C21816417   2.624   1.956   4.825  0.0622  0.2955  0.1074
  149SAPE  H18R16418   2.687   1.972   4.915  1.2462  0.0671 -0.6563
  149SAPE  H18S16419   2.551   2.039   4.822  1.9239  2.0004 -0.3959
  149SAPE  C21916420   2.709   1.967   4.699 -0.7219  0.1321  0.0593
  149SAPE  H19R16421   2.785   2.047   4.709  1.4852 -2.0582  2.2532
  149SAPE  H19S16422   2.645   1.990   4.610  0.3247  0.8603 -0.5285
  149SAPE  C22016423   2.786   1.841   4.664  0.5179 -0.7557  0.5544
  149SAPE  H20R16424   2.819   1.854   4.558 -0.8479  1.7801  0.3591
  149SAPE  H20S16425   2.722   1.752   4.683 -0.9992  0.2908  0.5465
  149SAPE  H20T16426   2.863   1.822   4.742 -0.9458 -1.0642  1.9767
  149SAPE   C3316427   2.006   1.535   6.431 -0.1118  0.0710  0.2103
  149SAPE   H3X16428   2.019   1.638   6.390  1.6665  0.4795  1.6871
  149SAPE   H3Y16429   1.942   1.538   6.521  1.3377 -0.3104  1.2868
  149SAPE   C3416430   1.921   1.460   6.323  0.0471  0.2442  0.8836
  149SAPE   H4X16431   1.827   1.517   6.304 -0.0175 -0.0970  0.1777
  149SAPE   H4Y16432   1.888   1.362   6.364  3.2598 -1.6256 -0.6302
  149SAPE   C3516433   2.002   1.423   6.195 -0.2211 -0.1437 -0.7974
  149SAPE   H5X16434   2.083   1.353   6.226 -0.7544 -0.2292  0.4894
  149SAPE   H5Y16435   2.027   1.519   6.144 -2.9788  0.0810 -1.9270
  149SAPE   C3616436   1.914   1.349   6.099 -0.2372 -0.1833  0.2099
  149SAPE   H6X16437   1.817   1.402   6.089  0.2811  0.8158  0.3895
  149SAPE   H6Y16438   1.893   1.253   6.151 -0.3071 -1.6130 -2.2746
  149SAPE   C3716439   1.969   1.300   5.967 -0.0666 -0.0526  0.2009
  149SAPE   H7X16440   1.909   1.216   5.927 -2.5408  1.3635  0.7625
  149SAPE   H7Y16441   2.072   1.258   5.973 -0.0695 -0.1307 -0.2734
  149SAPE   C3816442   1.982   1.415   5.872 -0.6790  0.7814 -0.1424
  149SAPE   H8X16443   2.047   1.386   5.788 -0.4285  0.1954  0.2471
  149SAPE   H8Y16444   2.036   1.505   5.908 -0.8857  1.4346 -1.4009
  149SAPE   C3916445   1.851   1.478   5.806 -0.5123  0.3153  0.1759
  149SAPE   H9X16446   1.783   1.529   5.877 -0.2933  2.4080 -1.0379
  149SAPE   H9Y16447   1.800   1.388   5.764  0.5475 -0.7248  1.0279
  149SAPE  C31016448   1.871   1.573   5.686  0.1311  0.1912  0.7218
  149SAPE  H10X16449   1.951   1.643   5.719 -0.4530  0.3770  1.8162
  149SAPE  H10Y16450   1.775   1.626   5.672 -1.3607 -2.6012 -0.2478
  149SAPE  C31116451   1.916   1.512   5.553 -0.4519 -0.5592 -0.4657
  149SAPE  H11X16452   1.860   1.418   5.538 -1.5474  0.0991 -0.6223
  149SAPE  H11Y16453   2.021   1.475   5.557 -0.2196  0.0604 -0.7015
  149SAPE  C31216454   1.896   1.598   5.428  0.3156 -0.0127  0.3866
  149SAPE  H12X16455   1.942   1.699   5.433  1.5741 -0.6319  2.0570
  149SAPE  H12Y16456   1.788   1.619   5.413  0.6710  1.2893 -0.4650
  149SAPE  C31316457   1.956   1.525   5.305  0.0299  0.5896 -0.0999
  149SAPE  H13X16458   1.928   1.418   5.307  0.4469  0.4466 -1.2571
  149SAPE  H13Y16459   2.066   1.525   5.320  0.1401  1.8454 -0.7270
  149SAPE  C31416460   1.936   1.607   5.172  0.6087  0.4051 -0.6659
  149SAPE  H14X16461   2.011   1.584   5.095  1.8636  2.8558 -0.2683
  149SAPE  H14Y16462   1.954   1.714   5.196  0.3511  0.6164 -1.4090
  149SAPE  C31516463   1.797   1.598   5.108  0.0148  0.0324  0.6309
  149SAPE  H15X16464   1.760   1.703   5.110  1.2449  0.4902  0.0958
  149SAPE  H15Y16465   1.731   1.536   5.172  0.7031  0.3516  1.6719
  149SAPE  C31616466   1.794   1.547   4.964 -0.3291  0.0978 -0.6299
  149SAPE  H16X16467   1.804   1.437   4.969  2.5124  0.2641 -1.1727
  149SAPE  H16Y16468   1.880   1.588   4.907 -1.0857  3.0288  0.1702
  149SAPE  C31716469   1.668   1.608   4.897  0.0793  0.3691  0.5239
  149SAPE  H17X16470   1.676   1.719   4.890 -1.7411  0.5086  0.1232
  149SAPE  H17Y16471   1.586   1.588   4.969 -0.9168 -0.7331 -0.8518
  149SAPE  C31816472   1.629   1.548   4.757 -1.1958  0.6838 -0.3375
  149SAPE  H18X16473   1.646   1.438   4.755 -0.8747  0.6225  2.2927
  149SAPE  H18Y16474   1.702   1.595   4.687  0.6800 -0.1457  0.9700
  149SAPE  H18Z16475   1.525   1.567   4.722 -1.1549 -0.2646 -1.0106
  150SAPE     N16476   5.903   1.013   6.857 -0.1614 -0.1873 -0.0643
  150SAPE   HN116477   5.950   1.055   6.939 -0.3794  0.5287 -0.3043
  150SAPE   HN216478   5.813   0.968   6.883 -0.2768 -0.6197 -1.1321
  150SAPE   HN316479   5.974   0.951   6.812  3.0940  1.6626  2.1656
  150SAPE   C1216480   5.870   1.125   6.756 -0.4726 -0.4867  0.3335
  150SAPE  H12A16481   5.798   1.093   6.678 -0.2562 -0.6850  0.2140
  150SAPE  H12B16482   5.965   1.148   6.703 -0.5374 -1.9095 -0.4523
  150SAPE   C1116483   5.804   1.246   6.822  0.1358 -0.2722 -0.0814
  150SAPE  H11A16484   5.807   1.342   6.766 -0.6838  0.0322  0.3816
  150SAPE  H11B16485   5.878   1.253   6.904 -0.5093 -1.1440  0.5970
  150SAPE     P16486   5.578   1.337   6.902 -0.6784  0.5722  0.2460
  150SAPE   O1316487   5.448   1.281   6.956  0.0286  0.5595 -0.5779
  150SAPE   O1416488   5.641   1.438   6.986 -0.6391 -0.3249 -0.1902
  150SAPE   O1216489   5.677   1.209   6.869 -0.2278 -0.6532  0.0921
  150SAPE   O1116490   5.567   1.394   6.752  0.3442  0.2886 -0.3919
  150SAPE    C116491   5.540   1.293   6.648  0.5032  0.0876 -0.5406
  150SAPE    HA16492   5.631   1.233   6.627 -0.1332 -0.6645 -1.1943
  150SAPE    HB16493   5.459   1.223   6.677  1.2347 -0.0169  1.4185
  150SAPE    C216494   5.478   1.352   6.512  0.1890  0.1150 -0.1588
  150SAPE    HS16495   5.466   1.267   6.441  0.1863 -0.7445  0.8477
  150SAPE   O2116496   5.561   1.438   6.431 -0.2626 -0.1947 -0.2493
  150SAPE   C2116497   5.692   1.413   6.413 -0.1932  0.3513  0.9271
  150SAPE   O2216498   5.755   1.320   6.457 -0.7198 -0.3766  0.1802
  150SAPE   C2216499   5.751   1.522   6.314 -0.1947  0.3550 -0.8983
  150SAPE   H2R16500   5.674   1.543   6.236  0.9290  2.1033 -1.6044
  150SAPE   H2S16501   5.754   1.614   6.376 -3.4389  1.5050 -2.2540
  150SAPE    C316502   5.334   1.406   6.537 -0.5817 -0.7390 -0.4749
  150SAPE    HX16503   5.329   1.453   6.637  1.4925 -1.4087 -0.0015
  150SAPE    HY16504   5.265   1.319   6.551 -0.9831 -0.3792 -0.1986
  150SAPE   O3116505   5.280   1.486   6.432 -0.1129 -0.6234  0.0884
  150SAPE   C3116506   5.278   1.615   6.443 -0.2614  0.5077 -0.0672
  150SAPE   O3216507   5.335   1.681   6.526  0.4610  0.0047  0.3233
  150SAPE   C3216508   5.186   1.684   6.343 -0.2508 -0.4923  0.1300
  150SAPE   H2X16509   5.212   1.792   6.340  1.0066 -0.6119  3.2399
  150SAPE   H2Y16510   5.082   1.660   6.374 -1.0753  2.0180 -0.4445
  150SAPE   C2316511   5.893   1.488   6.255  0.2048  0.7934 -0.6305
  150SAPE   H3R16512   5.953   1.427   6.325 -0.8752 -1.7081 -1.7468
  150SAPE   H3S16513   5.943   1.584   6.229  0.0752  0.8501 -0.6706
  150SAPE   C2416514   5.896   1.416   6.121 -0.2128  0.4542  0.4508
  150SAPE   H4R16515   5.994   1.375   6.088 -0.8429 -1.6959  1.1050
  150SAPE   H4S16516   5.857   1.486   6.044 -1.6321  0.7327  1.3934
  150SAPE   C2516517   5.797   1.301   6.130 -0.5401 -0.6156  0.1210
  150SAPE   H5R16518   5.807   1.242   6.222 -0.7577  0.3277  0.7665
  150SAPE   C2616519   5.701   1.270   6.040 -0.2844  0.0152 -0.2556
  150SAPE   H6R16520   5.652   1.172   6.057 -0.4631  0.4782  2.2273
  150SAPE   C2716521   5.672   1.336   5.907  0.7216 -0.0427 -0.0467
  150SAPE   H7R16522   5.714   1.439   5.895  1.5523 -0.3725 -0.0740
  150SAPE   H7S16523   5.563   1.353   5.905  0.1619 -3.1418 -1.3943
  150SAPE   C2816524   5.699   1.251   5.783  0.3619 -0.0671  0.3539
  150SAPE   H8R16525   5.656   1.150   5.789  2.0342 -0.7964  0.8571
  150SAPE   C2916526   5.761   1.286   5.666  0.9251  0.3405 -0.4597
  150SAPE   H9R16527   5.795   1.213   5.592 -0.3475 -1.0764  0.3073
  150SAPE  C21016528   5.817   1.422   5.637  0.0860  0.2815  0.1498
  150SAPE  H10R16529   5.927   1.406   5.629  0.7897  2.7097  2.9796
  150SAPE  H10S16530   5.805   1.479   5.732  0.2580  0.3612  0.1249
  150SAPE  C21116531   5.779   1.494   5.504 -0.1846 -0.3023 -0.2699
  150SAPE  H11R16532   5.701   1.571   5.508  0.2532  0.1219  1.8875
  150SAPE  C21216533   5.830   1.471   5.384 -0.4425 -0.3522  1.1255
  150SAPE  H12R16534   5.794   1.529   5.298 -0.0064 -2.4207 -0.5428
  150SAPE  C21316535   5.944   1.377   5.354 -0.0292  0.5834  0.2978
  150SAPE  H13R16536   5.952   1.296   5.430 -1.0749 -1.9544 -2.1001
  150SAPE  H13S16537   6.038   1.434   5.343  0.8925 -1.3395 -5.9738
  150SAPE  C21416538   5.938   1.295   5.221 -0.1253 -0.2694 -0.1512
  150SAPE  H14R16539   5.874   1.205   5.217 -0.1546 -0.2277 -0.8556
  150SAPE  C21516540   6.006   1.316   5.106  0.8101 -0.7035 -0.3341
  150SAPE  H15R16541   5.982   1.246   5.025 -2.3814 -1.1398  0.8332
  150SAPE  C21616542   6.093   1.433   5.076 -0.2399  0.3529  0.3325
  150SAPE  H16R16543   6.054   1.520   5.133  0.5891  2.2623 -1.8365
  150SAPE  H16S16544   6.075   1.464   4.971 -0.3759 -0.7294  0.0313
  150SAPE  C21716545   6.240   1.421   5.095  0.5551  0.8815 -0.1821
  150SAPE  H17R16546   6.250   1.358   5.186 -0.5344  0.8359 -0.0791
  150SAPE  H17S16547   6.293   1.515   5.123  2.2876  0.2193 -1.1100
  150SAPE  C21816548   6.297   1.352   4.976 -0.5579  0.3778 -0.0308
  150SAPE  H18R16549   6.256   1.384   4.878  1.6236  0.8246 -0.8662
  150SAPE  H18S16550   6.280   1.242   4.970  2.5689 -0.2674  0.7883
  150SAPE  C21916551   6.450   1.368   4.974  0.0390  0.1545 -0.1328
  150SAPE  H19R16552   6.479   1.358   5.081  1.5684 -2.7213 -0.7112
  150SAPE  H19S16553   6.474   1.466   4.928 -2.9271  0.9790 -0.1553
  150SAPE  C22016554   6.536   1.248   4.905 -0.2596 -0.0342 -0.2307
  150SAPE  H20R16555   6.646   1.257   4.919 -0.3846  1.1742  0.0845
  150SAPE  H20S16556   6.511   1.257   4.797  0.9396 -1.8678 -0.7060
  150SAPE  H20T16557   6.494   1.153   4.945 -2.5082  0.8250 -0.4016
  150SAPE   C3316558   5.200   1.625   6.198 -0.1438 -0.6463  0.2587
  150SAPE   H3X16559   5.114   1.652   6.132  0.4572 -0.7204 -0.5786
  150SAPE   H3Y16560   5.186   1.516   6.213  1.7153 -0.8585  0.7306
  150SAPE   C3416561   5.325   1.659   6.129  0.4975 -0.1107  0.1782
  150SAPE   H4X16562   5.415   1.619   6.181 -0.1566  0.0533  1.4641
  150SAPE   H4Y16563   5.338   1.769   6.142 -1.0677  0.1156  0.0173
  150SAPE   C3516564   5.337   1.624   5.977  0.1807 -0.2754  0.5282
  150SAPE   H5X16565   5.241   1.662   5.936  1.0301 -0.0120 -1.3362
  150SAPE   H5Y16566   5.343   1.513   5.974 -2.3480 -0.4597 -0.0771
  150SAPE   C3616567   5.456   1.700   5.913  0.1085 -0.1251  0.4349
  150SAPE   H6X16568   5.551   1.662   5.958  2.3654  3.3710 -0.9634
  150SAPE   H6Y16569   5.448   1.810   5.929 -0.6267  0.0442 -1.0109
  150SAPE   C3716570   5.470   1.671   5.764  0.5749 -0.0555  0.8039
  150SAPE   H7X16571   5.510   1.569   5.746  2.4995  0.7817  0.1508
  150SAPE   H7Y16572   5.546   1.742   5.725  1.1213 -1.4356 -0.7432
  150SAPE   C3816573   5.343   1.691   5.689  0.3166 -0.2670 -0.1948
  150SAPE   H8X16574   5.291   1.784   5.721 -1.1181 -1.2306  0.3695
  150SAPE   H8Y16575   5.280   1.604   5.716  0.6342 -0.3445  0.3047
  150SAPE   C3916576   5.365   1.683   5.536 -0.0811 -0.4926 -0.3043
  150SAPE   H9X16577   5.261   1.690   5.497 -0.3145  1.6616  0.5953
  150SAPE   H9Y16578   5.398   1.586   5.493 -0.1309  0.0557 -1.6149
  150SAPE  C31016579   5.444   1.802   5.475  0.3135 -0.5471 -0.4244
  150SAPE  H10X16580   5.547   1.761   5.465  0.5412 -0.0396 -0.1782
  150SAPE  H10Y16581   5.443   1.876   5.558  2.7571 -1.8906  0.9306
  150SAPE  C31116582   5.395   1.864   5.347 -0.6677 -0.0237 -0.3732
  150SAPE  H11X16583   5.452   1.958   5.333 -1.2512  0.3472 -0.3091
  150SAPE  H11Y16584   5.291   1.893   5.375 -0.4043  2.8353 -1.9832
  150SAPE  C31216585   5.397   1.769   5.232  0.1916 -0.1292 -0.2223
  150SAPE  H12X16586   5.331   1.686   5.267  0.9323 -1.4246 -1.7605
  150SAPE  H12Y16587   5.497   1.732   5.202 -0.2150 -0.8743 -0.6909
  150SAPE  C31316588   5.350   1.830   5.103  0.1942 -0.1118 -0.6264
  150SAPE  H13X16589   5.404   1.924   5.078 -1.0829  1.0972  0.9153
  150SAPE  H13Y16590   5.246   1.864   5.124 -0.2693 -2.1843  0.7188
  150SAPE  C31416591   5.364   1.743   4.979 -0.0191  0.0541 -0.2417
  150SAPE  H14X16592   5.321   1.642   4.997 -0.5012  0.4471  0.9050
  150SAPE  H14Y16593   5.473   1.733   4.961  0.2452  2.0573  0.0203
  150SAPE  C31516594   5.306   1.794   4.848  0.2799 -0.2760 -0.0589
  150SAPE  H15X16595   5.222   1.864   4.866  1.0604  1.4566 -2.6367
  150SAPE  H15Y16596   5.262   1.703   4.802 -0.8661 -0.5938  1.5824
  150SAPE  C31616597   5.407   1.840   4.747 -0.2160 -0.3679 -0.0281
  150SAPE  H16X16598   5.478   1.761   4.714  1.1295  1.1322 -0.8755
  150SAPE  H16Y16599   5.477   1.917   4.787 -0.4942 -0.0969 -0.0612
  150SAPE  C31716600   5.340   1.889   4.618  0.0236 -0.6896  0.0942
  150SAPE  H17X16601   5.243   1.938   4.639  0.3017  0.8261 -1.8864
  150SAPE  H17Y16602   5.322   1.796   4.559 -1.0389 -0.0663 -0.5958
  150SAPE  C31816603   5.402   1.995   4.526 -0.3765 -0.7058  0.0776
  150SAPE  H18X16604   5.339   2.026   4.440 -0.8976  1.3840  1.1514
  150SAPE  H18Y16605   5.501   1.966   4.486  1.0030  1.5131  1.6537
  150SAPE  H18Z16606   5.429   2.089   4.579 -0.7452  0.1455 -1.1840
  151SAPE     N16607   3.441   6.622   7.271  0.5834  0.7635  0.6466
  151SAPE   HN116608   3.451   6.519   7.282 -0.1742  0.7386  1.2045
  151SAPE   HN216609   3.402   6.668   7.356  0.1140  2.0539 -0.2382
  151SAPE   HN316610   3.379   6.634   7.189 -0.4097  1.1816  1.4277
  151SAPE   C1216611   3.572   6.680   7.228  0.1052  0.5155  0.0130
  151SAPE  H12A16612   3.572   6.790   7.248 -1.5473  0.7625 -1.1126
  151SAPE  H12B16613   3.573   6.674   7.117  0.6745  0.3831  0.0238
  151SAPE   C1116614   3.696   6.606   7.275  0.1129 -0.2267 -0.4180
  151SAPE  H11A16615   3.714   6.643   7.378  0.4579  0.2044 -0.6289
  151SAPE  H11B16616   3.774   6.654   7.211  0.4146  2.8392  1.9923
  151SAPE     P16617   3.703   6.386   7.126 -0.2470  0.5340  0.1876
  151SAPE   O1316618   3.818   6.289   7.128  0.4776  0.2584 -0.4873
  151SAPE   O1416619   3.572   6.344   7.088  0.6283 -0.3920  0.6504
  151SAPE   O1216620   3.689   6.467   7.265 -0.1081 -0.5792 -0.2544
  151SAPE   O1116621   3.738   6.493   7.022 -0.0392 -0.3631 -0.0366
  151SAPE    C116622   3.870   6.529   6.978 -0.9761  0.8519 -0.0839
  151SAPE    HA16623   3.883   6.639   6.986 -1.4980  0.9911 -0.9854
  151SAPE    HB16624   3.944   6.469   7.036 -2.1158  0.0658  0.6024
  151SAPE    C216625   3.894   6.505   6.825 -0.4259 -0.3452 -0.1722
  151SAPE    HS16626   3.980   6.570   6.799 -0.8649  0.2579 -0.1229
  151SAPE   O2116627   3.777   6.535   6.749  0.0394 -0.7993  0.6747
  151SAPE   C2116628   3.815   6.592   6.630  0.8400 -0.0478  0.5400
  151SAPE   O2216629   3.931   6.612   6.599 -0.6982 -0.4475  0.1394
  151SAPE   C2216630   3.690   6.614   6.534  0.1275 -0.2925 -0.9492
  151SAPE   H2R16631   3.674   6.517   6.482 -0.4730 -0.6258 -0.1513
  151SAPE   H2S16632   3.602   6.632   6.599  1.5354  0.5055  0.8084
  151SAPE    C316633   3.916   6.351   6.802 -0.0326 -0.2934 -0.0645
  151SAPE    HX16634   3.822   6.307   6.842 -0.7349  0.6904 -0.5687
  151SAPE    HY16635   3.999   6.310   6.862  1.9556  1.1697 -1.6538
  151SAPE   O3116636   3.925   6.313   6.664  0.4767  0.1756  0.6071
  151SAPE   C3116637   4.048   6.329   6.607  0.4826  0.0168  0.0112
  151SAPE   O3216638   4.148   6.350   6.672 -0.5190  0.4487 -0.2621
  151SAPE   C3216639   4.038   6.312   6.454  0.1923  0.4732  0.1673
  151SAPE   H2X16640   3.963   6.383   6.414  0.8805  1.1674  0.0896
  151SAPE   H2Y16641   4.002   6.209   6.431  2.2633 -0.1387 -0.5585
  151SAPE   C2316642   3.722   6.711   6.417  0.4549  0.1606 -0.1718
  151SAPE   H3R16643   3.807   6.663   6.365  2.3955 -1.1393  3.7895
  151SAPE   H3S16644   3.756   6.809   6.458  0.5396  1.0532 -2.2647
  151SAPE   C2416645   3.607   6.728   6.316 -0.2769  0.4409 -0.0217
  151SAPE   H4R16646   3.513   6.759   6.368  0.2219  2.8121 -0.4233
  151SAPE   H4S16647   3.598   6.620   6.291  0.0885 -0.0988  1.9722
  151SAPE   C2516648   3.642   6.824   6.209  0.3905 -0.8377 -0.0246
  151SAPE   H5R16649   3.596   6.922   6.227  0.6048 -0.9398  1.1768
  151SAPE   C2616650   3.697   6.801   6.088 -0.2092 -0.4538  0.3675
  151SAPE   H6R16651   3.727   6.892   6.034  1.5059 -1.1900  0.0181
  151SAPE   C2716652   3.757   6.677   6.032 -0.0470 -0.1680 -0.0858
  151SAPE   H7R16653   3.690   6.633   5.955  1.1472 -2.6712  0.2204
  151SAPE   H7S16654   3.769   6.605   6.117 -2.1363  0.3935  0.7534
  151SAPE   C2816655   3.900   6.712   5.978  0.4047  0.2459  0.0898
  151SAPE   H8R16656   3.973   6.710   6.061 -1.1135  0.8693  1.4824
  151SAPE   C2916657   3.930   6.735   5.847  0.4183 -0.4950 -0.0847
  151SAPE   H9R16658   4.033   6.753   5.815 -0.3170  1.3033 -1.5702
  151SAPE  C21016659   3.825   6.754   5.734  0.4810  0.9333 -0.3262
  151SAPE  H10R16660   3.850   6.850   5.684  2.4022 -0.3144 -1.9409
  151SAPE  H10S16661   3.720   6.745   5.769  0.7357  2.5590  0.9252
  151SAPE  C21116662   3.848   6.639   5.639 -0.4941  0.5543 -0.2294
  151SAPE  H11R16663   3.863   6.541   5.686  0.5404  0.2330 -1.1961
  151SAPE  C21216664   3.844   6.648   5.508  0.2739  0.4093 -0.2401
  151SAPE  H12R16665   3.859   6.557   5.448 -1.8764 -0.9769  1.1708
  151SAPE  C21316666   3.804   6.779   5.437  0.6786  0.4984  0.2791
  151SAPE  H13R16667   3.874   6.856   5.475  0.6916  0.1613  0.9450
  151SAPE  H13S16668   3.701   6.806   5.468  0.0877  1.2770 -2.1138
  151SAPE  C21416669   3.826   6.773   5.287  0.6703 -0.4666 -0.4499
  151SAPE  H14R16670   3.737   6.734   5.236 -1.5106 -0.1935  2.8059
  151SAPE  C21516671   3.940   6.813   5.220  0.1266 -0.4871 -0.3998
  151SAPE  H15R16672   3.936   6.810   5.110  0.2972  1.2823 -0.4772
  151SAPE  C21616673   4.062   6.867   5.277 -0.0420  0.1786 -0.1294
  151SAPE  H16R16674   4.074   6.856   5.387 -0.4154  0.8564 -0.0178
  151SAPE  H16S16675   4.070   6.976   5.258  0.9367 -0.2034 -2.2393
  151SAPE  C21716676   4.176   6.802   5.208 -0.5542  0.1193  0.2524
  151SAPE  H17R16677   4.183   6.832   5.101  3.1630 -0.9327  0.0615
  151SAPE  H17S16678   4.170   6.691   5.216 -1.0260  0.1017 -0.2846
  151SAPE  C21816679   4.306   6.856   5.274  0.0950 -0.7207  0.1301
  151SAPE  H18R16680   4.303   6.829   5.381 -2.5750  1.6234  0.7756
  151SAPE  H18S16681   4.297   6.967   5.277  1.4940 -0.6147  1.0800
  151SAPE  C21916682   4.431   6.814   5.209 -0.0513  0.3581 -0.2120
  151SAPE  H19R16683   4.407   6.722   5.152 -2.2036 -0.3137  1.6305
  151SAPE  H19S16684   4.511   6.791   5.282 -0.0798  1.9108  0.3543
  151SAPE  C22016685   4.495   6.911   5.109  0.2573 -0.2408 -0.1514
  151SAPE  H20R16686   4.499   7.012   5.154 -3.1145 -0.0043 -0.1458
  151SAPE  H20S16687   4.434   6.920   5.017  1.9574  1.5062 -1.1845
  151SAPE  H20T16688   4.604   6.899   5.093  0.6713  2.3290  0.3529
  151SAPE   C3316689   4.171   6.334   6.378  0.4416  0.4960  0.6309
  151SAPE   H3X16690   4.253   6.270   6.416 -1.0249 -0.9368  1.4997
  151SAPE   H3Y16691   4.191   6.444   6.378 -2.2427  1.0427  1.1847
  151SAPE   C3416692   4.155   6.313   6.223 -0.0737 -0.0075 -0.7571
  151SAPE   H4X16693   4.125   6.207   6.207 -1.3625  0.4288 -1.3919
  151SAPE   H4Y16694   4.259   6.326   6.186  0.4722 -1.7816  0.0109
  151SAPE   C3516695   4.044   6.389   6.147 -0.6522 -0.1961 -0.8170
  151SAPE   H5X16696   4.048   6.499   6.163 -1.7716 -0.1259 -0.9900
  151SAPE   H5Y16697   3.943   6.363   6.185 -1.3520 -0.8821 -3.0136
  151SAPE   C3616698   4.043   6.356   5.995  0.2246  0.4605 -0.7790
  151SAPE   H6X16699   3.952   6.402   5.952 -0.6024 -0.4477 -0.0558
  151SAPE   H6Y16700   4.022   6.247   5.984 -2.6198  0.8625 -0.2023
  151SAPE   C3716701   4.167   6.412   5.913 -0.2299 -0.4110 -0.1589
  151SAPE   H7X16702   4.255   6.388   5.975 -0.2169  1.1801  0.4958
  151SAPE   H7Y16703   4.158   6.522   5.901  2.4403 -0.3654 -2.9454
  151SAPE   C3816704   4.185   6.354   5.775  0.1649  0.0808 -0.1472
  151SAPE   H8X16705   4.088   6.378   5.727 -0.2956  0.1809  0.8044
  151SAPE   H8Y16706   4.199   6.244   5.791  1.9999  0.4173  0.8730
  151SAPE   C3916707   4.298   6.427   5.695 -0.0755  0.1182 -0.0682
  151SAPE   H9X16708   4.397   6.408   5.741 -0.1445  0.3398  0.1750
  151SAPE   H9Y16709   4.281   6.537   5.697 -0.8247  0.0462  2.6968
  151SAPE  C31016710   4.303   6.389   5.546 -0.0210 -0.0152 -0.1351
  151SAPE  H10X16711   4.313   6.278   5.541 -0.2950 -0.2774  3.1745
  151SAPE  H10Y16712   4.391   6.440   5.501 -0.9677  1.3980 -0.4446
  151SAPE  C31116713   4.186   6.443   5.464  0.0679 -0.2888 -0.0593
  151SAPE  H11X16714   4.163   6.549   5.488 -0.1683 -0.7672  2.0167
  151SAPE  H11Y16715   4.094   6.394   5.501 -0.0617 -0.8620 -1.1094
  151SAPE  C31216716   4.193   6.424   5.314 -0.5229  0.3373 -0.4330
  151SAPE  H12X16717   4.236   6.324   5.295 -1.9328 -0.1987 -0.9293
  151SAPE  H12Y16718   4.266   6.501   5.278  1.1407  0.7966  3.3819
  151SAPE  C31316719   4.058   6.428   5.237 -1.2408 -0.5708 -0.2662
  151SAPE  H13X16720   4.003   6.521   5.265 -0.2475 -0.2063  0.5583
  151SAPE  H13Y16721   3.995   6.339   5.258 -0.0827 -1.4818 -0.5730
  151SAPE  C31416722   4.075   6.430   5.086  0.3279 -0.0652 -0.2853
  151SAPE  H14X16723   4.125   6.338   5.048  2.8294  0.7449  0.9080
  151SAPE  H14Y16724   4.140   6.516   5.060  1.1650  0.1878  2.4042
  151SAPE  C31516725   3.945   6.442   5.011  0.0144 -0.2198 -0.4585
  151SAPE  H15X16726   3.906   6.544   5.029  0.3901 -0.0673 -0.5022
  151SAPE  H15Y16727   3.873   6.361   5.035 -0.2402  0.5759  1.6815
  151SAPE  C31616728   3.965   6.439   4.857 -0.2905 -0.2058  0.1948
  151SAPE  H16X16729   3.875   6.408   4.800 -1.8093  2.7728  0.7694
  151SAPE  H16Y16730   4.044   6.363   4.836 -0.5272 -0.0089 -1.5497
  151SAPE  C31716731   4.019   6.569   4.807  0.4670  0.0521 -0.6389
  151SAPE  H17X16732   4.120   6.597   4.845  0.3572  1.9519 -1.6111
  151SAPE  H17Y16733   3.944   6.648   4.831 -0.1928 -0.3797 -1.2573
  151SAPE  C31816734   4.037   6.571   4.652 -0.3618 -0.6759 -0.0552
  151SAPE  H18X16735   3.939   6.566   4.598  0.2421  0.6827 -1.3443
  151SAPE  H18Y16736   4.092   6.481   4.615  0.6087 -0.0382 -0.1834
  151SAPE  H18Z16737   4.084   6.667   4.624 -2.0886  0.7336  1.6813
  152SAPE     N16738   0.896   0.600   7.251  0.2256 -0.3203  0.4490
  152SAPE   HN116739   0.953   0.684   7.229 -0.6050  0.8651  2.5141
  152SAPE   HN216740   0.843   0.612   7.340 -0.0677  0.4873  0.1721
  152SAPE   HN316741   0.952   0.513   7.264 -0.6408 -0.8990  0.4113
  152SAPE   C1216742   0.800   0.562   7.134 -0.1923 -0.6003  0.2959
  152SAPE  H12A16743   0.726   0.486   7.166 -1.6495 -0.7030 -2.9127
  152SAPE  H12B16744   0.858   0.527   7.046 -1.7769 -3.2707  0.2302
  152SAPE   C1116745   0.726   0.695   7.083 -0.3474  0.1996 -0.5772
  152SAPE  H11A16746   0.643   0.715   7.155  0.5119 -0.2416  0.5587
  152SAPE  H11B16747   0.664   0.673   6.994 -1.9316 -0.1526  0.5621
  152SAPE     P16748   0.885   0.823   6.922  0.2878  0.3323  0.0208
  152SAPE   O1316749   0.960   0.943   6.915 -0.9965  0.0679  0.2373
  152SAPE   O1416750   0.951   0.691   6.883  0.7149  0.3563  0.4092
  152SAPE   O1216751   0.821   0.803   7.068  0.0547 -0.0495  0.6498
  152SAPE   O1116752   0.765   0.841   6.822 -0.5572 -0.0759 -0.3742
  152SAPE    C116753   0.665   0.930   6.861  0.4052 -0.6400 -0.4294
  152SAPE    HA16754   0.664   0.977   6.961  0.9418 -0.8124 -0.3429
  152SAPE    HB16755   0.667   1.009   6.783 -0.2606  0.7302  0.8931
  152SAPE    C216756   0.521   0.863   6.867  0.0125 -0.1716  0.6170
  152SAPE    HS16757   0.513   0.807   6.963 -1.3020 -1.6709 -0.3221
  152SAPE   O2116758   0.515   0.770   6.754 -0.2858  0.3211 -0.7215
  152SAPE   C2116759   0.440   0.672   6.771  0.7977  0.0362 -0.4806
  152SAPE   O2216760   0.381   0.647   6.877  0.1966  0.1889  0.1957
  152SAPE   C2216761   0.447   0.589   6.646 -0.3718 -0.7104 -0.1613
  152SAPE   H2R16762   0.441   0.648   6.552 -1.0008  1.0245  0.9293
  152SAPE   H2S16763   0.540   0.528   6.648  1.1027  1.4369 -0.4586
  152SAPE    C316764   0.410   0.977   6.862 -1.2006  0.1650  0.0687
  152SAPE    HX16765   0.444   1.057   6.932 -1.2578  2.0446 -1.9330
  152SAPE    HY16766   0.312   0.940   6.897 -2.1135  1.1590 -1.3241
  152SAPE   O3116767   0.410   1.040   6.729  0.6757  0.1963  0.2465
  152SAPE   C3116768   0.335   0.983   6.628  0.0604  0.2706  0.0140
  152SAPE   O3216769   0.256   0.893   6.659 -0.1714 -0.3246  0.6430
  152SAPE   C3216770   0.343   1.057   6.500  0.1978 -0.0229 -0.4568
  152SAPE   H2X16771   0.443   1.102   6.484 -0.2328  0.4846 -1.8672
  152SAPE   H2Y16772   0.272   1.141   6.515 -1.7402 -1.5960 -0.3707
  152SAPE   C2316773   0.322   0.489   6.637  0.0669  0.1151 -0.2530
  152SAPE   H3R16774   0.235   0.557   6.640  0.1497  0.1976  1.0559
  152SAPE   H3S16775   0.321   0.431   6.732  1.3827  1.8120  0.8592
  152SAPE   C2416776   0.306   0.400   6.513 -0.3002  0.3571  0.0287
  152SAPE   H4R16777   0.291   0.465   6.423 -0.6696 -0.7589 -0.7398
  152SAPE   H4S16778   0.210   0.346   6.531  0.3627 -0.3804  1.4412
  152SAPE   C2516779   0.425   0.312   6.486 -0.9576  0.5074 -0.1188
  152SAPE   H5R16780   0.436   0.233   6.562 -0.5664 -0.2387 -0.9188
  152SAPE   C2616781   0.513   0.307   6.380  0.1020 -0.2586 -0.6483
  152SAPE   H6R16782   0.614   0.263   6.388  0.6131  0.6536 -1.7102
  152SAPE   C2716783   0.491   0.398   6.265  0.2130 -0.5420  1.1081
  152SAPE   H7R16784   0.587   0.445   6.234 -0.0287  0.1004  1.3128
  152SAPE   H7S16785   0.431   0.490   6.283 -0.9590 -0.6148 -1.8165
  152SAPE   C2816786   0.408   0.342   6.149 -0.6096 -0.0152 -0.1030
  152SAPE   H8R16787   0.305   0.320   6.179 -0.3260 -1.0155  0.1930
  152SAPE   C2916788   0.450   0.331   6.018 -0.1111 -0.1264  0.1075
  152SAPE   H9R16789   0.370   0.296   5.951  0.5338 -1.3632 -0.0545
  152SAPE  C21016790   0.587   0.378   5.967  0.2567 -0.2219 -0.8827
  152SAPE  H10R16791   0.665   0.318   6.018  0.5074  0.2225 -0.7334
  152SAPE  H10S16792   0.600   0.484   5.999  0.1840 -0.9579  1.8281
  152SAPE  C21116793   0.595   0.343   5.821 -0.1060 -0.8304 -0.8376
  152SAPE  H11R16794   0.555   0.242   5.811 -0.6697 -0.9891  1.9946
  152SAPE  C21216795   0.630   0.420   5.716  0.2189 -0.2736  0.1511
  152SAPE  H12R16796   0.620   0.372   5.618 -0.8912  0.3323 -0.0474
  152SAPE  C21316797   0.675   0.559   5.727 -0.6638 -0.3473  0.4445
  152SAPE  H13R16798   0.680   0.594   5.832 -4.8214 -0.5231  0.8825
  152SAPE  H13S16799   0.607   0.629   5.674 -0.8800 -0.8673  0.0247
  152SAPE  C21416800   0.805   0.565   5.652 -0.5466  0.2346 -0.7432
  152SAPE  H14R16801   0.897   0.556   5.712  0.9226  1.4781 -2.6495
  152SAPE  C21516802   0.831   0.614   5.530  0.8673  0.1727  0.0904
  152SAPE  H15R16803   0.933   0.604   5.490  1.3222 -0.5109  1.3705
  152SAPE  C21616804   0.721   0.646   5.426 -0.1032 -0.9512 -0.3850
  152SAPE  H16R16805   0.702   0.755   5.413 -3.3070 -1.3781 -0.0686
  152SAPE  H16S16806   0.625   0.597   5.453  0.4055 -0.9817  1.5138
  152SAPE  C21716807   0.754   0.590   5.297 -0.5527  0.2764 -0.2167
  152SAPE  H17R16808   0.672   0.595   5.222  1.5039  0.1209 -2.5918
  152SAPE  H17S16809   0.777   0.483   5.311 -1.0612 -0.2177 -2.7593
  152SAPE  C21816810   0.859   0.675   5.222 -0.9340 -0.0737 -0.1234
  152SAPE  H18R16811   0.922   0.613   5.155 -0.0303  0.6206  0.0524
  152SAPE  H18S16812   0.930   0.715   5.299 -0.6368 -1.1443  0.1816
  152SAPE  C21916813   0.808   0.795   5.133  0.4439  0.3267 -0.1738
  152SAPE  H19R16814   0.732   0.852   5.190  1.9830  1.6058  0.7117
  152SAPE  H19S16815   0.768   0.751   5.039 -2.9424 -1.2478  1.8307
  152SAPE  C22016816   0.921   0.895   5.112 -0.2617  0.2421  0.2708
  152SAPE  H20R16817   1.002   0.852   5.050  0.2342 -0.3798  1.3113
  152SAPE  H20S16818   0.975   0.926   5.204  0.4721 -0.8093  0.2142
  152SAPE  H20T16819   0.879   0.980   5.054  2.9923  0.1813 -2.4750
  152SAPE   C3316820   0.297   0.961   6.388 -0.0672 -0.7877  0.4662
  152SAPE   H3X16821   0.192   0.939   6.413 -0.2785  0.8035  1.0519
  152SAPE   H3Y16822   0.366   0.873   6.394 -0.4921 -1.1706 -0.1345
  152SAPE   C3416823   0.317   1.023   6.254 -0.4281  0.6895  0.4571
  152SAPE   H4X16824   0.420   1.059   6.235 -0.3772  0.2438 -0.1528
  152SAPE   H4Y16825   0.256   1.115   6.259 -0.6937  0.4849  1.0229
  152SAPE   C3516826   0.278   0.921   6.147 -0.3001 -0.1425  0.0103
  152SAPE   H5X16827   0.177   0.877   6.164 -0.1806  0.0668  1.3886
  152SAPE   H5Y16828   0.350   0.837   6.139  1.3289  1.3205 -1.2852
  152SAPE   C3616829   0.275   0.986   6.009 -0.0505  0.2299  0.0205
  152SAPE   H6X16830   0.294   1.096   6.014 -1.3472  0.4149  1.3237
  152SAPE   H6Y16831   0.173   0.973   5.966 -0.2189  3.0776 -0.6538
  152SAPE   C3716832   0.363   0.904   5.907  0.4749  0.7298  0.0335
  152SAPE   H7X16833   0.332   0.799   5.887 -0.0141  0.9482 -0.3701
  152SAPE   H7Y16834   0.469   0.898   5.941  0.3787 -0.2930  0.1960
  152SAPE   C3816835   0.372   0.964   5.765 -0.4349 -0.0099  0.1369
  152SAPE   H8X16836   0.379   1.075   5.772  1.4006  0.0300 -1.6405
  152SAPE   H8Y16837   0.270   0.947   5.723 -0.6609  2.5906 -0.5520
  152SAPE   C3916838   0.473   0.894   5.678 -0.3161  0.5793 -0.2889
  152SAPE   H9X16839   0.440   0.790   5.659 -1.8465  1.2801 -1.8156
  152SAPE   H9Y16840   0.570   0.898   5.732 -2.5029  0.3150  4.1300
  152SAPE  C31016841   0.471   0.954   5.537  0.2836  0.1800  0.3484
  152SAPE  H10X16842   0.368   0.935   5.501  0.9998 -0.8708 -1.2271
  152SAPE  H10Y16843   0.548   0.912   5.469  1.1592  1.1301  0.7175
  152SAPE  C31116844   0.503   1.099   5.525 -0.1009 -0.3842 -0.5668
  152SAPE  H11X16845   0.578   1.125   5.603 -1.0487  1.0160 -0.0920
  152SAPE  H11Y16846   0.416   1.162   5.553  0.1129 -1.3302  2.6568
  152SAPE  C31216847   0.589   1.134   5.397  0.6050  0.0132 -0.3942
  152SAPE  H12X16848   0.688   1.086   5.402  0.5683  0.0100  0.4360
  152SAPE  H12Y16849   0.598   1.244   5.412 -0.8655 -0.1894  2.9046
  152SAPE  C31316850   0.506   1.114   5.273 -0.4006  0.3537  0.3050
  152SAPE  H13X16851   0.411   1.171   5.265 -0.0290  1.0503  0.7652
  152SAPE  H13Y16852   0.492   1.004   5.263 -1.6915  0.6944 -2.9409
  152SAPE  C31416853   0.573   1.155   5.132 -1.5089  0.1850 -0.0536
  152SAPE  H14X16854   0.501   1.150   5.047 -3.6287 -1.2530  1.6923
  152SAPE  H14Y16855   0.645   1.071   5.130  0.1971  1.6132 -0.7786
  152SAPE  C31516856   0.639   1.288   5.142 -0.0495  0.6422  0.6213
  152SAPE  H15X16857   0.707   1.306   5.056  2.7247 -1.4730  2.2064
  152SAPE  H15Y16858   0.712   1.288   5.226 -1.5515 -0.6922  1.9795
  152SAPE  C31616859   0.535   1.406   5.159  0.3386  0.6625  0.2628
  152SAPE  H16X16860   0.501   1.405   5.265 -0.1362 -0.7581  0.1257
  152SAPE  H16Y16861   0.447   1.384   5.094 -0.7419  0.9824  1.5747
  152SAPE  C31716862   0.573   1.549   5.127 -0.5284 -0.4081 -0.6367
  152SAPE  H17X16863   0.566   1.573   5.018  0.2789  1.6918 -0.2807
  152SAPE  H17Y16864   0.680   1.557   5.154 -0.1030 -3.3302 -1.1783
  152SAPE  C31816865   0.497   1.658   5.195  0.3906 -0.0295 -0.3580
  152SAPE  H18X16866   0.521   1.758   5.153  1.7441 -0.2600 -0.1918
  152SAPE  H18Y16867   0.509   1.662   5.306 -0.2845  1.4407 -0.3127
  152SAPE  H18Z16868   0.389   1.639   5.180  0.7963 -0.9308 -2.3825
  153SAPE     N16869   6.577   5.672   6.931  0.8951 -0.2152  0.2118
  153SAPE   HN116870   6.514   5.619   6.868  0.8671  1.1425 -0.9461
  153SAPE   HN216871   6.599   5.616   7.016 -0.2536 -0.5070  0.3411
  153SAPE   HN316872   6.511   5.749   6.955  0.1216  0.3796 -3.3291
  153SAPE   C1216873   6.716   5.726   6.895  0.6531  0.2244  0.6114
  153SAPE  H12A16874   6.699   5.813   6.829 -0.8529 -0.5375 -0.0595
  153SAPE  H12B16875   6.761   5.644   6.834  0.9920  0.8496  0.0100
  153SAPE   C1116876   6.799   5.749   7.020 -0.0413  0.8730  0.1599
  153SAPE  H11A16877   6.895   5.790   6.983  0.0718 -1.6324 -2.6919
  153SAPE  H11B16878   6.827   5.654   7.070  2.3227  1.6620  0.4486
  153SAPE     P16879   6.774   5.992   7.118  0.4892  0.2064 -0.0219
  153SAPE   O1316880   6.661   6.074   7.168 -0.7093 -0.1589 -0.7219
  153SAPE   O1416881   6.902   5.993   7.189 -0.0389  0.1787 -0.1449
  153SAPE   O1216882   6.725   5.839   7.107  0.5421 -0.6617 -0.0159
  153SAPE   O1116883   6.796   6.028   6.970  0.3732  0.2595 -0.5120
  153SAPE    C116884   6.923   6.047   6.921 -0.0322 -0.3990  0.2279
  153SAPE    HA16885   6.985   6.111   6.987 -0.9901 -0.7559  1.5035
  153SAPE    HB16886   6.981   5.953   6.912  1.3700  0.4492  0.0168
  153SAPE    C216887   6.906   6.104   6.781 -0.3866 -0.6843 -0.8143
  153SAPE    HS16888   6.849   6.200   6.781  1.7611  0.6721 -1.5520
  153SAPE   O2116889   6.836   6.008   6.703 -1.1930  0.1273 -0.1007
  153SAPE   C2116890   6.766   6.053   6.600  0.2593 -0.3602  0.5114
  153SAPE   O2216891   6.762   6.169   6.561 -0.1494  0.0203 -0.1031
  153SAPE   C2216892   6.699   5.934   6.528 -0.0779 -0.2866 -0.3997
  153SAPE   H2R16893   6.710   5.843   6.591 -1.3342 -0.5147 -0.4910
  153SAPE   H2S16894   6.591   5.958   6.524 -0.4294 -0.8205  3.0034
  153SAPE    C316895   7.043   6.123   6.717 -0.6263 -0.8065  0.4662
  153SAPE    HX16896   7.084   6.021   6.702 -1.6348 -1.4914  2.0384
  153SAPE    HY16897   7.111   6.172   6.791 -0.2713 -0.4676 -0.0828
  153SAPE   O3116898   7.042   6.208   6.596 -0.3239  0.0754  0.1228
  153SAPE   C3116899   7.033   6.333   6.620  0.3492 -0.5427  0.0031
  153SAPE   O3216900   7.037   6.389   6.727 -0.1300  0.3056 -0.3286
  153SAPE   C3216901   6.996   6.402   6.486 -0.2781 -0.0391 -0.4633
  153SAPE   H2X16902   7.037   6.505   6.480 -1.0761  0.2872 -0.5510
  153SAPE   H2Y16903   6.886   6.420   6.489 -0.5393 -1.2936 -1.6426
  153SAPE   C2316904   6.749   5.910   6.386 -0.3567  0.5607  0.4622
  153SAPE   H3R16905   6.777   6.007   6.340 -1.9838  0.3956 -1.0035
  153SAPE   H3S16906   6.668   5.880   6.316  0.9213  0.7719 -1.1866
  153SAPE   C2416907   6.857   5.807   6.381 -0.8495 -0.0706 -0.3886
  153SAPE   H4R16908   6.893   5.780   6.280  0.2280 -3.4695  0.7878
  153SAPE   H4S16909   6.835   5.707   6.425  2.6700 -2.2140 -3.0000
  153SAPE   C2516910   6.976   5.862   6.458  0.7013 -0.0206  0.0554
  153SAPE   H5R16911   6.966   5.869   6.568  0.4425  0.4322  0.0051
  153SAPE   C2616912   7.074   5.929   6.396 -0.5857  0.3254 -0.3479
  153SAPE   H6R16913   7.166   5.956   6.451 -0.2466 -1.6573  0.1551
  153SAPE   C2716914   7.094   5.967   6.253 -0.2317  0.1722 -0.6748
  153SAPE   H7R16915   7.028   6.051   6.224 -1.6123 -0.9986 -1.0196
  153SAPE   H7S16916   7.054   5.877   6.201 -0.9873  0.0087  0.1564
  153SAPE   C2816917   7.236   5.996   6.206  0.5418  0.1965  0.4792
  153SAPE   H8R16918   7.309   6.004   6.287  0.3341  0.4231  0.6457
  153SAPE   C2916919   7.270   6.011   6.078  0.3433  0.1150 -0.6847
  153SAPE   H9R16920   7.375   6.026   6.050 -0.1379  0.5268 -2.3992
  153SAPE  C21016921   7.177   5.996   5.958  0.3107  0.1240 -0.8107
  153SAPE  H10R16922   7.101   6.077   5.964 -0.9426 -0.9400 -1.7798
  153SAPE  H10S16923   7.119   5.903   5.980  1.5301  0.0338  2.7445
  153SAPE  C21116924   7.246   5.989   5.827  0.2623  0.5090  0.2022
  153SAPE  H11R16925   7.279   6.088   5.794  0.1466  1.1904  2.0178
  153SAPE  C21216926   7.274   5.874   5.755 -0.1112 -0.3893  0.3257
  153SAPE  H12R16927   7.330   5.879   5.661 -0.0164  1.3973  0.4564
  153SAPE  C21316928   7.236   5.733   5.792  0.4929  0.7717 -0.8563
  153SAPE  H13R16929   7.128   5.713   5.779  0.7679 -2.1216  0.3799
  153SAPE  H13S16930   7.255   5.709   5.899 -2.0005  0.2270 -0.4862
  153SAPE  C21416931   7.294   5.625   5.704  0.2249 -0.7360 -0.4166
  153SAPE  H14R16932   7.362   5.552   5.749  0.4418 -1.7018 -2.2108
  153SAPE  C21516933   7.295   5.615   5.571 -0.3460  0.2266 -0.1913
  153SAPE  H15R16934   7.341   5.526   5.526  2.7457  1.0227  1.1168
  153SAPE  C21616935   7.236   5.716   5.472  0.0036  0.2531 -0.7479
  153SAPE  H16R16936   7.189   5.799   5.529 -0.1375 -0.9539  0.9906
  153SAPE  H16S16937   7.155   5.665   5.416 -1.4289 -0.7119  2.0204
  153SAPE  C21716938   7.333   5.789   5.380  0.6443 -0.5666 -0.1628
  153SAPE  H17R16939   7.423   5.825   5.434  0.6849 -1.5435  0.4538
  153SAPE  H17S16940   7.281   5.868   5.322  2.2825  1.2764  0.7386
  153SAPE  C21816941   7.387   5.699   5.268 -0.7005  0.0289 -0.6152
  153SAPE  H18R16942   7.305   5.708   5.193 -1.1362 -0.4939 -0.2111
  153SAPE  H18S16943   7.396   5.596   5.309  0.5434  0.3539 -0.0482
  153SAPE  C21916944   7.519   5.736   5.199 -0.7126 -0.4177 -0.9548
  153SAPE  H19R16945   7.524   5.678   5.105  1.6585 -0.7092 -0.7078
  153SAPE  H19S16946   7.606   5.711   5.264  0.4604 -1.6790 -2.9241
  153SAPE  C22016947   7.518   5.878   5.154  0.5563 -0.3067 -0.8176
  153SAPE  H20R16948   7.420   5.902   5.109 -0.5755 -0.3336  1.4600
  153SAPE  H20S16949   7.608   5.893   5.090  1.2066 -2.9442 -0.6130
  153SAPE  H20T16950   7.522   5.946   5.242  0.6996 -0.9773 -0.2968
  153SAPE   C3316951   7.022   6.313   6.360 -0.3119 -0.0546  0.7202
  153SAPE   H3X16952   6.956   6.224   6.374 -0.4999  0.2299  1.7788
  153SAPE   H3Y16953   7.121   6.264   6.350 -0.0137  0.3459  1.5686
  153SAPE   C3416954   6.976   6.388   6.239  0.2330 -0.6456  0.3243
  153SAPE   H4X16955   7.045   6.470   6.207 -1.3917 -0.2461 -2.4830
  153SAPE   H4Y16956   6.874   6.431   6.247  0.6223  0.2342  0.8228
  153SAPE   C3516957   6.975   6.304   6.109 -0.1078 -0.4258  0.3507
  153SAPE   H5X16958   6.902   6.221   6.118  0.0026 -0.6369 -0.5647
  153SAPE   H5Y16959   7.080   6.267   6.103 -0.3975 -1.1759 -0.2110
  153SAPE   C3616960   6.926   6.388   5.990  0.5577  0.7693  0.4493
  153SAPE   H6X16961   6.969   6.489   5.977 -0.9470  1.1746 -2.1686
  153SAPE   H6Y16962   6.815   6.395   6.003  0.2597 -1.0290 -0.7276
  153SAPE   C3716963   6.942   6.307   5.854 -0.7212  0.0135 -0.0819
  153SAPE   H7X16964   6.870   6.223   5.858 -1.3560  0.5989  1.6382
  153SAPE   H7Y16965   7.047   6.271   5.845 -1.0776 -1.3829  1.1035
  153SAPE   C3816966   6.922   6.408   5.736  0.0368  0.4538 -0.4274
  153SAPE   H8X16967   7.012   6.472   5.742  0.3481 -0.1033  1.5372
  153SAPE   H8Y16968   6.833   6.474   5.748 -0.3885  0.6544 -3.7941
  153SAPE   C3916969   6.934   6.338   5.599 -0.7476 -0.2930 -0.3403
  153SAPE   H9X16970   6.843   6.275   5.582 -1.5070  1.1853 -2.1010
  153SAPE   H9Y16971   7.022   6.271   5.588  0.4017  1.1598 -0.1313
  153SAPE  C31016972   6.929   6.435   5.476  0.0138  0.3600 -0.2726
  153SAPE  H10X16973   7.001   6.518   5.494  0.5608 -0.2521  0.4357
  153SAPE  H10Y16974   6.824   6.469   5.485 -1.1104 -2.4064 -1.6211
  153SAPE  C31116975   6.957   6.373   5.344  0.0992  0.5011  0.0718
  153SAPE  H11X16976   6.900   6.279   5.332 -2.2012  1.9449 -1.0465
  153SAPE  H11Y16977   7.059   6.330   5.331 -1.2282 -1.9987 -3.9824
  153SAPE  C31216978   6.930   6.474   5.239 -0.1437  0.8290  0.2449
  153SAPE  H12X16979   6.986   6.567   5.261 -1.3138  1.8894 -1.0440
  153SAPE  H12Y16980   6.820   6.493   5.246  0.0679  1.5651  2.0763
  153SAPE  C31316981   6.969   6.442   5.097  0.1059  0.1157 -0.0869
  153SAPE  H13X16982   6.968   6.332   5.086 -2.6429  0.2506 -2.5141
  153SAPE  H13Y16983   7.068   6.483   5.068  0.7115 -1.4182 -0.2657
  153SAPE  C31416984   6.863   6.494   5.004 -0.7985 -0.9819  0.3882
  153SAPE  H14X16985   6.863   6.604   5.018 -0.4062 -0.3530 -3.4268
  153SAPE  H14Y16986   6.762   6.457   5.030 -0.9187 -2.1769 -1.5931
  153SAPE  C31516987   6.890   6.472   4.852  0.8409  0.0362  0.6930
  153SAPE  H15X16988   6.801   6.508   4.796  1.3046  0.0125 -0.0833
  153SAPE  H15Y16989   6.892   6.361   4.841 -1.8745 -0.3286  2.8154
  153SAPE  C31616990   7.010   6.532   4.782  0.2094  0.8470 -0.2146
  153SAPE  H16X16991   7.101   6.542   4.846 -0.3698 -0.4947  0.8560
  153SAPE  H16Y16992   6.987   6.634   4.744  0.1799  0.6801 -0.6482
  153SAPE  C31716993   7.036   6.449   4.655 -0.4387 -0.0671 -0.2694
  153SAPE  H17X16994   7.068   6.347   4.685  0.1180 -0.1022 -0.9805
  153SAPE  H17Y16995   7.114   6.512   4.608  0.3209  0.9059  2.1521
  153SAPE  C31816996   6.920   6.447   4.557  0.7357 -0.1191 -0.2482
  153SAPE  H18X16997   6.845   6.369   4.584 -0.2701  0.7450 -0.4785
  153SAPE  H18Y16998   6.951   6.441   4.450 -2.2162 -0.2996 -1.1843
  153SAPE  H18Z16999   6.872   6.547   4.560  0.1805 -0.3585 -0.9634
  154SAPE     N17000   3.550   4.354   7.404  0.2668 -0.1377  0.4963
  154SAPE   HN117001   3.616   4.323   7.330 -1.2344 -1.3433 -0.3896
  154SAPE   HN217002   3.561   4.311   7.498 -0.1358  0.4269  0.8113
  154SAPE   HN317003   3.455   4.332   7.366  0.3472 -0.0988  0.2703
  154SAPE   C1217004   3.566   4.504   7.423 -0.1428  0.3553  0.0688
  154SAPE  H12A17005   3.522   4.550   7.331  1.9398 -1.8346 -2.1684
  154SAPE  H12B17006   3.674   4.521   7.406 -0.1208  0.1347 -0.0187
  154SAPE   C1117007   3.515   4.556   7.556 -0.1600  0.0819  0.3547
  154SAPE  H11A17008   3.524   4.666   7.542  3.0606  0.0504  1.2768
  154SAPE  H11B17009   3.575   4.518   7.642  1.3038 -1.1100 -1.1081
  154SAPE     P17010   3.287   4.628   7.661 -0.0218  0.2240  0.1110
  154SAPE   O1317011   3.153   4.578   7.680  0.9641  0.0512  0.5883
  154SAPE   O1417012   3.350   4.657   7.791 -0.4887  0.2677 -0.0731
  154SAPE   O1217013   3.374   4.525   7.577 -0.0155 -0.6595  0.4262
  154SAPE   O1117014   3.273   4.752   7.567  0.4460 -0.1413 -0.0103
  154SAPE    C117015   3.233   4.743   7.432 -0.1577  0.1801  0.0475
  154SAPE    HA17016   3.300   4.684   7.366  0.5073 -0.1179  0.9641
  154SAPE    HB17017   3.129   4.705   7.421 -0.0095  0.2459 -2.0431
  154SAPE    C217018   3.228   4.877   7.365 -0.3913  0.2698 -0.4007
  154SAPE    HS17019   3.181   4.942   7.442  0.2784 -1.7312  1.8298
  154SAPE   O2117020   3.153   4.867   7.249 -0.1696  0.0365 -0.2557
  154SAPE   C2117021   3.121   4.988   7.202 -0.4387 -0.3286 -0.7646
  154SAPE   O2217022   3.150   5.093   7.255 -0.6175 -0.1364  0.4987
  154SAPE   C2217023   3.057   4.963   7.065  0.3476  0.7655 -0.3680
  154SAPE   H2R17024   3.078   4.858   7.036  2.2364  1.4991 -1.8613
  154SAPE   H2S17025   2.947   4.975   7.076  0.2948  0.4343 -0.5407
  154SAPE    C317026   3.378   4.926   7.332 -0.5434 -0.4963 -0.0864
  154SAPE    HX17027   3.425   4.924   7.433  1.1786  0.0218 -0.8374
  154SAPE    HY17028   3.379   5.027   7.286  1.8947 -0.4705 -0.0957
  154SAPE   O3117029   3.432   4.823   7.247 -0.5198  0.5692 -0.3491
  154SAPE   C3117030   3.452   4.848   7.119 -0.1545 -0.3126  0.4099
  154SAPE   O3217031   3.423   4.960   7.069 -0.0794  0.2400 -0.3340
  154SAPE   C3217032   3.505   4.729   7.045 -0.1204  0.0642 -0.7176
  154SAPE   H2X17033   3.611   4.715   7.076 -0.0039 -0.8353 -1.4739
  154SAPE   H2Y17034   3.512   4.754   6.937  1.6676 -0.0772 -0.6755
  154SAPE   C2317035   3.113   5.044   6.952 -0.3333 -0.5476 -0.6396
  154SAPE   H3R17036   3.224   5.042   6.947 -0.3159 -1.3338 -0.0512
  154SAPE   H3S17037   3.082   5.147   6.980  0.2374 -1.0045  1.8363
  154SAPE   C2417038   3.071   5.003   6.813 -0.1217 -0.6335 -0.2290
  154SAPE   H4R17039   2.961   5.013   6.822 -0.0326  0.4994 -0.1931
  154SAPE   H4S17040   3.093   4.895   6.809  3.8830 -0.0614  1.3575
  154SAPE   C2517041   3.145   5.087   6.707  0.0142  0.1889  0.1927
  154SAPE   H5R17042   3.224   5.154   6.744  2.7228 -2.5704 -0.1876
  154SAPE   C2617043   3.135   5.078   6.575  0.3690 -0.2598 -0.0104
  154SAPE   H6R17044   3.184   5.151   6.509 -0.7623  0.8075  0.2840
  154SAPE   C2717045   3.042   4.982   6.501  0.6518 -0.3780 -0.2641
  154SAPE   H7R17046   3.013   5.022   6.401 -0.8495 -1.5249 -0.3216
  154SAPE   H7S17047   2.950   4.971   6.562  0.8075  0.2052  0.0897
  154SAPE   C2817048   3.106   4.846   6.494  0.1628  0.5568  0.1059
  154SAPE   H8R17049   3.097   4.777   6.579 -0.1820 -0.7312 -0.9351
  154SAPE   C2917050   3.190   4.804   6.391  0.1354 -0.7180  0.4168
  154SAPE   H9R17051   3.212   4.697   6.376 -0.2329 -0.8060  0.4791
  154SAPE  C21017052   3.231   4.881   6.268  0.2300  0.2969 -0.7951
  154SAPE  H10R17053   3.286   4.975   6.292 -1.5497  1.1320  0.2630
  154SAPE  H10S17054   3.137   4.919   6.224 -0.8545  0.3921  1.4386
  154SAPE  C21117055   3.320   4.804   6.168  0.3388 -0.6161  0.0976
  154SAPE  H11R17056   3.418   4.771   6.204  1.2385  1.7956  0.0026
  154SAPE  C21217057   3.279   4.790   6.040 -0.2970 -0.8480  0.1196
  154SAPE  H12R17058   3.344   4.740   5.966 -2.7378 -1.9987 -1.3504
  154SAPE  C21317059   3.143   4.831   5.987 -0.7480 -0.0124 -0.0439
  154SAPE  H13R17060   3.139   4.942   5.983  1.6228  0.2199  1.8375
  154SAPE  H13S17061   3.084   4.784   6.069 -0.5587  0.3663  0.3092
  154SAPE  C21417062   3.114   4.757   5.857  0.3758 -0.6986 -0.2864
  154SAPE  H14R17063   3.066   4.659   5.871 -0.4059 -0.3798 -0.6824
  154SAPE  C21517064   3.146   4.799   5.729  0.7610 -0.3694  0.1327
  154SAPE  H15R17065   3.131   4.731   5.644 -1.0898  1.4478 -1.0828
  154SAPE  C21617066   3.208   4.932   5.696  0.2537 -0.6482  0.2399
  154SAPE  H16R17067   3.252   4.973   5.790  0.0644  4.1248 -1.5063
  154SAPE  H16S17068   3.121   4.992   5.662  0.4292 -1.1199 -1.0970
  154SAPE  C21717069   3.309   4.948   5.578 -0.0480  0.8731  0.4158
  154SAPE  H17R17070   3.404   4.891   5.594 -1.4922 -2.0263 -0.6213
  154SAPE  H17S17071   3.339   5.054   5.567  0.9852  0.6330  0.7270
  154SAPE  C21817072   3.265   4.889   5.436  0.1542 -0.4177 -0.5137
  154SAPE  H18R17073   3.183   4.959   5.408  1.3261  1.2540  0.1011
  154SAPE  H18S17074   3.224   4.786   5.450 -0.9661 -0.3381 -2.7279
  154SAPE  C21917075   3.370   4.887   5.328  0.6363  0.1114 -0.5371
  154SAPE  H19R17076   3.463   4.858   5.380 -0.7759 -1.2172  1.3630
  154SAPE  H19S17077   3.387   4.989   5.288  0.4973  0.3851  0.0962
  154SAPE  C22017078   3.339   4.800   5.210 -0.1704 -0.2868  0.0041
  154SAPE  H20R17079   3.342   4.691   5.232 -1.1388 -0.4176 -0.4797
  154SAPE  H20S17080   3.410   4.828   5.129 -2.3729  1.6447 -1.3770
  154SAPE  H20T17081   3.235   4.821   5.177 -0.7526 -0.4662  1.6536
  154SAPE   C3317082   3.419   4.598   7.067  0.5936 -0.4954  0.7156
  154SAPE   H3X17083   3.389   4.579   7.173  3.4973 -0.5112  1.6260
  154SAPE   H3Y17084   3.474   4.507   7.033 -0.4119 -1.2397  1.0093
  154SAPE   C3417085   3.286   4.615   6.986 -0.4618 -0.2130  0.2007
  154SAPE   H4X17086   3.226   4.698   7.029 -1.2808 -1.5226  1.6922
  154SAPE   H4Y17087   3.220   4.527   7.003 -1.7251  0.6022 -0.3401
  154SAPE   C3517088   3.298   4.621   6.832  0.1466  0.4876  0.1795
  154SAPE   H5X17089   3.347   4.718   6.807  2.7044 -0.3826  1.4989
  154SAPE   H5Y17090   3.199   4.635   6.784  0.6966  1.7097 -0.6832
  154SAPE   C3617091   3.370   4.510   6.765  0.0639 -0.6589  0.6380
  154SAPE   H6X17092   3.309   4.420   6.789  0.0256 -0.7536  0.1917
  154SAPE   H6Y17093   3.469   4.491   6.812 -0.2775 -1.4262  1.0721
  154SAPE   C3717094   3.388   4.531   6.619  0.2798  0.0892 -0.2560
  154SAPE   H7X17095   3.460   4.615   6.612  0.8656 -0.2699  1.1293
  154SAPE   H7Y17096   3.289   4.548   6.572  0.4532  1.0586 -0.2850
  154SAPE   C3817097   3.447   4.408   6.546 -1.2727  0.0904 -0.0303
  154SAPE   H8X17098   3.385   4.322   6.579  0.1119 -1.7948 -2.0620
  154SAPE   H8Y17099   3.550   4.395   6.584  0.1058  1.3304 -3.0383
  154SAPE   C3917100   3.444   4.424   6.398 -0.2776 -0.0166 -0.2797
  154SAPE   H9X17101   3.469   4.530   6.378  2.6454 -0.3631  0.9417
  154SAPE   H9Y17102   3.350   4.376   6.363 -1.3468  0.4654  1.7492
  154SAPE  C31017103   3.564   4.342   6.335  0.2441  0.0792 -0.0092
  154SAPE  H10X17104   3.534   4.235   6.342  0.4701  0.0293  0.1967
  154SAPE  H10Y17105   3.657   4.366   6.391 -0.9807  1.3412  1.6163
  154SAPE  C31117106   3.581   4.387   6.191  0.0708 -0.1927  0.3204
  154SAPE  H11X17107   3.691   4.397   6.172  0.1724  0.7285  1.2851
  154SAPE  H11Y17108   3.545   4.490   6.171 -2.2554 -0.9795  0.1991
  154SAPE  C31217109   3.510   4.302   6.090  0.0968  0.4166  0.0117
  154SAPE  H12X17110   3.403   4.292   6.117  0.1047  0.8739  0.2235
  154SAPE  H12Y17111   3.562   4.204   6.096  0.3207  0.5722  0.6395
  154SAPE  C31317112   3.529   4.350   5.941 -0.0689  0.7189  0.2489
  154SAPE  H13X17113   3.505   4.269   5.868  1.9332  0.7807 -0.5198
  154SAPE  H13Y17114   3.637   4.368   5.926 -0.2808  1.9279  0.0924
  154SAPE  C31417115   3.449   4.483   5.906  0.1273 -0.7608 -0.3633
  154SAPE  H14X17116   3.470   4.550   5.992 -3.4746 -0.8584  0.7706
  154SAPE  H14Y17117   3.340   4.462   5.906 -0.9686  3.8194 -1.3627
  154SAPE  C31517118   3.496   4.541   5.778  0.3550 -0.5832  0.1981
  154SAPE  H15X17119   3.589   4.602   5.787 -0.2430  0.3650  0.1722
  154SAPE  H15Y17120   3.414   4.605   5.739  1.1932  0.6937  0.4588
  154SAPE  C31617121   3.531   4.440   5.661 -0.0150 -0.6449  0.5601
  154SAPE  H16X17122   3.434   4.394   5.633  0.3372 -1.5923  0.8714
  154SAPE  H16Y17123   3.603   4.365   5.699  1.7218  1.3003  1.3201
  154SAPE  C31717124   3.595   4.506   5.536  0.1080 -0.4635 -0.5791
  154SAPE  H17X17125   3.619   4.437   5.453  1.8047  0.3269 -0.8038
  154SAPE  H17Y17126   3.688   4.555   5.572 -2.2506  2.9290  1.5303
  154SAPE  C31817127   3.517   4.623   5.489 -0.3433 -0.2496 -0.1501
  154SAPE  H18X17128   3.519   4.712   5.556  0.2443  0.4710 -1.0911
  154SAPE  H18Y17129   3.412   4.595   5.468 -0.1208  0.0663 -1.8695
  154SAPE  H18Z17130   3.566   4.668   5.400 -1.0275  0.3313 -0.2446
  155SAPE     N17131   5.568   6.342   7.110  0.3740  0.4175 -0.0979
  155SAPE   HN117132   5.659   6.307   7.073  0.7247 -2.4086  2.9928
  155SAPE   HN217133   5.505   6.266   7.143 -1.1105  0.4400 -2.6119
  155SAPE   HN317134   5.516   6.382   7.029 -0.8617  0.6225  0.7821
  155SAPE   C1217135   5.585   6.453   7.213 -0.1286  0.2689  0.1319
  155SAPE  H12A17136   5.657   6.417   7.289  0.7077  1.4207 -0.1014
  155SAPE  H12B17137   5.487   6.486   7.254  0.1289  2.0443 -0.5950
  155SAPE   C1117138   5.644   6.578   7.140 -0.1065  0.0038  0.5038
  155SAPE  H11A17139   5.748   6.546   7.117  1.0651  3.0428  1.1399
  155SAPE  H11B17140   5.656   6.654   7.220 -0.2839  0.4026  0.1532
  155SAPE     P17141   5.482   6.748   7.039 -0.0737  0.1628 -0.0741
  155SAPE   O1317142   5.373   6.708   7.129  0.1992  0.4554  0.1273
  155SAPE   O1417143   5.558   6.864   7.082 -0.6165  0.1179 -0.7746
  155SAPE   O1217144   5.576   6.622   7.023  0.4942  0.3221 -0.3381
  155SAPE   O1117145   5.431   6.771   6.888  0.2291  0.2167 -0.3328
  155SAPE    C117146   5.384   6.655   6.822  0.0829  0.1380 -0.1260
  155SAPE    HA17147   5.463   6.591   6.777  1.4602  0.5045  1.6419
  155SAPE    HB17148   5.329   6.583   6.886 -1.8336  1.2779 -0.4183
  155SAPE    C217149   5.281   6.683   6.702 -0.3863  0.1338 -0.4071
  155SAPE    HS17150   5.242   6.584   6.670 -0.9487  0.5631 -1.0918
  155SAPE   O2117151   5.353   6.758   6.599  0.1332 -0.5308  0.2539
  155SAPE   C2117152   5.362   6.710   6.475 -0.1649 -0.1099 -0.1918
  155SAPE   O2217153   5.318   6.603   6.441 -0.1788 -0.7729 -0.4470
  155SAPE   C2217154   5.432   6.807   6.375 -0.2382 -0.4195  0.0462
  155SAPE   H2R17155   5.399   6.907   6.409 -1.1697 -0.7774  0.2441
  155SAPE   H2S17156   5.542   6.795   6.370  0.0681  0.7834  2.3801
  155SAPE    C317157   5.149   6.760   6.756 -0.5810  0.4523 -0.0746
  155SAPE    HX17158   5.186   6.843   6.820  3.1664 -0.0996 -1.2645
  155SAPE    HY17159   5.103   6.691   6.830  0.5635 -1.0620 -0.7378
  155SAPE   O3117160   5.066   6.815   6.660 -0.1529  0.0956  0.4279
  155SAPE   C3117161   4.994   6.711   6.596  0.5044 -0.6588  0.4594
  155SAPE   O3217162   4.980   6.601   6.639 -0.4458 -0.2383  0.3784
  155SAPE   C3217163   4.958   6.755   6.452  0.6339 -0.7639  0.5945
  155SAPE   H2X17164   5.052   6.762   6.395 -0.7676 -1.2389 -1.9289
  155SAPE   H2Y17165   4.910   6.855   6.465  1.9000  0.1694 -1.4541
  155SAPE   C2317166   5.368   6.806   6.231 -0.1877  0.6019  0.8986
  155SAPE   H3R17167   5.259   6.824   6.245 -0.7574 -2.5646  1.2924
  155SAPE   H3S17168   5.383   6.708   6.182  1.0028  0.7266  0.9942
  155SAPE   C2417169   5.418   6.916   6.128  0.0026 -0.2219 -0.3730
  155SAPE   H4R17170   5.409   7.020   6.166 -0.6255 -0.8067  1.1283
  155SAPE   H4S17171   5.345   6.910   6.044  0.9375  0.5779 -1.2634
  155SAPE   C2517172   5.557   6.891   6.075 -0.1516 -0.2665  0.3678
  155SAPE   H5R17173   5.629   6.903   6.158 -1.6703  2.9441  1.3933
  155SAPE   C2617174   5.599   6.885   5.946 -0.9488  0.1007  0.1692
  155SAPE   H6R17175   5.706   6.868   5.931 -0.9211  1.2517 -1.2377
  155SAPE   C2717176   5.523   6.888   5.814 -0.2722  0.3665 -0.7129
  155SAPE   H7R17177   5.449   6.806   5.806 -1.0975  1.0256  0.0168
  155SAPE   H7S17178   5.609   6.873   5.746  1.0880 -0.0956  1.0118
  155SAPE   C2817179   5.456   7.022   5.798  0.2186  0.0599  0.7205
  155SAPE   H8R17180   5.403   7.049   5.890 -1.7332 -1.3699  0.1002
  155SAPE   C2917181   5.429   7.079   5.675  0.3904  0.3670  0.4255
  155SAPE   H9R17182   5.362   7.166   5.679 -0.0746  0.1026 -1.2600
  155SAPE  C21017183   5.473   7.035   5.542  0.5975 -0.4591  0.5371
  155SAPE  H10R17184   5.398   6.964   5.500 -1.3327  2.6076 -1.6375
  155SAPE  H10S17185   5.569   6.983   5.558  0.5941  0.3403  3.9596
  155SAPE  C21117186   5.506   7.153   5.445 -0.0191 -0.0754 -0.7798
  155SAPE  H11R17187   5.525   7.247   5.500  0.1325 -0.3933 -0.2813
  155SAPE  C21217188   5.487   7.153   5.313  0.0578  0.0965  0.1094
  155SAPE  H12R17189   5.506   7.246   5.258 -2.5931  0.5724 -0.1205
  155SAPE  C21317190   5.450   7.039   5.226 -0.4794 -0.3930 -0.1816
  155SAPE  H13R17191   5.340   7.025   5.224 -1.2080  3.8729 -3.0254
  155SAPE  H13S17192   5.499   6.952   5.274 -2.7126 -1.3824  0.4368
  155SAPE  C21417193   5.500   7.058   5.082 -0.1701 -0.3731 -0.3623
  155SAPE  H14R17194   5.567   7.143   5.061  1.4105 -1.7734 -1.2510
  155SAPE  C21517195   5.470   6.978   4.979  0.3573  0.4762 -0.0288
  155SAPE  H15R17196   5.520   6.996   4.883  0.2406 -0.7287 -0.3341
  155SAPE  C21617197   5.381   6.859   4.977  1.3960  0.7955 -0.9064
  155SAPE  H16R17198   5.358   6.824   5.079  1.8420  0.1639 -1.0138
  155SAPE  H16S17199   5.445   6.775   4.940 -0.2779 -1.0039  0.1379
  155SAPE  C21717200   5.246   6.899   4.913 -0.5601  0.4258 -0.2497
  155SAPE  H17R17201   5.198   6.980   4.971  1.9965  1.0536  1.1621
  155SAPE  H17S17202   5.182   6.809   4.923  1.1047 -0.7473  0.4089
  155SAPE  C21817203   5.256   6.936   4.767  0.3263  0.1699  0.5754
  155SAPE  H18R17204   5.303   6.852   4.711  1.0442 -0.4753  2.0866
  155SAPE  H18S17205   5.325   7.023   4.759 -0.2380  0.5725  0.0044
  155SAPE  C21917206   5.121   6.989   4.698  0.2848  0.4792 -0.0397
  155SAPE  H19R17207   5.143   7.000   4.590  0.7994 -1.4537 -0.1758
  155SAPE  H19S17208   5.110   7.089   4.744  0.6632  1.2163 -1.4979
  155SAPE  C22017209   4.994   6.906   4.721 -0.0190  0.0186 -0.5593
  155SAPE  H20R17210   4.930   6.917   4.631  0.0651 -1.2314 -0.7952
  155SAPE  H20S17211   4.933   6.913   4.814 -1.5821  0.0535 -1.5473
  155SAPE  H20T17212   5.031   6.801   4.720  2.3332  0.7765  0.0873
  155SAPE   C3317213   4.856   6.669   6.382 -0.3510 -0.4553  1.0144
  155SAPE   H3X17214   4.755   6.660   6.427  0.0626 -1.6917  1.7358
  155SAPE   H3Y17215   4.901   6.568   6.381  0.5465 -0.0629  0.7740
  155SAPE   C3417216   4.839   6.694   6.232 -0.8737 -0.0082 -0.2763
  155SAPE   H4X17217   4.769   6.777   6.206 -2.5626 -1.2329  0.1653
  155SAPE   H4Y17218   4.787   6.606   6.187 -1.9970  1.2286 -1.5179
  155SAPE   C3517219   4.973   6.711   6.161 -0.6118 -0.6812  0.5962
  155SAPE   H5X17220   5.050   6.636   6.184 -0.7107 -1.5912 -1.7904
  155SAPE   H5Y17221   5.022   6.806   6.193  0.2659 -0.7423 -0.5041
  155SAPE   C3617222   4.958   6.713   6.002 -0.0852  0.6942 -0.2522
  155SAPE   H6X17223   4.914   6.810   5.971  0.0481  1.4648  1.8278
  155SAPE   H6Y17224   4.892   6.626   5.982  2.7279 -1.7229  0.2836
  155SAPE   C3717225   5.090   6.693   5.924  0.2692 -0.2585  0.3258
  155SAPE   H7X17226   5.145   6.605   5.964  0.5217 -0.1741  0.1733
  155SAPE   H7Y17227   5.146   6.789   5.915  0.4177 -0.4643 -1.3297
  155SAPE   C3817228   5.058   6.649   5.775  0.0747  0.1939 -0.4871
  155SAPE   H8X17229   4.993   6.731   5.736  0.0811 -0.7831 -2.6898
  155SAPE   H8Y17230   5.004   6.553   5.777  0.5293 -0.0508  0.7832
  155SAPE   C3917231   5.176   6.619   5.682 -0.1927  0.5443 -0.0229
  155SAPE   H9X17232   5.216   6.520   5.713 -0.6090 -0.0166 -1.2295
  155SAPE   H9Y17233   5.251   6.700   5.692  1.2207 -0.4602 -2.0327
  155SAPE  C31017234   5.133   6.624   5.536  0.0557 -0.5094  0.9497
  155SAPE  H10X17235   5.073   6.714   5.510  2.0271  1.1494  1.8526
  155SAPE  H10Y17236   5.073   6.536   5.506  2.2531 -0.7791 -3.5378
  155SAPE  C31117237   5.250   6.600   5.430  0.7299 -0.7556 -0.1040
  155SAPE  H11X17238   5.295   6.501   5.453  0.6322 -0.5500  1.0236
  155SAPE  H11Y17239   5.326   6.680   5.446 -0.7096  0.8173 -0.7919
  155SAPE  C31217240   5.200   6.606   5.283  0.0571  0.2460  0.2984
  155SAPE  H12X17241   5.164   6.709   5.263 -1.0179 -0.1951 -0.1146
  155SAPE  H12Y17242   5.116   6.542   5.248  0.3049 -0.0856  0.3082
  155SAPE  C31317243   5.310   6.572   5.181  0.2863 -0.1310  0.3954
  155SAPE  H13X17244   5.411   6.611   5.205  1.5055 -2.2332 -0.9307
  155SAPE  H13Y17245   5.280   6.619   5.085  1.1172  2.4225  1.3197
  155SAPE  C31417246   5.343   6.426   5.159 -0.2291  0.6452  0.1310
  155SAPE  H14X17247   5.342   6.373   5.256 -0.3775  1.3585  0.5254
  155SAPE  H14Y17248   5.439   6.415   5.102 -0.1508  3.3305 -0.3720
  155SAPE  C31517249   5.241   6.356   5.065 -0.0286  0.0842 -0.1906
  155SAPE  H15X17250   5.139   6.399   5.078 -0.5214 -1.4808  1.4286
  155SAPE  H15Y17251   5.234   6.251   5.100  1.3639 -0.3098 -1.0051
  155SAPE  C31617252   5.282   6.363   4.914  0.6128 -0.4429 -0.2778
  155SAPE  H16X17253   5.379   6.313   4.898  0.2805 -1.3793  0.5670
  155SAPE  H16Y17254   5.285   6.472   4.893 -0.3585 -0.3124  0.1636
  155SAPE  C31717255   5.174   6.290   4.823 -0.4782 -0.4918  0.8498
  155SAPE  H17X17256   5.152   6.189   4.865 -0.8369 -1.1361 -0.8236
  155SAPE  H17Y17257   5.224   6.290   4.724  1.0137  1.8512  1.5140
  155SAPE  C31817258   5.038   6.351   4.797 -0.1414 -0.4820  0.3311
  155SAPE  H18X17259   4.971   6.300   4.724 -0.1935 -0.3761  0.3047
  155SAPE  H18Y17260   5.049   6.459   4.770  1.3022 -0.2659  1.6233
  155SAPE  H18Z17261   4.984   6.354   4.894 -1.4101 -1.7561 -0.2956
  156SAPE     N17262   0.351   1.397   7.839 -0.3687 -0.2500 -0.0079
  156SAPE   HN117263   0.345   1.317   7.773  0.5002 -0.1919 -0.1660
  156SAPE   HN217264   0.348   1.363   7.937  0.1621 -1.4555 -0.3886
  156SAPE   HN317265   0.264   1.454   7.830 -0.5221 -0.2559  1.2427
  156SAPE   C1217266   0.484   1.478   7.819  0.5198 -0.0170  1.0641
  156SAPE  H12A17267   0.567   1.410   7.851  0.5849 -0.6640 -0.3661
  156SAPE  H12B17268   0.471   1.560   7.893 -2.3760  0.0338  0.6047
  156SAPE   C1117269   0.509   1.515   7.675 -0.2392 -0.3292  0.3681
  156SAPE  H11A17270   0.526   1.425   7.611  0.2828  0.3738 -0.5015
  156SAPE  H11B17271   0.599   1.580   7.674 -0.7008  0.3502 -1.7285
  156SAPE     P17272   0.354   1.576   7.475  0.2812 -0.1742  0.3171
  156SAPE   O1317273   0.299   1.440   7.456 -0.4084 -0.3252 -0.5084
  156SAPE   O1417274   0.267   1.689   7.435  0.1027 -0.0373 -0.7193
  156SAPE   O1217275   0.405   1.599   7.627  0.4094  0.1728  0.5217
  156SAPE   O1117276   0.480   1.592   7.388  0.0095  0.2642 -0.0876
  156SAPE    C117277   0.551   1.489   7.322  0.4121  0.0394  0.1049
  156SAPE    HA17278   0.658   1.519   7.317  0.4940  1.0349  4.1239
  156SAPE    HB17279   0.552   1.394   7.380 -0.1890 -1.1723 -1.7794
  156SAPE    C217280   0.507   1.462   7.172 -0.6256  0.2153 -0.2250
  156SAPE    HS17281   0.589   1.401   7.127  0.5597  1.5443  0.0658
  156SAPE   O2117282   0.489   1.591   7.104  0.1423  0.4735  0.5724
  156SAPE   C2117283   0.594   1.633   7.047 -1.3298 -0.2374 -0.1723
  156SAPE   O2217284   0.711   1.592   7.054  0.8042 -0.0037  0.8140
  156SAPE   C2217285   0.553   1.759   6.981 -0.0967 -0.5952  0.0335
  156SAPE   H2R17286   0.517   1.829   7.058  3.6321  1.2778  0.3142
  156SAPE   H2S17287   0.640   1.813   6.937  0.4325 -0.1075  1.6109
  156SAPE    C317288   0.382   1.376   7.169 -0.6546  1.3302  0.2403
  156SAPE    HX17289   0.310   1.443   7.221  0.1557  0.7057  2.2600
  156SAPE    HY17290   0.383   1.285   7.232 -2.4752  0.8201 -0.4109
  156SAPE   O3117291   0.346   1.347   7.030 -0.8111  0.1720 -0.0024
  156SAPE   C3117292   0.221   1.373   7.000  0.2644  0.2789  0.0171
  156SAPE   O3217293   0.144   1.437   7.065  0.2950  0.0758  0.2151
  156SAPE   C3217294   0.195   1.312   6.861 -0.0870  0.6095 -0.5867
  156SAPE   H2X17295   0.207   1.202   6.872 -0.4839  0.5928 -0.3207
  156SAPE   H2Y17296   0.271   1.352   6.791 -2.7680  0.3181 -3.8917
  156SAPE   C2317297   0.458   1.743   6.866 -0.8867  0.2839  0.4021
  156SAPE   H3R17298   0.449   1.832   6.799 -0.1552  0.2859  0.2996
  156SAPE   H3S17299   0.356   1.726   6.906 -0.1949 -0.6700  1.8747
  156SAPE   C2417300   0.496   1.619   6.777 -0.1505 -0.2165  0.0996
  156SAPE   H4R17301   0.413   1.624   6.703 -0.5674  2.0848  0.6580
  156SAPE   H4S17302   0.482   1.521   6.828  0.8140 -1.8919 -2.6604
  156SAPE   C2517303   0.626   1.611   6.702  0.5408 -0.7834  0.1010
  156SAPE   H5R17304   0.669   1.713   6.701 -2.7268  0.7333 -1.3076
  156SAPE   C2617305   0.681   1.506   6.639 -1.0713  0.8372  0.4286
  156SAPE   H6R17306   0.779   1.512   6.588 -0.7893 -0.5036  0.7602
  156SAPE   C2717307   0.633   1.363   6.639 -0.0164  0.1821 -0.2588
  156SAPE   H7R17308   0.522   1.370   6.652 -0.0751 -1.6693  0.5077
  156SAPE   H7S17309   0.668   1.318   6.734  0.3019  0.1723 -0.3810
  156SAPE   C2817310   0.666   1.264   6.526 -0.3120 -0.3611  0.3783
  156SAPE   H8R17311   0.723   1.178   6.563  2.9773  2.1004  1.5638
  156SAPE   C2917312   0.629   1.282   6.397  0.6261  0.4638  0.3195
  156SAPE   H9R17313   0.650   1.200   6.326 -0.5642  0.3005  0.1327
  156SAPE  C21017314   0.561   1.397   6.327 -0.1450  0.4196  0.4208
  156SAPE  H10R17315   0.561   1.489   6.389 -1.8534  0.0652  0.9816
  156SAPE  H10S17316   0.454   1.372   6.316  0.5293 -2.1911 -1.0240
  156SAPE  C21117317   0.637   1.433   6.204 -0.1455 -0.2940  0.0704
  156SAPE  H11R17318   0.732   1.478   6.237 -0.4558 -2.4301  4.6835
  156SAPE  C21217319   0.597   1.421   6.079 -0.2045 -1.0738  0.2460
  156SAPE  H12R17320   0.654   1.462   5.994 -0.4885  3.1102  1.8083
  156SAPE  C21317321   0.469   1.363   6.023 -0.1734  0.5634  0.5078
  156SAPE  H13R17322   0.425   1.306   6.108  2.0429 -0.5269  0.9777
  156SAPE  H13S17323   0.490   1.282   5.951 -1.0865  0.7480  0.0147
  156SAPE  C21417324   0.372   1.467   5.969  0.2739 -0.0132 -0.2281
  156SAPE  H14R17325   0.296   1.498   6.042  0.1989  0.3930 -0.4775
  156SAPE  C21517326   0.344   1.510   5.844 -0.4031 -0.5797  0.5162
  156SAPE  H15R17327   0.258   1.576   5.824 -1.6871 -2.0564  0.9721
  156SAPE  C21617328   0.426   1.474   5.723 -0.4285  0.2960  0.1577
  156SAPE  H16R17329   0.367   1.484   5.630 -1.1948 -1.0691  0.4761
  156SAPE  H16S17330   0.469   1.372   5.725  1.7028  1.1362  2.2077
  156SAPE  C21717331   0.546   1.567   5.723 -0.4610 -0.8012 -0.7008
  156SAPE  H17R17332   0.611   1.560   5.812 -0.0938  0.2724 -0.8634
  156SAPE  H17S17333   0.513   1.673   5.721 -0.4993 -0.7400  1.4332
  156SAPE  C21817334   0.634   1.543   5.594  0.2283 -0.6313  0.0895
  156SAPE  H18R17335   0.690   1.634   5.566 -2.1593  0.0671 -3.0442
  156SAPE  H18S17336   0.565   1.518   5.510 -0.4202 -0.8112  0.6606
  156SAPE  C21917337   0.726   1.422   5.620 -0.1238  0.4988 -0.0451
  156SAPE  H19R17338   0.673   1.324   5.621  0.2799  0.2347 -1.4685
  156SAPE  H19S17339   0.773   1.439   5.719  1.9536 -1.7630 -0.5401
  156SAPE  C22017340   0.827   1.418   5.507 -0.4702 -0.2842 -0.0692
  156SAPE  H20R17341   0.784   1.390   5.408 -0.3636 -2.7517  0.5138
  156SAPE  H20S17342   0.903   1.340   5.529  1.6122  1.5601 -0.3480
  156SAPE  H20T17343   0.885   1.513   5.510 -0.0268 -0.5577  2.2151
  156SAPE   C3317344   0.059   1.351   6.807  0.5687  0.6376  0.2087
  156SAPE   H3X17345   0.041   1.460   6.822 -1.2709  0.3045  0.7534
  156SAPE   H3Y17346  -0.019   1.289   6.856  0.5067  1.0409  0.6366
  156SAPE   C3417347   0.037   1.331   6.655  0.3106 -0.2580 -0.4114
  156SAPE   H4X17348  -0.069   1.360   6.637  0.9670  0.5503 -3.5793
  156SAPE   H4Y17349   0.040   1.226   6.618 -1.6951 -0.2977 -0.5722
  156SAPE   C3517350   0.116   1.423   6.569 -0.2845  0.9991 -0.1927
  156SAPE   H5X17351   0.225   1.416   6.587 -0.1528  0.9269 -0.9880
  156SAPE   H5Y17352   0.084   1.521   6.610 -1.5491  0.1395  0.9438
  156SAPE   C3617353   0.082   1.431   6.422 -0.0285 -0.5942  0.3584
  156SAPE   H6X17354  -0.029   1.431   6.412 -0.3672  2.6430  2.5954
  156SAPE   H6Y17355   0.107   1.332   6.378  3.1737  0.4065 -0.3218
  156SAPE   C3717356   0.137   1.546   6.339 -0.2762  0.0303 -1.1734
  156SAPE   H7X17357   0.245   1.522   6.329 -0.3515 -2.1605  1.8849
  156SAPE   H7Y17358   0.133   1.639   6.400  1.2262 -1.1503  0.8494
  156SAPE   C3817359   0.065   1.555   6.208  0.4924  0.0039  0.5948
  156SAPE   H8X17360  -0.046   1.560   6.213  0.3924 -2.1077  1.6623
  156SAPE   H8Y17361   0.080   1.467   6.142 -1.9368 -1.6181  2.0362
  156SAPE   C3917362   0.107   1.677   6.132  0.6170 -0.2133  0.5635
  156SAPE   H9X17363   0.215   1.664   6.106  0.2846  1.0376 -1.6753
  156SAPE   H9Y17364   0.092   1.768   6.193 -0.3856  0.0702 -0.0936
  156SAPE  C31017365   0.031   1.692   5.994 -0.7423 -0.4558 -0.3003
  156SAPE  H10X17366  -0.080   1.698   6.007 -0.5227  0.9289  1.3093
  156SAPE  H10Y17367   0.059   1.600   5.939  1.3063  0.7898 -1.4557
  156SAPE  C31117368   0.090   1.811   5.921  0.4763 -0.1527  0.1318
  156SAPE  H11X17369   0.200   1.798   5.930  0.6210  0.9629  0.0941
  156SAPE  H11Y17370   0.070   1.907   5.972  0.8715 -0.3532  0.6710
  156SAPE  C31217371   0.043   1.822   5.776  0.6356  0.0085  0.2951
  156SAPE  H12X17372  -0.068   1.826   5.783  0.7958  1.9950  4.7944
  156SAPE  H12Y17373   0.069   1.728   5.722 -1.0402 -0.5757  0.4483
  156SAPE  C31317374   0.076   1.954   5.701  0.0356 -0.0894 -0.3931
  156SAPE  H13X17375   0.187   1.948   5.696  0.2136  1.5192  0.6558
  156SAPE  H13Y17376   0.063   2.035   5.776  3.5281 -0.2346  0.5589
  156SAPE  C31417377   0.002   1.974   5.568 -0.6611  0.1848 -0.6869
  156SAPE  H14X17378  -0.105   1.977   5.600 -1.0563 -0.8141 -1.8535
  156SAPE  H14Y17379   0.013   1.876   5.517  1.4894 -0.4171  0.7789
  156SAPE  C31517380   0.045   2.099   5.498  1.2137 -0.0449  0.2383
  156SAPE  H15X17381   0.141   2.092   5.442  2.0875  3.1254  1.0869
  156SAPE  H15Y17382   0.061   2.179   5.575 -0.4528  0.6754 -0.1199
  156SAPE  C31617383  -0.050   2.144   5.386  0.0210  0.4899 -0.3796
  156SAPE  H16X17384  -0.155   2.129   5.419  0.1731  0.4869  0.1097
  156SAPE  H16Y17385  -0.028   2.084   5.296  2.4302 -0.4264  0.7413
  156SAPE  C31717386  -0.037   2.290   5.362 -0.3083 -0.8245 -0.0130
  156SAPE  H17X17387   0.067   2.319   5.336 -0.8971  2.5733  0.8819
  156SAPE  H17Y17388  -0.049   2.359   5.449  0.0648  0.6423 -1.0887
  156SAPE  C31817389  -0.124   2.336   5.247  0.1960 -0.6009  0.2427
  156SAPE  H18X17390  -0.097   2.282   5.154  0.2265 -1.7574  0.9051
  156SAPE  H18Y17391  -0.101   2.437   5.208  0.5891 -0.9478 -0.4387
  156SAPE  H18Z17392  -0.233   2.317   5.262  0.0773 -1.1401 -1.1952
  157SAPE     N17393   6.471   6.241   7.232 -0.3262  0.0857 -0.2366
  157SAPE   HN117394   6.471   6.296   7.143 -1.3175  0.6366  0.0881
  157SAPE   HN217395   6.500   6.302   7.311 -0.7948  1.0860 -0.8057
  157SAPE   HN317396   6.541   6.165   7.230 -1.5363 -1.1214  1.0279
  157SAPE   C1217397   6.336   6.185   7.253  0.7084 -0.1795 -0.5965
  157SAPE  H12A17398   6.281   6.281   7.265  2.8871  1.0011  0.7662
  157SAPE  H12B17399   6.328   6.130   7.350 -0.2908 -0.5824 -0.9020
  157SAPE   C1117400   6.290   6.088   7.143  0.0913 -0.7851  0.4560
  157SAPE  H11A17401   6.355   5.999   7.156  0.1248 -0.9468 -0.6832
  157SAPE  H11B17402   6.314   6.136   7.046  1.2128  1.4811  1.7692
  157SAPE     P17403   6.074   5.939   7.090  0.7095 -0.0190  0.2274
  157SAPE   O1317404   6.108   5.815   7.166  0.4119 -0.3417  0.3584
  157SAPE   O1417405   5.931   5.962   7.065  0.3235  0.2953  0.5388
  157SAPE   O1217406   6.148   6.066   7.163  0.0804  0.2543 -0.4134
  157SAPE   O1117407   6.155   5.932   6.951 -0.3389 -0.0876 -0.4117
  157SAPE    C117408   6.128   6.045   6.857  0.0381  0.3475 -0.2155
  157SAPE    HA17409   6.054   6.123   6.884  1.1838  1.3586  0.0948
  157SAPE    HB17410   6.223   6.098   6.835  0.8041 -1.0397 -0.3800
  157SAPE    C217411   6.085   5.994   6.717 -0.0885  0.3139  0.7982
  157SAPE    HS17412   6.070   6.085   6.655 -2.5842  0.2984  1.2559
  157SAPE   O2117413   5.960   5.911   6.722  0.3271 -0.3391  0.4124
  157SAPE   C2117414   5.843   5.979   6.746 -1.0599 -0.1572  0.4312
  157SAPE   O2217415   5.839   6.099   6.769  0.1550  0.0572 -0.0265
  157SAPE   C2217416   5.729   5.882   6.715 -0.1768 -0.4046  0.0273
  157SAPE   H2R17417   5.772   5.780   6.711 -1.2190 -0.8735  0.5578
  157SAPE   H2S17418   5.660   5.902   6.800 -0.0489  1.5338 -0.2731
  157SAPE    C317419   6.192   5.903   6.649  0.5111 -0.1956  0.2911
  157SAPE    HX17420   6.192   5.808   6.707  0.4075  0.9518  2.2529
  157SAPE    HY17421   6.294   5.948   6.648  1.9201 -3.1447  0.6562
  157SAPE   O3117422   6.160   5.874   6.510  0.4738  0.1333  0.1887
  157SAPE   C3117423   6.238   5.778   6.456  0.4870  0.1674  1.1863
  157SAPE   O3217424   6.327   5.717   6.511  0.3476 -0.0129 -0.1356
  157SAPE   C3217425   6.203   5.774   6.305 -0.1944  0.5941 -0.7600
  157SAPE   H2X17426   6.223   5.874   6.260  0.5414  1.1001  0.6285
  157SAPE   H2Y17427   6.096   5.748   6.297  0.1768 -0.5983 -2.4274
  157SAPE   C2317428   5.642   5.913   6.590  0.0280  0.1243  0.1570
  157SAPE   H3R17429   5.631   6.023   6.572 -0.5499 -0.3008 -2.5856
  157SAPE   H3S17430   5.542   5.873   6.616 -0.0754 -0.8285 -1.5700
  157SAPE   C2417431   5.696   5.852   6.464  0.3846  0.1558  0.6194
  157SAPE   H4R17432   5.615   5.870   6.391  0.4746  1.6422  0.8670
  157SAPE   H4S17433   5.703   5.742   6.480 -2.4011  0.0678  1.8066
  157SAPE   C2517434   5.829   5.908   6.429  0.6752  0.4022 -0.2083
  157SAPE   H5R17435   5.904   5.851   6.485 -0.1327 -1.5763 -1.0254
  157SAPE   C2617436   5.867   6.015   6.364 -0.2664 -0.1815  0.4449
  157SAPE   H6R17437   5.974   6.031   6.348 -0.4050  1.0544  0.6378
  157SAPE   C2717438   5.779   6.109   6.284  0.6215 -0.1547  0.1986
  157SAPE   H7R17439   5.700   6.144   6.353 -0.3028  2.0250 -1.8047
  157SAPE   H7S17440   5.726   6.046   6.209 -2.2427  3.0173 -0.6937
  157SAPE   C2817441   5.851   6.218   6.211  0.1981  0.2589 -0.3900
  157SAPE   H8R17442   5.859   6.312   6.267 -1.5536  0.4364 -0.3950
  157SAPE   C2917443   5.917   6.210   6.098 -0.0386  0.3913  0.1072
  157SAPE   H9R17444   5.959   6.305   6.062 -0.4259  0.3138 -0.5645
  157SAPE  C21017445   5.920   6.095   6.005 -0.0135  0.3071  0.8226
  157SAPE  H10R17446   5.900   6.139   5.905 -3.5747 -1.0054  0.8108
  157SAPE  H10S17447   5.835   6.026   6.025 -0.5690  0.6666 -0.2295
  157SAPE  C21117448   6.042   6.008   6.007 -0.4064  0.4448  0.4958
  157SAPE  H11R17449   6.061   5.957   6.102 -2.8891 -2.6379 -0.4965
  157SAPE  C21217450   6.121   5.982   5.905  0.4925 -0.1708  0.1481
  157SAPE  H12R17451   6.214   5.929   5.929  0.4208 -0.0402  0.7539
  157SAPE  C21317452   6.108   6.034   5.764 -0.1982 -0.4105 -0.2214
  157SAPE  H13R17453   6.215   6.055   5.741 -0.5603 -0.3253 -1.9625
  157SAPE  H13S17454   6.057   6.133   5.772  2.2297  0.9223 -0.1325
  157SAPE  C21417455   6.039   5.943   5.665 -0.4624 -0.6838 -0.4473
  157SAPE  H14R17456   5.955   5.884   5.706 -1.2082 -0.3134 -1.3837
  157SAPE  C21517457   6.081   5.917   5.540  0.3433  0.4351  0.0840
  157SAPE  H15R17458   6.023   5.847   5.477  0.7887  0.1563 -0.0145
  157SAPE  C21617459   6.187   5.989   5.458 -0.3034 -0.0167 -0.0800
  157SAPE  H16R17460   6.225   5.930   5.372  3.4664  0.7344  0.8672
  157SAPE  H16S17461   6.277   6.012   5.518  0.8184 -2.6174 -0.6477
  157SAPE  C21717462   6.129   6.124   5.398  0.3830  0.0686 -0.3794
  157SAPE  H17R17463   6.207   6.189   5.354  1.8522  0.2357  2.2833
  157SAPE  H17S17464   6.093   6.183   5.485 -0.3430 -1.4095  0.3595
  157SAPE  C21817465   6.013   6.099   5.300 -0.2684 -0.5907  0.0547
  157SAPE  H18R17466   5.938   6.023   5.331 -0.6307  0.2225  1.2008
  157SAPE  H18S17467   6.060   6.049   5.212 -1.2479 -1.5115  0.0293
  157SAPE  C21917468   5.928   6.227   5.283 -0.0140  0.0953  0.0309
  157SAPE  H19R17469   5.901   6.269   5.382  0.3401  0.2216  0.0758
  157SAPE  H19S17470   5.841   6.177   5.236  2.3691 -2.2096 -2.3486
  157SAPE  C22017471   5.978   6.340   5.194  0.5113  0.5268  0.3380
  157SAPE  H20R17472   5.918   6.431   5.217  1.7010  1.2220  0.7990
  157SAPE  H20S17473   5.972   6.316   5.086  1.1846 -1.3875  0.6932
  157SAPE  H20T17474   6.085   6.358   5.217  0.2012  1.5394  1.0867
  157SAPE   C3317475   6.271   5.654   6.226 -0.1177 -0.7392 -0.8642
  157SAPE   H3X17476   6.196   5.572   6.225  0.6484 -1.7146  3.6843
  157SAPE   H3Y17477   6.363   5.619   6.278  0.2112  0.0473 -0.9049
  157SAPE   C3417478   6.299   5.677   6.073 -0.0996 -0.5042 -0.3817
  157SAPE   H4X17479   6.197   5.705   6.038 -1.4714 -0.8073  3.0055
  157SAPE   H4Y17480   6.341   5.578   6.046  0.0884 -0.1264 -1.5513
  157SAPE   C3517481   6.405   5.783   6.040  0.1389  0.4496  0.5497
  157SAPE   H5X17482   6.501   5.767   6.094 -0.1317  0.9699  1.1880
  157SAPE   H5Y17483   6.371   5.883   6.072  2.3747  2.5728 -2.9825
  157SAPE   C3617484   6.429   5.787   5.887 -0.3311 -0.1263  0.1324
  157SAPE   H6X17485   6.348   5.818   5.818 -0.7861 -1.6521 -0.0586
  157SAPE   H6Y17486   6.455   5.685   5.849 -0.6766 -0.2476  0.2220
  157SAPE   C3717487   6.553   5.869   5.853  0.0443 -0.5975  0.0720
  157SAPE   H7X17488   6.642   5.831   5.907 -0.0240 -0.0840  0.5574
  157SAPE   H7Y17489   6.539   5.976   5.877 -2.5027 -1.2906  2.0924
  157SAPE   C3817490   6.595   5.859   5.703 -0.0068  0.0173  0.3050
  157SAPE   H8X17491   6.511   5.900   5.643  2.1662  2.8095 -1.0198
  157SAPE   H8Y17492   6.597   5.750   5.686 -2.7746 -0.2015  0.8276
  157SAPE   C3917493   6.724   5.926   5.654  0.1765  0.0563 -0.0005
  157SAPE   H9X17494   6.805   5.901   5.726 -0.0740  0.9090  0.5943
  157SAPE   H9Y17495   6.702   6.035   5.661 -0.3123 -0.1452  3.2382
  157SAPE  C31017496   6.753   5.881   5.511  0.2466 -0.9877  0.3537
  157SAPE  H10X17497   6.668   5.894   5.441 -0.2117 -1.9122  0.7204
  157SAPE  H10Y17498   6.763   5.771   5.525 -3.8844 -2.0373 -3.1546
  157SAPE  C31117499   6.873   5.953   5.453 -0.0221 -0.0382  0.6010
  157SAPE  H11X17500   6.962   5.912   5.506 -0.3477  1.6527  2.5770
  157SAPE  H11Y17501   6.862   6.063   5.465  2.3177  0.1471  1.5819
  157SAPE  C31217502   6.876   5.929   5.290 -0.0637 -0.0479 -0.7595
  157SAPE  H12X17503   6.785   5.981   5.254 -0.2487  0.3101  0.1849
  157SAPE  H12Y17504   6.885   5.823   5.258 -1.5491 -0.0603 -1.2092
  157SAPE  C31317505   6.997   6.000   5.227  0.4652  0.4008 -0.5494
  157SAPE  H13X17506   7.091   5.970   5.276  0.3119 -0.3796 -0.7174
  157SAPE  H13Y17507   6.992   6.110   5.240  0.8361  0.2618  0.8521
  157SAPE  C31417508   7.014   5.983   5.081 -0.1927 -0.3772  0.2259
  157SAPE  H14X17509   7.028   5.873   5.076 -1.8707 -0.6036 -0.3291
  157SAPE  H14Y17510   7.100   6.047   5.052 -1.8635  2.7193  1.7137
  157SAPE  C31517511   6.889   6.012   4.992  0.0368 -0.2327 -0.0878
  157SAPE  H15X17512   6.852   6.115   5.011  1.2177  0.2329 -0.2078
  157SAPE  H15Y17513   6.822   5.929   5.021  2.0992 -1.2925  2.0686
  157SAPE  C31617514   6.908   6.003   4.845 -0.4341  0.2766  0.3171
  157SAPE  H16X17515   6.916   5.899   4.805  0.3745  0.5239 -0.1735
  157SAPE  H16Y17516   7.000   6.048   4.803 -0.5304 -1.7894 -2.4069
  157SAPE  C31717517   6.796   6.042   4.747  0.5046 -0.8967  0.4738
  157SAPE  H17X17518   6.748   6.133   4.788  2.5296  0.6269 -0.3403
  157SAPE  H17Y17519   6.714   5.968   4.735  0.2857 -0.9190  1.9860
  157SAPE  C31817520   6.851   6.069   4.608  0.3175  0.1372  0.0366
  157SAPE  H18X17521   6.763   6.093   4.545  0.8868 -1.6509 -1.5461
  157SAPE  H18Y17522   6.906   5.986   4.559 -0.9475 -0.3646 -0.5768
  157SAPE  H18Z17523   6.924   6.152   4.604 -0.4745  0.8258 -0.3627
  158SAPE     N17524   2.248   3.156   7.082  0.5597  0.1860  0.2242
  158SAPE   HN117525   2.234   3.259   7.078 -0.3256  0.0501 -0.8807
  158SAPE   HN217526   2.287   3.150   7.178 -0.7360  0.1861  0.7713
  158SAPE   HN317527   2.307   3.126   7.002 -0.3576 -0.5058 -0.2137
  158SAPE   C1217528   2.128   3.075   7.077  0.3352  0.0867 -0.7030
  158SAPE  H12A17529   2.050   3.126   7.138 -0.3091 -0.6936 -0.8596
  158SAPE  H12B17530   2.144   2.973   7.118 -3.2310  0.1196  1.2110
  158SAPE   C1117531   2.091   3.045   6.931 -0.1537  0.6251 -0.3043
  158SAPE  H11A17532   2.061   3.143   6.887 -1.3709  1.0597  1.3928
  158SAPE  H11B17533   1.994   2.991   6.933  0.4858 -0.5571 -0.2740
  158SAPE     P17534   2.294   3.030   6.754 -0.3434 -0.1666  0.1752
  158SAPE   O1317535   2.390   3.117   6.823  0.5099 -0.4887  0.6924
  158SAPE   O1417536   2.344   2.908   6.687  0.0488  0.3073  0.4684
  158SAPE   O1217537   2.206   2.977   6.869 -0.3880 -0.1403 -0.1072
  158SAPE   O1117538   2.197   3.115   6.658  0.4769 -1.0355 -0.4855
  158SAPE    C117539   2.204   3.259   6.666 -0.0405 -0.7250  0.5015
  158SAPE    HA17540   2.102   3.293   6.639  1.0432  4.1198  1.6166
  158SAPE    HB17541   2.208   3.299   6.770  2.2871  1.2604 -0.2396
  158SAPE    C217542   2.307   3.319   6.564  0.2857 -0.9456  0.4226
  158SAPE    HS17543   2.413   3.296   6.588  1.2237  2.2849 -0.0523
  158SAPE   O2117544   2.289   3.464   6.566 -0.4058  1.0898  0.0206
  158SAPE   C2117545   2.398   3.543   6.542 -0.4590  0.7166 -0.0624
  158SAPE   O2217546   2.513   3.507   6.558 -0.2457 -0.0023 -0.2320
  158SAPE   C2217547   2.352   3.687   6.526  0.3256 -0.1100  0.3805
  158SAPE   H2R17548   2.259   3.694   6.587 -0.0281  0.4023 -0.1996
  158SAPE   H2S17549   2.425   3.759   6.568  0.4948 -0.9440  1.5702
  158SAPE    C317550   2.266   3.272   6.418 -0.1999 -0.5079  0.1599
  158SAPE    HX17551   2.158   3.290   6.398 -0.1767 -0.1561  0.3423
  158SAPE    HY17552   2.272   3.162   6.433 -0.8466 -0.6243 -0.3920
  158SAPE   O3117553   2.358   3.322   6.322  0.1791  0.4458  0.1368
  158SAPE   C3117554   2.310   3.411   6.224  0.2210  0.3141  0.5926
  158SAPE   O3217555   2.196   3.452   6.220 -0.1067 -0.3890 -0.3391
  158SAPE   C3217556   2.420   3.459   6.134  0.5045  0.2102 -0.6342
  158SAPE   H2X17557   2.519   3.423   6.168  0.8803  1.7653  0.0037
  158SAPE   H2Y17558   2.427   3.570   6.136  1.1748  0.1669 -0.0643
  158SAPE   C2317559   2.326   3.732   6.377  0.5172  0.6169 -0.1960
  158SAPE   H3R17560   2.232   3.685   6.340 -0.1263  1.3473  0.4782
  158SAPE   H3S17561   2.412   3.692   6.319  2.1484  0.1517  2.3973
  158SAPE   C2417562   2.327   3.881   6.348  0.2141  0.6776 -0.1414
  158SAPE   H4R17563   2.300   3.900   6.242 -1.3889 -1.4260 -0.1613
  158SAPE   H4S17564   2.426   3.929   6.364  1.1860 -0.1279 -3.0394
  158SAPE   C2517565   2.217   3.939   6.434 -0.6393 -0.0686  0.1843
  158SAPE   H5R17566   2.216   3.917   6.541  1.1863  1.6859  0.6176
  158SAPE   C2617567   2.111   3.998   6.386  1.1731 -0.0133  0.1141
  158SAPE   H6R17568   2.036   4.032   6.458  0.5701 -1.0390 -0.0112
  158SAPE   C2717569   2.079   4.046   6.243 -0.2679  0.8917  0.1882
  158SAPE   H7R17570   2.170   4.097   6.205 -2.7653  3.9736 -2.2363
  158SAPE   H7S17571   2.004   4.128   6.248 -1.0211  0.2064  0.2651
  158SAPE   C2817572   2.024   3.936   6.149 -0.0655  0.1809 -0.4801
  158SAPE   H8R17573   1.941   3.889   6.204 -1.3411  4.0252  1.2147
  158SAPE   C2917574   2.078   3.885   6.034  0.3932  0.2435 -0.2777
  158SAPE   H9R17575   2.017   3.805   5.990 -0.1392 -0.2618  1.3323
  158SAPE  C21017576   2.184   3.944   5.947 -0.5535  0.2918 -0.4017
  158SAPE  H10R17577   2.213   3.861   5.878  1.8398  0.0448  0.7865
  158SAPE  H10S17578   2.276   3.965   6.006  1.2459 -1.7522 -2.2965
  158SAPE  C21117579   2.134   4.065   5.866 -0.0852  0.0962 -0.2216
  158SAPE  H11R17580   2.092   4.148   5.924 -0.6024  0.6173 -1.3050
  158SAPE  C21217581   2.148   4.084   5.737 -0.0930 -0.1256  0.3592
  158SAPE  H12R17582   2.121   4.179   5.687  2.6252 -0.6554 -2.4345
  158SAPE  C21317583   2.221   3.988   5.642  0.8733 -0.4555  0.1042
  158SAPE  H13R17584   2.213   3.886   5.685 -1.0125  0.1078  1.2378
  158SAPE  H13S17585   2.329   4.012   5.629  0.3817  1.0974 -1.4871
  158SAPE  C21417586   2.150   3.989   5.509  1.0251  0.0930 -0.1781
  158SAPE  H14R17587   2.040   3.985   5.510  0.8932  2.3527 -0.5762
  158SAPE  C21517588   2.210   3.972   5.387 -0.6389 -0.2547  0.0925
  158SAPE  H15R17589   2.150   3.976   5.294  1.7258 -1.7555 -1.6139
  158SAPE  C21617590   2.359   3.974   5.365 -0.2236  0.1396  0.3946
  158SAPE  H16R17591   2.396   3.869   5.361 -1.7409 -0.3791 -0.8693
  158SAPE  H16S17592   2.410   4.021   5.452  0.2962  0.1818  0.0763
  158SAPE  C21717593   2.400   4.056   5.239 -0.3931  0.3286 -0.3727
  158SAPE  H17R17594   2.507   4.084   5.250 -0.2946  1.5584 -3.4067
  158SAPE  H17S17595   2.343   4.151   5.229  0.4035  0.8418 -0.1248
  158SAPE  C21817596   2.399   3.968   5.112 -0.5062  0.1752  0.3009
  158SAPE  H18R17597   2.294   3.967   5.073  0.0606  1.2624 -1.3721
  158SAPE  H18S17598   2.428   3.865   5.139  2.8998  0.8769 -0.2556
  158SAPE  C21917599   2.486   4.016   4.991  0.0371 -0.4597 -0.1737
  158SAPE  H19R17600   2.455   4.116   4.953  1.2197 -0.2091 -0.5151
  158SAPE  H19S17601   2.467   3.943   4.910 -0.3620 -0.8640  0.2763
  158SAPE  C22017602   2.637   4.031   5.023  0.1374 -0.0367  0.0806
  158SAPE  H20R17603   2.669   3.943   5.082  0.6939  0.1076  0.0005
  158SAPE  H20S17604   2.639   4.124   5.085 -2.7316  0.0199  0.2317
  158SAPE  H20T17605   2.693   4.040   4.927  0.8622 -1.1889  0.3764
  158SAPE   C3317606   2.397   3.406   5.988  0.5255 -0.1660  0.5877
  158SAPE   H3X17607   2.294   3.428   5.954  0.7649 -2.5957 -2.1023
  158SAPE   H3Y17608   2.418   3.299   5.966  1.7528  0.4049 -1.2702
  158SAPE   C3417609   2.492   3.480   5.896  0.1871  0.1523 -0.2798
  158SAPE   H4X17610   2.596   3.466   5.934 -1.1461 -3.6290  2.5424
  158SAPE   H4Y17611   2.470   3.588   5.907 -0.5855 -0.0415  0.1468
  158SAPE   C3517612   2.482   3.444   5.753  0.1599 -0.3702 -0.0319
  158SAPE   H5X17613   2.501   3.335   5.750  1.2213 -0.3498  2.9098
  158SAPE   H5Y17614   2.560   3.503   5.699  0.2747  0.3956  0.9404
  158SAPE   C3617615   2.348   3.470   5.683  0.2087  0.0726 -0.3490
  158SAPE   H6X17616   2.310   3.574   5.697  0.1171  0.1346 -1.0601
  158SAPE   H6Y17617   2.276   3.403   5.736  0.2585  0.3273  0.0456
  158SAPE   C3717618   2.361   3.431   5.536 -0.1538 -0.3185 -0.5364
  158SAPE   H7X17619   2.255   3.441   5.504 -0.5202  2.2858  1.1920
  158SAPE   H7Y17620   2.399   3.327   5.525 -0.8377 -0.5029 -1.2536
  158SAPE   C3817621   2.447   3.534   5.462  0.1870  0.2607  0.1105
  158SAPE   H8X17622   2.543   3.557   5.512  0.6367 -1.5824  0.1701
  158SAPE   H8Y17623   2.396   3.633   5.465  1.9078  1.1560  1.3797
  158SAPE   C3917624   2.478   3.499   5.319  0.3852  0.2024 -0.5855
  158SAPE   H9X17625   2.388   3.474   5.260 -0.6039  2.4344 -0.1258
  158SAPE   H9Y17626   2.537   3.406   5.308 -1.1208 -0.6554 -1.8256
  158SAPE  C31017627   2.550   3.604   5.253 -0.6379 -0.3800  0.3967
  158SAPE  H10X17628   2.645   3.628   5.305 -1.7708 -0.4497  2.5850
  158SAPE  H10Y17629   2.492   3.699   5.255  1.8362  1.1942  1.4385
  158SAPE  C31117630   2.588   3.561   5.110 -0.0190  0.2750 -1.1895
  158SAPE  H11X17631   2.495   3.530   5.059 -0.0872 -1.7846  0.0458
  158SAPE  H11Y17632   2.648   3.467   5.106 -1.2308 -0.5324 -1.1105
  158SAPE  C31217633   2.642   3.682   5.028  0.4539  0.3113 -0.8673
  158SAPE  H12X17634   2.743   3.719   5.056 -0.7911  1.5604  2.5078
  158SAPE  H12Y17635   2.574   3.770   5.033  0.4468  0.3878 -1.9473
  158SAPE  C31317636   2.649   3.646   4.876  0.6845 -0.1065 -0.0109
  158SAPE  H13X17637   2.542   3.632   4.849  0.6719  0.2761 -0.1560
  158SAPE  H13Y17638   2.706   3.551   4.865  0.5716 -0.2165  0.3290
  158SAPE  C31417639   2.712   3.752   4.786  0.0759  0.0987  0.6841
  158SAPE  H14X17640   2.822   3.746   4.790  0.0315 -3.3231 -0.4643
  158SAPE  H14Y17641   2.681   3.855   4.815  1.5752  1.4512 -2.0641
  158SAPE  C31517642   2.692   3.721   4.636  0.6834  0.3883 -0.0769
  158SAPE  H15X17643   2.760   3.790   4.581 -0.4595 -1.2403 -3.8181
  158SAPE  H15Y17644   2.589   3.728   4.597  0.8205 -2.2425 -1.1688
  158SAPE  C31617645   2.741   3.573   4.605  0.1429 -0.0423  0.4329
  158SAPE  H16X17646   2.666   3.497   4.636 -0.2914 -0.1097 -0.7387
  158SAPE  H16Y17647   2.840   3.567   4.655 -0.0851  0.0093  0.9011
  158SAPE  C31717648   2.763   3.541   4.456 -0.5524  0.1309 -0.6144
  158SAPE  H17X17649   2.856   3.599   4.437  2.1889 -2.4435  3.3722
  158SAPE  H17Y17650   2.673   3.582   4.406 -1.3301  1.1161  1.4860
  158SAPE  C31817651   2.794   3.393   4.434  0.4291 -0.0569 -0.2281
  158SAPE  H18X17652   2.888   3.363   4.486  0.9108  0.7807 -0.5978
  158SAPE  H18Y17653   2.815   3.354   4.332  0.1794 -1.4173  0.2204
  158SAPE  H18Z17654   2.712   3.330   4.474  1.5971 -0.3336  1.8830
  159SAPE     N17655   4.690   1.083   2.049  0.1544 -0.0396  0.5536
  159SAPE   HN117656   4.670   1.180   2.018 -0.1145 -0.0709  0.6284
  159SAPE   HN217657   4.791   1.069   2.068  0.3736 -4.6702 -2.3772
  159SAPE   HN317658   4.657   1.019   1.973  1.1658  1.7089 -1.4738
  159SAPE   C1217659   4.606   1.031   2.161  0.6926  0.2828  0.1073
  159SAPE  H12A17660   4.497   1.036   2.141  0.5013  0.1845  1.0684
  159SAPE  H12B17661   4.616   1.099   2.248 -0.2791  1.7505 -0.8968
  159SAPE   C1117662   4.638   0.885   2.205 -0.1194  0.4204  0.4092
  159SAPE  H11A17663   4.610   0.817   2.122 -1.1190 -0.7032  1.6133
  159SAPE  H11B17664   4.561   0.861   2.282 -0.7242 -0.3343 -0.4047
  159SAPE     P17665   4.849   0.725   2.256 -0.0903 -0.2464  0.1630
  159SAPE   O1317666   4.751   0.620   2.210  0.1729  1.0778 -0.0844
  159SAPE   O1417667   4.977   0.733   2.186  0.1386 -0.3858  0.6198
  159SAPE   O1217668   4.777   0.864   2.243 -0.2120 -0.5871 -0.3854
  159SAPE   O1117669   4.875   0.709   2.412 -0.2754  0.0969  0.0751
  159SAPE    C117670   4.955   0.806   2.483  0.0368 -0.3503 -0.3572
  159SAPE    HA17671   5.055   0.763   2.508 -0.0136  0.6554  1.7197
  159SAPE    HB17672   4.981   0.897   2.426 -1.1729 -0.4935 -1.1804
  159SAPE    C217673   4.884   0.855   2.617 -0.3186  0.2546  0.8704
  159SAPE    HS17674   4.961   0.891   2.688  2.6334 -0.3802 -1.7903
  159SAPE   O2117675   4.799   0.751   2.668  0.0420  0.0151  0.7130
  159SAPE   C2117676   4.865   0.653   2.733  0.4836 -0.0493  0.4086
  159SAPE   O2217677   4.989   0.639   2.733  0.1330 -0.6766 -0.0508
  159SAPE   C2217678   4.764   0.582   2.814  0.3131 -0.1722 -0.2438
  159SAPE   H2R17679   4.711   0.650   2.885  0.1592  0.7294 -1.1984
  159SAPE   H2S17680   4.680   0.546   2.751  1.2816 -0.3024 -1.4899
  159SAPE    C317681   4.792   0.975   2.592 -0.1707 -0.9005  0.5573
  159SAPE    HX17682   4.719   0.954   2.511 -1.0200  0.3322  0.9713
  159SAPE    HY17683   4.848   1.064   2.557 -1.3854  0.4104  1.8090
  159SAPE   O3117684   4.710   1.001   2.708  0.0844  0.2068 -0.1195
  159SAPE   C3117685   4.744   1.098   2.793  0.2155  0.7414  0.0420
  159SAPE   O3217686   4.827   1.184   2.773 -0.2355  0.3051 -0.3627
  159SAPE   C3217687   4.655   1.082   2.912 -0.1342 -0.1444 -0.2405
  159SAPE   H2X17688   4.560   1.028   2.888 -0.4306 -0.0574  0.6871
  159SAPE   H2Y17689   4.620   1.181   2.950 -1.6874 -1.0356  0.7894
  159SAPE   C2317690   4.817   0.455   2.891  0.6801  0.0895 -0.2708
  159SAPE   H3R17691   4.896   0.499   2.956 -0.4155  2.0537 -0.1785
  159SAPE   H3S17692   4.862   0.385   2.818 -1.5183 -0.6636 -0.9853
  159SAPE   C2417693   4.707   0.371   2.970  0.5806 -0.3490 -0.0746
  159SAPE   H4R17694   4.760   0.280   3.007  0.1742 -0.3984  0.3912
  159SAPE   H4S17695   4.622   0.332   2.912  0.0723  1.0025 -0.2685
  159SAPE   C2517696   4.681   0.449   3.092  0.4468  0.2150  0.6339
  159SAPE   H5R17697   4.587   0.506   3.099  0.2517 -0.1411  0.9332
  159SAPE   C2617698   4.763   0.457   3.199 -0.1833 -0.0848 -0.0113
  159SAPE   H6R17699   4.731   0.518   3.285  0.4058 -0.0513  0.1926
  159SAPE   C2717700   4.892   0.393   3.233 -0.3458  0.1350 -0.0678
  159SAPE   H7R17701   4.950   0.453   3.305  1.5331 -1.9521  0.2634
  159SAPE   H7S17702   4.953   0.367   3.144  0.7315  2.7136 -0.1498
  159SAPE   C2817703   4.863   0.261   3.300  0.1054  0.5611 -0.3577
  159SAPE   H8R17704   4.828   0.174   3.241  0.6787 -0.9453  1.4273
  159SAPE   C2917705   4.877   0.228   3.430 -0.6106 -0.0674 -0.9364
  159SAPE   H9R17706   4.862   0.123   3.459  0.6224 -0.0784 -0.2626
  159SAPE  C21017707   4.915   0.310   3.549 -0.2165  0.2633 -0.1771
  159SAPE  H10R17708   4.907   0.417   3.521 -0.9885  0.4635  0.7828
  159SAPE  H10S17709   5.025   0.297   3.565 -0.4359 -0.0934  1.1821
  159SAPE  C21117710   4.821   0.293   3.672  0.6286 -0.4857  1.5108
  159SAPE  H11R17711   4.717   0.319   3.647  1.5519  2.0510 -0.1328
  159SAPE  C21217712   4.855   0.265   3.798 -0.1544 -0.1812  0.5359
  159SAPE  H12R17713   4.777   0.253   3.875  0.5643  0.4559  1.3844
  159SAPE  C21317714   4.988   0.245   3.855 -0.3122 -0.1146 -0.0176
  159SAPE  H13R17715   5.006   0.310   3.943  2.3559 -1.9877  0.9608
  159SAPE  H13S17716   5.068   0.268   3.782 -1.1561  0.0348 -0.9168
  159SAPE  C21417717   5.024   0.104   3.896 -0.7841  0.4288 -0.3595
  159SAPE  H14R17718   5.007   0.021   3.826  0.6064 -1.8963  1.8819
  159SAPE  C21517719   5.086   0.063   4.013  0.2511 -0.3911  0.0128
  159SAPE  H15R17720   5.118  -0.042   4.020 -1.7172 -1.1567 -1.4329
  159SAPE  C21617721   5.121   0.149   4.137 -0.6167 -1.0828  0.2661
  159SAPE  H16R17722   5.100   0.254   4.109 -1.2918 -0.6813  2.1563
  159SAPE  H16S17723   5.227   0.145   4.169 -0.8357  2.9392  2.0378
  159SAPE  C21717724   5.038   0.119   4.261 -0.0387 -0.0462  0.3358
  159SAPE  H17R17725   5.071   0.167   4.356  1.2810 -1.3128  0.5484
  159SAPE  H17S17726   5.045   0.012   4.287 -1.2466  0.3127  2.3533
  159SAPE  C21817727   4.884   0.154   4.250 -0.3983  0.2807 -0.1457
  159SAPE  H18R17728   4.841   0.080   4.322  1.5949 -0.5989  0.2117
  159SAPE  H18S17729   4.855   0.124   4.147 -1.4491 -0.3682  0.3235
  159SAPE  C21917730   4.852   0.299   4.263  0.5600 -0.2865  0.5012
  159SAPE  H19R17731   4.926   0.350   4.197  2.0350 -1.1743  1.3986
  159SAPE  H19S17732   4.870   0.322   4.371 -0.9437  1.1400  0.4866
  159SAPE  C22017733   4.703   0.341   4.241 -0.2598  0.2744 -0.6587
  159SAPE  H20R17734   4.701   0.449   4.219  3.6533  1.3179  2.8703
  159SAPE  H20S17735   4.636   0.324   4.328  0.1458  0.3622 -0.3259
  159SAPE  H20T17736   4.648   0.294   4.156 -0.7606 -0.8631  0.2706
  159SAPE   C3317737   4.733   1.011   3.029  0.4783 -0.5354  0.0930
  159SAPE   H3X17738   4.831   1.054   3.058  0.7118 -1.5049  0.8060
  159SAPE   H3Y17739   4.768   0.915   2.985  0.4967 -0.2079 -0.6178
  159SAPE   C3417740   4.637   0.992   3.146 -0.1931  0.7542  0.2634
  159SAPE   H4X17741   4.546   0.949   3.100  0.4811  0.1504 -0.5580
  159SAPE   H4Y17742   4.607   1.091   3.186 -1.6681  0.9486 -1.2445
  159SAPE   C3517743   4.696   0.903   3.253 -0.4653  0.5896 -0.0152
  159SAPE   H5X17744   4.769   0.969   3.304 -0.4803  0.2784  0.4119
  159SAPE   H5Y17745   4.759   0.823   3.206 -0.5946 -0.0816  0.9263
  159SAPE   C3617746   4.601   0.831   3.344  0.0905  0.4801 -0.2577
  159SAPE   H6X17747   4.656   0.784   3.429  0.8998  1.5371 -0.1785
  159SAPE   H6Y17748   4.535   0.762   3.288 -1.7904 -2.4908  4.8694
  159SAPE   C3717749   4.509   0.935   3.406  0.1728 -0.0617 -0.1705
  159SAPE   H7X17750   4.442   0.985   3.333  0.4940 -0.3882 -0.6880
  159SAPE   H7Y17751   4.563   1.015   3.463 -1.9687 -0.5238  2.7608
  159SAPE   C3817752   4.425   0.869   3.512  0.2225  0.5099 -0.3218
  159SAPE   H8X17753   4.483   0.782   3.549 -0.6443 -0.7307 -1.7565
  159SAPE   H8Y17754   4.340   0.825   3.456  0.1542 -0.7334  0.6935
  159SAPE   C3917755   4.375   0.958   3.621 -0.1205 -0.1872 -0.0932
  159SAPE   H9X17756   4.346   1.047   3.563 -0.4347 -0.3897 -0.2514
  159SAPE   H9Y17757   4.453   0.993   3.691 -0.1376  1.5437 -0.8916
  159SAPE  C31017758   4.246   0.905   3.694 -0.9495  0.3903 -0.0305
  159SAPE  H10X17759   4.188   0.859   3.610 -0.7197  0.8467 -0.4442
  159SAPE  H10Y17760   4.202   0.991   3.748 -1.7389  0.7787 -1.2581
  159SAPE  C31117761   4.275   0.798   3.796  0.0495 -0.5129 -0.3545
  159SAPE  H11X17762   4.343   0.807   3.883  0.3472 -3.9610 -0.1069
  159SAPE  H11Y17763   4.317   0.718   3.731  0.2971  1.5066 -2.8311
  159SAPE  C31217764   4.147   0.731   3.860  0.3206  0.3365  0.7246
  159SAPE  H12X17765   4.192   0.638   3.901  0.8012  0.3623  0.2672
  159SAPE  H12Y17766   4.070   0.693   3.789  1.2827  0.6622 -0.5410
  159SAPE  C31317767   4.086   0.812   3.974 -0.1350 -0.2661 -0.5612
  159SAPE  H13X17768   4.167   0.868   4.025 -1.7479 -0.5629  2.5973
  159SAPE  H13Y17769   4.052   0.725   4.035  1.3446 -0.8834 -0.5843
  159SAPE  C31417770   3.976   0.903   3.925  0.4695 -0.2231  0.4991
  159SAPE  H14X17771   3.913   0.834   3.865  2.5353 -2.6756  1.0223
  159SAPE  H14Y17772   4.014   0.971   3.845 -1.9689 -1.7295 -2.1441
  159SAPE  C31517773   3.879   0.970   4.022  0.7447  0.3154 -0.4488
  159SAPE  H15X17774   3.841   0.906   4.105 -1.5872  1.8851 -0.2069
  159SAPE  H15Y17775   3.783   1.000   3.974 -0.1948 -0.7783  0.6810
  159SAPE  C31617776   3.956   1.076   4.099  0.0176  0.1475 -0.2787
  159SAPE  H16X17777   4.017   1.139   4.032  1.0125  0.7542  1.1465
  159SAPE  H16Y17778   4.026   1.023   4.168 -0.5191 -2.1372 -1.3858
  159SAPE  C31717779   3.856   1.165   4.180 -0.0133  0.5290  0.1389
  159SAPE  H17X17780   3.920   1.235   4.238  1.7954 -0.0750 -1.0408
  159SAPE  H17Y17781   3.786   1.106   4.243  2.2679 -0.2348  2.1545
  159SAPE  C31817782   3.769   1.259   4.093  0.3251 -0.4315  0.0186
  159SAPE  H18X17783   3.695   1.203   4.034 -1.1079  2.9792 -1.6669
  159SAPE  H18Y17784   3.839   1.312   4.025  0.5088 -2.0604 -1.1217
  159SAPE  H18Z17785   3.723   1.342   4.151  0.8493 -0.7262  0.8861
  160SAPE     N17786   5.188   5.655   2.578  0.2305 -0.4890 -0.1669
  160SAPE   HN117787   5.116   5.719   2.538  0.5596  2.6286  3.6500
  160SAPE   HN217788   5.219   5.706   2.663  0.4053  0.5749 -0.8562
  160SAPE   HN317789   5.250   5.649   2.495 -0.0691 -0.6193 -0.3863
  160SAPE   C1217790   5.122   5.522   2.594 -0.0204  0.3223 -0.0378
  160SAPE  H12A17791   5.140   5.482   2.492 -1.5199  3.2647 -1.6206
  160SAPE  H12B17792   5.012   5.540   2.604 -0.3297 -0.6933 -1.3033
  160SAPE   C1117793   5.188   5.442   2.713  0.1903 -0.4276  0.6855
  160SAPE  H11A17794   5.296   5.417   2.698  0.2270 -0.4180  0.9257
  160SAPE  H11B17795   5.137   5.344   2.724 -1.1455  0.4228  2.4531
  160SAPE     P17796   5.279   5.534   2.951  0.0534  0.3444  0.2601
  160SAPE   O1317797   5.376   5.641   2.913  0.3649  0.5379 -0.3263
  160SAPE   O1417798   5.204   5.543   3.081 -0.2306  0.0999  0.0454
  160SAPE   O1217799   5.175   5.514   2.832 -0.1001 -0.3477  0.5536
  160SAPE   O1117800   5.363   5.403   2.938 -0.0409  0.2370  0.1156
  160SAPE    C117801   5.314   5.271   2.970  0.7154 -0.4891  0.5136
  160SAPE    HA17802   5.206   5.268   2.996  0.6044 -2.7417  0.0556
  160SAPE    HB17803   5.312   5.209   2.878  0.5262  2.2551 -1.4653
  160SAPE    C217804   5.405   5.206   3.074 -0.3911  0.1194 -0.6122
  160SAPE    HS17805   5.377   5.105   3.109  0.0567 -0.0864 -0.8256
  160SAPE   O2117806   5.407   5.292   3.184 -0.1704  0.3441 -0.0016
  160SAPE   C2117807   5.302   5.290   3.263  0.1350 -0.1630  0.3825
  160SAPE   O2217808   5.201   5.222   3.249 -0.0408 -0.6673 -0.8273
  160SAPE   C2217809   5.320   5.393   3.374  0.6807 -0.2060 -0.6823
  160SAPE   H2R17810   5.417   5.447   3.371  0.4906  0.6892  3.2219
  160SAPE   H2S17811   5.246   5.472   3.349  0.7290 -0.6348 -2.2891
  160SAPE    C317812   5.551   5.190   3.023  0.1093  0.2634 -0.3605
  160SAPE    HX17813   5.591   5.290   3.050 -1.4776  0.7352  0.4162
  160SAPE    HY17814   5.542   5.178   2.913 -0.8405 -0.5230 -0.2150
  160SAPE   O3117815   5.622   5.080   3.090  0.0641 -0.5028  0.3688
  160SAPE   C3117816   5.739   5.065   3.017  0.4108  0.1735 -0.6528
  160SAPE   O3217817   5.782   5.150   2.945 -0.1880  0.3590 -0.2056
  160SAPE   C3217818   5.793   4.926   3.046  0.2482  0.4193 -0.1529
  160SAPE   H2X17819   5.838   4.889   2.951 -0.8581  0.7947 -0.8453
  160SAPE   H2Y17820   5.702   4.863   3.057 -0.0365  1.0996  1.9029
  160SAPE   C2317821   5.307   5.336   3.519  0.5061 -0.0922 -0.9093
  160SAPE   H3R17822   5.374   5.248   3.533  0.8049  0.2566 -0.0796
  160SAPE   H3S17823   5.204   5.294   3.527 -0.4886  1.9316 -2.2014
  160SAPE   C2417824   5.329   5.433   3.636  0.4432  0.9365 -0.2600
  160SAPE   H4R17825   5.433   5.472   3.635  0.2192  1.5741 -1.8488
  160SAPE   H4S17826   5.314   5.374   3.729  0.4670  0.4471 -0.5645
  160SAPE   C2517827   5.237   5.552   3.636 -0.4588  0.6918 -0.2992
  160SAPE   H5R17828   5.220   5.583   3.532  0.0727  0.3984 -0.4816
  160SAPE   C2617829   5.173   5.620   3.733  0.0564  0.1254 -0.2457
  160SAPE   H6R17830   5.105   5.702   3.705 -2.3792 -1.2741  1.2039
  160SAPE   C2717831   5.168   5.596   3.883  0.3057  0.1107 -0.0160
  160SAPE   H7R17832   5.183   5.695   3.933  1.4637  1.4304 -2.7647
  160SAPE   H7S17833   5.258   5.540   3.917  0.7163  0.1300 -1.0446
  160SAPE   C2817834   5.061   5.517   3.946  0.0973  0.5418  0.2287
  160SAPE   H8R17835   4.987   5.480   3.873  1.4961 -0.3092 -0.8254
  160SAPE   C2917836   5.067   5.466   4.074 -0.0127  0.0892 -0.0137
  160SAPE   H9R17837   4.987   5.401   4.114  0.3300 -0.0018  0.5269
  160SAPE  C21017838   5.172   5.495   4.179  0.3819  0.3609 -0.0606
  160SAPE  H10R17839   5.123   5.473   4.276  0.8638  0.7272  0.2696
  160SAPE  H10S17840   5.203   5.601   4.179  0.4834  0.3414  0.8455
  160SAPE  C21117841   5.307   5.427   4.172 -0.0804  0.5869  0.1551
  160SAPE  H11R17842   5.328   5.338   4.110  1.5825  1.3420 -0.4204
  160SAPE  C21217843   5.421   5.473   4.239  0.1023 -0.0632  0.6274
  160SAPE  H12R17844   5.511   5.410   4.237  1.4061  1.7387 -0.1113
  160SAPE  C21317845   5.426   5.597   4.323 -0.3331 -0.1664 -0.1183
  160SAPE  H13R17846   5.324   5.635   4.346 -0.4693 -0.8132  0.3715
  160SAPE  H13S17847   5.476   5.669   4.255  0.6881 -0.7854 -0.0394
  160SAPE  C21417848   5.489   5.585   4.459  0.8040 -0.1031 -0.1420
  160SAPE  H14R17849   5.592   5.620   4.479  0.4851  0.2946  0.9011
  160SAPE  C21517850   5.421   5.539   4.566  1.4028  0.0780 -0.9963
  160SAPE  H15R17851   5.469   5.533   4.665 -0.8643  0.2635  0.1843
  160SAPE  C21617852   5.280   5.494   4.565  0.2176  0.4227 -0.3389
  160SAPE  H16R17853   5.275   5.408   4.635  0.6101  0.8475  0.2205
  160SAPE  H16S17854   5.269   5.453   4.462  2.5961 -1.1471 -0.0363
  160SAPE  C21717855   5.166   5.590   4.572  0.0346 -0.2708 -0.5271
  160SAPE  H17R17856   5.161   5.650   4.479 -1.6156 -0.1160 -0.3692
  160SAPE  H17S17857   5.168   5.654   4.663  2.0272 -1.0945  0.0488
  160SAPE  C21817858   5.031   5.514   4.573 -0.4316  0.2504  0.0494
  160SAPE  H18R17859   5.011   5.465   4.671 -0.7559  2.3450  1.0852
  160SAPE  H18S17860   5.025   5.427   4.504  1.5695 -1.5003  1.9451
  160SAPE  C21917861   4.927   5.621   4.543 -0.3234  0.3671 -0.7196
  160SAPE  H19R17862   4.935   5.642   4.434  0.7437 -1.2798 -1.0007
  160SAPE  H19S17863   4.955   5.711   4.601  1.6919  0.4034 -1.6775
  160SAPE  C22017864   4.784   5.576   4.573  0.0362 -0.0050  0.2066
  160SAPE  H20R17865   4.747   5.487   4.517 -1.5640 -0.5193  1.9885
  160SAPE  H20S17866   4.706   5.654   4.562  1.1336  1.7070  3.3041
  160SAPE  H20T17867   4.778   5.551   4.681 -1.4929 -0.2600  0.0854
  160SAPE   C3317868   5.885   4.919   3.168 -0.1970 -0.8950 -0.0046
  160SAPE   H3X17869   5.982   4.972   3.158 -0.6449 -0.1884 -0.6623
  160SAPE   H3Y17870   5.903   4.811   3.183  1.4173 -0.5253  0.9094
  160SAPE   C3417871   5.824   4.981   3.301  0.1643  0.6763  1.2058
  160SAPE   H4X17872   5.724   4.936   3.323 -0.7612  2.2897  0.4437
  160SAPE   H4Y17873   5.797   5.087   3.284 -0.0068  0.0825 -3.8342
  160SAPE   C3517874   5.918   4.951   3.418  0.8346  0.5168  0.2241
  160SAPE   H5X17875   5.862   5.000   3.501  1.9137  1.6514  0.3147
  160SAPE   H5Y17876   6.017   4.996   3.395  1.1980 -0.4795 -0.2238
  160SAPE   C3617877   5.933   4.801   3.452 -0.0690  0.1411  0.2936
  160SAPE   H6X17878   5.993   4.758   3.369 -0.5106  1.5352 -0.7862
  160SAPE   H6Y17879   5.832   4.755   3.452 -0.0692  0.1392 -0.0703
  160SAPE   C3717880   5.988   4.782   3.596 -0.3644  0.6723  0.0802
  160SAPE   H7X17881   6.084   4.837   3.601  0.6514 -1.0705  0.3201
  160SAPE   H7Y17882   6.021   4.677   3.611 -3.9350 -0.6714 -0.3958
  160SAPE   C3817883   5.888   4.821   3.701 -0.4371  0.1103  0.2273
  160SAPE   H8X17884   5.788   4.774   3.690 -0.3982 -0.6780  2.5923
  160SAPE   H8Y17885   5.878   4.932   3.710  1.5949  0.4303 -0.8865
  160SAPE   C3917886   5.926   4.775   3.846 -0.2654 -0.2825 -0.2070
  160SAPE   H9X17887   6.016   4.814   3.897  0.1340  0.8624 -1.6930
  160SAPE   H9Y17888   5.937   4.665   3.835 -0.6146 -0.1073 -3.1240
  160SAPE  C31017889   5.809   4.796   3.943 -0.5311 -0.0689  0.0191
  160SAPE  H10X17890   5.723   4.739   3.902 -1.5678  1.1339  0.4594
  160SAPE  H10Y17891   5.779   4.903   3.948  1.1954  0.5137 -1.1977
  160SAPE  C31117892   5.848   4.743   4.078  0.9467  0.1340 -0.1745
  160SAPE  H11X17893   5.940   4.790   4.119  0.1363  1.1378  0.5570
  160SAPE  H11Y17894   5.873   4.636   4.065 -0.6917 -0.1415 -1.4101
  160SAPE  C31217895   5.726   4.752   4.176  0.0626 -0.2558  0.3020
  160SAPE  H12X17896   5.640   4.693   4.139  0.6570 -0.2424 -1.1794
  160SAPE  H12Y17897   5.691   4.858   4.179 -1.9533 -0.7894 -1.5507
  160SAPE  C31317898   5.764   4.712   4.316 -0.6347  0.2695  0.1634
  160SAPE  H13X17899   5.863   4.759   4.332 -0.6338  0.2887  0.1005
  160SAPE  H13Y17900   5.795   4.606   4.308  0.0601  0.4907 -0.1116
  160SAPE  C31417901   5.669   4.743   4.428 -0.5589 -0.6514 -0.0669
  160SAPE  H14X17902   5.574   4.685   4.418  0.2341 -2.1228  0.5454
  160SAPE  H14Y17903   5.647   4.851   4.443  1.2434 -0.5143  2.2255
  160SAPE  C31517904   5.715   4.711   4.571  0.0875  0.1965 -0.3145
  160SAPE  H15X17905   5.648   4.757   4.646  0.5378 -1.6249  1.2973
  160SAPE  H15Y17906   5.818   4.752   4.577  0.1870 -0.2558  1.8221
  160SAPE  C31617907   5.721   4.556   4.608  0.1376  0.0306  0.7868
  160SAPE  H16X17908   5.781   4.496   4.537  1.0117 -1.0371  2.3702
  160SAPE  H16Y17909   5.613   4.536   4.589 -0.2947  2.0780  0.8765
  160SAPE  C31717910   5.777   4.530   4.743 -0.2214  0.3310  0.2138
  160SAPE  H17X17911   5.730   4.595   4.821  2.5558  0.1926  2.1456
  160SAPE  H17Y17912   5.886   4.546   4.758 -0.3983  0.1200  1.9966
  160SAPE  C31817913   5.744   4.385   4.789  0.0120  0.0184 -0.2009
  160SAPE  H18X17914   5.797   4.313   4.723 -0.8302 -3.4067  2.5304
  160SAPE  H18Y17915   5.634   4.368   4.785  0.1856 -1.3927  0.2056
  160SAPE  H18Z17916   5.794   4.372   4.887  1.4959  0.2464 -0.8968
  161SAPE     N17917   4.024   3.256   2.363  0.0146  0.0269 -0.0829
  161SAPE   HN117918   3.974   3.190   2.300 -1.7728  1.7661 -0.6065
  161SAPE   HN217919   3.940   3.289   2.415 -0.5801 -1.8157  0.1875
  161SAPE   HN317920   4.059   3.337   2.308 -0.8143 -0.0138 -0.6913
  161SAPE   C1217921   4.115   3.177   2.456  0.4039  0.3881  0.3952
  161SAPE  H12A17922   4.155   3.247   2.533 -0.6008 -1.4246  2.6798
  161SAPE  H12B17923   4.198   3.133   2.396 -1.1076  0.8793 -2.2038
  161SAPE   C1117924   4.043   3.059   2.519 -0.6349 -0.5945  0.0329
  161SAPE  H11A17925   3.965   3.093   2.590  0.8007  1.7422  0.5631
  161SAPE  H11B17926   4.117   3.012   2.588  0.3179 -1.0831 -1.2796
  161SAPE     P17927   3.870   2.958   2.338  0.0818  0.0682  0.0420
  161SAPE   O1317928   3.869   3.074   2.247 -0.0640 -0.0671 -0.1621
  161SAPE   O1417929   3.849   2.824   2.277 -0.0461 -0.3598 -0.6298
  161SAPE   O1217930   3.994   2.958   2.430 -0.0004 -0.0695 -0.2671
  161SAPE   O1117931   3.749   2.971   2.442 -0.2318 -0.2125  0.3779
  161SAPE    C117932   3.725   2.869   2.543  0.1434 -0.2743  0.0241
  161SAPE    HA17933   3.676   2.782   2.495  0.1484  0.1110 -0.7045
  161SAPE    HB17934   3.821   2.835   2.587 -0.9922 -3.5318  0.2463
  161SAPE    C217935   3.642   2.923   2.662  0.4810 -0.3289 -1.1839
  161SAPE    HS17936   3.654   2.844   2.739 -0.8893 -0.7009 -1.3144
  161SAPE   O2117937   3.507   2.940   2.620  0.0319 -0.2059 -0.0208
  161SAPE   C2117938   3.416   2.865   2.671 -0.0415 -0.7496  0.8953
  161SAPE   O2217939   3.428   2.769   2.737  0.5308  0.4305 -0.2858
  161SAPE   C2217940   3.285   2.935   2.635 -0.0444 -0.0163  0.5351
  161SAPE   H2R17941   3.313   3.026   2.577  0.5044  0.2577  1.2085
  161SAPE   H2S17942   3.215   2.869   2.580 -0.2333 -2.3323  3.3240
  161SAPE    C317943   3.704   3.049   2.719  0.6169  0.3126 -0.3181
  161SAPE    HX17944   3.717   3.119   2.633 -2.8363  1.8448  0.2512
  161SAPE    HY17945   3.806   3.027   2.757  0.1540 -1.5256 -0.0301
  161SAPE   O3117946   3.621   3.102   2.828  0.3507 -0.0781 -0.2906
  161SAPE   C3117947   3.675   3.206   2.890 -0.4076  0.8767  0.1087
  161SAPE   O3217948   3.784   3.256   2.861  0.7036 -0.3812  0.0190
  161SAPE   C3217949   3.591   3.242   3.010 -0.5638 -0.3251  0.6213
  161SAPE   H2X17950   3.653   3.190   3.086  1.5118 -1.3035 -1.6318
  161SAPE   H2Y17951   3.495   3.188   3.025 -0.9725  0.4332  0.7985
  161SAPE   C2317952   3.206   2.971   2.764 -0.2330  0.2934  1.3027
  161SAPE   H3R17953   3.180   2.877   2.818  1.6732 -1.8195 -1.1880
  161SAPE   H3S17954   3.121   3.024   2.715  0.9293  1.7744  0.8492
  161SAPE   C2417955   3.272   3.068   2.864 -0.0811  0.2044  0.3153
  161SAPE   H4R17956   3.330   3.141   2.804 -0.5125  0.0983 -0.2320
  161SAPE   H4S17957   3.348   3.018   2.928 -1.0889 -0.0286  1.3785
  161SAPE   C2517958   3.164   3.131   2.947 -0.4915  0.0907  0.1050
  161SAPE   H5R17959   3.097   3.195   2.887 -1.3119 -1.7912 -1.0490
  161SAPE   C2617960   3.146   3.118   3.078 -0.1247  0.0979 -0.5255
  161SAPE   H6R17961   3.057   3.169   3.119  1.3713 -0.8157  4.5633
  161SAPE   C2717962   3.230   3.054   3.185  0.1784  0.0209  0.1889
  161SAPE   H7R17963   3.230   3.133   3.264 -0.1939 -2.3887  2.7701
  161SAPE   H7S17964   3.334   3.028   3.159  0.3578 -0.4571  1.3311
  161SAPE   C2817965   3.169   2.931   3.239 -0.0714 -0.7139 -0.7018
  161SAPE   H8R17966   3.212   2.848   3.182  0.0289  0.0630 -1.7798
  161SAPE   C2917967   3.075   2.905   3.339 -0.2801 -0.4426  0.1342
  161SAPE   H9R17968   3.048   2.801   3.364  1.3108 -1.0505 -0.5681
  161SAPE  C21017969   3.003   3.016   3.422  0.4742  0.1619  0.8941
  161SAPE  H10R17970   2.903   2.983   3.457 -0.2736  1.5083  0.0904
  161SAPE  H10S17971   2.981   3.103   3.357  0.3466 -0.0818  0.6069
  161SAPE  C21117972   3.088   3.058   3.535  0.3907 -0.2555 -0.1989
  161SAPE  H11R17973   3.138   2.971   3.580  0.3216  0.8313  2.1091
  161SAPE  C21217974   3.118   3.178   3.594  0.1220 -0.0650  0.2860
  161SAPE  H12R17975   3.175   3.182   3.688  0.9653 -0.1990 -0.2145
  161SAPE  C21317976   3.065   3.311   3.540  0.4338  0.1508 -0.0333
  161SAPE  H13R17977   3.091   3.310   3.432  1.7036 -0.2186  0.2567
  161SAPE  H13S17978   3.125   3.389   3.590  0.6997 -1.4142  2.2225
  161SAPE  C21417979   2.916   3.345   3.559 -0.1518 -0.1257  0.6132
  161SAPE  H14R17980   2.883   3.325   3.662 -1.6059  1.5468  0.5226
  161SAPE  C21517981   2.834   3.388   3.458  0.1111 -0.2214  0.9848
  161SAPE  H15R17982   2.727   3.405   3.477 -1.3002  0.1433 -5.1640
  161SAPE  C21617983   2.879   3.421   3.322  0.0469 -0.5811 -0.4450
  161SAPE  H16R17984   2.988   3.437   3.307 -0.1222  0.1176 -0.9532
  161SAPE  H16S17985   2.844   3.524   3.302  0.9129 -0.3409 -0.8043
  161SAPE  C21717986   2.833   3.333   3.202  0.4002 -0.3095 -0.5306
  161SAPE  H17R17987   2.723   3.341   3.221  0.8403  1.1091  1.7158
  161SAPE  H17S17988   2.871   3.231   3.225  0.7411 -0.4147 -1.5271
  161SAPE  C21817989   2.876   3.382   3.063 -0.0112 -0.1138 -0.7035
  161SAPE  H18R17990   2.853   3.303   2.989  2.1108 -1.9879  0.5116
  161SAPE  H18S17991   2.984   3.403   3.079 -0.3347  2.7628 -1.6703
  161SAPE  C21917992   2.806   3.507   3.012  0.4621 -0.4010 -0.5557
  161SAPE  H19R17993   2.817   3.591   3.084  2.1590 -1.5063  0.5572
  161SAPE  H19S17994   2.701   3.474   3.002  0.5485 -0.5862 -0.8612
  161SAPE  C22017995   2.848   3.553   2.867  0.0789 -0.7988 -0.6479
  161SAPE  H20R17996   2.858   3.458   2.810  1.1967 -1.9019  1.2707
  161SAPE  H20S17997   2.942   3.613   2.869 -1.4112  1.6470  0.3832
  161SAPE  H20T17998   2.769   3.619   2.827 -0.0955  1.7331  3.3662
  161SAPE   C3317999   3.597   3.388   3.046  0.2597 -0.0082  0.2952
  161SAPE   H3X18000   3.562   3.448   2.959  0.5334 -1.1478 -0.6279
  161SAPE   H3Y18001   3.703   3.416   3.064  0.2786  0.6129 -0.7335
  161SAPE   C3418002   3.521   3.438   3.165 -0.2077 -0.0310 -0.2528
  161SAPE   H4X18003   3.414   3.412   3.156 -0.6714  1.4121  0.8116
  161SAPE   H4Y18004   3.528   3.548   3.176 -1.4262 -0.0488  0.8675
  161SAPE   C3518005   3.565   3.377   3.304  0.2278  0.0513  0.1102
  161SAPE   H5X18006   3.671   3.347   3.294  0.2962  0.7399 -1.4265
  161SAPE   H5Y18007   3.521   3.279   3.331  1.1131 -0.4845 -0.3367
  161SAPE   C3618008   3.548   3.475   3.424  0.5421 -0.0154  1.1108
  161SAPE   H6X18009   3.447   3.521   3.426  1.0807  1.4639 -1.6503
  161SAPE   H6Y18010   3.613   3.564   3.409  0.5737 -0.3657 -1.1812
  161SAPE   C3718011   3.580   3.401   3.549  0.2184 -0.3978 -0.0141
  161SAPE   H7X18012   3.681   3.354   3.552 -0.6700 -2.4359 -0.3426
  161SAPE   H7Y18013   3.505   3.319   3.548 -1.8018  1.3493 -0.8625
  161SAPE   C3818014   3.554   3.498   3.670  0.0974  0.0937  0.0624
  161SAPE   H8X18015   3.448   3.531   3.667 -0.6594 -2.2128 -1.4162
  161SAPE   H8Y18016   3.618   3.587   3.651  1.1322 -0.6057  0.1687
  161SAPE   C3918017   3.593   3.440   3.809 -0.0962  1.1059 -0.9077
  161SAPE   H9X18018   3.703   3.424   3.813 -0.0652  1.4520  0.8789
  161SAPE   H9Y18019   3.538   3.344   3.816  1.2110  0.4050  0.2210
  161SAPE  C31018020   3.564   3.541   3.922  0.1069  0.4861 -0.5885
  161SAPE  H10X18021   3.470   3.599   3.906 -0.0164  0.6883  0.7051
  161SAPE  H10Y18022   3.654   3.606   3.920 -0.2111  0.9535 -0.1202
  161SAPE  C31118023   3.552   3.476   4.053  0.4149  0.2729  0.0651
  161SAPE  H11X18024   3.653   3.485   4.098  0.5242 -0.8688  0.0548
  161SAPE  H11Y18025   3.520   3.370   4.047  0.0925  0.4131 -0.8810
  161SAPE  C31218026   3.442   3.536   4.144 -0.3478  0.8624 -0.2030
  161SAPE  H12X18027   3.339   3.507   4.114 -0.4039  0.7875  0.0574
  161SAPE  H12Y18028   3.444   3.647   4.144 -5.0569  1.1616  1.1443
  161SAPE  C31318029   3.466   3.503   4.294 -0.8939  0.8208 -0.0865
  161SAPE  H13X18030   3.568   3.542   4.314  0.4259 -1.5339 -1.7156
  161SAPE  H13Y18031   3.465   3.393   4.310  0.2967  0.9681  1.1686
  161SAPE  C31418032   3.354   3.565   4.379 -0.2883 -0.2886  0.9491
  161SAPE  H14X18033   3.263   3.503   4.387 -0.4231  0.1130  3.2969
  161SAPE  H14Y18034   3.327   3.666   4.342  0.8115  0.1412  1.2747
  161SAPE  C31518035   3.396   3.582   4.532  0.1770  1.0305 -0.5682
  161SAPE  H15X18036   3.479   3.655   4.528  1.3128 -0.2139 -0.4294
  161SAPE  H15Y18037   3.436   3.482   4.560  0.1563  1.3418  0.5891
  161SAPE  C31618038   3.279   3.614   4.612  0.2677 -1.3252 -0.7115
  161SAPE  H16X18039   3.243   3.515   4.646  3.1029 -1.5877  1.9156
  161SAPE  H16Y18040   3.187   3.653   4.562 -0.0079  0.4689  1.0530
  161SAPE  C31718041   3.289   3.721   4.724 -0.8784 -0.1802  0.3910
  161SAPE  H17X18042   3.329   3.815   4.683 -0.5610 -0.5094 -0.0643
  161SAPE  H17Y18043   3.370   3.687   4.792  1.8683  0.4826 -2.3212
  161SAPE  C31818044   3.160   3.734   4.806  0.2581  0.4605 -0.1489
  161SAPE  H18X18045   3.177   3.805   4.890 -0.0279 -0.8748  1.0825
  161SAPE  H18Y18046   3.123   3.632   4.829  1.4829 -0.0765 -0.4986
  161SAPE  H18Z18047   3.083   3.783   4.742  0.2526 -0.0203 -0.5167
  162SAPE     N18048   1.965   5.140   2.496  0.1122  0.0375 -0.5735
  162SAPE   HN118049   2.039   5.168   2.564 -0.7593 -0.3541  0.5707
  162SAPE   HN218050   1.890   5.085   2.543  1.1393 -0.5008  0.5023
  162SAPE   HN318051   2.022   5.083   2.431  1.8743 -0.1952  1.0672
  162SAPE   C1218052   1.925   5.271   2.432 -0.0885  0.2387 -0.1264
  162SAPE  H12A18053   1.826   5.259   2.383  0.9579 -1.6239 -1.9601
  162SAPE  H12B18054   2.000   5.292   2.352 -0.0618  0.2300 -0.1034
  162SAPE   C1118055   1.936   5.375   2.543 -0.0378  0.3269  0.1258
  162SAPE  H11A18056   1.850   5.352   2.609 -1.9638 -0.7023 -2.5558
  162SAPE  H11B18057   1.921   5.474   2.493 -0.4179 -0.6174 -1.7059
  162SAPE     P18058   2.168   5.466   2.609  0.2002  0.0871 -0.4232
  162SAPE   O1318059   2.234   5.453   2.482  0.7441 -0.3355  0.8876
  162SAPE   O1418060   2.136   5.604   2.655  0.0349  0.1355 -0.5759
  162SAPE   O1218061   2.049   5.368   2.629 -0.2672  0.0174  0.2677
  162SAPE   O1118062   2.269   5.412   2.716 -0.2870  0.3370 -0.3214
  162SAPE    C118063   2.229   5.416   2.856 -0.0375 -0.0327 -0.8355
  162SAPE    HA18064   2.316   5.465   2.905  0.6877 -2.2111  0.1704
  162SAPE    HB18065   2.133   5.469   2.878  1.2423  1.1990  2.3207
  162SAPE    C218066   2.213   5.272   2.914 -0.6120  0.8446 -0.0488
  162SAPE    HS18067   2.104   5.267   2.934 -0.5599 -1.8618 -0.0257
  162SAPE   O2118068   2.305   5.266   3.031  0.3179  0.6187 -0.1704
  162SAPE   C2118069   2.246   5.280   3.149  0.2019 -0.2394  0.5591
  162SAPE   O2218070   2.132   5.309   3.180  0.1216  0.2485  0.3392
  162SAPE   C2218071   2.357   5.261   3.252  0.2962 -0.5353  0.0338
  162SAPE   H2R18072   2.346   5.162   3.301 -1.5065  0.0043  0.8219
  162SAPE   H2S18073   2.460   5.273   3.212  0.0255  0.5062 -0.3646
  162SAPE    C318074   2.254   5.155   2.827 -0.7464  0.3220  0.3646
  162SAPE    HX18075   2.364   5.154   2.820 -0.2232 -1.8276  5.0852
  162SAPE    HY18076   2.213   5.168   2.725 -1.0139 -2.4695  0.0530
  162SAPE   O3118077   2.203   5.032   2.879  0.1609 -0.6375 -0.6995
  162SAPE   C3118078   2.084   5.004   2.845 -0.3930 -0.4556 -0.1960
  162SAPE   O3218079   2.005   5.072   2.782  0.1826 -0.3306  0.0402
  162SAPE   C3218080   2.051   4.865   2.905  0.3606  0.2109 -0.0843
  162SAPE   H2X18081   2.113   4.784   2.862  0.0453  0.4563 -1.0324
  162SAPE   H2Y18082   1.951   4.832   2.871  0.4309  0.3447 -0.4322
  162SAPE   C2318083   2.342   5.371   3.369  1.1628  0.1724 -0.0018
  162SAPE   H3R18084   2.394   5.326   3.457 -0.5498 -1.5297  0.2175
  162SAPE   H3S18085   2.235   5.377   3.398  0.8920  2.4239 -1.2845
  162SAPE   C2418086   2.403   5.508   3.342  0.5748  0.2944 -0.0048
  162SAPE   H4R18087   2.509   5.473   3.339  1.0255  1.6967 -1.4468
  162SAPE   H4S18088   2.399   5.584   3.424  2.5627  0.5593 -0.1005
  162SAPE   C2518089   2.358   5.579   3.219  0.3347 -0.7512  0.1234
  162SAPE   H5R18090   2.249   5.591   3.217  0.3887 -0.3284 -0.1597
  162SAPE   C2618091   2.431   5.600   3.106 -0.4842 -0.3365 -0.2120
  162SAPE   H6R18092   2.384   5.635   3.013  2.0336 -0.7388 -1.7328
  162SAPE   C2718093   2.577   5.574   3.100 -0.1636  0.0664  0.3042
  162SAPE   H7R18094   2.621   5.573   3.202 -0.6806  0.2238  0.5335
  162SAPE   H7S18095   2.623   5.656   3.040 -2.5005  1.5861  0.4516
  162SAPE   C2818096   2.601   5.442   3.035  0.3329  0.6089 -0.5158
  162SAPE   H8R18097   2.568   5.433   2.930 -0.0482 -1.0157 -0.2870
  162SAPE   C2918098   2.679   5.339   3.083 -0.2976  0.9650 -0.1534
  162SAPE   H9R18099   2.687   5.247   3.024 -2.4488  0.1964  0.6426
  162SAPE  C21018100   2.757   5.332   3.212 -0.0493  0.0540 -0.3537
  162SAPE  H10R18101   2.706   5.388   3.294  0.8553  0.9874 -0.4012
  162SAPE  H10S18102   2.853   5.385   3.194 -0.1422  0.4888  0.3736
  162SAPE  C21118103   2.801   5.193   3.257  0.0272 -0.1445  0.2082
  162SAPE  H11R18104   2.793   5.113   3.181  0.2051 -0.0365  0.0752
  162SAPE  C21218105   2.833   5.155   3.381  0.0709  0.0136 -0.4862
  162SAPE  H12R18106   2.859   5.050   3.398 -1.0133 -0.3477 -0.9855
  162SAPE  C21318107   2.845   5.250   3.499 -0.5041  0.3334  0.0095
  162SAPE  H13R18108   2.745   5.280   3.537 -1.1549 -1.4847 -0.1677
  162SAPE  H13S18109   2.896   5.344   3.469 -0.9841  0.4212 -0.5319
  162SAPE  C21418110   2.920   5.189   3.610  0.0156 -0.2642 -0.0367
  162SAPE  H14R18111   3.018   5.142   3.591 -0.1204 -1.0003  0.9895
  162SAPE  C21518112   2.889   5.207   3.739  0.1590 -0.1261 -0.3823
  162SAPE  H15R18113   2.947   5.158   3.818 -0.1719  0.1668  0.0495
  162SAPE  C21618114   2.774   5.270   3.806  0.2386 -0.1980  0.3573
  162SAPE  H16R18115   2.702   5.186   3.819  0.1669 -0.2826 -0.5393
  162SAPE  H16S18116   2.730   5.350   3.744 -1.6709 -1.1470  0.4105
  162SAPE  C21718117   2.788   5.321   3.950 -0.1965  0.4389  0.1176
  162SAPE  H17R18118   2.689   5.366   3.972  0.4318  1.7087  0.4466
  162SAPE  H17S18119   2.866   5.400   3.940  1.3807 -0.8395  1.5186
  162SAPE  C21818120   2.813   5.212   4.056 -0.3015 -0.1518 -0.1008
  162SAPE  H18R18121   2.909   5.160   4.032  0.6266  1.4519  0.0134
  162SAPE  H18S18122   2.738   5.130   4.057  0.8044 -1.1812  0.6851
  162SAPE  C21918123   2.819   5.283   4.191 -0.3957 -0.0512 -0.1303
  162SAPE  H19R18124   2.724   5.329   4.228  0.1053 -0.8642  2.3870
  162SAPE  H19S18125   2.886   5.364   4.158 -0.4688  0.1482  0.2012
  162SAPE  C22018126   2.888   5.196   4.293  0.2066 -0.3417 -0.4985
  162SAPE  H20R18127   2.962   5.256   4.350  0.2667 -0.2609 -0.6623
  162SAPE  H20S18128   2.942   5.109   4.250  0.6082 -0.9979  1.2179
  162SAPE  H20T18129   2.813   5.145   4.358  2.2519 -0.6568  1.7985
  162SAPE   C3318130   2.053   4.870   3.062  0.1718  0.2665 -0.4180
  162SAPE   H3X18131   1.968   4.807   3.097  0.0161  1.3267  1.1976
  162SAPE   H3Y18132   2.031   4.973   3.097 -2.3892  1.1466 -4.0272
  162SAPE   C3418133   2.191   4.837   3.110 -0.3487  0.3728  0.1457
  162SAPE   H4X18134   2.266   4.903   3.060  1.5793 -1.3004  0.6996
  162SAPE   H4Y18135   2.222   4.732   3.091  0.0616  0.6773 -0.9469
  162SAPE   C3518136   2.217   4.882   3.256  0.0540  0.5989  0.1959
  162SAPE   H5X18137   2.229   4.992   3.256  0.9538  0.5285  1.5955
  162SAPE   H5Y18138   2.312   4.832   3.286  0.5542  0.1858 -1.9384
  162SAPE   C3618139   2.106   4.844   3.353  0.0807 -0.3649  1.0238
  162SAPE   H6X18140   2.073   4.738   3.356 -1.8470  0.2251  2.5481
  162SAPE   H6Y18141   2.014   4.902   3.328  0.0187 -0.5919  0.7137
  162SAPE   C3718142   2.142   4.876   3.499 -0.3578 -0.0540  0.8260
  162SAPE   H7X18143   2.203   4.789   3.534 -1.3784 -1.2052 -0.1496
  162SAPE   H7Y18144   2.047   4.889   3.554 -0.2839 -0.6638  1.1016
  162SAPE   C3818145   2.223   5.001   3.519 -0.8629 -0.7798 -0.2639
  162SAPE   H8X18146   2.178   5.093   3.478 -0.9599  0.9500  3.3093
  162SAPE   H8Y18147   2.323   4.984   3.474 -0.6675  1.4257 -0.7593
  162SAPE   C3918148   2.238   5.027   3.670  0.3924  0.4992  0.1678
  162SAPE   H9X18149   2.313   4.953   3.707 -0.9526 -0.9651  0.0506
  162SAPE   H9Y18150   2.145   5.003   3.726  0.9379 -0.7520  0.5898
  162SAPE  C31018151   2.289   5.166   3.705 -0.2187  0.5918 -0.1073
  162SAPE  H10X18152   2.206   5.233   3.674  0.2719  1.2271 -0.0663
  162SAPE  H10Y18153   2.383   5.196   3.653 -1.3952  0.2984 -2.5364
  162SAPE  C31118154   2.299   5.177   3.853  0.0981 -0.4931 -0.6150
  162SAPE  H11X18155   2.373   5.096   3.873  0.1447 -0.6849 -1.5284
  162SAPE  H11Y18156   2.201   5.158   3.901 -0.8243  1.2353 -1.7333
  162SAPE  C31218157   2.352   5.314   3.897 -0.2731  0.1190 -0.3677
  162SAPE  H12X18158   2.293   5.398   3.854  1.2569  1.4118 -0.0469
  162SAPE  H12Y18159   2.460   5.326   3.872  0.6461  0.1677  3.1817
  162SAPE  C31318160   2.337   5.318   4.052 -0.4938 -0.7710 -0.2450
  162SAPE  H13X18161   2.249   5.259   4.086 -2.0781  0.5632 -1.8694
  162SAPE  H13Y18162   2.323   5.421   4.090  1.3567 -0.7335  0.4503
  162SAPE  C31418163   2.448   5.243   4.131  0.1406 -0.4755 -0.6495
  162SAPE  H14X18164   2.526   5.315   4.164  1.2546 -0.4920 -3.0573
  162SAPE  H14Y18165   2.503   5.171   4.066 -1.3243 -0.4026 -2.0565
  162SAPE  C31518166   2.398   5.168   4.257  0.8539 -0.3069  0.1419
  162SAPE  H15X18167   2.480   5.140   4.326  1.8574  2.4311  0.1693
  162SAPE  H15Y18168   2.341   5.081   4.218 -1.2063  0.8972  0.3209
  162SAPE  C31618169   2.294   5.251   4.347 -0.3492 -1.5095 -0.1242
  162SAPE  H16X18170   2.195   5.256   4.298 -0.1615 -2.0150 -0.5683
  162SAPE  H16Y18171   2.335   5.353   4.366 -0.1163 -1.5209 -0.5528
  162SAPE  C31718172   2.274   5.180   4.481 -0.0523 -0.4282  0.3328
  162SAPE  H17X18173   2.372   5.160   4.529  0.0480 -0.8709 -0.0553
  162SAPE  H17Y18174   2.226   5.082   4.461 -0.2016 -0.5176  1.0987
  162SAPE  C31818175   2.183   5.256   4.578  0.0816 -0.7658 -0.2932
  162SAPE  H18X18176   2.192   5.198   4.673  1.4837 -0.8829 -0.4812
  162SAPE  H18Y18177   2.086   5.273   4.527  0.4455 -2.1874 -1.5276
  162SAPE  H18Z18178   2.234   5.354   4.587  0.5525 -1.1247  1.2612
  163SAPE     N18179   2.556   3.427   1.914  0.2490 -0.3277  0.2001
  163SAPE   HN118180   2.548   3.496   1.837  1.0024  0.9202  1.1909
  163SAPE   HN218181   2.657   3.418   1.940  1.0718 -0.6838 -2.8091
  163SAPE   HN318182   2.525   3.338   1.870 -1.1270 -0.4529  1.3389
  163SAPE   C1218183   2.466   3.451   2.030 -0.0686 -0.5350  0.6607
  163SAPE  H12A18184   2.361   3.445   1.994 -0.1687 -1.8039  1.1157
  163SAPE  H12B18185   2.497   3.555   2.055  1.5861  0.0639 -3.2184
  163SAPE   C1118186   2.466   3.343   2.142  0.3108 -0.1064  0.6793
  163SAPE  H11A18187   2.434   3.247   2.097 -0.7413  1.1583 -1.4243
  163SAPE  H11B18188   2.387   3.368   2.216  0.9258 -0.8394  1.6036
  163SAPE     P18189   2.665   3.204   2.260  0.4728  0.0232  0.0841
  163SAPE   O1318190   2.593   3.088   2.216  0.2426  0.1393  0.2603
  163SAPE   O1418191   2.811   3.214   2.235  0.0734  0.3285  0.5923
  163SAPE   O1218192   2.589   3.333   2.211  0.3539  0.4026  0.1152
  163SAPE   O1118193   2.644   3.199   2.416 -0.7423 -0.3575 -0.1544
  163SAPE    C118194   2.679   3.308   2.504  0.3135  0.1198 -0.1715
  163SAPE    HA18195   2.789   3.321   2.497  0.4832 -2.1481 -3.8991
  163SAPE    HB18196   2.634   3.404   2.471 -1.2984 -0.4204  0.3477
  163SAPE    C218197   2.629   3.280   2.645  0.3157 -0.8466 -0.6350
  163SAPE    HS18198   2.668   3.354   2.719  0.1252 -1.9565  0.6170
  163SAPE   O2118199   2.675   3.148   2.682  0.4728  0.2433 -0.2474
  163SAPE   C2118200   2.801   3.145   2.716  0.3446  0.7616 -0.6880
  163SAPE   O2218201   2.877   3.239   2.725 -0.3347 -0.3156  0.3884
  163SAPE   C2218202   2.833   2.999   2.763 -0.6621  0.3700 -0.1389
  163SAPE   H2R18203   2.753   2.938   2.716  0.4119 -1.6433  0.5228
  163SAPE   H2S18204   2.922   2.974   2.702 -0.0256  0.6391  0.6534
  163SAPE    C318205   2.472   3.273   2.672 -0.8207 -0.6815 -0.5782
  163SAPE    HX18206   2.439   3.179   2.623 -3.0107 -0.3224  0.1086
  163SAPE    HY18207   2.428   3.362   2.623  0.6424  0.3812 -0.0591
  163SAPE   O3118208   2.442   3.266   2.810 -0.6955  0.3935  0.0373
  163SAPE   C3118209   2.444   3.382   2.882 -0.3335  0.5861  0.7229
  163SAPE   O3218210   2.470   3.493   2.842  0.0034  0.3472  0.1406
  163SAPE   C3218211   2.418   3.335   3.028  0.2356  0.5544 -0.2140
  163SAPE   H2X18212   2.494   3.263   3.067 -2.9725 -1.0746  3.8063
  163SAPE   H2Y18213   2.320   3.283   3.035  0.5174  0.0321 -0.0683
  163SAPE   C2318214   2.855   2.964   2.910  0.2828  0.0533 -1.1001
  163SAPE   H3R18215   2.918   3.039   2.962  1.6961 -0.3991 -2.1169
  163SAPE   H3S18216   2.929   2.881   2.919 -1.2674 -1.4095 -1.2921
  163SAPE   C2418217   2.727   2.934   2.995  0.0576  0.3280 -0.7017
  163SAPE   H4R18218   2.676   3.033   2.989  0.4024  0.4424 -2.0242
  163SAPE   H4S18219   2.771   2.927   3.097 -1.3821 -4.2821 -0.1482
  163SAPE   C2518220   2.660   2.805   2.965 -0.0203  0.3034  0.1341
  163SAPE   H5R18221   2.717   2.712   2.975 -0.9850 -0.3666 -0.4136
  163SAPE   C2618222   2.542   2.797   2.899 -0.4579 -0.3362 -0.1707
  163SAPE   H6R18223   2.497   2.697   2.897 -0.9795 -0.1985  1.9686
  163SAPE   C2718224   2.449   2.915   2.866  0.5476 -0.6909  0.1226
  163SAPE   H7R18225   2.509   2.987   2.806 -0.4755  0.1471  0.0635
  163SAPE   H7S18226   2.411   2.981   2.947 -0.8081 -1.0999 -0.1578
  163SAPE   C2818227   2.332   2.870   2.786 -0.0878  0.0558  0.8954
  163SAPE   H8R18228   2.352   2.810   2.696 -0.5313  1.5898 -0.2594
  163SAPE   C2918229   2.201   2.909   2.805  0.6472 -0.3374 -0.0236
  163SAPE   H9R18230   2.121   2.872   2.739 -2.0962 -0.2285  2.9611
  163SAPE  C21018231   2.166   3.015   2.910 -0.3719 -0.3595 -1.0422
  163SAPE  H10R18232   2.210   3.114   2.890 -0.9007  0.7762  2.5906
  163SAPE  H10S18233   2.211   2.980   3.006 -1.6933 -2.3806 -1.0965
  163SAPE  C21118234   2.022   3.046   2.936  0.0421  0.9500  0.0653
  163SAPE  H11R18235   1.961   3.018   2.848 -0.1345  1.2489  0.0932
  163SAPE  C21218236   1.969   3.095   3.051 -0.3513  0.3620 -0.3319
  163SAPE  H12R18237   1.861   3.113   3.053 -0.5555 -0.8452  0.3681
  163SAPE  C21318238   2.035   3.112   3.188 -0.4489  0.3662  0.4745
  163SAPE  H13R18239   2.088   3.209   3.198 -1.8250  1.0929  0.8964
  163SAPE  H13S18240   2.119   3.040   3.199 -1.4671 -0.7031  1.6215
  163SAPE  C21418241   1.939   3.090   3.306  1.0200 -0.2074 -0.7710
  163SAPE  H14R18242   1.831   3.086   3.285  0.5078  0.6890  1.4201
  163SAPE  C21518243   1.964   3.042   3.431 -0.3955 -0.6298 -0.1576
  163SAPE  H15R18244   1.882   3.036   3.504 -0.4760 -0.8880 -0.2693
  163SAPE  C21618245   2.106   3.032   3.489  0.1152  0.7794  0.1309
  163SAPE  H16R18246   2.170   3.106   3.437 -1.1160  1.3801 -0.5862
  163SAPE  H16S18247   2.146   2.932   3.459 -0.3140  1.0396 -1.4404
  163SAPE  C21718248   2.115   3.049   3.643  1.0105 -0.2998 -0.0373
  163SAPE  H17R18249   2.056   3.141   3.665  1.3246 -0.3838  1.2114
  163SAPE  H17S18250   2.220   3.074   3.669  0.1949  1.6960  1.5975
  163SAPE  C21818251   2.082   2.925   3.726  0.1709 -0.6292  1.1507
  163SAPE  H18R18252   2.142   2.834   3.704 -1.0314 -1.0249 -0.7331
  163SAPE  H18S18253   1.978   2.892   3.705  0.2891  0.3360 -1.3622
  163SAPE  C21918254   2.103   2.959   3.872  0.1182 -0.2554  0.7440
  163SAPE  H19R18255   2.025   3.023   3.920 -0.0552  0.0475  0.0722
  163SAPE  H19S18256   2.204   3.004   3.877  0.7085 -1.3875 -0.4790
  163SAPE  C22018257   2.105   2.841   3.961 -0.7430 -0.4092 -0.1148
  163SAPE  H20R18258   2.002   2.802   3.956  0.2996 -3.5951  1.0302
  163SAPE  H20S18259   2.134   2.855   4.067  1.0787 -1.0968 -0.4853
  163SAPE  H20T18260   2.162   2.759   3.912 -0.2804 -0.2761  0.1921
  163SAPE   C3318261   2.408   3.454   3.130  0.5241  0.1007  0.2011
  163SAPE   H3X18262   2.325   3.516   3.090 -0.5966 -1.3837  0.1113
  163SAPE   H3Y18263   2.504   3.507   3.147 -0.0580  1.0644  0.5818
  163SAPE   C3418264   2.373   3.406   3.275 -0.3621 -0.5181  0.3946
  163SAPE   H4X18265   2.465   3.359   3.317  1.0205  1.5371 -0.1867
  163SAPE   H4Y18266   2.297   3.325   3.272 -1.5679  0.5779  0.5160
  163SAPE   C3518267   2.338   3.516   3.381 -0.0287  0.5161 -0.2691
  163SAPE   H5X18268   2.254   3.574   3.339 -0.1688  0.7397  0.3145
  163SAPE   H5Y18269   2.424   3.587   3.391  1.1569 -0.7833 -0.8421
  163SAPE   C3618270   2.278   3.470   3.512 -0.0623 -0.1284 -0.5604
  163SAPE   H6X18271   2.213   3.381   3.498  0.0736 -0.5321  1.1277
  163SAPE   H6Y18272   2.215   3.550   3.554  0.8934 -0.7671  2.3623
  163SAPE   C3718273   2.403   3.443   3.605  1.1969  0.4585 -0.0341
  163SAPE   H7X18274   2.454   3.540   3.624  1.1019  0.3512  0.8131
  163SAPE   H7Y18275   2.483   3.380   3.563 -1.0879 -1.5194 -1.6853
  163SAPE   C3818276   2.369   3.381   3.741  0.5566  0.4882 -0.7598
  163SAPE   H8X18277   2.324   3.282   3.719  2.2845 -1.0594  2.0598
  163SAPE   H8Y18278   2.285   3.437   3.786  0.9443 -0.3197  1.0369
  163SAPE   C3918279   2.492   3.357   3.829  0.4793  0.4993  0.2889
  163SAPE   H9X18280   2.576   3.325   3.764  0.9856 -0.7299  1.5109
  163SAPE   H9Y18281   2.480   3.272   3.899 -2.2013  1.1502  0.7380
  163SAPE  C31018282   2.556   3.469   3.914 -0.5042  0.1973  0.2319
  163SAPE  H10X18283   2.598   3.551   3.852  0.7217 -0.1689  0.5551
  163SAPE  H10Y18284   2.643   3.431   3.971 -0.0195 -0.2709 -0.7806
  163SAPE  C31118285   2.458   3.520   4.016  0.0923 -0.8602  0.6115
  163SAPE  H11X18286   2.383   3.581   3.963  0.9915  0.7824  1.1718
  163SAPE  H11Y18287   2.515   3.597   4.073 -0.1982  1.3413 -1.9225
  163SAPE  C31218288   2.398   3.411   4.109  0.2003  0.4317  1.3554
  163SAPE  H12X18289   2.346   3.328   4.057 -0.7014  1.7670  0.0108
  163SAPE  H12Y18290   2.331   3.472   4.174 -0.7884  0.4298  0.3878
  163SAPE  C31318291   2.508   3.349   4.192 -0.1810 -0.1844 -0.4003
  163SAPE  H13X18292   2.579   3.427   4.227 -0.2788  0.1811 -0.9971
  163SAPE  H13Y18293   2.579   3.292   4.129 -0.5212 -0.1651 -0.8004
  163SAPE  C31418294   2.467   3.256   4.313 -0.5560 -0.4512 -0.1962
  163SAPE  H14X18295   2.555   3.212   4.364 -1.4732 -0.5354  1.3819
  163SAPE  H14Y18296   2.396   3.174   4.289 -0.9473 -0.4433  0.9015
  163SAPE  C31518297   2.395   3.339   4.413 -0.4883 -0.0522  0.0504
  163SAPE  H15X18298   2.306   3.387   4.365  0.2163  1.8706  0.5549
  163SAPE  H15Y18299   2.467   3.420   4.437 -1.5246  1.6462 -2.1280
  163SAPE  C31618300   2.341   3.265   4.532 -0.0547 -0.8838  0.0386
  163SAPE  H16X18301   2.413   3.209   4.596  1.6221  1.9360  0.7681
  163SAPE  H16Y18302   2.264   3.194   4.494 -0.5009  0.2143 -1.1700
  163SAPE  C31718303   2.259   3.366   4.620 -0.3327 -0.1381 -0.3334
  163SAPE  H17X18304   2.237   3.455   4.556  2.2078  1.1073  0.3845
  163SAPE  H17Y18305   2.331   3.397   4.699  1.8457 -2.1112 -1.4203
  163SAPE  C31818306   2.136   3.314   4.687  0.2731  0.8206 -0.1161
  163SAPE  H18X18307   2.090   3.396   4.747 -0.5342  1.7043 -1.8822
  163SAPE  H18Y18308   2.165   3.236   4.761 -0.4104 -0.4101 -1.0987
  163SAPE  H18Z18309   2.062   3.267   4.618  2.1437 -1.6110 -0.6067
  164SAPE     N18310   6.444   2.155   2.784  0.2080 -0.5898 -0.5639
  164SAPE   HN118311   6.479   2.119   2.693 -1.1051 -0.6365 -1.0685
  164SAPE   HN218312   6.376   2.230   2.761 -1.3567 -1.5640  0.6319
  164SAPE   HN318313   6.519   2.187   2.848  1.1851  1.1278 -2.4524
  164SAPE   C1218314   6.362   2.047   2.846 -0.6556  0.2283 -0.1228
  164SAPE  H12A18315   6.310   2.086   2.937 -0.8934 -0.7629  0.1699
  164SAPE  H12B18316   6.440   1.974   2.876 -0.8116  0.4028  0.7506
  164SAPE   C1118317   6.257   1.981   2.753  0.1943  0.4426  0.1529
  164SAPE  H11A18318   6.184   2.055   2.713 -1.4440  0.1381  2.4167
  164SAPE  H11B18319   6.199   1.915   2.821  0.6526  0.8200  0.9209
  164SAPE     P18320   6.384   1.766   2.671 -0.1006 -0.1090  0.2756
  164SAPE   O1318321   6.293   1.672   2.588 -0.0926 -0.5179 -0.0932
  164SAPE   O1418322   6.533   1.763   2.643  0.4890 -0.1784  0.0271
  164SAPE   O1218323   6.321   1.911   2.645  0.0484  0.3137 -0.0739
  164SAPE   O1118324   6.362   1.741   2.830  0.0631 -0.5776  0.4506
  164SAPE    C118325   6.329   1.608   2.869  0.4422 -0.2024 -0.1325
  164SAPE    HA18326   6.251   1.559   2.807  1.3102  0.0527 -1.4924
  164SAPE    HB18327   6.418   1.542   2.853  0.1478 -0.6415  0.0089
  164SAPE    C218328   6.298   1.611   3.014  0.3086  0.2215 -0.1025
  164SAPE    HS18329   6.293   1.510   3.059  2.5536  0.4091  0.7110
  164SAPE   O2118330   6.180   1.685   3.047 -0.3303 -0.4664  0.3046
  164SAPE   C2118331   6.071   1.623   3.011 -0.4464 -0.2518 -0.5743
  164SAPE   O2218332   6.056   1.510   2.964 -0.0317  0.0101 -0.5110
  164SAPE   C2218333   5.963   1.722   3.038  0.9132 -0.4382  0.1524
  164SAPE   H2R18334   5.964   1.733   3.148 -1.0888 -2.1789  0.3969
  164SAPE   H2S18335   5.989   1.815   2.982  1.8387  0.7132  2.3698
  164SAPE    C318336   6.413   1.668   3.092 -0.4571 -0.1510 -0.3509
  164SAPE    HX18337   6.430   1.776   3.075  1.2177 -0.6846 -2.6145
  164SAPE    HY18338   6.506   1.620   3.053 -0.9802 -1.2667 -0.2665
  164SAPE   O3118339   6.405   1.623   3.236 -0.0568  0.4406  0.8577
  164SAPE   C3118340   6.400   1.722   3.328 -0.0812  0.4283  0.2806
  164SAPE   O3218341   6.378   1.836   3.298 -0.2710  0.3489  0.1848
  164SAPE   C3218342   6.452   1.672   3.467 -0.1042  0.1926  0.4953
  164SAPE   H2X18343   6.517   1.585   3.441 -2.4694 -1.0488 -1.7579
  164SAPE   H2Y18344   6.358   1.642   3.517 -1.2581  0.6754 -1.2789
  164SAPE   C2318345   5.824   1.664   2.998  0.0997  0.7790 -0.0896
  164SAPE   H3R18346   5.822   1.617   2.897 -0.0669 -0.4851  0.4808
  164SAPE   H3S18347   5.756   1.749   2.973 -2.7946 -1.6594 -1.1922
  164SAPE   C2418348   5.773   1.559   3.101  0.1730 -0.4130 -0.1072
  164SAPE   H4R18349   5.824   1.461   3.105  1.6373  0.3717  1.3890
  164SAPE   H4S18350   5.670   1.535   3.067  0.4940 -1.5019 -0.3339
  164SAPE   C2518351   5.754   1.611   3.241  0.0589  0.1808 -0.2370
  164SAPE   H5R18352   5.708   1.711   3.249  0.2156  0.1306  1.8740
  164SAPE   C2618353   5.782   1.541   3.356  0.0356 -0.3610 -0.4582
  164SAPE   H6R18354   5.748   1.574   3.456  2.2213  1.6010 -0.2501
  164SAPE   C2718355   5.859   1.413   3.359 -0.1451 -0.7070  0.6278
  164SAPE   H7R18356   5.811   1.351   3.280  0.8811 -0.0625 -0.5307
  164SAPE   H7S18357   5.839   1.348   3.446 -1.1255  0.3114  1.1927
  164SAPE   C2818358   6.007   1.423   3.344 -0.0758  0.5387  0.1010
  164SAPE   H8R18359   6.036   1.356   3.262 -0.8093 -0.9407  0.9857
  164SAPE   C2918360   6.093   1.487   3.425  0.2069 -0.5498  0.2715
  164SAPE   H9R18361   6.195   1.490   3.382 -0.6919 -0.7754 -2.0007
  164SAPE  C21018362   6.070   1.576   3.542  0.8220 -0.9667 -0.3392
  164SAPE  H10R18363   6.130   1.540   3.628 -0.9854 -1.3344  0.7910
  164SAPE  H10S18364   5.967   1.579   3.582  1.0747  2.5787  0.3727
  164SAPE  C21118365   6.103   1.722   3.532 -0.2993 -0.0975  0.2275
  164SAPE  H11R18366   6.065   1.766   3.438 -0.9237  0.7323  0.8477
  164SAPE  C21218367   6.161   1.807   3.623  0.0746  0.2834 -0.2017
  164SAPE  H12R18368   6.174   1.914   3.599 -0.8670  0.9257  1.9044
  164SAPE  C21318369   6.199   1.774   3.764 -0.1274 -0.2923 -0.6260
  164SAPE  H13R18370   6.302   1.812   3.782 -0.3659 -0.5617  1.6566
  164SAPE  H13S18371   6.201   1.663   3.768  0.9090 -0.2748 -0.4856
  164SAPE  C21418372   6.094   1.824   3.859 -0.3885 -0.0116  0.1545
  164SAPE  H14R18373   5.996   1.775   3.845  0.2457 -1.6402  1.1382
  164SAPE  C21518374   6.106   1.897   3.975 -0.0249  0.6324  0.6570
  164SAPE  H15R18375   6.018   1.917   4.038 -1.2883 -0.4578 -0.6814
  164SAPE  C21618376   6.235   1.960   4.027  0.1357 -0.2935 -0.7123
  164SAPE  H16R18377   6.204   2.048   4.088 -1.5258 -2.0835  1.1583
  164SAPE  H16S18378   6.313   1.988   3.952 -0.1910 -0.7252 -1.2239
  164SAPE  C21718379   6.308   1.865   4.126 -0.1052  0.0546  0.0847
  164SAPE  H17R18380   6.413   1.899   4.130 -0.1888  0.9636 -3.0168
  164SAPE  H17S18381   6.310   1.764   4.079 -3.7849 -0.1030 -0.0773
  164SAPE  C21818382   6.239   1.840   4.260 -0.8348 -0.0467 -0.5163
  164SAPE  H18R18383   6.282   1.745   4.299  3.9753  1.8145 -0.5259
  164SAPE  H18S18384   6.129   1.826   4.253 -0.9499  0.3749  0.3006
  164SAPE  C21918385   6.267   1.946   4.365  0.6758  0.4318 -0.7647
  164SAPE  H19R18386   6.377   1.960   4.366  0.6885  0.3281 -0.0067
  164SAPE  H19S18387   6.252   1.898   4.465  0.9273  0.9029 -0.4982
  164SAPE  C22018388   6.198   2.080   4.379  0.0546 -0.8612  0.4541
  164SAPE  H20R18389   6.211   2.122   4.481  0.3417 -2.6549  1.1838
  164SAPE  H20S18390   6.088   2.063   4.368  0.0937 -0.1445 -1.3089
  164SAPE  H20T18391   6.233   2.155   4.305 -0.0552  1.0110  2.2084
  164SAPE   C3318392   6.520   1.794   3.539  0.2217  0.1719 -0.4381
  164SAPE   H3X18393   6.443   1.874   3.536  1.0329  0.9397 -1.0120
  164SAPE   H3Y18394   6.607   1.829   3.480  2.1332 -1.0972  1.5091
  164SAPE   C3418395   6.560   1.758   3.678  0.0023  0.0348 -0.7551
  164SAPE   H4X18396   6.626   1.670   3.659 -0.1334 -0.5749  1.3099
  164SAPE   H4Y18397   6.469   1.724   3.733  0.7175  2.5430  2.2749
  164SAPE   C3518398   6.620   1.867   3.758  0.0051 -0.9048  0.1910
  164SAPE   H5X18399   6.547   1.951   3.760  1.7263  0.8565 -3.0805
  164SAPE   H5Y18400   6.706   1.909   3.702 -0.5631  0.8897  0.5869
  164SAPE   C3618401   6.659   1.819   3.898  0.4916 -0.7089  0.6624
  164SAPE   H6X18402   6.759   1.773   3.885  0.0110 -1.0787 -2.2974
  164SAPE   H6Y18403   6.579   1.746   3.926 -0.7690  0.3328 -0.0916
  164SAPE   C3718404   6.669   1.936   4.000 -0.3209 -0.9659  0.1680
  164SAPE   H7X18405   6.575   1.995   4.007  0.2419  0.3941 -2.5444
  164SAPE   H7Y18406   6.745   2.008   3.963 -1.5077 -0.3641 -1.2330
  164SAPE   C3818407   6.689   1.876   4.137  0.5449  0.3377  1.2729
  164SAPE   H8X18408   6.762   1.793   4.144 -0.5694 -0.8662 -0.6756
  164SAPE   H8Y18409   6.591   1.835   4.167 -0.6805  2.6756  0.7312
  164SAPE   C3918410   6.709   1.982   4.250  0.0995  0.4106 -0.0249
  164SAPE   H9X18411   6.634   2.063   4.246  0.4784  0.8478  1.2575
  164SAPE   H9Y18412   6.807   2.032   4.238  0.3015 -0.2414 -1.2353
  164SAPE  C31018413   6.696   1.924   4.393 -0.1767  0.3316  0.3025
  164SAPE  H10X18414   6.788   1.864   4.407 -0.8555 -0.8013  0.0562
  164SAPE  H10Y18415   6.617   1.847   4.403 -0.4286  0.4191 -0.8465
  164SAPE  C31118416   6.701   2.016   4.505  0.1678 -0.2124 -0.2862
  164SAPE  H11X18417   6.609   2.078   4.512  0.2246  0.2174 -2.5478
  164SAPE  H11Y18418   6.772   2.099   4.483 -2.4167  2.4781  0.7819
  164SAPE  C31218419   6.727   1.950   4.640 -0.3888 -0.7642 -0.4618
  164SAPE  H12X18420   6.811   1.878   4.632 -0.0154 -0.3181 -0.5990
  164SAPE  H12Y18421   6.629   1.902   4.661 -0.5858 -0.6604 -1.1051
  164SAPE  C31318422   6.761   2.059   4.744  0.0141 -0.1017 -1.0180
  164SAPE  H13X18423   6.682   2.135   4.723 -0.1001  0.8332  2.2916
  164SAPE  H13Y18424   6.860   2.103   4.723  0.0314  1.0249  1.1631
  164SAPE  C31418425   6.758   2.015   4.890 -0.2034  0.4540 -0.5687
  164SAPE  H14X18426   6.834   1.933   4.896 -0.3895  0.2998 -0.3185
  164SAPE  H14Y18427   6.661   1.977   4.926  0.4414  0.6388  1.4875
  164SAPE  C31518428   6.824   2.109   4.994  0.1538 -0.0903 -0.4906
  164SAPE  H15X18429   6.824   2.062   5.095 -1.1147  3.0104  1.1231
  164SAPE  H15Y18430   6.747   2.190   4.993 -0.1843 -0.2005  3.1779
  164SAPE  C31618431   6.969   2.159   4.967  0.1116 -0.1218 -0.2216
  164SAPE  H16X18432   6.972   2.206   4.866 -0.6618 -0.8999 -0.6179
  164SAPE  H16Y18433   7.032   2.068   4.956 -0.0736 -0.5332  1.7616
  164SAPE  C31718434   7.029   2.242   5.076 -0.4376 -0.2831 -0.0856
  164SAPE  H17X18435   7.013   2.198   5.176  2.4626 -0.2974  0.4550
  164SAPE  H17Y18436   6.986   2.345   5.080  1.3821  0.5470 -0.7068
  164SAPE  C31818437   7.182   2.268   5.056  0.0688  0.6575 -0.0627
  164SAPE  H18X18438   7.216   2.170   5.015 -0.6696  0.3853 -0.0409
  164SAPE  H18Y18439   7.226   2.296   5.154  1.1537 -0.5536 -0.1663
  164SAPE  H18Z18440   7.212   2.338   4.975 -1.2913  0.6357 -0.6120
  165SAPE     N18441   6.106   5.063   2.372  0.6868 -0.1739 -0.0133
  165SAPE   HN118442   6.126   5.164   2.384  0.4536  0.0896 -1.6556
  165SAPE   HN218443   6.038   5.057   2.294  0.3679 -1.7474  0.3355
  165SAPE   HN318444   6.057   5.030   2.458  2.7508  2.2924  2.2965
  165SAPE   C1218445   6.232   4.982   2.342 -0.1267 -0.0126 -0.7989
  165SAPE  H12A18446   6.280   4.983   2.442 -1.3163 -1.4409 -0.1813
  165SAPE  H12B18447   6.293   5.026   2.260  2.5891 -0.4585  0.8900
  165SAPE   C1118448   6.205   4.838   2.305  0.0619 -0.1304  0.4831
  165SAPE  H11A18449   6.149   4.795   2.390  0.5765 -0.4646  0.6568
  165SAPE  H11B18450   6.304   4.787   2.297  0.6889  1.0381  0.6633
  165SAPE     P18451   6.091   4.697   2.113 -0.2593  0.2606 -0.0701
  165SAPE   O1318452   5.998   4.723   2.006  0.2997  0.2529 -0.2122
  165SAPE   O1418453   6.215   4.621   2.081  0.1154 -1.0947 -0.4314
  165SAPE   O1218454   6.133   4.831   2.177  0.0752  0.1272 -0.8953
  165SAPE   O1118455   6.013   4.618   2.227  0.6441 -0.5404  0.1100
  165SAPE    C118456   5.891   4.685   2.275  0.3426 -0.1739  0.2524
  165SAPE    HA18457   5.909   4.792   2.302  0.5056 -0.2543  0.4677
  165SAPE    HB18458   5.815   4.686   2.195  2.0668  0.1790 -1.4640
  165SAPE    C218459   5.836   4.626   2.413  0.3059  0.1240  0.1226
  165SAPE    HS18460   5.748   4.679   2.454 -0.4457  0.2317 -1.5830
  165SAPE   O2118461   5.927   4.609   2.523  0.0656 -0.3067  0.0215
  165SAPE   C2118462   5.985   4.724   2.568 -0.7273 -0.1040  0.6926
  165SAPE   O2218463   5.962   4.833   2.516  0.0149  0.4468 -0.7571
  165SAPE   C2218464   6.097   4.696   2.670  0.5013 -0.2692  0.4434
  165SAPE   H2R18465   6.103   4.586   2.681 -1.8671 -0.4950 -0.0614
  165SAPE   H2S18466   6.195   4.725   2.627 -0.1648  1.4882  0.0173
  165SAPE    C318467   5.785   4.486   2.366 -0.2306  0.1769 -0.6659
  165SAPE    HX18468   5.879   4.430   2.345  0.0811 -1.0157  3.2172
  165SAPE    HY18469   5.734   4.511   2.271 -1.6373  0.5478  0.1577
  165SAPE   O3118470   5.702   4.436   2.469 -0.3424 -0.0370  0.3881
  165SAPE   C3118471   5.635   4.330   2.437  0.3577  0.3161  0.1481
  165SAPE   O3218472   5.655   4.260   2.334 -0.2057 -0.2153 -0.0234
  165SAPE   C3218473   5.525   4.302   2.545 -0.0215 -0.2671  0.6730
  165SAPE   H2X18474   5.437   4.259   2.492 -0.0603  0.2227  0.3377
  165SAPE   H2Y18475   5.503   4.399   2.596  1.0246  0.2866  0.1096
  165SAPE   C2318476   6.072   4.755   2.804 -0.3063  0.3298 -0.1812
  165SAPE   H3R18477   5.971   4.734   2.847  0.2854 -0.7840  0.7045
  165SAPE   H3S18478   6.083   4.864   2.782 -1.2217  0.3734 -0.4629
  165SAPE   C2418479   6.172   4.710   2.909 -0.6197 -0.5041 -0.0886
  165SAPE   H4R18480   6.157   4.759   3.007 -0.9651 -0.3211 -0.2300
  165SAPE   H4S18481   6.271   4.745   2.872 -1.3181  2.2705  0.4527
  165SAPE   C2518482   6.174   4.564   2.934  0.1118 -0.1256 -0.3343
  165SAPE   H5R18483   6.182   4.500   2.846 -0.2287  1.2135 -1.3717
  165SAPE   C2618484   6.166   4.501   3.056 -0.4001  0.3999  0.3071
  165SAPE   H6R18485   6.166   4.392   3.061  1.9148  0.1390 -2.6530
  165SAPE   C2718486   6.164   4.567   3.193 -0.5605 -0.3266  0.5843
  165SAPE   H7R18487   6.089   4.648   3.184 -1.2092 -0.8843  0.9431
  165SAPE   H7S18488   6.260   4.618   3.216 -2.2193  2.6403  1.4867
  165SAPE   C2818489   6.120   4.479   3.315 -0.1786 -0.1505 -0.2625
  165SAPE   H8R18490   6.048   4.400   3.290 -1.1397  0.5316  0.2928
  165SAPE   C2918491   6.161   4.491   3.443  0.7708 -0.3297  0.1108
  165SAPE   H9R18492   6.121   4.429   3.525  1.3421 -2.2029 -0.9694
  165SAPE  C21018493   6.274   4.570   3.501 -0.3746 -0.0599  0.2003
  165SAPE  H10R18494   6.239   4.663   3.551 -0.4691 -0.9747  1.9342
  165SAPE  H10S18495   6.328   4.599   3.408  2.1783  5.4344  2.8892
  165SAPE  C21118496   6.364   4.483   3.584  0.0583  0.4257 -0.2133
  165SAPE  H11R18497   6.438   4.440   3.515  0.9655  2.0833 -0.3251
  165SAPE  C21218498   6.375   4.478   3.715  0.6222 -0.3691  0.1297
  165SAPE  H12R18499   6.453   4.415   3.761  0.6440  0.7666  1.7426
  165SAPE  C21318500   6.294   4.550   3.818  0.8195 -0.0702 -0.0896
  165SAPE  H13R18501   6.283   4.476   3.900 -2.3836  0.8472  0.4373
  165SAPE  H13S18502   6.191   4.553   3.778  0.0212 -0.5469  1.8350
  165SAPE  C21418503   6.353   4.685   3.866  0.3326  0.0861 -0.1671
  165SAPE  H14R18504   6.431   4.732   3.806  0.4587  0.5756  0.3702
  165SAPE  C21518505   6.322   4.743   3.980 -0.5300  0.0070 -0.6215
  165SAPE  H15R18506   6.363   4.842   4.005  2.3826 -1.0098 -1.0127
  165SAPE  C21618507   6.217   4.690   4.079 -0.5506  0.5831  1.0399
  165SAPE  H16R18508   6.165   4.600   4.038  2.5643 -1.0489  0.3598
  165SAPE  H16S18509   6.149   4.773   4.108 -1.5819 -0.2179  0.9547
  165SAPE  C21718510   6.285   4.644   4.211  0.4119 -0.8493  0.0566
  165SAPE  H17R18511   6.367   4.704   4.254  2.5920 -1.5919 -2.7815
  165SAPE  H17S18512   6.321   4.542   4.186  0.2625 -0.5915 -1.2728
  165SAPE  C21818513   6.181   4.638   4.318  0.4429  0.9091 -0.0764
  165SAPE  H18R18514   6.095   4.584   4.273  0.4273  0.7211  0.1824
  165SAPE  H18S18515   6.155   4.743   4.347  1.1461  0.9679  0.3603
  165SAPE  C21918516   6.209   4.558   4.443  0.1176 -0.0676 -0.2995
  165SAPE  H19R18517   6.299   4.602   4.490 -0.2063  0.7693 -0.4409
  165SAPE  H19S18518   6.227   4.455   4.405 -0.7096 -0.3898  0.1653
  165SAPE  C22018519   6.098   4.544   4.549 -0.5991  1.1393  0.1483
  165SAPE  H20R18520   6.034   4.462   4.509  1.7896 -0.8396  0.0686
  165SAPE  H20S18521   6.041   4.638   4.559 -0.4566  1.3859 -1.1276
  165SAPE  H20T18522   6.128   4.501   4.647 -1.1804 -0.4678 -0.3417
  165SAPE   C3318523   5.567   4.196   2.648 -0.5376  0.2488 -0.1640
  165SAPE   H3X18524   5.654   4.242   2.700  0.8751 -1.4069 -0.9592
  165SAPE   H3Y18525   5.589   4.096   2.605 -1.5563  0.7294 -1.8921
  165SAPE   C3418526   5.453   4.158   2.751  0.0163 -0.1994  0.3699
  165SAPE   H4X18527   5.386   4.079   2.711  0.4046  0.0622 -0.8553
  165SAPE   H4Y18528   5.396   4.251   2.772  1.3554  1.2503 -1.9008
  165SAPE   C3518529   5.515   4.110   2.885  0.2183  0.6946  0.4172
  165SAPE   H5X18530   5.601   4.175   2.911  1.0976 -0.6441  0.9994
  165SAPE   H5Y18531   5.556   4.007   2.880  0.2617  0.7554 -0.5827
  165SAPE   C3618532   5.418   4.093   3.003 -0.0644 -0.6540 -0.2528
  165SAPE   H6X18533   5.328   4.040   2.963  0.5208 -0.1368 -2.3808
  165SAPE   H6Y18534   5.389   4.194   3.040  2.1581 -0.2415  0.4743
  165SAPE   C3718535   5.468   4.014   3.133  0.4185  0.1674 -0.1206
  165SAPE   H7X18536   5.568   4.052   3.164  0.6425 -1.3328  1.1471
  165SAPE   H7Y18537   5.487   3.907   3.112  0.3340  0.2420 -0.5810
  165SAPE   C3818538   5.359   4.030   3.237 -0.9610  0.0970 -0.8021
  165SAPE   H8X18539   5.269   3.965   3.225 -1.1328  0.3275 -0.7805
  165SAPE   H8Y18540   5.319   4.133   3.233  1.2996  1.0623  0.1736
  165SAPE   C3918541   5.404   4.010   3.382 -0.1418 -0.0270  0.3897
  165SAPE   H9X18542   5.495   4.070   3.405 -0.5781  0.4303  0.9510
  165SAPE   H9Y18543   5.432   3.903   3.396 -0.6200 -0.3849 -1.1924
  165SAPE  C31018544   5.305   4.052   3.487  0.1765 -0.2577 -0.1206
  165SAPE  H10X18545   5.221   3.979   3.493 -0.1671  0.2153  1.0665
  165SAPE  H10Y18546   5.255   4.146   3.457 -3.1918 -1.7890  0.1774
  165SAPE  C31118547   5.376   4.062   3.625 -0.2743 -0.3685  1.1104
  165SAPE  H11X18548   5.419   4.163   3.609  0.1046 -0.7985 -0.8540
  165SAPE  H11Y18549   5.452   3.981   3.632  0.1173 -0.1407 -0.1761
  165SAPE  C31218550   5.274   4.067   3.739  0.2811  0.3105  0.2054
  165SAPE  H12X18551   5.212   3.975   3.735 -2.6977  2.1712  0.2287
  165SAPE  H12Y18552   5.203   4.150   3.717  0.5241  0.2852 -0.7508
  165SAPE  C31318553   5.350   4.082   3.874  0.1048  0.3830 -0.3240
  165SAPE  H13X18554   5.401   4.179   3.891  0.2162 -0.1695  3.4701
  165SAPE  H13Y18555   5.426   4.001   3.867 -1.2879 -0.9397 -0.7428
  165SAPE  C31418556   5.252   4.062   3.997  0.6387 -0.3658  0.8735
  165SAPE  H14X18557   5.194   3.967   3.993  1.3378 -0.7654 -1.8967
  165SAPE  H14Y18558   5.177   4.142   3.984  1.0951  0.2300  1.8438
  165SAPE  C31518559   5.317   4.082   4.136 -0.3490  0.6092  0.4000
  165SAPE  H15X18560   5.391   4.164   4.133  2.8736 -2.0794 -0.8689
  165SAPE  H15Y18561   5.374   3.987   4.154 -1.7960 -0.1742  1.0295
  165SAPE  C31618562   5.216   4.095   4.257  0.5591  0.2461  0.5759
  165SAPE  H16X18563   5.143   4.010   4.254  1.9749 -0.9791 -0.5918
  165SAPE  H16Y18564   5.155   4.187   4.252 -1.2945 -0.9670 -0.3119
  165SAPE  C31718565   5.294   4.093   4.383 -0.2164  0.2218  0.2992
  165SAPE  H17X18566   5.380   4.023   4.387 -0.2982  0.1687  1.5938
  165SAPE  H17Y18567   5.216   4.062   4.456 -1.5624 -0.1740 -1.2730
  165SAPE  C31818568   5.344   4.234   4.433 -0.5280  0.2974  0.1264
  165SAPE  H18X18569   5.254   4.297   4.420 -1.5718 -1.4852 -2.0908
  165SAPE  H18Y18570   5.420   4.280   4.367 -2.2142  0.7796 -1.5463
  165SAPE  H18Z18571   5.392   4.229   4.534  0.0358 -1.6911 -0.1911
  166SAPE     N18572   5.305   2.557   2.916 -0.1162 -0.0924  0.6154
  166SAPE   HN118573   5.386   2.492   2.912 -0.5194 -0.5274 -1.4471
  166SAPE   HN218574   5.260   2.554   3.010 -1.4141  3.2883  0.2420
  166SAPE   HN318575   5.232   2.532   2.847  1.9565 -0.4625 -1.5525
  166SAPE   C1218576   5.371   2.689   2.880 -0.6812 -0.2353 -0.2271
  166SAPE  H12A18577   5.375   2.690   2.769 -1.2035 -0.1519 -0.2435
  166SAPE  H12B18578   5.474   2.690   2.921 -1.1027  1.4455  0.8621
  166SAPE   C1118579   5.290   2.806   2.930  0.2868  0.2146  0.3731
  166SAPE  H11A18580   5.341   2.903   2.911  0.0962  0.6555  1.9374
  166SAPE  H11B18581   5.274   2.815   3.040 -0.4263  1.4335  0.1858
  166SAPE     P18582   5.115   2.917   2.771 -0.0362 -0.3394 -0.1761
  166SAPE   O1318583   5.234   2.986   2.713  0.2869  0.6482  0.0511
  166SAPE   O1418584   5.020   2.858   2.677  0.0143  0.5910  0.1345
  166SAPE   O1218585   5.157   2.805   2.872 -0.5260  0.0338  0.3378
  166SAPE   O1118586   5.042   3.012   2.872 -0.6997 -0.6350 -0.2275
  166SAPE    C118587   5.061   3.018   3.018  0.5071  0.6550 -0.4642
  166SAPE    HA18588   4.972   3.070   3.061  0.9527  1.0943 -0.0633
  166SAPE    HB18589   5.090   2.918   3.057 -1.5495 -0.0969 -0.7360
  166SAPE    C218590   5.177   3.116   3.066  0.2742  0.1070  0.0728
  166SAPE    HS18591   5.278   3.070   3.062  0.6626  1.0324 -1.1628
  166SAPE   O2118592   5.158   3.180   3.197  0.2646  0.1007 -0.4440
  166SAPE   C2118593   5.187   3.100   3.300 -0.2664  0.1119 -0.9673
  166SAPE   O2218594   5.200   2.981   3.293 -0.2170  0.0829  0.3488
  166SAPE   C2218595   5.208   3.181   3.429 -0.4912 -0.3916 -0.7902
  166SAPE   H2R18596   5.308   3.229   3.433 -0.1842 -0.9533 -1.4678
  166SAPE   H2S18597   5.132   3.262   3.432 -1.5217 -1.2806 -1.6226
  166SAPE    C318598   5.184   3.236   2.964  0.7113  0.1585 -0.0459
  166SAPE    HX18599   5.100   3.307   2.980  0.8288  0.3777 -0.3992
  166SAPE    HY18600   5.170   3.199   2.861 -0.3265  0.3767  0.0026
  166SAPE   O3118601   5.294   3.320   2.981  0.2638 -0.1640 -0.4219
  166SAPE   C3118602   5.410   3.267   2.942 -0.0080 -0.0082 -0.8032
  166SAPE   O3218603   5.423   3.165   2.877 -0.0657 -0.6774 -0.4705
  166SAPE   C3218604   5.521   3.355   3.011 -0.0166 -0.7566 -0.0514
  166SAPE   H2X18605   5.474   3.431   3.076 -1.5692 -1.6081 -0.1440
  166SAPE   H2Y18606   5.586   3.399   2.932 -1.6695 -0.4254 -1.2829
  166SAPE   C2318607   5.186   3.077   3.542  0.2003  0.0725 -0.2005
  166SAPE   H3R18608   5.278   3.016   3.561 -1.9528 -3.0979  1.0352
  166SAPE   H3S18609   5.102   3.010   3.515 -0.8602  0.7167  1.3316
  166SAPE   C2418610   5.143   3.136   3.672  0.3662 -0.3349  0.7519
  166SAPE   H4R18611   5.107   3.059   3.744 -0.6694 -1.5924 -1.0279
  166SAPE   H4S18612   5.054   3.202   3.661 -0.0464 -1.2816 -2.8079
  166SAPE   C2518613   5.255   3.208   3.749 -0.4265  0.2566 -0.1976
  166SAPE   H5R18614   5.265   3.312   3.714  0.2696  0.0431 -0.6514
  166SAPE   C2618615   5.321   3.168   3.858  0.7879 -0.0114  0.2907
  166SAPE   H6R18616   5.392   3.239   3.904  0.3959 -0.9102  2.4261
  166SAPE   C2718617   5.324   3.024   3.908  0.2570  0.2200 -1.0211
  166SAPE   H7R18618   5.421   2.987   3.870 -0.8398 -1.6044 -2.2237
  166SAPE   H7S18619   5.250   2.956   3.859 -0.2103 -0.3776  0.4737
  166SAPE   C2818620   5.341   3.011   4.057 -0.0098  0.3800  0.0292
  166SAPE   H8R18621   5.432   2.961   4.092 -0.1320  1.0734  1.4115
  166SAPE   C2918622   5.269   3.062   4.154  0.8007 -1.1250 -0.2134
  166SAPE   H9R18623   5.304   3.052   4.258 -0.6840 -0.1737  0.4203
  166SAPE  C21018624   5.152   3.150   4.134  0.1637  0.0607  0.1514
  166SAPE  H10R18625   5.106   3.133   4.035  0.7621  0.1678 -0.1519
  166SAPE  H10S18626   5.193   3.253   4.143  0.0174  0.2055 -0.7600
  166SAPE  C21118627   5.049   3.121   4.239  0.6848 -0.8141 -0.4738
  166SAPE  H11R18628   4.961   3.063   4.207 -0.0199 -0.2457  0.3933
  166SAPE  C21218629   5.038   3.167   4.366  0.4960  0.7011  0.8596
  166SAPE  H12R18630   4.959   3.130   4.434  1.1431  0.3473  1.4335
  166SAPE  C21318631   5.138   3.245   4.443  0.4054 -0.6565 -0.4205
  166SAPE  H13R18632   5.133   3.355   4.429 -0.9453 -0.5123  0.9211
  166SAPE  H13S18633   5.233   3.229   4.388  1.3553  1.5732  0.4569
  166SAPE  C21418634   5.142   3.206   4.592  0.2674  0.0885  0.1925
  166SAPE  H14R18635   5.192   3.114   4.624 -1.2654 -0.1824  1.9727
  166SAPE  C21518636   5.082   3.275   4.688  0.1254 -0.3902  0.3238
  166SAPE  H15R18637   5.095   3.256   4.796  1.4509  0.6972  0.3770
  166SAPE  C21618638   4.984   3.389   4.658 -0.3590  0.1005  0.5867
  166SAPE  H16R18639   4.906   3.379   4.737 -0.9290  1.1862  0.1856
  166SAPE  H16S18640   4.935   3.374   4.560 -0.9785  0.7634  0.7828
  166SAPE  C21718641   5.054   3.525   4.680  0.3202 -0.0902 -0.0620
  166SAPE  H17R18642   5.002   3.595   4.611 -1.8346  1.4192  2.8547
  166SAPE  H17S18643   5.162   3.528   4.654  0.3767  1.8146  0.2281
  166SAPE  C21818644   5.049   3.579   4.828  0.3345 -0.7048  0.5327
  166SAPE  H18R18645   5.097   3.498   4.887 -0.7917 -1.4573  0.4326
  166SAPE  H18S18646   4.942   3.590   4.857  0.0941 -1.9844  0.1776
  166SAPE  C21918647   5.115   3.725   4.845  0.0222 -0.0171 -0.3805
  166SAPE  H19R18648   5.225   3.721   4.860 -0.0987  0.8559  0.9295
  166SAPE  H19S18649   5.074   3.767   4.939  3.8014  1.9516  0.5923
  166SAPE  C22018650   5.073   3.827   4.732  0.3046  0.3043  0.1616
  166SAPE  H20R18651   5.080   3.926   4.783  2.3347 -0.3511  1.2759
  166SAPE  H20S18652   4.966   3.812   4.707  0.3532 -2.3358  1.2131
  166SAPE  H20T18653   5.135   3.826   4.640 -0.7098 -3.7622 -0.6461
  166SAPE   C3318654   5.607   3.255   3.097  0.4962 -0.4954 -0.5258
  166SAPE   H3X18655   5.699   3.314   3.121  0.2116  0.7127 -2.2021
  166SAPE   H3Y18656   5.648   3.169   3.041  3.2217 -0.4943  1.2558
  166SAPE   C3418657   5.540   3.223   3.235  0.4022 -0.0674  0.6437
  166SAPE   H4X18658   5.447   3.165   3.215  1.1401 -1.2098  0.4106
  166SAPE   H4Y18659   5.520   3.317   3.291  1.4404  0.7697 -0.3316
  166SAPE   C3518660   5.629   3.120   3.318  0.3203 -0.2790  0.2464
  166SAPE   H5X18661   5.734   3.156   3.326  0.6924 -1.4715  1.0400
  166SAPE   H5Y18662   5.632   3.031   3.252 -3.2856  0.0982 -0.6515
  166SAPE   C3618663   5.568   3.074   3.448  0.0278 -0.4805  0.8380
  166SAPE   H6X18664   5.475   3.016   3.428 -0.3459  0.7896 -1.3293
  166SAPE   H6Y18665   5.537   3.164   3.506 -0.2875 -0.6695  0.9681
  166SAPE   C3718666   5.660   2.992   3.533  0.0245 -0.2708 -0.7095
  166SAPE   H7X18667   5.740   3.053   3.581 -0.9740 -0.9214  1.9661
  166SAPE   H7Y18668   5.716   2.922   3.467 -0.3162  2.4172 -4.1391
  166SAPE   C3818669   5.594   2.909   3.642 -0.2032 -0.1065 -1.2344
  166SAPE   H8X18670   5.514   2.836   3.616 -1.5687  0.1166  1.9101
  166SAPE   H8Y18671   5.549   2.988   3.707  0.9682 -1.0908  0.8800
  166SAPE   C3918672   5.710   2.834   3.712 -0.4410 -0.0439  0.4634
  166SAPE   H9X18673   5.797   2.904   3.712 -1.8939  1.8897 -1.2002
  166SAPE   H9Y18674   5.733   2.742   3.654  0.1061 -0.4490  1.3038
  166SAPE  C31018675   5.679   2.804   3.857 -0.1470 -0.0274 -0.5817
  166SAPE  H10X18676   5.584   2.755   3.886 -1.9037  1.7859 -2.8731
  166SAPE  H10Y18677   5.676   2.907   3.897  2.7726  0.5299 -1.5254
  166SAPE  C31118678   5.801   2.743   3.924 -0.1297  0.1462 -0.1745
  166SAPE  H11X18679   5.902   2.766   3.883  0.4651 -1.9017  0.0611
  166SAPE  H11Y18680   5.795   2.633   3.911  0.0938 -0.1398  1.8074
  166SAPE  C31218681   5.806   2.789   4.071  0.1999 -0.1422  0.2263
  166SAPE  H12X18682   5.804   2.900   4.081 -1.3143 -0.2519  1.6785
  166SAPE  H12Y18683   5.895   2.737   4.112  1.1685 -4.3485 -5.8544
  166SAPE  C31318684   5.690   2.731   4.159 -0.2103  0.0252  0.3771
  166SAPE  H13X18685   5.686   2.620   4.157  0.3392 -0.1010  2.9270
  166SAPE  H13Y18686   5.589   2.759   4.122  0.5523  0.1979 -1.6911
  166SAPE  C31418687   5.705   2.767   4.304  0.1028 -0.7016 -0.8779
  166SAPE  H14X18688   5.798   2.731   4.354  0.5736  0.9508 -0.4970
  166SAPE  H14Y18689   5.625   2.708   4.353  1.5500 -1.3705  0.7603
  166SAPE  C31518690   5.676   2.920   4.340 -0.4734  0.3337  0.5755
  166SAPE  H15X18691   5.598   2.970   4.280  1.6808  0.4223 -2.3507
  166SAPE  H15Y18692   5.770   2.971   4.310  0.0090 -0.1749  1.1897
  166SAPE  C31618693   5.654   2.932   4.495  0.2950  0.3157 -0.3173
  166SAPE  H16X18694   5.673   3.040   4.513 -0.6322  0.8116 -2.0735
  166SAPE  H16Y18695   5.731   2.875   4.551 -0.4871  0.5051  1.0147
  166SAPE  C31718696   5.519   2.878   4.549 -0.0492  0.5625 -0.0387
  166SAPE  H17X18697   5.518   2.767   4.545 -0.7361  0.5028  1.2100
  166SAPE  H17Y18698   5.432   2.918   4.493  0.7106  2.4189  0.0499
  166SAPE  C31818699   5.506   2.916   4.699 -0.2040 -0.7491 -0.5590
  166SAPE  H18X18700   5.463   3.017   4.712  2.4921  0.6117 -1.3080
  166SAPE  H18Y18701   5.604   2.931   4.750 -0.1709  2.0608 -1.2624
  166SAPE  H18Z18702   5.438   2.855   4.762  0.4012  0.0014  0.8858
  167SAPE     N18703   6.067   1.185   2.603 -0.0569  1.0677  0.4489
  167SAPE   HN118704   6.090   1.110   2.535 -1.4703  1.6263 -0.7087
  167SAPE   HN218705   5.964   1.195   2.598  0.0021  2.3919  1.3962
  167SAPE   HN318706   6.104   1.277   2.572 -1.2498  0.7590 -2.1390
  167SAPE   C1218707   6.094   1.148   2.749 -0.0546  0.0147 -0.4879
  167SAPE  H12A18708   6.036   1.055   2.768  1.0217 -0.8785 -1.4592
  167SAPE  H12B18709   6.055   1.233   2.809  1.4764  1.1351 -0.9997
  167SAPE   C1118710   6.247   1.143   2.776  0.1951 -0.2847  0.1532
  167SAPE  H11A18711   6.271   1.127   2.883  0.0271  3.1445  0.8173
  167SAPE  H11B18712   6.287   1.243   2.748  2.5186 -0.7030  1.7543
  167SAPE     P18713   6.327   0.909   2.701 -0.1572 -0.4786  0.2169
  167SAPE   O1318714   6.308   0.847   2.569 -0.3734 -0.5847 -0.3823
  167SAPE   O1418715   6.455   0.889   2.764 -0.5477  0.1420 -0.2381
  167SAPE   O1218716   6.321   1.062   2.688  0.1865 -0.2033  0.4874
  167SAPE   O1118717   6.207   0.870   2.796 -0.0794 -0.2526 -0.0819
  167SAPE    C118718   6.224   0.764   2.897 -0.3959 -0.1198  0.1569
  167SAPE    HA18719   6.185   0.667   2.858 -1.7388  0.3434  0.3180
  167SAPE    HB18720   6.330   0.750   2.928 -0.7670 -0.0139  1.5402
  167SAPE    C218721   6.151   0.801   3.033 -0.2153  0.1231 -0.2401
  167SAPE    HS18722   6.160   0.716   3.103 -3.3620  0.4133  0.6647
  167SAPE   O2118723   6.015   0.844   3.009  0.0212  0.4993  0.1039
  167SAPE   C2118724   5.939   0.744   2.963 -0.0732  0.1473 -0.4740
  167SAPE   O2218725   5.972   0.630   2.946  0.1200 -0.5285  0.5732
  167SAPE   C2218726   5.796   0.793   2.943  0.3895  0.7614  0.4200
  167SAPE   H2R18727   5.798   0.899   2.909 -0.8727  0.1762 -1.6061
  167SAPE   H2S18728   5.760   0.724   2.864 -0.3203  3.1507 -1.4620
  167SAPE    C318729   6.222   0.911   3.112  0.2415  0.0035 -0.5272
  167SAPE    HX18730   6.225   0.997   3.041  0.3822  0.1711 -0.3186
  167SAPE    HY18731   6.327   0.882   3.136  0.9854  2.5228 -0.3794
  167SAPE   O3118732   6.160   0.946   3.240 -0.6009  1.0913  0.0008
  167SAPE   C3118733   6.083   1.051   3.236  0.7003  0.4348  0.2397
  167SAPE   O3218734   6.047   1.115   3.137 -0.6007 -0.9485  0.6707
  167SAPE   C3218735   6.023   1.085   3.375  0.5031 -0.1777  0.0473
  167SAPE   H2X18736   5.914   1.063   3.372  1.2363 -4.6625 -0.8513
  167SAPE   H2Y18737   6.055   1.183   3.417 -2.8659  1.0141  0.1518
  167SAPE   C2318738   5.708   0.788   3.068 -0.0588  0.1660 -0.2565
  167SAPE   H3R18739   5.604   0.795   3.027 -0.7515  1.3413  1.5708
  167SAPE   H3S18740   5.730   0.882   3.123  1.0958  0.9557 -1.9842
  167SAPE   C2418741   5.722   0.659   3.157  0.2404  0.1335  0.2659
  167SAPE   H4R18742   5.829   0.629   3.164  0.4584  1.0697  1.3174
  167SAPE   H4S18743   5.677   0.574   3.102 -0.3334  1.5903 -1.5930
  167SAPE   C2518744   5.661   0.662   3.299  0.5990 -0.3236  0.6411
  167SAPE   H5R18745   5.554   0.689   3.295  1.0905  1.7207  0.0439
  167SAPE   C2618746   5.714   0.663   3.425  0.2324  0.4568 -0.3074
  167SAPE   H6R18747   5.656   0.677   3.518  0.9349 -0.7788  0.3303
  167SAPE   C2718748   5.854   0.634   3.466 -1.3762 -0.1953  0.5556
  167SAPE   H7R18749   5.899   0.724   3.514 -2.7784  0.0066  1.5412
  167SAPE   H7S18750   5.915   0.608   3.377 -0.4799 -2.9760  1.8811
  167SAPE   C2818751   5.855   0.516   3.551  0.0229  0.1691  1.0275
  167SAPE   H8R18752   5.846   0.422   3.494 -0.7946  1.4079 -0.9929
  167SAPE   C2918753   5.859   0.515   3.683  0.0427  0.0649  0.1567
  167SAPE   H9R18754   5.846   0.417   3.731 -1.2546 -0.3790 -1.0377
  167SAPE  C21018755   5.869   0.632   3.784 -0.6968 -0.1355 -0.8747
  167SAPE  H10R18756   5.785   0.619   3.856  0.5252  0.8643  0.8042
  167SAPE  H10S18757   5.865   0.729   3.730  2.7726  0.0353 -1.0538
  167SAPE  C21118758   5.993   0.636   3.866  0.2913  0.5967 -0.8554
  167SAPE  H11R18759   6.087   0.608   3.816 -0.4862 -0.2681 -1.8919
  167SAPE  C21218760   5.997   0.673   3.994  0.7301 -0.3287  0.1508
  167SAPE  H12R18761   6.088   0.663   4.055 -0.1416 -0.0670  1.5373
  167SAPE  C21318762   5.881   0.729   4.080 -0.3938  0.3836  0.2582
  167SAPE  H13R18763   5.787   0.733   4.021 -0.8301 -1.2249  0.7830
  167SAPE  H13S18764   5.909   0.834   4.102  0.8214 -0.1036  1.2177
  167SAPE  C21418765   5.854   0.648   4.203  0.1375 -0.6450 -0.2737
  167SAPE  H14R18766   5.835   0.541   4.187 -1.6965 -0.5381  0.8244
  167SAPE  C21518767   5.875   0.695   4.328 -0.0901 -0.4424 -0.0816
  167SAPE  H15R18768   5.872   0.626   4.414  1.0693  0.5399  0.7720
  167SAPE  C21618769   5.914   0.833   4.365  0.2717 -0.5312 -0.6723
  167SAPE  H16R18770   5.979   0.879   4.288  0.2189  0.9284  0.1075
  167SAPE  H16S18771   5.991   0.830   4.445  0.7410 -2.0955 -1.1435
  167SAPE  C21718772   5.795   0.930   4.407 -0.0450 -0.1121  0.3410
  167SAPE  H17R18773   5.725   0.932   4.321 -0.8940 -4.2289  0.7149
  167SAPE  H17S18774   5.831   1.033   4.421  0.7232 -0.4832  1.1853
  167SAPE  C21818775   5.699   0.869   4.514 -0.4794 -0.0116  0.3220
  167SAPE  H18R18776   5.748   0.859   4.614 -1.5628 -0.9055  0.7850
  167SAPE  H18S18777   5.660   0.772   4.477  0.2570  0.2620 -1.2389
  167SAPE  C21918778   5.575   0.952   4.553  0.0105  0.3417 -0.0575
  167SAPE  H19R18779   5.617   1.055   4.555 -0.6988  0.6794 -1.4258
  167SAPE  H19S18780   5.536   0.921   4.652 -2.7669  0.1124 -1.1398
  167SAPE  C22018781   5.463   0.927   4.452  0.3819  0.6942  0.8535
  167SAPE  H20R18782   5.425   0.824   4.468  0.4954  0.6512  0.8447
  167SAPE  H20S18783   5.502   0.939   4.348  2.0550  2.3847  1.6132
  167SAPE  H20T18784   5.379   0.999   4.462  0.4332  0.8957 -0.0362
  167SAPE   C3318785   6.064   0.992   3.493  0.0482 -0.0077 -0.3236
  167SAPE   H3X18786   6.172   1.002   3.519  0.1065 -2.1252  0.4201
  167SAPE   H3Y18787   6.057   0.889   3.454 -0.5367 -0.3295  0.5885
  167SAPE   C3418788   5.985   1.023   3.624 -0.1347  0.0474 -0.4293
  167SAPE   H4X18789   6.028   0.943   3.689 -0.4711 -0.1556 -0.4559
  167SAPE   H4Y18790   5.876   1.008   3.612 -0.0606 -1.3882  0.4048
  167SAPE   C3518791   6.020   1.166   3.686  0.3614  0.3900  0.3457
  167SAPE   H5X18792   5.999   1.231   3.598 -0.0253  0.3775  0.4293
  167SAPE   H5Y18793   6.128   1.165   3.713  0.7874 -4.2479 -0.7025
  167SAPE   C3618794   5.923   1.203   3.797  0.2932 -0.0824 -0.0369
  167SAPE   H6X18795   5.817   1.194   3.765 -0.2197  0.0835  1.5168
  167SAPE   H6Y18796   5.942   1.311   3.814  1.1498 -0.2650  0.1916
  167SAPE   C3718797   5.950   1.118   3.924 -1.4432  0.2827 -0.1057
  167SAPE   H7X18798   6.059   1.122   3.943 -1.4179 -2.0804  0.5578
  167SAPE   H7Y18799   5.925   1.012   3.902 -1.6421  0.4722 -0.8533
  167SAPE   C3818800   5.867   1.162   4.043  0.1709  0.0757  0.4029
  167SAPE   H8X18801   5.896   1.093   4.126  0.1405 -0.0915  0.2756
  167SAPE   H8Y18802   5.761   1.134   4.024 -0.0047 -0.6078  2.1572
  167SAPE   C3918803   5.890   1.309   4.086  0.1521 -0.1345 -0.0227
  167SAPE   H9X18804   5.820   1.313   4.172 -3.0614 -1.5402 -2.3556
  167SAPE   H9Y18805   5.855   1.377   4.006 -0.1556  1.9318  1.7992
  167SAPE  C31018806   6.037   1.331   4.132 -0.0730  0.0283  0.0646
  167SAPE  H10X18807   6.101   1.337   4.041  0.5739  2.1282  0.5967
  167SAPE  H10Y18808   6.084   1.255   4.198  0.3114 -1.3198 -1.6753
  167SAPE  C31118809   6.047   1.472   4.199  0.4779  0.1224  0.1001
  167SAPE  H11X18810   5.994   1.541   4.131 -1.6839  1.6025  3.0423
  167SAPE  H11Y18811   6.154   1.500   4.215  0.4336 -0.4481  1.5694
  167SAPE  C31218812   5.966   1.474   4.335 -0.5112 -0.2321  0.3636
  167SAPE  H12X18813   6.013   1.393   4.394  2.6114  0.2669 -1.2266
  167SAPE  H12Y18814   5.858   1.456   4.318 -0.6189  1.2502 -0.7662
  167SAPE  C31318815   5.983   1.611   4.407  0.4761 -0.5992 -0.1464
  167SAPE  H13X18816   5.930   1.697   4.359 -1.1438 -0.0173  2.4818
  167SAPE  H13Y18817   6.088   1.645   4.417  0.3208 -0.6936  2.1749
  167SAPE  C31418818   5.940   1.593   4.554  0.4899  0.5308 -1.2793
  167SAPE  H14X18819   6.005   1.515   4.598  0.9185  1.7283  0.3413
  167SAPE  H14Y18820   5.841   1.544   4.554  1.4868 -1.5946 -2.3624
  167SAPE  C31518821   5.945   1.730   4.633 -0.2087  0.3754 -0.1186
  167SAPE  H15X18822   5.878   1.725   4.721 -0.0026 -3.5908  0.0009
  167SAPE  H15Y18823   5.905   1.801   4.558 -1.6314 -0.8557 -0.5871
  167SAPE  C31618824   6.078   1.759   4.692 -0.0654  0.1007 -0.1992
  167SAPE  H16X18825   6.148   1.793   4.612  1.1980  2.2924  1.7395
  167SAPE  H16Y18826   6.128   1.668   4.732  0.2669  0.0710 -0.6670
  167SAPE  C31718827   6.089   1.880   4.794  0.0109 -0.4262 -0.2892
  167SAPE  H17X18828   6.197   1.905   4.785 -0.5095  1.1748 -3.0500
  167SAPE  H17Y18829   6.063   1.857   4.900  0.4545 -1.0253 -0.3047
  167SAPE  C31818830   6.009   2.003   4.747  0.3603 -0.9982 -0.0910
  167SAPE  H18X18831   5.902   1.980   4.730 -0.1407  1.6961 -0.9580
  167SAPE  H18Y18832   6.048   2.045   4.653  3.2126  0.4535  1.6065
  167SAPE  H18Z18833   6.016   2.084   4.823 -0.3067 -0.5319 -0.5125
  168SAPE     N18834   2.692   4.021   2.400  0.3023  0.7993 -0.4583
  168SAPE   HN118835   2.616   3.995   2.335  1.6057  1.6757 -2.4232
  168SAPE   HN218836   2.771   4.069   2.351  0.1924  0.6812 -0.7518
  168SAPE   HN318837   2.725   3.932   2.443  1.2894  2.2478  2.0490
  168SAPE   C1218838   2.643   4.126   2.503  0.0345 -0.4749  0.2523
  168SAPE  H12A18839   2.582   4.193   2.439 -1.8128 -2.6452 -0.3949
  168SAPE  H12B18840   2.728   4.176   2.554 -0.7243  0.4994  0.5747
  168SAPE   C1118841   2.557   4.060   2.613  0.3967  0.2458  0.5863
  168SAPE  H11A18842   2.500   4.145   2.657  1.0554  0.3399  1.2821
  168SAPE  H11B18843   2.624   4.011   2.687 -1.2372 -0.3271  1.7231
  168SAPE     P18844   2.333   3.931   2.605  0.4074 -0.6670  0.5186
  168SAPE   O1318845   2.242   4.035   2.558  0.3158 -0.0245  1.1358
  168SAPE   O1418846   2.306   3.791   2.570 -0.2768 -0.4650 -0.3652
  168SAPE   O1218847   2.475   3.961   2.554 -0.3165 -0.7972 -0.3115
  168SAPE   O1118848   2.346   3.943   2.759 -0.0386 -0.0946 -0.3526
  168SAPE    C118849   2.433   3.856   2.837 -0.0437 -0.2953 -0.0424
  168SAPE    HA18850   2.395   3.753   2.855 -0.3933  0.3014  3.3813
  168SAPE    HB18851   2.534   3.835   2.796 -0.2963 -0.3205 -0.6647
  168SAPE    C218852   2.451   3.921   2.984 -0.4918  0.1938  0.6061
  168SAPE    HS18853   2.353   3.952   3.024 -0.7484  0.8598 -0.5238
  168SAPE   O2118854   2.544   4.038   2.977 -0.1610 -0.1627  0.2855
  168SAPE   C2118855   2.486   4.150   2.955  0.5405 -0.6095 -0.4765
  168SAPE   O2218856   2.365   4.174   2.955  0.3513  0.7027 -0.0987
  168SAPE   C2218857   2.590   4.254   2.939 -0.1851 -0.2660  0.1686
  168SAPE   H2R18858   2.669   4.254   3.018  1.6895 -0.1970 -1.6215
  168SAPE   H2S18859   2.641   4.234   2.842  0.6128  3.5191 -0.3406
  168SAPE    C318860   2.509   3.814   3.078  0.3091 -0.7858  0.9078
  168SAPE    HX18861   2.617   3.805   3.051  0.2302  0.7218 -0.0459
  168SAPE    HY18862   2.463   3.716   3.054  1.6569 -1.6242  1.6535
  168SAPE   O3118863   2.490   3.851   3.217 -0.2881  0.5282 -0.0632
  168SAPE   C3118864   2.594   3.846   3.305  1.1997  0.0323 -0.3769
  168SAPE   O3218865   2.697   3.783   3.280  0.1481 -0.5557  0.1398
  168SAPE   C3218866   2.562   3.928   3.431  0.0474 -0.5981  0.3274
  168SAPE   H2X18867   2.455   3.948   3.451  0.3670  2.8037 -0.7306
  168SAPE   H2Y18868   2.610   4.027   3.418 -1.9583 -0.0266 -4.6250
  168SAPE   C2318869   2.525   4.397   2.945 -0.4999  0.8492 -0.6433
  168SAPE   H3R18870   2.472   4.395   3.043 -0.1232  0.2270 -0.4454
  168SAPE   H3S18871   2.433   4.392   2.883  0.6039 -1.7130 -2.2566
  168SAPE   C2418872   2.605   4.523   2.938  0.0767  0.5363 -0.4398
  168SAPE   H4R18873   2.654   4.520   2.838 -2.7020  0.7812 -1.8983
  168SAPE   H4S18874   2.687   4.534   3.012  1.4854 -0.4418 -1.7791
  168SAPE   C2518875   2.507   4.644   2.940 -0.0041  1.2893 -0.3764
  168SAPE   H5R18876   2.429   4.641   2.863  0.7543  1.3681 -1.1611
  168SAPE   C2618877   2.519   4.748   3.019  0.5052 -1.0013 -0.1158
  168SAPE   H6R18878   2.448   4.830   3.001  0.2200 -1.7572 -2.8902
  168SAPE   C2718879   2.612   4.768   3.135 -0.4914  0.3103  1.0012
  168SAPE   H7R18880   2.709   4.800   3.090 -0.2447 -0.7921  0.7260
  168SAPE   H7S18881   2.641   4.682   3.199  1.7646  2.7641  3.5751
  168SAPE   C2818882   2.572   4.880   3.231 -0.5336 -0.2118 -0.6609
  168SAPE   H8R18883   2.531   4.973   3.189 -1.1558  0.3932  1.1981
  168SAPE   C2918884   2.599   4.893   3.363 -0.5813 -0.5122  0.6615
  168SAPE   H9R18885   2.558   4.975   3.423 -2.1329 -1.5245  1.0134
  168SAPE  C21018886   2.680   4.803   3.452 -0.4640 -0.3104  0.7905
  168SAPE  H10R18887   2.770   4.763   3.401 -0.7292 -3.2169  2.4216
  168SAPE  H10S18888   2.621   4.716   3.487 -0.5663 -0.5614  0.0177
  168SAPE  C21118889   2.746   4.869   3.567  0.8608 -0.7232 -0.0653
  168SAPE  H11R18890   2.833   4.932   3.546  1.5644 -1.6885 -0.1083
  168SAPE  C21218891   2.705   4.881   3.695  0.7256 -0.2790  0.0089
  168SAPE  H12R18892   2.772   4.933   3.765 -0.4440 -1.4117  2.0383
  168SAPE  C21318893   2.591   4.809   3.765 -0.2244 -0.0505 -0.3976
  168SAPE  H13R18894   2.499   4.809   3.703 -1.0931 -0.1356  0.8419
  168SAPE  H13S18895   2.563   4.873   3.852 -0.6604 -0.6097 -0.1180
  168SAPE  C21418896   2.639   4.669   3.800  0.5740 -0.0785 -0.3773
  168SAPE  H14R18897   2.668   4.606   3.714  2.3563 -0.2495  0.2988
  168SAPE  C21518898   2.648   4.638   3.929  0.5290 -0.5451  0.4769
  168SAPE  H15R18899   2.665   4.531   3.950  0.3498 -0.5546  0.5711
  168SAPE  C21618900   2.598   4.716   4.043 -0.2621 -0.0744 -0.1066
  168SAPE  H16R18901   2.562   4.642   4.117 -0.9631  0.9457  0.6063
  168SAPE  H16S18902   2.505   4.777   4.032 -0.7870 -0.5211  1.6113
  168SAPE  C21718903   2.707   4.804   4.111 -0.5060 -0.2930  0.3028
  168SAPE  H17R18904   2.732   4.884   4.039  1.2346  1.5522  2.7944
  168SAPE  H17S18905   2.798   4.756   4.151 -0.3061 -0.3604 -0.2229
  168SAPE  C21818906   2.649   4.865   4.238  1.4989  0.3089  0.2154
  168SAPE  H18R18907   2.539   4.880   4.232  1.3124 -0.6476  1.0745
  168SAPE  H18S18908   2.693   4.967   4.246  1.3654  0.8759 -3.9304
  168SAPE  C21918909   2.687   4.788   4.369  0.1108  0.5705  0.8804
  168SAPE  H19R18910   2.798   4.791   4.364  0.0832 -0.0198 -2.0955
  168SAPE  H19S18911   2.660   4.681   4.374 -0.7628  0.5476 -2.2025
  168SAPE  C22018912   2.637   4.863   4.491 -1.1133  0.2395 -0.1681
  168SAPE  H20R18913   2.659   4.809   4.585  0.1905  1.0667  0.0192
  168SAPE  H20S18914   2.528   4.884   4.492 -2.0609 -3.8210 -0.0469
  168SAPE  H20T18915   2.690   4.961   4.496 -0.9841  0.1198  1.5884
  168SAPE   C3318916   2.628   3.857   3.550 -0.2138  0.7238 -0.3270
  168SAPE   H3X18917   2.737   3.843   3.532 -0.6090 -1.0337 -1.7269
  168SAPE   H3Y18918   2.578   3.758   3.549 -1.1154  1.1468  1.2011
  168SAPE   C3418919   2.614   3.924   3.691  0.3774 -0.0098  0.2281
  168SAPE   H4X18920   2.507   3.940   3.714 -0.2194 -2.1498 -0.8389
  168SAPE   H4Y18921   2.654   4.027   3.690 -0.6738  0.4376  1.3711
  168SAPE   C3518922   2.676   3.846   3.805  0.3827  0.4862  0.0338
  168SAPE   H5X18923   2.784   3.838   3.784  0.5627  2.7929 -0.1565
  168SAPE   H5Y18924   2.639   3.741   3.806  1.6909  0.0111  0.0788
  168SAPE   C3618925   2.663   3.909   3.942 -0.2361  0.2511  0.4265
  168SAPE   H6X18926   2.559   3.931   3.972 -0.1317  0.7570  0.4290
  168SAPE   H6Y18927   2.715   4.006   3.950  0.2086 -0.0684  1.6138
  168SAPE   C3718928   2.732   3.827   4.056 -0.6300 -0.6511 -0.0546
  168SAPE   H7X18929   2.832   3.788   4.028  0.1669  1.7885 -0.9061
  168SAPE   H7Y18930   2.657   3.748   4.073 -0.0905 -1.2539 -0.4509
  168SAPE   C3818931   2.753   3.906   4.190  0.1265  0.1284  0.7114
  168SAPE   H8X18932   2.813   3.998   4.173  0.7419  0.3982  3.7582
  168SAPE   H8Y18933   2.808   3.843   4.263 -0.8797 -1.7514 -0.0880
  168SAPE   C3918934   2.611   3.946   4.248 -0.1721  0.8411  0.0604
  168SAPE   H9X18935   2.548   3.857   4.272  0.1481  0.7212  0.4755
  168SAPE   H9Y18936   2.558   4.017   4.181  0.3548 -1.2758 -2.7969
  168SAPE  C31018937   2.633   4.012   4.382 -0.4557 -0.4312 -0.1856
  168SAPE  H10X18938   2.664   4.116   4.358  1.2867 -0.4462  1.7672
  168SAPE  H10Y18939   2.707   3.961   4.446 -1.4508 -0.4466  0.9984
  168SAPE  C31118940   2.507   4.013   4.460 -0.6184 -0.5202 -0.0382
  168SAPE  H11X18941   2.477   3.908   4.477 -1.4291 -0.2722  0.1066
  168SAPE  H11Y18942   2.425   4.065   4.406 -0.5987  1.6425  1.8414
  168SAPE  C31218943   2.532   4.090   4.592  0.4956  1.0490 -0.2031
  168SAPE  H12X18944   2.618   4.037   4.638  1.8384  4.1176  1.1241
  168SAPE  H12Y18945   2.448   4.059   4.657  0.6583  1.2238  0.0915
  168SAPE  C31318946   2.555   4.240   4.599  0.2428  0.1826 -0.4774
  168SAPE  H13X18947   2.472   4.302   4.558 -1.4289 -1.2466  0.6325
  168SAPE  H13Y18948   2.645   4.263   4.538  0.8984 -1.3149 -0.1088
  168SAPE  C31418949   2.581   4.292   4.736 -0.7135 -0.3981 -0.2084
  168SAPE  H14X18950   2.664   4.229   4.776 -1.7574 -1.0185  1.0665
  168SAPE  H14Y18951   2.490   4.263   4.794 -0.9952 -2.6897 -1.6601
  168SAPE  C31518952   2.610   4.434   4.748  0.1551 -0.5906  0.5524
  168SAPE  H15X18953   2.529   4.498   4.707 -0.9002 -0.9843  1.9407
  168SAPE  H15Y18954   2.697   4.463   4.685 -0.2625  0.6732  0.5460
  168SAPE  C31618955   2.647   4.467   4.892 -0.5557  0.6028 -0.6803
  168SAPE  H16X18956   2.755   4.443   4.903 -0.8341 -0.0958  0.6686
  168SAPE  H16Y18957   2.579   4.406   4.954 -2.5992  2.6331 -0.8004
  168SAPE  C31718958   2.621   4.612   4.942  0.2825 -0.5190  0.3122
  168SAPE  H17X18959   2.514   4.627   4.915  0.4656 -0.1458 -0.2287
  168SAPE  H17Y18960   2.687   4.683   4.888  0.1724  0.8556  1.8733
  168SAPE  C31818961   2.634   4.624   5.093 -0.4306 -0.2020  0.2340
  168SAPE  H18X18962   2.610   4.725   5.132 -1.4469 -0.8700  1.4408
  168SAPE  H18Y18963   2.737   4.604   5.128 -0.0087  1.9352  0.3064
  168SAPE  H18Z18964   2.563   4.555   5.144 -0.9360  0.2314  0.1283
  169SAPE     N18965   6.184   0.615   2.506  0.0026 -0.1098  0.1998
  169SAPE   HN118966   6.233   0.706   2.517 -1.5695  0.6009  1.9455
  169SAPE   HN218967   6.236   0.538   2.553  0.2270 -1.3640 -2.0012
  169SAPE   HN318968   6.181   0.591   2.405 -0.5785  0.1970  0.1377
  169SAPE   C1218969   6.048   0.616   2.574 -0.0351  0.5034 -0.5972
  169SAPE  H12A18970   6.000   0.707   2.531  0.7016  0.8827 -0.6346
  169SAPE  H12B18971   6.062   0.626   2.684 -0.0197  3.8672 -0.7882
  169SAPE   C1118972   5.966   0.487   2.524 -0.0494 -1.3979  0.0838
  169SAPE  H11A18973   5.978   0.471   2.415  3.6734 -2.4797  0.5178
  169SAPE  H11B18974   5.862   0.521   2.539  0.7041  0.1182  2.5260
  169SAPE     P18975   6.008   0.225   2.524  0.1975 -0.2528 -0.1266
  169SAPE   O1318976   5.873   0.165   2.503 -0.1447  0.6974  0.3883
  169SAPE   O1418977   6.104   0.240   2.412  0.0131 -0.8362  0.2181
  169SAPE   O1218978   5.998   0.369   2.594  0.3360 -0.3254 -0.2842
  169SAPE   O1118979   6.078   0.131   2.637 -0.3697  0.6144  0.3316
  169SAPE    C118980   6.104   0.189   2.767  0.0260  0.1031  0.6839
  169SAPE    HA18981   6.159   0.282   2.744 -0.5760  1.6947  4.8584
  169SAPE    HB18982   6.015   0.234   2.815 -0.5957  0.9170 -1.1544
  169SAPE    C218983   6.198   0.105   2.846  0.9386 -0.3071 -0.5088
  169SAPE    HS18984   6.277   0.065   2.779  1.1660  2.8590 -2.3392
  169SAPE   O2118985   6.130  -0.003   2.910 -0.1604  0.1695 -0.3687
  169SAPE   C2118986   6.210  -0.088   2.967 -0.8697 -0.1973  0.2079
  169SAPE   O2218987   6.333  -0.094   2.955 -0.0366  0.3746 -0.6035
  169SAPE   C2218988   6.137  -0.191   3.052  0.2724  1.0279 -0.6537
  169SAPE   H2R18989   6.028  -0.166   3.053 -0.0090 -0.1348  0.3061
  169SAPE   H2S18990   6.130  -0.293   3.008 -0.3573  1.1615 -0.8817
  169SAPE    C318991   6.274   0.189   2.955 -0.4473 -0.3605  0.2102
  169SAPE    HX18992   6.334   0.261   2.896  0.3015 -1.3792 -0.3185
  169SAPE    HY18993   6.338   0.114   3.006 -0.4659 -0.6891 -0.2435
  169SAPE   O3118994   6.175   0.253   3.044 -0.2861 -0.3483 -0.4749
  169SAPE   C3118995   6.242   0.301   3.154  0.2385 -0.1933  0.2210
  169SAPE   O3218996   6.355   0.275   3.191  0.1259  0.1720  0.0125
  169SAPE   C3218997   6.142   0.380   3.237  0.0228  0.1073 -0.4820
  169SAPE   H2X18998   6.037   0.361   3.207 -0.8659  2.5435  0.7738
  169SAPE   H2Y18999   6.157   0.486   3.205  0.2080  0.3289  0.3186
  169SAPE   C2319000   6.191  -0.196   3.193 -0.2146 -0.2357 -0.2613
  169SAPE   H3R19001   6.302  -0.200   3.200 -0.2873 -0.3446  1.1013
  169SAPE   H3S19002   6.157  -0.280   3.258  0.6199  1.4303  2.4695
  169SAPE   C2419003   6.144  -0.068   3.275 -0.1300  0.7235 -0.5776
  169SAPE   H4R19004   6.140   0.028   3.220 -1.6100  2.1227  1.8007
  169SAPE   H4S19005   6.227  -0.057   3.348 -1.1150  3.0084  0.2633
  169SAPE   C2519006   6.002  -0.079   3.322 -0.1983  0.0943 -0.2489
  169SAPE   H5R19007   5.925  -0.069   3.244 -1.1492  1.6033  0.8351
  169SAPE   C2619008   5.952  -0.098   3.447 -0.4803  0.5228  0.0590
  169SAPE   H6R19009   5.844  -0.088   3.469 -0.3466 -2.3083  2.5429
  169SAPE   C2719010   6.037  -0.131   3.562 -0.2375  0.2250 -0.2904
  169SAPE   H7R19011   6.114  -0.054   3.580 -2.3014  1.6223  4.1271
  169SAPE   H7S19012   6.089  -0.223   3.527 -0.0229  0.8064 -1.5310
  169SAPE   C2819013   5.958  -0.163   3.694  0.6714  0.2271  0.0987
  169SAPE   H8R19014   5.862  -0.206   3.662  0.2625 -0.0007  1.6038
  169SAPE   C2919015   5.998  -0.165   3.824  0.1236  0.3580  0.0045
  169SAPE   H9R19016   5.920  -0.186   3.899  0.7355  2.9874  1.5103
  169SAPE  C21019017   6.134  -0.116   3.881  0.4307 -0.8033 -0.5393
  169SAPE  H10R19018   6.207  -0.089   3.801 -0.6180 -2.3886 -2.1254
  169SAPE  H10S19019   6.193  -0.193   3.934  1.3366 -1.1536 -1.9775
  169SAPE  C21119020   6.109   0.001   3.974 -0.6467 -0.5337  0.1065
  169SAPE  H11R19021   6.057   0.085   3.925 -1.5680 -0.5863  0.9700
  169SAPE  C21219022   6.107  -0.001   4.104  0.5897 -0.3989  0.6157
  169SAPE  H12R19023   6.081   0.092   4.157  0.2020 -0.2019  0.0946
  169SAPE  C21319024   6.147  -0.111   4.191  0.7409  0.0379  0.1005
  169SAPE  H13R19025   6.169  -0.060   4.288  0.9941  2.5323 -1.2016
  169SAPE  H13S19026   6.249  -0.151   4.169  0.5244 -0.2467 -0.4063
  169SAPE  C21419027   6.039  -0.210   4.206 -0.5372  0.4869  0.7343
  169SAPE  H14R19028   6.029  -0.282   4.123  0.2599  1.3158 -0.0924
  169SAPE  C21519029   5.959  -0.226   4.313  0.0801 -0.2700 -0.1340
  169SAPE  H15R19030   5.889  -0.309   4.323 -0.9606  0.8503  3.9672
  169SAPE  C21619031   5.946  -0.138   4.431  0.3686 -0.1440  0.6732
  169SAPE  H16R19032   5.856  -0.076   4.410  0.4885  0.0737  0.7909
  169SAPE  H16S19033   6.029  -0.064   4.436  0.0869  0.4551 -1.9037
  169SAPE  C21719034   5.939  -0.210   4.562  0.4680  0.2637 -0.4725
  169SAPE  H17R19035   6.041  -0.243   4.591  0.3917 -0.6813 -1.1964
  169SAPE  H17S19036   5.875  -0.301   4.551 -1.2151  1.4757 -1.1553
  169SAPE  C21819037   5.879  -0.125   4.667 -0.0382  0.5355 -0.5611
  169SAPE  H18R19038   5.782  -0.081   4.637  0.4552  3.1416  1.3037
  169SAPE  H18S19039   5.942  -0.034   4.681  1.3269 -0.8049  3.2670
  169SAPE  C21919040   5.869  -0.184   4.816  0.3508  0.5023 -0.1323
  169SAPE  H19R19041   5.818  -0.283   4.809  2.3113 -0.6965  1.2609
  169SAPE  H19S19042   5.813  -0.115   4.882  2.3341  1.5084  0.5835
  169SAPE  C22019043   6.009  -0.213   4.871 -0.0385 -0.1678 -0.4400
  169SAPE  H20R19044   6.051  -0.307   4.830 -3.3118 -2.6271  1.3655
  169SAPE  H20S19045   6.004  -0.220   4.982  0.1837  0.2887 -0.3981
  169SAPE  H20T19046   6.079  -0.130   4.847 -2.2264  2.2026  0.8548
  169SAPE   C3319047   6.168   0.394   3.392  0.4754 -0.3269  0.2436
  169SAPE   H3X19048   6.097   0.476   3.416  1.1203  0.1649  0.5191
  169SAPE   H3Y19049   6.275   0.425   3.400 -0.1514  1.8795  0.9070
  169SAPE   C3419050   6.146   0.273   3.484 -0.3951  0.2194 -0.1049
  169SAPE   H4X19051   6.200   0.180   3.457  4.0825  1.5607  3.0444
  169SAPE   H4Y19052   6.037   0.251   3.480 -0.3426 -0.2377  0.6216
  169SAPE   C3519053   6.181   0.295   3.634 -1.0902  0.4262 -0.5332
  169SAPE   H5X19054   6.164   0.201   3.691  1.9040 -0.1375 -0.3919
  169SAPE   H5Y19055   6.122   0.381   3.672 -0.8705  0.2929  0.1078
  169SAPE   C3619056   6.335   0.313   3.660  0.5585  0.6081 -0.6025
  169SAPE   H6X19057   6.362   0.415   3.627 -2.2991  1.2355 -1.2832
  169SAPE   H6Y19058   6.391   0.241   3.598 -0.6419 -2.1353  1.2995
  169SAPE   C3719059   6.378   0.302   3.811  0.2241 -0.1745  0.3836
  169SAPE   H7X19060   6.486   0.331   3.818 -0.2792  1.8146  0.5601
  169SAPE   H7Y19061   6.363   0.194   3.834  1.4444 -0.2292  1.0292
  169SAPE   C3819062   6.313   0.408   3.903  0.8680  0.7547 -0.2207
  169SAPE   H8X19063   6.204   0.412   3.881  0.5361  0.0547  1.1813
  169SAPE   H8Y19064   6.368   0.502   3.880  3.8172 -0.8678 -0.2719
  169SAPE   C3919065   6.332   0.366   4.054  0.2012 -0.5794  1.2417
  169SAPE   H9X19066   6.443   0.360   4.053  0.1309 -3.6659 -1.0038
  169SAPE   H9Y19067   6.282   0.270   4.078 -0.5681 -0.1280  1.5010
  169SAPE  C31019068   6.269   0.468   4.150 -0.5988  0.1190  0.5092
  169SAPE  H10X19069   6.165   0.432   4.169 -0.8648  1.0791  0.9503
  169SAPE  H10Y19070   6.275   0.573   4.114 -0.3934 -0.4966 -1.3413
  169SAPE  C31119071   6.339   0.485   4.293 -0.1027 -0.0913  0.0703
  169SAPE  H11X19072   6.445   0.517   4.279 -0.4696  1.2094  0.1774
  169SAPE  H11Y19073   6.340   0.382   4.335  1.4065 -0.2629 -0.3010
  169SAPE  C31219074   6.260   0.583   4.381 -0.1464  0.5371  0.0786
  169SAPE  H12X19075   6.160   0.536   4.391 -0.0456  0.5292  1.1700
  169SAPE  H12Y19076   6.251   0.678   4.324 -1.2573 -0.0117 -0.7014
  169SAPE  C31319077   6.318   0.604   4.518  0.3921 -0.7069  1.0593
  169SAPE  H13X19078   6.422   0.643   4.524  0.0473  0.4929 -0.2436
  169SAPE  H13Y19079   6.334   0.505   4.565  0.8458 -1.1243  0.0618
  169SAPE  C31419080   6.226   0.691   4.611 -0.0506  0.3032 -0.4534
  169SAPE  H14X19081   6.123   0.650   4.615  0.8676 -2.0958  0.8769
  169SAPE  H14Y19082   6.239   0.787   4.557  2.9097  0.2250 -0.0385
  169SAPE  C31519083   6.286   0.711   4.749  0.4907  1.0419 -0.5999
  169SAPE  H15X19084   6.382   0.763   4.729  0.9583  0.7966  0.9188
  169SAPE  H15Y19085   6.313   0.615   4.798 -0.0504  1.2628  0.1440
  169SAPE  C31619086   6.201   0.790   4.848 -0.0287  0.2246  0.2396
  169SAPE  H16X19087   6.117   0.724   4.876 -0.0371 -0.8012 -1.9959
  169SAPE  H16Y19088   6.159   0.886   4.811 -0.1125  0.3007  0.5317
  169SAPE  C31719089   6.285   0.839   4.966 -0.7636  0.3495 -0.0958
  169SAPE  H17X19090   6.373   0.897   4.930  1.2010 -1.8308  0.9363
  169SAPE  H17Y19091   6.326   0.763   5.035  1.2064 -0.6109 -2.1925
  169SAPE  C31819092   6.205   0.936   5.053 -0.0485  0.0878 -0.1132
  169SAPE  H18X19093   6.126   0.872   5.097  2.1870 -1.2422  2.2535
  169SAPE  H18Y19094   6.165   1.021   4.994 -3.0827  0.1630  1.8690
  169SAPE  H18Z19095   6.259   0.974   5.143  0.6707 -0.3972 -0.3326
  170SAPE     N19096   6.278   4.040   2.499  0.6699 -0.0188  0.2173
  170SAPE   HN119097   6.346   4.101   2.551 -0.4837  2.0645 -0.6005
  170SAPE   HN219098   6.314   4.030   2.402  1.0972  0.0112  0.3691
  170SAPE   HN319099   6.190   4.094   2.494  0.1061 -1.0478 -1.4963
  170SAPE   C1219100   6.261   3.904   2.560 -0.4131  0.1735  0.7623
  170SAPE  H12A19101   6.185   3.860   2.493 -2.0010  3.2560  0.3678
  170SAPE  H12B19102   6.217   3.915   2.662  0.5607  0.6676  1.1471
  170SAPE   C1119103   6.391   3.825   2.567  0.3076  0.2425  0.4506
  170SAPE  H11A19104   6.369   3.728   2.617  1.6144  0.1096  0.8104
  170SAPE  H11B19105   6.458   3.879   2.637  2.2896  2.9071 -3.1745
  170SAPE     P19106   6.520   3.683   2.377 -0.0098  0.2514 -0.2921
  170SAPE   O1319107   6.433   3.638   2.268  0.3143 -0.0386 -0.6658
  170SAPE   O1419108   6.664   3.701   2.351 -0.0544 -0.4984 -0.0833
  170SAPE   O1219109   6.459   3.817   2.443 -0.0048  0.7872  0.5274
  170SAPE   O1119110   6.514   3.565   2.492 -0.7713  0.6361 -0.4697
  170SAPE    C119111   6.634   3.540   2.562  0.2206  0.0008  0.2393
  170SAPE    HA19112   6.705   3.486   2.496 -0.5455  1.8877 -2.2958
  170SAPE    HB19113   6.682   3.631   2.603 -0.3508  0.8170 -0.8340
  170SAPE    C219114   6.594   3.456   2.683  0.1284 -0.7333  0.2756
  170SAPE    HS19115   6.526   3.381   2.637 -1.3696  2.1289 -2.5215
  170SAPE   O2119116   6.528   3.532   2.780  0.3323 -0.6142  0.0117
  170SAPE   C2119117   6.445   3.454   2.850 -0.0001 -0.2983  0.4060
  170SAPE   O2219118   6.411   3.338   2.823 -0.2645 -1.1467  1.0029
  170SAPE   C2219119   6.403   3.536   2.968 -0.2007 -0.3039  0.0041
  170SAPE   H2R19120   6.341   3.479   3.041 -0.9948  2.0386  1.2673
  170SAPE   H2S19121   6.496   3.550   3.028  0.2005 -2.9157  0.0898
  170SAPE    C319122   6.715   3.384   2.742  0.4545  0.6176  0.1050
  170SAPE    HX19123   6.755   3.320   2.660  2.3745  0.7654  0.8752
  170SAPE    HY19124   6.693   3.318   2.829 -0.4103 -0.1696 -0.6897
  170SAPE   O3119125   6.814   3.483   2.762  0.7847  0.3102 -0.3243
  170SAPE   C3119126   6.834   3.525   2.881  1.0406 -0.2292  0.0062
  170SAPE   O3219127   6.780   3.493   2.983 -0.0031 -0.2304 -0.6841
  170SAPE   C3219128   6.943   3.634   2.884 -0.3802  0.1961  0.7416
  170SAPE   H2X19129   6.920   3.708   2.804  1.8039  0.1070 -0.0259
  170SAPE   H2Y19130   7.039   3.585   2.861 -0.8309 -1.2825  1.7924
  170SAPE   C2319131   6.339   3.674   2.932 -0.1601 -0.0167 -0.4302
  170SAPE   H3R19132   6.238   3.648   2.893  0.2708 -3.3654  0.3514
  170SAPE   H3S19133   6.398   3.732   2.859  1.4841 -2.0555 -0.8135
  170SAPE   C2419134   6.313   3.762   3.055  0.8168 -0.3795 -0.4764
  170SAPE   H4R19135   6.260   3.708   3.136  2.8320  0.5173  1.5578
  170SAPE   H4S19136   6.240   3.841   3.026 -0.7544 -0.6213  2.4207
  170SAPE   C2519137   6.439   3.828   3.100 -0.3017 -0.1666 -0.5293
  170SAPE   H5R19138   6.516   3.872   3.035  0.7534 -1.2468 -0.0368
  170SAPE   C2619139   6.465   3.850   3.229  0.1120  0.1117  0.5994
  170SAPE   H6R19140   6.559   3.903   3.252 -0.3703  2.1401 -1.6771
  170SAPE   C2719141   6.371   3.804   3.335  0.3497 -0.0605 -0.2239
  170SAPE   H7R19142   6.359   3.694   3.319  0.1715  0.0713 -1.0660
  170SAPE   H7S19143   6.273   3.850   3.312  0.9577  0.0351 -3.0596
  170SAPE   C2819144   6.407   3.843   3.477 -0.1564  0.0020  0.0807
  170SAPE   H8R19145   6.514   3.842   3.501  0.0100 -1.9533 -0.4874
  170SAPE   C2919146   6.325   3.866   3.584 -0.3506  0.5061 -0.1153
  170SAPE   H9R19147   6.380   3.892   3.676  1.9089 -2.4450 -0.4554
  170SAPE  C21019148   6.174   3.852   3.593  0.1430 -0.4810 -0.0757
  170SAPE  H10R19149   6.144   3.802   3.687 -0.1091  0.0694  0.1410
  170SAPE  H10S19150   6.131   3.796   3.507  2.0548  2.0136 -2.8691
  170SAPE  C21119151   6.103   3.990   3.589 -0.5284 -0.6789 -0.1011
  170SAPE  H11R19152   6.070   4.030   3.492 -1.2941  1.0473  0.8216
  170SAPE  C21219153   6.085   4.068   3.694 -0.1925 -0.3592  0.0442
  170SAPE  H12R19154   6.030   4.161   3.678  2.2546  0.8895 -1.8357
  170SAPE  C21319155   6.136   4.046   3.833 -0.3492 -0.3124 -0.1686
  170SAPE  H13R19156   6.159   3.940   3.858  0.5110  0.0666  0.7164
  170SAPE  H13S19157   6.061   4.075   3.909 -1.3887 -1.9123 -0.5416
  170SAPE  C21419158   6.263   4.115   3.862  0.9116  0.7326 -0.3288
  170SAPE  H14R19159   6.309   4.167   3.778  0.4571 -0.6569 -1.4846
  170SAPE  C21519160   6.314   4.137   3.990 -0.1545 -0.1860 -0.0483
  170SAPE  H15R19161   6.403   4.200   4.000 -1.7854  2.5071 -1.1861
  170SAPE  C21619162   6.266   4.064   4.120 -0.9065 -0.0858  0.0167
  170SAPE  H16R19163   6.353   4.013   4.166 -1.9669 -1.4346  0.5890
  170SAPE  H16S19164   6.181   3.992   4.115 -1.2520  0.2808  0.4107
  170SAPE  C21719165   6.234   4.159   4.235  0.1552  0.3897 -0.0869
  170SAPE  H17R19166   6.150   4.225   4.204  0.0089  0.7864  1.1307
  170SAPE  H17S19167   6.322   4.227   4.242 -0.2568  1.0990 -1.4452
  170SAPE  C21819168   6.211   4.093   4.369  0.2799 -0.7612 -0.1731
  170SAPE  H18R19169   6.175   3.988   4.361  1.8608 -1.6914  3.2095
  170SAPE  H18S19170   6.131   4.143   4.427 -1.5047 -1.6611 -1.7539
  170SAPE  C21919171   6.334   4.080   4.462  0.0666 -0.1015  0.3555
  170SAPE  H19R19172   6.404   4.015   4.406  0.3868  0.4636  0.0962
  170SAPE  H19S19173   6.311   4.022   4.554 -0.8951 -1.0088 -0.4317
  170SAPE  C22019174   6.388   4.213   4.495  0.2382  0.0252 -0.4154
  170SAPE  H20R19175   6.478   4.201   4.560 -0.8736 -0.3912  1.0958
  170SAPE  H20S19176   6.321   4.277   4.556  2.6744  0.8027  1.6124
  170SAPE  H20T19177   6.421   4.273   4.408 -2.9343 -0.8597 -2.4002
  170SAPE   C3319178   6.955   3.702   3.020 -0.0521  0.2807  0.4968
  170SAPE   H3X19179   7.037   3.772   2.995  0.2075  0.1176  0.8815
  170SAPE   H3Y19180   6.966   3.624   3.099 -1.6551 -0.4856  0.0111
  170SAPE   C3419181   6.830   3.778   3.071 -0.5628  0.9120 -0.6702
  170SAPE   H4X19182   6.738   3.716   3.076 -0.6257  1.0188 -0.4751
  170SAPE   H4Y19183   6.816   3.863   3.002  0.3281  1.1240 -0.6108
  170SAPE   C3519184   6.862   3.833   3.206 -0.4295 -0.5722 -0.2957
  170SAPE   H5X19185   6.810   3.929   3.226  2.3200  0.4919  2.3934
  170SAPE   H5Y19186   6.971   3.852   3.212 -0.5889  0.7074 -1.0054
  170SAPE   C3619187   6.808   3.739   3.318 -0.7807  0.5468  0.0338
  170SAPE   H6X19188   6.840   3.637   3.287  0.8663  2.0013 -3.5210
  170SAPE   H6Y19189   6.698   3.740   3.335 -0.7058 -3.0094  1.6489
  170SAPE   C3719190   6.889   3.768   3.453 -0.7475 -0.1714 -0.3119
  170SAPE   H7X19191   6.888   3.878   3.468 -0.9785  0.0512 -1.8227
  170SAPE   H7Y19192   6.994   3.735   3.439 -0.4945  0.8494 -0.9252
  170SAPE   C3819193   6.823   3.676   3.561  0.5096 -0.3117 -0.2495
  170SAPE   H8X19194   6.807   3.574   3.519 -1.8483 -0.6139  1.2361
  170SAPE   H8Y19195   6.723   3.712   3.591  1.9825  2.2001  2.0952
  170SAPE   C3919196   6.903   3.677   3.699 -0.5612 -0.3719 -0.0120
  170SAPE   H9X19197   6.919   3.786   3.714  1.0729 -0.7940  1.6093
  170SAPE   H9Y19198   6.996   3.622   3.676  1.2965  2.6115 -0.2440
  170SAPE  C31019199   6.836   3.614   3.819 -0.0578 -0.4033 -1.0049
  170SAPE  H10X19200   6.826   3.504   3.807 -0.6770 -0.5675  0.7890
  170SAPE  H10Y19201   6.734   3.655   3.832  0.6845  0.5393  3.0523
  170SAPE  C31119202   6.916   3.639   3.942  0.8039 -0.0380 -0.7325
  170SAPE  H11X19203   6.949   3.745   3.945 -1.8907  0.8790 -0.5600
  170SAPE  H11Y19204   7.008   3.579   3.928 -0.0749 -1.0870 -2.3953
  170SAPE  C31219205   6.846   3.608   4.078  0.6204  0.9681 -0.0769
  170SAPE  H12X19206   6.828   3.499   4.088  2.1181  0.7991  1.1678
  170SAPE  H12Y19207   6.746   3.656   4.087  0.3661  0.4392 -0.0274
  170SAPE  C31319208   6.936   3.632   4.196  0.0133  0.5800  0.0973
  170SAPE  H13X19209   6.926   3.740   4.220 -1.0429  0.6355 -0.5507
  170SAPE  H13Y19210   7.042   3.614   4.168  0.2417  0.1433  1.1874
  170SAPE  C31419211   6.889   3.550   4.311 -0.2155 -0.1488 -0.4670
  170SAPE  H14X19212   6.903   3.444   4.281 -2.1436  0.1370 -2.5764
  170SAPE  H14Y19213   6.785   3.573   4.343 -0.1062  0.3027 -0.4327
  170SAPE  C31519214   6.979   3.583   4.436  0.1693  0.8122 -1.3918
  170SAPE  H15X19215   7.088   3.591   4.419  0.8686 -0.0767  1.9498
  170SAPE  H15Y19216   6.957   3.497   4.503 -1.8902  2.0593 -0.3759
  170SAPE  C31619217   6.933   3.707   4.509  0.3810 -0.3890 -0.0284
  170SAPE  H16X19218   6.823   3.706   4.528  0.4560  1.1807  0.6966
  170SAPE  H16Y19219   6.962   3.800   4.455  2.5959 -0.2000  1.3766
  170SAPE  C31719220   7.009   3.716   4.651 -0.4647  0.1581  0.4953
  170SAPE  H17X19221   7.013   3.822   4.685 -0.3554  0.2871  0.0878
  170SAPE  H17Y19222   7.114   3.698   4.621 -1.1895 -0.5774 -1.8146
  170SAPE  C31819223   6.969   3.627   4.764 -0.5159  0.8307 -0.0051
  170SAPE  H18X19224   6.864   3.649   4.793 -1.4484 -0.9888 -1.7128
  170SAPE  H18Y19225   7.038   3.641   4.850 -1.1375 -2.2765  1.1327
  170SAPE  H18Z19226   6.978   3.518   4.744 -0.9771  0.6593  0.6706
  171SAPE     N19227   5.405   3.109   2.531 -0.3911 -0.1457 -0.0353
  171SAPE   HN119228   5.423   3.211   2.541  0.8385 -0.2683 -0.7155
  171SAPE   HN219229   5.368   3.094   2.434 -1.4005 -0.3717  0.3748
  171SAPE   HN319230   5.341   3.082   2.608  1.9886 -2.6263  1.2581
  171SAPE   C1219231   5.539   3.030   2.544  0.3467 -0.0379  0.3694
  171SAPE  H12A19232   5.588   3.066   2.637  0.5259  0.8829 -0.0664
  171SAPE  H12B19233   5.605   3.061   2.460  0.7642  0.6012  0.9187
  171SAPE   C1119234   5.514   2.882   2.536 -0.3860  0.1167  0.4541
  171SAPE  H11A19235   5.460   2.864   2.441  0.0729 -0.0602  0.2243
  171SAPE  H11B19236   5.455   2.852   2.625  0.4800 -1.5934  0.5019
  171SAPE     P19237   5.690   2.715   2.630 -0.2406 -0.1368 -0.0368
  171SAPE   O1319238   5.616   2.586   2.611 -0.8657 -0.2483 -0.1577
  171SAPE   O1419239   5.838   2.701   2.625  0.7076  0.0303 -0.4418
  171SAPE   O1219240   5.634   2.816   2.519  0.1224  0.4624 -0.1283
  171SAPE   O1119241   5.644   2.794   2.764 -0.5711  0.5981 -0.5243
  171SAPE    C119242   5.719   2.895   2.834  0.6352  0.4758 -0.0787
  171SAPE    HA19243   5.776   2.950   2.756 -1.1532  1.7021 -0.5634
  171SAPE    HB19244   5.652   2.962   2.892 -1.5004  0.4748 -2.4077
  171SAPE    C219245   5.824   2.840   2.930 -0.1986  0.6704  0.2214
  171SAPE    HS19246   5.893   2.776   2.871  0.1970 -0.2452  1.6259
  171SAPE   O2119247   5.758   2.761   3.026  0.0596 -0.0198 -0.2604
  171SAPE   C2119248   5.811   2.647   3.066 -0.1482 -0.1367  0.1971
  171SAPE   O2219249   5.922   2.605   3.036 -0.5575 -0.5275 -0.4736
  171SAPE   C2219250   5.716   2.575   3.166 -0.7594 -0.5057 -0.3279
  171SAPE   H2R19251   5.612   2.593   3.132 -1.2402  2.7852  2.3531
  171SAPE   H2S19252   5.738   2.466   3.166  2.6347  0.0660 -0.0675
  171SAPE    C319253   5.894   2.957   2.992  0.5898  0.2815  0.7061
  171SAPE    HX19254   5.814   3.014   3.043 -0.6985  1.1125 -2.0265
  171SAPE    HY19255   5.921   3.024   2.907  0.2112  0.0703  0.4114
  171SAPE   O3119256   6.008   2.925   3.080 -0.2820  0.6692 -0.2239
  171SAPE   C3119257   6.116   2.872   3.017  0.6028 -0.3540  0.2352
  171SAPE   O3219258   6.133   2.866   2.894 -0.7758 -0.3050 -0.1472
  171SAPE   C3219259   6.219   2.830   3.114 -0.4205  0.3016  0.5342
  171SAPE   H2X19260   6.317   2.819   3.065 -0.3096 -1.5618  1.1002
  171SAPE   H2Y19261   6.188   2.725   3.136 -0.2007  0.1148 -0.0366
  171SAPE   C2319262   5.722   2.644   3.306 -0.1416 -0.4546 -0.1136
  171SAPE   H3R19263   5.671   2.581   3.381  2.7132 -1.2145  1.3093
  171SAPE   H3S19264   5.661   2.737   3.296  0.0108 -0.3040  0.3498
  171SAPE   C2419265   5.866   2.681   3.346  0.1034 -0.2010 -0.8784
  171SAPE   H4R19266   5.853   2.730   3.445 -0.2570 -0.2441 -0.9026
  171SAPE   H4S19267   5.921   2.752   3.281  2.0225 -0.7088  0.1216
  171SAPE   C2519268   5.950   2.557   3.356  0.2662  0.0786  0.0060
  171SAPE   H5R19269   5.995   2.530   3.259  1.7949  0.3826  0.5884
  171SAPE   C2619270   5.956   2.463   3.453 -0.4432  0.5792 -0.1346
  171SAPE   H6R19271   6.021   2.375   3.438 -0.6907  0.4163 -0.2662
  171SAPE   C2719272   5.865   2.458   3.577  0.0007  0.4043 -0.0851
  171SAPE   H7R19273   5.761   2.493   3.561 -0.3425  1.3810  3.5037
  171SAPE   H7S19274   5.920   2.508   3.659  0.0481  1.9691 -1.0243
  171SAPE   C2819275   5.864   2.313   3.632 -0.0572 -0.1939  0.3390
  171SAPE   H8R19276   5.853   2.233   3.558 -2.2749 -0.7656  1.1942
  171SAPE   C2919277   5.880   2.277   3.759 -0.6624  0.0786 -0.0804
  171SAPE   H9R19278   5.885   2.170   3.784  0.5483 -0.0594 -0.8131
  171SAPE  C21019279   5.902   2.372   3.874 -0.4275  0.4385 -0.1579
  171SAPE  H10R19280   5.805   2.404   3.919  0.8217 -0.3305  3.4447
  171SAPE  H10S19281   5.963   2.461   3.848  0.9939 -0.4825 -0.0729
  171SAPE  C21119282   5.992   2.300   3.976  0.5552  0.3080  0.7646
  171SAPE  H11R19283   6.079   2.253   3.928 -2.6513 -2.0963 -3.4502
  171SAPE  C21219284   5.971   2.284   4.108  0.1643  0.2304  0.8188
  171SAPE  H12R19285   6.029   2.213   4.169 -1.4898 -0.3500  1.7535
  171SAPE  C21319286   5.856   2.344   4.173 -0.2544 -0.2512  0.9513
  171SAPE  H13R19287   5.829   2.439   4.123  0.4657 -0.5929 -0.1199
  171SAPE  H13S19288   5.892   2.388   4.269 -1.5250  1.0213  0.8852
  171SAPE  C21419289   5.738   2.247   4.195 -0.5865 -0.2899  0.0733
  171SAPE  H14R19290   5.699   2.191   4.109  0.1410 -1.5477  0.5359
  171SAPE  C21519291   5.678   2.234   4.318  0.2147 -0.2711  0.3033
  171SAPE  H15R19292   5.593   2.165   4.325 -0.3129  0.2409 -0.8517
  171SAPE  C21619293   5.706   2.300   4.451  0.8540  0.0802  0.0684
  171SAPE  H16R19294   5.783   2.379   4.441  1.6990 -0.1980  3.2718
  171SAPE  H16S19295   5.763   2.236   4.523 -0.6989 -1.1894  0.2279
  171SAPE  C21719296   5.571   2.361   4.503 -0.2764 -0.0337  0.4764
  171SAPE  H17R19297   5.495   2.281   4.518  1.2318 -1.2593  1.9091
  171SAPE  H17S19298   5.532   2.435   4.430 -0.0620 -0.4315 -0.0520
  171SAPE  C21819299   5.595   2.440   4.629 -0.7930 -0.3779  0.5362
  171SAPE  H18R19300   5.637   2.383   4.714 -0.3020 -1.8319 -0.6288
  171SAPE  H18S19301   5.496   2.479   4.661 -0.4486  0.4327  0.6256
  171SAPE  C21919302   5.688   2.557   4.608  0.0282 -1.0555  0.1108
  171SAPE  H19R19303   5.645   2.625   4.532 -1.8224 -1.2786  0.9128
  171SAPE  H19S19304   5.790   2.527   4.574  0.2191 -0.8588  0.5040
  171SAPE  C22019305   5.722   2.631   4.740 -0.0834 -0.2943  0.1129
  171SAPE  H20R19306   5.776   2.555   4.800 -0.8058 -1.3809 -0.5746
  171SAPE  H20S19307   5.624   2.657   4.784 -0.8488  0.3913 -1.8561
  171SAPE  H20T19308   5.788   2.720   4.732 -0.3399 -0.1923 -1.1465
  171SAPE   C3319309   6.251   2.928   3.233 -0.0224 -0.1926 -0.2480
  171SAPE   H3X19310   6.248   3.033   3.196 -0.4012 -0.0715  0.1211
  171SAPE   H3Y19311   6.356   2.921   3.269 -0.6175 -1.4997  1.3513
  171SAPE   C3419312   6.155   2.934   3.349 -0.4428 -0.8031  0.7214
  171SAPE   H4X19313   6.126   2.832   3.381 -0.1287 -1.5269 -1.1638
  171SAPE   H4Y19314   6.063   2.982   3.310 -0.2585  0.9952  2.3249
  171SAPE   C3519315   6.199   3.032   3.462  0.0539  0.9269 -0.6522
  171SAPE   H5X19316   6.212   3.132   3.418 -1.1528  1.5016  0.2375
  171SAPE   H5Y19317   6.299   2.992   3.493 -0.5775  1.1558  1.9297
  171SAPE   C3619318   6.117   3.018   3.591 -0.1543  0.2928 -0.6993
  171SAPE   H6X19319   6.111   2.909   3.610  0.4619  0.6318  1.8742
  171SAPE   H6Y19320   6.019   3.068   3.578 -2.8254 -3.9749  0.7159
  171SAPE   C3719321   6.181   3.084   3.716 -0.6267  1.1684 -0.8004
  171SAPE   H7X19322   6.198   3.193   3.706 -0.4869  1.1918 -0.3499
  171SAPE   H7Y19323   6.288   3.056   3.728 -0.2828  2.2932 -1.1058
  171SAPE   C3819324   6.094   3.067   3.847 -0.1702  0.1607  0.3966
  171SAPE   H8X19325   6.082   2.959   3.870  0.9766  0.2507  1.4812
  171SAPE   H8Y19326   5.997   3.117   3.826  0.1256  1.3272  1.7027
  171SAPE   C3919327   6.166   3.125   3.973  0.4208  0.0410  0.7104
  171SAPE   H9X19328   6.159   3.235   3.974 -1.2404 -0.0303  1.8535
  171SAPE   H9Y19329   6.273   3.095   3.975 -0.4911 -4.7382 -2.8947
  171SAPE  C31019330   6.104   3.071   4.105 -0.3101 -0.8253 -0.3725
  171SAPE  H10X19331   6.135   2.965   4.112  0.2430 -0.7021 -0.8903
  171SAPE  H10Y19332   5.994   3.078   4.122 -0.1334 -2.1729  1.7264
  171SAPE  C31119333   6.179   3.131   4.229  0.1759  0.3563 -0.0478
  171SAPE  H11X19334   6.288   3.151   4.218  0.4207 -0.8692 -0.0062
  171SAPE  H11Y19335   6.163   3.057   4.311 -2.0721  0.7762 -0.0340
  171SAPE  C31219336   6.102   3.253   4.273 -0.7967 -0.0488 -0.5716
  171SAPE  H12X19337   5.996   3.223   4.283 -0.1087 -2.7633 -0.6079
  171SAPE  H12Y19338   6.112   3.340   4.205 -0.0094  2.3020  2.3216
  171SAPE  C31319339   6.138   3.312   4.410  0.5793 -0.0153  0.0526
  171SAPE  H13X19340   6.088   3.411   4.409 -2.7837 -1.5874 -0.7133
  171SAPE  H13Y19341   6.249   3.320   4.418  0.3133  1.5610  4.2227
  171SAPE  C31419342   6.104   3.226   4.531  0.0121 -0.5441 -0.0184
  171SAPE  H14X19343   6.180   3.147   4.550  0.2348 -0.0955  1.0232
  171SAPE  H14Y19344   6.009   3.171   4.512 -0.1591 -0.6888  1.1518
  171SAPE  C31519345   6.092   3.310   4.666  0.6530 -0.1202  0.3292
  171SAPE  H15X19346   6.151   3.404   4.667  0.3963  0.0699  2.4312
  171SAPE  H15Y19347   6.133   3.241   4.743 -0.1818 -0.9443  0.0560
  171SAPE  C31619348   5.952   3.351   4.690 -0.1830 -0.6498 -1.0837
  171SAPE  H16X19349   5.881   3.265   4.686  1.2412 -1.9947  0.8642
  171SAPE  H16Y19350   5.921   3.432   4.621  0.5937  2.1972  1.6688
  171SAPE  C31719351   5.938   3.412   4.827 -0.9759 -0.9226 -0.5149
  171SAPE  H17X19352   6.004   3.501   4.837 -1.6778 -0.3128 -1.2067
  171SAPE  H17Y19353   5.970   3.343   4.909 -0.1436  1.5842  1.3912
  171SAPE  C31819354   5.791   3.458   4.858 -0.6383 -0.5619 -0.2943
  171SAPE  H18X19355   5.774   3.492   4.962 -3.7513 -0.0545 -0.8706
  171SAPE  H18Y19356   5.722   3.371   4.849 -3.0727  1.3799 -1.6279
  171SAPE  H18Z19357   5.767   3.527   4.774 -2.0745 -1.3323 -0.5662
  172SAPE     N19358   0.470   3.323   2.171 -0.1427 -0.5305 -0.0472
  172SAPE   HN119359   0.469   3.336   2.068  2.7412  0.5333 -0.0257
  172SAPE   HN219360   0.449   3.221   2.180  0.2602 -0.7701 -1.6179
  172SAPE   HN319361   0.406   3.380   2.231  1.2110 -1.4193  2.3901
  172SAPE   C1219362   0.602   3.357   2.222  0.1574 -0.4621  0.1131
  172SAPE  H12A19363   0.620   3.466   2.206 -0.1109 -0.9345 -5.0107
  172SAPE  H12B19364   0.672   3.295   2.163  1.6571  0.8614  0.4322
  172SAPE   C1119365   0.603   3.322   2.367 -0.2757  0.0303 -0.2264
  172SAPE  H11A19366   0.521   3.375   2.420  1.5290  0.4916  2.2770
  172SAPE  H11B19367   0.697   3.357   2.415 -1.1984  1.9537  0.2586
  172SAPE     P19368   0.565   3.116   2.522  0.2333  0.0118 -0.2479
  172SAPE   O1319369   0.419   3.124   2.546  0.3754  0.7006  0.3349
  172SAPE   O1419370   0.636   2.984   2.534  0.4617  0.5187  0.2573
  172SAPE   O1219371   0.590   3.182   2.384 -0.0007  0.2630  0.3606
  172SAPE   O1119372   0.632   3.216   2.621 -0.2008  0.1550 -0.5191
  172SAPE    C119373   0.685   3.184   2.752 -0.0459 -0.8698 -0.2018
  172SAPE    HA19374   0.672   3.077   2.779  0.4763 -0.2724  2.8074
  172SAPE    HB19375   0.789   3.225   2.755 -0.4270  0.1105  0.0757
  172SAPE    C219376   0.613   3.271   2.861  0.0470  0.4934  0.8063
  172SAPE    HS19377   0.640   3.378   2.847  0.3939  0.4427  1.0675
  172SAPE   O2119378   0.653   3.226   2.989 -0.0470  0.9589  0.0887
  172SAPE   C2119379   0.773   3.263   3.035  0.2686 -0.9260  0.3241
  172SAPE   O2219380   0.862   3.313   2.963 -0.1808 -0.3220  0.0376
  172SAPE   C2219381   0.774   3.258   3.187 -0.7046 -0.4095  0.4648
  172SAPE   H2R19382   0.678   3.250   3.242 -0.6459  0.9530  0.8135
  172SAPE   H2S19383   0.833   3.168   3.214  0.0755 -0.7407 -2.1145
  172SAPE    C319384   0.460   3.254   2.842  0.2576  0.1307 -0.2832
  172SAPE    HX19385   0.437   3.145   2.841  1.6265 -0.2174  1.4470
  172SAPE    HY19386   0.426   3.295   2.744 -1.1045  1.8160  0.8407
  172SAPE   O3119387   0.390   3.324   2.952 -0.3326  0.3983  0.2164
  172SAPE   C3119388   0.313   3.253   3.023  0.9123  1.3180 -0.6040
  172SAPE   O3219389   0.276   3.139   2.996 -0.4262 -0.1844  0.0975
  172SAPE   C3219390   0.278   3.325   3.149 -0.3007  0.4853  0.0391
  172SAPE   H2X19391   0.169   3.344   3.151 -0.2632  0.7148 -0.0753
  172SAPE   H2Y19392   0.325   3.425   3.136  0.2636  0.5479  2.1604
  172SAPE   C2319393   0.846   3.381   3.258 -0.3285  0.4756 -0.0587
  172SAPE   H3R19394   0.765   3.457   3.251 -0.1724  0.5754 -0.8529
  172SAPE   H3S19395   0.942   3.408   3.210  0.0706 -0.4335  0.2113
  172SAPE   C2419396   0.875   3.348   3.408  0.2091 -0.5749 -0.3554
  172SAPE   H4R19397   0.928   3.439   3.442 -1.1624 -0.0346  0.4567
  172SAPE   H4S19398   0.930   3.251   3.413 -0.7521 -1.1932 -1.2757
  172SAPE   C2519399   0.750   3.337   3.500  0.3379 -0.1591  0.0872
  172SAPE   H5R19400   0.654   3.337   3.448 -0.2025 -0.2887  1.0594
  172SAPE   C2619401   0.764   3.357   3.633 -0.3707 -0.2392 -0.0070
  172SAPE   H6R19402   0.678   3.360   3.701 -1.5566 -3.1058 -1.2124
  172SAPE   C2719403   0.887   3.375   3.712  0.0811  0.2247 -0.0764
  172SAPE   H7R19404   0.863   3.449   3.791  1.7782  0.3544  0.3643
  172SAPE   H7S19405   0.967   3.420   3.649  1.5020 -0.1945  1.3610
  172SAPE   C2819406   0.932   3.246   3.780 -0.0441  0.0082  0.1390
  172SAPE   H8R19407   0.937   3.155   3.718 -0.2337  0.6663 -0.8626
  172SAPE   C2919408   0.975   3.228   3.907 -0.3500 -0.2223  0.4463
  172SAPE   H9R19409   1.006   3.126   3.937  0.6143 -0.4625 -1.2823
  172SAPE  C21019410   0.988   3.339   4.010 -0.0701  0.6423 -0.2670
  172SAPE  H10R19411   1.018   3.436   3.964  1.2433  0.4228  0.0725
  172SAPE  H10S19412   1.084   3.319   4.063  2.4477  1.0949 -4.2138
  172SAPE  C21119413   0.859   3.348   4.091  0.4828  0.5954 -0.1410
  172SAPE  H11R19414   0.765   3.316   4.043  0.4957 -1.3539  1.0123
  172SAPE  C21219415   0.869   3.379   4.220  0.0280  0.2397 -0.1599
  172SAPE  H12R19416   0.783   3.383   4.288 -0.2590 -3.8019 -0.0018
  172SAPE  C21319417   0.994   3.419   4.302  0.5033 -0.2628 -0.0830
  172SAPE  H13R19418   1.069   3.338   4.289 -0.4443 -1.3259  0.8439
  172SAPE  H13S19419   0.972   3.435   4.410  2.8982  0.5643  0.3295
  172SAPE  C21419420   1.056   3.551   4.255 -0.2540  0.1499  0.0345
  172SAPE  H14R19421   1.000   3.605   4.178  1.3064  1.7910 -0.0027
  172SAPE  C21519422   1.171   3.609   4.297 -0.6974  0.0743  0.5717
  172SAPE  H15R19423   1.205   3.701   4.247 -1.5197 -0.5598 -1.2367
  172SAPE  C21619424   1.262   3.546   4.396 -0.3739 -0.2844 -0.0145
  172SAPE  H16R19425   1.363   3.530   4.352  0.1526  0.1159  1.0048
  172SAPE  H16S19426   1.221   3.449   4.428 -2.4154  0.6742  0.4357
  172SAPE  C21719427   1.268   3.622   4.525  0.2210  0.7524  0.3772
  172SAPE  H17R19428   1.168   3.668   4.537  0.1750  0.5364  0.8238
  172SAPE  H17S19429   1.331   3.711   4.507  0.5656  0.0710 -2.2722
  172SAPE  C21819430   1.288   3.531   4.645 -0.1789  0.0386 -0.5579
  172SAPE  H18R19431   1.390   3.488   4.634 -0.2013 -0.5186  1.1845
  172SAPE  H18S19432   1.223   3.442   4.656  0.4408 -0.4591 -0.8525
  172SAPE  C21919433   1.278   3.609   4.777  0.3081 -0.1211 -0.7735
  172SAPE  H19R19434   1.316   3.534   4.851  0.0201  0.4641 -0.0259
  172SAPE  H19S19435   1.172   3.637   4.793  0.2857 -0.6812  0.1499
  172SAPE  C22019436   1.373   3.726   4.794 -0.2902  0.3887  0.6935
  172SAPE  H20R19437   1.326   3.808   4.736  2.3882  0.3724 -1.7492
  172SAPE  H20S19438   1.479   3.710   4.763  0.0428  2.5793  0.5568
  172SAPE  H20T19439   1.379   3.743   4.904 -0.2386  0.5965  0.6588
  172SAPE   C3319440   0.343   3.251   3.267 -0.2550  0.5578  0.2173
  172SAPE   H3X19441   0.453   3.258   3.251  0.1182 -1.6304  1.4216
  172SAPE   H3Y19442   0.318   3.143   3.265  1.3430  0.1751 -0.6496
  172SAPE   C3419443   0.295   3.314   3.396 -0.1629  0.4165  0.6881
  172SAPE   H4X19444   0.187   3.288   3.397  0.2686 -1.5980 -0.3606
  172SAPE   H4Y19445   0.317   3.422   3.389 -2.5196  0.8829 -0.4421
  172SAPE   C3519446   0.355   3.248   3.516 -0.3485  0.2478 -0.6005
  172SAPE   H5X19447   0.464   3.237   3.498 -0.5849 -1.8900 -1.0422
  172SAPE   H5Y19448   0.314   3.145   3.525 -0.7216  0.5182  1.3725
  172SAPE   C3619449   0.331   3.316   3.653  0.0433  0.4000 -0.2962
  172SAPE   H6X19450   0.223   3.330   3.676 -0.3764  2.3249 -2.8852
  172SAPE   H6Y19451   0.369   3.420   3.642  0.4342  0.3380  0.4102
  172SAPE   C3719452   0.398   3.240   3.765  0.3717  0.1711 -0.4263
  172SAPE   H7X19453   0.505   3.221   3.744 -0.1315 -0.8335 -2.2329
  172SAPE   H7Y19454   0.365   3.134   3.765 -0.0168  0.2564  1.0690
  172SAPE   C3819455   0.367   3.310   3.900  0.5346  0.0715 -0.1316
  172SAPE   H8X19456   0.263   3.346   3.913  0.1489 -1.3425  0.9499
  172SAPE   H8Y19457   0.415   3.410   3.899 -1.0301  0.8712 -1.5530
  172SAPE   C3919458   0.397   3.222   4.023 -0.1957  0.3305  0.8044
  172SAPE   H9X19459   0.499   3.181   4.012 -0.0169  1.0219 -0.3884
  172SAPE   H9Y19460   0.326   3.139   4.040 -0.7169  0.1977 -1.6531
  172SAPE  C31019461   0.411   3.306   4.150  0.1241 -0.2433  0.3488
  172SAPE  H10X19462   0.316   3.354   4.183 -1.0094  0.2006 -3.1295
  172SAPE  H10Y19463   0.482   3.390   4.132  1.8499 -1.4009  1.4785
  172SAPE  C31119464   0.464   3.220   4.261  1.0919  0.3059 -0.1453
  172SAPE  H11X19465   0.573   3.201   4.253  1.6310  2.0058  2.2675
  172SAPE  H11Y19466   0.406   3.125   4.251 -0.7291  1.2755  0.7152
  172SAPE  C31219467   0.427   3.281   4.399  0.2247  0.2618 -0.3279
  172SAPE  H12X19468   0.317   3.273   4.417 -0.7262  2.4564 -4.1520
  172SAPE  H12Y19469   0.460   3.387   4.391 -0.6665  0.5381 -0.4736
  172SAPE  C31319470   0.495   3.216   4.520 -0.1319  0.1858  0.1430
  172SAPE  H13X19471   0.605   3.232   4.508  0.1499 -0.2682  1.8866
  172SAPE  H13Y19472   0.476   3.108   4.507 -0.5747  0.5183 -2.6578
  172SAPE  C31419473   0.457   3.265   4.662 -0.8621 -0.5492  0.0229
  172SAPE  H14X19474   0.500   3.191   4.733  2.3147  1.8309  0.7943
  172SAPE  H14Y19475   0.346   3.268   4.670 -1.3693 -0.6485 -4.5215
  172SAPE  C31519476   0.520   3.398   4.690  0.1945 -0.4208  0.4610
  172SAPE  H15X19477   0.469   3.447   4.776 -2.0413 -0.0684 -0.9843
  172SAPE  H15Y19478   0.504   3.453   4.595  2.4198  0.0472  0.3061
  172SAPE  C31619479   0.671   3.399   4.715 -0.3480  0.0059  0.1320
  172SAPE  H16X19480   0.721   3.332   4.642 -0.0175  0.8025 -0.3927
  172SAPE  H16Y19481   0.701   3.351   4.810  0.0705 -1.3238 -0.6453
  172SAPE  C31719482   0.724   3.544   4.682  0.0248 -0.0378  0.0832
  172SAPE  H17X19483   0.669   3.622   4.739  0.5469  1.2562 -1.1285
  172SAPE  H17Y19484   0.688   3.558   4.578  0.6820 -0.4105 -0.2011
  172SAPE  C31819485   0.877   3.557   4.680  0.5092  0.5474 -0.0671
  172SAPE  H18X19486   0.920   3.456   4.662 -1.7174 -0.7133  1.1210
  172SAPE  H18Y19487   0.909   3.584   4.783 -1.5409 -0.6806  0.9660
  172SAPE  H18Z19488   0.928   3.631   4.615  0.5493 -0.2352 -0.9476
  173SLPC     N19489   0.063   6.621   7.234 -0.0803  0.5757  0.0336
  173SLPC   C1319490   0.081   6.619   7.383 -0.4666 -0.4806 -0.0741
  173SLPC  H13A19491  -0.016   6.593   7.423 -0.6512 -2.5183 -1.7035
  173SLPC  H13B19492   0.152   6.551   7.429 -0.6784 -0.3154  0.5074
  173SLPC  H13C19493   0.107   6.715   7.425  1.3935  0.4697 -3.1335
  173SLPC   C1419494   0.176   6.688   7.172  0.1706  0.1295 -0.0562
  173SLPC  H14A19495   0.171   6.794   7.193  1.9440  0.4396 -0.9875
  173SLPC  H14B19496   0.272   6.653   7.207 -0.7844 -2.3458  0.2445
  173SLPC  H14C19497   0.182   6.676   7.065  2.6038  2.9265 -0.3708
  173SLPC   C1519498  -0.046   6.714   7.197  0.0228  0.4704  0.5161
  173SLPC  H15A19499  -0.140   6.675   7.235 -2.2118  2.0223 -2.9391
  173SLPC  H15B19500  -0.040   6.815   7.235  0.8377  0.6071  0.0334
  173SLPC  H15C19501  -0.068   6.713   7.091  0.8686 -0.1835  0.3381
  173SLPC   C1219502   0.038   6.473   7.180 -0.5497 -0.5621 -0.4080
  173SLPC  H12A19503  -0.062   6.441   7.206  1.2680 -4.9971  2.3414
  173SLPC  H12B19504   0.105   6.405   7.232  2.3848  0.7156 -2.2247
  173SLPC   C1119505   0.060   6.435   7.032  0.3177 -0.2869 -0.2450
  173SLPC  H11A19506   0.045   6.325   7.028  1.6034 -0.4356 -2.4352
  173SLPC  H11B19507   0.162   6.460   6.996 -0.2325 -0.0772 -1.7351
  173SLPC     P19508  -0.181   6.509   6.935  0.4160 -0.0733 -0.1173
  173SLPC   O1319509  -0.239   6.382   6.992  0.4865 -0.2602 -0.2361
  173SLPC   O1419510  -0.239   6.636   6.988 -0.2989  0.7535 -0.0534
  173SLPC   O1219511  -0.024   6.509   6.942 -0.2911  0.3050  0.0159
  173SLPC   O1119512  -0.212   6.518   6.781 -0.0900 -0.0038  0.1364
  173SLPC    C119513  -0.131   6.447   6.682  0.3360 -0.2875  0.9013
  173SLPC    HA19514  -0.048   6.513   6.649  1.8625 -2.0081  1.1264
  173SLPC    HB19515  -0.082   6.356   6.724  1.7345  0.2609  0.4846
  173SLPC    C219516  -0.213   6.392   6.559  0.0947 -0.0558  0.4444
  173SLPC    HS19517  -0.138   6.341   6.495 -0.4707 -1.7006  1.0396
  173SLPC   O2119518  -0.287   6.496   6.496  0.4106 -0.2469  0.1208
  173SLPC   C2119519  -0.224   6.560   6.404  1.4775 -0.0183 -0.6054
  173SLPC   O2219520  -0.113   6.546   6.357  0.5126  0.0889  0.1698
  173SLPC   C2219521  -0.333   6.664   6.355 -0.9787  0.7971 -0.2983
  173SLPC   H2R19522  -0.432   6.614   6.343 -0.0357 -0.7555 -2.1245
  173SLPC   H2S19523  -0.337   6.745   6.431  1.3543  0.3265  0.3761
  173SLPC    C319524  -0.311   6.293   6.613 -0.2473 -0.2140  0.3588
  173SLPC    HX19525  -0.370   6.335   6.697  0.1314  1.4459 -0.1521
  173SLPC    HY19526  -0.257   6.201   6.643  3.3670  1.7274  0.3314
  173SLPC   O3119527  -0.396   6.252   6.502  0.8663 -0.1172  0.4001
  173SLPC   C3119528  -0.524   6.294   6.498 -0.1878  0.2197  0.1446
  173SLPC   O3219529  -0.582   6.356   6.583  0.1889  0.7019  0.0407
  173SLPC   C3219530  -0.594   6.245   6.365  0.4917 -0.3692 -0.1727
  173SLPC   H2X19531  -0.702   6.262   6.382  0.2034 -0.2209 -2.0199
  173SLPC   H2Y19532  -0.586   6.134   6.374  1.5856 -0.2195  1.2105
  173SLPC   C2319533  -0.288   6.730   6.218 -0.3394  0.4116  0.1576
  173SLPC   H3R19534  -0.260   6.645   6.152 -0.5274 -1.4234  2.3280
  173SLPC   H3S19535  -0.195   6.786   6.240  1.4674 -3.3596  3.3761
  173SLPC   C2419536  -0.394   6.829   6.161  0.7386 -0.6113 -0.2449
  173SLPC   H4R19537  -0.402   6.908   6.239 -2.0034 -0.6159 -0.4321
  173SLPC   H4S19538  -0.496   6.786   6.167  0.9718 -0.9643  1.8770
  173SLPC   C2519539  -0.351   6.882   6.026 -0.2608 -0.1413  0.5476
  173SLPC   H5R19540  -0.245   6.914   6.032 -0.4656  1.5157 -2.3752
  173SLPC   H5S19541  -0.418   6.970   6.012 -1.0098 -0.8183 -0.2577
  173SLPC   C2619542  -0.366   6.794   5.908 -0.2305  0.1976  0.4759
  173SLPC   H6R19543  -0.472   6.763   5.919 -0.6517  1.2902 -0.3400
  173SLPC   H6S19544  -0.299   6.705   5.905 -0.8988 -0.3186  0.7738
  173SLPC   C2719545  -0.354   6.870   5.769  0.7700 -0.5104 -0.3424
  173SLPC   H7R19546  -0.262   6.931   5.770  0.1378  0.4723  0.7900
  173SLPC   H7S19547  -0.434   6.947   5.764  0.6605 -0.6035 -0.0916
  173SLPC   C2819548  -0.350   6.787   5.638 -0.3635  0.4056 -0.3526
  173SLPC   H8R19549  -0.269   6.710   5.639 -0.2051  0.5528  1.4592
  173SLPC   H8S19550  -0.328   6.861   5.559  1.7194  0.1194 -0.1038
  173SLPC   C2919551  -0.487   6.730   5.615 -0.1964 -0.1293  0.3842
  173SLPC   H9R19552  -0.527   6.683   5.706  1.3717 -3.0022 -0.2849
  173SLPC  C21019553  -0.562   6.756   5.503 -0.4291  0.0419 -0.0289
  173SLPC  H10R19554  -0.655   6.698   5.495 -0.2966 -0.0176 -1.4173
  173SLPC  C21119555  -0.513   6.821   5.379  0.0876  0.3372  0.3204
  173SLPC  H11R19556  -0.406   6.796   5.361 -0.1984 -0.7986  0.0642
  173SLPC  H11S19557  -0.530   6.930   5.380  0.2676  0.3674  0.0186
  173SLPC  C21219558  -0.585   6.765   5.255  0.3857  0.0300 -0.5694
  173SLPC  H12R19559  -0.691   6.746   5.278  0.5021  0.9238  0.8436
  173SLPC  C21319560  -0.545   6.753   5.125 -0.0649  0.1038 -0.1521
  173SLPC  H13R19561  -0.615   6.709   5.052 -2.6365  1.2490  1.4793
  173SLPC  C21419562  -0.407   6.790   5.070  0.9600 -0.0915  0.3562
  173SLPC  H14R19563  -0.357   6.699   5.027 -1.4603 -1.5077  0.3710
  173SLPC  H14S19564  -0.340   6.826   5.151 -1.7511  3.5627  1.2064
  173SLPC  C21519565  -0.400   6.891   4.956  0.1237 -0.1854 -0.3754
  173SLPC  H15R19566  -0.295   6.927   4.950 -0.5494  2.4831  1.8145
  173SLPC  H15S19567  -0.447   6.988   4.979 -0.6652 -1.0150  1.7065
  173SLPC  C21619568  -0.445   6.836   4.819  0.3266  0.0157 -0.5589
  173SLPC  H16R19569  -0.541   6.781   4.810  0.4859 -0.1468 -1.4108
  173SLPC  H16S19570  -0.366   6.760   4.798  2.8809  1.8054  1.8678
  173SLPC  C21719571  -0.426   6.935   4.701  0.4191  0.3755  0.0466
  173SLPC  H17R19572  -0.320   6.968   4.705  0.4138  0.3352  0.6160
  173SLPC  H17S19573  -0.503   7.011   4.729 -1.7044 -1.4145 -0.6472
  173SLPC  C21819574  -0.451   6.866   4.570  0.4126 -0.0878  0.0402
  173SLPC  H18R19575  -0.554   6.825   4.567  0.4869 -0.3505  0.9959
  173SLPC  H18S19576  -0.375   6.791   4.537 -0.3373 -0.1879 -1.5784
  173SLPC  H18T19577  -0.443   6.949   4.495  1.3853  0.2645  0.5105
  173SLPC   C3319578  -0.537   6.309   6.230 -0.0309 -0.2806 -0.2726
  173SLPC   H3X19579  -0.528   6.419   6.240  1.6862 -0.3821 -0.3684
  173SLPC   H3Y19580  -0.606   6.300   6.143  1.2130 -0.0456 -1.3268
  173SLPC   C3419581  -0.405   6.236   6.189  0.0565 -0.6326 -0.1000
  173SLPC   H4X19582  -0.430   6.129   6.168 -2.4587 -0.7010  2.5312
  173SLPC   H4Y19583  -0.348   6.242   6.284 -2.1587  0.5160  1.2351
  173SLPC   C3519584  -0.315   6.298   6.075 -0.0284  0.0514 -0.4323
  173SLPC   H5X19585  -0.259   6.212   6.032 -0.0442  0.4740 -1.3194
  173SLPC   H5Y19586  -0.232   6.358   6.119  1.0796  0.0530 -2.3922
  173SLPC   C3619587  -0.390   6.389   5.970 -0.1343  0.1406  0.1456
  173SLPC   H6X19588  -0.413   6.480   6.031  0.5020  0.3243  0.1182
  173SLPC   H6Y19589  -0.496   6.358   5.961 -0.6888  1.9586 -0.1361
  173SLPC   C3719590  -0.316   6.435   5.841 -0.2122 -0.4577 -0.3732
  173SLPC   H7X19591  -0.230   6.504   5.853  0.5233 -1.6126  1.3520
  173SLPC   H7Y19592  -0.386   6.481   5.767 -1.9281 -2.0326  0.2037
  173SLPC   C3819593  -0.248   6.310   5.780  1.1438  0.1521  0.7128
  173SLPC   H8X19594  -0.325   6.230   5.786 -0.2663  1.5013  1.3151
  173SLPC   H8Y19595  -0.166   6.279   5.848  0.2412 -2.8908  0.5733
  173SLPC   C3919596  -0.184   6.331   5.647  0.4687  0.5658 -0.2356
  173SLPC   H9X19597  -0.110   6.254   5.619 -0.1858  0.0501 -0.5616
  173SLPC   H9Y19598  -0.125   6.425   5.645  0.4727  0.5491 -0.8909
  173SLPC  C31019599  -0.268   6.323   5.517 -0.1469  0.1453  0.3067
  173SLPC  H10X19600  -0.355   6.391   5.523 -2.9545 -3.0491 -0.6122
  173SLPC  H10Y19601  -0.302   6.217   5.511  0.7041 -0.0663 -1.4319
  173SLPC  C31119602  -0.182   6.345   5.397 -0.9327  0.4501  1.0166
  173SLPC  H11X19603  -0.084   6.294   5.407  0.4667  2.7995  0.1287
  173SLPC  H11Y19604  -0.158   6.453   5.392 -1.2220  0.5257  1.2165
  173SLPC  C31219605  -0.241   6.304   5.262  0.1712  0.1759  0.4583
  173SLPC  H12X19606  -0.322   6.230   5.276  1.9423 -2.3291 -1.6159
  173SLPC  H12Y19607  -0.161   6.256   5.201 -0.5484  0.4281 -0.7199
  173SLPC  C31319608  -0.296   6.408   5.161 -0.4487 -0.1615 -0.0988
  173SLPC  H13X19609  -0.210   6.466   5.123 -0.5016  0.0715  0.1305
  173SLPC  H13Y19610  -0.370   6.478   5.207 -0.0314  0.8576 -0.9320
  173SLPC  C31419611  -0.359   6.341   5.034  0.6502 -0.0409 -0.6418
  173SLPC  H14X19612  -0.421   6.421   4.989  0.1499 -0.7754 -1.2834
  173SLPC  H14Y19613  -0.431   6.261   5.060 -1.0738  1.6082 -0.0613
  173SLPC  C31519614  -0.258   6.293   4.923  0.2820 -0.2505  0.0479
  173SLPC  H15X19615  -0.211   6.194   4.942 -0.1459 -0.5552 -0.4252
  173SLPC  H15Y19616  -0.167   6.356   4.916  2.5781 -3.2973  0.0354
  173SLPC  C31619617  -0.323   6.270   4.781  0.0961 -0.2156  0.3309
  173SLPC  H16X19618  -0.408   6.201   4.797 -0.2450  0.2311  0.4419
  173SLPC  H16Y19619  -0.245   6.225   4.715  0.0387 -1.2184  0.9263
  173SLPC  C31719620  -0.368   6.402   4.710 -0.4229 -0.1333  0.6191
  173SLPC  H17X19621  -0.450   6.453   4.765 -0.0824  1.4269 -0.2672
  173SLPC  H17Y19622  -0.414   6.379   4.611 -0.2903 -2.5756  1.0568
  173SLPC  C31819623  -0.261   6.511   4.689 -0.1512 -0.2846  0.0214
  173SLPC  H18X19624  -0.312   6.606   4.663 -0.0291  0.6089  2.7408
  173SLPC  H18Y19625  -0.193   6.488   4.604 -2.3979  0.4108 -2.1158
  173SLPC  H18Z19626  -0.209   6.526   4.786  1.8887  0.6525 -1.1619
  174SLPC     N19627   2.524   0.371   7.333  0.0696 -0.0917 -0.3206
  174SLPC   C1319628   2.519   0.268   7.443 -0.0457 -0.1577  0.2397
  174SLPC  H13A19629   2.605   0.201   7.449  0.1538  0.2216  3.1133
  174SLPC  H13B19630   2.503   0.305   7.543 -0.5919 -2.3862  1.0499
  174SLPC  H13C19631   2.432   0.206   7.430  0.6606 -1.4734  1.3555
  174SLPC   C1419632   2.620   0.476   7.376  0.1653 -0.4348 -0.1629
  174SLPC  H14A19633   2.586   0.509   7.473 -0.2665 -0.1280 -0.4112
  174SLPC  H14B19634   2.715   0.426   7.384 -0.2355 -1.3865 -1.1334
  174SLPC  H14C19635   2.630   0.563   7.312 -2.4649  1.3247  1.5904
  174SLPC   C1519636   2.383   0.434   7.346 -0.8156 -0.5788  0.2099
  174SLPC  H15A19637   2.380   0.496   7.434  0.6680  0.5788 -0.5055
  174SLPC  H15B19638   2.359   0.493   7.258  1.2662  0.4040  0.2546
  174SLPC  H15C19639   2.308   0.356   7.349 -0.6925 -0.6689  1.8794
  174SLPC   C1219640   2.567   0.307   7.203 -0.0613 -0.4202 -1.3124
  174SLPC  H12A19641   2.660   0.256   7.219 -0.6184 -1.2435 -0.5876
  174SLPC  H12B19642   2.583   0.385   7.131 -0.1800 -0.1155 -1.0122
  174SLPC   C1119643   2.469   0.205   7.144 -0.5850 -0.8502 -0.4496
  174SLPC  H11A19644   2.484   0.195   7.034 -0.2559  1.4529 -0.6807
  174SLPC  H11B19645   2.369   0.249   7.162  0.1406  1.1758 -1.0462
  174SLPC     P19646   2.373  -0.028   7.224 -0.0558 -0.6215 -0.3367
  174SLPC   O1319647   2.446  -0.147   7.263  0.1182 -0.1458 -0.2442
  174SLPC   O1419648   2.283   0.022   7.333 -0.2272 -0.2914 -0.1369
  174SLPC   O1219649   2.485   0.084   7.205  0.4782  0.9098 -0.8819
  174SLPC   O1119650   2.300  -0.050   7.085  0.0113  0.0033 -0.1164
  174SLPC    C119651   2.362  -0.131   6.987 -0.0091 -0.0950  0.5592
  174SLPC    HA19652   2.453  -0.180   7.026 -1.0726 -0.2354  3.0107
  174SLPC    HB19653   2.294  -0.214   6.958 -1.0872  0.9774 -0.0508
  174SLPC    C219654   2.419  -0.044   6.868 -0.6275 -0.1545  0.0337
  174SLPC    HS19655   2.497   0.021   6.914 -0.0086  0.6919 -2.0937
  174SLPC   O2119656   2.296   0.031   6.814 -0.1649  0.7585  0.0501
  174SLPC   C2119657   2.335   0.142   6.764  0.2802 -0.0967  0.2471
  174SLPC   O2219658   2.451   0.186   6.772 -0.6949 -0.5789 -0.1710
  174SLPC   C2219659   2.208   0.205   6.701  0.2598 -0.7352 -0.6725
  174SLPC   H2R19660   2.144   0.122   6.664  0.9058 -1.7159  0.3081
  174SLPC   H2S19661   2.153   0.251   6.785 -0.3919  1.1397 -2.0629
  174SLPC    C319662   2.492  -0.140   6.768 -0.0785  0.8083 -0.4651
  174SLPC    HX19663   2.420  -0.220   6.741 -1.1828  1.1627  1.2798
  174SLPC    HY19664   2.582  -0.191   6.809  0.0307  0.3197 -1.2822
  174SLPC   O3119665   2.547  -0.070   6.655 -0.3616  0.8824  0.3177
  174SLPC   C3119666   2.657  -0.010   6.665  0.0576  0.1041 -0.9800
  174SLPC   O3219667   2.731  -0.012   6.764 -0.0926 -0.0128  0.1698
  174SLPC   C3219668   2.685   0.047   6.533  0.8414 -0.4187 -0.2770
  174SLPC   H2X19669   2.629   0.143   6.525  0.7394 -0.4634 -0.1056
  174SLPC   H2Y19670   2.649  -0.024   6.456 -1.1819 -0.0312  0.2664
  174SLPC   C2319671   2.236   0.319   6.600  0.0578 -0.0671 -0.4954
  174SLPC   H3R19672   2.307   0.392   6.646  0.0268  0.2298 -0.9105
  174SLPC   H3S19673   2.142   0.377   6.588  0.4415  0.9708  1.1931
  174SLPC   C2419674   2.288   0.268   6.464  0.0283 -0.1665  0.4752
  174SLPC   H4R19675   2.235   0.172   6.447 -2.2653  1.3591 -1.6284
  174SLPC   H4S19676   2.393   0.236   6.480  0.8784  0.8088 -2.5214
  174SLPC   C2519677   2.277   0.359   6.348 -0.2261  0.6353  0.0059
  174SLPC   H5R19678   2.334   0.454   6.357  1.3082 -0.1703 -0.7832
  174SLPC   H5S19679   2.170   0.373   6.321  0.3663  1.9153 -1.8787
  174SLPC   C2619680   2.329   0.293   6.214 -0.5593  0.3122 -0.3124
  174SLPC   H6R19681   2.264   0.204   6.200  0.9418 -0.6149 -1.8477
  174SLPC   H6S19682   2.434   0.262   6.229 -0.0145  1.9452 -0.5531
  174SLPC   C2719683   2.308   0.379   6.092  0.1142  0.8427 -0.0717
  174SLPC   H7R19684   2.363   0.475   6.101  2.1435 -0.1081 -1.5104
  174SLPC   H7S19685   2.202   0.411   6.076  0.0858 -0.3816 -3.2007
  174SLPC   C2819686   2.362   0.303   5.973 -0.1846 -0.3724 -0.3025
  174SLPC   H8R19687   2.319   0.201   5.974 -3.5413  0.8194 -2.7841
  174SLPC   H8S19688   2.472   0.296   5.985  0.0327  1.7824 -0.6061
  174SLPC   C2919689   2.343   0.380   5.849  0.6726  0.4844 -0.4311
  174SLPC   H9R19690   2.346   0.489   5.860 -2.0406  0.4103  2.8361
  174SLPC  C21019691   2.333   0.340   5.721 -0.0741 -0.4114 -0.2499
  174SLPC  H10R19692   2.317   0.418   5.645  1.2494 -1.0562 -1.2164
  174SLPC  C21119693   2.333   0.199   5.674 -0.1788 -0.5488  0.0928
  174SLPC  H11R19694   2.265   0.189   5.586  0.0900 -0.0123 -0.1787
  174SLPC  H11S19695   2.291   0.124   5.746  3.0081 -1.7090  0.9165
  174SLPC  C21219696   2.469   0.161   5.633 -0.2112 -0.5041 -0.3056
  174SLPC  H12R19697   2.531   0.237   5.585  1.4009 -2.6444 -1.7789
  174SLPC  C21319698   2.521   0.034   5.628  0.2284 -0.2124 -0.0067
  174SLPC  H13R19699   2.626   0.020   5.597 -0.2332 -0.6346 -1.4660
  174SLPC  C21419700   2.459  -0.091   5.680  0.0746  0.5846  0.1307
  174SLPC  H14R19701   2.495  -0.171   5.612  0.7018 -0.7019  1.8986
  174SLPC  H14S19702   2.348  -0.086   5.673  0.0923 -1.2986 -3.6415
  174SLPC  C21519703   2.519  -0.131   5.811  0.3487 -0.0544  0.1663
  174SLPC  H15R19704   2.628  -0.110   5.810  0.6044 -1.1179  1.7544
  174SLPC  H15S19705   2.515  -0.242   5.816  1.2300 -0.1095 -0.2106
  174SLPC  C21619706   2.467  -0.064   5.943  0.1453 -0.2817 -0.0723
  174SLPC  H16R19707   2.356  -0.068   5.946  0.1715 -0.4217  1.1908
  174SLPC  H16S19708   2.498   0.043   5.951 -1.8139  0.2569  0.8776
  174SLPC  C21719709   2.517  -0.138   6.077 -0.0812  0.8341  0.3685
  174SLPC  H17R19710   2.627  -0.129   6.087 -0.0439 -0.4921  1.4789
  174SLPC  H17S19711   2.494  -0.247   6.071 -0.5088  0.9603 -0.6881
  174SLPC  C21819712   2.455  -0.081   6.206  0.3802 -0.0012  0.0822
  174SLPC  H18R19713   2.443  -0.160   6.283 -1.4870  0.3276  0.1817
  174SLPC  H18S19714   2.348  -0.052   6.195 -0.2636 -1.5609  1.7895
  174SLPC  H18T19715   2.505   0.010   6.247 -1.4869  1.0461  0.1425
  174SLPC   C3319716   2.832   0.081   6.521 -0.2366  0.4967  0.1116
  174SLPC   H3X19717   2.889  -0.014   6.516  0.4892  0.8120  1.6521
  174SLPC   H3Y19718   2.873   0.134   6.610  0.8137 -0.9028  0.4884
  174SLPC   C3419719   2.869   0.170   6.404 -0.0132 -0.5851  0.6692
  174SLPC   H4X19720   2.980   0.173   6.393  0.0563 -0.9034  1.2912
  174SLPC   H4Y19721   2.845   0.276   6.429  0.2808 -0.6188  1.0942
  174SLPC   C3519722   2.805   0.142   6.262  0.6840  0.0556  0.0529
  174SLPC   H5X19723   2.708   0.196   6.261  0.2138 -0.7208  0.9281
  174SLPC   H5Y19724   2.782   0.033   6.264  0.3245  0.0939  2.8835
  174SLPC   C3619725   2.900   0.175   6.141  0.1356 -0.3868 -0.2956
  174SLPC   H6X19726   2.971   0.093   6.118  0.7084  0.1060 -0.3211
  174SLPC   H6Y19727   2.960   0.265   6.164  0.5327 -0.5071 -0.8330
  174SLPC   C3719728   2.817   0.199   6.016 -0.1927  0.2136 -0.1700
  174SLPC   H7X19729   2.754   0.290   6.019  0.8949  0.9699  0.7121
  174SLPC   H7Y19730   2.763   0.108   5.983 -2.1847  1.2388  0.1306
  174SLPC   C3819731   2.906   0.229   5.901  0.0773 -0.2638 -0.9317
  174SLPC   H8X19732   2.970   0.139   5.887 -0.7779 -0.8510 -1.1561
  174SLPC   H8Y19733   2.975   0.312   5.928 -0.8875  0.5119 -0.7961
  174SLPC   C3919734   2.841   0.285   5.778  0.1784  0.7849  1.1844
  174SLPC   H9X19735   2.797   0.385   5.794 -0.1801  0.7604  0.4214
  174SLPC   H9Y19736   2.760   0.211   5.760  2.1109 -1.3529  0.7861
  174SLPC  C31019737   2.929   0.291   5.648 -0.3447 -0.4741 -0.5324
  174SLPC  H10X19738   3.015   0.225   5.673 -0.3131 -0.6443 -1.0641
  174SLPC  H10Y19739   2.963   0.396   5.633 -1.7271  0.0028 -0.3963
  174SLPC  C31119740   2.877   0.237   5.514 -0.0826 -0.4247  0.1435
  174SLPC  H11X19741   2.815   0.148   5.537 -2.2300  1.2684  1.3437
  174SLPC  H11Y19742   2.972   0.214   5.461 -0.6827 -0.9138 -0.7321
  174SLPC  C31219743   2.776   0.333   5.445  0.6374  0.3711 -0.0558
  174SLPC  H12X19744   2.838   0.406   5.389 -0.2511  0.9788 -0.2812
  174SLPC  H12Y19745   2.707   0.396   5.505 -0.5386  0.6150 -1.5947
  174SLPC  C31319746   2.708   0.253   5.336 -0.0803 -0.1522 -0.7456
  174SLPC  H13X19747   2.654   0.164   5.375 -1.0284  1.0741  0.8510
  174SLPC  H13Y19748   2.778   0.217   5.258 -1.7185 -5.7122 -0.0816
  174SLPC  C31419749   2.607   0.344   5.272 -0.3709 -0.8727 -0.0087
  174SLPC  H14X19750   2.641   0.448   5.251  2.3084 -1.3359  1.5792
  174SLPC  H14Y19751   2.521   0.352   5.342 -0.9785 -2.1934 -0.5748
  174SLPC  C31519752   2.547   0.305   5.133 -0.2444  0.0431  1.2222
  174SLPC  H15X19753   2.612   0.343   5.050 -1.4701  0.3663  0.3745
  174SLPC  H15Y19754   2.448   0.355   5.122 -0.5082 -0.3756  1.6617
  174SLPC  C31619755   2.519   0.152   5.113  0.1637  0.3259 -0.0727
  174SLPC  H16X19756   2.466   0.117   5.204  2.5429 -0.3361  1.1107
  174SLPC  H16Y19757   2.614   0.095   5.105 -0.5744 -0.7506 -2.1768
  174SLPC  C31719758   2.431   0.124   4.988  0.0371 -0.2389  0.6079
  174SLPC  H17X19759   2.332   0.173   4.998  0.7531  1.8665 -1.6425
  174SLPC  H17Y19760   2.406   0.016   4.991 -1.5892  0.0897 -0.0686
  174SLPC  C31819761   2.477   0.184   4.851  0.2214 -0.0071  0.2815
  174SLPC  H18X19762   2.398   0.167   4.775  0.3755 -1.2160  0.3567
  174SLPC  H18Y19763   2.565   0.128   4.810  0.2247 -0.3859  0.7904
  174SLPC  H18Z19764   2.511   0.289   4.855  0.3902 -0.0834  1.0141
  175SLPC     N19765   4.890   2.045   7.432 -0.1734  0.3274  0.8363
  175SLPC   C1319766   4.857   2.179   7.477  0.7085 -0.1300 -0.1946
  175SLPC  H13A19767   4.752   2.202   7.488  0.3656 -1.5354 -0.3155
  175SLPC  H13B19768   4.897   2.189   7.577  1.6602  1.2314 -0.6889
  175SLPC  H13C19769   4.908   2.248   7.412 -0.0007 -0.8276 -1.5233
  175SLPC   C1419770   4.832   1.934   7.511  0.2873  0.0894 -0.2482
  175SLPC  H14A19771   4.892   1.844   7.512  0.4439  0.1889  1.4679
  175SLPC  H14B19772   4.832   1.967   7.614  1.3783 -0.0291 -0.1971
  175SLPC  H14C19773   4.729   1.921   7.481  0.7375 -0.8816 -1.4784
  175SLPC   C1519774   5.036   2.041   7.453 -0.0214  0.3562 -0.2046
  175SLPC  H15A19775   5.056   2.078   7.553  1.4602  1.4630 -0.8840
  175SLPC  H15B19776   5.087   1.952   7.420  4.3110  1.9235  1.5509
  175SLPC  H15C19777   5.079   2.117   7.390 -0.5248  0.5336 -0.3403
  175SLPC   C1219778   4.853   2.030   7.278 -0.5827 -0.9478 -0.3644
  175SLPC  H12A19779   4.752   2.068   7.271  0.0267  2.1120  3.5438
  175SLPC  H12B19780   4.849   1.928   7.243  1.3798 -0.6948 -1.4838
  175SLPC   C1119781   4.943   2.110   7.178  0.4720 -0.3041 -0.1566
  175SLPC  H11A19782   4.919   2.215   7.203  2.4887  0.6847 -2.0661
  175SLPC  H11B19783   4.905   2.094   7.074  0.0028  0.8265 -0.1673
  175SLPC     P19784   5.132   1.971   7.111 -0.1223 -0.1452  0.4749
  175SLPC   O1319785   5.267   1.941   7.162  0.2898 -0.1883 -0.4333
  175SLPC   O1419786   5.026   1.865   7.115  0.1504 -0.3965 -0.4141
  175SLPC   O1219787   5.081   2.098   7.186  0.2437  0.2955  0.0052
  175SLPC   O1119788   5.137   2.028   6.962 -0.1414 -0.2774 -0.1447
  175SLPC    C119789   5.207   2.145   6.938 -0.3901 -0.3848  0.0462
  175SLPC    HA19790   5.180   2.230   7.004 -0.4504  1.5162 -2.2942
  175SLPC    HB19791   5.315   2.118   6.935 -0.4192 -0.6390  0.9122
  175SLPC    C219792   5.190   2.200   6.787 -0.4940 -1.0304  0.0007
  175SLPC    HS19793   5.083   2.188   6.759 -1.2183 -0.4237  2.2959
  175SLPC   O2119794   5.288   2.127   6.705  0.2965  1.0334 -0.3311
  175SLPC   C2119795   5.260   2.115   6.576  0.8159  0.5711  0.1843
  175SLPC   O2219796   5.152   2.141   6.524  0.2389  0.4564  0.1906
  175SLPC   C2219797   5.385   2.065   6.500 -0.2625 -0.0467 -0.2813
  175SLPC   H2R19798   5.449   2.028   6.583  0.0270 -0.2787 -0.6036
  175SLPC   H2S19799   5.354   1.984   6.431 -0.7120  0.9756 -1.3083
  175SLPC    C319800   5.224   2.356   6.773 -0.4501 -0.0633  0.1536
  175SLPC    HX19801   5.333   2.363   6.789 -0.2486  1.0905 -1.4718
  175SLPC    HY19802   5.172   2.412   6.854  0.1986 -0.2995  0.7490
  175SLPC   O3119803   5.200   2.402   6.644  0.2534  0.2409  0.1027
  175SLPC   C3119804   5.072   2.441   6.617 -0.0150  0.5914  0.0883
  175SLPC   O3219805   4.978   2.421   6.696 -0.0302 -0.6178  0.3077
  175SLPC   C3219806   5.066   2.489   6.476 -0.5611  0.3355  0.7996
  175SLPC   H2X19807   5.106   2.409   6.410  1.1232  1.1580  0.7547
  175SLPC   H2Y19808   5.128   2.579   6.458 -1.2556  0.6048 -0.2802
  175SLPC   C2319809   5.459   2.182   6.433 -0.3422 -0.3275 -0.0882
  175SLPC   H3R19810   5.566   2.156   6.413 -0.5852 -1.3681 -0.0704
  175SLPC   H3S19811   5.475   2.257   6.513 -3.5147 -1.4619  1.7760
  175SLPC   C2419812   5.397   2.242   6.307  0.0115  0.9646 -0.3016
  175SLPC   H4R19813   5.449   2.339   6.293  2.0700 -0.0246  0.2306
  175SLPC   H4S19814   5.287   2.259   6.315 -0.2051 -0.8632  1.2925
  175SLPC   C2519815   5.424   2.158   6.184 -0.2612  0.0976  0.0213
  175SLPC   H5R19816   5.355   2.200   6.107  0.8506  1.0815 -0.4665
  175SLPC   H5S19817   5.393   2.054   6.207  0.2859 -0.0485  0.1109
  175SLPC   C2619818   5.572   2.165   6.129 -0.5324  0.3495 -0.7279
  175SLPC   H6R19819   5.643   2.136   6.209 -1.7206  0.5708  0.4462
  175SLPC   H6S19820   5.587   2.274   6.111 -0.8567  0.4344 -0.4957
  175SLPC   C2719821   5.590   2.101   5.989 -0.9509 -0.6491 -0.7930
  175SLPC   H7R19822   5.575   1.991   5.999 -0.0081 -0.6881  0.4670
  175SLPC   H7S19823   5.698   2.107   5.962 -0.5579  0.5277  0.8688
  175SLPC   C2819824   5.501   2.162   5.883  0.2535  0.5997  0.7699
  175SLPC   H8R19825   5.538   2.267   5.878  0.3177  0.5123 -1.7640
  175SLPC   H8S19826   5.396   2.161   5.921  0.0818 -1.9267  0.3819
  175SLPC   C2919827   5.536   2.092   5.750  0.3412  0.5209  0.1238
  175SLPC   H9R19828   5.513   1.985   5.743 -0.7466  0.7961 -0.9756
  175SLPC  C21019829   5.576   2.153   5.643 -0.3119 -1.1245  0.4916
  175SLPC  H10R19830   5.589   2.097   5.549  1.3092  1.8428 -1.2396
  175SLPC  C21119831   5.594   2.303   5.620 -0.0766  0.0309  0.2766
  175SLPC  H11R19832   5.677   2.323   5.548  0.7301  3.8752  1.9941
  175SLPC  H11S19833   5.631   2.345   5.717 -1.7554  1.8358  0.1745
  175SLPC  C21219834   5.460   2.364   5.583 -0.6806  0.2342 -0.5805
  175SLPC  H12R19835   5.417   2.420   5.668  1.1977  2.3876 -0.9499
  175SLPC  C21319836   5.409   2.371   5.455 -0.2216 -0.7373 -0.4667
  175SLPC  H13R19837   5.313   2.418   5.431  1.1694  0.1187 -5.6774
  175SLPC  C21419838   5.467   2.305   5.330 -0.4212 -0.2846 -0.4153
  175SLPC  H14R19839   5.396   2.226   5.300 -1.1415 -1.2216  3.2770
  175SLPC  H14S19840   5.559   2.248   5.357 -0.5430 -1.2949 -2.0094
  175SLPC  C21519841   5.493   2.390   5.209 -0.2759  0.3797  0.4298
  175SLPC  H15R19842   5.579   2.458   5.227 -0.6110  0.6419  1.0760
  175SLPC  H15S19843   5.408   2.459   5.191  0.1967  0.3741 -2.2654
  175SLPC  C21619844   5.513   2.315   5.078 -1.3132 -0.7509 -0.2437
  175SLPC  H16R19845   5.527   2.387   4.994 -3.0843 -0.3808 -0.2500
  175SLPC  H16S19846   5.429   2.248   5.050 -0.5536 -2.0325  0.4308
  175SLPC  C21719847   5.643   2.240   5.071  0.6812  0.1608  0.6872
  175SLPC  H17R19848   5.638   2.151   5.136 -0.5930 -1.8981 -1.9941
  175SLPC  H17S19849   5.733   2.300   5.097  1.6090 -0.7847 -0.2317
  175SLPC  C21819850   5.660   2.171   4.932 -0.2781 -0.5280  0.4983
  175SLPC  H18R19851   5.710   2.246   4.867  1.8853 -0.9650  1.5772
  175SLPC  H18S19852   5.564   2.136   4.887  0.4207 -1.0049 -0.6715
  175SLPC  H18T19853   5.719   2.077   4.928 -1.3270 -1.1645 -0.7769
  175SLPC   C3319854   4.927   2.519   6.424  0.1544  0.4390 -0.2989
  175SLPC   H3X19855   4.881   2.603   6.480 -0.0735 -0.1174  0.3670
  175SLPC   H3Y19856   4.858   2.432   6.421 -0.7987  1.0964  1.3699
  175SLPC   C3419857   4.925   2.572   6.280 -0.0002 -0.3888 -0.6554
  175SLPC   H4X19858   5.007   2.645   6.268  0.1737 -0.6196 -0.8722
  175SLPC   H4Y19859   4.828   2.620   6.256  0.2312  0.9294  0.8963
  175SLPC   C3519860   4.943   2.461   6.179 -0.3814 -0.0245  0.5983
  175SLPC   H5X19861   4.853   2.398   6.194 -0.1888  0.0788  2.3997
  175SLPC   H5Y19862   5.028   2.396   6.205  0.3425  1.2086  1.4204
  175SLPC   C3619863   4.940   2.509   6.030  0.3203  0.4869 -0.6359
  175SLPC   H6X19864   4.868   2.593   6.020 -0.2004  0.2692  1.0345
  175SLPC   H6Y19865   4.902   2.428   5.965  0.6313 -0.2828  0.1145
  175SLPC   C3719866   5.077   2.560   5.989 -0.3912  0.2877 -0.3142
  175SLPC   H7X19867   5.154   2.482   6.008 -1.5336 -1.2989 -1.8190
  175SLPC   H7Y19868   5.113   2.643   6.053  1.5408 -1.6514  1.2718
  175SLPC   C3819869   5.083   2.601   5.839 -0.2883  0.8257 -0.4902
  175SLPC   H8X19870   5.017   2.691   5.839 -1.0429  0.2857 -0.3409
  175SLPC   H8Y19871   5.047   2.523   5.767  1.5244 -1.1779  0.6607
  175SLPC   C3919872   5.223   2.639   5.795  0.2778  0.1260 -0.6293
  175SLPC   H9X19873   5.295   2.559   5.824  1.0365  0.6281 -1.0688
  175SLPC   H9Y19874   5.251   2.727   5.856 -0.9263  0.7467 -0.9499
  175SLPC  C31019875   5.245   2.675   5.646  0.7567 -0.4942  0.6884
  175SLPC  H10X19876   5.166   2.754   5.644 -0.1077 -1.2740  2.0136
  175SLPC  H10Y19877   5.203   2.599   5.576 -1.4985  1.8644 -0.6876
  175SLPC  C31119878   5.383   2.735   5.612  0.4404 -0.6476  0.5497
  175SLPC  H11X19879   5.447   2.645   5.600 -0.3537 -1.0387 -1.0610
  175SLPC  H11Y19880   5.438   2.784   5.695  1.6181 -1.2449  0.1424
  175SLPC  C31219881   5.410   2.831   5.488 -0.3500 -0.3460 -0.3176
  175SLPC  H12X19882   5.518   2.853   5.497 -0.6151  1.0059 -0.2165
  175SLPC  H12Y19883   5.357   2.928   5.502 -0.5547 -0.1534 -2.1792
  175SLPC  C31319884   5.368   2.770   5.357 -0.0802 -0.1449 -0.4586
  175SLPC  H13X19885   5.257   2.769   5.361 -0.0355 -0.2899  2.5286
  175SLPC  H13Y19886   5.419   2.672   5.343  2.3467  0.8351  1.0103
  175SLPC  C31419887   5.409   2.855   5.236 -0.5824  0.0740  0.4947
  175SLPC  H14X19888   5.515   2.882   5.257 -0.3714 -0.5273  0.2087
  175SLPC  H14Y19889   5.348   2.948   5.232 -0.0889  0.3567 -1.0094
  175SLPC  C31519890   5.398   2.783   5.102 -0.5220 -0.3251  0.5341
  175SLPC  H15X19891   5.456   2.689   5.106 -1.6256 -0.9755  2.5954
  175SLPC  H15Y19892   5.434   2.849   5.020  0.8641 -0.1574  1.2583
  175SLPC  C31619893   5.254   2.735   5.066 -0.1896 -0.0431  0.0219
  175SLPC  H16X19894   5.216   2.661   5.140  0.2732 -0.5116 -0.1978
  175SLPC  H16Y19895   5.259   2.669   4.976 -0.7288 -2.3031  1.5534
  175SLPC  C31719896   5.148   2.845   5.044  0.1497 -0.4326  0.2597
  175SLPC  H17X19897   5.175   2.929   5.113 -1.6429 -0.6639  1.2926
  175SLPC  H17Y19898   5.050   2.796   5.056  0.6697 -1.4094  0.6553
  175SLPC  C31819899   5.158   2.900   4.901 -0.0238 -0.2899  0.2813
  175SLPC  H18X19900   5.077   2.970   4.871  0.0325 -0.2976  0.1099
  175SLPC  H18Y19901   5.166   2.820   4.825  1.4122 -0.1913  0.2943
  175SLPC  H18Z19902   5.251   2.960   4.900  1.2652 -2.1858 -1.2605
  176SLPC     N19903   5.731   0.593   7.320 -0.3880  0.0327 -0.6049
  176SLPC   C1319904   5.662   0.502   7.417  0.3990 -0.6129 -0.8645
  176SLPC  H13A19905   5.731   0.453   7.484 -0.3861  0.1187  0.5209
  176SLPC  H13B19906   5.590   0.553   7.479  0.8118  1.5787 -2.0752
  176SLPC  H13C19907   5.620   0.420   7.360  1.9279  0.0221 -3.0230
  176SLPC   C1419908   5.833   0.510   7.255 -0.9099  0.0866  0.3285
  176SLPC  H14A19909   5.776   0.435   7.203 -0.4469  1.1628 -1.8585
  176SLPC  H14B19910   5.894   0.567   7.186  0.1955  0.6731  1.7286
  176SLPC  H14C19911   5.901   0.466   7.327  0.5059  2.2898  0.4416
  176SLPC   C1519912   5.795   0.709   7.385  0.3009 -0.2905 -1.0305
  176SLPC  H15A19913   5.717   0.782   7.403  0.0991 -1.0194  1.3291
  176SLPC  H15B19914   5.853   0.695   7.474  1.4544  1.6357 -1.4184
  176SLPC  H15C19915   5.865   0.761   7.321  0.2867  0.3967 -0.5041
  176SLPC   C1219916   5.631   0.644   7.213  0.0737  0.1765 -0.7036
  176SLPC  H12A19917   5.673   0.706   7.135 -0.5444 -0.7062 -1.7769
  176SLPC  H12B19918   5.556   0.703   7.263 -0.2149 -1.9218  1.4654
  176SLPC   C1119919   5.544   0.532   7.134 -0.3813  0.2025  0.1451
  176SLPC  H11A19920   5.618   0.459   7.094 -0.5439  0.1897 -0.1405
  176SLPC  H11B19921   5.495   0.590   7.053  0.7728 -0.5414 -1.1439
  176SLPC     P19922   5.303   0.467   7.233  0.1097  0.3660  0.2062
  176SLPC   O1319923   5.272   0.339   7.299  0.4200  0.1269  0.5298
  176SLPC   O1419924   5.256   0.591   7.300 -0.7884 -0.0700 -0.1131
  176SLPC   O1219925   5.458   0.456   7.222  0.4246  0.4083 -0.4755
  176SLPC   O1119926   5.260   0.459   7.081  0.4814 -0.3506 -0.1001
  176SLPC    C119927   5.320   0.359   7.003 -0.3049 -0.0684  0.4851
  176SLPC    HA19928   5.412   0.317   7.046  1.1883  3.0699  0.6582
  176SLPC    HB19929   5.241   0.282   6.990 -0.2095 -0.1973  0.6748
  176SLPC    C219930   5.362   0.416   6.857  0.1113  0.0943 -0.6973
  176SLPC    HS19931   5.403   0.518   6.853  3.0148 -1.0175 -3.4114
  176SLPC   O2119932   5.244   0.401   6.775 -0.5941  0.1022 -0.0393
  176SLPC   C2119933   5.192   0.514   6.728 -0.0341 -0.2415  0.1182
  176SLPC   O2219934   5.253   0.619   6.727 -0.4479  0.0404 -0.1348
  176SLPC   C2219935   5.052   0.486   6.674  0.1008  0.3480 -0.1980
  176SLPC   H2R19936   5.057   0.385   6.629 -1.7271  1.3568 -2.9293
  176SLPC   H2S19937   4.976   0.492   6.755  1.2280  0.1059  0.9081
  176SLPC    C319938   5.472   0.322   6.797 -0.0994  0.0192  0.1280
  176SLPC    HX19939   5.427   0.220   6.798 -0.6900  0.1733  3.9872
  176SLPC    HY19940   5.558   0.309   6.867  1.1584  0.5193 -1.2620
  176SLPC   O3119941   5.498   0.357   6.654 -0.4677  0.2406 -0.3663
  176SLPC   C3119942   5.608   0.425   6.624 -0.1526  0.2206 -0.3074
  176SLPC   O3219943   5.669   0.502   6.703  0.8091  0.0880 -0.6156
  176SLPC   C3219944   5.644   0.415   6.477  0.5264 -0.1522  0.0078
  176SLPC   H2X19945   5.640   0.306   6.454  0.4057 -0.6401  2.1740
  176SLPC   H2Y19946   5.754   0.429   6.474  0.3475  1.4768  0.1551
  176SLPC   C2319947   5.029   0.597   6.564 -0.0884 -0.3201  0.4061
  176SLPC   H3R19948   5.046   0.697   6.608 -0.3413 -1.0569  2.2647
  176SLPC   H3S19949   4.924   0.589   6.530  0.1536  0.3799 -0.5579
  176SLPC   C2419950   5.107   0.567   6.430  0.3449  0.5135 -0.5234
  176SLPC   H4R19951   5.216   0.560   6.448  0.1395 -0.2316  0.5049
  176SLPC   H4S19952   5.087   0.643   6.351  0.3430 -0.3799 -1.3966
  176SLPC   C2519953   5.058   0.438   6.358  0.2664  0.1485 -0.2963
  176SLPC   H5R19954   4.950   0.460   6.343  0.1518  0.3328  0.7038
  176SLPC   H5S19955   5.070   0.357   6.433 -0.6715 -0.8437 -1.1913
  176SLPC   C2619956   5.139   0.405   6.229  0.0114  0.0658 -0.4498
  176SLPC   H6R19957   5.144   0.295   6.213 -0.3292 -0.0209  0.0149
  176SLPC   H6S19958   5.244   0.438   6.242 -0.0739 -0.2596  1.3048
  176SLPC   C2719959   5.092   0.479   6.106  0.4463  0.1362  0.3383
  176SLPC   H7R19960   5.086   0.588   6.128  0.9139 -0.2305  2.5751
  176SLPC   H7S19961   4.985   0.464   6.081 -0.0806  1.1562  1.7924
  176SLPC   C2819962   5.176   0.467   5.980 -0.3071  0.1844 -0.0240
  176SLPC   H8R19963   5.228   0.370   5.995  0.4781  0.3604 -1.4366
  176SLPC   H8S19964   5.268   0.528   5.971  2.2775 -3.2022  1.5440
  176SLPC   C2919965   5.112   0.451   5.846  0.0055  0.2851 -0.6874
  176SLPC   H9R19966   5.073   0.351   5.821  2.6156 -1.4206  1.5533
  176SLPC  C21019967   5.102   0.556   5.760 -0.2927  0.4824  0.2155
  176SLPC  H10R19968   5.074   0.539   5.655  1.0190  0.6552 -0.1889
  176SLPC  C21119969   5.153   0.691   5.789  0.6044  0.3402  0.2377
  176SLPC  H11R19970   5.264   0.689   5.796  0.6085 -0.7720  0.0435
  176SLPC  H11S19971   5.105   0.726   5.883 -1.1935  1.9365 -1.1930
  176SLPC  C21219972   5.124   0.796   5.680  0.4389 -0.2114  0.7823
  176SLPC  H12R19973   5.057   0.873   5.721  3.0828  2.5272  0.3017
  176SLPC  C21319974   5.166   0.801   5.554 -0.6049 -0.0168 -0.1741
  176SLPC  H13R19975   5.145   0.899   5.509  0.4276  0.2780 -0.0378
  176SLPC  C21419976   5.257   0.706   5.476  1.0596  0.1891 -0.0717
  176SLPC  H14R19977   5.282   0.616   5.535 -0.2782 -0.2963 -0.2078
  176SLPC  H14S19978   5.342   0.768   5.440  0.9094 -0.4748 -1.6348
  176SLPC  C21519979   5.190   0.663   5.345  0.2998  0.0826 -0.2377
  176SLPC  H15R19980   5.079   0.665   5.354  0.2287 -0.4766 -0.9385
  176SLPC  H15S19981   5.207   0.555   5.328  2.3562  0.5776 -1.5913
  176SLPC  C21619982   5.225   0.741   5.213  0.6138 -0.5485 -0.0901
  176SLPC  H16R19983   5.169   0.701   5.125 -3.2227  0.2853  1.7617
  176SLPC  H16S19984   5.331   0.715   5.188  0.0509 -0.1298 -3.4474
  176SLPC  C21719985   5.195   0.894   5.206 -0.2655 -0.2476 -0.4783
  176SLPC  H17R19986   5.260   0.935   5.286 -0.3129 -1.7528  0.3680
  176SLPC  H17S19987   5.097   0.928   5.246 -0.3873  0.5165 -1.3988
  176SLPC  C21819988   5.223   0.960   5.073 -0.7874  0.3937  0.5393
  176SLPC  H18R19989   5.172   1.057   5.060 -1.4279  0.0518  0.4648
  176SLPC  H18S19990   5.169   0.901   4.996 -0.9086 -0.7507  1.4750
  176SLPC  H18T19991   5.331   0.970   5.047 -0.9999 -0.1681 -0.6677
  176SLPC   C3319992   5.552   0.491   6.374  0.3042 -0.0233 -0.5419
  176SLPC   H3X19993   5.520   0.593   6.404  1.2595  0.6342 -1.6946
  176SLPC   H3Y19994   5.458   0.440   6.345  1.3677 -0.7251 -3.0149
  176SLPC   C3419995   5.634   0.525   6.249  0.1904 -0.2840 -0.5196
  176SLPC   H4X19996   5.692   0.435   6.220 -1.1984 -2.4372  2.8546
  176SLPC   H4Y19997   5.711   0.605   6.260  0.6295 -0.5191 -1.6848
  176SLPC   C3519998   5.550   0.575   6.127 -0.6843  0.1584  0.2912
  176SLPC   H5X19999   5.492   0.668   6.149  0.2287  1.8111 -3.5640
  176SLPC   H5Y20000   5.471   0.503   6.097 -0.6820  0.7000 -1.0967
  176SLPC   C3620001   5.638   0.580   6.001  0.6506  0.6566  0.2179
  176SLPC   H6X20002   5.667   0.476   5.975 -2.6064 -0.0566 -0.9542
  176SLPC   H6Y20003   5.732   0.635   6.024  0.6779 -0.0668  2.0825
  176SLPC   C3720004   5.574   0.643   5.876 -0.1641 -0.5591  0.0890
  176SLPC   H7X20005   5.545   0.747   5.901  0.7997 -0.7015  1.9440
  176SLPC   H7Y20006   5.489   0.576   5.849  2.0222 -3.5371  0.0883
  176SLPC   C3820007   5.659   0.651   5.747  1.4257  0.1918 -0.4377
  176SLPC   H8X20008   5.652   0.558   5.687  2.4884  0.3141 -0.7686
  176SLPC   H8Y20009   5.764   0.664   5.781  1.6746  0.9864 -1.4441
  176SLPC   C3920010   5.630   0.772   5.660 -0.5324 -0.4678 -0.0434
  176SLPC   H9X20011   5.635   0.873   5.707 -1.2625 -0.3748 -0.1487
  176SLPC   H9Y20012   5.529   0.762   5.615 -0.6937  1.5825 -0.2520
  176SLPC  C31020013   5.717   0.790   5.534 -0.3246  0.4543  0.1716
  176SLPC  H10X20014   5.712   0.693   5.481  0.8011 -1.0092  2.5582
  176SLPC  H10Y20015   5.823   0.786   5.569 -0.5283 -2.2580  0.6633
  176SLPC  C31120016   5.687   0.911   5.449 -0.2183 -0.0587  0.4340
  176SLPC  H11X20017   5.696   1.006   5.505 -1.4279 -0.2978  1.0845
  176SLPC  H11Y20018   5.579   0.905   5.424 -0.0079 -2.5052 -0.1243
  176SLPC  C31220019   5.762   0.917   5.316 -0.6406  0.0053  0.4777
  176SLPC  H12X20020   5.871   0.907   5.333 -0.2475  2.9132  0.2574
  176SLPC  H12Y20021   5.754   1.020   5.275  1.7894 -0.1609 -0.5844
  176SLPC  C31320022   5.709   0.818   5.213 -0.6843  0.8351 -0.1937
  176SLPC  H13X20023   5.600   0.823   5.189 -0.7280  1.9585  0.1946
  176SLPC  H13Y20024   5.721   0.725   5.271  1.0443  1.7345  0.9600
  176SLPC  C31420025   5.793   0.812   5.088 -0.0967  0.0745  0.4227
  176SLPC  H14X20026   5.898   0.840   5.113  0.5673  0.9815 -2.8738
  176SLPC  H14Y20027   5.763   0.898   5.024 -1.7210 -0.4412  0.4483
  176SLPC  C31520028   5.790   0.681   5.016  1.0662  0.0707  0.1165
  176SLPC  H15X20029   5.827   0.605   5.088 -3.5447 -0.7948  1.9546
  176SLPC  H15Y20030   5.864   0.688   4.933  0.8884  0.9597  0.0190
  176SLPC  C31620031   5.649   0.636   4.961 -1.0044  0.8492 -0.4151
  176SLPC  H16X20032   5.579   0.609   5.043 -0.8423  1.7206  0.0269
  176SLPC  H16Y20033   5.661   0.543   4.902 -0.9667  1.5146 -1.4879
  176SLPC  C31720034   5.571   0.737   4.882  0.1325  0.4985  0.4933
  176SLPC  H17X20035   5.636   0.791   4.810  0.9864 -1.3684 -0.1915
  176SLPC  H17Y20036   5.520   0.809   4.950 -0.3713  1.1229 -0.5258
  176SLPC  C31820037   5.461   0.664   4.811 -0.0962  0.2319 -0.0163
  176SLPC  H18X20038   5.415   0.588   4.878  1.0011  0.1639  0.6730
  176SLPC  H18Y20039   5.493   0.614   4.718 -2.9527  0.9127 -1.4832
  176SLPC  H18Z20040   5.388   0.741   4.778  1.0077  0.3854 -2.2084
  177SLPC     N20041   6.342   1.397   7.394  0.1479  0.2068  0.4081
  177SLPC   C1320042   6.276   1.490   7.294  0.2905  0.1184  0.5076
  177SLPC  H13A20043   6.176   1.459   7.268  0.7118 -0.7545 -0.1388
  177SLPC  H13B20044   6.263   1.588   7.339 -2.0279 -0.3087  0.8829
  177SLPC  H13C20045   6.328   1.502   7.200 -0.2094 -0.0147  0.2114
  177SLPC   C1420046   6.276   1.412   7.527 -0.1726 -0.2009 -0.1145
  177SLPC  H14A20047   6.315   1.340   7.597 -1.5110 -0.8655 -0.0273
  177SLPC  H14B20048   6.291   1.516   7.553  1.4371 -0.2475 -0.7862
  177SLPC  H14C20049   6.174   1.381   7.510 -0.4888  1.0952 -0.6867
  177SLPC   C1520050   6.489   1.428   7.405  1.0313 -0.3628 -0.0009
  177SLPC  H15A20051   6.535   1.378   7.489 -0.2387 -1.6956 -0.0564
  177SLPC  H15B20052   6.541   1.394   7.317  1.9183 -2.5972  1.2968
  177SLPC  H15C20053   6.495   1.535   7.418  1.9509 -0.4304  0.1705
  177SLPC   C1220054   6.321   1.255   7.341  0.4620  0.1116  0.0273
  177SLPC  H12A20055   6.381   1.188   7.401 -1.1393 -1.1845  0.2536
  177SLPC  H12B20056   6.356   1.247   7.239  0.8665  0.2599  0.1517
  177SLPC   C1120057   6.183   1.188   7.337 -0.7039  0.3807 -0.1379
  177SLPC  H11A20058   6.142   1.198   7.440  0.2229 -0.2979  0.3173
  177SLPC  H11B20059   6.184   1.078   7.317 -0.0193  0.4584 -0.5485
  177SLPC     P20060   6.117   1.227   7.086  0.3860  0.2490  0.1811
  177SLPC   O1320061   6.051   1.099   7.059 -0.2245 -0.2437  0.4919
  177SLPC   O1420062   6.075   1.352   7.022  0.3395 -0.0850 -0.5788
  177SLPC   O1220063   6.110   1.259   7.240 -0.3938 -0.5477  0.7282
  177SLPC   O1120064   6.279   1.211   7.054  0.3409 -0.0083  0.5365
  177SLPC    C120065   6.342   1.315   6.976  0.0234  1.0424  0.1510
  177SLPC    HA20066   6.308   1.419   6.996 -0.2892  1.3195 -1.6598
  177SLPC    HB20067   6.450   1.311   6.999 -0.0833  1.5320  0.7838
  177SLPC    C220068   6.342   1.293   6.821  0.1825  0.0593  0.3909
  177SLPC    HS20069   6.242   1.324   6.783  0.7000  0.1895 -0.9136
  177SLPC   O2120070   6.373   1.157   6.799 -0.5592  0.3814 -0.8469
  177SLPC   C2120071   6.328   1.113   6.683 -0.2512  0.4359 -0.0486
  177SLPC   O2220072   6.250   1.175   6.614  0.2044  0.0080  0.3714
  177SLPC   C2220073   6.403   0.986   6.642  0.3075  0.7179  0.5468
  177SLPC   H2R20074   6.420   0.932   6.738 -1.4373 -1.1875 -0.1466
  177SLPC   H2S20075   6.329   0.922   6.589 -1.9854  2.2514  1.7391
  177SLPC    C320076   6.429   1.400   6.750 -0.5378 -0.3022 -0.3029
  177SLPC    HX20077   6.531   1.397   6.792 -0.8327 -0.1022  0.4505
  177SLPC    HY20078   6.373   1.491   6.779 -0.9648 -0.7727  0.3923
  177SLPC   O3120079   6.435   1.373   6.608  0.4752  0.5259  0.2954
  177SLPC   C3120080   6.355   1.452   6.532  0.4626  0.5257  0.0257
  177SLPC   O3220081   6.284   1.544   6.573  0.8383 -0.1045  0.2263
  177SLPC   C3220082   6.369   1.418   6.386 -0.1109  0.4898 -0.5976
  177SLPC   H2X20083   6.322   1.319   6.368 -1.2431  0.9289 -0.1463
  177SLPC   H2Y20084   6.479   1.400   6.382  0.2311  1.5184  2.1051
  177SLPC   C2320085   6.526   1.010   6.564 -0.7985 -0.5746  0.2443
  177SLPC   H3R20086   6.569   0.909   6.550 -0.6047 -0.7645  2.0358
  177SLPC   H3S20087   6.605   1.061   6.624 -1.6572  0.4397  0.5545
  177SLPC   C2420088   6.502   1.088   6.435 -0.1141 -0.5629  0.4915
  177SLPC   H4R20089   6.476   1.194   6.454 -3.6898 -1.4669  1.3688
  177SLPC   H4S20090   6.406   1.047   6.396 -0.2687  0.8242 -0.6651
  177SLPC   C2520091   6.608   1.074   6.326 -0.0775 -1.5678 -0.7451
  177SLPC   H5R20092   6.619   0.965   6.309  0.1470 -1.7507  0.4753
  177SLPC   H5S20093   6.704   1.116   6.363 -1.2167 -0.1806  0.7688
  177SLPC   C2620094   6.577   1.170   6.207 -0.3942  0.0186  0.4720
  177SLPC   H6R20095   6.578   1.266   6.263 -0.4490 -0.2438  0.9300
  177SLPC   H6S20096   6.470   1.159   6.178  0.0052 -2.6294 -0.3275
  177SLPC   C2720097   6.678   1.178   6.093  0.5104  0.0343 -0.6758
  177SLPC   H7R20098   6.679   1.075   6.051 -1.4894 -0.2633 -0.0690
  177SLPC   H7S20099   6.768   1.202   6.155 -0.7028  0.3877  1.0113
  177SLPC   C2820100   6.650   1.288   5.992  0.5044  0.1788  0.5550
  177SLPC   H8R20101   6.621   1.387   6.034  0.7869  0.8117 -0.7103
  177SLPC   H8S20102   6.571   1.246   5.927 -0.8117  2.4709  0.5686
  177SLPC   C2920103   6.774   1.310   5.907 -0.3177 -0.4157  0.0442
  177SLPC   H9R20104   6.868   1.269   5.947 -1.4949 -0.9236  2.4730
  177SLPC  C21020105   6.770   1.341   5.779 -0.5748 -0.2034  0.4157
  177SLPC  H10R20106   6.865   1.331   5.724  0.7006 -2.8276  2.8501
  177SLPC  C21120107   6.653   1.390   5.692  0.6499  0.2652  0.3235
  177SLPC  H11R20108   6.676   1.496   5.666 -2.3521  0.9182 -0.0760
  177SLPC  H11S20109   6.566   1.417   5.755  0.2452 -0.2593  0.0002
  177SLPC  C21220110   6.596   1.305   5.577 -0.2431 -0.2316 -0.7152
  177SLPC  H12R20111   6.537   1.214   5.594  1.3864 -1.2459 -0.3459
  177SLPC  C21320112   6.610   1.333   5.444 -0.0989  0.0739 -0.7918
  177SLPC  H13R20113   6.564   1.267   5.369 -0.4474 -0.1754 -0.3627
  177SLPC  C21420114   6.677   1.454   5.382  0.8248  0.6828  0.0664
  177SLPC  H14R20115   6.667   1.539   5.453  0.2484  2.3317 -1.8806
  177SLPC  H14S20116   6.602   1.483   5.305 -1.9812 -2.2717  1.4451
  177SLPC  C21520117   6.815   1.433   5.331 -0.1107 -0.7262 -0.7540
  177SLPC  H15R20118   6.822   1.354   5.253  1.7312  2.1910 -3.7828
  177SLPC  H15S20119   6.884   1.396   5.410  2.7455  1.2852 -2.1258
  177SLPC  C21620120   6.869   1.563   5.276 -0.2158 -0.2557  0.0284
  177SLPC  H16R20121   6.979   1.561   5.258 -0.0811  0.3304  0.7086
  177SLPC  H16S20122   6.852   1.637   5.357  0.9849  0.0782 -0.0090
  177SLPC  C21720123   6.790   1.609   5.150 -0.5366 -0.0887  0.6431
  177SLPC  H17R20124   6.684   1.628   5.179 -0.0728  1.4078  1.4756
  177SLPC  H17S20125   6.791   1.526   5.076 -0.1605  1.4904 -1.2168
  177SLPC  C21820126   6.848   1.733   5.091 -0.2184  0.0477  0.1743
  177SLPC  H18R20127   6.947   1.705   5.049 -0.2486  1.0288 -0.5782
  177SLPC  H18S20128   6.838   1.819   5.160 -2.0459 -0.6650  0.8411
  177SLPC  H18T20129   6.797   1.763   4.997  0.2367  0.7433  0.1452
  177SLPC   C3320130   6.311   1.514   6.290 -0.1830  0.4713 -0.1034
  177SLPC   H3X20131   6.350   1.616   6.310 -0.4652  0.6090 -0.2539
  177SLPC   H3Y20132   6.200   1.518   6.293 -0.1682  3.3957 -0.8763
  177SLPC   C3420133   6.354   1.487   6.141 -0.6488  0.0459 -0.3053
  177SLPC   H4X20134   6.352   1.377   6.126 -0.7328  0.0661 -0.4436
  177SLPC   H4Y20135   6.458   1.521   6.119 -0.4901  0.1098  0.5105
  177SLPC   C3520136   6.261   1.555   6.045  0.5234 -0.7999 -0.0847
  177SLPC   H5X20137   6.244   1.660   6.076  1.5773 -1.2879  2.4003
  177SLPC   H5Y20138   6.166   1.497   6.043  0.4908 -0.7556 -2.0431
  177SLPC   C3620139   6.325   1.546   5.907 -0.4644 -0.6196 -0.6323
  177SLPC   H6X20140   6.366   1.443   5.899 -0.9437 -0.7569 -1.4624
  177SLPC   H6Y20141   6.412   1.613   5.892  1.1394 -2.5569 -0.4112
  177SLPC   C3720142   6.227   1.559   5.785 -0.2491  0.5032  0.1504
  177SLPC   H7X20143   6.155   1.640   5.807  0.3033  0.5251  2.1035
  177SLPC   H7Y20144   6.175   1.461   5.773  0.3582  0.2381 -0.3829
  177SLPC   C3820145   6.296   1.591   5.650 -0.6712 -0.0200  0.1391
  177SLPC   H8X20146   6.373   1.513   5.629 -1.6160 -1.4624  1.7221
  177SLPC   H8Y20147   6.353   1.686   5.657  0.6059 -0.7552  0.0398
  177SLPC   C3920148   6.201   1.593   5.532 -0.3071 -0.1159 -0.2559
  177SLPC   H9X20149   6.122   1.669   5.549  0.4345  0.8659 -1.0700
  177SLPC   H9Y20150   6.152   1.493   5.537 -0.4288 -0.1602 -1.7441
  177SLPC  C31020151   6.270   1.603   5.393 -0.3399  0.1171  0.1214
  177SLPC  H10X20152   6.211   1.536   5.326  0.8247 -0.0854 -0.7258
  177SLPC  H10Y20153   6.376   1.569   5.398 -0.2716  0.4175  0.9895
  177SLPC  C31120154   6.272   1.740   5.322 -0.2970  0.1713 -0.0932
  177SLPC  H11X20155   6.238   1.819   5.393  0.7383  0.2279  0.3538
  177SLPC  H11Y20156   6.214   1.743   5.227  0.7215 -2.1398 -0.8651
  177SLPC  C31220157   6.416   1.794   5.302 -0.2945  1.4277 -0.1608
  177SLPC  H12X20158   6.466   1.729   5.227 -0.1482 -0.8980  1.8046
  177SLPC  H12Y20159   6.468   1.784   5.400 -2.6136 -0.1682  1.0170
  177SLPC  C31320160   6.409   1.934   5.252 -0.3310 -0.4136 -0.3872
  177SLPC  H13X20161   6.516   1.965   5.258 -0.5219 -0.0210  1.7024
  177SLPC  H13Y20162   6.358   2.007   5.318  1.0104 -1.3002  1.7173
  177SLPC  C31420163   6.373   1.956   5.104 -0.1732  0.7836 -0.5808
  177SLPC  H14X20164   6.264   1.959   5.083 -0.3062  1.6570  0.1652
  177SLPC  H14Y20165   6.418   1.879   5.037 -1.2424  1.2728 -1.8986
  177SLPC  C31520166   6.413   2.097   5.060  0.5218  0.9994 -0.4263
  177SLPC  H15X20167   6.522   2.119   5.065  0.9692 -1.0832  0.0649
  177SLPC  H15Y20168   6.350   2.174   5.110 -0.2912 -0.5278  1.0104
  177SLPC  C31620169   6.381   2.105   4.912 -0.4536  0.5794  0.3589
  177SLPC  H16X20170   6.270   2.097   4.905 -0.5099  2.1024 -0.9247
  177SLPC  H16Y20171   6.425   2.022   4.851 -0.7229  0.2328  0.6324
  177SLPC  C31720172   6.418   2.234   4.846  0.0166  0.1376 -0.5668
  177SLPC  H17X20173   6.526   2.259   4.854  0.0955 -0.5862  1.1414
  177SLPC  H17Y20174   6.363   2.318   4.894 -0.7763 -1.0893  0.7492
  177SLPC  C31820175   6.385   2.240   4.699 -0.5714 -0.3273  0.2465
  177SLPC  H18X20176   6.412   2.337   4.652 -0.0031 -1.4655 -1.9414
  177SLPC  H18Y20177   6.276   2.222   4.702 -0.9817  1.9436  1.4004
  177SLPC  H18Z20178   6.432   2.162   4.634  2.6667  1.5913  0.0410
  178SLPC     N20179   3.518   5.837   7.501  0.1149 -0.4468  0.2030
  178SLPC   C1320180   3.539   5.973   7.449  0.6900 -0.1016  0.3137
  178SLPC  H13A20181   3.634   6.007   7.488  1.3498 -0.7194 -0.6781
  178SLPC  H13B20182   3.541   5.969   7.341  0.5397 -0.0781  0.3106
  178SLPC  H13C20183   3.463   6.040   7.484  0.5309  0.6334 -1.3497
  178SLPC   C1420184   3.522   5.852   7.653  0.1426  0.9723 -0.4129
  178SLPC  H14A20185   3.615   5.900   7.681  0.1001  1.6590 -1.3617
  178SLPC  H14B20186   3.445   5.922   7.682 -0.2415 -0.2470  1.6264
  178SLPC  H14C20187   3.501   5.759   7.703 -0.9939  2.4151  2.0090
  178SLPC   C1520188   3.629   5.746   7.464  0.4776 -0.8952  0.4697
  178SLPC  H15A20189   3.717   5.784   7.514 -0.6191 -0.0014  1.8140
  178SLPC  H15B20190   3.612   5.644   7.494 -1.1022 -0.7946  0.0040
  178SLPC  H15C20191   3.643   5.753   7.357 -1.5054  0.1811  0.2322
  178SLPC   C1220192   3.386   5.784   7.453  0.1999  0.2711  0.8590
  178SLPC  H12A20193   3.383   5.677   7.471  0.6304  0.4193  1.8148
  178SLPC  H12B20194   3.383   5.797   7.345 -0.6105  0.2730  0.8756
  178SLPC   C1120195   3.252   5.837   7.510 -0.6801  0.1001 -0.1940
  178SLPC  H11A20196   3.265   5.820   7.619 -2.0627 -0.1661 -0.0491
  178SLPC  H11B20197   3.171   5.772   7.469 -1.5725  1.6603 -1.0316
  178SLPC     P20198   3.171   6.024   7.348  0.3127 -0.1923 -0.2748
  178SLPC   O1320199   3.039   5.967   7.333  1.1717  0.1823  0.2108
  178SLPC   O1420200   3.177   6.167   7.346  0.9116 -0.0348  0.0149
  178SLPC   O1220201   3.236   5.974   7.479 -0.4559  0.6921 -0.5432
  178SLPC   O1120202   3.267   5.966   7.233 -0.0850 -0.1861  0.1532
  178SLPC    C120203   3.275   6.045   7.110  0.0599 -0.1951  0.0655
  178SLPC    HA20204   3.175   6.090   7.089 -0.2568 -0.5044  0.8329
  178SLPC    HB20205   3.356   6.118   7.131  1.3170 -1.3767 -0.5149
  178SLPC    C220206   3.298   5.959   6.982 -0.5875  0.2500  0.1269
  178SLPC    HS20207   3.307   6.029   6.896  0.8015 -1.0976 -0.8742
  178SLPC   O2120208   3.176   5.879   6.970 -0.5968  0.3071  0.0613
  178SLPC   C2120209   3.088   5.921   6.880  0.0462 -0.5247  0.4762
  178SLPC   O2220210   3.087   6.035   6.830  0.0257  0.1208  0.0422
  178SLPC   C2220211   2.977   5.823   6.854  0.1517  0.0315 -0.0777
  178SLPC   H2R20212   2.930   5.799   6.952 -2.0755 -0.2454 -1.1673
  178SLPC   H2S20213   2.899   5.862   6.786 -1.7141 -1.1818  1.2499
  178SLPC    C320214   3.432   5.877   6.991 -0.0413  0.2248 -0.2978
  178SLPC    HX20215   3.448   5.820   7.085  0.8439  1.0966  0.0905
  178SLPC    HY20216   3.521   5.942   6.986  0.2561  0.0687  1.9210
  178SLPC   O3120217   3.454   5.797   6.871  0.2595 -0.4778 -0.1568
  178SLPC   C3120218   3.407   5.675   6.870 -0.2895  0.0347  0.6067
  178SLPC   O3220219   3.333   5.629   6.952  0.0547  0.1840 -0.1117
  178SLPC   C3220220   3.484   5.598   6.767  0.3863  0.2619 -0.2425
  178SLPC   H2X20221   3.592   5.625   6.769  0.2792  0.7567 -0.8086
  178SLPC   H2Y20222   3.456   5.636   6.666  3.7311  3.7280 -0.1079
  178SLPC   C2320223   3.033   5.697   6.789  0.5299 -0.0412  0.4804
  178SLPC   H3R20224   2.953   5.621   6.775  1.1580 -0.8142  0.9915
  178SLPC   H3S20225   3.102   5.648   6.861 -0.4846 -1.9828  0.1951
  178SLPC   C2420226   3.098   5.724   6.654  0.1030 -0.0652  0.5420
  178SLPC   H4R20227   3.201   5.767   6.658  0.3300 -0.4004 -1.1203
  178SLPC   H4S20228   3.038   5.796   6.594  0.2085 -0.1908  0.2847
  178SLPC   C2520229   3.103   5.586   6.581  0.5450  0.1588  0.4160
  178SLPC   H5R20230   3.000   5.565   6.546  1.6321 -2.2130 -1.6958
  178SLPC   H5S20231   3.140   5.503   6.646 -0.6317 -0.2036  0.6407
  178SLPC   C2620232   3.202   5.593   6.458 -0.6495 -0.0769  0.8793
  178SLPC   H6R20233   3.212   5.487   6.426  0.3014  0.2143  0.1579
  178SLPC   H6S20234   3.295   5.635   6.502 -1.1905  1.7251  0.3742
  178SLPC   C2720235   3.172   5.689   6.336 -0.1279  0.7447  0.3212
  178SLPC   H7R20236   3.170   5.790   6.383  0.5103  1.3778 -0.9709
  178SLPC   H7S20237   3.067   5.676   6.303 -0.1686  2.3365 -0.2641
  178SLPC   C2820238   3.274   5.690   6.218  0.9930  0.3780 -0.6430
  178SLPC   H8R20239   3.378   5.699   6.255  0.9744 -1.2317 -0.1140
  178SLPC   H8S20240   3.259   5.787   6.165 -3.1802  0.6942  0.7410
  178SLPC   C2920241   3.269   5.570   6.135 -1.0298 -0.3886 -0.0996
  178SLPC   H9R20242   3.255   5.475   6.187 -0.7796  0.3616  1.3730
  178SLPC  C21020243   3.284   5.558   6.001 -0.2000  0.1220  0.0195
  178SLPC  H10R20244   3.275   5.458   5.956  2.1793  0.0484 -0.4712
  178SLPC  C21120245   3.311   5.664   5.894  0.0269 -0.1658 -0.6005
  178SLPC  H11R20246   3.329   5.623   5.792  1.2692 -1.8314  0.2312
  178SLPC  H11S20247   3.407   5.716   5.915  0.5358 -1.2628 -0.0906
  178SLPC  C21220248   3.196   5.762   5.885  0.0819  0.6137  0.2259
  178SLPC  H12R20249   3.103   5.720   5.924 -0.4664  2.1766  0.6710
  178SLPC  C21320250   3.188   5.851   5.790 -1.4874 -1.0394  0.1920
  178SLPC  H13R20251   3.094   5.906   5.771 -0.7007  1.0517  1.9767
  178SLPC  C21420252   3.298   5.914   5.702 -0.4764 -0.1828 -0.0428
  178SLPC  H14R20253   3.401   5.902   5.742  0.2181 -0.3808 -1.8208
  178SLPC  H14S20254   3.287   6.024   5.714  0.6917 -0.0555  0.0268
  178SLPC  C21520255   3.289   5.873   5.553  0.2342 -0.2790 -0.0019
  178SLPC  H15R20256   3.277   5.762   5.549 -0.9161 -0.1514 -0.5641
  178SLPC  H15S20257   3.381   5.900   5.498  0.3899  2.2056  1.3538
  178SLPC  C21620258   3.168   5.944   5.486  0.3869  0.3195  0.8314
  178SLPC  H16R20259   3.196   6.048   5.456  2.8510 -0.5662 -0.1825
  178SLPC  H16S20260   3.084   5.944   5.558 -0.8817 -2.3368 -0.5303
  178SLPC  C21720261   3.116   5.871   5.363 -0.4685  0.2064 -0.1138
  178SLPC  H17R20262   3.037   5.924   5.306 -1.8877 -2.3643 -0.7257
  178SLPC  H17S20263   3.069   5.771   5.379 -0.2197  0.1002 -0.0520
  178SLPC  C21820264   3.235   5.845   5.264  0.1754 -0.4888 -0.1034
  178SLPC  H18R20265   3.321   5.796   5.315  0.9775  1.5668  0.6437
  178SLPC  H18S20266   3.277   5.940   5.224  1.2833 -0.8594  0.1243
  178SLPC  H18T20267   3.192   5.785   5.181 -2.2266 -0.5447  1.1003
  178SLPC   C3320268   3.477   5.445   6.784  0.0552 -0.1088 -0.3724
  178SLPC   H3X20269   3.371   5.420   6.765 -0.2677  0.3722  0.7287
  178SLPC   H3Y20270   3.499   5.416   6.889  0.4343  0.3134 -0.3313
  178SLPC   C3420271   3.572   5.367   6.691 -0.0981  0.3514  0.4269
  178SLPC   H4X20272   3.596   5.261   6.715  2.1334  0.4446 -1.1095
  178SLPC   H4Y20273   3.672   5.415   6.687  0.1797 -0.3068 -0.9447
  178SLPC   C3520274   3.508   5.344   6.556 -0.0727  0.4497  0.6586
  178SLPC   H5X20275   3.454   5.441   6.543 -1.8046  0.1712  4.5138
  178SLPC   H5Y20276   3.425   5.271   6.565  1.1152 -0.9038  1.0122
  178SLPC   C3620277   3.607   5.320   6.440 -0.5549 -0.5577  0.0275
  178SLPC   H6X20278   3.665   5.227   6.458 -0.2753 -0.1388  1.4024
  178SLPC   H6Y20279   3.674   5.410   6.441  0.5063 -1.2403 -2.2710
  178SLPC   C3720280   3.543   5.305   6.307 -0.0742 -0.2048 -0.3855
  178SLPC   H7X20281   3.476   5.389   6.280 -0.4047  0.1716  1.4691
  178SLPC   H7Y20282   3.483   5.212   6.321 -0.3354  0.1085  0.6658
  178SLPC   C3820283   3.641   5.262   6.194 -0.1791 -0.1680  0.2008
  178SLPC   H8X20284   3.703   5.176   6.228  1.1744  1.0593  0.9161
  178SLPC   H8Y20285   3.712   5.345   6.174  0.3653 -0.2616  1.6454
  178SLPC   C3920286   3.557   5.233   6.064 -0.9079  0.2994  0.0520
  178SLPC   H9X20287   3.479   5.311   6.046 -2.2119 -0.9786 -0.0055
  178SLPC   H9Y20288   3.504   5.136   6.063 -0.8420  0.2577  0.3992
  178SLPC  C31020289   3.661   5.225   5.946  0.2305  0.5865 -0.1803
  178SLPC  H10X20290   3.701   5.121   5.947  1.1707  0.9179 -1.0392
  178SLPC  H10Y20291   3.734   5.308   5.937 -1.1421  1.5925 -3.8101
  178SLPC  C31120292   3.583   5.218   5.817 -0.2880 -0.3014  1.0469
  178SLPC  H11X20293   3.531   5.315   5.804  2.6846  1.4973  1.4429
  178SLPC  H11Y20294   3.506   5.141   5.838  0.5397 -1.5932 -0.4479
  178SLPC  C31220295   3.663   5.200   5.684  0.7594  1.1057 -0.3762
  178SLPC  H12X20296   3.699   5.099   5.655 -3.7096 -0.5975 -0.7004
  178SLPC  H12Y20297   3.749   5.271   5.687  1.8372 -0.1450 -0.6281
  178SLPC  C31320298   3.584   5.246   5.560  0.6848 -0.0377 -0.5557
  178SLPC  H13X20299   3.544   5.348   5.578  1.5583 -0.0937  2.0930
  178SLPC  H13Y20300   3.502   5.175   5.536  3.7466 -3.3368 -2.4128
  178SLPC  C31420301   3.663   5.253   5.431  0.1230 -0.6031 -0.1435
  178SLPC  H14X20302   3.727   5.163   5.424 -1.6362 -1.8066 -1.6510
  178SLPC  H14Y20303   3.736   5.336   5.445 -1.1548  0.7162 -0.9496
  178SLPC  C31520304   3.582   5.257   5.301  0.1309  0.2283 -0.2374
  178SLPC  H15X20305   3.490   5.318   5.310 -0.1289 -0.4364  2.9534
  178SLPC  H15Y20306   3.554   5.152   5.276  1.7008 -0.6707  1.5141
  178SLPC  C31620307   3.674   5.289   5.184 -0.9584 -0.3223  0.3390
  178SLPC  H16X20308   3.766   5.227   5.189 -0.6770 -0.1370 -1.8084
  178SLPC  H16Y20309   3.708   5.395   5.190  0.7113 -0.8231  0.3824
  178SLPC  C31720310   3.613   5.263   5.043 -0.4579 -0.0761 -0.3263
  178SLPC  H17X20311   3.507   5.297   5.039 -0.6564 -0.7068 -0.6465
  178SLPC  H17Y20312   3.605   5.154   5.027  0.3831 -0.3215  0.7947
  178SLPC  C31820313   3.690   5.333   4.928 -0.0337  0.0142 -0.3892
  178SLPC  H18X20314   3.707   5.442   4.939 -0.9390  0.2017 -0.7502
  178SLPC  H18Y20315   3.637   5.325   4.831 -1.2718 -1.1527  0.3378
  178SLPC  H18Z20316   3.788   5.282   4.920  0.6466  1.4001 -1.0892
  179SLPC     N20317   3.030   6.510   2.441  0.0140 -0.3595  0.2224
  179SLPC   C1320318   3.146   6.414   2.469  0.3269  0.0727 -0.7864
  179SLPC  H13A20319   3.189   6.379   2.376  1.8937 -0.8534  0.2447
  179SLPC  H13B20320   3.222   6.456   2.532 -1.4501  0.9733  0.8780
  179SLPC  H13C20321   3.095   6.335   2.523  0.3649  0.8661  0.4480
  179SLPC   C1420322   2.952   6.444   2.332  1.2138  0.1560 -0.0040
  179SLPC  H14A20323   2.904   6.357   2.373  0.6496  1.6080  2.5827
  179SLPC  H14B20324   2.868   6.502   2.298  0.0900 -1.6402 -0.4061
  179SLPC  H14C20325   3.011   6.405   2.250 -0.0984 -2.3189  0.1239
  179SLPC   C1520326   3.094   6.641   2.401  0.2937 -0.2625  1.5145
  179SLPC  H15A20327   3.158   6.686   2.476  2.4325 -1.4230  0.4897
  179SLPC  H15B20328   3.150   6.627   2.309 -0.4788  0.6778  0.8818
  179SLPC  H15C20329   3.018   6.715   2.380  0.2837 -1.3271 -3.5009
  179SLPC   C1220330   2.942   6.530   2.557  0.4730  0.0086  0.4739
  179SLPC  H12A20331   3.012   6.568   2.629  1.1884  0.2274 -0.3253
  179SLPC  H12B20332   2.910   6.433   2.594 -0.7314  0.4888  0.7485
  179SLPC   C1120333   2.825   6.639   2.556 -0.2997  0.4411 -0.5864
  179SLPC  H11A20334   2.873   6.739   2.549  1.2107 -0.1939  0.0869
  179SLPC  H11B20335   2.780   6.624   2.657  0.7388 -1.9123 -0.4077
  179SLPC     P20336   2.617   6.710   2.421 -0.0056 -0.0223  0.2512
  179SLPC   O1320337   2.672   6.827   2.357 -0.5645 -0.6305  0.3780
  179SLPC   O1420338   2.513   6.643   2.343  0.0499  0.4109  0.2114
  179SLPC   O1220339   2.734   6.605   2.450  0.0994 -0.1441  0.5731
  179SLPC   O1120340   2.575   6.744   2.568 -0.1386  0.0236 -0.1260
  179SLPC    C120341   2.480   6.649   2.629  0.4544  0.2483 -0.4827
  179SLPC    HA20342   2.384   6.636   2.574 -0.8086 -1.9293  2.0456
  179SLPC    HB20343   2.535   6.554   2.644  1.7235  0.9905 -0.3083
  179SLPC    C220344   2.444   6.693   2.781 -0.1711 -0.4731  1.0254
  179SLPC    HS20345   2.385   6.611   2.827 -1.6265 -0.7718 -1.2113
  179SLPC   O2120346   2.374   6.818   2.774  1.0525  0.6038 -0.6387
  179SLPC   C2120347   2.233   6.809   2.757 -1.1194 -0.0411  0.0897
  179SLPC   O2220348   2.169   6.711   2.754  0.6578  0.1348 -0.3842
  179SLPC   C2220349   2.170   6.947   2.770 -0.2024 -0.2221  0.0406
  179SLPC   H2R20350   2.257   7.012   2.747 -1.1295  1.4090  1.0163
  179SLPC   H2S20351   2.099   6.958   2.685 -0.2366 -1.8259 -0.1834
  179SLPC    C320352   2.575   6.703   2.868 -0.3099  0.2414  1.0809
  179SLPC    HX20353   2.558   6.729   2.975  4.2633 -3.1860  2.9672
  179SLPC    HY20354   2.635   6.785   2.824  0.7270 -1.0673 -0.0390
  179SLPC   O3120355   2.655   6.574   2.875  0.4985 -0.1653 -0.8621
  179SLPC   C3120356   2.775   6.586   2.917  0.8898 -0.6563 -0.5461
  179SLPC   O3220357   2.819   6.696   2.956  0.0320  0.0901  0.6486
  179SLPC   C3220358   2.853   6.452   2.915 -0.2622  0.5380 -0.3017
  179SLPC   H2X20359   2.956   6.476   2.949  0.1161 -0.8948 -0.3900
  179SLPC   H2Y20360   2.875   6.420   2.811  0.6296  0.1338  0.0071
  179SLPC   C2320361   2.101   6.969   2.899  0.2462  0.0324  0.2955
  179SLPC   H3R20362   2.014   6.905   2.925 -1.4362  1.4640 -1.5995
  179SLPC   H3S20363   2.060   7.071   2.915  1.3103  0.2829  1.7146
  179SLPC   C2420364   2.203   6.959   3.014 -0.5260 -0.1613 -0.2094
  179SLPC   H4R20365   2.274   6.875   2.999 -0.2943 -1.2730  5.1865
  179SLPC   H4S20366   2.149   6.928   3.106  1.7580  0.2900  1.3869
  179SLPC   C2520367   2.288   7.085   3.047 -0.0193  0.3825 -0.2601
  179SLPC   H5R20368   2.290   7.164   2.969  1.9967  2.1803  1.4540
  179SLPC   H5S20369   2.391   7.049   3.070  0.1662  1.5241  0.8296
  179SLPC   C2620370   2.246   7.153   3.171  0.0068 -0.2539  0.1764
  179SLPC   H6R20371   2.298   7.249   3.193 -1.5307  1.2754 -2.3616
  179SLPC   H6S20372   2.257   7.090   3.262  0.9897 -1.2890 -0.6288
  179SLPC   C2720373   2.104   7.207   3.162 -0.2853 -0.8941 -0.2758
  179SLPC   H7R20374   2.036   7.133   3.115 -2.4591  0.4745  0.5609
  179SLPC   H7S20375   2.105   7.298   3.099  2.2568 -0.6815 -0.0492
  179SLPC   C2820376   2.027   7.259   3.287  0.2161  0.0392 -1.0665
  179SLPC   H8R20377   2.005   7.173   3.354 -1.1650  1.4802  0.4108
  179SLPC   H8S20378   1.927   7.285   3.245 -0.5381 -0.6137  0.2345
  179SLPC   C2920379   2.092   7.368   3.364 -0.4181 -0.7315  0.3251
  179SLPC   H9R20380   2.062   7.464   3.319 -1.0885 -0.6012  1.0412
  179SLPC  C21020381   2.195   7.362   3.452  0.6062  0.0773  0.0887
  179SLPC  H10R20382   2.255   7.452   3.473  0.9240  0.0276 -0.5703
  179SLPC  C21120383   2.251   7.246   3.524 -0.2057 -0.0551  0.2233
  179SLPC  H11R20384   2.361   7.252   3.540 -0.3173  1.6664  0.5836
  179SLPC  H11S20385   2.239   7.154   3.463  1.1176  0.6556 -1.2019
  179SLPC  C21220386   2.187   7.229   3.657  0.1599  0.2536 -0.4235
  179SLPC  H12R20387   2.090   7.280   3.666  0.8208  1.1492  2.8918
  179SLPC  C21320388   2.223   7.152   3.760 -0.4329  0.3609 -0.7598
  179SLPC  H13R20389   2.163   7.153   3.853 -1.5730 -0.6534 -1.4542
  179SLPC  C21420390   2.351   7.070   3.765 -0.2356  1.0905 -0.4469
  179SLPC  H14R20391   2.403   7.068   3.667 -0.6469 -1.4514 -0.6867
  179SLPC  H14S20392   2.326   6.967   3.797  1.1009  1.0534  0.5810
  179SLPC  C21520393   2.429   7.149   3.866  0.0554  0.2196 -0.1106
  179SLPC  H15R20394   2.526   7.099   3.887  0.1348  1.0971  1.8172
  179SLPC  H15S20395   2.382   7.139   3.966  0.3290  0.7088  0.0674
  179SLPC  C21620396   2.445   7.301   3.847 -0.3499  0.9239  0.6447
  179SLPC  H16R20397   2.350   7.359   3.846  0.8844  3.1566  2.4919
  179SLPC  H16S20398   2.488   7.315   3.745 -0.0771  1.1229  0.7855
  179SLPC  C21720399   2.542   7.361   3.954 -0.9419 -0.1756  0.1362
  179SLPC  H17R20400   2.648   7.333   3.935 -0.7167  0.7055  0.0248
  179SLPC  H17S20401   2.513   7.317   4.052 -4.0238 -0.9633 -1.0077
  179SLPC  C21820402   2.536   7.512   3.984  0.0723  0.5041  0.1323
  179SLPC  H18R20403   2.590   7.576   3.911  0.9145  0.9154  1.0858
  179SLPC  H18S20404   2.582   7.544   4.080 -1.9565  3.5875  0.2196
  179SLPC  H18T20405   2.439   7.565   3.968  0.5715  0.9026 -1.8860
  179SLPC   C3320406   2.791   6.345   3.008  0.1822 -0.0706  0.5843
  179SLPC   H3X20407   2.846   6.249   3.008 -2.1316 -1.5009 -0.2353
  179SLPC   H3Y20408   2.682   6.337   2.985  0.3065 -0.3588  0.0623
  179SLPC   C3420409   2.806   6.402   3.153 -0.0197  1.0440  0.5744
  179SLPC   H4X20410   2.750   6.497   3.169 -0.6860  0.9948 -1.2233
  179SLPC   H4Y20411   2.913   6.420   3.179 -0.0181 -1.0094  2.2110
  179SLPC   C3520412   2.767   6.293   3.252 -0.4905  0.5472 -0.6854
  179SLPC   H5X20413   2.668   6.247   3.228 -0.4862  2.1686 -4.6207
  179SLPC   H5Y20414   2.839   6.208   3.249 -0.3503  0.4231  2.5846
  179SLPC   C3620415   2.783   6.339   3.403  0.2984 -0.2264 -0.2271
  179SLPC   H6X20416   2.705   6.418   3.412  1.8597  1.6832 -2.3207
  179SLPC   H6Y20417   2.880   6.391   3.419  1.2457 -2.8420  4.5030
  179SLPC   C3720418   2.776   6.239   3.516 -1.0183  0.3200  0.3629
  179SLPC   H7X20419   2.855   6.165   3.492 -1.0718  0.1013  0.8394
  179SLPC   H7Y20420   2.675   6.194   3.525 -1.1918  0.8996  1.6030
  179SLPC   C3820421   2.806   6.294   3.661  0.4451 -0.0839  0.2343
  179SLPC   H8X20422   2.738   6.376   3.692 -1.5799 -1.7825  0.5031
  179SLPC   H8Y20423   2.913   6.324   3.668  0.5206 -0.1003 -0.7095
  179SLPC   C3920424   2.795   6.184   3.773 -0.3523  0.1068  0.1145
  179SLPC   H9X20425   2.867   6.101   3.758  0.1521  0.5743 -0.1078
  179SLPC   H9Y20426   2.693   6.142   3.769 -0.8057  1.2140 -0.1797
  179SLPC  C31020427   2.818   6.245   3.909  0.6951  0.1508  0.4270
  179SLPC  H10X20428   2.739   6.322   3.923  0.6699  0.0725  0.7328
  179SLPC  H10Y20429   2.909   6.308   3.909 -0.2557  1.6129  1.9109
  179SLPC  C31120430   2.824   6.137   4.014  0.1824  0.3526 -0.2877
  179SLPC  H11X20431   2.892   6.052   3.992 -0.0767  0.5160 -1.8056
  179SLPC  H11Y20432   2.729   6.080   4.019  1.5780 -2.2985 -1.8097
  179SLPC  C31220433   2.850   6.188   4.151  0.5607 -0.1644 -0.5193
  179SLPC  H12X20434   2.774   6.263   4.181 -0.8799 -1.4469 -0.7583
  179SLPC  H12Y20435   2.949   6.238   4.157  0.0807  0.6899  0.4414
  179SLPC  C31320436   2.849   6.080   4.259 -0.5072  0.6608 -0.1747
  179SLPC  H13X20437   2.896   5.987   4.220 -1.2751 -0.0541  0.5914
  179SLPC  H13Y20438   2.744   6.061   4.288 -0.2145  0.5148  0.8201
  179SLPC  C31420439   2.922   6.127   4.384 -0.5110 -0.1557 -0.2780
  179SLPC  H14X20440   3.006   6.196   4.361 -1.6916  1.5354  0.3213
  179SLPC  H14Y20441   2.969   6.046   4.444 -1.5187 -1.8837 -1.7412
  179SLPC  C31520442   2.829   6.223   4.465 -0.3891  0.5306 -0.1520
  179SLPC  H15X20443   2.733   6.175   4.493 -0.6270  1.6170  0.9760
  179SLPC  H15Y20444   2.810   6.303   4.390  2.2550  0.3677 -1.1065
  179SLPC  C31620445   2.893   6.266   4.598  0.1277 -0.0682  0.3246
  179SLPC  H16X20446   2.838   6.354   4.638 -1.2680 -0.3021 -0.9895
  179SLPC  H16Y20447   2.999   6.292   4.575 -0.0716  2.0053  1.4888
  179SLPC  C31720448   2.888   6.165   4.714  1.1344  0.4910 -0.1435
  179SLPC  H17X20449   2.917   6.063   4.684  3.4848  1.1714 -0.3976
  179SLPC  H17Y20450   2.782   6.163   4.747  1.8589 -0.1783  2.3774
  179SLPC  C31820451   2.968   6.210   4.835  0.2924  0.4964 -0.5395
  179SLPC  H18X20452   2.920   6.297   4.885 -0.3443 -0.7413  1.0822
  179SLPC  H18Y20453   3.073   6.242   4.817  1.9928 -2.2930  3.0675
  179SLPC  H18Z20454   2.976   6.125   4.906 -2.0354  0.2435 -0.5236
  180SLPC     N20455   0.710   4.360   2.240  0.5968  0.0079 -0.1385
  180SLPC   C1320456   0.656   4.243   2.182  0.3395  0.0777  0.2865
  180SLPC  H13A20457   0.610   4.267   2.088  0.5040  2.5538  0.7664
  180SLPC  H13B20458   0.736   4.174   2.163  0.8495  0.8018 -0.2817
  180SLPC  H13C20459   0.589   4.196   2.253  1.6232  1.4429  2.5329
  180SLPC   C1420460   0.604   4.465   2.246 -0.5234  0.0984  0.5305
  180SLPC  H14A20461   0.529   4.435   2.318  0.6026 -0.3792  1.5599
  180SLPC  H14B20462   0.645   4.560   2.275 -1.5878  1.0662 -1.0307
  180SLPC  H14C20463   0.562   4.490   2.151 -0.8193  0.5979  0.7942
  180SLPC   C1520464   0.829   4.412   2.168 -0.4966 -0.2165  0.4363
  180SLPC  H15A20465   0.866   4.504   2.212  0.5789 -0.4032 -0.0475
  180SLPC  H15B20466   0.910   4.342   2.152 -0.3096  0.3918 -1.3770
  180SLPC  H15C20467   0.810   4.440   2.066  0.5854  2.0980  0.8233
  180SLPC   C1220468   0.758   4.330   2.381  0.1970  0.3409  0.3545
  180SLPC  H12A20469   0.677   4.286   2.436  1.0766 -2.0487 -0.1569
  180SLPC  H12B20470   0.776   4.425   2.430 -1.3135  1.0445 -0.3742
  180SLPC   C1120471   0.873   4.238   2.398 -0.3058  0.0774 -0.2583
  180SLPC  H11A20472   0.857   4.152   2.328 -1.3157  0.0188  0.0273
  180SLPC  H11B20473   0.872   4.182   2.494  2.4045 -1.6300 -1.1178
  180SLPC     P20474   1.055   4.400   2.489  0.0332  0.0340  0.0470
  180SLPC   O1320475   1.202   4.416   2.458 -0.2397 -0.3696 -0.4296
  180SLPC   O1420476   0.975   4.524   2.490 -0.0287  0.3479 -0.3514
  180SLPC   O1220477   1.001   4.303   2.376 -0.2280 -0.3364  0.3610
  180SLPC   O1120478   1.041   4.320   2.623  0.0461  0.4659 -0.0515
  180SLPC    C120479   1.119   4.208   2.655 -0.4544 -0.9537  0.6083
  180SLPC    HA20480   1.114   4.136   2.570  1.3713  0.6837 -0.9810
  180SLPC    HB20481   1.226   4.239   2.665 -0.7903  1.9761 -2.8421
  180SLPC    C220482   1.076   4.138   2.786 -0.6718  0.2523  0.0773
  180SLPC    HS20483   0.965   4.130   2.787 -0.8657  2.3693  0.3062
  180SLPC   O2120484   1.128   4.216   2.900  0.2811  0.5110 -0.0199
  180SLPC   C2120485   1.043   4.219   3.003  0.1215  0.4733  0.2992
  180SLPC   O2220486   0.929   4.181   3.002 -0.4963  0.9581 -0.0857
  180SLPC   C2220487   1.105   4.282   3.124  0.3741 -0.3434 -0.6387
  180SLPC   H2R20488   1.212   4.302   3.101  0.5720  3.0034  2.3695
  180SLPC   H2S20489   1.064   4.383   3.140  1.0395 -0.1095 -0.3848
  180SLPC    C320490   1.134   3.994   2.774  0.1666  0.2174  0.0817
  180SLPC    HX20491   1.245   4.004   2.767  0.4344  0.7316  3.4643
  180SLPC    HY20492   1.090   3.942   2.687 -1.2031  0.0659  0.8384
  180SLPC   O3120493   1.100   3.925   2.897  0.4193  0.5495 -0.3982
  180SLPC   C3120494   1.003   3.824   2.899 -0.5830 -0.2792  0.2124
  180SLPC   O3220495   0.928   3.809   2.807 -0.5139  0.0712  0.2522
  180SLPC   C3220496   1.001   3.739   3.022 -0.7594 -0.3111  0.4333
  180SLPC   H2X20497   1.098   3.687   3.033  0.9393  2.6401  0.4756
  180SLPC   H2Y20498   0.925   3.658   3.015  1.4761 -2.4175 -1.2252
  180SLPC   C2320499   1.080   4.203   3.253 -0.2386  0.3192  0.3923
  180SLPC   H3R20500   1.136   4.107   3.253 -0.6006  0.1062 -0.2837
  180SLPC   H3S20501   0.973   4.178   3.270 -0.0090 -0.5071  0.6796
  180SLPC   C2420502   1.118   4.297   3.362  0.4362  0.0357 -0.1888
  180SLPC   H4R20503   1.062   4.391   3.347 -2.5211 -1.5096  0.4910
  180SLPC   H4S20504   1.224   4.331   3.364 -0.0960  1.7546  1.6340
  180SLPC   C2520505   1.078   4.236   3.498  0.2436  0.1070  0.3674
  180SLPC   H5R20506   1.109   4.129   3.507  1.2863  0.5168  1.9789
  180SLPC   H5S20507   0.967   4.240   3.507  0.1924  1.0948 -0.5330
  180SLPC   C2620508   1.142   4.309   3.614  0.6962 -0.8906  0.2083
  180SLPC   H6R20509   1.148   4.420   3.606 -0.1932 -0.7422  1.4226
  180SLPC   H6S20510   1.248   4.281   3.630  0.6524 -0.4800  1.2664
  180SLPC   C2720511   1.080   4.279   3.751 -0.0062 -0.0412 -0.4689
  180SLPC   H7R20512   1.088   4.176   3.790 -0.7552  1.2830  3.7572
  180SLPC   H7S20513   0.970   4.295   3.753 -0.1753 -1.1813 -0.0912
  180SLPC   C2820514   1.147   4.361   3.856 -0.1401 -0.7192  0.0613
  180SLPC   H8R20515   1.153   4.468   3.829 -0.7535  0.4521  3.9045
  180SLPC   H8S20516   1.253   4.327   3.860 -0.3061 -1.6528 -2.1594
  180SLPC   C2920517   1.075   4.342   3.990 -0.2003  0.0500 -0.3482
  180SLPC   H9R20518   0.968   4.319   3.976  0.0444 -0.9974 -0.5202
  180SLPC  C21020519   1.126   4.358   4.107 -0.1266 -0.4642  0.2758
  180SLPC  H10R20520   1.070   4.334   4.199 -0.9495  2.0664  0.5136
  180SLPC  C21120521   1.273   4.391   4.134 -0.4116 -0.0587  0.2571
  180SLPC  H11R20522   1.273   4.459   4.223 -0.8837 -0.1191  0.3048
  180SLPC  H11S20523   1.323   4.448   4.053 -1.0886  0.1456 -0.0259
  180SLPC  C21220524   1.349   4.264   4.149 -0.6523  0.2816  0.3183
  180SLPC  H12R20525   1.304   4.167   4.127  2.0766 -1.0108  0.1199
  180SLPC  C21320526   1.476   4.267   4.179 -0.0036  0.7394  0.1853
  180SLPC  H13R20527   1.516   4.165   4.192  0.1043  0.4581 -1.9918
  180SLPC  C21420528   1.558   4.387   4.218 -0.1001 -0.2165 -0.1861
  180SLPC  H14R20529   1.494   4.467   4.262  2.2006  0.9616  1.2694
  180SLPC  H14S20530   1.614   4.424   4.130  1.4702 -1.4693  0.2430
  180SLPC  C21520531   1.660   4.344   4.329  0.0457  0.2805  0.3301
  180SLPC  H15R20532   1.712   4.250   4.300 -1.4717 -0.6400  0.4905
  180SLPC  H15S20533   1.598   4.328   4.420 -1.4752  0.1297 -0.7025
  180SLPC  C21620534   1.748   4.469   4.365  0.0746 -0.2285  0.3051
  180SLPC  H16R20535   1.683   4.546   4.410  1.0440  0.5877  0.3435
  180SLPC  H16S20536   1.801   4.501   4.273 -2.8245  1.3888 -0.9381
  180SLPC  C21720537   1.847   4.430   4.477 -0.1317 -0.6319 -0.4851
  180SLPC  H17R20538   1.798   4.377   4.562 -1.7997 -0.2958 -1.1914
  180SLPC  H17S20539   1.878   4.528   4.520 -0.2746 -1.3054  1.2375
  180SLPC  C21820540   1.973   4.363   4.428  0.7882 -0.0340  0.2906
  180SLPC  H18R20541   2.022   4.426   4.351  0.5713  0.7823  0.8108
  180SLPC  H18S20542   1.954   4.271   4.368  1.6208 -1.1788  1.7470
  180SLPC  H18T20543   2.040   4.337   4.512 -0.0826 -1.0953  0.6940
  180SLPC   C3320544   0.995   3.827   3.142  0.5674 -0.5135 -0.3932
  180SLPC   H3X20545   0.914   3.902   3.136  1.8993  0.9638 -0.7600
  180SLPC   H3Y20546   1.082   3.896   3.142  0.7204 -0.5836  2.3396
  180SLPC   C3420547   0.987   3.746   3.273  0.2263  0.4209 -0.1218
  180SLPC   H4X20548   1.081   3.691   3.297  0.1284 -0.8338 -2.3363
  180SLPC   H4Y20549   0.905   3.672   3.261 -1.0395  1.8552 -0.5484
  180SLPC   C3520550   0.961   3.833   3.399  0.0585  0.4868 -0.0991
  180SLPC   H5X20551   0.853   3.856   3.416  0.0729 -0.6708  1.9054
  180SLPC   H5Y20552   1.017   3.929   3.392 -0.5337  0.7011 -3.4185
  180SLPC   C3620553   1.008   3.766   3.529  0.1869  0.6652 -0.3216
  180SLPC   H6X20554   1.109   3.728   3.500 -0.8056 -0.1976 -2.9261
  180SLPC   H6Y20555   0.950   3.674   3.551  0.1660  0.1970 -2.1820
  180SLPC   C3720556   1.007   3.863   3.648  0.0970 -0.1288  0.2458
  180SLPC   H7X20557   0.909   3.914   3.642  0.4438  0.8799  2.3116
  180SLPC   H7Y20558   1.084   3.942   3.634 -0.7084  0.0758 -5.2007
  180SLPC   C3820559   1.011   3.797   3.787 -0.1087 -0.7881 -0.1724
  180SLPC   H8X20560   1.115   3.759   3.803 -0.4258 -1.5789  0.0802
  180SLPC   H8Y20561   0.943   3.709   3.796 -0.7152 -0.1818  1.5907
  180SLPC   C3920562   0.966   3.903   3.895 -0.4692 -0.0270  0.9869
  180SLPC   H9X20563   0.856   3.919   3.901 -0.5883 -0.1059 -0.5660
  180SLPC   H9Y20564   1.012   3.999   3.864  1.0779 -1.5098 -1.6378
  180SLPC  C31020565   1.018   3.862   4.029  0.3178  0.2818 -0.1009
  180SLPC  H10X20566   1.124   3.828   4.033 -0.0213 -0.7792  0.0282
  180SLPC  H10Y20567   0.957   3.775   4.060 -1.2911  1.5410  0.4352
  180SLPC  C31120568   1.003   3.979   4.131 -0.3821 -0.4687 -0.1583
  180SLPC  H11X20569   0.893   3.984   4.138 -0.4759 -3.2797  1.9935
  180SLPC  H11Y20570   1.022   4.078   4.083 -2.9839 -0.4208 -1.2223
  180SLPC  C31220571   1.048   3.949   4.274 -0.2240 -0.7762  0.3452
  180SLPC  H12X20572   1.159   3.950   4.277 -0.2529 -1.0007  1.8415
  180SLPC  H12Y20573   1.004   3.852   4.307 -0.5753 -0.1055  1.9303
  180SLPC  C31320574   1.003   4.068   4.358  0.1246 -0.8791 -0.2307
  180SLPC  H13X20575   0.901   4.109   4.346 -0.3403 -2.4617 -2.5664
  180SLPC  H13Y20576   1.067   4.156   4.339 -4.6416  2.9798 -0.3335
  180SLPC  C31420577   1.003   4.037   4.512  0.0907  0.5545  0.4626
  180SLPC  H14X20578   1.107   4.006   4.535 -0.5207 -0.6668  1.8014
  180SLPC  H14Y20579   0.940   3.947   4.528 -0.6646  1.1553  0.9231
  180SLPC  C31520580   0.948   4.145   4.604 -0.0412  0.0882 -0.8697
  180SLPC  H15X20581   1.029   4.219   4.585 -1.3105  2.6822  2.7053
  180SLPC  H15Y20582   0.958   4.112   4.710 -0.7766  2.4955  0.0081
  180SLPC  C31620583   0.816   4.207   4.567 -0.2819  0.6113  0.9389
  180SLPC  H16X20584   0.818   4.252   4.465  0.7831  1.9881  1.5303
  180SLPC  H16Y20585   0.806   4.289   4.642 -0.1077  1.9284 -0.4235
  180SLPC  C31720586   0.694   4.112   4.577 -0.0344  0.7960  0.0824
  180SLPC  H17X20587   0.685   4.047   4.487  1.0312  1.0416 -0.2243
  180SLPC  H17Y20588   0.603   4.174   4.567  0.2825  0.9532 -2.7333
  180SLPC  C31820589   0.685   4.027   4.708 -0.0025 -0.4837  0.2343
  180SLPC  H18X20590   0.593   3.965   4.711  0.5538 -1.3702 -0.5665
  180SLPC  H18Y20591   0.693   4.102   4.790 -0.0699  1.3234 -1.3321
  180SLPC  H18Z20592   0.773   3.960   4.711 -1.5571 -2.6764 -0.3192
  181SLPC     N20593   0.895   5.672   2.756  0.3054  0.2446 -0.1704
  181SLPC   C1320594   0.814   5.581   2.848  0.0514 -0.2188  0.5878
  181SLPC  H13A20595   0.711   5.605   2.829 -0.1785  0.2633  2.2892
  181SLPC  H13B20596   0.823   5.476   2.826 -0.9037 -0.0216 -0.8057
  181SLPC  H13C20597   0.833   5.601   2.953 -0.1946 -0.6341  0.7116
  181SLPC   C1420598   0.876   5.630   2.612  0.1646  0.5256  0.7655
  181SLPC  H14A20599   0.771   5.651   2.592  0.0412 -1.3504 -0.7319
  181SLPC  H14B20600   0.945   5.678   2.544  1.1815  0.7583  1.9301
  181SLPC  H14C20601   0.869   5.523   2.610 -2.9971  0.6420 -0.6854
  181SLPC   C1520602   1.037   5.672   2.788 -0.9645  0.8687  0.0836
  181SLPC  H15A20603   1.082   5.579   2.755 -1.0495  2.1933 -4.4850
  181SLPC  H15B20604   1.081   5.752   2.730  0.3952 -0.4318 -0.7551
  181SLPC  H15C20605   1.061   5.684   2.892  0.3437  2.0199 -0.3168
  181SLPC   C1220606   0.852   5.818   2.784  0.1746 -0.4262  0.0844
  181SLPC  H12A20607   0.914   5.886   2.727  0.4777  0.0736  0.9813
  181SLPC  H12B20608   0.877   5.838   2.888 -1.3871 -2.5372  0.9285
  181SLPC   C1120609   0.704   5.847   2.761  0.0041  0.0555 -0.0445
  181SLPC  H11A20610   0.693   5.957   2.771 -1.3136 -0.1876  1.7440
  181SLPC  H11B20611   0.643   5.798   2.840 -1.5776  3.9998  1.4464
  181SLPC     P20612   0.517   5.769   2.593  0.4245 -0.4518  0.0536
  181SLPC   O1320613   0.439   5.889   2.545 -0.1740  0.0056 -0.6377
  181SLPC   O1420614   0.525   5.651   2.508  0.7321  0.8138  0.4088
  181SLPC   O1220615   0.662   5.827   2.623 -0.1675  0.2472 -0.2613
  181SLPC   O1120616   0.452   5.720   2.734  0.3098 -0.2741 -0.2590
  181SLPC    C120617   0.310   5.751   2.762 -0.3833  0.4312 -0.7341
  181SLPC    HA20618   0.246   5.727   2.674 -0.0804  0.0886 -0.8680
  181SLPC    HB20619   0.284   5.690   2.851  1.6918 -0.4950 -0.6902
  181SLPC    C220620   0.283   5.899   2.812  0.1797 -0.2220  0.0307
  181SLPC    HS20621   0.282   5.964   2.722  0.5405  0.6562  0.6543
  181SLPC   O2120622   0.391   5.936   2.893 -0.4510  0.3478  0.2527
  181SLPC   C2120623   0.409   6.066   2.926  0.9301  0.0457  0.8348
  181SLPC   O2220624   0.329   6.152   2.880  0.3895 -0.1147  0.7656
  181SLPC   C2220625   0.535   6.100   2.996 -0.0466  0.0640  0.7135
  181SLPC   H2R20626   0.606   6.140   2.921 -0.2041  0.0666  0.5629
  181SLPC   H2S20627   0.513   6.183   3.066  0.8035  0.0712  0.9777
  181SLPC    C320628   0.142   5.916   2.863  0.2215 -0.6537 -0.3641
  181SLPC    HX20629   0.070   5.897   2.781  1.2555  1.0828 -1.7596
  181SLPC    HY20630   0.128   6.023   2.889 -1.2342 -0.8996 -0.0563
  181SLPC   O3120631   0.113   5.823   2.964  1.0559 -0.0868 -0.3953
  181SLPC   C3120632   0.116   5.873   3.089  0.1061 -0.5479  0.3051
  181SLPC   O3220633   0.127   5.989   3.117 -1.2579  0.5330 -0.4633
  181SLPC   C3220634   0.094   5.757   3.191  0.2736 -0.6632 -0.2441
  181SLPC   H2X20635   0.159   5.672   3.163  1.5286  0.4814 -0.9455
  181SLPC   H2Y20636  -0.010   5.721   3.181  0.5441 -1.3157 -0.7803
  181SLPC   C2320637   0.588   5.984   3.074 -0.1130 -0.0244 -0.2648
  181SLPC   H3R20638   0.697   5.994   3.093  0.0398 -1.4136 -0.3149
  181SLPC   H3S20639   0.584   5.887   3.019  2.3734  0.7881 -2.0395
  181SLPC   C2420640   0.519   5.972   3.212  0.0326  0.1467  0.0016
  181SLPC   H4R20641   0.408   5.976   3.207 -0.3194 -3.8568  1.0357
  181SLPC   H4S20642   0.562   6.050   3.278 -0.4569  2.1224 -1.8916
  181SLPC   C2520643   0.544   5.834   3.287  0.8580  0.2800  0.8353
  181SLPC   H5R20644   0.653   5.814   3.296  0.8721 -0.5996 -0.7741
  181SLPC   H5S20645   0.520   5.749   3.220  4.9596  1.3364 -2.4335
  181SLPC   C2620646   0.486   5.832   3.423 -0.0137 -0.6271  0.6972
  181SLPC   H6R20647   0.398   5.764   3.422 -0.2493 -0.3331  1.0912
  181SLPC   H6S20648   0.449   5.933   3.452 -0.7157 -0.9951  1.0876
  181SLPC   C2720649   0.581   5.788   3.536  0.2253 -0.4135 -0.0080
  181SLPC   H7R20650   0.616   5.684   3.517  2.5220  0.1941  0.5750
  181SLPC   H7S20651   0.524   5.787   3.630  0.5826  1.8508  0.3022
  181SLPC   C2820652   0.709   5.869   3.569  0.0940  0.0983  0.2315
  181SLPC   H8R20653   0.759   5.897   3.474 -0.5102 -1.3532 -0.5380
  181SLPC   H8S20654   0.782   5.804   3.621  0.1425 -0.0659 -0.0420
  181SLPC   C2920655   0.680   5.994   3.652  0.0666 -0.5724  0.8884
  181SLPC   H9R20656   0.629   6.073   3.595  2.2505  0.2383 -0.0561
  181SLPC  C21020657   0.702   6.009   3.787  0.4020 -0.1787  0.4354
  181SLPC  H10R20658   0.684   6.106   3.835  0.7250  0.1166 -0.0324
  181SLPC  C21120659   0.760   5.906   3.874 -0.2932  0.3027  0.1811
  181SLPC  H11R20660   0.729   5.812   3.825  0.4857  1.0696 -1.9168
  181SLPC  H11S20661   0.712   5.908   3.974 -3.0329 -0.6902 -1.0175
  181SLPC  C21220662   0.912   5.915   3.886 -0.0799 -0.4019 -0.8718
  181SLPC  H12R20663   0.969   5.907   3.793  1.4807  0.5884 -0.0524
  181SLPC  C21320664   0.981   5.964   3.994 -0.1153  1.2192 -0.2031
  181SLPC  H13R20665   1.091   5.976   3.989  0.1174 -0.4235  0.4744
  181SLPC  C21420666   0.924   5.992   4.132 -0.3393  0.7548  0.6860
  181SLPC  H14R20667   0.814   5.979   4.139 -0.3436 -1.4056 -1.7536
  181SLPC  H14S20668   0.952   6.093   4.167  1.3082 -0.0306  1.7892
  181SLPC  C21520669   0.974   5.889   4.238 -0.5083 -0.3801 -0.2133
  181SLPC  H15R20670   1.085   5.885   4.242 -0.5143  0.4466  2.7106
  181SLPC  H15S20671   0.926   5.790   4.224  1.7406 -1.4340 -0.9517
  181SLPC  C21620672   0.939   5.927   4.381  0.0294 -0.4160 -0.3166
  181SLPC  H16R20673   0.829   5.945   4.388 -0.0273  0.8131 -3.0519
  181SLPC  H16S20674   1.006   6.009   4.414  0.8647 -1.5577  0.9479
  181SLPC  C21720675   0.976   5.822   4.478 -0.6619  0.2130 -0.0016
  181SLPC  H17R20676   1.081   5.789   4.469  0.1432  1.7038  2.8102
  181SLPC  H17S20677   0.928   5.725   4.451  1.1760 -1.3633  2.0320
  181SLPC  C21820678   0.945   5.854   4.630  0.5171 -0.3175  0.1512
  181SLPC  H18R20679   0.835   5.864   4.643  0.4497  0.1350 -0.7539
  181SLPC  H18S20680   0.989   5.952   4.661  1.7845 -0.9578  0.4810
  181SLPC  H18T20681   0.975   5.767   4.693 -0.7467 -1.8169 -1.2240
  181SLPC   C3320682   0.107   5.804   3.332 -0.5389 -0.1997  0.1136
  181SLPC   H3X20683   0.026   5.879   3.345  1.1306  1.5213  1.0535
  181SLPC   H3Y20684   0.199   5.862   3.355 -0.2922 -0.9803  1.1696
  181SLPC   C3420685   0.092   5.694   3.437 -0.1916  0.5027  0.6769
  181SLPC   H4X20686   0.167   5.614   3.418 -1.0312 -0.1059 -0.2543
  181SLPC   H4Y20687  -0.003   5.644   3.405  0.4528 -0.7584  0.6599
  181SLPC   C3520688   0.094   5.737   3.581 -0.5351 -0.4496  0.3296
  181SLPC   H5X20689   0.019   5.812   3.616  0.1940  0.3718  0.1651
  181SLPC   H5Y20690   0.186   5.799   3.589 -0.8536  0.6361 -2.8025
  181SLPC   C3620691   0.103   5.628   3.679 -0.5992 -0.5909 -0.9121
  181SLPC   H6X20692   0.160   5.539   3.644 -1.4156 -0.8990 -1.5021
  181SLPC   H6Y20693   0.003   5.586   3.702 -0.3243 -0.2308  1.1761
  181SLPC   C3720694   0.139   5.682   3.818 -0.4392  0.0613  0.3140
  181SLPC   H7X20695   0.066   5.759   3.850 -0.3964  0.3156 -0.1910
  181SLPC   H7Y20696   0.239   5.727   3.799  0.1824 -0.9285  1.0937
  181SLPC   C3820697   0.140   5.590   3.938  0.3789 -0.3265 -0.8715
  181SLPC   H8X20698   0.195   5.495   3.920  0.9168 -0.7138  2.3212
  181SLPC   H8Y20699   0.039   5.548   3.956 -0.6444  0.4995 -4.0092
  181SLPC   C3920700   0.180   5.653   4.073  0.3106  0.2489 -0.4001
  181SLPC   H9X20701   0.135   5.754   4.085 -0.4186 -0.1496  0.3069
  181SLPC   H9Y20702   0.285   5.687   4.063  0.1831  0.8503  0.2075
  181SLPC  C31020703   0.154   5.574   4.200  0.8086  0.4508  0.1578
  181SLPC  H10X20704   0.200   5.473   4.197  1.9471  0.7268  3.7005
  181SLPC  H10Y20705   0.045   5.557   4.208  0.8014 -1.5009 -2.5350
  181SLPC  C31120706   0.204   5.636   4.327 -0.9969  0.2085 -0.0726
  181SLPC  H11X20707   0.161   5.735   4.352  2.0591  1.2795  1.4600
  181SLPC  H11Y20708   0.315   5.643   4.336 -1.2290  1.2407  2.6669
  181SLPC  C31220709   0.154   5.545   4.440 -0.3022 -0.9094  0.3377
  181SLPC  H12X20710   0.213   5.452   4.425  2.2295  0.5907  0.2609
  181SLPC  H12Y20711   0.046   5.525   4.422 -0.0018 -0.6276 -2.1472
  181SLPC  C31320712   0.184   5.615   4.576  0.6954  0.1161  0.1023
  181SLPC  H13X20713   0.120   5.705   4.574  0.1932 -0.2474 -0.8411
  181SLPC  H13Y20714   0.290   5.647   4.569  0.7378 -0.1210 -0.3873
  181SLPC  C31420715   0.150   5.524   4.691 -0.1566 -0.4956 -0.3859
  181SLPC  H14X20716   0.200   5.573   4.778 -1.6943  1.4198 -0.5265
  181SLPC  H14Y20717   0.185   5.421   4.669 -1.9535 -1.6053  1.5956
  181SLPC  C31520718  -0.003   5.529   4.719 -0.0381  0.7326 -0.2497
  181SLPC  H15X20719  -0.054   5.482   4.633  0.8533 -0.6167 -0.0634
  181SLPC  H15Y20720  -0.043   5.625   4.759  0.2144  0.3257  1.0277
  181SLPC  C31620721  -0.044   5.426   4.834  0.3601 -0.3486  0.0851
  181SLPC  H16X20722   0.006   5.463   4.925 -1.3083 -0.6877  1.1738
  181SLPC  H16Y20723  -0.004   5.324   4.816  0.2259 -0.1978 -1.1671
  181SLPC  C31720724  -0.197   5.430   4.851  0.3967  0.0432 -0.7868
  181SLPC  H17X20725  -0.240   5.385   4.759  0.4559 -2.7845  0.4532
  181SLPC  H17Y20726  -0.232   5.534   4.866  2.2112  0.4562  1.2060
  181SLPC  C31820727  -0.238   5.343   4.971  0.2472 -0.0087 -0.1575
  181SLPC  H18X20728  -0.348   5.324   4.967 -0.2544  2.4490  0.0564
  181SLPC  H18Y20729  -0.213   5.390   5.069  0.6657  1.1276 -0.7866
  181SLPC  H18Z20730  -0.185   5.247   4.985 -0.4402 -0.3462  0.1639
  182SLPC     N20731   4.555   3.981   2.379  0.3512  0.1876  0.0970
  182SLPC   C1320732   4.452   4.084   2.370  0.3821  0.0999  0.3100
  182SLPC  H13A20733   4.445   4.141   2.461  2.1563  2.1442 -0.7519
  182SLPC  H13B20734   4.485   4.150   2.291  1.7394 -1.3126 -0.3680
  182SLPC  H13C20735   4.363   4.031   2.342 -0.0174  1.8464 -1.9195
  182SLPC   C1420736   4.584   3.916   2.249  0.3545 -0.0418  0.2574
  182SLPC  H14A20737   4.488   3.888   2.208  0.4701  1.2294 -0.9820
  182SLPC  H14B20738   4.624   3.982   2.173  0.8036  1.4357  1.7030
  182SLPC  H14C20739   4.633   3.823   2.270 -2.0409 -1.6197 -0.7529
  182SLPC   C1520740   4.501   3.874   2.473 -0.4295 -0.1072  0.9520
  182SLPC  H15A20741   4.575   3.795   2.484  3.0429  2.7850  0.4407
  182SLPC  H15B20742   4.467   3.919   2.565 -1.9787 -1.4373  1.0842
  182SLPC  H15C20743   4.411   3.828   2.436  0.0559  0.2154 -0.7522
  182SLPC   C1220744   4.687   4.032   2.431 -0.2831 -0.1551  0.5266
  182SLPC  H12A20745   4.733   3.938   2.458 -2.8813 -1.7403 -0.2021
  182SLPC  H12B20746   4.667   4.095   2.516  2.2901  0.6668  0.6111
  182SLPC   C1120747   4.780   4.120   2.341 -0.8926  0.8895  0.0870
  182SLPC  H11A20748   4.800   4.059   2.250 -2.2077 -2.8497  2.1145
  182SLPC  H11B20749   4.877   4.138   2.393 -0.6957 -0.8968  0.4222
  182SLPC     P20750   4.691   4.360   2.397  0.2264 -0.0142 -0.0181
  182SLPC   O1320751   4.816   4.447   2.398 -0.8583  0.8522  0.1064
  182SLPC   O1420752   4.564   4.432   2.372 -0.1704  0.1349  0.1290
  182SLPC   O1220753   4.715   4.238   2.295  0.3001 -0.1402 -0.0387
  182SLPC   O1120754   4.667   4.276   2.530 -0.7607 -0.1238 -0.1848
  182SLPC    C120755   4.673   4.332   2.657  0.4621  0.3828 -0.2409
  182SLPC    HA20756   4.652   4.441   2.655 -1.4293  0.0423 -1.2047
  182SLPC    HB20757   4.591   4.298   2.724  1.0066  1.5168  1.0431
  182SLPC    C220758   4.808   4.287   2.723  0.2715 -0.0512 -0.1490
  182SLPC    HS20759   4.889   4.337   2.666  1.2546  1.9599  2.7554
  182SLPC   O2120760   4.827   4.146   2.695 -0.2329 -0.0040 -0.0898
  182SLPC   C2120761   4.953   4.105   2.719 -1.1103 -0.1405  0.1788
  182SLPC   O2220762   5.044   4.185   2.751 -0.2709 -0.0389  0.3269
  182SLPC   C2220763   4.966   3.956   2.709  0.1169 -0.3288 -0.7094
  182SLPC   H2R20764   4.861   3.919   2.701 -0.4096  0.8102  0.4517
  182SLPC   H2S20765   5.018   3.930   2.615 -1.2141 -0.5919 -1.4068
  182SLPC    C320766   4.814   4.332   2.868 -0.0717 -0.0487  0.7015
  182SLPC    HX20767   4.767   4.433   2.875  1.4220  0.6718  0.7608
  182SLPC    HY20768   4.919   4.349   2.901 -0.5163  0.9610  1.6424
  182SLPC   O3120769   4.744   4.240   2.949 -0.2452 -0.1218 -0.5977
  182SLPC   C3120770   4.738   4.253   3.079 -0.8306  0.2868 -0.3441
  182SLPC   O3220771   4.799   4.340   3.141  0.2125  0.3703  0.3349
  182SLPC   C3220772   4.663   4.137   3.142 -0.4876  0.5463 -0.4261
  182SLPC   H2X20773   4.597   4.103   3.060 -0.0311  0.8921 -0.9462
  182SLPC   H2Y20774   4.599   4.179   3.222  0.9303 -0.2007  1.1605
  182SLPC   C2320775   5.049   3.890   2.822 -0.0364 -1.0422 -0.0073
  182SLPC   H3R20776   5.057   3.949   2.916 -0.9910 -1.7189  0.5196
  182SLPC   H3S20777   5.155   3.881   2.793  0.3553 -1.6824  1.5413
  182SLPC   C2420778   5.009   3.749   2.864  0.1342  0.0397  0.0287
  182SLPC   H4R20779   4.997   3.686   2.773 -4.2022  2.1590 -1.1188
  182SLPC   H4S20780   4.906   3.758   2.905 -0.2717  0.3666 -1.0172
  182SLPC   C2520781   5.109   3.684   2.966  0.4328  0.5468 -0.7582
  182SLPC   H5R20782   5.212   3.698   2.927 -0.2272 -0.6653 -3.1503
  182SLPC   H5S20783   5.092   3.575   2.955 -0.8225  0.9051 -3.0742
  182SLPC   C2620784   5.087   3.724   3.111  0.1570 -0.0439 -0.3050
  182SLPC   H6R20785   4.987   3.689   3.145 -0.6601 -0.6280 -3.0610
  182SLPC   H6S20786   5.078   3.835   3.122  0.3534  0.0447 -1.0105
  182SLPC   C2720787   5.196   3.685   3.217 -0.5188  0.2380  0.3969
  182SLPC   H7R20788   5.181   3.754   3.302  0.9882  0.3137  0.6223
  182SLPC   H7S20789   5.290   3.711   3.163 -1.5527 -0.6480 -1.9677
  182SLPC   C2820790   5.189   3.543   3.257 -0.0645  0.0211  0.5569
  182SLPC   H8R20791   5.208   3.479   3.168  1.3644 -0.4426  1.1720
  182SLPC   H8S20792   5.095   3.507   3.305 -0.6046  2.0789  1.1299
  182SLPC   C2920793   5.308   3.527   3.345 -0.3092 -0.3586  0.2242
  182SLPC   H9R20794   5.406   3.514   3.295  0.0199 -0.5816  0.9134
  182SLPC  C21020795   5.303   3.548   3.478 -0.6688  0.9745 -0.1017
  182SLPC  H10R20796   5.398   3.535   3.532 -0.5548  2.1904  0.0231
  182SLPC  C21120797   5.184   3.579   3.571 -0.2884 -0.8340 -0.3040
  182SLPC  H11R20798   5.140   3.486   3.613 -0.4250 -0.2899  0.7983
  182SLPC  H11S20799   5.104   3.632   3.515  1.0439 -0.2339 -1.6822
  182SLPC  C21220800   5.231   3.673   3.685 -0.1737 -0.4525  0.2407
  182SLPC  H12R20801   5.303   3.753   3.663 -0.6980 -0.3404 -1.1947
  182SLPC  C21320802   5.171   3.687   3.804  0.0876 -0.0871  0.3083
  182SLPC  H13R20803   5.204   3.765   3.875  0.2898 -0.4862  0.6519
  182SLPC  C21420804   5.058   3.607   3.860  0.0635 -0.0122  0.0413
  182SLPC  H14R20805   5.003   3.549   3.783 -0.0199  0.4403 -0.2361
  182SLPC  H14S20806   4.987   3.681   3.903 -0.6454 -0.6250 -0.0448
  182SLPC  C21520807   5.110   3.513   3.972  0.2828  0.4839  0.0329
  182SLPC  H15R20808   5.186   3.453   3.918  0.3760 -0.7162  1.4556
  182SLPC  H15S20809   5.031   3.441   4.001 -1.0291  0.6269 -2.8653
  182SLPC  C21620810   5.172   3.600   4.087  0.2894 -0.2246 -0.6454
  182SLPC  H16R20811   5.256   3.667   4.059 -0.2224  2.1328  2.7382
  182SLPC  H16S20812   5.223   3.525   4.152  0.9238  0.1765 -0.6690
  182SLPC  C21720813   5.065   3.684   4.158  0.1332 -0.1877 -0.5785
  182SLPC  H17R20814   4.974   3.627   4.183 -0.4936  1.2699  0.6616
  182SLPC  H17S20815   5.021   3.764   4.094 -2.3540 -1.0801 -0.0482
  182SLPC  C21820816   5.116   3.748   4.290  0.0026 -0.5375 -0.2357
  182SLPC  H18R20817   5.129   3.669   4.366 -0.6003 -1.8434 -1.4576
  182SLPC  H18S20818   5.050   3.820   4.342 -0.2308 -1.2962  0.5390
  182SLPC  H18T20819   5.212   3.800   4.268  1.6560 -2.2081  2.5323
  182SLPC   C3320820   4.761   4.023   3.185 -0.4390  0.9520 -0.4069
  182SLPC   H3X20821   4.854   4.010   3.125 -0.6764 -0.7299 -0.4459
  182SLPC   H3Y20822   4.705   3.929   3.170  1.4747 -0.3384  0.1042
  182SLPC   C3420823   4.814   4.047   3.321 -0.0475 -0.1676 -0.7201
  182SLPC   H4X20824   4.727   4.083   3.381  0.5108 -2.4515  1.6328
  182SLPC   H4Y20825   4.891   4.126   3.321  0.9554 -1.1170 -0.0879
  182SLPC   C3520826   4.891   3.933   3.382  1.1383  1.0322  0.8075
  182SLPC   H5X20827   4.981   3.919   3.318 -1.2120 -0.3919 -2.4889
  182SLPC   H5Y20828   4.830   3.842   3.363  1.5581  0.9563 -0.2807
  182SLPC   C3620829   4.939   3.958   3.526  0.8924 -0.2110 -0.2492
  182SLPC   H6X20830   4.985   4.059   3.534  0.5173 -0.1667  1.5739
  182SLPC   H6Y20831   5.007   3.878   3.563 -0.2736 -0.6013  1.1412
  182SLPC   C3720832   4.832   3.958   3.629 -0.2467 -0.2902 -0.3355
  182SLPC   H7X20833   4.774   3.864   3.628 -2.4628  0.9783 -2.5495
  182SLPC   H7Y20834   4.761   4.036   3.594 -0.4183 -0.7411 -1.0119
  182SLPC   C3820835   4.895   3.993   3.770 -0.1060  0.3289  0.3317
  182SLPC   H8X20836   4.946   4.091   3.755 -1.9842  1.1305 -1.3953
  182SLPC   H8Y20837   4.968   3.914   3.796 -1.0009 -2.3083 -4.1042
  182SLPC   C3920838   4.795   4.000   3.883  0.5124  0.4132  0.0814
  182SLPC   H9X20839   4.740   3.905   3.901 -1.5518  1.6286  0.5059
  182SLPC   H9Y20840   4.722   4.076   3.845  1.8506  0.8111 -1.8246
  182SLPC  C31020841   4.846   4.048   4.023  0.0068 -0.6718  0.3605
  182SLPC  H10X20842   4.895   4.146   4.008 -0.5936 -0.6577 -1.8140
  182SLPC  H10Y20843   4.918   3.976   4.068  2.3567  1.4026  0.1426
  182SLPC  C31120844   4.727   4.064   4.117  0.1753 -0.7733  0.0631
  182SLPC  H11X20845   4.661   3.976   4.133  0.0661 -0.3651  2.2649
  182SLPC  H11Y20846   4.673   4.154   4.079  2.8319  0.1955 -1.6419
  182SLPC  C31220847   4.764   4.096   4.266  0.5607  0.0973  0.3035
  182SLPC  H12X20848   4.829   4.019   4.311  0.9457  0.3850  0.2419
  182SLPC  H12Y20849   4.666   4.097   4.319  0.5538 -1.4083  0.3547
  182SLPC  C31320850   4.837   4.229   4.274 -0.4203 -0.7044  0.2199
  182SLPC  H13X20851   4.778   4.306   4.219 -0.3067  0.2737  1.4391
  182SLPC  H13Y20852   4.935   4.225   4.222 -1.4878  1.4318 -2.2265
  182SLPC  C31420853   4.841   4.306   4.408 -0.4127  0.0488 -0.3837
  182SLPC  H14X20854   4.737   4.316   4.447  0.2552 -1.7638  2.0994
  182SLPC  H14Y20855   4.889   4.406   4.398 -4.2732  2.2842  1.0619
  182SLPC  C31520856   4.913   4.229   4.525  0.4176 -0.9122 -0.5704
  182SLPC  H15X20857   5.004   4.183   4.480  0.6102 -0.6114 -0.4934
  182SLPC  H15Y20858   4.845   4.149   4.560  1.2277 -1.1993  0.3936
  182SLPC  C31620859   4.952   4.315   4.651  0.4399  0.0563 -0.3673
  182SLPC  H16X20860   4.858   4.362   4.688  0.0902 -1.4462  0.7560
  182SLPC  H16Y20861   5.029   4.380   4.604  1.5204 -1.8610 -1.3714
  182SLPC  C31720862   5.011   4.232   4.768  0.4574  0.0362 -0.8296
  182SLPC  H17X20863   5.041   4.311   4.841  0.9576  0.8641 -1.9152
  182SLPC  H17Y20864   5.104   4.183   4.732  0.2777 -0.4358 -0.6680
  182SLPC  C31820865   4.921   4.130   4.835 -0.2231 -0.1483  0.4964
  182SLPC  H18X20866   4.878   4.055   4.765 -0.0053 -0.1594  0.3746
  182SLPC  H18Y20867   4.835   4.181   4.884 -0.2930  0.9284 -0.6978
  182SLPC  H18Z20868   4.975   4.071   4.912 -1.2611 -0.2227  1.1904
  183SLPC     N20869   0.297   6.495   2.197 -0.2382 -0.1482  0.3083
  183SLPC   C1320870   0.428   6.448   2.247 -0.9002 -0.2142 -0.5495
  183SLPC  H13A20871   0.503   6.468   2.172 -2.5019  2.2148 -1.6174
  183SLPC  H13B20872   0.459   6.507   2.333  2.8671 -1.8904 -0.5721
  183SLPC  H13C20873   0.431   6.346   2.283 -2.5711  0.2809  1.1180
  183SLPC   C1420874   0.255   6.401   2.082 -0.1639 -0.2113 -0.5743
  183SLPC  H14A20875   0.160   6.441   2.049 -0.0184  0.4410 -0.2142
  183SLPC  H14B20876   0.333   6.386   2.009  2.3857 -0.2819  2.0009
  183SLPC  H14C20877   0.241   6.301   2.120  1.1681 -0.3666 -0.4265
  183SLPC   C1520878   0.309   6.639   2.146 -0.0180  0.3453  0.0215
  183SLPC  H15A20879   0.368   6.630   2.056 -0.9533  0.6867 -0.6317
  183SLPC  H15B20880   0.210   6.674   2.120 -0.3333 -0.0619  0.6513
  183SLPC  H15C20881   0.349   6.711   2.216 -2.0256  2.2269 -0.6425
  183SLPC   C1220882   0.196   6.488   2.308  0.5334  0.4671 -0.2102
  183SLPC  H12A20883   0.102   6.509   2.261  0.6146  0.4046 -0.4006
  183SLPC  H12B20884   0.203   6.567   2.381  0.5221 -0.8077  1.2232
  183SLPC   C1120885   0.176   6.360   2.390  0.1605 -0.0293  0.7611
  183SLPC  H11A20886   0.115   6.396   2.476  1.3756  0.1092  1.5999
  183SLPC  H11B20887   0.267   6.316   2.435  0.3532 -0.9966 -0.5092
  183SLPC     P20888  -0.055   6.282   2.284 -0.1376  0.1755  0.0050
  183SLPC   O1320889  -0.075   6.418   2.240  0.2542  0.0872  0.5031
  183SLPC   O1420890  -0.095   6.172   2.201 -0.4061  0.0954  0.1568
  183SLPC   O1220891   0.107   6.265   2.310  0.0993 -0.1748  0.6757
  183SLPC   O1120892  -0.115   6.266   2.427 -0.1122  0.4598  0.0020
  183SLPC    C120893  -0.129   6.129   2.472 -0.4121  0.1941 -0.2521
  183SLPC    HA20894  -0.230   6.089   2.450 -1.0982  1.4761  0.4611
  183SLPC    HB20895  -0.044   6.066   2.437  1.3433  3.0499 -1.5078
  183SLPC    C220896  -0.111   6.121   2.630  0.2079  0.0464 -0.0822
  183SLPC    HS20897  -0.052   6.028   2.647 -2.8867 -1.9841  0.1674
  183SLPC   O2120898  -0.241   6.128   2.698  0.3328 -0.8659 -0.7191
  183SLPC   C2120899  -0.284   6.005   2.727  0.0915 -0.9873 -0.7275
  183SLPC   O2220900  -0.226   5.904   2.697  0.5867 -0.0662 -0.1598
  183SLPC   C2220901  -0.409   6.024   2.815  0.0299  0.4211  0.3162
  183SLPC   H2R20902  -0.457   6.119   2.785  0.0171  0.3364  0.0649
  183SLPC   H2S20903  -0.476   5.938   2.796  1.0944 -0.1297 -1.2323
  183SLPC    C320904  -0.002   6.230   2.684  0.5757  0.8364  0.1375
  183SLPC    HX20905  -0.042   6.326   2.645 -0.9043 -0.0397 -0.6188
  183SLPC    HY20906   0.095   6.198   2.640  0.0893 -2.9994  1.4623
  183SLPC   O3120907   0.009   6.228   2.826 -0.1126  0.3361  0.3307
  183SLPC   C3120908   0.069   6.337   2.885 -0.1099  0.0913 -0.0181
  183SLPC   O3220909   0.105   6.431   2.824  0.0656 -0.2712 -0.1631
  183SLPC   C3220910   0.039   6.324   3.030 -0.0777 -0.0069  0.2200
  183SLPC   H2X20911   0.069   6.223   3.066 -0.4346 -0.8653 -1.7752
  183SLPC   H2Y20912  -0.072   6.320   3.036 -0.1616  0.1829 -1.0886
  183SLPC   C2320913  -0.374   6.025   2.965 -0.1043  0.4721  0.1854
  183SLPC   H3R20914  -0.289   5.956   2.986 -0.2648  0.2432  0.0862
  183SLPC   H3S20915  -0.463   6.007   3.029  0.5018  2.7229  1.7942
  183SLPC   C2420916  -0.334   6.172   3.001  0.7122 -0.1693 -0.0750
  183SLPC   H4R20917  -0.410   6.241   2.957  1.5026  0.8022  0.0440
  183SLPC   H4S20918  -0.235   6.193   2.956 -0.7892  0.2018 -3.5560
  183SLPC   C2520919  -0.327   6.199   3.154  0.4356 -0.1985  0.0460
  183SLPC   H5R20920  -0.436   6.196   3.175 -0.4982 -0.1660 -4.1178
  183SLPC   H5S20921  -0.289   6.302   3.172  0.5947  0.0961 -1.8512
  183SLPC   C2620922  -0.254   6.091   3.232  0.7074  1.4121  0.2140
  183SLPC   H6R20923  -0.160   6.071   3.177  0.5321 -0.1375  0.4228
  183SLPC   H6S20924  -0.321   6.003   3.221  0.0885  2.0332 -1.2578
  183SLPC   C2720925  -0.234   6.120   3.384 -0.4191 -0.2833  0.4910
  183SLPC   H7R20926  -0.156   6.200   3.388 -1.3997  0.7966 -0.8414
  183SLPC   H7S20927  -0.188   6.028   3.427 -0.5802 -0.3522  0.5146
  183SLPC   C2820928  -0.358   6.184   3.455  0.0913  0.4621  0.0230
  183SLPC   H8R20929  -0.448   6.125   3.427  0.6322 -0.4368  0.1566
  183SLPC   H8S20930  -0.366   6.291   3.426 -0.8282  0.6339  0.8244
  183SLPC   C2920931  -0.327   6.172   3.603 -0.6967 -0.4967 -0.0455
  183SLPC   H9R20932  -0.329   6.068   3.639 -1.6622 -0.3086  0.4747
  183SLPC  C21020933  -0.287   6.267   3.690 -0.1394  0.1391 -0.1341
  183SLPC  H10R20934  -0.273   6.231   3.793  0.2799 -0.0163 -0.2436
  183SLPC  C21120935  -0.279   6.420   3.679 -0.6725 -0.3013  0.5170
  183SLPC  H11R20936  -0.327   6.462   3.771  1.0642  2.0243  0.4499
  183SLPC  H11S20937  -0.345   6.451   3.595 -0.2013  0.8401  0.5502
  183SLPC  C21220938  -0.145   6.483   3.644  0.2336 -0.2208  0.3566
  183SLPC  H12R20939  -0.075   6.422   3.585  0.1159  1.9321 -2.2036
  183SLPC  C21320940  -0.105   6.608   3.679 -0.1745  0.8532  0.2302
  183SLPC  H13R20941  -0.009   6.642   3.638  0.2991 -0.6057  0.0676
  183SLPC  C21420942  -0.174   6.716   3.758  0.2289  0.4485 -0.7700
  183SLPC  H14R20943  -0.282   6.715   3.728 -0.4433  3.3772  1.0903
  183SLPC  H14S20944  -0.160   6.821   3.723 -0.5224  0.2491 -1.7276
  183SLPC  C21520945  -0.144   6.701   3.910 -0.4703 -0.0731 -0.1914
  183SLPC  H15R20946  -0.035   6.708   3.932 -0.5063 -2.3738  1.0146
  183SLPC  H15S20947  -0.160   6.596   3.940 -0.6119  0.4621  1.7664
  183SLPC  C21620948  -0.211   6.801   4.000 -0.3917  0.2121 -0.3389
  183SLPC  H16R20949  -0.320   6.782   3.991 -0.1706 -1.2073 -0.2395
  183SLPC  H16S20950  -0.185   6.907   3.978  2.0339  0.0362  1.3450
  183SLPC  C21720951  -0.169   6.775   4.146  0.5178  0.5211 -0.0171
  183SLPC  H17R20952  -0.059   6.790   4.143  0.8607 -1.7688 -1.1491
  183SLPC  H17S20953  -0.197   6.672   4.178  2.8110 -0.1944 -0.1768
  183SLPC  C21820954  -0.244   6.875   4.246  0.4819  0.8608 -0.5337
  183SLPC  H18R20955  -0.354   6.874   4.239 -0.0039 -2.1308  3.7856
  183SLPC  H18S20956  -0.197   6.976   4.244 -0.3053  1.2215 -1.0076
  183SLPC  H18T20957  -0.231   6.844   4.352 -0.1248  3.9456  0.5383
  183SLPC   C3320958   0.116   6.428   3.104  0.4730  0.7365 -0.3697
  183SLPC   H3X20959   0.071   6.528   3.081 -1.7057 -0.2597 -0.7494
  183SLPC   H3Y20960   0.222   6.429   3.072  0.8281 -1.2250  0.6061
  183SLPC   C3420961   0.101   6.412   3.261  0.9118  0.3570  0.7881
  183SLPC   H4X20962  -0.006   6.392   3.282  0.2622  1.3385 -1.2844
  183SLPC   H4Y20963   0.132   6.507   3.311 -1.5281  0.6045  1.9752
  183SLPC   C3520964   0.182   6.286   3.316 -0.1836  0.0562  0.6779
  183SLPC   H5X20965   0.273   6.294   3.253 -1.4623  2.5457 -0.9929
  183SLPC   H5Y20966   0.126   6.195   3.287  0.0716 -0.5750  2.0748
  183SLPC   C3620967   0.212   6.281   3.466  0.2083  0.1445  0.2743
  183SLPC   H6X20968   0.121   6.322   3.515  0.1364 -0.5520  0.7322
  183SLPC   H6Y20969   0.290   6.350   3.507 -0.5068  0.5228  1.0253
  183SLPC   C3720970   0.240   6.147   3.528 -0.2024 -0.0455  0.0369
  183SLPC   H7X20971   0.325   6.103   3.471  0.2274 -1.5902  1.7541
  183SLPC   H7Y20972   0.154   6.081   3.500  0.5549 -0.6137 -1.0309
  183SLPC   C3820973   0.269   6.152   3.677 -0.3234 -0.5480 -0.5403
  183SLPC   H8X20974   0.180   6.198   3.724 -2.7490 -2.6078 -2.7695
  183SLPC   H8Y20975   0.351   6.226   3.680 -0.0506 -0.8528 -0.4357
  183SLPC   C3920976   0.300   6.013   3.745 -0.9201 -0.1821  0.6263
  183SLPC   H9X20977   0.376   5.953   3.690  0.6740 -0.7032  3.2267
  183SLPC   H9Y20978   0.212   5.946   3.742 -0.7282 -0.4047 -0.2118
  183SLPC  C31020979   0.340   6.023   3.889 -0.5072 -0.5371 -0.0364
  183SLPC  H10X20980   0.437   6.075   3.902  0.3172 -2.2226  0.8405
  183SLPC  H10Y20981   0.377   5.924   3.924 -0.6954 -0.4196  0.5005
  183SLPC  C31120982   0.228   6.079   3.975  0.0370 -0.0021 -0.3665
  183SLPC  H11X20983   0.136   6.020   3.955 -1.0861  0.5741  2.5235
  183SLPC  H11Y20984   0.209   6.183   3.941  1.2515  0.5863  0.6987
  183SLPC  C31220985   0.257   6.079   4.126  0.4253 -0.2048 -0.5164
  183SLPC  H12X20986   0.367   6.081   4.143  0.1618  0.8932  1.4138
  183SLPC  H12Y20987   0.210   5.985   4.162  0.6374  0.2681  1.0663
  183SLPC  C31320988   0.191   6.200   4.198 -0.1466  0.3248 -0.0594
  183SLPC  H13X20989   0.236   6.293   4.156 -0.5834  0.4217 -0.3167
  183SLPC  H13Y20990   0.199   6.179   4.306  0.2886 -0.1858 -0.1869
  183SLPC  C31420991   0.036   6.210   4.171  0.3301 -0.0444  0.5175
  183SLPC  H14X20992  -0.020   6.115   4.181  2.4955 -1.3675  0.8398
  183SLPC  H14Y20993   0.016   6.230   4.064 -0.6262 -1.0829  0.4885
  183SLPC  C31520994  -0.030   6.317   4.263 -0.2446 -0.6385  0.0405
  183SLPC  H15X20995   0.021   6.416   4.259 -2.5579  0.6642  0.6780
  183SLPC  H15Y20996  -0.021   6.290   4.371  0.6801  0.7148  0.3236
  183SLPC  C31620997  -0.186   6.335   4.227 -0.5146  0.1379 -0.0835
  183SLPC  H16X20998  -0.195   6.353   4.117 -0.8941  0.7396  0.0425
  183SLPC  H16Y20999  -0.223   6.429   4.273  1.0030  1.0145 -0.5429
  183SLPC  C31721000  -0.265   6.208   4.259  0.1886  0.0837  0.2900
  183SLPC  H17X21001  -0.235   6.168   4.359 -1.7518 -1.0596  0.4628
  183SLPC  H17Y21002  -0.240   6.132   4.183  1.9487 -0.9802  1.8529
  183SLPC  C31821003  -0.418   6.224   4.261  0.0324  0.0109  0.6229
  183SLPC  H18X21004  -0.433   6.297   4.343  1.7064 -0.5251  1.4566
  183SLPC  H18Y21005  -0.477   6.132   4.281 -0.2559 -0.3690 -1.7051
  183SLPC  H18Z21006  -0.461   6.271   4.170 -2.1478  0.6338  1.9109
  184SLPC     N21007   4.016   6.592   2.577  0.4401 -0.4224 -0.1687
  184SLPC   C1321008   3.982   6.483   2.671  0.2913  0.3636 -0.2202
  184SLPC  H13A21009   3.883   6.483   2.714  0.5492 -2.8508  0.6750
  184SLPC  H13B21010   4.002   6.389   2.620 -0.7516  0.9400 -1.7854
  184SLPC  H13C21011   4.045   6.473   2.758 -0.8236 -1.5878  0.4331
  184SLPC   C1421012   3.905   6.576   2.470  0.0564  0.4562 -0.9135
  184SLPC  H14A21013   3.907   6.472   2.442  0.8881  0.0776  0.4626
  184SLPC  H14B21014   3.817   6.608   2.524  1.1496  2.6093 -0.2938
  184SLPC  H14C21015   3.904   6.647   2.389 -1.3820 -0.5794 -1.8366
  184SLPC   C1521016   4.149   6.565   2.509 -0.2620  0.2133  0.7420
  184SLPC  H15A21017   4.142   6.477   2.446 -0.3366 -0.6951  1.9938
  184SLPC  H15B21018   4.183   6.644   2.443  2.1123 -0.6907  0.7794
  184SLPC  H15C21019   4.231   6.541   2.575  1.3897  2.5995 -0.3148
  184SLPC   C1221020   3.999   6.732   2.629 -0.4903 -0.4643 -0.5324
  184SLPC  H12A21021   3.896   6.760   2.645 -0.1430  0.2591  0.5218
  184SLPC  H12B21022   4.051   6.804   2.567 -0.3473  0.8919  1.0728
  184SLPC   C1121023   4.073   6.758   2.768  0.4409 -0.3657  0.4125
  184SLPC  H11A21024   4.027   6.689   2.843 -1.2827  0.7202  0.4126
  184SLPC  H11B21025   4.048   6.864   2.786  0.5343 -0.3582  0.5001
  184SLPC     P21026   4.303   6.851   2.701 -0.1093  0.1328 -0.1773
  184SLPC   O1321027   4.450   6.828   2.699 -0.4921 -0.2916 -0.2831
  184SLPC   O1421028   4.245   6.885   2.568  0.7647  0.9747 -0.5969
  184SLPC   O1221029   4.220   6.728   2.760 -0.5228  0.1983 -0.3059
  184SLPC   O1121030   4.274   6.957   2.814 -0.4563 -0.7469  0.3626
  184SLPC    C121031   4.282   6.933   2.957  0.2476 -0.5718  0.4650
  184SLPC    HA21032   4.200   6.864   2.989  0.2258 -1.4542 -1.3745
  184SLPC    HB21033   4.380   6.882   2.971 -0.1527 -1.8562 -1.0683
  184SLPC    C221034   4.272   7.066   3.025 -0.0475  0.1273  0.3111
  184SLPC    HS21035   4.335   7.140   2.971  0.0976 -0.7446 -0.7351
  184SLPC   O2121036   4.322   7.042   3.157 -0.4123 -0.1742  0.5194
  184SLPC   C2121037   4.348   7.139   3.242 -0.2217  0.7429  0.9725
  184SLPC   O2221038   4.353   7.256   3.220 -0.2723  0.2883  0.1761
  184SLPC   C2221039   4.383   7.077   3.384 -0.5498 -1.0826  0.6269
  184SLPC   H2R21040   4.318   6.987   3.389 -1.2453 -0.6391 -0.0275
  184SLPC   H2S21041   4.486   7.037   3.377  0.9926  2.2819  1.9844
  184SLPC    C321042   4.122   7.112   3.036 -0.2987 -0.2002  0.2385
  184SLPC    HX21043   4.089   7.149   2.937 -2.4290 -0.3546  0.8507
  184SLPC    HY21044   4.136   7.197   3.107 -0.1863  0.4635 -0.5656
  184SLPC   O3121045   4.026   7.012   3.076  0.1653  0.8139  0.5185
  184SLPC   C3121046   4.012   6.993   3.205  0.1405 -0.0752 -0.5826
  184SLPC   O3221047   4.077   7.048   3.292 -0.4079 -0.1678  0.1700
  184SLPC   C3221048   3.901   6.890   3.224 -0.2549  0.0665 -0.1482
  184SLPC   H2X21049   3.884   6.838   3.127 -0.4947 -0.6131  0.2556
  184SLPC   H2Y21050   3.808   6.947   3.242  0.2424  0.5923  0.8225
  184SLPC   C2321051   4.374   7.171   3.505  0.3352 -0.6486 -0.2044
  184SLPC   H3R21052   4.289   7.243   3.499  1.5762  1.3587  3.1629
  184SLPC   H3S21053   4.462   7.239   3.505 -0.3549  0.3271  1.3724
  184SLPC   C2421054   4.359   7.092   3.630 -0.4731  0.5099 -0.5575
  184SLPC   H4R21055   4.443   7.019   3.629 -1.1467 -0.3013 -2.1836
  184SLPC   H4S21056   4.259   7.044   3.625 -2.2016  3.8085 -0.2240
  184SLPC   C2521057   4.375   7.173   3.756 -0.7423  0.0425 -0.3499
  184SLPC   H5R21058   4.315   7.266   3.743 -1.0737 -0.2169 -0.7215
  184SLPC   H5S21059   4.482   7.196   3.775 -1.4643  0.8462  3.4667
  184SLPC   C2621060   4.325   7.100   3.881  0.3985 -0.3799 -0.6495
  184SLPC   H6R21061   4.375   7.001   3.887  2.5979  0.7365  1.0450
  184SLPC   H6S21062   4.215   7.086   3.881  0.4808 -1.9940  2.7740
  184SLPC   C2721063   4.383   7.162   4.010 -0.0461  0.2978  0.1936
  184SLPC   H7R21064   4.384   7.273   3.998  1.3589  0.4099  1.0953
  184SLPC   H7S21065   4.489   7.132   4.025 -0.0216  0.9787  1.4762
  184SLPC   C2821066   4.314   7.120   4.140  0.0022 -0.2276  0.0284
  184SLPC   H8R21067   4.373   7.151   4.229  0.5647 -1.7582  0.2348
  184SLPC   H8S21068   4.303   7.010   4.151  1.6466 -0.3292  1.1171
  184SLPC   C2921069   4.177   7.183   4.149  0.1640 -0.8519 -0.1334
  184SLPC   H9R21070   4.122   7.196   4.055 -0.1916 -0.2891  0.1493
  184SLPC  C21021071   4.134   7.266   4.247  0.6026 -0.0852  0.2019
  184SLPC  H10R21072   4.028   7.289   4.262  1.0157  1.0749  1.5981
  184SLPC  C21121073   4.209   7.272   4.373  0.3914  0.3227 -0.2700
  184SLPC  H11R21074   4.319   7.291   4.371  0.1537  2.2710  1.7348
  184SLPC  H11S21075   4.192   7.182   4.435  0.4222  0.0478 -0.6551
  184SLPC  C21221076   4.158   7.392   4.453  0.0859  0.4865 -0.9966
  184SLPC  H12R21077   4.076   7.375   4.525  2.7520 -0.9114  1.9523
  184SLPC  C21321078   4.195   7.519   4.437 -0.2683 -0.0485  0.4645
  184SLPC  H13R21079   4.146   7.596   4.499 -1.9304  0.0477 -0.8881
  184SLPC  C21421080   4.285   7.567   4.322  0.0645 -0.5186  0.5446
  184SLPC  H14R21081   4.220   7.606   4.241 -0.3357  1.8940  1.9355
  184SLPC  H14S21082   4.364   7.495   4.291 -1.7814 -1.8019 -1.5030
  184SLPC  C21521083   4.365   7.700   4.362  0.2801  0.0727 -0.0867
  184SLPC  H15R21084   4.409   7.674   4.460 -0.5244 -2.7703 -0.3733
  184SLPC  H15S21085   4.285   7.777   4.372  1.1228  0.9283  0.1685
  184SLPC  C21621086   4.471   7.748   4.260  0.2893  0.4821 -0.1746
  184SLPC  H16R21087   4.537   7.660   4.244 -0.3268  0.3306 -2.0754
  184SLPC  H16S21088   4.520   7.842   4.294  0.9918  0.6248 -1.5271
  184SLPC  C21721089   4.399   7.796   4.132 -0.9619  0.2424  0.0404
  184SLPC  H17R21090   4.331   7.874   4.171 -1.4343  1.2625 -2.6082
  184SLPC  H17S21091   4.335   7.716   4.088 -0.1004  0.1086 -1.0007
  184SLPC  C21821092   4.490   7.841   4.019  0.1303  0.2226 -0.4385
  184SLPC  H18R21093   4.527   7.945   4.022  0.4498  0.0799  0.8771
  184SLPC  H18S21094   4.439   7.832   3.920 -0.3946  2.4334 -0.4240
  184SLPC  H18T21095   4.573   7.767   4.007  1.0202  1.2301 -0.6194
  184SLPC   C3321096   3.926   6.787   3.341 -0.0554 -0.1051  0.2842
  184SLPC   H3X21097   3.838   6.730   3.377  0.6597  0.5023  3.2818
  184SLPC   H3Y21098   3.942   6.856   3.427 -3.4922  1.6880 -0.3300
  184SLPC   C3421099   4.052   6.701   3.322  0.3656 -0.0021 -0.3846
  184SLPC   H4X21100   4.142   6.754   3.283 -0.1222  1.9849  1.0155
  184SLPC   H4Y21101   4.032   6.630   3.239 -1.8567 -1.2232  1.1022
  184SLPC   C3521102   4.088   6.609   3.445 -0.3591 -0.1243  0.1622
  184SLPC   H5X21103   4.164   6.532   3.419  2.2051  2.6087 -0.9964
  184SLPC   H5Y21104   3.995   6.553   3.470  1.0431 -2.9644 -0.5418
  184SLPC   C3621105   4.117   6.689   3.579 -0.0654  0.7262 -1.1790
  184SLPC   H6X21106   4.023   6.748   3.596  0.6351  1.8226 -0.9875
  184SLPC   H6Y21107   4.210   6.749   3.570  0.0609  0.9335  0.8729
  184SLPC   C3721108   4.138   6.596   3.700 -0.1789  0.4072 -0.2632
  184SLPC   H7X21109   4.232   6.541   3.676 -0.6625 -0.3226 -0.5172
  184SLPC   H7Y21110   4.053   6.531   3.730 -1.1172  1.7285  0.0348
  184SLPC   C3821111   4.168   6.678   3.827  0.6825  0.1626  0.5173
  184SLPC   H8X21112   4.078   6.737   3.853  0.0785 -0.1381 -0.8069
  184SLPC   H8Y21113   4.252   6.748   3.806 -0.4603  0.8469 -2.1942
  184SLPC   C3921114   4.189   6.599   3.958 -0.2795  0.2316 -0.7828
  184SLPC   H9X21115   4.258   6.512   3.949 -1.4711 -0.8080 -0.1989
  184SLPC   H9Y21116   4.100   6.565   4.015 -0.0458  0.3879 -0.3154
  184SLPC  C31021117   4.275   6.693   4.057  0.4218  0.2197  0.5858
  184SLPC  H10X21118   4.221   6.779   4.103  0.6926  0.3480  0.6656
  184SLPC  H10Y21119   4.366   6.725   4.001 -0.6483 -1.7499 -2.5322
  184SLPC  C31121120   4.315   6.599   4.168 -0.4414  0.3214  0.3579
  184SLPC  H11X21121   4.365   6.506   4.132 -1.4744 -0.5745  1.1451
  184SLPC  H11Y21122   4.237   6.544   4.225  2.5602 -0.9810  3.5488
  184SLPC  C31221123   4.405   6.668   4.265 -0.4142  0.6005  0.2060
  184SLPC  H12X21124   4.479   6.733   4.214 -1.5987  1.3973 -0.5555
  184SLPC  H12Y21125   4.462   6.592   4.323 -1.0692  2.4196  3.4885
  184SLPC  C31321126   4.315   6.743   4.368  0.2422  0.7344 -0.0185
  184SLPC  H13X21127   4.254   6.664   4.416  0.1849  1.4035  1.0437
  184SLPC  H13Y21128   4.244   6.809   4.315  0.2315  0.0176 -0.9360
  184SLPC  C31421129   4.393   6.820   4.466 -0.1273  0.4718 -0.1598
  184SLPC  H14X21130   4.430   6.913   4.419 -0.9324  1.3810  0.9382
  184SLPC  H14Y21131   4.484   6.767   4.502 -0.7746  0.4211  1.4734
  184SLPC  C31521132   4.319   6.859   4.583 -0.0793 -0.6755 -0.1323
  184SLPC  H15X21133   4.285   6.773   4.644  1.3996  0.2541  2.1107
  184SLPC  H15Y21134   4.219   6.885   4.542 -0.5194 -0.9954  0.7243
  184SLPC  C31621135   4.384   6.985   4.650 -0.3541  0.1607 -0.5093
  184SLPC  H16X21136   4.397   7.061   4.570 -0.6064 -1.0357 -1.7115
  184SLPC  H16Y21137   4.481   6.948   4.689 -0.4251 -1.7779 -2.0110
  184SLPC  C31721138   4.300   7.042   4.760  0.0171 -0.5397  0.6511
  184SLPC  H17X21139   4.283   6.969   4.843  3.0476 -0.8849  1.0905
  184SLPC  H17Y21140   4.198   7.064   4.722  1.1527  0.6291 -1.9340
  184SLPC  C31821141   4.358   7.171   4.820  0.4127 -0.0758  0.5768
  184SLPC  H18X21142   4.454   7.161   4.875  0.6395 -1.3313 -0.0116
  184SLPC  H18Y21143   4.296   7.217   4.900  0.8785  0.7092  0.5010
  184SLPC  H18Z21144   4.379   7.242   4.737  0.1410 -0.5846  0.0662
  185POPC     N21145   6.225   5.036   7.402 -0.0642  0.1901 -0.4378
  185POPC   C1221146   6.098   5.001   7.330  0.0785 -0.3432  0.6897
  185POPC  H12A21147   6.020   4.967   7.397  0.7776 -0.5544  1.4180
  185POPC  H12B21148   6.114   4.928   7.252 -1.7423  2.2836 -2.4056
  185POPC   C1321149   6.288   4.918   7.480 -0.0169 -0.7100 -0.3642
  185POPC  H13A21150   6.309   4.830   7.421  3.1210 -0.3666  0.0907
  185POPC  H13B21151   6.382   4.943   7.525 -0.0895 -1.2303  0.0892
  185POPC  H13C21152   6.215   4.899   7.557 -0.8143  3.1435  0.0439
  185POPC   C1421153   6.334   5.095   7.315  0.1126  0.6504  0.7089
  185POPC  H14A21154   6.344   5.040   7.222  0.7665  2.3593 -0.2729
  185POPC  H14B21155   6.313   5.196   7.283  0.5957  0.5201 -0.0524
  185POPC  H14C21156   6.430   5.094   7.363  0.9464 -0.1177 -0.8770
  185POPC   C1521157   6.191   5.142   7.505  0.4883 -0.2077 -0.3782
  185POPC  H15A21158   6.151   5.234   7.464  0.5126  0.2256  0.5411
  185POPC  H15B21159   6.278   5.172   7.562  1.0043 -0.9416 -0.7715
  185POPC  H15C21160   6.111   5.106   7.567 -0.1416 -0.5547 -1.3820
  185POPC   C1121161   6.038   5.122   7.252 -0.1750  0.7832 -0.0516
  185POPC  H11A21162   6.118   5.177   7.196  0.9643 -0.0393  0.7261
  185POPC  H11B21163   6.000   5.190   7.331  1.4820  0.2752  1.2481
  185POPC     P21164   5.928   4.981   7.061 -0.5825  0.0729  0.2660
  185POPC   O1321165   5.790   4.944   7.020 -0.0157  0.1076  0.0501
  185POPC   O1421166   6.001   4.861   7.093 -0.1655 -0.1739 -0.1361
  185POPC   O1221167   5.932   5.080   7.175 -0.1185 -0.0970 -0.3904
  185POPC   O1121168   5.990   5.057   6.937 -0.0677 -0.5933 -0.3916
  185POPC    C121169   6.043   5.190   6.932 -1.0115 -0.4150  0.2742
  185POPC    HA21170   6.143   5.175   6.978  0.7687 -3.0463 -3.8297
  185POPC    HB21171   5.976   5.266   6.979 -1.3972 -0.4202 -0.2657
  185POPC    C221172   6.090   5.233   6.793  0.1710  0.5936  0.1298
  185POPC    HS21173   6.191   5.277   6.806  0.2613  0.3924  0.1116
  185POPC   O2121174   5.995   5.324   6.735 -0.2429 -0.1116 -0.3995
  185POPC   C2121175   6.036   5.423   6.662 -0.1066  0.0210 -0.6640
  185POPC   O2221176   6.153   5.445   6.631 -0.0102  0.6223 -0.0212
  185POPC   C2221177   5.919   5.511   6.622  0.2437 -0.1690 -0.2570
  185POPC   H2R21178   5.948   5.609   6.577  0.9127  0.6747  1.8436
  185POPC   H2S21179   5.869   5.532   6.719  2.1018 -0.8800  0.9088
  185POPC    C321180   6.112   5.118   6.689 -0.4152  0.1358  0.3949
  185POPC    HX21181   6.010   5.074   6.687  0.2674 -1.4726 -0.3773
  185POPC    HY21182   6.181   5.039   6.724 -0.2203 -0.6160 -1.5644
  185POPC   O3121183   6.137   5.163   6.555  0.1062 -0.0338  0.0300
  185POPC   C3121184   6.265   5.164   6.519  0.3345  0.6908 -0.1657
  185POPC   O3221185   6.358   5.130   6.586 -0.6783 -0.6415 -0.5727
  185POPC   C3221186   6.276   5.237   6.386  0.0973  0.6369 -0.2134
  185POPC   H2X21187   6.305   5.344   6.396 -0.0125  0.9930 -2.8771
  185POPC   H2Y21188   6.174   5.236   6.341 -0.2541  4.0819  0.2340
  185POPC   C2321189   5.801   5.446   6.545 -0.6214 -0.7099  0.1909
  185POPC   H3R21190   5.707   5.506   6.552 -0.0765  0.7618 -3.1083
  185POPC   H3S21191   5.774   5.354   6.600 -1.6097  0.0360  1.0157
  185POPC   C2421192   5.820   5.409   6.391 -0.0942  0.1439 -0.0332
  185POPC   H4R21193   5.750   5.323   6.381  0.9215 -0.6154 -0.8089
  185POPC   H4S21194   5.925   5.379   6.371  1.0875  2.0970  2.7076
  185POPC   C2521195   5.769   5.509   6.285 -0.2842 -0.5890  0.1303
  185POPC   H5R21196   5.831   5.600   6.282 -1.5748  0.3099 -0.2576
  185POPC   H5S21197   5.673   5.554   6.318 -0.3929  0.9736 -2.0823
  185POPC   C2621198   5.775   5.461   6.140 -0.1464  0.4033 -0.3288
  185POPC   H6R21199   5.698   5.382   6.140  0.9937 -0.7352 -0.3023
  185POPC   H6S21200   5.873   5.411   6.121 -0.3157 -1.5810  3.1538
  185POPC   C2721201   5.753   5.570   6.035 -0.0172  0.6712 -0.5372
  185POPC   H7R21202   5.840   5.638   6.042  2.1254 -1.6039 -2.7551
  185POPC   H7S21203   5.657   5.625   6.044 -0.3593  0.0880 -0.4997
  185POPC   C2821204   5.758   5.527   5.891 -0.0050 -0.0202  0.2027
  185POPC   H8R21205   5.863   5.493   5.874  1.6209  4.1281  0.7397
  185POPC   H8S21206   5.751   5.617   5.826  0.0190 -0.2304 -0.0940
  185POPC   C2921207   5.637   5.436   5.882 -1.0768 -0.1977  0.7388
  185POPC   H9121208   5.559   5.444   5.959 -1.0499  1.6690  0.6278
  185POPC  C21021209   5.620   5.341   5.788  0.3210 -0.2252 -0.1450
  185POPC  H10121210   5.527   5.285   5.800  0.6647 -0.7053  0.3224
  185POPC  C21121211   5.710   5.306   5.668 -0.2758  0.8246 -0.2508
  185POPC  H11R21212   5.671   5.212   5.625 -2.8850  1.9311 -0.4904
  185POPC  H11S21213   5.815   5.288   5.699 -0.6706  0.4624  0.9246
  185POPC  C21221214   5.704   5.401   5.545 -0.4834 -0.6724  0.9315
  185POPC  H12R21215   5.751   5.496   5.577  1.8895 -1.3819 -0.1863
  185POPC  H12S21216   5.599   5.417   5.513  0.1043 -0.3553 -1.0341
  185POPC  C21321217   5.802   5.367   5.432  0.1352 -0.4410 -0.5625
  185POPC  H13R21218   5.746   5.300   5.363  0.3882  0.3154 -1.5246
  185POPC  H13S21219   5.886   5.307   5.474  1.7559  1.2981 -1.1530
  185POPC  C21421220   5.846   5.488   5.353 -0.3596 -0.1613  0.2518
  185POPC  H14R21221   5.889   5.564   5.421 -1.1343 -0.0216  0.5994
  185POPC  H14S21222   5.767   5.547   5.301  0.3262  0.5660  0.0205
  185POPC  C21521223   5.947   5.450   5.242  0.3123  0.0870 -0.0524
  185POPC  H15R21224   5.887   5.392   5.169 -0.3161  0.6829 -0.0246
  185POPC  H15S21225   6.035   5.390   5.273 -1.0223 -2.4039 -0.7654
  185POPC  C21621226   5.983   5.577   5.160 -0.1135 -0.2412  0.4927
  185POPC  H16R21227   6.061   5.626   5.222 -0.4561  1.2963 -0.2519
  185POPC  H16S21228   5.897   5.647   5.158  0.2387  0.2232  1.2453
  185POPC  C21721229   6.057   5.556   5.023 -0.1390 -0.3312  0.2610
  185POPC  H17R21230   6.092   5.652   4.979  2.3294  0.5270  3.6639
  185POPC  H17S21231   5.968   5.527   4.964  1.3669 -1.6213 -1.5091
  185POPC  C21821232   6.157   5.457   5.002 -0.0335  0.2262 -0.1804
  185POPC  H18R21233   6.187   5.450   4.895 -2.4607  1.9654 -1.0834
  185POPC  H18S21234   6.131   5.358   5.044  0.5703  0.0722 -0.1642
  185POPC  H18T21235   6.246   5.479   5.065  0.2569 -0.6153 -0.2855
  185POPC   C3321236   6.374   5.172   6.285  0.5617  0.7569  0.1452
  185POPC   H3X21237   6.335   5.071   6.260  0.4629  0.3766  1.7167
  185POPC   H3Y21238   6.475   5.164   6.332  1.3920  0.5540 -1.6154
  185POPC   C3421239   6.394   5.248   6.153 -0.0276  0.5014 -0.0827
  185POPC   H4X21240   6.463   5.184   6.094  0.4465  1.0102 -0.0894
  185POPC   H4Y21241   6.445   5.346   6.170  1.2292  0.0559 -1.1360
  185POPC   C3521242   6.257   5.276   6.078 -0.0519  0.0633  0.1316
  185POPC   H5X21243   6.213   5.358   6.140  2.4075  1.2870  0.3939
  185POPC   H5Y21244   6.196   5.183   6.075 -1.8175  1.0719  1.8436
  185POPC   C3621245   6.285   5.320   5.942  0.8128 -0.2524  0.6280
  185POPC   H6X21246   6.299   5.231   5.877 -0.8183  0.2240 -0.4584
  185POPC   H6Y21247   6.376   5.383   5.940 -0.9826  2.5818 -2.1517
  185POPC   C3721248   6.168   5.403   5.883 -0.1459 -0.1593  0.1687
  185POPC   H7X21249   6.150   5.473   5.967 -1.8040 -0.4131  0.0595
  185POPC   H7Y21250   6.073   5.347   5.870 -0.6618  0.3867  1.3973
  185POPC   C3821251   6.206   5.473   5.748  0.5604 -0.3497  0.9323
  185POPC   H8X21252   6.306   5.517   5.769  1.6509 -2.4873  0.5473
  185POPC   H8Y21253   6.143   5.562   5.728 -2.0737 -1.7390  2.5907
  185POPC   C3921254   6.195   5.376   5.636 -0.3494  0.8812 -0.2521
  185POPC   H9X21255   6.093   5.332   5.637  0.3331 -0.8787  1.7437
  185POPC   H9Y21256   6.260   5.286   5.645 -0.6597  0.7364  0.6662
  185POPC  C31021257   6.222   5.440   5.494  0.1334  0.3728  0.7031
  185POPC  H10X21258   6.120   5.473   5.463 -0.0417  1.5859  2.4906
  185POPC  H10Y21259   6.243   5.365   5.414 -0.0983  0.5772  0.4476
  185POPC  C31121260   6.337   5.547   5.485  0.2487 -0.1948 -0.5222
  185POPC  H11X21261   6.427   5.483   5.491  1.2008  1.0246 -1.2353
  185POPC  H11Y21262   6.339   5.624   5.565  1.8417  0.3638 -1.0635
  185POPC  C31221263   6.346   5.618   5.356  0.0098 -0.2585 -0.5529
  185POPC  H12X21264   6.256   5.680   5.337  0.4749  0.3232 -0.8632
  185POPC  H12Y21265   6.349   5.542   5.274  2.9270  0.7985 -1.5248
  185POPC  C31321266   6.464   5.718   5.348  0.7548  0.3310  0.7064
  185POPC  H13X21267   6.561   5.666   5.363  0.1326 -1.2304 -0.4158
  185POPC  H13Y21268   6.454   5.797   5.426  0.1947  0.4867  0.4809
  185POPC  C31421269   6.479   5.791   5.213  0.8033 -0.8250  0.0595
  185POPC  H14X21270   6.544   5.873   5.248 -0.2736 -0.4027  1.1408
  185POPC  H14Y21271   6.383   5.832   5.176  0.8439 -0.6133  0.1868
  185POPC  C31521272   6.536   5.725   5.086  0.0494 -0.0735  0.1213
  185POPC  H15X21273   6.471   5.637   5.070  1.3986 -1.5730  2.3358
  185POPC  H15Y21274   6.639   5.685   5.091  1.3425  2.3402 -3.3505
  185POPC  C31621275   6.528   5.804   4.957  0.0305  0.0148  0.4256
  185POPC  H16X21276   6.589   5.751   4.880 -0.1725  0.0322  0.2530
  185POPC  H16Y21277   6.569   5.907   4.959 -1.1536  0.6115 -2.0847
  185POPC  H16Z21278   6.424   5.821   4.922  0.4118  2.0240  0.1322
  186POPC     N21279   1.706   4.259   7.304  0.1423 -0.0898 -1.1193
  186POPC   C1221280   1.662   4.398   7.253 -0.5404 -1.2622  0.6896
  186POPC  H12A21281   1.684   4.470   7.331  0.0014 -2.8378  2.0615
  186POPC  H12B21282   1.556   4.398   7.233 -0.1326 -1.1109 -1.7175
  186POPC   C1321283   1.700   4.153   7.193  0.0346  0.0777  0.0339
  186POPC  H13A21284   1.757   4.179   7.106 -0.5245 -1.0725 -0.7002
  186POPC  H13B21285   1.749   4.066   7.233 -1.2363 -0.2136  1.0426
  186POPC  H13C21286   1.597   4.121   7.183  1.1927 -3.4881 -2.0004
  186POPC   C1421287   1.851   4.276   7.349 -0.5164 -0.6870 -0.3332
  186POPC  H14A21288   1.880   4.187   7.403  0.5219 -1.7801 -2.5697
  186POPC  H14B21289   1.926   4.301   7.276  0.4372 -1.4566  0.3626
  186POPC  H14C21290   1.850   4.358   7.420  1.9785 -0.3227 -0.6402
  186POPC   C1521291   1.624   4.212   7.420 -0.3352  0.8072 -0.4509
  186POPC  H15A21292   1.666   4.127   7.471  0.8001  1.9922  0.6573
  186POPC  H15B21293   1.523   4.193   7.384  0.1070 -0.7859 -0.9105
  186POPC  H15C21294   1.624   4.291   7.494  0.7393 -0.8269  1.4055
  186POPC   C1121295   1.729   4.443   7.123 -0.2603 -0.2830 -0.0734
  186POPC  H11A21296   1.684   4.541   7.097  1.9079  0.8268  0.1733
  186POPC  H11B21297   1.719   4.370   7.040  1.3723 -0.9346  0.2597
  186POPC     P21298   1.900   4.624   7.208 -0.4017  0.4545  0.6178
  186POPC   O1321299   2.046   4.640   7.214  0.4605  0.0274 -0.2933
  186POPC   O1421300   1.821   4.641   7.332  0.3499 -0.5123 -0.1471
  186POPC   O1221301   1.869   4.476   7.146  0.5173  0.6889  0.0737
  186POPC   O1121302   1.840   4.718   7.098 -0.1310  0.2893 -0.8527
  186POPC    C121303   1.873   4.716   6.962 -0.0901 -1.0531  0.1905
  186POPC    HA21304   1.784   4.718   6.895  1.7894  0.0445 -2.4816
  186POPC    HB21305   1.928   4.621   6.945 -0.3510 -1.7187  2.7410
  186POPC    C221306   1.967   4.835   6.936  0.4008 -0.4415 -0.0159
  186POPC    HS21307   2.034   4.860   7.020 -1.2181 -0.2336  1.2573
  186POPC   O2121308   1.872   4.943   6.910 -0.0329 -0.4427 -0.4757
  186POPC   C2121309   1.934   5.068   6.898  0.2023 -0.4346  0.0284
  186POPC   O2221310   2.053   5.091   6.927  0.4379  0.0679  0.1822
  186POPC   C2221311   1.840   5.187   6.864 -0.0311 -0.2879  0.1084
  186POPC   H2R21312   1.837   5.247   6.958  1.6667  0.6270 -0.3718
  186POPC   H2S21313   1.747   5.140   6.825 -0.1914  0.6923 -0.7016
  186POPC    C321314   2.063   4.815   6.815  0.6099 -0.0451 -0.7309
  186POPC    HX21315   2.107   4.713   6.824 -0.7678 -0.7771 -1.9400
  186POPC    HY21316   2.147   4.888   6.813 -1.7435  2.8693 -0.7481
  186POPC   O3121317   1.999   4.821   6.684  0.3125  0.4366  0.2359
  186POPC   C3121318   2.081   4.778   6.590  1.1967  0.2338  0.7477
  186POPC   O3221319   2.190   4.726   6.599  0.1968 -0.2159  0.7580
  186POPC   C3221320   2.022   4.833   6.458 -0.0642 -0.5293  1.0435
  186POPC   H2X21321   2.030   4.943   6.471 -1.5436 -0.3945  0.9823
  186POPC   H2Y21322   1.913   4.813   6.460  0.0929 -1.9037 -1.0418
  186POPC   C2321323   1.891   5.272   6.739  0.3652 -0.0598  0.4906
  186POPC   H3R21324   1.991   5.317   6.754  0.9211 -0.9974 -0.2532
  186POPC   H3S21325   1.829   5.364   6.730 -0.7660 -0.8000  0.4918
  186POPC   C2421326   1.886   5.189   6.604 -1.2794 -0.0244 -0.6803
  186POPC   H4R21327   1.783   5.150   6.591 -1.4228  0.3499 -0.7027
  186POPC   H4S21328   1.948   5.098   6.619  0.0308  1.2811  2.8186
  186POPC   C2521329   1.928   5.269   6.484 -0.4304 -0.0010 -0.5851
  186POPC   H5R21330   2.037   5.289   6.479 -0.4505 -0.1662 -1.8942
  186POPC   H5S21331   1.877   5.366   6.505 -0.1036 -0.1135  0.8047
  186POPC   C2621332   1.879   5.212   6.353  0.0945  0.0970  0.3736
  186POPC   H6R21333   1.768   5.219   6.351  0.1352  1.2498  1.1589
  186POPC   H6S21334   1.895   5.102   6.349  0.3862  0.1549 -0.2386
  186POPC   C2721335   1.946   5.274   6.227 -0.3251  0.3788 -0.5496
  186POPC   H7R21336   2.056   5.260   6.225 -0.1759  0.9928  1.2472
  186POPC   H7S21337   1.918   5.382   6.224 -2.5899 -0.0766  1.4864
  186POPC   C2821338   1.902   5.212   6.096  0.4070 -0.5526  0.9568
  186POPC   H8R21339   1.927   5.105   6.107  2.8579  0.0854  2.4290
  186POPC   H8S21340   1.963   5.261   6.018 -1.0198  0.0708  0.1913
  186POPC   C2921341   1.755   5.212   6.068  0.6934 -0.6869  0.1221
  186POPC   H9121342   1.692   5.193   6.156 -1.1452  0.7058 -0.8080
  186POPC  C21021343   1.687   5.231   5.953  0.5345 -0.2648 -0.2232
  186POPC  H10121344   1.578   5.225   5.950  0.4616  0.3061  0.8064
  186POPC  C21121345   1.748   5.258   5.820 -0.9064  0.0907 -0.2391
  186POPC  H11R21346   1.849   5.302   5.836 -1.1292  0.7764 -0.7003
  186POPC  H11S21347   1.681   5.338   5.783 -1.1093  0.7937  1.5283
  186POPC  C21221348   1.769   5.138   5.728 -0.6991 -0.3694  0.6472
  186POPC  H12R21349   1.671   5.086   5.717 -0.5427 -0.5937  0.2669
  186POPC  H12S21350   1.827   5.062   5.784 -1.7431 -1.0222  0.8809
  186POPC  C21321351   1.838   5.169   5.594 -0.3678  0.0783  0.2272
  186POPC  H13R21352   1.848   5.082   5.527  0.4172 -0.4082  0.9554
  186POPC  H13S21353   1.944   5.186   5.623  0.0461  2.0397 -2.1139
  186POPC  C21421354   1.801   5.293   5.517  0.2131 -0.2410 -0.0189
  186POPC  H14R21355   1.791   5.374   5.591 -1.8103 -1.4008  1.0518
  186POPC  H14S21356   1.699   5.281   5.476  0.5248 -0.2790 -0.8063
  186POPC  C21521357   1.903   5.332   5.407 -0.0688 -0.3856  0.0530
  186POPC  H15R21358   2.002   5.355   5.452  0.2933  0.2476 -1.0163
  186POPC  H15S21359   1.867   5.424   5.355 -0.4963 -0.3375  0.4317
  186POPC  C21621360   1.928   5.222   5.305 -0.5573  0.8334 -0.0384
  186POPC  H16R21361   1.832   5.199   5.254 -1.2731 -1.5299  2.1700
  186POPC  H16S21362   1.981   5.134   5.348  0.5007  1.1919 -0.5561
  186POPC  C21721363   2.018   5.281   5.189 -0.4443  0.5628  0.1281
  186POPC  H17R21364   2.039   5.183   5.141 -0.2726  0.3265  0.6775
  186POPC  H17S21365   2.113   5.322   5.230 -0.7700  1.2599  0.2027
  186POPC  C21821366   1.942   5.373   5.101 -0.1568 -0.2229 -0.5751
  186POPC  H18R21367   2.017   5.429   5.041  2.0095  0.8117  2.7620
  186POPC  H18S21368   1.880   5.456   5.143  0.7565  0.6368 -0.8833
  186POPC  H18T21369   1.889   5.316   5.022 -0.6645 -0.7370  0.1230
  186POPC   C3321370   2.093   4.788   6.331 -0.2524  0.8123 -0.2131
  186POPC   H3X21371   2.065   4.683   6.306  1.6768 -0.0156  0.9191
  186POPC   H3Y21372   2.204   4.784   6.341 -0.2301 -4.1659  0.0309
  186POPC   C3421373   2.050   4.862   6.204  0.1594 -0.5756 -0.0603
  186POPC   H4X21374   2.057   4.972   6.223 -0.5518 -0.6288  0.5676
  186POPC   H4Y21375   1.949   4.843   6.163  0.5122 -0.3408 -1.0700
  186POPC   C3521376   2.149   4.844   6.089 -0.1579  0.2501  0.0871
  186POPC   H5X21377   2.161   4.742   6.048 -1.5719  0.5035 -1.0425
  186POPC   H5Y21378   2.249   4.880   6.119  0.5141 -0.4772 -1.1794
  186POPC   C3621379   2.121   4.926   5.953 -1.0253 -0.9540 -0.3987
  186POPC   H6X21380   2.151   5.030   5.974  0.6691 -2.0463  3.5480
  186POPC   H6Y21381   2.013   4.928   5.928 -1.5752 -1.2461  1.7980
  186POPC   C3721382   2.208   4.882   5.837  0.0999  0.2186 -0.2178
  186POPC   H7X21383   2.184   4.774   5.838  2.6355 -0.4963 -2.6654
  186POPC   H7Y21384   2.312   4.921   5.846 -0.3916  1.1031  2.2938
  186POPC   C3821385   2.150   4.933   5.706  0.0490 -0.4600  0.4418
  186POPC   H8X21386   2.111   5.037   5.708  0.6319 -0.1132 -2.1775
  186POPC   H8Y21387   2.073   4.860   5.672  1.8590 -2.9518  1.4423
  186POPC   C3921388   2.266   4.927   5.605  0.3163 -0.5808  0.0331
  186POPC   H9X21389   2.290   4.819   5.595  0.6483 -0.3169 -3.5577
  186POPC   H9Y21390   2.362   4.973   5.637  0.1212 -0.4318  0.4035
  186POPC  C31021391   2.234   4.978   5.466  0.5223  0.1828 -0.5680
  186POPC  H10X21392   2.201   5.084   5.467  2.0391  0.7328 -3.0032
  186POPC  H10Y21393   2.157   4.908   5.426  0.5050  1.5953 -3.1823
  186POPC  C31121394   2.347   4.981   5.364 -0.0450  1.1088  0.0520
  186POPC  H11X21395   2.398   4.883   5.361  1.1096  1.7032 -0.4371
  186POPC  H11Y21396   2.422   5.059   5.389  0.6492  0.9137 -1.3297
  186POPC  C31221397   2.297   5.007   5.216  0.3445  0.4228 -0.1000
  186POPC  H12X21398   2.274   5.116   5.213 -0.0547  0.4670  2.1377
  186POPC  H12Y21399   2.204   4.948   5.201  0.3283  0.2172  0.7435
  186POPC  C31321400   2.395   4.957   5.104 -0.2132  0.2983  0.3971
  186POPC  H13X21401   2.435   4.865   5.150 -0.8548  0.0605  0.4906
  186POPC  H13Y21402   2.484   5.024   5.104 -0.6577  0.8977  0.2220
  186POPC  C31421403   2.339   4.936   4.966  0.7600  0.0171  0.1519
  186POPC  H14X21404   2.263   4.856   4.959  1.9733 -1.1243 -0.3257
  186POPC  H14Y21405   2.424   4.929   4.894  0.8440  2.2846 -0.0462
  186POPC  C31521406   2.261   5.064   4.919 -0.5641 -0.6649  0.4074
  186POPC  H15X21407   2.180   5.081   4.994 -0.8974 -0.8757  0.0989
  186POPC  H15Y21408   2.202   5.047   4.827  0.5520 -0.4435 -0.3624
  186POPC  C31621409   2.340   5.195   4.895 -0.2309 -0.0999  0.0985
  186POPC  H16X21410   2.399   5.190   4.801 -2.0893  1.7049 -1.2356
  186POPC  H16Y21411   2.419   5.210   4.973  0.3669 -0.8086 -0.3543
  186POPC  H16Z21412   2.276   5.284   4.879 -0.2315  0.0186  0.7084
  187POPC     N21413   5.028   1.709   2.346 -0.0079 -0.7828  0.0397
  187POPC   C1221414   5.151   1.761   2.417  0.5909 -0.1920 -0.3128
  187POPC  H12A21415   5.198   1.843   2.365  2.7970 -0.6437  0.8425
  187POPC  H12B21416   5.218   1.677   2.426 -0.7472 -1.2524  0.2047
  187POPC   C1321417   4.958   1.605   2.419  0.6063 -0.1238 -0.0510
  187POPC  H13A21418   4.943   1.640   2.520 -1.6082 -2.1503  0.3881
  187POPC  H13B21419   4.857   1.585   2.389 -0.0913  2.2842  0.4611
  187POPC  H13C21420   5.009   1.510   2.419 -0.0945 -0.5071  0.2289
  187POPC   C1421421   4.939   1.820   2.313  0.5098  0.0236  0.2322
  187POPC  H14A21422   4.985   1.889   2.244  2.8167 -0.8637  0.7721
  187POPC  H14B21423   4.847   1.782   2.273  0.8580 -1.0050  0.3724
  187POPC  H14C21424   4.901   1.872   2.400 -2.4444  1.4398 -1.7548
  187POPC   C1521425   5.055   1.645   2.213  0.0065 -0.0504 -0.1986
  187POPC  H15A21426   4.959   1.612   2.175 -0.7268 -0.5188  1.9470
  187POPC  H15B21427   5.104   1.551   2.235 -0.0159  0.0597  0.3247
  187POPC  H15C21428   5.102   1.711   2.141 -0.3313 -0.1383 -0.5002
  187POPC   C1121429   5.124   1.809   2.562  0.2286 -0.1952  0.1466
  187POPC  H11A21430   5.221   1.833   2.612  0.1595 -0.4975  0.4319
  187POPC  H11B21431   5.067   1.730   2.616  0.9170 -0.9428 -0.2059
  187POPC     P21432   4.959   1.973   2.676  0.0824 -0.2470 -0.5167
  187POPC   O1321433   4.866   1.858   2.685  0.0415 -0.0211  0.6022
  187POPC   O1421434   4.913   2.113   2.652  0.5758 -0.2511  0.0009
  187POPC   O1221435   5.059   1.934   2.563  0.2547  0.3472  0.4104
  187POPC   O1121436   5.052   1.987   2.799 -0.2388  0.8350 -0.3644
  187POPC    C121437   5.010   1.965   2.934 -0.3107  0.2867 -0.1801
  187POPC    HA21438   5.044   1.867   2.974 -0.7062  0.5020  0.7097
  187POPC    HB21439   4.899   1.966   2.944 -0.7728 -0.5705 -3.6694
  187POPC    C221440   5.074   2.074   3.023 -0.6063  0.9253 -0.0721
  187POPC    HS21441   5.184   2.061   3.008 -0.6242  0.6029  0.0683
  187POPC   O2121442   5.036   2.050   3.158  0.5651 -0.1038  0.5217
  187POPC   C2121443   5.117   2.090   3.251 -0.6376  0.4778 -1.2195
  187POPC   O2221444   5.231   2.139   3.236  1.0488  0.1439  0.1791
  187POPC   C2221445   5.060   2.049   3.384 -0.1742 -0.3017  0.5077
  187POPC   H2R21446   5.043   1.939   3.375  0.4974 -0.2652 -1.9015
  187POPC   H2S21447   4.957   2.092   3.391  0.3494  1.2390 -0.5795
  187POPC    C321448   5.031   2.217   2.990  0.8025  0.2419  0.3401
  187POPC    HX21449   5.042   2.218   2.880 -2.2098  2.2533 -0.0876
  187POPC    HY21450   5.104   2.289   3.034  0.3164  0.9269  0.0429
  187POPC   O3121451   4.891   2.249   3.029  0.0261  0.3157 -0.0940
  187POPC   C3121452   4.877   2.323   3.136 -0.0385 -0.0288 -0.4625
  187POPC   O3221453   4.969   2.365   3.209 -0.5720  0.5971 -0.2166
  187POPC   C3221454   4.731   2.347   3.173 -0.3395 -0.3334  0.0651
  187POPC   H2X21455   4.665   2.259   3.160 -1.1173  0.3723 -0.8743
  187POPC   H2Y21456   4.692   2.430   3.110 -0.3099  0.1000  0.6143
  187POPC   C2321457   5.140   2.101   3.506  0.0011  0.3144 -0.8103
  187POPC   H3R21458   5.127   2.211   3.510 -0.2921  0.3876 -2.8380
  187POPC   H3S21459   5.246   2.069   3.502  0.6794  1.7285  2.3460
  187POPC   C2421460   5.094   2.045   3.638 -0.0478 -1.0746  0.2055
  187POPC   H4R21461   5.092   1.934   3.631  1.3422 -1.1339  0.6142
  187POPC   H4S21462   4.989   2.071   3.665 -0.2147 -1.1424 -0.3572
  187POPC   C2521463   5.189   2.062   3.760 -0.6080  0.3764  0.0792
  187POPC   H5R21464   5.228   2.165   3.754  1.0689 -0.2385 -0.1009
  187POPC   H5S21465   5.275   1.997   3.731 -0.5917  0.9355 -1.1853
  187POPC   C2621466   5.134   2.014   3.898 -0.0607 -0.4069 -0.0678
  187POPC   H6R21467   5.091   1.913   3.880  1.5440 -0.9868 -0.8513
  187POPC   H6S21468   5.052   2.083   3.926  0.8665  0.0438  1.6329
  187POPC   C2721469   5.246   2.005   4.002 -0.6220 -0.2207  0.1718
  187POPC   H7R21470   5.307   2.096   3.982  1.0366 -0.9136  1.7683
  187POPC   H7S21471   5.308   1.918   3.974 -0.8023 -0.1962 -0.3002
  187POPC   C2821472   5.190   2.002   4.144 -0.8246  0.1783  0.9191
  187POPC   H8R21473   5.119   2.085   4.159 -0.0870  0.3868  3.8787
  187POPC   H8S21474   5.276   2.009   4.215 -1.0313  2.2990  1.0159
  187POPC   C2921475   5.111   1.873   4.161 -0.0026 -0.1650 -0.1507
  187POPC   H9121476   5.133   1.786   4.097 -3.6492 -1.2130 -0.2062
  187POPC  C21021477   5.013   1.852   4.250 -0.7088  0.5528 -1.2176
  187POPC  H10121478   4.962   1.754   4.250  0.9097 -0.6392  4.1865
  187POPC  C21121479   4.973   1.954   4.355  0.1537 -0.0697 -0.0968
  187POPC  H11R21480   5.015   2.057   4.346  2.2295 -0.7368  1.3253
  187POPC  H11S21481   5.000   1.910   4.454  1.0443 -1.2429 -0.8309
  187POPC  C21221482   4.821   1.967   4.364  0.4664  0.3473  0.4987
  187POPC  H12R21483   4.769   1.870   4.382  0.1874  0.3696 -0.1769
  187POPC  H12S21484   4.783   2.006   4.268  1.9499  2.4463  0.6849
  187POPC  C21321485   4.761   2.077   4.458  0.3297  0.4630  0.3933
  187POPC  H13R21486   4.653   2.052   4.459  0.2977  0.4886 -1.1466
  187POPC  H13S21487   4.762   2.180   4.418  1.9509  0.5578  0.6140
  187POPC  C21421488   4.791   2.075   4.605 -0.4476  0.4840 -0.0818
  187POPC  H14R21489   4.869   2.150   4.631 -0.8788  1.3498 -1.2213
  187POPC  H14S21490   4.835   1.976   4.629 -0.3139  0.4604 -0.4159
  187POPC  C21521491   4.661   2.100   4.689  0.2032 -0.3392  0.0645
  187POPC  H15R21492   4.590   2.016   4.676  0.4829 -0.4525 -0.8020
  187POPC  H15S21493   4.619   2.200   4.664 -1.6023 -0.8011  1.1219
  187POPC  C21621494   4.696   2.101   4.843 -0.7323 -0.5663 -0.4912
  187POPC  H16R21495   4.609   2.123   4.908  0.5681 -0.3501  1.2383
  187POPC  H16S21496   4.775   2.178   4.853 -0.2012 -1.2122  0.3919
  187POPC  C21721497   4.775   1.978   4.899 -0.4657 -0.0558 -0.0548
  187POPC  H17R21498   4.778   1.990   5.010 -0.3715 -0.4783 -0.0102
  187POPC  H17S21499   4.880   1.967   4.867 -0.5592 -0.9846 -0.0926
  187POPC  C21821500   4.722   1.835   4.869 -0.0877 -0.3067 -0.3249
  187POPC  H18R21501   4.613   1.828   4.888 -0.0397 -0.3630 -0.0657
  187POPC  H18S21502   4.767   1.758   4.936 -0.3891 -0.5740 -0.4242
  187POPC  H18T21503   4.734   1.810   4.761  1.7399 -2.0828  0.2248
  187POPC   C3321504   4.717   2.414   3.313 -0.0404 -0.1200  0.0254
  187POPC   H3X21505   4.610   2.440   3.330  0.2004  0.4673  0.6767
  187POPC   H3Y21506   4.773   2.509   3.322 -1.6543  1.0930 -1.8021
  187POPC   C3421507   4.745   2.314   3.432 -0.0429  0.3588  0.2895
  187POPC   H4X21508   4.847   2.271   3.424  0.0943  0.4018  1.5551
  187POPC   H4Y21509   4.677   2.227   3.437 -0.9388  1.0805  1.1263
  187POPC   C3521510   4.753   2.398   3.564  0.5484 -0.2036  0.3722
  187POPC   H5X21511   4.658   2.453   3.574 -0.0157 -1.0609 -0.1542
  187POPC   H5Y21512   4.830   2.477   3.555  1.0585 -0.7214  0.1211
  187POPC   C3621513   4.767   2.300   3.682  0.3308  0.6532 -0.3334
  187POPC   H6X21514   4.857   2.240   3.657  0.2970  1.6618 -3.2369
  187POPC   H6Y21515   4.682   2.229   3.693 -0.2988  1.5179  0.6402
  187POPC   C3721516   4.777   2.363   3.821 -0.0184  0.0791  0.0456
  187POPC   H7X21517   4.676   2.390   3.860 -0.0247 -0.4262  0.3844
  187POPC   H7Y21518   4.842   2.453   3.818  0.2797 -0.1230  0.3128
  187POPC   C3821519   4.843   2.267   3.925 -0.1218 -0.2424 -0.0174
  187POPC   H8X21520   4.952   2.255   3.906 -0.0080 -0.0094  0.4841
  187POPC   H8Y21521   4.782   2.175   3.920 -0.8018  0.2368 -1.0505
  187POPC   C3921522   4.820   2.305   4.071  0.3559 -0.4742 -0.1674
  187POPC   H9X21523   4.832   2.416   4.066 -1.9151 -0.1262  0.5660
  187POPC   H9Y21524   4.894   2.261   4.140  0.2364 -0.5088 -0.0606
  187POPC  C31021525   4.671   2.279   4.115  0.7419 -0.0807 -0.6946
  187POPC  H10X21526   4.659   2.172   4.141  1.1047 -0.6132 -2.5662
  187POPC  H10Y21527   4.611   2.290   4.022 -2.5423 -2.6508  0.9277
  187POPC  C31121528   4.632   2.372   4.228 -0.1335  1.0548  0.1785
  187POPC  H11X21529   4.637   2.479   4.197  1.2910  0.3847 -2.1348
  187POPC  H11Y21530   4.715   2.359   4.301  0.0831 -1.2682 -0.4076
  187POPC  C31221531   4.505   2.329   4.311 -0.0942  0.7540  0.1639
  187POPC  H12X21532   4.528   2.228   4.351  0.0097 -0.1098 -1.9270
  187POPC  H12Y21533   4.424   2.309   4.238  1.3763  2.1492 -1.9785
  187POPC  C31321534   4.468   2.424   4.424 -0.4153  0.0376  0.2751
  187POPC  H13X21535   4.418   2.514   4.383  2.7033  1.6223 -0.3329
  187POPC  H13Y21536   4.559   2.455   4.480 -1.6216  2.2005  1.1579
  187POPC  C31421537   4.362   2.363   4.516 -0.1365  0.5823 -0.0204
  187POPC  H14X21538   4.395   2.262   4.547 -0.9289  0.0531 -0.8407
  187POPC  H14Y21539   4.266   2.358   4.461  0.4496 -0.5080 -0.9635
  187POPC  C31521540   4.351   2.441   4.647 -0.2189 -0.6151  0.0611
  187POPC  H15X21541   4.445   2.480   4.692 -0.5234  0.2181 -0.0170
  187POPC  H15Y21542   4.313   2.371   4.725  0.2357 -0.5781  0.3226
  187POPC  C31621543   4.256   2.554   4.630  0.0663 -0.1598  0.7028
  187POPC  H16X21544   4.273   2.624   4.714 -1.6092  1.2555 -0.0744
  187POPC  H16Y21545   4.153   2.517   4.614 -0.4045  1.1330  0.6503
  187POPC  H16Z21546   4.274   2.616   4.539  0.7603 -2.4455 -0.7974
  188POPC     N21547   5.657   2.114   2.430  0.7084  0.3034  0.5359
  188POPC   C1221548   5.624   1.967   2.411 -0.8665  0.1439 -0.8949
  188POPC  H12A21549   5.702   1.909   2.458  1.2665  1.7792 -2.1896
  188POPC  H12B21550   5.628   1.936   2.308 -0.2075 -1.6348 -0.3637
  188POPC   C1321551   5.610   2.182   2.306  0.4877  0.3064  0.1273
  188POPC  H13A21552   5.655   2.141   2.217  0.8343  0.9610  0.0005
  188POPC  H13B21553   5.503   2.169   2.301  0.3749  0.0718  2.0685
  188POPC  H13C21554   5.622   2.289   2.312  1.8542  0.0922  3.8319
  188POPC   C1421555   5.588   2.177   2.545  0.4091 -0.1051  0.8647
  188POPC  H14A21556   5.481   2.167   2.544  0.2732  0.9442  1.9631
  188POPC  H14B21557   5.619   2.118   2.629  1.1153 -0.0145  0.6780
  188POPC  H14C21558   5.617   2.279   2.568  1.7194 -0.0206 -0.9355
  188POPC   C1521559   5.795   2.138   2.449  0.6061  0.1938 -1.1182
  188POPC  H15A21560   5.825   2.241   2.460  0.5022  0.2538 -1.3714
  188POPC  H15B21561   5.862   2.108   2.370  3.0099  1.7645  0.2215
  188POPC  H15C21562   5.834   2.071   2.524  0.4543 -1.2033 -2.2300
  188POPC   C1121563   5.486   1.927   2.454 -0.3045 -0.0007  0.3249
  188POPC  H11A21564   5.471   1.829   2.405 -0.3846 -0.3728  1.0884
  188POPC  H11B21565   5.409   1.992   2.407 -1.1455 -0.7844  0.5995
  188POPC     P21566   5.541   1.829   2.685  0.4004 -0.5181  0.3131
  188POPC   O1321567   5.623   1.924   2.752  0.0577 -0.4408  0.0162
  188POPC   O1421568   5.614   1.730   2.612  0.0452  0.4467  0.5055
  188POPC   O1221569   5.456   1.920   2.589  0.0480 -0.3867  0.2805
  188POPC   O1121570   5.440   1.765   2.793 -0.5481  0.6510  0.2498
  188POPC    C121571   5.353   1.843   2.880  0.0450  0.8099 -0.3649
  188POPC    HA21572   5.250   1.814   2.852  0.7662  0.9799 -3.7132
  188POPC    HB21573   5.358   1.953   2.860  1.4039  0.6367 -1.0892
  188POPC    C221574   5.386   1.835   3.029 -0.1926  0.7902 -0.3777
  188POPC    HS21575   5.332   1.915   3.083  0.4095  0.3878  0.8613
  188POPC   O2121576   5.524   1.849   3.063 -0.2144 -0.0242 -0.4583
  188POPC   C2121577   5.575   1.970   3.049 -0.1747  0.3410  0.2365
  188POPC   O2221578   5.510   2.070   3.008 -0.4060 -0.0042 -0.0398
  188POPC   C2221579   5.721   1.970   3.094  0.3549  0.5387 -0.3136
  188POPC   H2R21580   5.793   1.987   3.011  1.1656  0.5092  0.3621
  188POPC   H2S21581   5.739   1.870   3.139 -1.8050  0.4966  0.5878
  188POPC    C321582   5.338   1.709   3.081 -0.1914  0.1148 -0.0776
  188POPC    HX21583   5.418   1.633   3.064 -0.0609  0.7407 -2.5761
  188POPC    HY21584   5.243   1.680   3.032 -0.9031 -2.7827  2.6477
  188POPC   O3121585   5.318   1.714   3.227  0.2221  0.0447 -0.9192
  188POPC   C3121586   5.330   1.603   3.299  0.4078  0.4988  0.2744
  188POPC   O3221587   5.339   1.486   3.256 -0.0101 -0.1957  0.0331
  188POPC   C3221588   5.335   1.642   3.442  0.8891  0.2555 -0.3323
  188POPC   H2X21589   5.259   1.718   3.472 -0.9307 -1.5000 -0.3299
  188POPC   H2Y21590   5.435   1.685   3.467  0.3113  0.8309  1.1174
  188POPC   C2321591   5.744   2.086   3.202  0.0185 -0.4621 -0.0750
  188POPC   H3R21592   5.709   2.179   3.151  1.5945  0.7908  1.0264
  188POPC   H3S21593   5.852   2.110   3.197  0.2969 -1.8844 -3.4667
  188POPC   C2421594   5.679   2.074   3.340 -0.5481  0.0272  0.1008
  188POPC   H4R21595   5.575   2.040   3.324 -0.4660  0.2884 -1.0544
  188POPC   H4S21596   5.676   2.169   3.397  0.1567  0.4216 -0.4995
  188POPC   C2521597   5.761   1.978   3.433  0.1655  0.4010 -0.2992
  188POPC   H5R21598   5.854   2.034   3.456  1.2296 -1.7929  1.1723
  188POPC   H5S21599   5.801   1.886   3.385  1.7479  1.3761 -0.9551
  188POPC   C2621600   5.693   1.939   3.561  0.0265  0.0365 -0.4741
  188POPC   H6R21601   5.604   1.880   3.532  0.4507 -0.2252 -1.2663
  188POPC   H6S21602   5.664   2.029   3.619 -1.2213 -2.4661  3.1941
  188POPC   C2721603   5.779   1.847   3.656 -0.9834  0.0208  0.3475
  188POPC   H7R21604   5.871   1.905   3.678  0.4295 -2.3252  1.0117
  188POPC   H7S21605   5.832   1.767   3.600  1.0560  1.2081  0.5027
  188POPC   C2821606   5.697   1.789   3.773  0.0417 -0.8071 -0.3264
  188POPC   H8R21607   5.749   1.701   3.815 -1.4547 -1.4856  0.1828
  188POPC   H8S21608   5.592   1.768   3.743  0.1009 -2.5285  0.5238
  188POPC   C2921609   5.686   1.896   3.878 -0.9550 -0.6502  0.5040
  188POPC   H9121610   5.686   1.999   3.840 -1.0300 -1.2389 -1.1967
  188POPC  C21021611   5.688   1.896   4.012 -0.3073  0.0767  0.1103
  188POPC  H10121612   5.674   1.992   4.063 -2.6024 -1.3959  2.5407
  188POPC  C21121613   5.700   1.770   4.097  0.0703  0.4576 -0.2023
  188POPC  H11R21614   5.792   1.772   4.160 -0.1035 -1.4495  0.1718
  188POPC  H11S21615   5.716   1.681   4.032  1.9367  0.2759  0.4327
  188POPC  C21221616   5.582   1.737   4.191  0.4590  0.0569  0.4558
  188POPC  H12R21617   5.482   1.725   4.142  0.3083  0.6823  0.5991
  188POPC  H12S21618   5.566   1.829   4.250 -1.5073  1.0232 -1.4179
  188POPC  C21321619   5.611   1.621   4.289  0.0041 -0.2026  0.5460
  188POPC  H13R21620   5.693   1.638   4.362 -0.1792  1.3141  0.4234
  188POPC  H13S21621   5.617   1.525   4.233  1.1468 -0.7602  1.5912
  188POPC  C21421622   5.500   1.608   4.394 -0.1298 -0.0689  0.4754
  188POPC  H14R21623   5.411   1.567   4.340 -0.8617 -2.0002  2.9497
  188POPC  H14S21624   5.477   1.708   4.435 -2.1674  0.0093 -0.7151
  188POPC  C21521625   5.542   1.499   4.500 -0.2754  0.2715 -0.5621
  188POPC  H15R21626   5.468   1.472   4.579  2.5992 -1.7635  1.6296
  188POPC  H15S21627   5.632   1.538   4.551 -0.8525 -0.0554  0.7719
  188POPC  C21621628   5.591   1.356   4.435 -0.4245 -0.0688 -0.1492
  188POPC  H16R21629   5.618   1.281   4.512  0.6487  0.8349  0.3716
  188POPC  H16S21630   5.681   1.376   4.373  0.1759 -0.3706  0.6191
  188POPC  C21721631   5.489   1.289   4.341 -1.0736  0.4690  0.0548
  188POPC  H17R21632   5.436   1.366   4.282 -1.2944 -0.5984 -1.1775
  188POPC  H17S21633   5.419   1.236   4.409 -1.0734 -0.3046 -0.5263
  188POPC  C21821634   5.552   1.195   4.230  0.5747  0.1371  0.0416
  188POPC  H18R21635   5.482   1.147   4.157  1.4875 -1.9770  0.4662
  188POPC  H18S21636   5.604   1.118   4.291  1.3879  0.9123  0.3509
  188POPC  H18T21637   5.621   1.246   4.160  0.2225  0.4584 -0.0764
  188POPC   C3321638   5.316   1.517   3.530 -0.3235  0.2537 -0.1617
  188POPC   H3X21639   5.394   1.447   3.494 -1.4210 -0.6944 -0.7817
  188POPC   H3Y21640   5.218   1.464   3.528  0.6797 -1.6688  0.1639
  188POPC   C3421641   5.336   1.536   3.680 -0.4381 -0.1232  0.0581
  188POPC   H4X21642   5.437   1.574   3.707 -0.4719  0.6517 -0.8393
  188POPC   H4Y21643   5.335   1.434   3.723  1.1947 -0.4290 -0.5529
  188POPC   C3521644   5.228   1.624   3.742  0.2461 -0.2174  0.4062
  188POPC   H5X21645   5.130   1.621   3.690 -0.8829  0.6634  2.3636
  188POPC   H5Y21646   5.264   1.729   3.748 -1.4048  0.3190  1.5360
  188POPC   C3621647   5.192   1.601   3.886  0.1046  0.0370 -0.3188
  188POPC   H6X21648   5.124   1.683   3.918 -0.4168 -0.0926 -1.0685
  188POPC   H6Y21649   5.291   1.611   3.936  1.1625 -0.0107 -2.2902
  188POPC   C3721650   5.117   1.474   3.925  0.0886 -0.3437 -0.2809
  188POPC   H7X21651   5.168   1.390   3.873 -0.7850  0.4833 -2.5877
  188POPC   H7Y21652   5.013   1.466   3.885 -0.8471  0.6685  1.7517
  188POPC   C3821653   5.133   1.443   4.072  0.0875 -0.8691 -0.5807
  188POPC   H8X21654   5.128   1.540   4.125  3.4359 -0.3426 -0.9809
  188POPC   H8Y21655   5.236   1.406   4.096  0.3245  0.0205 -0.2006
  188POPC   C3921656   5.039   1.335   4.124  0.3969 -0.5968 -0.8919
  188POPC   H9X21657   5.057   1.238   4.073  0.8713 -1.8750  1.5189
  188POPC   H9Y21658   4.938   1.376   4.100  1.1495  2.0438  0.1005
  188POPC  C31021659   5.037   1.296   4.278  0.3295 -0.3583 -0.6379
  188POPC  H10X21660   5.129   1.235   4.290  0.8860  0.8018  1.5105
  188POPC  H10Y21661   4.957   1.229   4.317 -0.1766 -0.3114 -1.5723
  188POPC  C31121662   5.047   1.422   4.370 -0.8384 -0.1689  0.4353
  188POPC  H11X21663   4.960   1.490   4.356 -0.7277  0.0684  0.8761
  188POPC  H11Y21664   5.133   1.487   4.345 -1.0369  0.6278  1.7448
  188POPC  C31221665   5.064   1.377   4.517  0.4189  0.3279  0.4845
  188POPC  H12X21666   5.147   1.306   4.539  0.5447  0.3437  0.0730
  188POPC  H12Y21667   4.969   1.321   4.526  0.0605  0.7955 -0.3150
  188POPC  C31321668   5.066   1.499   4.609  0.2080  0.1721  0.0471
  188POPC  H13X21669   4.990   1.573   4.578  0.3434  0.7556  1.0643
  188POPC  H13Y21670   5.168   1.538   4.588  0.6913 -1.2827 -0.4254
  188POPC  C31421671   5.055   1.459   4.759  0.0289 -0.4122 -0.3208
  188POPC  H14X21672   4.959   1.407   4.780  0.1269 -0.5774 -0.2802
  188POPC  H14Y21673   5.067   1.549   4.823 -1.1081 -1.5904  1.6412
  188POPC  C31521674   5.162   1.353   4.795  0.2349 -0.3555  0.3120
  188POPC  H15X21675   5.263   1.390   4.768 -0.0167  0.9862  1.1026
  188POPC  H15Y21676   5.139   1.261   4.737 -0.4489 -0.5905  0.9429
  188POPC  C31621677   5.157   1.334   4.946 -0.2092  0.6272 -0.7668
  188POPC  H16X21678   5.228   1.263   4.992 -2.4491 -0.8681  0.5292
  188POPC  H16Y21679   5.057   1.292   4.968  0.4654  0.2467  1.9717
  188POPC  H16Z21680   5.159   1.431   5.000  0.0585  1.5001 -2.2765
  189SAPI   C1221681   6.728   4.776   7.448  0.2908  0.6474  0.5776
  189SAPI    H221682   6.813   4.786   7.378 -0.9145 -0.1840 -1.0834
  189SAPI    O221683   6.636   4.866   7.400  0.2668 -0.5129 -0.0295
  189SAPI   HO221684   6.663   4.954   7.426  1.3082 -1.1080  1.0058
  189SAPI   C1321685   6.674   4.636   7.428 -1.0706  0.3893  0.7145
  189SAPI    H321686   6.744   4.561   7.468 -2.0001 -0.1396  1.3733
  189SAPI    O321687   6.655   4.614   7.295  0.1666  0.0217  0.7721
  189SAPI   HO321688   6.589   4.680   7.272 -1.0063 -0.2430  3.0784
  189SAPI   C1421689   6.547   4.621   7.504 -0.1727  0.8922  0.1582
  189SAPI    H421690   6.461   4.679   7.465 -1.7425 -2.2562 -1.4058
  189SAPI    O421691   6.506   4.487   7.498 -0.0203  0.0877  0.2741
  189SAPI   HO421692   6.437   4.489   7.431  1.2435 -1.2204 -1.1427
  189SAPI   C1521693   6.552   4.667   7.650 -0.0184  0.4295  0.5514
  189SAPI    H521694   6.594   4.574   7.694  1.0494  0.1842 -0.9399
  189SAPI    O521695   6.419   4.682   7.707 -0.4270 -0.2071  0.0518
  189SAPI   HO521696   6.420   4.710   7.799 -2.4959  2.7383 -0.6418
  189SAPI   C1621697   6.639   4.788   7.670 -0.0439 -0.0051 -0.0795
  189SAPI    H621698   6.573   4.873   7.643 -0.1860  0.5251  1.7674
  189SAPI    O621699   6.683   4.797   7.805 -0.2248  0.5923 -0.1242
  189SAPI   HO621700   6.723   4.884   7.817 -1.0459  0.7748  1.6509
  189SAPI   C1121701   6.761   4.792   7.594  0.7947 -0.3659 -0.0326
  189SAPI    H121702   6.809   4.696   7.624  1.3224  0.1744  0.8855
  189SAPI     P21703   6.997   4.915   7.579 -0.3900  0.2046  0.2368
  189SAPI   O1321704   7.069   4.805   7.639  0.1820 -0.4102  0.2905
  189SAPI   O1421705   7.050   5.048   7.618 -0.0430  0.2973  0.2671
  189SAPI   O1221706   6.841   4.915   7.620  0.1918  0.0396  0.0295
  189SAPI   O1121707   6.995   4.908   7.418  0.5113  0.3934  0.1683
  189SAPI    C121708   7.112   4.856   7.348  0.3393 -0.7180 -0.3206
  189SAPI    HA21709   7.195   4.927   7.367  0.2411 -0.6361 -0.2012
  189SAPI    HB21710   7.138   4.753   7.380  1.8528 -0.4553 -0.6516
  189SAPI    C221711   7.089   4.830   7.198 -0.9304 -0.0109 -0.1244
  189SAPI    HS21712   7.180   4.779   7.159 -0.6320 -0.0565  0.6131
  189SAPI   O2121713   7.068   4.949   7.118 -0.8939 -0.4133  1.0286
  189SAPI   C2121714   7.116   4.950   6.987 -0.2776 -0.0023  0.4544
  189SAPI   O2221715   7.180   4.867   6.930  0.0578 -0.3952 -0.1598
  189SAPI   C2221716   7.063   5.083   6.923 -0.3784 -0.5059  0.2465
  189SAPI   H2R21717   6.955   5.088   6.946  0.0025  0.8019  2.0069
  189SAPI   H2S21718   7.114   5.168   6.974 -1.0203 -0.4548  0.8237
  189SAPI    C321719   6.965   4.737   7.175 -0.1628 -0.1566 -0.0358
  189SAPI    HX21720   6.880   4.803   7.205  0.5706 -0.1441  2.1784
  189SAPI    HY21721   6.972   4.648   7.241 -1.3406  0.0169  0.3481
  189SAPI   O3121722   6.945   4.715   7.036  0.4652  0.1785  0.7867
  189SAPI   C3121723   6.995   4.598   6.991 -0.0104  0.6309  0.0533
  189SAPI   O3221724   7.047   4.511   7.063  0.5466 -0.3143 -0.2834
  189SAPI   C3221725   6.976   4.586   6.844 -0.1366 -0.0359 -0.1184
  189SAPI   H2X21726   7.008   4.687   6.809  0.9652  0.0826  1.1782
  189SAPI   H2Y21727   6.869   4.568   6.819 -0.1705  0.4566 -0.3547
  189SAPI   C2321728   7.096   5.091   6.766  0.5201  0.1272  0.1641
  189SAPI   H3R21729   7.034   5.012   6.718  0.0837 -0.5342  1.7487
  189SAPI   H3S21730   7.201   5.060   6.743  0.0284  0.1765 -2.4557
  189SAPI   C2421731   7.044   5.220   6.704  0.0618  0.4115 -0.0367
  189SAPI   H4R21732   6.950   5.234   6.760  0.4170 -0.6649  0.8662
  189SAPI   H4S21733   7.023   5.187   6.599 -0.1903 -1.4270  0.5548
  189SAPI   C2521734   7.139   5.336   6.723 -0.3751  0.4921  0.7570
  189SAPI   H5R21735   7.190   5.336   6.821 -0.3405  0.4196  0.7390
  189SAPI   C2621736   7.148   5.436   6.635  0.2604 -0.9117 -0.2151
  189SAPI   H6R21737   7.215   5.519   6.664 -1.3552  0.0554  0.9137
  189SAPI   C2721738   7.073   5.458   6.504 -0.0484  0.4514  0.4231
  189SAPI   H7R21739   6.987   5.519   6.539  0.4817  0.9161  0.9638
  189SAPI   H7S21740   7.013   5.370   6.474  2.1410 -1.2429  0.7309
  189SAPI   C2821741   7.145   5.522   6.398  0.4379 -0.5987 -0.1542
  189SAPI   H8R21742   7.164   5.629   6.418 -0.0377 -0.2653 -1.3964
  189SAPI   C2921743   7.190   5.464   6.285  1.4476 -0.2847 -0.1798
  189SAPI   H9R21744   7.261   5.517   6.220 -0.8125  0.4633 -2.1914
  189SAPI  C21021745   7.172   5.320   6.248 -0.4761 -0.6735 -0.7247
  189SAPI  H10R21746   7.086   5.309   6.178 -0.5863  3.8252 -1.5725
  189SAPI  H10S21747   7.128   5.266   6.335 -1.3647  2.0750  0.6431
  189SAPI  C21121748   7.298   5.243   6.202  0.1209 -0.5512 -0.0732
  189SAPI  H11R21749   7.338   5.166   6.269 -1.3074 -0.1725  1.2830
  189SAPI  C21221750   7.356   5.246   6.081 -0.2340 -0.4224  0.6212
  189SAPI  H12R21751   7.442   5.178   6.072  0.1797  0.0597  0.9095
  189SAPI  C21321752   7.324   5.332   5.957 -0.6311 -0.5114 -0.1679
  189SAPI  H13R21753   7.416   5.386   5.924  0.3741 -1.6333  0.6963
  189SAPI  H13S21754   7.258   5.417   5.985  1.7323  1.2569  0.4205
  189SAPI  C21421755   7.264   5.256   5.840 -0.1397  0.0771 -0.2986
  189SAPI  H14R21756   7.156   5.274   5.842  0.3500  4.2474 -1.3617
  189SAPI  C21521757   7.318   5.171   5.753 -0.1815 -0.2741 -0.3919
  189SAPI  H15R21758   7.254   5.111   5.688  0.9365 -1.8737 -0.0702
  189SAPI  C21621759   7.468   5.140   5.742 -0.0058 -0.6928  0.0698
  189SAPI  H16R21760   7.486   5.037   5.779  0.4299 -1.0772 -1.1433
  189SAPI  H16S21761   7.534   5.202   5.805  0.9090 -0.6192 -0.9233
  189SAPI  C21721762   7.496   5.133   5.589 -0.1323 -0.0650  0.3796
  189SAPI  H17R21763   7.432   5.060   5.535 -0.0533 -0.5329  0.9088
  189SAPI  H17S21764   7.599   5.098   5.562 -0.4703  0.5350 -1.9101
  189SAPI  C21821765   7.492   5.274   5.520 -0.3703  0.7469  0.0532
  189SAPI  H18R21766   7.534   5.341   5.598  0.8736  0.5345 -0.4195
  189SAPI  H18S21767   7.382   5.292   5.514 -0.3514  0.5503 -1.3648
  189SAPI  C21921768   7.560   5.281   5.383 -0.2424 -0.3535 -0.3580
  189SAPI  H19R21769   7.669   5.261   5.383 -0.4672 -1.7072 -0.1951
  189SAPI  H19S21770   7.556   5.386   5.347  0.2225 -1.2180 -3.1699
  189SAPI  C22021771   7.489   5.186   5.282  0.3068 -0.0503 -0.7941
  189SAPI  H20R21772   7.387   5.227   5.272  0.2138  0.3192  1.2887
  189SAPI  H20S21773   7.469   5.093   5.339 -1.0645 -0.7776 -2.3897
  189SAPI  H20T21774   7.548   5.157   5.192 -0.9131  0.1102 -1.6728
  189SAPI   C3321775   7.069   4.476   6.796  0.1098  0.4960  0.6113
  189SAPI   H3X21776   7.018   4.380   6.820  1.0477  0.4117  2.5068
  189SAPI   H3Y21777   7.169   4.481   6.846 -0.8001  1.3795  2.4387
  189SAPI   C3421778   7.080   4.467   6.641 -0.2131 -0.5727 -0.9186
  189SAPI   H4X21779   6.988   4.424   6.596  0.1164  0.4948 -2.6929
  189SAPI   H4Y21780   7.160   4.394   6.615 -0.7981 -1.3803 -0.5163
  189SAPI   C3521781   7.098   4.604   6.563 -0.0125  0.2233 -0.5229
  189SAPI   H5X21782   7.166   4.666   6.626 -0.3429  1.0790 -0.9946
  189SAPI   H5Y21783   6.997   4.648   6.559 -0.2669 -0.1205  1.2220
  189SAPI   C3621784   7.159   4.589   6.425  0.0399 -0.1183  0.0238
  189SAPI   H6X21785   7.078   4.549   6.359  0.6550 -1.5847  0.1135
  189SAPI   H6Y21786   7.251   4.527   6.419  0.6876  0.8349  0.0359
  189SAPI   C3721787   7.198   4.727   6.372 -0.1290  0.5039  0.4392
  189SAPI   H7X21788   7.279   4.768   6.435 -0.5515  2.0053  0.0617
  189SAPI   H7Y21789   7.111   4.794   6.391 -0.4201  0.8109 -1.6996
  189SAPI   C3821790   7.240   4.719   6.222 -0.4304 -0.2386  0.4674
  189SAPI   H8X21791   7.143   4.682   6.184 -1.4421 -0.3412  2.9672
  189SAPI   H8Y21792   7.314   4.640   6.195 -0.6986  0.3965 -2.5302
  189SAPI   C3921793   7.296   4.850   6.172 -0.0462  0.0845 -0.1882
  189SAPI   H9X21794   7.382   4.869   6.240 -0.2121 -1.4474  0.5074
  189SAPI   H9Y21795   7.222   4.932   6.176 -0.8191 -0.5810 -0.5218
  189SAPI  C31021796   7.366   4.838   6.033 -0.0615  0.4611 -0.2680
  189SAPI  H10X21797   7.451   4.767   6.045  2.4060  3.0984 -0.9861
  189SAPI  H10Y21798   7.416   4.930   5.995  1.1773 -0.0144  0.1450
  189SAPI  C31121799   7.275   4.773   5.921  0.0182  0.2594 -0.2640
  189SAPI  H11X21800   7.185   4.834   5.899 -2.1817 -2.2143  1.3293
  189SAPI  H11Y21801   7.229   4.680   5.959  2.0484  0.3797  2.9234
  189SAPI  C31221802   7.347   4.751   5.786  0.3367  0.1100 -0.1621
  189SAPI  H12X21803   7.444   4.704   5.813 -0.5476 -0.2658  2.7124
  189SAPI  H12Y21804   7.370   4.846   5.732 -1.0187  0.2991 -0.4319
  189SAPI  C31321805   7.273   4.673   5.677 -0.0481  0.0562  0.2875
  189SAPI  H13X21806   7.167   4.707   5.668  0.0304  0.1659 -0.2059
  189SAPI  H13Y21807   7.262   4.565   5.699 -1.1181  0.5302  2.3914
  189SAPI  C31421808   7.324   4.704   5.537 -0.0466  0.4076  0.2084
  189SAPI  H14X21809   7.431   4.675   5.533  0.0710  0.8225  0.2958
  189SAPI  H14Y21810   7.293   4.809   5.517 -1.2955  0.3659  1.7120
  189SAPI  C31521811   7.258   4.624   5.421  0.0780  0.4907  0.0017
  189SAPI  H15X21812   7.148   4.626   5.433  0.1009  0.3247  0.2464
  189SAPI  H15Y21813   7.297   4.522   5.440  0.8734  0.5921 -0.9575
  189SAPI  C31621814   7.289   4.667   5.278 -0.0545 -0.8611  0.2019
  189SAPI  H16X21815   7.382   4.615   5.245  0.5134  0.1806  0.1101
  189SAPI  H16Y21816   7.300   4.778   5.273 -1.5656 -0.7421 -0.9831
  189SAPI  C31721817   7.186   4.621   5.178  0.3417  1.0592  0.0127
  189SAPI  H17X21818   7.081   4.645   5.208 -0.3449  0.6248 -1.9346
  189SAPI  H17Y21819   7.183   4.510   5.174 -3.0729  0.9584  1.5210
  189SAPI  C31821820   7.205   4.683   5.037 -0.3493 -0.9391 -0.1628
  189SAPI  H18X21821   7.128   4.646   4.967 -0.9935  1.6523 -0.9323
  189SAPI  H18Y21822   7.308   4.660   5.000  0.1509  2.3867 -1.1296
  189SAPI  H18Z21823   7.203   4.793   5.046 -3.6945 -1.1004  3.1437
  190SAPI   C1221824   1.418   0.667   7.507  0.1572  0.3372  0.0042
  190SAPI    H221825   1.387   0.750   7.573 -0.9021 -1.6429  2.1601
  190SAPI    O221826   1.550   0.695   7.454  0.0490  0.2479 -0.4475
  190SAPI   HO221827   1.543   0.772   7.398  0.8984  0.5901 -0.1052
  190SAPI   C1321828   1.414   0.530   7.585 -0.1710 -0.2210  0.0237
  190SAPI    H321829   1.307   0.513   7.609 -0.1796 -1.3847 -0.7510
  190SAPI    O321830   1.493   0.534   7.705 -0.2437  0.0035 -0.1413
  190SAPI   HO321831   1.580   0.528   7.664  0.2903  0.0256  0.9290
  190SAPI   C1421832   1.454   0.413   7.504 -0.3408 -0.3190 -0.0236
  190SAPI    H421833   1.563   0.422   7.485 -0.4681  0.9208 -0.2491
  190SAPI    O421834   1.440   0.288   7.571  0.5901 -0.0185 -0.0393
  190SAPI   HO421835   1.519   0.233   7.573 -0.4147 -1.5696 -0.5662
  190SAPI   C1521836   1.388   0.411   7.369 -0.0079 -0.1739  0.0491
  190SAPI    H521837   1.293   0.354   7.371 -1.4770  1.9101 -2.6645
  190SAPI    O521838   1.471   0.341   7.275  0.0634  0.3191 -0.0704
  190SAPI   HO521839   1.560   0.332   7.311 -0.1380 -2.6877 -0.1128
  190SAPI   C1621840   1.337   0.544   7.302 -0.3550 -0.0907  0.9680
  190SAPI    H621841   1.422   0.559   7.232  0.6779 -3.0603  1.4421
  190SAPI    O621842   1.222   0.510   7.220  0.6352  0.1312 -0.4448
  190SAPI   HO621843   1.223   0.555   7.135 -0.0212  0.8530 -0.0819
  190SAPI   C1121844   1.317   0.662   7.390 -0.6058  1.0359  0.4653
  190SAPI    H121845   1.214   0.638   7.424 -0.7659  1.2197  0.1113
  190SAPI     P21846   1.207   0.836   7.204 -0.0077  0.5803 -0.3451
  190SAPI   O1321847   1.220   0.982   7.187 -0.1220  0.0357 -0.1609
  190SAPI   O1421848   1.075   0.790   7.252  0.0273 -0.3291  0.1643
  190SAPI   O1221849   1.320   0.790   7.328 -0.3229 -0.3797  0.7485
  190SAPI   O1121850   1.256   0.745   7.081 -0.2909  0.2493 -0.5353
  190SAPI    C121851   1.376   0.769   7.016 -0.4614 -0.4222 -0.2681
  190SAPI    HA21852   1.455   0.818   7.076 -1.1616  2.0740 -1.2830
  190SAPI    HB21853   1.416   0.681   6.961 -0.7738 -0.2106 -0.8385
  190SAPI    C221854   1.359   0.882   6.908 -0.7877  0.7455  0.1649
  190SAPI    HS21855   1.318   0.972   6.958 -2.8134 -0.5684  0.9745
  190SAPI   O2121856   1.272   0.822   6.802 -0.3576 -0.4128 -0.4951
  190SAPI   C2121857   1.216   0.908   6.722 -0.5670  0.3117 -0.3321
  190SAPI   O2221858   1.230   1.031   6.716  0.2579 -0.5790 -0.0232
  190SAPI   C2221859   1.148   0.826   6.616 -0.2029 -0.0124 -0.2316
  190SAPI   H2R21860   1.145   0.719   6.647  0.5446 -0.0393 -0.2248
  190SAPI   H2S21861   1.044   0.866   6.614  0.0472  0.7594  1.3445
  190SAPI    C321862   1.496   0.914   6.845 -0.2040  0.5208  0.4851
  190SAPI    HX21863   1.559   0.957   6.926 -0.1000 -1.8032  1.7153
  190SAPI    HY21864   1.485   0.998   6.773 -0.5460  0.5883  0.6141
  190SAPI   O3121865   1.558   0.808   6.776  0.3263 -0.8741  0.1517
  190SAPI   C3121866   1.666   0.757   6.821 -0.2991 -0.6622 -0.0517
  190SAPI   O3221867   1.739   0.809   6.906 -0.0993  0.2687 -0.5966
  190SAPI   C3221868   1.697   0.632   6.741  0.0622  0.4609  0.5732
  190SAPI   H2X21869   1.616   0.588   6.679  0.8448  2.2259 -1.8709
  190SAPI   H2Y21870   1.743   0.554   6.805 -1.5216  0.2837  1.5297
  190SAPI   C2321871   1.210   0.825   6.468  0.4494  0.4770 -0.0177
  190SAPI   H3R21872   1.189   0.926   6.428 -0.0791  1.0299  1.5531
  190SAPI   H3S21873   1.158   0.753   6.402  1.3815 -1.6526  1.4312
  190SAPI   C2421874   1.359   0.789   6.458  0.5902  0.2120  0.2804
  190SAPI   H4R21875   1.412   0.859   6.526  0.4689  0.4279  0.1566
  190SAPI   H4S21876   1.381   0.806   6.351  2.1894  0.3964  0.6183
  190SAPI   C2521877   1.386   0.644   6.482  0.4433 -0.4087 -0.0976
  190SAPI   H5R21878   1.412   0.625   6.587 -1.0550 -0.5226  0.2746
  190SAPI   C2621879   1.368   0.547   6.390  0.4746  0.4565  0.2188
  190SAPI   H6R21880   1.400   0.447   6.425  0.8475  0.4126 -0.2420
  190SAPI   C2721881   1.305   0.561   6.255  0.8404 -0.3341 -0.1517
  190SAPI   H7R21882   1.246   0.654   6.247 -0.2827 -1.0218 -0.0981
  190SAPI   H7S21883   1.231   0.479   6.242  0.1753  0.2936 -0.4091
  190SAPI   C2821884   1.401   0.541   6.141 -0.5630 -0.6225  0.0352
  190SAPI   H8R21885   1.506   0.516   6.164  0.6528  0.3619 -3.7795
  190SAPI   C2921886   1.374   0.557   6.008 -0.0015  0.6872 -0.3041
  190SAPI   H9R21887   1.459   0.535   5.942  1.4757 -0.3963  1.8324
  190SAPI  C21021888   1.244   0.604   5.944 -0.5760 -0.1797 -0.6813
  190SAPI  H10R21889   1.170   0.603   6.027 -0.8403  3.3078 -0.7585
  190SAPI  H10S21890   1.209   0.532   5.866 -1.6344 -0.6731  0.2260
  190SAPI  C21121891   1.256   0.742   5.884 -0.7059 -0.0185  0.1026
  190SAPI  H11R21892   1.196   0.820   5.934  3.9360  2.7670  2.0016
  190SAPI  C21221893   1.318   0.771   5.774 -0.1383  0.5251  1.1584
  190SAPI  H12R21894   1.311   0.875   5.738  1.4728  0.4399  0.5249
  190SAPI  C21321895   1.393   0.668   5.695 -0.0957  0.7637  0.1566
  190SAPI  H13R21896   1.426   0.579   5.751 -2.9286 -0.0180  0.7612
  190SAPI  H13S21897   1.481   0.715   5.646  0.2339  0.7225  0.6990
  190SAPI  C21421898   1.302   0.624   5.582 -0.1908 -0.0958  0.5461
  190SAPI  H14R21899   1.254   0.527   5.604 -1.0662  0.4240  0.9829
  190SAPI  C21521900   1.289   0.666   5.458 -0.2199  0.1333 -0.3566
  190SAPI  H15R21901   1.208   0.624   5.397  1.1571 -1.2675 -1.3073
  190SAPI  C21621902   1.379   0.771   5.397  0.1587 -0.3402 -0.6241
  190SAPI  H16R21903   1.479   0.779   5.444  0.3876  0.0136 -1.1524
  190SAPI  H16S21904   1.325   0.868   5.391  0.5462 -0.0809  0.0122
  190SAPI  C21721905   1.411   0.724   5.250  0.0758 -0.7781  0.6064
  190SAPI  H17R21906   1.433   0.616   5.240  0.2515 -0.6162 -1.0543
  190SAPI  H17S21907   1.516   0.757   5.234  0.1020 -1.9683 -2.3077
  190SAPI  C21821908   1.318   0.782   5.138  0.0278  0.0891  0.3773
  190SAPI  H18R21909   1.209   0.764   5.135 -0.0062  0.4283 -1.1149
  190SAPI  H18S21910   1.363   0.726   5.053  2.3053  0.9430  0.9383
  190SAPI  C21921911   1.337   0.927   5.099  0.0983 -0.2915 -1.0383
  190SAPI  H19R21912   1.443   0.941   5.069  0.9110 -1.7877  0.8647
  190SAPI  H19S21913   1.320   0.991   5.188  1.0467 -1.1428 -0.2124
  190SAPI  C22021914   1.261   0.962   4.974 -0.0644 -0.1112 -0.1091
  190SAPI  H20R21915   1.281   0.897   4.886 -0.7541  1.1943 -1.2667
  190SAPI  H20S21916   1.291   1.062   4.936  1.5267 -1.4720 -2.7273
  190SAPI  H20T21917   1.151   0.964   4.984 -0.0373  0.0146  0.1645
  190SAPI   C3321918   1.807   0.685   6.647  0.5107 -1.1165 -0.3332
  190SAPI   H3X21919   1.850   0.594   6.599 -1.7384 -2.7579  0.5398
  190SAPI   H3Y21920   1.879   0.752   6.699 -0.3539  0.3178 -0.9249
  190SAPI   C3421921   1.767   0.783   6.533  0.1651  0.3056 -0.8937
  190SAPI   H4X21922   1.860   0.835   6.500 -0.4036  1.1655 -1.2002
  190SAPI   H4Y21923   1.690   0.858   6.562 -0.2362  0.9463 -3.3418
  190SAPI   C3521924   1.710   0.703   6.411 -1.0390 -0.2805 -1.2803
  190SAPI   H5X21925   1.644   0.627   6.458 -1.4887  0.5556 -0.5398
  190SAPI   H5Y21926   1.801   0.656   6.368 -0.2025  0.4629 -0.3554
  190SAPI   C3621927   1.649   0.788   6.308  0.4227 -0.6630  0.0633
  190SAPI   H6X21928   1.602   0.874   6.359 -0.9063 -1.2718 -0.0836
  190SAPI   H6Y21929   1.577   0.740   6.237 -1.1650  0.4418  0.8737
  190SAPI   C3721930   1.753   0.872   6.225  0.3014  0.7683  0.6813
  190SAPI   H7X21931   1.829   0.799   6.189 -0.8441  0.8129 -2.1001
  190SAPI   H7Y21932   1.798   0.950   6.290  0.7481  0.0434  1.2542
  190SAPI   C3821933   1.684   0.945   6.106 -0.6986  0.0355 -0.6538
  190SAPI   H8X21934   1.726   1.046   6.127  0.3322 -0.2060 -1.4670
  190SAPI   H8Y21935   1.573   0.951   6.114 -0.8050 -2.3568  0.3831
  190SAPI   C3921936   1.717   0.883   5.971  0.3097  0.2753 -0.1734
  190SAPI   H9X21937   1.654   0.792   5.962 -0.9844  1.3233 -3.3182
  190SAPI   H9Y21938   1.825   0.857   5.968  0.1414 -0.3457 -1.0810
  190SAPI  C31021939   1.687   0.971   5.843 -0.6344  0.1642 -0.4965
  190SAPI  H10X21940   1.711   1.073   5.878  1.2252 -0.7736  1.2075
  190SAPI  H10Y21941   1.578   0.954   5.832 -0.3481 -0.8544 -2.0871
  190SAPI  C31121942   1.761   0.923   5.724  0.1486 -0.4262  0.5138
  190SAPI  H11X21943   1.740   0.814   5.711 -2.9844  0.0325  0.8875
  190SAPI  H11Y21944   1.869   0.932   5.746  0.6947 -0.5808 -1.8065
  190SAPI  C31221945   1.728   0.999   5.596 -0.6489 -0.8452 -0.3233
  190SAPI  H12X21946   1.780   1.096   5.605 -0.0462 -1.2550  0.7333
  190SAPI  H12Y21947   1.617   1.004   5.592 -0.7424  0.7446  2.3825
  190SAPI  C31321948   1.768   0.955   5.452 -0.1750 -0.0718 -0.6482
  190SAPI  H13X21949   1.765   0.846   5.429  1.0910  0.1615 -2.0820
  190SAPI  H13Y21950   1.878   0.967   5.446 -0.0582  1.4338  2.4793
  190SAPI  C31421951   1.699   1.034   5.345 -0.0639 -0.3048 -0.1353
  190SAPI  H14X21952   1.705   1.137   5.385  0.6181 -0.2822 -0.2856
  190SAPI  H14Y21953   1.598   0.999   5.314 -0.5232 -0.4067  1.4245
  190SAPI  C31521954   1.783   1.022   5.216  0.2020  0.0984 -0.2713
  190SAPI  H15X21955   1.883   1.058   5.247 -0.0500 -0.3013  1.0866
  190SAPI  H15Y21956   1.744   1.105   5.153 -0.4964  1.4784  1.8782
  190SAPI  C31621957   1.790   0.882   5.144 -0.3049  0.1771 -0.3032
  190SAPI  H16X21958   1.691   0.849   5.106  0.1805 -0.6367 -0.8667
  190SAPI  H16Y21959   1.829   0.801   5.209 -2.2472 -0.6466 -0.0995
  190SAPI  C31721960   1.879   0.893   5.022 -0.5896 -0.2337  0.4782
  190SAPI  H17X21961   1.985   0.891   5.055 -0.4807 -2.4104  0.1179
  190SAPI  H17Y21962   1.862   0.985   4.962  3.4627 -0.0430 -0.6923
  190SAPI  C31821963   1.842   0.775   4.926 -0.2282 -0.5520 -0.1464
  190SAPI  H18X21964   1.751   0.782   4.864 -1.6445  1.2383  1.9529
  190SAPI  H18Y21965   1.843   0.675   4.975 -1.3788  0.5269  2.2838
  190SAPI  H18Z21966   1.918   0.782   4.846 -0.0424  0.1881  0.0831
  191SAPI   C1221967   4.220   1.509   2.225  0.0972 -0.0836  0.3159
  191SAPI    H221968   4.179   1.449   2.310 -1.2814 -1.4499 -1.2535
  191SAPI    O221969   4.343   1.449   2.193 -0.0760 -0.1548  0.0019
  191SAPI   HO221970   4.391   1.450   2.276 -4.1171  2.7410  2.6225
  191SAPI   C1321971   4.134   1.488   2.102 -0.1271 -0.4052 -0.2013
  191SAPI    H321972   4.036   1.532   2.132  0.5100  0.6421  0.4250
  191SAPI    O321973   4.107   1.349   2.078  0.3122 -0.3075 -0.1601
  191SAPI   HO321974   4.194   1.319   2.052 -0.5663  0.2838 -4.4312
  191SAPI   C1421975   4.182   1.569   1.985  0.3146 -0.7125 -0.3113
  191SAPI    H421976   4.266   1.520   1.932  1.2669  2.4460 -1.9686
  191SAPI    O421977   4.073   1.578   1.890 -0.6155 -0.0601  0.3363
  191SAPI   HO421978   4.048   1.490   1.859  0.7053 -0.2365 -0.2801
  191SAPI   C1521979   4.226   1.713   2.023  0.2218  0.0467 -0.5584
  191SAPI    H521980   4.139   1.782   2.029  0.6329  0.5942 -0.7268
  191SAPI    O521981   4.319   1.757   1.929 -0.6828  0.5272 -0.1853
  191SAPI   HO521982   4.279   1.817   1.866  0.0245  1.3327  0.1124
  191SAPI   C1621983   4.297   1.733   2.161 -1.0631  0.7791  0.1017
  191SAPI    H621984   4.402   1.698   2.165 -0.2379  3.0374 -0.2916
  191SAPI    O621985   4.295   1.868   2.201 -0.4780  0.6387  0.0757
  191SAPI   HO621986   4.265   1.870   2.292 -0.5190 -3.0705  0.2947
  191SAPI   C1121987   4.237   1.651   2.269  0.7294  0.0668 -0.3268
  191SAPI    H121988   4.134   1.686   2.290 -0.2656 -2.4178 -0.6808
  191SAPI     P21989   4.308   1.743   2.510 -0.4732  0.5564 -0.3939
  191SAPI   O1321990   4.254   1.873   2.459 -0.2618  0.6677 -0.2837
  191SAPI   O1421991   4.433   1.743   2.585 -0.1049 -0.0023 -0.8547
  191SAPI   O1221992   4.320   1.639   2.384  0.0081 -0.4145 -0.1306
  191SAPI   O1121993   4.201   1.682   2.603 -0.1403  0.4879 -0.0102
  191SAPI    C121994   4.167   1.544   2.613 -0.4413 -0.0708  0.6460
  191SAPI    HA21995   4.073   1.535   2.553  1.1704 -1.2121 -1.9070
  191SAPI    HB21996   4.238   1.474   2.564  1.8390  2.4776  0.0828
  191SAPI    C221997   4.135   1.510   2.760  0.4978  0.0876  0.2033
  191SAPI    HS21998   4.097   1.406   2.768 -1.1669  0.6401 -0.0070
  191SAPI   O2121999   4.046   1.607   2.823  0.1178 -0.3082 -0.2138
  191SAPI   C2122000   3.961   1.556   2.914 -0.0898 -0.1278  0.0626
  191SAPI   O2222001   3.945   1.434   2.921 -0.2729 -0.3627 -0.4367
  191SAPI   C2222002   3.905   1.659   3.018 -0.0575  0.1540  0.3153
  191SAPI   H2R22003   3.943   1.759   2.990  2.3187 -0.3542  1.4093
  191SAPI   H2S22004   3.795   1.646   3.027  0.1115 -1.6267  0.2618
  191SAPI    C322005   4.268   1.511   2.839 -1.0941  0.8676 -0.8645
  191SAPI    HX22006   4.298   1.617   2.856 -1.1073  0.4921  1.9393
  191SAPI    HY22007   4.347   1.470   2.772 -0.3303 -0.3436  0.6924
  191SAPI   O3122008   4.261   1.446   2.969 -0.1792 -0.4769  0.2443
  191SAPI   C3122009   4.299   1.320   2.975 -0.3610  0.0480 -0.0799
  191SAPI   O3222010   4.332   1.250   2.880  0.1078 -0.6277 -0.1668
  191SAPI   C3222011   4.276   1.267   3.117 -0.8382  0.2359  0.0558
  191SAPI   H2X22012   4.179   1.309   3.153 -2.3606 -3.7252  1.2073
  191SAPI   H2Y22013   4.363   1.297   3.179  0.4045  0.3332 -1.6740
  191SAPI   C2322014   3.960   1.617   3.161 -0.0815  0.5040 -0.0260
  191SAPI   H3R22015   3.961   1.507   3.173  1.4588  0.3123 -1.5068
  191SAPI   H3S22016   3.891   1.645   3.244  0.2219 -0.7838  0.6803
  191SAPI   C2422017   4.100   1.677   3.184  0.1670  0.1688  0.7450
  191SAPI   H4R22018   4.079   1.786   3.177  0.5606  0.2009 -0.0266
  191SAPI   H4S22019   4.169   1.647   3.102 -2.3062 -1.9901 -0.6959
  191SAPI   C2522020   4.149   1.635   3.320  0.4505 -0.3439 -0.4334
  191SAPI   H5R22021   4.187   1.533   3.335 -0.7108 -0.6638  0.4598
  191SAPI   C2622022   4.132   1.709   3.429  0.2583 -0.1255 -0.6138
  191SAPI   H6R22023   4.163   1.664   3.525 -0.2189  1.7447  0.4745
  191SAPI   C2722024   4.074   1.847   3.447  0.5296  0.0383  0.4266
  191SAPI   H7R22025   4.020   1.861   3.543  2.7889  0.1865  1.7587
  191SAPI   H7S22026   4.006   1.873   3.363 -1.3333  1.1503  2.2135
  191SAPI   C2822027   4.186   1.949   3.442 -0.6857 -0.4649 -0.4985
  191SAPI   H8R22028   4.212   1.975   3.338  2.4241 -0.4690  0.1779
  191SAPI   C2922029   4.273   1.987   3.534  0.8365 -0.6562  0.1652
  191SAPI   H9R22030   4.361   2.046   3.505  0.0756  0.1493 -0.5525
  191SAPI  C21022031   4.259   1.955   3.679  0.1979 -0.3914  0.7103
  191SAPI  H10R22032   4.332   1.878   3.710  1.3432 -0.1905 -1.2756
  191SAPI  H10S22033   4.161   1.909   3.704  0.7645 -1.6757  0.6509
  191SAPI  C21122034   4.278   2.088   3.746 -0.4320 -0.9887 -0.2405
  191SAPI  H11R22035   4.209   2.162   3.705  0.5933  0.2516  0.2010
  191SAPI  C21222036   4.337   2.108   3.866 -0.1724 -0.2363 -0.0046
  191SAPI  H12R22037   4.336   2.210   3.907  1.0948 -0.2309  0.0797
  191SAPI  C21322038   4.419   2.005   3.940  0.6920 -0.2110 -0.6418
  191SAPI  H13R22039   4.453   2.049   4.036 -2.3613 -0.0943  0.5200
  191SAPI  H13S22040   4.512   1.982   3.885  0.5821  2.0731 -1.9420
  191SAPI  C21422041   4.349   1.881   3.981 -0.0961  0.0382  0.8761
  191SAPI  H14R22042   4.358   1.801   3.907 -0.8734 -0.6775  1.5356
  191SAPI  C21522043   4.306   1.843   4.107 -0.1341  0.3694  0.0295
  191SAPI  H15R22044   4.277   1.737   4.111 -1.6969  0.7533 -0.3477
  191SAPI  C21622045   4.290   1.926   4.227  0.1338  0.3861  0.0111
  191SAPI  H16R22046   4.184   1.955   4.243 -0.3884 -1.1340 -0.5221
  191SAPI  H16S22047   4.344   2.020   4.201 -0.1103  0.3677 -0.5786
  191SAPI  C21722048   4.361   1.862   4.351 -0.0190 -0.3451 -0.0163
  191SAPI  H17R22049   4.468   1.841   4.330  0.3565 -0.9958  2.2285
  191SAPI  H17S22050   4.316   1.767   4.389  1.2438 -0.6888  0.6790
  191SAPI  C21822051   4.355   1.954   4.478  0.0268 -0.2740 -0.5768
  191SAPI  H18R22052   4.372   2.053   4.430 -0.0680 -0.5954 -1.2798
  191SAPI  H18S22053   4.434   1.930   4.552 -0.1019 -0.0899 -0.3745
  191SAPI  C21922054   4.220   1.951   4.541  0.0372  0.7789  0.6219
  191SAPI  H19R22055   4.218   1.888   4.631 -1.0527 -2.6496 -1.6169
  191SAPI  H19S22056   4.133   1.929   4.476 -0.3306  1.2841  0.9382
  191SAPI  C22022057   4.187   2.094   4.592 -0.0511 -0.4757 -0.0396
  191SAPI  H20R22058   4.176   2.169   4.510 -1.5024 -0.0034  0.5541
  191SAPI  H20S22059   4.263   2.120   4.668 -1.0743  2.0513  0.2425
  191SAPI  H20T22060   4.091   2.099   4.647  0.6386 -0.5857  1.2058
  191SAPI   C3322061   4.268   1.117   3.099 -0.1168  1.0111 -0.3864
  191SAPI   H3X22062   4.365   1.062   3.093 -2.1001 -2.7562 -0.7317
  191SAPI   H3Y22063   4.214   1.080   3.010 -1.8627  0.8684  0.6853
  191SAPI   C3422064   4.178   1.050   3.210  0.1524 -0.0447 -0.6696
  191SAPI   H4X22065   4.077   1.094   3.196 -0.5236 -1.5712 -0.8605
  191SAPI   H4Y22066   4.222   1.069   3.310 -0.0511  1.4588 -0.8485
  191SAPI   C3522067   4.156   0.899   3.190  0.5384  0.3336  0.1053
  191SAPI   H5X22068   4.254   0.847   3.188  0.2556 -0.1903 -1.2911
  191SAPI   H5Y22069   4.119   0.897   3.085  1.7805  0.8514 -0.3667
  191SAPI   C3622070   4.075   0.828   3.296 -0.5183 -0.0284 -0.1677
  191SAPI   H6X22071   3.980   0.885   3.308 -1.1912 -0.7280 -1.8054
  191SAPI   H6Y22072   4.134   0.832   3.390 -0.1525  1.7024 -0.4377
  191SAPI   C3722073   4.046   0.687   3.253 -0.9692  0.4594 -0.6416
  191SAPI   H7X22074   4.141   0.629   3.245  0.0161  1.9647 -0.4695
  191SAPI   H7Y22075   3.993   0.685   3.156  1.4038 -1.5663 -2.0158
  191SAPI   C3822076   3.948   0.610   3.342  0.0400  0.0934 -0.0476
  191SAPI   H8X22077   3.924   0.507   3.307 -2.6851 -0.4123  2.8584
  191SAPI   H8Y22078   3.857   0.675   3.341  0.7487  1.3339  3.1950
  191SAPI   C3922079   3.985   0.598   3.496 -0.3245  0.1952  0.0035
  191SAPI   H9X22080   3.971   0.688   3.559  0.4959 -0.1410  0.6830
  191SAPI   H9Y22081   4.096   0.597   3.499 -0.1792  1.9503 -2.0641
  191SAPI  C31022082   3.925   0.472   3.560  0.0831  0.8852 -0.1430
  191SAPI  H10X22083   3.926   0.383   3.492  2.2378  0.7515 -0.0028
  191SAPI  H10Y22084   3.823   0.499   3.595  0.8768 -0.2892  3.5696
  191SAPI  C31122085   4.002   0.435   3.688 -0.5469 -0.7267  0.1461
  191SAPI  H11X22086   3.991   0.502   3.776 -1.3419  0.7609 -1.0393
  191SAPI  H11Y22087   4.110   0.427   3.663 -0.2242 -0.9404  1.4983
  191SAPI  C31222088   3.973   0.292   3.738 -0.2499 -0.4884 -0.3194
  191SAPI  H12X22089   4.051   0.253   3.806 -1.0134  1.7714  2.0343
  191SAPI  H12Y22090   3.974   0.227   3.648  0.2357  0.4971 -1.0370
  191SAPI  C31322091   3.855   0.289   3.837 -0.4838  0.2189  0.6605
  191SAPI  H13X22092   3.770   0.303   3.768 -0.0409  0.8293  0.2245
  191SAPI  H13Y22093   3.869   0.360   3.921 -1.3519 -2.4775  3.2767
  191SAPI  C31422094   3.856   0.147   3.913 -0.1236 -0.4484  0.4511
  191SAPI  H14X22095   3.883   0.066   3.842  0.4368  1.0256 -1.0980
  191SAPI  H14Y22096   3.753   0.126   3.947  0.6998 -1.0643  2.7638
  191SAPI  C31522097   3.946   0.154   4.045  0.1243 -0.1086  0.0497
  191SAPI  H15X22098   4.047   0.198   4.031 -0.4442  1.3986  0.5070
  191SAPI  H15Y22099   3.959   0.050   4.083 -0.3620  0.3270  1.4741
  191SAPI  C31622100   3.877   0.224   4.161 -0.3468 -0.5339  0.2169
  191SAPI  H16X22101   3.766   0.218   4.165 -0.4846  1.8335  2.6007
  191SAPI  H16Y22102   3.891   0.334   4.152  1.3423 -0.7329  0.1123
  191SAPI  C31722103   3.934   0.161   4.290  0.4431  0.5071  0.2916
  191SAPI  H17X22104   4.044   0.156   4.300  0.3655 -1.8634  0.4640
  191SAPI  H17Y22105   3.903   0.055   4.293  1.1241  0.2862  3.9235
  191SAPI  C31822106   3.867   0.215   4.417 -0.2508 -0.1934 -0.3160
  191SAPI  H18X22107   3.757   0.219   4.432 -0.1176  0.0616  0.7272
  191SAPI  H18Y22108   3.898   0.316   4.454 -2.9950  0.9823 -0.9736
  191SAPI  H18Z22109   3.898   0.143   4.496  3.9426  1.1973 -0.4018
  192SAPI   C1222110   5.258   4.508   2.051  0.2785 -0.0658 -0.9880
  192SAPI    H222111   5.320   4.560   1.974 -1.9837  2.0688 -1.4758
  192SAPI    O222112   5.132   4.548   2.020 -0.8859 -0.2857  0.3304
  192SAPI   HO222113   5.136   4.644   2.012 -0.2728 -0.3991 -0.9726
  192SAPI   C1322114   5.271   4.360   2.036  0.0211  0.5077 -0.5457
  192SAPI    H322115   5.379   4.351   2.059  0.3338  3.3936 -0.4790
  192SAPI    O322116   5.244   4.317   1.903  0.0536 -0.1876  0.1911
  192SAPI   HO322117   5.164   4.361   1.874  0.0168 -2.1314 -3.2521
  192SAPI   C1422118   5.179   4.287   2.128  0.4727 -0.0686 -0.0250
  192SAPI    H422119   5.077   4.295   2.085  1.3390  1.2895 -1.9830
  192SAPI    O422120   5.219   4.146   2.136  0.4848 -0.4667  0.7303
  192SAPI   HO422121   5.172   4.098   2.205 -0.7214  1.3824  1.2613
  192SAPI   C1522122   5.172   4.347   2.272 -0.3282  0.1453 -0.1581
  192SAPI    H522123   5.259   4.295   2.317  0.1441  0.4522 -0.6996
  192SAPI    O522124   5.060   4.299   2.350  0.3316  0.2593 -0.1294
  192SAPI   HO522125   4.981   4.354   2.345 -0.4191 -0.8160 -0.5100
  192SAPI   C1622126   5.198   4.501   2.293  0.1590  0.1550  0.1445
  192SAPI    H622127   5.102   4.555   2.276 -1.0553 -2.1488 -0.6649
  192SAPI    O622128   5.245   4.523   2.425  0.1641 -0.1906  0.2368
  192SAPI   HO622129   5.293   4.606   2.424 -2.4392  1.4112 -0.8289
  192SAPI   C1122130   5.297   4.554   2.194  0.5102 -0.4480  0.6742
  192SAPI    H122131   5.391   4.502   2.224  0.9177  0.0626  0.2897
  192SAPI     P22132   5.441   4.767   2.253  0.3933 -0.4642  0.1271
  192SAPI   O1322133   5.419   4.909   2.230  0.0374 -0.5516  0.0357
  192SAPI   O1422134   5.547   4.710   2.172  0.0571  0.4410  0.1614
  192SAPI   O1222135   5.296   4.693   2.206 -0.1294 -0.4978 -0.5177
  192SAPI   O1122136   5.454   4.732   2.405 -0.1795  0.0242  0.3477
  192SAPI    C122137   5.404   4.807   2.515  0.0261  1.0296  0.3792
  192SAPI    HA22138   5.363   4.907   2.490 -2.3123 -0.1820 -1.0092
  192SAPI    HB22139   5.332   4.743   2.569 -0.2962 -0.2790 -1.5005
  192SAPI    C222140   5.522   4.818   2.626 -0.3093 -0.9385  0.0326
  192SAPI    HS22141   5.615   4.844   2.572 -0.2075  0.5594  0.8780
  192SAPI   O2122142   5.541   4.691   2.692 -0.4018  0.0622 -0.1519
  192SAPI   C2122143   5.643   4.677   2.769 -0.2263 -0.0459  0.0942
  192SAPI   O2222144   5.729   4.764   2.788  0.2668 -0.3087 -0.8748
  192SAPI   C2222145   5.656   4.525   2.816 -0.6138  0.3177 -0.0941
  192SAPI   H2R22146   5.553   4.496   2.846 -0.1474 -1.2704  0.0296
  192SAPI   H2S22147   5.691   4.478   2.722 -0.2939 -0.5380  0.4472
  192SAPI    C322148   5.491   4.932   2.733 -0.3865 -0.1741  0.8500
  192SAPI    HX22149   5.455   5.031   2.700 -0.1343  0.0317  1.1887
  192SAPI    HY22150   5.593   4.948   2.776  0.2622 -0.4453 -0.5457
  192SAPI   O3122151   5.408   4.879   2.838  0.0467  0.0662  0.0559
  192SAPI   C3122152   5.281   4.904   2.843  0.5177  0.1755 -0.3421
  192SAPI   O3222153   5.221   4.987   2.779 -0.2208 -0.3974  0.3026
  192SAPI   C3222154   5.219   4.792   2.925  0.4254  0.5222  0.7326
  192SAPI   H2X22155   5.247   4.689   2.895  0.9564  0.8604  0.0402
  192SAPI   H2Y22156   5.109   4.799   2.911  0.7531  2.1365 -1.5284
  192SAPI   C2322157   5.766   4.505   2.924 -0.3958 -0.5762  0.0153
  192SAPI   H3R22158   5.845   4.582   2.908  0.6106 -1.5414  0.1621
  192SAPI   H3S22159   5.812   4.406   2.902  1.9862 -0.0920  2.3221
  192SAPI   C2422160   5.722   4.508   3.072  0.0316 -0.4424 -0.2371
  192SAPI   H4R22161   5.697   4.605   3.119  0.5304  0.0051 -0.8789
  192SAPI   H4S22162   5.808   4.464   3.128  1.8902  1.6989 -1.2627
  192SAPI   C2522163   5.613   4.417   3.111  0.4229  0.0445 -0.5068
  192SAPI   H5R22164   5.533   4.405   3.037  0.2742 -0.3335 -0.2857
  192SAPI   C2622165   5.595   4.351   3.230  0.0982  0.6270  0.3881
  192SAPI   H6R22166   5.502   4.294   3.244 -0.9427  1.9377 -1.0004
  192SAPI   C2722167   5.682   4.367   3.353 -0.2995 -0.9428  0.0731
  192SAPI   H7R22168   5.783   4.349   3.310 -0.1335 -0.5844  0.3013
  192SAPI   H7S22169   5.681   4.282   3.425  1.3107 -0.0934  1.1596
  192SAPI   C2822170   5.677   4.494   3.434 -0.0596 -0.7715  0.1831
  192SAPI   H8R22171   5.651   4.588   3.383 -1.6209  0.2637  2.7033
  192SAPI   C2922172   5.698   4.510   3.567  0.9668  0.1863  0.4505
  192SAPI   H9R22173   5.675   4.609   3.609 -1.2240  0.7611 -1.8719
  192SAPI  C21022174   5.729   4.395   3.665 -0.4266  0.1228 -0.8211
  192SAPI  H10R22175   5.737   4.296   3.615  0.8104  0.3289 -1.0534
  192SAPI  H10S22176   5.640   4.393   3.732 -0.1004  0.7702 -0.3619
  192SAPI  C21122177   5.857   4.425   3.734 -0.2127 -0.2368 -0.5694
  192SAPI  H11R22178   5.928   4.492   3.682  1.0780 -1.2919 -0.2151
  192SAPI  C21222179   5.897   4.368   3.853 -0.5569  0.6736  0.0061
  192SAPI  H12R22180   5.982   4.414   3.906 -1.1465  1.2166  0.4949
  192SAPI  C21322181   5.816   4.264   3.930  0.0474 -0.3595 -0.1602
  192SAPI  H13R22182   5.878   4.207   4.003 -2.2016  0.1921  2.2880
  192SAPI  H13S22183   5.787   4.185   3.857  0.3308 -1.8014  1.2267
  192SAPI  C21422184   5.692   4.316   4.000 -0.1482 -0.8924  0.4883
  192SAPI  H14R22185   5.600   4.312   3.939  0.3033  0.2869 -0.3133
  192SAPI  C21522186   5.687   4.340   4.129  0.0557  0.0280  0.3174
  192SAPI  H15R22187   5.591   4.351   4.182  0.8968 -0.6279  2.0440
  192SAPI  C21622188   5.803   4.334   4.222 -0.3249  0.2707 -0.0612
  192SAPI  H16R22189   5.790   4.400   4.311  1.0308  3.3420 -1.9814
  192SAPI  H16S22190   5.890   4.377   4.169 -2.8501  0.6442 -4.3811
  192SAPI  C21722191   5.834   4.189   4.274 -0.5204 -0.4849  0.1521
  192SAPI  H17R22192   5.925   4.198   4.337  1.2815 -1.1374 -2.1866
  192SAPI  H17S22193   5.860   4.127   4.185 -0.3596 -0.4720  0.1883
  192SAPI  C21822194   5.723   4.131   4.360  0.3530  0.4210  0.3296
  192SAPI  H18R22195   5.656   4.066   4.299  0.0591  1.0959 -0.0706
  192SAPI  H18S22196   5.668   4.218   4.402 -0.6899 -0.0143 -0.0966
  192SAPI  C21922197   5.768   4.048   4.483 -0.7212  1.0990 -0.0801
  192SAPI  H19R22198   5.841   4.107   4.542  0.0437  0.9759 -0.8909
  192SAPI  H19S22199   5.833   3.963   4.454 -2.7444 -0.4420 -0.2782
  192SAPI  C22022200   5.656   4.000   4.582 -0.7665  0.7343 -0.4052
  192SAPI  H20R22201   5.599   3.920   4.531 -0.5025  0.3711 -0.1312
  192SAPI  H20S22202   5.585   4.085   4.598 -1.5903  0.1310 -0.7491
  192SAPI  H20T22203   5.695   3.970   4.681  1.3876  0.6758 -1.2344
  192SAPI   C3322204   5.249   4.821   3.072  0.2756 -0.3869  0.0625
  192SAPI   H3X22205   5.174   4.767   3.133  0.5547 -0.1654  0.6062
  192SAPI   H3Y22206   5.235   4.929   3.096  2.9224 -0.2287  1.2797
  192SAPI   C3422207   5.389   4.771   3.111  0.9549  0.1692  0.5023
  192SAPI   H4X22208   5.478   4.824   3.070  1.2541 -1.0051 -0.4563
  192SAPI   H4Y22209   5.396   4.669   3.066 -0.7339 -0.3271  1.3007
  192SAPI   C3522210   5.402   4.773   3.268 -0.2257  0.7077  0.2036
  192SAPI   H5X22211   5.494   4.715   3.293 -0.2875  1.1033  1.4130
  192SAPI   H5Y22212   5.323   4.709   3.312  0.3033  0.4705  0.8303
  192SAPI   C3622213   5.422   4.904   3.334  0.1422 -0.0946 -0.1797
  192SAPI   H6X22214   5.333   4.957   3.294 -0.3295 -1.4226 -0.9520
  192SAPI   H6Y22215   5.518   4.951   3.302  0.2387 -0.0089  0.2269
  192SAPI   C3722216   5.401   4.912   3.487  0.2634  0.3886 -0.2017
  192SAPI   H7X22217   5.312   4.848   3.506  1.3506 -0.3085  3.2759
  192SAPI   H7Y22218   5.380   5.017   3.515 -0.9478  0.5237 -1.4691
  192SAPI   C3822219   5.520   4.847   3.556  0.0274 -0.1685 -0.3168
  192SAPI   H8X22220   5.617   4.896   3.534 -0.4321  0.8492 -0.1363
  192SAPI   H8Y22221   5.538   4.745   3.516  0.8958 -0.4427  0.7107
  192SAPI   C3922222   5.487   4.830   3.708 -0.2744  0.3373 -0.5937
  192SAPI   H9X22223   5.571   4.768   3.746 -0.1724  1.0244  0.3276
  192SAPI   H9Y22224   5.389   4.778   3.713  0.2211 -0.6201 -0.5178
  192SAPI  C31022225   5.484   4.960   3.789  0.1629  0.1527  0.9727
  192SAPI  H10X22226   5.394   5.020   3.761  1.1470  1.3698  0.3034
  192SAPI  H10Y22227   5.565   5.033   3.767 -0.7278  1.4517  1.7982
  192SAPI  C31122228   5.471   4.936   3.942 -0.1085  0.4732  0.8061
  192SAPI  H11X22229   5.569   4.894   3.972 -0.2393  0.6220  1.4496
  192SAPI  H11Y22230   5.388   4.864   3.959  0.2680 -0.1638  0.0452
  192SAPI  C31222231   5.437   5.050   4.038  0.6407  1.0837  0.1684
  192SAPI  H12X22232   5.343   5.098   4.003 -0.5661 -0.6773  0.8703
  192SAPI  H12Y22233   5.515   5.129   4.030 -1.1191  3.0092  0.9710
  192SAPI  C31322234   5.407   5.007   4.182  0.2507  0.3038  0.2051
  192SAPI  H13X22235   5.474   4.922   4.206  0.7386  0.4039 -0.7579
  192SAPI  H13Y22236   5.304   4.966   4.179  0.9677 -1.5238 -1.4740
  192SAPI  C31422237   5.421   5.117   4.286  0.2087  0.9455 -0.4616
  192SAPI  H14X22238   5.345   5.195   4.264  1.8709  2.4126 -1.2333
  192SAPI  H14Y22239   5.526   5.154   4.290  0.5408  0.0809 -0.9374
  192SAPI  C31522240   5.394   5.045   4.422  0.0758  0.1026 -0.3588
  192SAPI  H15X22241   5.449   4.949   4.428 -0.1308 -0.0762 -1.2311
  192SAPI  H15Y22242   5.291   5.003   4.429  0.7956 -1.6383  0.3189
  192SAPI  C31622243   5.416   5.150   4.543  0.1615 -0.4422  0.0796
  192SAPI  H16X22244   5.316   5.197   4.551 -0.4431 -1.8852  1.7586
  192SAPI  H16Y22245   5.501   5.219   4.524 -0.1188 -0.2962 -0.6657
  192SAPI  C31722246   5.432   5.073   4.667 -0.3128  0.0354  0.4218
  192SAPI  H17X22247   5.531   5.023   4.666 -0.1214  0.3907 -1.0143
  192SAPI  H17Y22248   5.369   4.981   4.670 -0.5419 -0.0332 -2.5889
  192SAPI  C31822249   5.441   5.163   4.785 -0.2341 -0.4758 -0.2694
  192SAPI  H18X22250   5.514   5.240   4.754  1.6130 -2.4158 -0.9471
  192SAPI  H18Y22251   5.489   5.117   4.874  2.1454  1.1463 -0.6153
  192SAPI  H18Z22252   5.347   5.212   4.819  1.3032  2.6627 -0.1823
  193SOD    SOD22253   4.713   5.083   2.089  0.0958  0.3062  0.1716
  194SOD    SOD22254   3.636   1.487   6.908 -0.5377 -0.0030  0.1308
  195SOD    SOD22255   6.140   2.743   7.062 -0.6113 -0.0865 -0.2372
  196SOD    SOD22256   0.598   3.083   8.258 -0.0581  0.2716 -0.0076
  197SOD    SOD22257   5.922   3.698   7.036 -0.2569 -0.5498  0.3003
  198SOD    SOD22258   0.187   2.689   8.935  0.4192  0.4640  0.2631
  199SOD    SOD22259   2.946   4.893   1.653  0.3783 -0.1578 -0.1466
  200SOD    SOD22260   6.340   5.932   2.014 -0.2941  0.1314 -0.0271
  201SOD    SOD22261   0.041   2.602   7.626 -0.1018  0.1884 -0.2116
  202SOD    SOD22262   4.401   3.674   7.971  0.2223  0.0039  0.4466
  203SOD    SOD22263   6.540   5.093   0.478  0.1532 -0.4330 -0.3661
  204SOD    SOD22264   5.323   0.844   1.892  0.2412  0.6424 -0.1047
  205SOD    SOD22265   3.315   0.265   2.090  0.0842 -0.0318  0.2118
  206SOD    SOD22266   1.873   4.887   7.896  0.3290  0.0661  0.1168
  207SOD    SOD22267   2.025   0.886   2.315  0.0803  0.1381 -0.8597
  208SOD    SOD22268   0.201   0.945   2.479  0.5718 -0.0269  0.1118
  209SOD    SOD22269   5.751   0.415   8.703  0.0994  0.0333  0.0155
  210SOD    SOD22270   5.641   5.828   2.567 -0.1049  0.4128 -0.8431
  211SOD    SOD22271   2.598   6.264   7.567 -0.2853 -0.1576  0.1393
  212SOD    SOD22272   1.940   4.342   0.125  0.2013  0.3272  0.4875
  213SOD    SOD22273   4.272   0.513   2.196 -0.4300  0.1965  0.8183
  214SOD    SOD22274   1.216   0.573   8.280  0.0235 -0.0533 -0.0762
  215SOD    SOD22275   2.734   2.808   6.768 -0.3469  0.2145 -0.4056
  216SOD    SOD22276   6.535   0.204   1.121 -0.1884 -0.2249 -0.3221
  217SOD    SOD22277   0.618   6.495   7.075  0.2502  0.4763  0.0512
  218SOD    SOD22278   2.028   2.638   0.810  0.0328  0.1841 -0.4877
  219SOD    SOD22279   3.214   5.504   7.816 -0.5106 -0.0387 -0.2653
  220SOD    SOD22280   1.428   6.528   2.848  0.4826 -0.5409 -0.0983
  221SOD    SOD22281   3.886   0.489   8.131 -0.1074  0.0102 -0.0268
  222SOD    SOD22282   3.746   3.411   1.606  0.0264  0.2532 -0.1603
  223SOD    SOD22283   1.010   6.434   8.145  0.3567  0.1235  0.2063
  224SOD    SOD22284   5.574   6.129   7.938 -0.2481  0.0209 -0.0091
  225SOD    SOD22285   4.652   4.968   7.489 -0.2814  0.1378  0.4049
  226SOD    SOD22286   3.377   6.462   8.805  0.1091 -0.2322  0.0853
  227SOD    SOD22287   3.279   5.487   7.132  0.5157 -0.2435 -0.0366
  228SOD    SOD22288   6.481   4.301   7.674 -0.7184 -0.3121 -0.4148
  229SOD    SOD22289   2.351   1.934   8.767 -0.3292  0.1916  0.2542
  230SOD    SOD22290   5.498   1.139   0.660 -0.3510 -0.3331  0.5588
  231SOD    SOD22291   1.512   1.668   1.656  0.1653 -0.8379  0.2694
  232SOD    SOD22292   6.398   0.446   0.804 -0.5636 -0.3576  0.3139
  233SOD    SOD22293   3.718   0.455   7.065  0.0586  0.0246  0.0053
  234CLA    CLA22294   3.735   6.358   1.221 -0.3289 -0.0137  0.1449
  235CLA    CLA22295   3.996   1.560   0.015  0.3120 -0.0339  0.6233
  236CLA    CLA22296   4.206   0.268   8.765  0.1884 -0.1105 -0.4468
  237CLA    CLA22297   0.170   3.500   8.073 -0.3245  0.0517  0.2017
  238CLA    CLA22298   5.865   1.384   8.373  0.0010 -0.1800 -0.0802
  239CLA    CLA22299   1.289   4.816   7.873  0.0085  0.0564 -0.3707
  240CLA    CLA22300   6.514   6.709   0.812  0.3526 -0.1888 -0.4526
  241CLA    CLA22301   0.184   4.779   1.299  0.1205  0.0749  0.1404
  242CLA    CLA22302   2.755   5.337   1.694  0.1962 -0.3406  0.0180
  243CLA    CLA22303   2.716   4.630   8.552 -0.2097 -0.2411  0.0449
  244CLA    CLA22304   1.098   5.336   0.661  0.2183  0.0585 -0.1235
  245CLA    CLA22305   5.719   6.078   8.932 -0.0703  0.1870 -0.3418
  246CLA    CLA22306   0.508   0.041   7.691  0.4763  0.0987  0.2286
  247CLA    CLA22307   0.144   2.449   0.839  0.0880  0.0652  0.2002
  248CLA    CLA22308   3.984   1.959   1.203  0.2610  0.1082 -0.3193
  249CLA    CLA22309   0.907   6.006   8.519 -0.0745  0.1595  0.1717
  250CLA    CLA22310   3.083   3.530   1.030  0.4345  0.0862 -0.1484
  251TIP3   OH222311   1.298   1.770   2.569  0.5234  0.6461  0.4823
  251TIP3    H122312   1.287   1.794   2.661  1.3819 -0.7270  0.9817
  251TIP3    H222313   1.388   1.797   2.549  1.0829 -0.9342  0.7067
  252TIP3   OH222314   2.761   3.205   1.177  0.0401  0.0477  0.2073
  252TIP3    H122315   2.773   3.130   1.118  1.0967 -0.1618  0.6722
  252TIP3    H222316   2.753   3.280   1.118 -0.6278 -0.3743 -0.2529
  253TIP3   OH222317   6.242   5.036   1.924  0.3066 -0.2911 -0.0904
  253TIP3    H122318   6.235   4.979   2.001  0.5921 -0.8749 -0.4941
  253TIP3    H222319   6.211   5.121   1.955 -2.0768 -1.1116  0.0141
  254TIP3   OH222320   6.529   3.863   8.466 -0.2138  0.4607  0.9002
  254TIP3    H122321   6.475   3.841   8.390 -1.8483 -0.6265  2.3226
  254TIP3    H222322   6.535   3.958   8.464  0.4047  0.4224 -0.9801
  255TIP3   OH222323   5.269   4.775   0.388 -0.2833  0.4239  0.1435
  255TIP3    H122324   5.346   4.830   0.401  0.4400 -0.1032 -1.5811
  255TIP3    H222325   5.291   4.692   0.430 -0.4022  0.6539  0.6690
  256TIP3   OH222326   2.067   1.444   1.216 -0.0380 -0.7510  0.5492
  256TIP3    H122327   2.015   1.513   1.173  0.0706 -1.5031 -0.8456
  256TIP3    H222328   2.072   1.472   1.307 -0.1017  1.0343  0.0484
  257TIP3   OH222329   0.444   2.999   8.402 -0.1521  0.6908 -0.2953
  257TIP3    H122330   0.426   3.088   8.430  0.6695  1.2955 -1.6188
  257TIP3    H222331   0.358   2.965   8.376 -0.3858  1.2859 -0.3158
  258TIP3   OH222332   1.177   0.084   7.357  0.1589  0.5659  0.6672
  258TIP3    H122333   1.233   0.124   7.291  1.6100  0.6459  1.8965
  258TIP3    H222334   1.134   0.012   7.311  1.8475  0.0246 -0.1632
  259TIP3   OH222335   1.901   3.921   8.122  0.6316  0.0146 -0.4895
  259TIP3    H122336   1.961   3.875   8.181 -0.8230  0.0937  1.1348
  259TIP3    H222337   1.867   3.994   8.174 -1.1491 -0.2635 -1.1771
  260TIP3   OH222338   4.668   5.199   0.544 -0.0394  0.0527  0.5148
  260TIP3    H122339   4.689   5.186   0.636  0.3128 -0.5582  0.3592
  260TIP3    H222340   4.743   5.248   0.509  0.9713 -1.7025  0.0676
  261TIP3   OH222341   5.418   0.677   0.601  0.3142 -0.5625  0.0144
  261TIP3    H122342   5.365   0.650   0.525 -1.7318 -0.7128  1.4041
  261TIP3    H222343   5.406   0.772   0.607 -0.9997 -0.7661  1.1278
  262TIP3   OH222344   1.721   2.645   2.150  0.1190  0.8364 -0.3263
  262TIP3    H122345   1.693   2.593   2.225 -0.5001  1.2507 -0.2664
  262TIP3    H222346   1.770   2.718   2.188 -0.3583  1.1514 -0.3057
  263TIP3   OH222347   5.155   6.398   1.501  0.9221 -0.5348  0.5590
  263TIP3    H122348   5.091   6.329   1.520  0.0857  0.3704  1.0707
  263TIP3    H222349   5.132   6.430   1.414  0.4770  0.0121  0.8777
  264TIP3   OH222350   3.293   0.486   2.138  0.2843 -0.1195 -0.1731
  264TIP3    H122351   3.359   0.554   2.125  1.7343 -1.4306 -0.0360
  264TIP3    H222352   3.288   0.476   2.234  0.5745 -0.6275 -0.2022
  265TIP3   OH222353   2.095   4.339   7.155  0.3517  0.4867 -0.1257
  265TIP3    H122354   2.033   4.411   7.141  0.5504  0.7701  0.4088
  265TIP3    H222355   2.153   4.343   7.079 -1.9465 -1.5850 -2.1878
  266TIP3   OH222356   4.372   4.525   8.305  0.2097  0.2314 -0.2513
  266TIP3    H122357   4.430   4.579   8.251  1.0347  0.5135  0.8631
  266TIP3    H222358   4.428   4.494   8.376  0.2660 -3.5638 -1.6871
  267TIP3   OH222359   2.432   3.953   7.083 -0.4412  0.1887 -0.1817
  267TIP3    H122360   2.410   3.877   7.137 -1.1019  0.6215  0.1588
  267TIP3    H222361   2.525   3.968   7.101 -0.2222 -0.7367 -0.5021
  268TIP3   OH222362   1.285   1.601   0.863 -0.0876 -0.0851  0.7519
  268TIP3    H122363   1.347   1.629   0.796  1.9692 -1.8365  1.7749
  268TIP3    H222364   1.239   1.681   0.889  1.2467  1.1660 -0.5530
  269TIP3   OH222365   3.738   1.010   2.291  0.3151 -0.5180 -0.2650
  269TIP3    H122366   3.750   1.100   2.262 -1.7147  0.2519  1.0161
  269TIP3    H222367   3.741   1.015   2.387 -0.5546 -1.6741 -0.1532
  270TIP3   OH222368   1.945   5.041   8.481 -0.3401  0.7595  0.2242
  270TIP3    H122369   1.937   5.020   8.388 -2.1035 -2.2748  0.9330
  270TIP3    H222370   2.035   5.017   8.503 -0.7060 -1.0705 -0.1761
  271TIP3   OH222371   0.189   2.758   1.770  0.1053  0.2555 -0.2515
  271TIP3    H122372   0.241   2.689   1.728  0.1536 -0.0005  0.2188
  271TIP3    H222373   0.254   2.825   1.793 -0.0850  0.9784 -1.6968
  272TIP3   OH222374   5.688   6.062   7.155  0.0053 -0.2617  0.2697
  272TIP3    H122375   5.629   5.999   7.113  0.2259 -0.3089  0.0320
  272TIP3    H222376   5.775   6.039   7.123 -0.1701  1.8671 -2.0422
  273TIP3   OH222377   6.242   3.818   0.434  0.3809  0.2433 -0.0996
  273TIP3    H122378   6.159   3.848   0.398 -0.0920 -1.1012 -0.1759
  273TIP3    H222379   6.295   3.897   0.440 -1.0704  1.2308  0.4434
  274TIP3   OH222380   3.770   2.650   0.950  0.1989 -0.2773 -0.1234
  274TIP3    H122381   3.789   2.556   0.947  1.8333  0.0133  0.1437
  274TIP3    H222382   3.689   2.659   0.900 -0.5536 -1.9448  0.6897
  275TIP3   OH222383   2.061   3.164   0.894 -0.0863  0.3642  0.3214
  275TIP3    H122384   2.124   3.169   0.822  0.0366  1.6691  0.4809
  275TIP3    H222385   2.115   3.161   0.973 -0.1869 -2.6052  0.3712
  276TIP3   OH222386   5.793   0.317   0.494 -0.1749 -0.3067  0.0214
  276TIP3    H122387   5.868   0.377   0.495  0.4627 -1.0815 -0.3819
  276TIP3    H222388   5.721   0.369   0.530  0.3736  0.6843 -0.2665
  277TIP3   OH222389   2.136   3.556   2.136 -0.0006  0.4123 -0.0096
  277TIP3    H122390   2.187   3.625   2.092  0.2840  0.6252  0.6487
  277TIP3    H222391   2.181   3.542   2.219 -0.0257 -0.6200 -0.1598
  278TIP3   OH222392   0.292   3.141   2.316  0.5075 -0.4121  0.2557
  278TIP3    H122393   0.227   3.071   2.321 -0.9398  0.6851 -1.7634
  278TIP3    H222394   0.338   3.137   2.400 -0.3865 -2.9050  0.7150
  279TIP3   OH222395   1.117   5.646   8.441  0.0581  0.2766  0.1021
  279TIP3    H122396   1.138   5.606   8.357 -1.8115 -0.4864 -0.0614
  279TIP3    H222397   1.166   5.596   8.505  1.3983  0.7838 -0.4991
  280TIP3   OH222398   5.023   1.455   7.982 -0.1536  0.0525  1.0146
  280TIP3    H122399   5.041   1.416   7.896 -2.4912  0.8104  0.0999
  280TIP3    H222400   5.056   1.545   7.975 -1.4780  0.5235  0.3840
  281TIP3   OH222401   3.445   0.617   1.758  0.3419  0.2039 -0.5755
  281TIP3    H122402   3.511   0.619   1.690  0.4524  2.0495 -0.4527
  281TIP3    H222403   3.488   0.573   1.832  1.6828  1.9527 -0.2685
  282TIP3   OH222404   2.853   5.461   8.144  0.5270  0.0154  0.4858
  282TIP3    H122405   2.892   5.440   8.228  1.3425  2.4929  0.8031
  282TIP3    H222406   2.907   5.532   8.109 -1.9056  1.5280 -0.4393
  283TIP3   OH222407   3.131   3.017   7.559 -0.0808 -0.4490 -0.0681
  283TIP3    H122408   3.062   2.977   7.505 -0.1993  0.5449 -0.6772
  283TIP3    H222409   3.182   3.069   7.498  1.3920 -1.3709  0.3363
  284TIP3   OH222410   4.797   2.364   0.098 -0.0146  0.4058 -0.0372
  284TIP3    H122411   4.842   2.448   0.106 -0.1844  0.5061 -0.1214
  284TIP3    H222412   4.704   2.387   0.098 -0.2187 -0.0042  3.0483
  285TIP3   OH222413   3.224   1.552   2.603  0.0220 -0.1311 -0.1587
  285TIP3    H122414   3.192   1.586   2.686 -0.7272 -1.2418  0.0315
  285TIP3    H222415   3.315   1.584   2.597 -0.2287  0.7764  0.6002
  286TIP3   OH222416   2.146   0.224   7.094 -0.1339  0.1493 -0.0839
  286TIP3    H122417   2.170   0.133   7.073  0.7868  0.2287  0.5579
  286TIP3    H222418   2.079   0.215   7.162  2.0107 -0.0977  2.1573
  287TIP3   OH222419   2.338   3.776   7.685 -0.2274 -0.5423  0.3014
  287TIP3    H122420   2.260   3.816   7.647 -0.3802  0.4437  1.5793
  287TIP3    H222421   2.410   3.805   7.629 -0.4375  0.9274  0.7540
  288TIP3   OH222422   4.446   0.260   8.500 -0.3186  0.3736 -0.2988
  288TIP3    H122423   4.426   0.204   8.576  0.3556 -0.6968 -0.8890
  288TIP3    H222424   4.362   0.296   8.474 -0.7252 -0.1419  0.2730
  289TIP3   OH222425   6.267   0.140   8.653 -0.0461  0.0136  0.6833
  289TIP3    H122426   6.213   0.107   8.580  0.3425 -0.9770  0.8199
  289TIP3    H222427   6.299   0.060   8.696  2.0032  0.5486  0.2564
  290TIP3   OH222428   6.565   4.466   0.093  0.0365 -0.6465  0.1500
  290TIP3    H122429   6.522   4.382   0.079 -0.2623 -0.3600 -0.7544
  290TIP3    H222430   6.495   4.523   0.127 -0.0316 -0.4735 -0.2778
  291TIP3   OH222431   1.787   1.008   0.235 -0.6030 -0.5830  0.0959
  291TIP3    H122432   1.795   1.055   0.318 -0.4856 -0.6774  0.1372
  291TIP3    H222433   1.863   0.950   0.232  0.2061  0.4818 -0.7573
  292TIP3   OH222434   1.040   1.382   7.716 -0.1228  0.0396  0.5574
  292TIP3    H122435   1.047   1.428   7.800 -1.1825  0.5179  0.4004
  292TIP3    H222436   0.980   1.310   7.734 -1.0241  0.6412  0.0115
  293TIP3   OH222437   0.209   6.204   7.670  0.0548  0.3622 -0.7717
  293TIP3    H122438   0.246   6.265   7.733 -0.8016 -0.2555  0.3559
  293TIP3    H222439   0.114   6.218   7.675 -0.0045  1.2458 -2.9094
  294TIP3   OH222440   6.585   5.134   7.487  0.5987 -0.3241 -0.0534
  294TIP3    H122441   6.612   5.215   7.446 -3.4337  0.8162 -0.9030
  294TIP3    H222442   6.566   5.158   7.578  0.6576 -0.6425  0.0464
  295TIP3   OH222443   5.572   0.241   2.170  0.4659  0.2906  0.2026
  295TIP3    H122444   5.512   0.169   2.189 -0.2729  0.6225 -0.8289
  295TIP3    H222445   5.630   0.206   2.102  0.7012  0.3663  0.3620
  296TIP3   OH222446   6.252   5.633   2.139  0.3272  0.1609  0.3551
  296TIP3    H122447   6.308   5.592   2.073  0.4103 -0.9768  1.1232
  296TIP3    H222448   6.171   5.652   2.092 -1.7243 -5.3742  0.9288
  297TIP3   OH222449   2.204   0.351   1.905 -0.3284 -0.2316  0.3861
  297TIP3    H122450   2.298   0.343   1.894 -0.5125 -2.8758  0.1226
  297TIP3    H222451   2.169   0.356   1.816 -0.4700  1.0990  0.4851
  298TIP3   OH222452   5.651   3.010   0.065  0.0981 -0.4755  0.1373
  298TIP3    H122453   5.697   2.933   0.032  1.9747  1.1525 -1.2944
  298TIP3    H222454   5.719   3.064   0.104 -0.9923  0.9107  0.2115
  299TIP3   OH222455   5.763   0.714   0.826  0.2675 -0.4223  0.2095
  299TIP3    H122456   5.808   0.665   0.894  0.9720 -2.2816 -1.5241
  299TIP3    H222457   5.825   0.783   0.801  0.1167  0.0957  1.1865
  300TIP3   OH222458   2.840   1.573   8.319  0.1059  0.0671 -0.7188
  300TIP3    H122459   2.918   1.628   8.331  0.6737 -1.0701  1.0417
  300TIP3    H222460   2.871   1.484   8.334 -1.3271 -0.5165 -1.0882
  301TIP3   OH222461   4.448   5.950   7.663 -0.4646 -1.0546  0.2235
  301TIP3    H122462   4.526   6.002   7.678 -0.8924 -0.1043 -0.6838
  301TIP3    H222463   4.442   5.892   7.739 -0.0954  0.3842  1.4112
  302TIP3   OH222464   2.333   2.110   7.260  0.9145  0.2260 -0.4301
  302TIP3    H122465   2.381   2.092   7.341 -0.6618 -2.3198  0.0602
  302TIP3    H222466   2.342   2.204   7.247  0.1070  1.0278  3.4827
  303TIP3   OH222467   5.965   5.059   2.129 -0.2201 -0.4540 -0.1548
  303TIP3    H122468   5.934   4.979   2.087 -0.5066 -0.0092 -0.8045
  303TIP3    H222469   5.906   5.127   2.098  0.3036  0.0952  0.0255
  304TIP3   OH222470   3.017   3.982   1.153 -0.2954 -0.6657  0.0182
  304TIP3    H122471   3.109   3.958   1.151 -0.4535 -1.2284 -1.1423
  304TIP3    H222472   3.002   4.012   1.243  0.4722 -2.7179  0.9065
  305TIP3   OH222473   3.764   2.007   1.393  0.6071  0.2380  0.4880
  305TIP3    H122474   3.831   2.003   1.325  1.3275 -0.0269  1.2064
  305TIP3    H222475   3.766   2.098   1.424 -0.0146  0.4716 -0.1160
  306TIP3   OH222476   0.906   5.719   7.114  0.2827 -0.4998  0.0531
  306TIP3    H122477   0.990   5.729   7.069  0.3614 -0.0036  0.2935
  306TIP3    H222478   0.890   5.805   7.154 -0.7239 -0.3559 -0.6334
  307TIP3   OH222479   6.132   0.373   6.830  1.0887 -0.3121  0.0462
  307TIP3    H122480   6.120   0.297   6.886 -4.0289 -1.6513 -2.2761
  307TIP3    H222481   6.199   0.346   6.767  1.8045 -1.4695  1.2509
  308TIP3   OH222482   1.788   0.130   2.378 -0.1090 -0.0167 -0.3493
  308TIP3    H122483   1.879   0.118   2.405  0.0470 -1.5180 -1.4367
  308TIP3    H222484   1.737   0.121   2.458  0.5203 -1.8241 -0.1203
  309TIP3   OH222485   5.553   0.943   1.245  0.7280  0.8797  0.0238
  309TIP3    H122486   5.523   0.874   1.185  1.8375 -0.7354  1.2219
  309TIP3    H222487   5.638   0.970   1.208  1.0233  0.4711  0.3886
  310TIP3   OH222488   1.095   3.125   1.387  0.0791  0.2195  0.0151
  310TIP3    H122489   1.184   3.152   1.367  0.9356 -2.3153 -0.0465
  310TIP3    H222490   1.045   3.206   1.392  2.1384  1.6450 -1.1064
  311TIP3   OH222491   1.357   1.028   2.511  0.4767 -0.5387 -0.2908
  311TIP3    H122492   1.349   0.984   2.596 -0.6427 -0.3468 -0.2824
  311TIP3    H222493   1.450   1.022   2.490  1.1899  1.1828  1.9076
  312TIP3   OH222494   0.352   1.828   1.178  0.0911  0.2400 -0.0190
  312TIP3    H122495   0.333   1.898   1.115 -0.3987 -1.4578 -1.8958
  312TIP3    H222496   0.346   1.870   1.263 -0.6390  2.3710 -1.0372
  313TIP3   OH222497   2.924   0.075   2.217  0.0185  0.1075  0.4634
  313TIP3    H122498   2.831   0.071   2.238  0.1231 -0.6913  0.7995
  313TIP3    H222499   2.963   0.126   2.288 -0.1076  0.1328  0.5146
  314TIP3   OH222500   5.834   4.077   0.062  0.1878 -0.0637 -0.2169
  314TIP3    H122501   5.891   4.154   0.058 -0.1573  0.1524 -1.1161
  314TIP3    H222502   5.791   4.084   0.147 -0.8518  1.4670 -0.8322
  315TIP3   OH222503   1.213   0.656   1.607  0.1305  0.0649 -0.4935
  315TIP3    H122504   1.272   0.599   1.559  0.0944  0.1942 -0.6912
  315TIP3    H222505   1.159   0.596   1.659 -0.2628 -0.1118 -1.0989
  316TIP3   OH222506   1.438   1.534   1.491  0.2990  0.4219 -0.2775
  316TIP3    H122507   1.364   1.479   1.466 -0.0651  0.2692  1.0716
  316TIP3    H222508   1.503   1.518   1.422  0.8278 -2.9189  0.7814
  317TIP3   OH222509   1.904   0.155   1.765 -0.2455 -0.7881  0.1113
  317TIP3    H122510   1.975   0.188   1.711 -0.3760 -0.2963  0.2344
  317TIP3    H222511   1.948   0.110   1.838 -0.0674 -2.1573 -0.8043
  318TIP3   OH222512   2.467   3.347   0.337 -0.2731  0.2528 -0.0437
  318TIP3    H122513   2.444   3.278   0.399  1.1228  0.9632  1.3296
  318TIP3    H222514   2.397   3.344   0.272 -2.8246  0.5623  2.4569
  319TIP3   OH222515   2.918   2.801   6.643  0.2085 -0.2539 -0.1252
  319TIP3    H122516   2.970   2.847   6.577 -1.4870 -0.7719 -1.9223
  319TIP3    H222517   2.936   2.708   6.627  2.5977 -0.4277  2.6257
  320TIP3   OH222518   4.154   1.787   8.236  0.1022 -0.7153  0.0248
  320TIP3    H122519   4.221   1.720   8.249 -0.0042 -0.7078  0.6396
  320TIP3    H222520   4.156   1.840   8.316 -0.7450 -0.8145  0.1295
  321TIP3   OH222521   2.694   0.001   0.184  0.2720 -0.8927 -0.3235
  321TIP3    H122522   2.626  -0.049   0.137 -1.1577 -1.3456  2.0665
  321TIP3    H222523   2.648   0.077   0.218  1.5067 -0.0670 -0.4723
  322TIP3   OH222524   5.499   1.741   1.441 -0.3920  0.3118  0.0524
  322TIP3    H122525   5.564   1.673   1.459  1.1339  1.4683 -0.8420
  322TIP3    H222526   5.450   1.749   1.523 -1.4645 -2.6618 -0.1875
  323TIP3   OH222527   0.058   1.550   1.308  0.5987  0.1861  0.0988
  323TIP3    H122528   0.041   1.642   1.326  0.3953  0.1211  0.2470
  323TIP3    H222529   0.149   1.536   1.333  0.8001  0.4782 -0.4506
  324TIP3   OH222530   1.091   1.489   7.947  0.5475 -0.9846  0.5088
  324TIP3    H122531   1.094   1.585   7.939  0.3694 -1.0884 -1.0738
  324TIP3    H222532   1.147   1.470   8.023 -0.1581  0.4194  1.4440
  325TIP3   OH222533   0.863   6.062   2.179  0.3408 -0.1603 -0.5248
  325TIP3    H122534   0.867   6.001   2.253 -0.6248  0.3636 -0.0216
  325TIP3    H222535   0.771   6.064   2.154  0.0877  2.0098  0.2911
  326TIP3   OH222536   5.873   2.418   2.565 -0.3922  0.2072  0.3268
  326TIP3    H122537   5.871   2.374   2.650 -0.3744 -1.3685 -0.4355
  326TIP3    H222538   5.901   2.507   2.584 -1.6449  0.2662  2.1081
  327TIP3   OH222539   1.950   6.380   0.787  0.0779 -0.1206 -0.1315
  327TIP3    H122540   2.035   6.377   0.743  0.0203 -0.4723 -0.2203
  327TIP3    H222541   1.890   6.415   0.721 -0.1650 -1.3612 -0.6037
  328TIP3   OH222542   3.599   5.100   1.881 -0.0404 -0.4390  0.3526
  328TIP3    H122543   3.644   5.018   1.862  0.4988 -0.3803  1.2976
  328TIP3    H222544   3.660   5.149   1.936 -0.5534  0.3924  0.2026
  329TIP3   OH222545   2.482   5.165   2.424 -0.0990  0.0392 -0.3542
  329TIP3    H122546   2.547   5.139   2.359 -0.0789 -1.5929  0.2596
  329TIP3    H222547   2.485   5.260   2.425  0.4789  0.0840 -2.1426
  330TIP3   OH222548   2.065   5.307   8.316  0.3547  1.0529 -0.2073
  330TIP3    H122549   2.069   5.215   8.343 -1.9705  1.2689  1.1408
  330TIP3    H222550   2.121   5.311   8.238 -2.0965 -2.3270 -2.4766
  331TIP3   OH222551   2.232   4.506   2.117  0.0764 -0.3290 -0.4307
  331TIP3    H122552   2.229   4.596   2.083 -0.8375  0.2732  1.1556
  331TIP3    H222553   2.315   4.471   2.083 -0.1828  0.6184 -2.1985
  332TIP3   OH222554   6.268   5.411   7.630 -0.4381 -0.0723  0.2951
  332TIP3    H122555   6.259   5.476   7.699 -0.2404  0.1184  0.1414
  332TIP3    H222556   6.357   5.423   7.597 -0.5228 -0.1812  0.0256
  333TIP3   OH222557   5.912   2.453   1.204  0.3488  0.5512 -0.3949
  333TIP3    H122558   5.899   2.477   1.296  1.6217 -0.0146 -0.0476
  333TIP3    H222559   5.833   2.485   1.160  0.0231  1.4341  0.7706
  334TIP3   OH222560   5.636   3.195   8.038 -0.4133  0.0341  0.4843
  334TIP3    H122561   5.708   3.141   8.007 -0.4770 -0.0863  0.5464
  334TIP3    H222562   5.646   3.278   7.991 -0.7860 -0.3105 -0.2262
  335TIP3   OH222563   0.602   1.084   7.205  0.1397 -0.1793 -0.5504
  335TIP3    H122564   0.579   1.122   7.290 -0.5731  0.0394 -0.8365
  335TIP3    H222565   0.673   1.022   7.225  1.7138  1.6690 -0.1473
  336TIP3   OH222566   0.470   3.483   7.977  0.3064 -0.1296  0.3923
  336TIP3    H122567   0.379   3.485   8.007 -0.6711  0.8030 -2.3436
  336TIP3    H222568   0.518   3.532   8.044 -1.7828  2.1609  0.3553
  337TIP3   OH222569   1.060   1.754   0.719  0.2027 -0.0275  0.1552
  337TIP3    H122570   0.986   1.811   0.696 -1.1075 -1.8982 -0.5305
  337TIP3    H222571   1.066   1.759   0.814 -2.1994 -1.3719  0.4572
  338TIP3   OH222572   2.862   4.613   2.659  0.2950 -0.6372  0.1861
  338TIP3    H122573   2.814   4.545   2.612 -0.8457  0.6082 -0.5280
  338TIP3    H222574   2.929   4.642   2.596  0.7727 -1.0839  0.4849
  339TIP3   OH222575   0.886   1.450   0.071  0.1060 -0.3313  0.0297
  339TIP3    H122576   0.863   1.462   0.163  0.9318  0.0505  0.2011
  339TIP3    H222577   0.942   1.372   0.071  0.2469 -0.2310 -0.1174
  340TIP3   OH222578   5.982   6.620   0.244  0.3036  0.6614 -0.2160
  340TIP3    H122579   6.057   6.673   0.271  1.4600 -0.8178 -0.4267
  340TIP3    H222580   5.906   6.676   0.261  1.4188  2.0718  0.3075
  341TIP3   OH222581   1.603   4.063   1.791  0.4667  0.3115  0.5546
  341TIP3    H122582   1.597   4.132   1.857 -3.8437 -0.2328  1.0242
  341TIP3    H222583   1.614   3.983   1.842 -2.2210 -0.0393  0.7055
  342TIP3   OH222584   2.002   2.734   7.269 -0.4160 -0.4807 -0.1045
  342TIP3    H122585   1.959   2.704   7.189 -0.2683 -1.3926  0.1462
  342TIP3    H222586   2.064   2.664   7.290 -1.1785 -0.7575  1.3720
  343TIP3   OH222587   3.922   0.176   1.601 -0.0755  0.5021 -0.1878
  343TIP3    H122588   3.972   0.178   1.519  1.0929  2.8912  0.5192
  343TIP3    H222589   3.932   0.085   1.632  0.5844 -0.0876 -1.9883
  344TIP3   OH222590   3.965   6.098   0.387 -0.0828 -0.0607  0.7972
  344TIP3    H122591   3.925   6.036   0.326  0.7270  0.2442 -0.0695
  344TIP3    H222592   4.026   6.045   0.438  1.0062  0.0887 -0.3066
  345TIP3   OH222593   2.742   0.344   2.119 -0.0362  0.5871 -0.4080
  345TIP3    H122594   2.784   0.300   2.193 -0.6224 -1.2326 -1.1256
  345TIP3    H222595   2.778   0.433   2.122 -0.0201  0.5696  2.0262
  346TIP3   OH222596   2.820   4.266   1.478 -0.0883 -0.3589  0.1836
  346TIP3    H122597   2.892   4.205   1.462 -0.6519 -1.0620  0.2231
  346TIP3    H222598   2.777   4.274   1.393 -1.3260 -1.7775  0.6238
  347TIP3   OH222599   6.527   6.627   2.344  0.1100  0.1018  0.1154
  347TIP3    H122600   6.518   6.643   2.438  0.6823 -1.1926  0.4115
  347TIP3    H222601   6.588   6.554   2.338  0.3849  0.4217 -1.2901
  348TIP3   OH222602   1.743   2.747   1.719 -0.0120 -0.7588 -0.6945
  348TIP3    H122603   1.682   2.762   1.647 -0.2441 -1.3344 -0.6156
  348TIP3    H222604   1.697   2.690   1.780 -0.4350  0.9955  0.7226
  349TIP3   OH222605   1.621   3.893   0.686  0.0021  0.0857  0.0236
  349TIP3    H122606   1.562   3.877   0.612  0.7144 -0.3331 -0.4700
  349TIP3    H222607   1.625   3.989   0.693 -1.8262  0.1311  0.9796
  350TIP3   OH222608   2.448   6.317   6.948 -0.2390 -0.1537 -0.4155
  350TIP3    H122609   2.539   6.303   6.972  0.0775  1.8353 -0.2535
  350TIP3    H222610   2.398   6.269   7.014  0.6421 -2.6824 -1.4881
  351TIP3   OH222611   2.697   5.013   1.314  0.1480 -0.0256  0.1449
  351TIP3    H122612   2.723   5.105   1.307  1.7176 -0.4596 -0.1099
  351TIP3    H222613   2.730   4.973   1.233 -0.6296 -0.7959  0.1947
  352TIP3   OH222614   1.094   3.929   0.501 -1.0773  0.3624  0.7481
  352TIP3    H122615   1.100   3.853   0.559 -0.5294  0.0584  0.3035
  352TIP3    H222616   1.039   3.900   0.429 -1.9320  0.8084  1.1990
  353TIP3   OH222617   1.246   2.728   0.029 -0.2085 -0.0113  0.2927
  353TIP3    H122618   1.192   2.699   0.102  0.3619 -1.5475  0.1269
  353TIP3    H222619   1.183   2.760  -0.036 -0.7691  0.4130  1.0155
  354TIP3   OH222620   1.989   1.941   8.518 -0.0194  0.0293 -0.3549
  354TIP3    H122621   2.008   1.853   8.488  1.3279  0.2360 -0.2130
  354TIP3    H222622   2.065   1.993   8.491 -0.2640  0.9031  0.5238
  355TIP3   OH222623   6.107   0.839   7.785 -0.1041  0.1047  0.6258
  355TIP3    H122624   6.038   0.773   7.798 -0.4990  0.6712  1.5142
  355TIP3    H222625   6.150   0.845   7.870  0.8525 -0.0047  0.1635
  356TIP3   OH222626   6.406   0.222   0.356 -0.1497  0.4099 -0.0355
  356TIP3    H122627   6.443   0.142   0.395  0.1952  0.0030 -1.1721
  356TIP3    H222628   6.479   0.260   0.307 -1.2193 -0.4931 -2.4562
  357TIP3   OH222629   4.554   0.808   0.175  0.1348 -0.2265  0.2416
  357TIP3    H122630   4.522   0.774   0.259  1.5949 -0.1139  0.8809
  357TIP3    H222631   4.596   0.891   0.198  0.6507 -0.2528 -0.5805
  358TIP3   OH222632   2.019   4.888   0.565 -0.3290  0.5851  0.3618
  358TIP3    H122633   1.942   4.882   0.622 -1.5846 -0.5334 -1.3629
  358TIP3    H222634   1.992   4.948   0.495  0.2930  0.0535 -0.3473
  359TIP3   OH222635   2.252   2.414   8.824  0.1413  0.0021 -0.0328
  359TIP3    H122636   2.176   2.356   8.815 -0.4584  0.2300  2.6054
  359TIP3    H222637   2.228   2.492   8.775 -0.5685 -0.6229 -0.7047
  360TIP3   OH222638   6.636   3.052   1.989 -0.2901 -0.6388  0.2392
  360TIP3    H122639   6.658   3.066   2.081 -1.4468 -0.8738  0.5751
  360TIP3    H222640   6.649   3.138   1.947 -1.9912  0.1018  1.1249
  361TIP3   OH222641   6.259   1.234   0.847  0.3858 -0.1018  0.5777
  361TIP3    H122642   6.292   1.155   0.889  0.0323 -0.0473  0.9770
  361TIP3    H222643   6.279   1.304   0.909 -2.6125 -0.3685  2.0824
  362TIP3   OH222644   0.778   0.256   1.774 -0.6613 -0.3677 -0.0338
  362TIP3    H122645   0.780   0.335   1.719  0.5790 -0.9053 -0.7962
  362TIP3    H222646   0.737   0.285   1.856 -0.0725  1.1064 -0.2331
  363TIP3   OH222647   6.637   1.564   2.531 -0.1323  0.0916  0.0696
  363TIP3    H122648   6.587   1.631   2.578  0.5402  0.7998 -0.1768
  363TIP3    H222649   6.641   1.597   2.441 -0.1438 -0.4936 -0.1437
  364TIP3   OH222650   2.076   4.842   7.773  0.5141  0.2260  0.5806
  364TIP3    H122651   2.163   4.852   7.810  0.4808  1.3656  0.4091
  364TIP3    H222652   2.077   4.896   7.694 -0.9178  1.9034  1.6212
  365TIP3   OH222653   5.271   0.500   8.194  0.5887 -0.3329  0.4747
  365TIP3    H122654   5.183   0.519   8.227 -0.0976  0.0976 -1.4667
  365TIP3    H222655   5.309   0.586   8.175  0.8411 -0.5699 -0.1262
  366TIP3   OH222656   6.599   5.276   7.729 -0.1727  0.0901  0.4111
  366TIP3    H122657   6.694   5.271   7.740  0.4685  2.5717 -2.5488
  366TIP3    H222658   6.574   5.361   7.766 -0.9995  0.0386  0.0076
  367TIP3   OH222659   4.394   3.431   0.945  0.3956  0.0264 -0.5148
  367TIP3    H122660   4.367   3.485   0.871  0.5940 -0.1150 -0.6928
  367TIP3    H222661   4.412   3.345   0.907 -0.8752 -0.4615 -0.0848
  368TIP3   OH222662   0.018   0.998   2.087 -0.6125  0.4478  0.7946
  368TIP3    H122663   0.004   0.906   2.062  1.2113 -0.5668  3.1027
  368TIP3    H222664   0.098   1.023   2.042  0.5328 -0.1262  2.4235
  369TIP3   OH222665   5.008   3.480   8.940 -0.4975  0.1976 -0.3998
  369TIP3    H122666   4.963   3.418   8.998 -2.2713  0.8789 -0.9890
  369TIP3    H222667   4.947   3.495   8.868  1.3734 -0.1050 -2.1371
  370TIP3   OH222668   3.111   1.656   8.356 -0.0609 -0.2048  0.5376
  370TIP3    H122669   3.198   1.627   8.330 -0.3362  0.4427 -1.3028
  370TIP3    H222670   3.105   1.635   8.449  1.2853 -2.1422  0.2529
  371TIP3   OH222671   4.956   5.268   8.349  0.0082  0.4029 -0.3968
  371TIP3    H122672   4.977   5.275   8.256 -0.6381 -0.2096 -0.5933
  371TIP3    H222673   5.034   5.229   8.388  0.5052  1.1925 -0.5832
  372TIP3   OH222674   2.753   1.496   0.866  0.7938 -0.2985  0.0346
  372TIP3    H122675   2.826   1.488   0.804 -0.0137  1.3097 -1.2228
  372TIP3    H222676   2.693   1.425   0.841  0.4910  0.3151 -1.0456
  373TIP3   OH222677   0.238   3.165   1.756  0.5285  0.0912 -0.3379
  373TIP3    H122678   0.197   3.165   1.669 -1.6998 -1.2303  0.6105
  373TIP3    H222679   0.290   3.085   1.758 -0.0092 -0.2617 -0.2238
  374TIP3   OH222680   4.173   5.567   0.404  0.1281  0.0383  0.0584
  374TIP3    H122681   4.163   5.653   0.445 -0.0958  0.8464 -1.5772
  374TIP3    H222682   4.268   5.555   0.398  0.1882  0.7779 -0.8172
  375TIP3   OH222683   0.164   5.574   2.191  0.0255 -0.0596 -0.5887
  375TIP3    H122684   0.151   5.541   2.280 -0.0987 -2.3726 -1.3840
  375TIP3    H222685   0.257   5.594   2.185 -0.1016  0.8519  0.2634
  376TIP3   OH222686   4.188   6.727   8.726 -0.2397 -0.3348  0.1561
  376TIP3    H122687   4.157   6.816   8.743 -1.4414 -0.1237 -2.5835
  376TIP3    H222688   4.281   6.738   8.705 -0.2181  0.1975  0.5071
  377TIP3   OH222689   4.386   5.014   0.158 -0.6302 -0.1604  0.2378
  377TIP3    H122690   4.464   4.982   0.203 -0.2643 -0.6781 -0.7260
  377TIP3    H222691   4.391   5.109   0.167 -1.0411 -0.2807  2.0141
  378TIP3   OH222692   0.893   3.474   0.718  0.2102 -0.0447 -0.4461
  378TIP3    H122693   0.813   3.452   0.670  0.8787 -0.9690 -1.1908
  378TIP3    H222694   0.874   3.450   0.808 -0.6762  0.6359 -0.4384
  379TIP3   OH222695   6.354   5.331   8.360  0.2078  0.0796 -0.7037
  379TIP3    H122696   6.315   5.410   8.397 -0.3380 -1.3491  1.9881
  379TIP3    H222697   6.320   5.327   8.270  0.2359  2.8171 -0.9028
  380TIP3   OH222698   0.020   0.164   7.483 -0.0438 -0.9276 -0.4131
  380TIP3    H122699  -0.012   0.210   7.406  0.6752 -0.0499 -0.2016
  380TIP3    H222700   0.053   0.233   7.541 -0.0953 -1.6124  0.4556
  381TIP3   OH222701   1.988   3.479   0.122  0.3077 -0.2397 -0.0246
  381TIP3    H122702   1.969   3.484   0.029  0.6105 -2.4458 -0.2664
  381TIP3    H222703   1.915   3.428   0.158  1.3449 -1.3850  0.5204
  382TIP3   OH222704   2.367   4.097   7.891  0.3000 -0.2580 -0.8758
  382TIP3    H122705   2.405   4.059   7.812  0.4622  0.0301 -0.9357
  382TIP3    H222706   2.402   4.044   7.963 -1.9913 -2.3341 -1.1456
  383TIP3   OH222707   4.548   0.697   1.015  0.3917  0.5721 -0.1810
  383TIP3    H122708   4.578   0.734   1.098  1.5203 -0.7633  0.0454
  383TIP3    H222709   4.511   0.612   1.038 -1.8720  1.3231 -0.7264
  384TIP3   OH222710   0.884   3.627   8.302  0.0134 -0.0551 -0.2943
  384TIP3    H122711   0.912   3.565   8.234  1.6799  0.2700  0.0416
  384TIP3    H222712   0.895   3.713   8.261 -0.9794  0.0771 -0.2999
  385TIP3   OH222713   5.078   0.311   0.359  0.1244 -0.5056 -0.1949
  385TIP3    H122714   5.129   0.288   0.436 -0.1000  2.7890  1.1325
  385TIP3    H222715   4.987   0.297   0.384  0.1273 -1.8006 -0.8240
  386TIP3   OH222716   6.469   1.054   1.404 -0.1497 -0.2405  0.0584
  386TIP3    H122717   6.543   1.087   1.454 -0.4143 -0.8857  0.9102
  386TIP3    H222718   6.392   1.086   1.451 -0.4493  1.1423 -1.2948
  387TIP3   OH222719   3.597   1.396   7.453  0.3676  0.3847  0.2839
  387TIP3    H122720   3.647   1.443   7.519 -0.1403 -0.9406  1.6392
  387TIP3    H222721   3.518   1.450   7.440  0.6212  0.8112  0.5193
  388TIP3   OH222722   4.996   2.570   2.918 -0.0257  0.0067 -0.8929
  388TIP3    H122723   5.000   2.666   2.913 -1.1875  0.1595  0.3567
  388TIP3    H222724   4.908   2.549   2.888  0.0335 -0.6164 -0.6294
  389TIP3   OH222725   6.041   4.213   8.383  0.1392  0.2307  0.4254
  389TIP3    H122726   6.011   4.225   8.293  0.9352 -1.1211 -0.0516
  389TIP3    H222727   5.968   4.169   8.427  0.3508 -0.5521  0.0047
  390TIP3   OH222728   6.292   3.316   7.762  0.4174  0.1436  0.2949
  390TIP3    H122729   6.374   3.334   7.716  1.0844  0.6532  1.6313
  390TIP3    H222730   6.317   3.306   7.853 -0.9477 -0.2579  0.6563
  391TIP3   OH222731   2.569   1.762   7.235 -0.0594  0.0924 -0.0428
  391TIP3    H122732   2.622   1.696   7.190  0.1298  0.0763  0.2047
  391TIP3    H222733   2.481   1.725   7.237 -0.3005  0.5270 -1.3131
  392TIP3   OH222734   4.092   3.912   7.822  0.5680  0.3322 -0.0549
  392TIP3    H122735   4.176   3.869   7.806  0.2783 -0.6295  0.8924
  392TIP3    H222736   4.106   3.963   7.902  0.2105  0.0245  0.2089
  393TIP3   OH222737   3.069   5.617   0.154 -0.1492  0.2120 -0.0166
  393TIP3    H122738   3.105   5.629   0.066  0.8329 -0.3139  0.2901
  393TIP3    H222739   3.018   5.537   0.148  0.1211  0.0400 -0.0564
  394TIP3   OH222740   3.382   3.193   0.061  0.0257  0.0870 -0.4924
  394TIP3    H122741   3.358   3.286   0.063 -2.8369 -0.5509 -0.3844
  394TIP3    H222742   3.451   3.187  -0.005  0.6099  2.3261 -0.1711
  395TIP3   OH222743   2.323   1.083   1.712  0.2169  0.3503 -0.4322
  395TIP3    H122744   2.328   1.036   1.795 -0.6457 -0.5090 -0.8470
  395TIP3    H222745   2.368   1.166   1.729  1.4787 -0.4704  0.4082
  396TIP3   OH222746   6.008   1.677   7.296  0.0815  0.5324 -0.2454
  396TIP3    H122747   6.039   1.754   7.248  0.0721 -0.3301 -1.6930
  396TIP3    H222748   5.967   1.622   7.229  0.5840 -0.9962  0.6492
  397TIP3   OH222749   5.231   4.054   0.885 -0.3487  0.0930  0.2331
  397TIP3    H122750   5.142   4.055   0.921 -0.7304  0.7660 -0.6829
  397TIP3    H222751   5.286   4.026   0.957 -1.1623  0.8526  1.1784
  398TIP3   OH222752   0.233   4.713   0.292 -0.1845 -0.0083 -0.5447
  398TIP3    H122753   0.169   4.667   0.239 -2.1215  3.4205 -1.4697
  398TIP3    H222754   0.283   4.767   0.230  2.2996 -1.0492  0.4061
  399TIP3   OH222755   3.607   2.645   1.571  0.1662  0.8353 -0.1308
  399TIP3    H122756   3.608   2.626   1.665 -0.3692  0.9710 -0.0907
  399TIP3    H222757   3.564   2.730   1.565 -1.0136  0.2313 -0.5921
  400TIP3   OH222758   4.901   0.102   0.214  0.0655  0.2099 -0.0941
  400TIP3    H122759   4.892   0.019   0.259  0.1651  0.4544  0.3847
  400TIP3    H222760   4.848   0.163   0.264  0.7457  0.6431  0.1180
  401TIP3   OH222761   3.634   6.340   2.847 -0.1834  0.5901 -0.2296
  401TIP3    H122762   3.689   6.418   2.843  0.9981 -0.1562  0.9249
  401TIP3    H222763   3.546   6.372   2.826  0.3444  2.1470 -0.2053
  402TIP3   OH222764   0.364   1.262   8.870 -0.0792 -0.0942 -0.6844
  402TIP3    H122765   0.301   1.331   8.847 -0.2760 -0.0444 -0.0180
  402TIP3    H222766   0.391   1.226   8.786 -1.2738 -0.3527 -0.9824
  403TIP3   OH222767   2.636   3.484   0.488 -0.3837 -0.2747 -0.7714
  403TIP3    H122768   2.587   3.426   0.430  0.3636 -0.5575 -1.1258
  403TIP3    H222769   2.724   3.488   0.450  0.1336 -0.4985  0.3501
  404TIP3   OH222770   0.936   2.816   7.074 -0.2792  0.3919 -0.1966
  404TIP3    H122771   0.992   2.763   7.018 -2.3847 -1.7630 -0.4208
  404TIP3    H222772   0.963   2.794   7.163 -1.0286 -1.0185 -0.2928
  405TIP3   OH222773   3.030   0.844   7.985  0.1633 -0.0854  0.1717
  405TIP3    H122774   3.076   0.906   7.929  0.4616  1.2454  1.8385
  405TIP3    H222775   3.004   0.894   8.062 -1.9470 -1.3868  0.3996
  406TIP3   OH222776   3.084   6.664   3.019  0.4205 -0.1257 -0.3735
  406TIP3    H122777   3.116   6.635   2.933  1.0118  0.6662 -0.4230
  406TIP3    H222778   2.998   6.703   3.000  0.9123  0.8155 -0.7443
  407TIP3   OH222779   5.147   2.741   6.665  0.4662 -0.7110 -0.1062
  407TIP3    H122780   5.218   2.733   6.728 -0.1929  1.9740  1.0773
  407TIP3    H222781   5.143   2.834   6.643 -2.7443 -0.6873 -0.0111
  408TIP3   OH222782   4.829   1.764   8.574 -0.1964  0.1416  0.0563
  408TIP3    H122783   4.781   1.695   8.620  0.0512  0.1608  0.3500
  408TIP3    H222784   4.802   1.756   8.483 -0.7279  0.1290  0.2130
  409TIP3   OH222785   2.007   6.065   8.691 -0.2721 -0.0825  0.0254
  409TIP3    H122786   2.061   6.142   8.672 -0.0451  0.0371  1.0897
  409TIP3    H222787   1.991   6.070   8.785 -0.0148 -1.4955  0.1668
  410TIP3   OH222788   2.780   3.985   7.551  0.2853 -0.1685  0.5290
  410TIP3    H122789   2.803   4.060   7.495  0.8169 -1.3604 -0.8982
  410TIP3    H222790   2.753   4.025   7.634 -1.4635  1.7104 -0.8574
  411TIP3   OH222791   6.335   5.673   7.214 -0.3906 -0.3238  0.4480
  411TIP3    H122792   6.380   5.714   7.288 -0.2328 -2.1079  1.3799
  411TIP3    H222793   6.263   5.733   7.194 -0.2047  0.3854  1.7978
  412TIP3   OH222794   3.353   0.958   7.680  0.1608  0.4368 -0.1539
  412TIP3    H122795   3.435   0.983   7.638 -0.1281 -0.0671 -1.0451
  412TIP3    H222796   3.360   0.863   7.692  0.3535  0.6065  1.2189
  413TIP3   OH222797   5.203   6.104   7.766 -0.2769  0.1882 -0.0329
  413TIP3    H122798   5.280   6.135   7.814 -1.1183  0.8495  0.9177
  413TIP3    H222799   5.168   6.033   7.820 -1.7345  1.5169  0.8289
  414TIP3   OH222800   3.579   4.341   0.717  0.1159 -0.0738  0.0434
  414TIP3    H122801   3.585   4.357   0.811  1.3212  1.7923 -0.2948
  414TIP3    H222802   3.490   4.365   0.694 -0.4688 -1.3966  0.8171
  415TIP3   OH222803   4.757   5.812   7.109 -0.5305 -0.3319  0.0041
  415TIP3    H122804   4.697   5.833   7.180  1.1944  0.1435  1.4053
  415TIP3    H222805   4.787   5.723   7.128 -1.7081 -1.0784 -1.4094
  416TIP3   OH222806   3.407   2.028   1.821 -0.4160 -0.0722  0.0536
  416TIP3    H122807   3.498   2.004   1.807  0.0223  1.8889 -0.7916
  416TIP3    H222808   3.398   2.113   1.779 -1.8097  1.2921  2.8303
  417TIP3   OH222809   3.034   1.802   1.455 -0.1651  0.0200  0.1411
  417TIP3    H122810   3.035   1.712   1.422 -2.4591  0.7399 -2.1592
  417TIP3    H222811   3.087   1.851   1.392 -0.4359  0.5786  0.3443
  418TIP3   OH222812   0.467   3.587   1.345  0.1181  0.1134  0.1225
  418TIP3    H122813   0.381   3.593   1.386 -0.0306  0.4235 -0.2246
  418TIP3    H222814   0.528   3.620   1.412 -0.0254 -0.1489  0.3838
  419TIP3   OH222815   2.086   6.606   0.968  0.3460  0.0101 -0.6775
  419TIP3    H122816   2.176   6.577   0.985 -0.0004 -0.1786  1.0498
  419TIP3    H222817   2.052   6.544   0.903  0.6717 -1.4817  0.5322
  420TIP3   OH222818   2.681   4.920   1.736  0.5011 -0.1704 -0.5290
  420TIP3    H122819   2.688   5.006   1.777 -0.6817 -0.2358 -0.1506
  420TIP3    H222820   2.590   4.913   1.708  0.2932 -1.7014  0.3933
  421TIP3   OH222821   4.171   6.420   8.803 -0.5329  0.4026 -0.2837
  421TIP3    H122822   4.133   6.343   8.845 -0.3401  0.0193 -0.7961
  421TIP3    H222823   4.248   6.386   8.756 -0.0430  1.0266  0.0562
  422TIP3   OH222824   2.223   2.064   8.431  0.7963  0.0666 -0.0959
  422TIP3    H122825   2.229   2.160   8.433 -0.3951  0.1517  0.1808
  422TIP3    H222826   2.304   2.036   8.388 -0.2530  1.3679 -3.2700
  423TIP3   OH222827   2.633   4.523   1.074 -0.8299 -0.3728  0.5880
  423TIP3    H122828   2.548   4.487   1.051 -0.8374 -0.6971  1.1052
  423TIP3    H222829   2.696   4.456   1.047 -0.7012  0.0634 -0.2134
  424TIP3   OH222830   0.654   0.709   8.271 -0.0966  0.6668  0.2906
  424TIP3    H122831   0.569   0.675   8.242  0.4751  1.8152 -3.1928
  424TIP3    H222832   0.697   0.634   8.312 -1.9467 -0.5215  0.1858
  425TIP3   OH222833   1.912   4.623   2.724  0.6315 -1.0133 -0.5507
  425TIP3    H122834   1.849   4.590   2.789  2.5357 -0.6984  1.5897
  425TIP3    H222835   1.954   4.544   2.689  0.4129 -1.1362 -0.5372
  426TIP3   OH222836   5.137   1.605   0.067 -0.4853 -0.2876  0.3830
  426TIP3    H122837   5.188   1.592  -0.013  2.6201  0.2368  2.0901
  426TIP3    H222838   5.097   1.691   0.056  0.8569  0.2988 -0.2056
  427TIP3   OH222839   5.586   2.378   7.936 -0.5486 -0.4986 -0.2306
  427TIP3    H122840   5.508   2.345   7.892 -0.9702 -1.2540  1.0115
  427TIP3    H222841   5.620   2.446   7.878 -1.3101 -1.1449 -1.4787
  428TIP3   OH222842   0.020   1.771   0.014 -0.0723 -0.5648 -0.8546
  428TIP3    H122843   0.010   1.863   0.037  0.1979 -0.5948 -0.6109
  428TIP3    H222844  -0.053   1.726   0.057 -0.1319 -0.4819 -0.8704
  429TIP3   OH222845   3.679   5.105   7.044  0.0516  0.0309  0.0417
  429TIP3    H122846   3.751   5.074   7.099  0.2749  0.8029  0.2002
  429TIP3    H222847   3.601   5.063   7.080  0.1286  0.8828  1.2665
  430TIP3   OH222848   1.983   1.215   2.639 -0.1830  0.4612 -0.3404
  430TIP3    H122849   2.015   1.222   2.729 -0.1626 -0.4908 -0.2611
  430TIP3    H222850   1.888   1.224   2.647 -0.1787  0.4085 -0.2227
  431TIP3   OH222851   0.339   3.852   0.486 -0.1927  0.5483 -0.0402
  431TIP3    H122852   0.255   3.829   0.447  0.4422  1.0365 -1.7816
  431TIP3    H222853   0.392   3.884   0.413  1.8181 -0.5591  0.8392
  432TIP3   OH222854   1.362   5.624   8.592  0.3782 -0.7093  0.2069
  432TIP3    H122855   1.409   5.615   8.509 -2.6540  1.5330 -1.9922
  432TIP3    H222856   1.378   5.714   8.619  0.4153 -1.0809  1.4809
  433TIP3   OH222857   0.552   4.053   1.869  0.5744 -0.4585  0.0575
  433TIP3    H122858   0.637   4.076   1.832  0.4627 -1.9930 -1.2593
  433TIP3    H222859   0.572   4.000   1.947  0.8197 -0.4985 -0.0343
  434TIP3   OH222860   4.249   2.897   1.224  0.2207 -0.2535  0.5132
  434TIP3    H122861   4.200   2.815   1.223 -0.1075 -0.0523  0.0936
  434TIP3    H222862   4.340   2.871   1.207  0.2411 -0.6112  1.1594
  435TIP3   OH222863   1.629   1.181   1.845  0.0434  0.3826 -0.1462
  435TIP3    H122864   1.598   1.211   1.759  1.5938 -1.0204 -1.2494
  435TIP3    H222865   1.549   1.165   1.894 -1.0250 -1.4253 -2.2908
  436TIP3   OH222866   2.949   4.703   0.581  0.1357 -0.2954  0.4172
  436TIP3    H122867   2.964   4.795   0.603 -2.1434  0.1510  0.3133
  436TIP3    H222868   3.031   4.674   0.542  1.7967  0.9528  2.7272
  437TIP3   OH222869   2.032   3.952   0.615  0.1002  0.0244 -0.0688
  437TIP3    H122870   2.092   3.882   0.590  0.8587  1.4178 -2.6181
  437TIP3    H222871   1.972   3.960   0.540  1.0734  3.0687 -0.6863
  438TIP3   OH222872   2.308   1.786   1.449  0.5798 -0.0647  0.1040
  438TIP3    H122873   2.244   1.763   1.516 -2.3079  1.2125 -2.0096
  438TIP3    H222874   2.337   1.874   1.473  0.1566  0.0770  0.0981
  439TIP3   OH222875   0.699   2.004   7.717 -0.5974  0.6790  0.6303
  439TIP3    H122876   0.706   2.047   7.631  0.6823  1.0175  0.8962
  439TIP3    H222877   0.631   1.937   7.704  2.3263 -2.1364 -1.8783
  440TIP3   OH222878   0.097   3.673   1.264 -0.0017 -0.2297 -0.4372
  440TIP3    H122879   0.050   3.594   1.290  0.8184 -0.4881  0.2866
  440TIP3    H222880   0.157   3.690   1.336 -0.5284  1.3530 -0.3355
  441TIP3   OH222881   1.796   4.980   7.693  0.2633  0.5571 -0.0559
  441TIP3    H122882   1.806   4.948   7.603  0.5142 -0.3219  0.2665
  441TIP3    H222883   1.702   4.973   7.710  0.1325  1.2815 -0.4369
  442TIP3   OH222884   4.329   6.615   7.670  0.3877 -0.1343 -0.1192
  442TIP3    H122885   4.322   6.525   7.700  1.5593  0.2666  1.4998
  442TIP3    H222886   4.419   6.640   7.691 -0.1604  1.6700  0.2473
  443TIP3   OH222887   6.038   5.343   8.406 -0.2685 -0.4937 -0.3447
  443TIP3    H122888   6.022   5.411   8.340  2.0805  1.7442  1.1812
  443TIP3    H222889   6.023   5.387   8.489  2.3507 -1.4324  0.7342
  444TIP3   OH222890   1.630   1.135   0.524 -0.2856 -0.2891 -0.3068
  444TIP3    H122891   1.613   1.143   0.618 -0.0695 -2.4768 -0.0260
  444TIP3    H222892   1.725   1.124   0.518 -0.3742 -0.9369 -0.6737
  445TIP3   OH222893   3.529   1.109   0.106 -0.1290  0.5934  0.1959
  445TIP3    H122894   3.446   1.148   0.077 -1.1068 -0.3248  1.5875
  445TIP3    H222895   3.582   1.104   0.027 -1.9329 -0.0586 -1.0497
  446TIP3   OH222896   0.839   1.969   8.869  0.3468  0.0913  0.3203
  446TIP3    H122897   0.846   1.887   8.820  0.7577 -0.3217  1.0531
  446TIP3    H222898   0.767   2.016   8.826 -0.7872 -1.2227  0.6861
  447TIP3   OH222899   6.346   2.994   1.273  0.2751  0.0914  0.1811
  447TIP3    H122900   6.360   3.081   1.311  0.3149  0.9862 -1.7542
  447TIP3    H222901   6.409   2.938   1.319  1.6204  1.4983  0.1462
  448TIP3   OH222902   3.593   1.975   6.654  0.4806 -0.1987  0.1224
  448TIP3    H122903   3.677   2.009   6.623  0.1996 -0.3062 -0.7634
  448TIP3    H222904   3.528   2.012   6.595  0.1059 -1.7735 -0.5046
  449TIP3   OH222905   2.676   0.224   0.670  0.0728  0.0115  0.5808
  449TIP3    H122906   2.649   0.142   0.629  1.5087 -0.2375  0.0527
  449TIP3    H222907   2.625   0.229   0.750 -1.0672 -0.6831 -0.0798
  450TIP3   OH222908   4.929   2.257   7.763 -0.3355  0.2894 -0.2063
  450TIP3    H122909   4.976   2.174   7.774  1.0992  1.1262  0.2866
  450TIP3    H222910   4.871   2.262   7.839  1.7127  1.0477  1.4022
  451TIP3   OH222911   3.916   3.913   8.173 -0.1632  0.2093  0.0795
  451TIP3    H122912   3.934   3.970   8.098  0.7887 -0.4868 -0.2418
  451TIP3    H222913   3.884   3.972   8.241  3.1457  1.5997  0.6123
  452TIP3   OH222914   2.481   0.344   1.997  0.2167  0.0795  0.5379
  452TIP3    H122915   2.532   0.286   1.941  0.4939 -2.1139  2.8791
  452TIP3    H222916   2.534   0.355   2.076 -0.9933  1.4643  1.2188
  453TIP3   OH222917   1.409   6.030   1.861  0.5080  0.0637 -0.8109
  453TIP3    H122918   1.346   5.958   1.860  1.3124 -0.6675 -0.4012
  453TIP3    H222919   1.495   5.987   1.859  1.0045  1.0034 -0.4856
  454TIP3   OH222920   2.337   1.086   2.517  0.2253 -0.0123 -0.3344
  454TIP3    H122921   2.279   1.147   2.563  1.1628  0.7037 -0.0834
  454TIP3    H222922   2.298   1.079   2.429 -0.9371 -0.5250  0.2015
  455TIP3   OH222923   2.422   2.723   2.241 -1.0696  0.2931 -0.3060
  455TIP3    H122924   2.371   2.800   2.266 -1.1751 -0.5534  2.3428
  455TIP3    H222925   2.365   2.648   2.261 -0.2936 -0.5512 -1.1302
  456TIP3   OH222926   2.066   6.580   1.755 -0.4470 -0.2395 -0.0256
  456TIP3    H122927   1.979   6.582   1.717  0.6481  0.3143 -2.7255
  456TIP3    H222928   2.061   6.639   1.831 -2.3581 -0.1579 -0.1859
  457TIP3   OH222929   5.920   2.931   0.407  0.5672 -0.7802 -0.0680
  457TIP3    H122930   5.865   2.988   0.461  0.0892 -0.1250 -1.2282
  457TIP3    H222931   5.905   2.844   0.443 -0.6766 -0.5164  0.1032
  458TIP3   OH222932   5.027   0.356   0.909 -0.4624 -0.0125 -0.0568
  458TIP3    H122933   5.057   0.327   0.823 -0.7811  0.0967 -0.2044
  458TIP3    H222934   5.108   0.374   0.958 -0.2721 -0.4490 -0.2027
  459TIP3   OH222935   5.171   4.185   1.225 -0.6210 -0.2169  0.1708
  459TIP3    H122936   5.082   4.202   1.257 -0.5151  0.7537 -0.0310
  459TIP3    H222937   5.209   4.272   1.212 -0.5866 -0.5582 -2.4176
  460TIP3   OH222938   5.561   2.656   1.168  0.0140 -1.2596  0.4401
  460TIP3    H122939   5.563   2.659   1.263  0.6382  0.4610  0.4021
  460TIP3    H222940   5.530   2.743   1.142 -0.0961 -1.6869 -0.9237
  461TIP3   OH222941   5.048   3.091   8.393 -0.3730 -0.0765  0.0527
  461TIP3    H122942   5.123   3.033   8.381 -0.0029  0.3272  0.3625
  461TIP3    H222943   5.074   3.173   8.351 -0.5585  0.1265  0.3314
  462TIP3   OH222944   5.792   4.295   1.327 -0.5851 -0.2156 -0.2489
  462TIP3    H122945   5.738   4.249   1.263  1.9930  1.0269 -3.6204
  462TIP3    H222946   5.734   4.363   1.362 -1.9682 -0.5745 -1.6865
  463TIP3   OH222947   5.010   5.218   0.950 -0.3150 -0.0303  0.2355
  463TIP3    H122948   5.009   5.227   1.045  1.8465  0.0180  0.2887
  463TIP3    H222949   4.991   5.125   0.934  0.5682 -0.3158  0.7902
  464TIP3   OH222950   1.200   2.418   8.383  0.0849  0.1888  0.2683
  464TIP3    H122951   1.258   2.345   8.405  1.5704  1.4598  0.7372
  464TIP3    H222952   1.176   2.456   8.468  0.7543  1.2963 -0.0204
  465TIP3   OH222953   3.888   1.766   2.004  0.2822  0.2302 -0.0499
  465TIP3    H122954   3.839   1.691   2.038  0.4503  0.9819  1.9406
  465TIP3    H222955   3.961   1.727   1.956 -0.7240 -0.8771 -0.7305
  466TIP3   OH222956   2.735   1.940   2.047 -0.1147  0.2017 -0.4251
  466TIP3    H122957   2.725   1.947   2.142  2.2564 -1.8631  0.0965
  466TIP3    H222958   2.792   2.013   2.024  1.4751 -0.7559  0.2597
  467TIP3   OH222959   3.516   2.290   8.157  0.4984 -0.1120  0.0946
  467TIP3    H122960   3.604   2.273   8.191  0.3968  0.9643  0.9463
  467TIP3    H222961   3.526   2.369   8.104 -0.2438  1.0105  1.5626
  468TIP3   OH222962   3.055   3.367   7.397 -0.2088 -0.1844  0.1140
  468TIP3    H122963   2.987   3.316   7.440  0.3208 -3.2892 -2.3283
  468TIP3    H222964   3.011   3.409   7.323 -0.0982  0.4966  0.4374
  469TIP3   OH222965   4.522   2.527   0.597  0.4710 -0.3123 -0.0433
  469TIP3    H122966   4.447   2.587   0.588 -0.1360 -1.0199  0.1875
  469TIP3    H222967   4.578   2.569   0.662  1.0086  0.9438 -1.2679
  470TIP3   OH222968   2.082   3.346   7.525 -0.2258 -0.6251  0.2255
  470TIP3    H122969   2.174   3.325   7.507  0.6954  1.3226  2.1844
  470TIP3    H222970   2.051   3.386   7.444 -0.6763 -4.7094 -1.9089
  471TIP3   OH222971   4.295   4.938   0.751 -0.0122  0.1020 -0.0204
  471TIP3    H122972   4.312   4.857   0.798  0.3482  0.1384 -0.0821
  471TIP3    H222973   4.339   5.005   0.803 -0.4026  0.2716  0.0881
  472TIP3   OH222974   5.465   4.293   0.068  0.2733 -0.3643 -0.0112
  472TIP3    H122975   5.476   4.348  -0.010 -1.2094  0.1050  0.0730
  472TIP3    H222976   5.492   4.206   0.040  2.6545  0.3486 -0.1600
  473TIP3   OH222977   1.558   0.710   2.627 -0.2509 -0.4887  0.0764
  473TIP3    H122978   1.470   0.726   2.661 -0.9954 -1.0733 -1.4718
  473TIP3    H222979   1.558   0.617   2.603 -0.3541  0.1648 -2.8923
  474TIP3   OH222980   3.695   2.132   0.205 -0.2136 -0.3946 -0.4138
  474TIP3    H122981   3.687   2.159   0.296  2.7796 -0.7836  0.0773
  474TIP3    H222982   3.634   2.059   0.195 -0.5664 -0.3562  1.2942
  475TIP3   OH222983   2.893   0.613   8.136  0.2084  0.1191  0.0301
  475TIP3    H122984   2.875   0.609   8.042 -0.7869  0.6381  0.1845
  475TIP3    H222985   2.900   0.707   8.155  1.6064 -0.0048  0.2782
  476TIP3   OH222986   3.836   3.953   0.090 -0.6471  0.5447 -0.3559
  476TIP3    H122987   3.822   3.872   0.041 -0.4712  1.0412 -1.2410
  476TIP3    H222988   3.748   3.985   0.109 -0.7209  0.0672  0.1596
  477TIP3   OH222989   5.813   3.191   2.581  0.2234  0.6551 -0.0182
  477TIP3    H122990   5.823   3.212   2.674 -1.3861 -1.0338  0.5998
  477TIP3    H222991   5.888   3.134   2.561 -0.7200 -1.0483  0.9884
  478TIP3   OH222992   4.107   2.392   8.052 -0.0294 -0.2841 -0.0699
  478TIP3    H122993   4.090   2.368   7.961 -1.7103  0.6892 -0.0504
  478TIP3    H222994   4.111   2.309   8.099  1.3541 -0.8284 -1.0774
  479TIP3   OH222995   1.951   2.608   1.570 -0.2704 -0.5121  0.1168
  479TIP3    H122996   1.893   2.536   1.549 -0.6823  0.2316 -1.4401
  479TIP3    H222997   1.894   2.675   1.607 -0.3039 -0.0697 -0.7140
  480TIP3   OH222998   6.626   1.584   2.259 -0.5951 -0.2252 -0.3770
  480TIP3    H122999   6.661   1.513   2.205 -0.1362  0.2392 -0.6928
  480TIP3    H223000   6.678   1.661   2.236 -1.4349  0.3494 -0.4366
  481TIP3   OH223001   2.894   4.647   0.296  0.0382  0.4939 -0.0881
  481TIP3    H123002   2.898   4.686   0.384  0.4457 -0.3699  0.2912
  481TIP3    H223003   2.980   4.607   0.284  0.0213  0.6948 -0.9329
  482TIP3   OH223004   2.892   0.908   7.609 -0.1381  0.4180 -0.1499
  482TIP3    H123005   2.932   0.831   7.568 -1.8617 -0.2508 -0.6774
  482TIP3    H223006   2.842   0.873   7.682 -0.3781  1.1252  0.0319
  483TIP3   OH223007   5.339   4.781   1.806  0.2145  0.0693  0.1241
  483TIP3    H123008   5.249   4.775   1.839  0.2442  0.2105  0.2307
  483TIP3    H223009   5.369   4.866   1.835 -0.4021  1.0343 -1.9089
  484TIP3   OH223010   4.825   0.325   1.556 -0.0565  0.6397 -0.6975
  484TIP3    H123011   4.905   0.352   1.510  0.9492  0.1488  0.6907
  484TIP3    H223012   4.841   0.347   1.648 -0.7874 -1.0728 -0.1205
  485TIP3   OH223013   6.532   0.744   2.242 -0.0256  0.9043 -0.3271
  485TIP3    H123014   6.616   0.700   2.233 -0.5650 -0.2720  0.2160
  485TIP3    H223015   6.478   0.708   2.172 -0.2124  1.3377 -0.4101
  486TIP3   OH223016   5.279   2.940   8.381  0.2720  0.2902  0.4316
  486TIP3    H123017   5.360   2.979   8.349  1.1530  0.2145  2.4175
  486TIP3    H223018   5.282   2.849   8.349 -0.1726  0.8828 -1.4010
  487TIP3   OH223019   0.921   5.520   8.113 -0.3240  0.4729  0.0599
  487TIP3    H123020   0.961   5.433   8.107 -1.8757 -0.6068  3.1095
  487TIP3    H223021   0.932   5.557   8.026  2.3283 -1.8868 -0.7607
  488TIP3   OH223022   2.593   4.919   7.560 -0.1323  0.4698  0.5984
  488TIP3    H123023   2.524   4.876   7.509 -0.9552  1.7407  0.6035
  488TIP3    H223024   2.674   4.890   7.518 -0.7102 -0.1347 -0.1407
  489TIP3   OH223025   6.577   0.134   1.744  0.1400  0.5958  0.0203
  489TIP3    H123026   6.487   0.103   1.737  0.1544  0.5626 -0.0175
  489TIP3    H223027   6.628   0.056   1.765  0.1819  0.5878 -0.1148
  490TIP3   OH223028   5.289   1.610   8.186 -0.3505 -0.0181 -0.4500
  490TIP3    H123029   5.365   1.619   8.128  0.8850 -0.4615  1.0401
  490TIP3    H223030   5.288   1.517   8.209 -1.3491 -0.0125 -0.4315
  491TIP3   OH223031   0.046   2.269   8.331  0.2950  0.0554 -0.0360
  491TIP3    H123032  -0.046   2.253   8.313 -0.1252  2.0634  0.1544
  491TIP3    H223033   0.077   2.187   8.371 -1.8837 -0.0074  1.7223
  492TIP3   OH223034   2.436   2.250   7.943 -0.9508  0.3788  0.1514
  492TIP3    H123035   2.437   2.341   7.973  1.0129 -0.0673  1.5663
  492TIP3    H223036   2.375   2.206   8.002 -0.9381  0.5128  0.2639
  493TIP3   OH223037   0.035   2.098   0.332 -0.1170 -0.2499 -0.3827
  493TIP3    H123038   0.002   2.031   0.392 -0.6597 -0.2337 -0.6584
  493TIP3    H223039   0.111   2.134   0.377 -2.3162  2.0404  1.8846
  494TIP3   OH223040   3.515   3.651   1.900 -0.2714  0.5910 -0.0408
  494TIP3    H123041   3.545   3.600   1.975 -0.4707  1.0341  0.3427
  494TIP3    H223042   3.526   3.742   1.927 -3.4403  0.8429  0.7625
  495TIP3   OH223043   4.709   5.522   2.021 -0.5393  0.0497  0.1370
  495TIP3    H123044   4.636   5.505   1.962  0.0811  0.1040 -0.6706
  495TIP3    H223045   4.672   5.574   2.091 -2.6398 -4.4787  2.8425
  496TIP3   OH223046   1.922   4.702   8.343 -0.0652 -0.4123 -0.4550
  496TIP3    H123047   1.863   4.731   8.414 -0.8368 -0.8208 -0.9177
  496TIP3    H223048   2.006   4.742   8.365 -0.6462  0.6576 -0.0770
  497TIP3   OH223049   6.687   6.188   7.742 -0.4049 -0.2822  0.5931
  497TIP3    H123050   6.679   6.199   7.836 -2.6763 -2.6836  0.8123
  497TIP3    H223051   6.610   6.233   7.706  0.1297  0.1177 -0.0812
  498TIP3   OH223052   3.821   1.268   0.652  0.1137  0.2247  0.6860
  498TIP3    H123053   3.901   1.216   0.660 -0.2682 -1.4148 -3.5045
  498TIP3    H223054   3.755   1.219   0.702  0.6159 -1.4193 -0.1718
  499TIP3   OH223055   3.684   4.898   2.239 -0.0376  0.4911  0.1666
  499TIP3    H123056   3.664   4.846   2.316  0.6424  0.4644  0.3277
  499TIP3    H223057   3.602   4.944   2.220 -0.1539  0.6515  1.0132
  500TIP3   OH223058   6.059   3.579   6.883 -0.2683  0.8314 -0.1058
  500TIP3    H123059   6.053   3.490   6.919 -1.7591  1.0021  0.1331
  500TIP3    H223060   6.099   3.567   6.797 -2.4337 -0.3888 -1.0342
  501TIP3   OH223061   5.518   3.163   1.039 -0.7582 -0.2676  0.5067
  501TIP3    H123062   5.575   3.185   0.965 -2.1609  1.9637 -0.0025
  501TIP3    H223063   5.572   3.180   1.116 -0.1588  0.0656  0.0242
  502TIP3   OH223064   3.708   6.444   8.506  0.0171 -0.4885 -0.0048
  502TIP3    H123065   3.764   6.390   8.451 -0.0534 -1.5220  0.9060
  502TIP3    H223066   3.762   6.467   8.581 -0.5523 -0.9660  0.5702
  503TIP3   OH223067   1.123   2.112   0.706 -0.4343  0.1738 -0.5660
  503TIP3    H123068   1.141   2.192   0.657 -1.4171  1.0048  0.3857
  503TIP3    H223069   1.038   2.082   0.672 -1.3156  0.9691  0.8463
  504TIP3   OH223070   5.020   6.602   1.873 -0.2737 -0.1722  0.4821
  504TIP3    H123071   4.961   6.673   1.845  0.4156  0.9826  1.8088
  504TIP3    H223072   5.093   6.607   1.812 -0.9477 -0.8151 -0.4141
  505TIP3   OH223073   2.864   6.260   1.235 -0.1133 -0.2650 -0.1000
  505TIP3    H123074   2.902   6.173   1.246 -1.7193 -0.8400  1.3036
  505TIP3    H223075   2.922   6.304   1.172  2.5472 -1.2547  1.4759
  506TIP3   OH223076   1.603   0.760   1.435 -0.3219 -0.0277 -0.2272
  506TIP3    H123077   1.625   0.791   1.523  0.0793 -1.5846  0.2493
  506TIP3    H223078   1.607   0.664   1.442 -1.5519 -0.2116 -1.6130
  507TIP3   OH223079   6.231   1.739   7.007  0.5440 -0.9895 -0.2139
  507TIP3    H123080   6.188   1.787   7.078  0.2628 -1.5371 -0.0073
  507TIP3    H223081   6.320   1.774   7.005 -0.6552  2.5594 -2.7666
  508TIP3   OH223082   1.327   5.835   8.783 -0.3812  0.7073 -0.4346
  508TIP3    H123083   1.328   5.858   8.876  1.4049 -1.6854  0.2596
  508TIP3    H223084   1.235   5.826   8.760 -0.8528  1.5604  1.0549
  509TIP3   OH223085   1.513   0.140   0.821 -0.2327  0.2800  0.3309
  509TIP3    H123086   1.521   0.101   0.907  1.7208 -0.5698 -0.1867
  509TIP3    H223087   1.595   0.188   0.808  0.4363 -1.2970 -1.8312
  510TIP3   OH223088   5.050   5.508   7.194 -0.5748 -0.3286  0.0890
  510TIP3    H123089   4.963   5.488   7.229 -0.2811 -1.1818  0.3642
  510TIP3    H223090   5.046   5.480   7.103  0.0662 -2.5124  0.6605
  511TIP3   OH223091   1.745   5.171   2.161  0.6109 -0.5533  0.3392
  511TIP3    H123092   1.808   5.195   2.093  1.1416 -0.8148  0.7315
  511TIP3    H223093   1.670   5.137   2.113  1.4295 -1.8271 -0.0920
  512TIP3   OH223094   6.462   4.881   1.264  0.6556 -0.3124 -0.2039
  512TIP3    H123095   6.441   4.790   1.241  0.2667  0.0142 -1.1784
  512TIP3    H223096   6.541   4.901   1.213  0.3390  0.1118 -0.5344
  513TIP3   OH223097   0.115   5.700   0.530 -0.0129  0.5976 -0.0274
  513TIP3    H123098   0.091   5.737   0.614  1.1077 -0.2087  0.6696
  513TIP3    H223099   0.211   5.694   0.532 -0.0862 -1.7962 -0.3001
  514TIP3   OH223100   1.908   4.560   1.527 -0.2365 -0.2120 -0.7143
  514TIP3    H123101   1.973   4.508   1.479 -0.3559 -0.6309 -0.4344
  514TIP3    H223102   1.824   4.524   1.501 -0.2947 -0.5562 -0.0743
  515TIP3   OH223103   5.554   5.848   2.952 -0.3669  0.2722  0.6341
  515TIP3    H123104   5.487   5.789   2.920  0.0169 -0.2686  0.8113
  515TIP3    H223105   5.513   5.895   3.025 -0.2782 -0.7042  1.3359
  516TIP3   OH223106   5.855   3.340   2.044 -0.7402  0.3408  0.1073
  516TIP3    H123107   5.914   3.338   1.969  2.3741 -1.5219  2.3760
  516TIP3    H223108   5.879   3.420   2.091 -2.8265  1.6191 -0.8473
  517TIP3   OH223109   2.206   4.721   1.342  0.1620  0.3272 -0.3122
  517TIP3    H123110   2.197   4.815   1.353 -0.0401  0.2829 -0.1083
  517TIP3    H223111   2.131   4.696   1.287  0.7924  0.4444 -1.2638
  518TIP3   OH223112   1.192   1.048   8.101 -0.1919 -0.3804  0.2621
  518TIP3    H123113   1.188   0.952   8.091  0.2080 -0.8442  3.3530
  518TIP3    H223114   1.101   1.074   8.112 -0.2791 -0.4588 -0.2807
  519TIP3   OH223115   2.202   5.032   1.330 -0.1049 -0.7227  0.5547
  519TIP3    H123116   2.192   5.015   1.236  0.2823 -0.3941  0.4499
  519TIP3    H223117   2.134   5.097   1.349  0.9748  0.6032  0.0981
  520TIP3   OH223118   6.419   4.438   8.045  0.2182  0.2594  0.1750
  520TIP3    H123119   6.494   4.381   8.064  0.4658  0.4862 -0.1139
  520TIP3    H223120   6.356   4.417   8.114  0.2378 -0.4770 -0.0204
  521TIP3   OH223121   6.254   4.482   1.064 -0.2859  0.4846  0.0783
  521TIP3    H123122   6.327   4.422   1.053 -1.1515 -0.4113 -0.9541
  521TIP3    H223123   6.193   4.435   1.120 -0.1955  1.1258  0.7245
  522TIP3   OH223124   4.573   5.274   1.584 -0.0742 -0.0304 -0.1095
  522TIP3    H123125   4.661   5.283   1.549  0.5661 -0.2841  1.3366
  522TIP3    H223126   4.525   5.225   1.517  1.2255 -0.9638 -0.3924
  523TIP3   OH223127   5.748   2.963   7.963  0.7781 -0.0859  0.3399
  523TIP3    H123128   5.710   2.919   7.887  0.6794 -0.4518  0.5971
  523TIP3    H223129   5.697   2.931   8.037  0.4179  0.7985  0.4910
  524TIP3   OH223130   4.149   1.969   1.465  0.4843 -0.0202  0.1462
  524TIP3    H123131   4.077   1.956   1.527  1.2175  0.4978  1.1357
  524TIP3    H223132   4.107   1.967   1.379 -0.8658  1.2606  0.7361
  525TIP3   OH223133   4.455   5.753   2.360  0.0039  0.5994 -0.8326
  525TIP3    H123134   4.416   5.816   2.299 -1.2114  0.9232  0.2345
  525TIP3    H223135   4.381   5.722   2.412  1.2180  1.8931  1.8833
  526TIP3   OH223136   2.559   1.923   8.632  0.1827 -0.0550 -0.5159
  526TIP3    H123137   2.652   1.928   8.653 -0.2503  0.9210  1.4013
  526TIP3    H223138   2.556   1.909   8.537  2.2698 -0.9636 -0.4913
  527TIP3   OH223139   4.755   0.508   8.047  0.2853 -0.0410  0.7083
  527TIP3    H123140   4.742   0.433   8.105 -0.7055 -0.7552 -0.3924
  527TIP3    H223141   4.697   0.491   7.973 -0.4597  2.1393  0.7374
  528TIP3   OH223142   0.743   0.053   0.485 -0.4434  0.6620 -0.2843
  528TIP3    H123143   0.673  -0.011   0.500  0.2952 -0.1826 -0.3311
  528TIP3    H223144   0.819   0.015   0.529  0.2854  0.9878 -1.2370
  529TIP3   OH223145   4.521   2.101   7.676  0.1260 -0.0082 -0.2533
  529TIP3    H123146   4.555   2.183   7.639  1.4358  0.2222  1.3611
  529TIP3    H223147   4.460   2.069   7.609  0.2672  1.7990 -1.3400
  530TIP3   OH223148   3.732   0.196   2.964  0.1255 -0.0311  0.1550
  530TIP3    H123149   3.746   0.101   2.963 -1.6427 -0.4814 -3.9398
  530TIP3    H223150   3.638   0.205   2.982  0.1516  0.9092 -0.1641
  531TIP3   OH223151   3.474   3.821   0.146  0.0546 -0.1601  0.4785
  531TIP3    H123152   3.515   3.875   0.214  0.8566 -0.2675  0.0925
  531TIP3    H223153   3.401   3.779   0.190  1.3902 -1.3361  1.6894
  532TIP3   OH223154   5.197   5.054   2.305  0.2574 -0.2052 -0.5384
  532TIP3    H123155   5.277   5.010   2.274  0.8514 -0.0028  0.6194
  532TIP3    H223156   5.126   5.000   2.272  0.9580 -1.9517  0.6467
  533TIP3   OH223157   1.156   5.534   2.385 -0.4745 -0.1580  0.6218
  533TIP3    H123158   1.079   5.477   2.384 -0.5183 -0.0998 -0.3875
  533TIP3    H223159   1.216   5.494   2.448 -0.1562 -1.7972 -0.6744
  534TIP3   OH223160   1.611   4.373   8.571 -0.7873  0.1450 -0.3744
  534TIP3    H123161   1.589   4.461   8.601 -0.9253 -0.1405  0.3856
  534TIP3    H223162   1.528   4.326   8.571 -0.2257 -1.2317  3.4795
  535TIP3   OH223163   5.874   1.992   2.787  0.2280  0.1802  0.5810
  535TIP3    H123164   5.905   1.920   2.731 -0.8370  0.3806 -0.3034
  535TIP3    H223165   5.779   1.989   2.779  0.1103  0.8790  1.5801
  536TIP3   OH223166   5.566   4.233   1.157  0.1051 -0.2059 -0.2521
  536TIP3    H123167   5.506   4.287   1.208  0.1436 -1.2478  0.9234
  536TIP3    H223168   5.518   4.152   1.141  0.5393 -0.3550 -0.8549
  537TIP3   OH223169   1.456   1.495   7.812 -0.3225 -0.4549  0.3160
  537TIP3    H123170   1.515   1.439   7.863  0.5457 -0.2709 -0.4510
  537TIP3    H223171   1.421   1.557   7.875  0.3808 -0.5171  0.7765
  538TIP3   OH223172   2.561   3.740   0.372  0.3872  0.1047 -0.6175
  538TIP3    H123173   2.511   3.792   0.433  3.0860  0.2373  1.6992
  538TIP3    H223174   2.558   3.651   0.407 -0.8751 -0.5802 -2.3101
  539TIP3   OH223175   2.286   0.066   8.170  0.1844 -0.1558 -0.2048
  539TIP3    H123176   2.256   0.024   8.251  0.0492  0.2697 -0.0300
  539TIP3    H223177   2.315  -0.006   8.114 -0.3600 -0.5033 -0.0384
  540TIP3   OH223178   3.569   5.336   8.377 -0.4016  0.2247 -0.5851
  540TIP3    H123179   3.531   5.263   8.329  2.3426 -0.1429 -2.4080
  540TIP3    H223180   3.623   5.296   8.445  2.4867  0.3137 -2.6498
  541TIP3   OH223181   0.548   0.811   7.559  0.3965 -0.9763  0.0542
  541TIP3    H123182   0.578   0.888   7.607 -1.6342 -0.8848  1.2931
  541TIP3    H223183   0.603   0.739   7.590  1.7768 -0.2073 -0.5258
  542TIP3   OH223184   6.306   5.372   0.110 -0.2858 -0.3322  0.2707
  542TIP3    H123185   6.371   5.305   0.086 -1.0261 -0.5431 -1.2884
  542TIP3    H223186   6.354   5.455   0.104 -0.2803 -0.4266 -1.5241
  543TIP3   OH223187   3.100   5.745   1.124  0.0599 -0.3148  0.8721
  543TIP3    H123188   3.167   5.695   1.171 -0.2472 -2.4715 -0.7788
  543TIP3    H223189   3.149   5.800   1.064  0.4208 -1.5098  0.0264
  544TIP3   OH223190   4.399   6.721   8.290 -0.2494 -0.0762  0.4786
  544TIP3    H123191   4.437   6.709   8.377  0.1980 -0.4483  0.2368
  544TIP3    H223192   4.360   6.636   8.268  1.3032 -0.6045 -0.4596
  545TIP3   OH223193   3.623   0.448   0.549 -0.2807  0.5523 -0.2986
  545TIP3    H123194   3.535   0.471   0.578  0.2975  1.9492  0.4596
  545TIP3    H223195   3.634   0.356   0.576 -0.8480  0.9179  1.2830
  546TIP3   OH223196   5.306   6.463   0.987  0.3290  0.1591  0.2668
  546TIP3    H123197   5.392   6.442   0.950  0.9348  3.2999 -0.4789
  546TIP3    H223198   5.249   6.476   0.911 -0.7253 -1.4023  0.7464
  547TIP3   OH223199   4.577   0.678   2.474  0.3788 -0.3581 -0.0773
  547TIP3    H123200   4.672   0.673   2.473  0.4409  0.4934  0.3324
  547TIP3    H223201   4.557   0.750   2.534 -0.4677  0.3919 -1.2089
  548TIP3   OH223202   2.418   6.241   6.674  0.0833 -0.1462  0.5993
  548TIP3    H123203   2.327   6.254   6.646 -0.0304 -1.8074  0.0599
  548TIP3    H223204   2.419   6.268   6.766 -1.0688 -0.4909  0.7278
  549TIP3   OH223205   1.940   0.806   8.330 -0.2847  0.2445  0.1335
  549TIP3    H123206   2.004   0.810   8.259  0.6071  0.9635  0.9688
  549TIP3    H223207   1.928   0.897   8.358 -2.8536  0.3441 -1.0162
  550TIP3   OH223208   4.421   6.328   1.429  0.4113 -0.1499  0.4473
  550TIP3    H123209   4.510   6.346   1.401  0.0747  1.4902  0.3467
  550TIP3    H223210   4.368   6.336   1.349  0.1917 -1.4053  0.4441
  551TIP3   OH223211   3.659   2.836   1.992 -0.7339  0.4013  0.3598
  551TIP3    H123212   3.638   2.785   2.070 -1.6142  1.2346  0.6945
  551TIP3    H223213   3.744   2.803   1.963 -1.6868 -1.9029 -0.0065
  552TIP3   OH223214   2.375   4.549   7.046  0.1300  0.0826  0.2083
  552TIP3    H123215   2.411   4.492   6.978 -0.5802  2.0212 -1.9156
  552TIP3    H223216   2.361   4.491   7.121  3.7560 -1.5738 -0.1957
  553TIP3   OH223217   3.708   5.761   0.962 -0.3057  0.5571 -0.3890
  553TIP3    H123218   3.745   5.703   0.896 -0.1510  2.3748 -1.9628
  553TIP3    H223219   3.615   5.739   0.964 -0.2876  0.4134 -1.1067
  554TIP3   OH223220   1.320   5.344   2.858 -0.0422  0.6380  0.3640
  554TIP3    H123221   1.346   5.267   2.908  1.1703  0.8979  0.1478
  554TIP3    H223222   1.344   5.418   2.914 -0.2672  0.8886  0.1330
  555TIP3   OH223223   1.791   2.657   0.316 -0.2722 -0.6484  0.3345
  555TIP3    H123224   1.879   2.653   0.351 -0.9196  0.2299  2.1581
  555TIP3    H223225   1.784   2.744   0.276 -0.1702 -0.9045 -0.2554
  556TIP3   OH223226   0.877   2.124   1.055 -0.5376 -0.0279  0.3580
  556TIP3    H123227   0.814   2.184   1.095 -1.6634 -0.3809 -0.8353
  556TIP3    H223228   0.948   2.118   1.119 -1.2434  1.1598  1.2900
  557TIP3   OH223229   1.374   4.515   7.374 -0.7439  0.3694  0.0029
  557TIP3    H123230   1.328   4.431   7.378 -0.2258 -0.0645 -2.0905
  557TIP3    H223231   1.412   4.525   7.461  0.5394 -2.3763 -0.1419
  558TIP3   OH223232   3.825   2.573   8.841 -0.0303 -0.4845 -0.1977
  558TIP3    H123233   3.797   2.507   8.905 -1.2262  0.7101  0.5586
  558TIP3    H223234   3.797   2.536   8.756 -1.6555 -0.5077  0.3056
  559TIP3   OH223235   3.431   3.864   2.328  0.1632 -1.0039 -0.0898
  559TIP3    H123236   3.415   3.955   2.302  0.9020 -1.0706 -0.8314
  559TIP3    H223237   3.374   3.813   2.270 -0.7277 -0.9982  0.7550
  560TIP3   OH223238   1.940   3.148   7.363 -0.0603 -0.0990 -0.3751
  560TIP3    H123239   1.990   3.149   7.444 -1.8614 -1.1698  0.8179
  560TIP3    H223240   1.920   3.240   7.345  0.1765  0.1267  0.5036
  561TIP3   OH223241   5.006   3.526   2.467  0.1222  0.3363  0.0606
  561TIP3    H123242   4.932   3.469   2.485 -0.5757  1.0101 -0.5883
  561TIP3    H223243   5.040   3.495   2.383 -0.0635  0.6708 -0.1400
  562TIP3   OH223244   3.778   5.221   2.054  0.0441  0.5037  0.7823
  562TIP3    H123245   3.807   5.158   2.120 -1.4755  0.2042  1.1855
  562TIP3    H223246   3.774   5.304   2.100 -2.6703  0.0124  1.6205
  563TIP3   OH223247   2.940   0.442   7.584 -0.2907 -0.1798  0.0643
  563TIP3    H123248   2.993   0.437   7.663 -0.4604  0.6004  0.2413
  563TIP3    H223249   2.960   0.362   7.535  0.4795 -0.2397  0.4769
  564TIP3   OH223250   1.525   1.487   0.966  0.3146 -0.6175 -0.1734
  564TIP3    H123251   1.527   1.564   1.023  0.8276  0.4187 -1.5241
  564TIP3    H223252   1.442   1.493   0.920 -1.3368 -2.8756  2.2239
  565TIP3   OH223253   3.803   0.042   8.348  0.1811  0.3927 -0.3063
  565TIP3    H123254   3.826   0.043   8.441 -0.2209  0.3215 -0.2049
  565TIP3    H223255   3.739  -0.029   8.340  2.7422 -1.9564 -1.2592
  566TIP3   OH223256   4.531   2.848   1.817 -0.1812 -0.3211  0.5472
  566TIP3    H123257   4.596   2.876   1.881 -1.3973  3.3689  0.4013
  566TIP3    H223258   4.455   2.823   1.869  0.1085 -1.0835  0.6141
  567TIP3   OH223259   0.792   4.769   7.713 -0.0131 -0.0316 -0.2013
  567TIP3    H123260   0.825   4.788   7.625 -0.4537  1.8140  0.0080
  567TIP3    H223261   0.836   4.832   7.770  0.1231 -1.0807  0.8956
  568TIP3   OH223262   4.725   0.405   2.049  0.2225  0.1227  0.4184
  568TIP3    H123263   4.790   0.343   2.082  2.8173  2.0696 -0.7502
  568TIP3    H223264   4.739   0.484   2.102 -0.1404  1.0763 -0.8801
  569TIP3   OH223265   5.715   4.898   7.510  0.6490  0.2707  0.2152
  569TIP3    H123266   5.780   4.969   7.507  0.8248  0.0864 -0.5378
  569TIP3    H223267   5.767   4.819   7.524  0.5672  0.1457 -0.1886
  570TIP3   OH223268   6.046   5.133   1.496  0.6799  0.2278 -0.1230
  570TIP3    H123269   5.977   5.069   1.513  0.2901  0.9359  1.0840
  570TIP3    H223270   6.126   5.080   1.490  0.4055 -0.3718  1.1173
  571TIP3   OH223271   0.279   4.999   2.783  0.1135  0.6636  0.0759
  571TIP3    H123272   0.356   4.997   2.840 -1.3210 -0.2166  2.0924
  571TIP3    H223273   0.256   4.908   2.769 -0.5847  0.9155 -0.4907
  572TIP3   OH223274   3.226   2.829   1.298 -0.2529  0.1671 -0.2834
  572TIP3    H123275   3.288   2.901   1.309  1.4149 -1.4820  2.1742
  572TIP3    H223276   3.150   2.855   1.349  1.1706 -0.5708  2.3977
  573TIP3   OH223277   0.675   5.093   7.645  0.2516  0.2376  0.4421
  573TIP3    H123278   0.710   5.041   7.572  0.6630  1.2595 -0.1137
  573TIP3    H223279   0.668   5.182   7.610 -0.1628  0.6240  1.4581
  574TIP3   OH223280   4.220   5.020   8.353  0.1602  0.4423  0.0886
  574TIP3    H123281   4.280   4.976   8.413 -1.2573  1.1832  2.1771
  574TIP3    H223282   4.140   4.968   8.356 -0.3391  1.1803 -0.1632
  575TIP3   OH223283   4.910   4.950   7.533  0.0550  0.3410  0.0503
  575TIP3    H123284   5.004   4.951   7.551  0.1580  1.1775 -0.4814
  575TIP3    H223285   4.896   4.869   7.484  0.4932  0.2138  0.1288
  576TIP3   OH223286   4.272   5.848   1.440  0.2804  0.6882 -0.0420
  576TIP3    H123287   4.289   5.820   1.350  1.4605 -0.2910  0.4473
  576TIP3    H223288   4.349   5.819   1.489 -0.7563  0.3432  1.4678
  577TIP3   OH223289   1.804   6.259   0.148 -0.1268  0.0934 -0.4150
  577TIP3    H123290   1.732   6.294   0.095 -0.0154  1.3535  0.2259
  577TIP3    H223291   1.872   6.237   0.085 -0.5649  0.1545 -0.9173
  578TIP3   OH223292   5.586   4.608   8.072  0.2518  0.1751  0.3687
  578TIP3    H123293   5.638   4.537   8.108  2.1748  0.4644 -1.6261
  578TIP3    H223294   5.557   4.576   7.986 -1.2834  0.7561  0.6335
  579TIP3   OH223295   4.517   0.146   7.899 -0.4788 -0.1927 -0.3853
  579TIP3    H123296   4.432   0.122   7.862 -0.6090 -1.3256  0.5720
  579TIP3    H223297   4.566   0.183   7.826 -1.3689 -0.6556 -1.2362
  580TIP3   OH223298   5.529   0.251   7.686  0.1426 -0.0488 -0.1618
  580TIP3    H123299   5.489   0.256   7.773 -0.4038  0.5093 -0.4370
  580TIP3    H223300   5.509   0.336   7.646  0.6994 -0.1665 -0.6988
  581TIP3   OH223301   3.805   2.231   2.282  0.3893  0.2278 -0.2650
  581TIP3    H123302   3.840   2.244   2.371  1.7074  0.2425 -0.7559
  581TIP3    H223303   3.713   2.209   2.295  0.0564  2.1500  1.0133
  582TIP3   OH223304   2.591   1.473   1.932  0.9317  0.1801 -0.2369
  582TIP3    H123305   2.613   1.460   2.024 -0.2678  0.4644  0.1118
  582TIP3    H223306   2.656   1.535   1.900  1.5603 -0.1789  0.3266
  583TIP3   OH223307   3.061   4.082   1.477  0.1921  0.0322  0.3651
  583TIP3    H123308   3.146   4.125   1.475 -0.5352  1.6313  1.5219
  583TIP3    H223309   3.069   4.017   1.547  0.3341  0.4903  0.7779
  584TIP3   OH223310   3.224   3.730   1.985  0.0412  0.6075 -0.3292
  584TIP3    H123311   3.234   3.809   1.933 -0.9159 -0.6388 -2.5363
  584TIP3    H223312   3.314   3.696   1.994  0.3674  1.5378  0.0014
  585TIP3   OH223313   5.767   0.244   7.067 -0.1130 -0.5221  0.0745
  585TIP3    H123314   5.776   0.257   6.973  1.3053 -1.6041  0.0251
  585TIP3    H223315   5.681   0.204   7.078 -0.0613 -0.8979 -0.8173
  586TIP3   OH223316   1.102   2.449   8.899  0.5093 -0.2874  0.4814
  586TIP3    H123317   1.077   2.365   8.938 -0.7622  0.0368  0.4004
  586TIP3    H223318   1.174   2.427   8.839  0.6852 -1.1992  1.0027
  587TIP3   OH223319   3.420   0.321   8.356 -0.1899  0.2629 -0.7487
  587TIP3    H123320   3.351   0.380   8.325  0.1666  0.1426 -1.8164
  587TIP3    H223321   3.501   0.357   8.318 -0.0114 -1.0720 -1.7043
  588TIP3   OH223322   3.778   6.053   1.294 -0.9879  0.2078  0.2277
  588TIP3    H123323   3.746   6.134   1.254 -0.3590  0.3379 -0.0253
  588TIP3    H223324   3.700   6.012   1.332 -1.2615  1.0598  0.5927
  589TIP3   OH223325   2.422   0.232   0.116 -0.1230 -0.3084 -0.3375
  589TIP3    H123326   2.389   0.143   0.108 -4.1411  0.8370  1.1087
  589TIP3    H223327   2.498   0.225   0.173 -0.8771 -2.7301  0.4779
  590TIP3   OH223328   3.964   5.360   0.839 -0.0627  0.0064 -0.6595
  590TIP3    H123329   4.028   5.350   0.769 -1.4554  0.7624 -2.1096
  590TIP3    H223330   4.016   5.367   0.919  1.5614 -1.3879 -1.5265
  591TIP3   OH223331   6.026   2.722   2.447  0.1859 -0.0852  0.2273
  591TIP3    H123332   5.956   2.698   2.507 -1.3137 -1.3871 -1.8681
  591TIP3    H223333   5.983   2.780   2.383  0.6856 -1.6300 -1.6234
  592TIP3   OH223334   5.028   4.225   7.515  0.4064 -0.6235  0.0072
  592TIP3    H123335   5.115   4.187   7.502  0.6467  0.2797 -1.1997
  592TIP3    H223336   5.017   4.228   7.610  1.4674 -1.2509  0.1616
  593TIP3   OH223337   1.637   5.960   2.218  0.2523 -0.3978 -0.0310
  593TIP3    H123338   1.629   6.017   2.294 -0.0185 -0.5883  0.0846
  593TIP3    H223339   1.622   5.872   2.252  4.0192 -1.0148  0.4781
  594TIP3   OH223340   2.092   3.461   7.038 -0.5124  0.2146 -0.2428
  594TIP3    H123341   2.082   3.555   7.047 -2.4674 -0.1366  2.3533
  594TIP3    H223342   2.053   3.440   6.953  0.2315  1.7087 -0.9945
  595TIP3   OH223343   6.668   6.418   0.346  0.7221  0.9676  0.2130
  595TIP3    H123344   6.732   6.396   0.279 -2.0921 -1.2419 -1.9943
  595TIP3    H223345   6.686   6.356   0.417  0.9273  0.2137 -0.4770
  596TIP3   OH223346   0.930   0.604   8.922 -0.2063 -0.0573 -0.5417
  596TIP3    H123347   0.994   0.536   8.946 -1.3906 -1.0817 -0.1795
  596TIP3    H223348   0.983   0.682   8.908  0.8735  0.0444  3.0818
  597TIP3   OH223349   3.471   5.266   8.934 -0.1512 -0.0833 -0.1629
  597TIP3    H123350   3.513   5.284   9.017  0.5560 -1.7921 -0.1031
  597TIP3    H223351   3.543   5.245   8.874 -0.8178 -2.7629 -0.1396
  598TIP3   OH223352   5.640   4.291   7.428  0.2770  0.2004  0.0828
  598TIP3    H123353   5.632   4.386   7.434  0.7265  0.2385  0.1366
  598TIP3    H223354   5.587   4.268   7.352  0.6776  0.5738 -0.3244
  599TIP3   OH223355   1.382   5.412   0.512  0.2242 -0.0560  0.3488
  599TIP3    H123356   1.346   5.442   0.428  0.2700 -0.5366  0.1536
  599TIP3    H223357   1.307   5.372   0.556  0.2631 -0.0443  0.4250
  600TIP3   OH223358   0.614   4.103   1.454 -0.1246 -0.3472  0.1087
  600TIP3    H123359   0.640   4.133   1.367  2.6357 -0.8421  0.6802
  600TIP3    H223360   0.663   4.022   1.467 -0.5631 -0.3401  2.0705
  601TIP3   OH223361   1.475   2.708   8.809 -0.0400 -0.2534  0.3373
  601TIP3    H123362   1.461   2.624   8.764 -0.1482 -1.7447  2.9631
  601TIP3    H223363   1.397   2.719   8.863  1.4262 -0.1852  2.5354
  602TIP3   OH223364   0.310   3.259   8.711 -0.3090  0.0522  0.7050
  602TIP3    H123365   0.317   3.334   8.652  0.0006 -0.4170  0.1344
  602TIP3    H223366   0.269   3.294   8.790 -0.0869  0.8384  0.4792
  603TIP3   OH223367   1.399   2.330   1.129 -0.4274 -0.2048 -0.1366
  603TIP3    H123368   1.381   2.323   1.222  0.2064  0.1753  0.0255
  603TIP3    H223369   1.386   2.423   1.109 -3.1114 -0.6720 -1.0059
  604TIP3   OH223370   0.881   1.495   0.571  0.3157  0.3996  0.0829
  604TIP3    H123371   0.801   1.492   0.623  1.4643  1.8562  2.1116
  604TIP3    H223372   0.927   1.414   0.592  0.2176  0.4292  0.4128
  605TIP3   OH223373   4.188   6.034   7.240  0.2314  0.0609  0.1149
  605TIP3    H123374   4.277   6.048   7.271  0.5629  0.8922 -1.1250
  605TIP3    H223375   4.150   6.122   7.238 -2.1058 -0.5193  4.6072
  606TIP3   OH223376   5.144   1.538   1.481 -0.5092 -0.7178 -0.8354
  606TIP3    H123377   5.153   1.490   1.564 -3.5414 -2.3317 -1.3033
  606TIP3    H223378   5.104   1.621   1.505 -1.9347 -1.4240 -0.6953
  607TIP3   OH223379   5.566   5.612   1.652  0.5762 -0.0112 -0.0556
  607TIP3    H123380   5.474   5.599   1.631  0.0576 -1.4576  2.6009
  607TIP3    H223381   5.604   5.651   1.573 -2.0093 -0.5496 -1.6850
  608TIP3   OH223382   2.926   4.424   1.685  0.4420 -0.6205  0.0871
  608TIP3    H123383   3.008   4.422   1.636  0.1664 -1.3570 -0.3575
  608TIP3    H223384   2.863   4.378   1.630 -0.5048  0.6801  0.0297
  609TIP3   OH223385   1.968   0.655   8.613 -0.2351  0.4532 -0.0916
  609TIP3    H123386   1.930   0.743   8.612 -0.5744  0.3105 -1.0546
  609TIP3    H223387   2.012   0.647   8.528 -0.2662 -0.3275 -0.0401
  610TIP3   OH223388   6.719   2.714   0.058 -0.0153 -0.7679  0.2368
  610TIP3    H123389   6.652   2.767   0.015 -1.4787 -2.5659  0.1677
  610TIP3    H223390   6.703   2.727   0.152  1.2765  0.8380  0.2775
  611TIP3   OH223391   5.202   0.952   0.747  0.2509  0.7542  0.3178
  611TIP3    H123392   5.230   0.861   0.758 -0.0565  0.5412 -0.5963
  611TIP3    H223393   5.196   0.964   0.652  1.8944  2.2218  0.3575
  612TIP3   OH223394   3.650   6.149   2.631 -0.2858  0.0710 -0.6489
  612TIP3    H123395   3.665   6.193   2.548  1.5076  0.1373 -0.3333
  612TIP3    H223396   3.641   6.219   2.695 -0.7211  0.0078 -0.6370
  613TIP3   OH223397   3.974   5.849   7.306 -0.0627  0.4055  0.4193
  613TIP3    H123398   3.924   5.880   7.231  1.0850 -0.6197 -0.8233
  613TIP3    H223399   4.061   5.888   7.294  0.5041 -0.8142  0.4893
  614TIP3   OH223400   5.059   2.109   0.104  0.5126 -0.4182 -0.4125
  614TIP3    H123401   5.151   2.132   0.095  0.6450  0.6625  2.5710
  614TIP3    H223402   5.058   2.035   0.164 -0.5456 -1.2551 -1.4017
  615TIP3   OH223403   6.678   0.057   8.582 -0.5950 -0.2415  0.1300
  615TIP3    H123404   6.746   0.033   8.519 -0.3663  1.8068 -0.4950
  615TIP3    H223405   6.714   0.033   8.667  1.0367  0.9545 -0.1747
  616TIP3   OH223406   1.348   2.642   8.323 -0.3263  0.6243 -0.0180
  616TIP3    H123407   1.389   2.598   8.248  1.5821  0.4187  1.0942
  616TIP3    H223408   1.289   2.577   8.360  0.0424  0.1207 -0.3024
  617TIP3   OH223409   5.320   1.062   7.678  0.5959  0.7050  0.4903
  617TIP3    H123410   5.250   1.024   7.625  0.4165 -0.7615  1.7047
  617TIP3    H223411   5.392   1.075   7.617 -0.8080  2.6478 -0.8840
  618TIP3   OH223412   2.817   5.801   8.689 -0.2323  0.1512  0.5910
  618TIP3    H123413   2.819   5.711   8.656  0.1650  0.3709 -0.0066
  618TIP3    H223414   2.725   5.823   8.695 -0.3693 -0.5978  1.6017
  619TIP3   OH223415   0.331   6.125   8.456 -0.1244 -0.5781 -0.0558
  619TIP3    H123416   0.291   6.199   8.411  2.1461  0.6815 -0.1308
  619TIP3    H223417   0.266   6.055   8.449 -1.0303  0.4167 -2.7901
  620TIP3   OH223418   3.473   5.055   0.166 -0.2168  0.4027  0.1597
  620TIP3    H123419   3.548   5.110   0.189 -0.5496  1.2943 -0.8068
  620TIP3    H223420   3.425   5.106   0.101 -0.1031 -1.3795 -1.3927
  621TIP3   OH223421   4.886   4.658   7.852  0.3122  0.0035 -0.4531
  621TIP3    H123422   4.884   4.587   7.788 -0.1626 -0.5808  0.1951
  621TIP3    H223423   4.874   4.615   7.937  0.1662  0.8375 -0.0327
  622TIP3   OH223424   6.685   5.487   0.100 -0.2163 -0.6374 -0.0689
  622TIP3    H123425   6.725   5.548   0.161  0.1617 -1.2246  0.2868
  622TIP3    H223426   6.724   5.507   0.016 -2.7019  1.9999 -0.7458
  623TIP3   OH223427   6.285   6.591   7.415 -0.2672  0.3006  0.3789
  623TIP3    H123428   6.268   6.600   7.508 -1.1015  1.1531  0.1613
  623TIP3    H223429   6.215   6.535   7.382  0.9557 -1.3844  0.5188
  624TIP3   OH223430   5.270   0.698   2.336  0.5889 -0.5104  0.3155
  624TIP3    H123431   5.293   0.606   2.351  2.5366 -0.2168 -0.5672
  624TIP3    H223432   5.176   0.696   2.316  0.6405 -2.3451  0.0515
  625TIP3   OH223433   5.212   2.392   8.304 -0.2322  0.1480  0.0826
  625TIP3    H123434   5.165   2.470   8.335 -0.7334 -0.3484  0.5895
  625TIP3    H223435   5.209   2.399   8.209 -0.9319  0.3656  0.1169
  626TIP3   OH223436   0.309   1.222   7.634  0.1359 -0.4004  0.1208
  626TIP3    H123437   0.362   1.147   7.608 -0.1026 -0.4749 -0.1548
  626TIP3    H223438   0.292   1.270   7.553  0.1635 -0.1293  0.2735
  627TIP3   OH223439   1.245   0.306   2.198 -0.3246  0.9555  0.7525
  627TIP3    H123440   1.234   0.322   2.291 -0.5546 -1.5617  1.2181
  627TIP3    H223441   1.278   0.217   2.192 -1.8540  0.4481 -1.6216
  628TIP3   OH223442   0.555   0.133   0.906 -0.3798  0.3038 -0.0194
  628TIP3    H123443   0.629   0.165   0.854 -0.5687 -0.6832 -0.9353
  628TIP3    H223444   0.549   0.040   0.883 -1.5066  0.2331  0.5249
  629TIP3   OH223445   1.308   5.536   8.020  0.0682 -0.0937 -0.2570
  629TIP3    H123446   1.336   5.446   8.033 -2.0398 -0.7397  0.2736
  629TIP3    H223447   1.311   5.575   8.107 -1.6375 -0.5170  0.0290
  630TIP3   OH223448   2.567   4.958   8.708 -0.2867 -0.2221  0.3414
  630TIP3    H123449   2.648   5.006   8.722  0.1519 -0.5115 -1.0378
  630TIP3    H223450   2.573   4.927   8.618 -1.4148 -1.2301  0.5850
  631TIP3   OH223451   5.620   4.557   1.976 -0.2108 -0.0892 -0.1977
  631TIP3    H123452   5.654   4.475   2.012  1.5637  0.5569 -0.3159
  631TIP3    H223453   5.583   4.602   2.052  1.2420  0.1619  0.3922
  632TIP3   OH223454   1.401   1.409   7.391 -0.4183  0.3357 -0.3047
  632TIP3    H123455   1.395   1.482   7.454 -1.1612  0.1551 -0.1607
  632TIP3    H223456   1.461   1.347   7.432 -0.0502  0.7096 -0.2711
  633TIP3   OH223457   2.780   4.276   0.422 -0.1152  0.5692 -0.2860
  633TIP3    H123458   2.710   4.330   0.387  1.5345  2.1263 -1.3359
  633TIP3    H223459   2.792   4.207   0.357 -2.3934 -1.3624  1.1755
  634TIP3   OH223460   0.582   5.655   0.720 -0.0905 -0.0353  0.6108
  634TIP3    H123461   0.641   5.580   0.725  1.2865  0.7978 -1.4563
  634TIP3    H223462   0.509   5.625   0.666  0.5364  0.1240 -0.3485
  635TIP3   OH223463   5.035   0.438   1.356  0.0044 -0.2226  0.0962
  635TIP3    H123464   4.957   0.483   1.326  0.0541 -0.9812 -1.2616
  635TIP3    H223465   5.108   0.491   1.324  0.0503 -0.1302  0.3535
  636TIP3   OH223466   0.494   1.372   0.224  0.3324  0.2742 -0.3534
  636TIP3    H123467   0.409   1.405   0.251  0.7380  0.8650  0.2386
  636TIP3    H223468   0.557   1.429   0.268  1.0323  0.5676 -1.6750
  637TIP3   OH223469   6.226   4.348   2.149  0.2621 -0.0803 -0.0673
  637TIP3    H123470   6.187   4.344   2.062  1.7757 -0.3315 -0.7610
  637TIP3    H223471   6.219   4.440   2.174 -1.0374 -0.1689 -0.0191
  638TIP3   OH223472   0.603   3.589   1.983 -0.4148  0.1391  0.0765
  638TIP3    H123473   0.579   3.518   1.924 -1.0705  0.1529  0.3224
  638TIP3    H223474   0.524   3.607   2.034 -0.8586  2.2986 -1.2526
  639TIP3   OH223475   0.161   3.082   0.478  0.1472  0.1411 -0.1247
  639TIP3    H123476   0.228   3.026   0.440  0.5699  0.1259  0.6091
  639TIP3    H223477   0.128   3.033   0.554  0.3445  0.7661  0.3769
  640TIP3   OH223478   4.803   0.240   0.431 -0.3847 -0.3690  0.2627
  640TIP3    H123479   4.731   0.302   0.445 -1.1262 -1.1537  0.0025
  640TIP3    H223480   4.798   0.181   0.506 -0.2270 -0.6246  0.0727
  641TIP3   OH223481   5.453   4.024   8.842  0.0127  0.0003  0.1003
  641TIP3    H123482   5.410   3.981   8.916 -0.3689 -0.1436 -0.1997
  641TIP3    H223483   5.528   3.968   8.822 -0.4383 -0.5017 -0.2399
  642TIP3   OH223484   4.925   0.102   0.964  0.1731  0.5782 -0.4156
  642TIP3    H123485   4.948   0.195   0.971 -0.6677  0.7626 -0.0163
  642TIP3    H223486   4.850   0.091   1.022  1.1541 -0.6716  0.6735
  643TIP3   OH223487   2.100   1.546   2.767  0.2252 -0.1614 -0.1162
  643TIP3    H123488   2.130   1.596   2.691  1.6887  0.0747  0.5907
  643TIP3    H223489   2.144   1.586   2.842 -0.3647 -1.0658  0.7433
  644TIP3   OH223490   1.745   5.640   8.527 -0.2457 -0.0573 -0.2717
  644TIP3    H123491   1.815   5.592   8.482 -0.4197 -0.4251 -0.1472
  644TIP3    H223492   1.775   5.731   8.526  0.7026 -0.3382  0.6237
  645TIP3   OH223493   1.332   3.695   1.712  0.2101  0.3783 -0.3889
  645TIP3    H123494   1.339   3.642   1.632 -0.9957 -0.7674  0.2284
  645TIP3    H223495   1.356   3.783   1.684 -1.1768  0.2193 -2.2771
  646TIP3   OH223496   4.246   2.091   2.039 -0.3736 -0.3686  0.7058
  646TIP3    H123497   4.261   2.020   2.101 -1.0554 -1.0641  0.0988
  646TIP3    H223498   4.159   2.124   2.059 -1.1281 -1.4267 -0.6316
  647TIP3   OH223499   0.258   3.918   8.936 -0.1562 -0.0942 -0.1284
  647TIP3    H123500   0.210   4.000   8.926  0.7262  0.4733  0.1583
  647TIP3    H223501   0.295   3.901   8.850 -0.0635 -0.0087 -0.1063
  648TIP3   OH223502   4.202   4.871   1.739 -0.1038  1.0866  0.1439
  648TIP3    H123503   4.239   4.960   1.732  0.2941  0.8666 -0.8128
  648TIP3    H223504   4.108   4.883   1.725  0.1347  1.2086 -1.6360
  649TIP3   OH223505   2.451   3.862   1.301 -0.2548 -0.1416  0.0520
  649TIP3    H123506   2.410   3.947   1.285 -0.5029 -0.1103  0.8073
  649TIP3    H223507   2.540   3.883   1.330  0.2844 -0.2061 -1.4732
  650TIP3   OH223508   2.897   3.504   8.744  0.4504  0.4628  0.2057
  650TIP3    H123509   2.848   3.423   8.756 -1.3151  1.3688 -0.3503
  650TIP3    H223510   2.863   3.563   8.812 -1.1015  1.8905 -1.6763
  651TIP3   OH223511   4.629   3.382   0.769 -0.3184 -0.6722  0.0147
  651TIP3    H123512   4.647   3.476   0.774  2.3569 -1.0105 -1.3690
  651TIP3    H223513   4.611   3.356   0.860 -1.5818  1.2257  0.3533
  652TIP3   OH223514   0.808   0.508   0.952  0.2203  0.5203  0.4136
  652TIP3    H123515   0.802   0.531   1.044 -3.7050 -0.1158  0.5089
  652TIP3    H223516   0.717   0.509   0.921  1.0643 -1.8933 -2.7686
  653TIP3   OH223517   4.261   0.446   1.472  0.5447  0.3600 -0.0457
  653TIP3    H123518   4.356   0.452   1.482  0.6890  1.0281 -1.5113
  653TIP3    H223519   4.232   0.537   1.465  0.1766  0.1098 -2.4908
  654TIP3   OH223520   4.668   2.778   1.282  0.4887 -0.0213  0.2047
  654TIP3    H123521   4.670   2.806   1.373 -0.7443 -1.6418  0.7735
  654TIP3    H223522   4.761   2.766   1.259  0.7961 -0.0539  1.3895
  655TIP3   OH223523   2.409   3.728   0.646  0.0337 -0.3860  0.1073
  655TIP3    H123524   2.409   3.754   0.738  0.1799  0.3624 -0.0942
  655TIP3    H223525   2.326   3.761   0.611 -1.3426 -3.1131  0.6053
  656TIP3   OH223526   5.653   5.341   8.802  0.1718 -0.7710  0.6243
  656TIP3    H123527   5.613   5.273   8.855 -1.1767 -0.1412  0.4562
  656TIP3    H223528   5.588   5.412   8.800 -0.3241 -1.1521 -2.7111
  657TIP3   OH223529   6.413   3.438   7.426 -0.1482  0.2600  0.6006
  657TIP3    H123530   6.453   3.430   7.340  0.1205  1.0895  0.6431
  657TIP3    H223531   6.483   3.415   7.487 -0.3503 -0.3686  0.6087
  658TIP3   OH223532   4.795   3.345   0.444  0.2776 -0.0482 -0.5066
  658TIP3    H123533   4.709   3.312   0.416  0.6145 -0.6148 -0.8979
  658TIP3    H223534   4.854   3.319   0.374  0.8944 -0.2746  0.0838
  659TIP3   OH223535   6.335   0.209   1.564  0.1267  0.6618 -0.2705
  659TIP3    H123536   6.343   0.254   1.648 -0.6691  0.5537 -0.1297
  659TIP3    H223537   6.415   0.156   1.557  0.6220  1.3613 -0.0037
  660TIP3   OH223538   2.631   3.090   0.681 -0.2858 -0.2821 -0.1914
  660TIP3    H123539   2.596   3.038   0.608 -0.8389  0.6184 -0.5868
  660TIP3    H223540   2.640   3.027   0.753 -0.5632 -1.0065 -0.7718
  661TIP3   OH223541   1.700   5.970   8.228  0.4614 -0.0198 -0.1909
  661TIP3    H123542   1.739   5.949   8.313 -0.1569  0.5805  0.2414
  661TIP3    H223543   1.606   5.970   8.244  0.3735  0.9531 -0.6724
  662TIP3   OH223544   1.166   4.339   1.024 -0.3831 -0.3622  0.2602
  662TIP3    H123545   1.102   4.315   0.957  0.2607  0.0704 -0.5208
  662TIP3    H223546   1.212   4.415   0.988 -0.0485 -0.1024  1.2078
  663TIP3   OH223547   2.021   1.144   8.903  0.2298  0.1949 -0.0248
  663TIP3    H123548   1.933   1.132   8.869 -0.3123 -0.0656  1.3953
  663TIP3    H223549   2.055   1.220   8.856 -0.9140  0.5609 -0.2867
  664TIP3   OH223550   5.559   2.853   8.117  0.4235 -0.2818 -0.0472
  664TIP3    H123551   5.503   2.922   8.152  1.0102  0.6914 -0.9687
  664TIP3    H223552   5.621   2.835   8.188 -0.7721 -1.0965  0.8365
  665TIP3   OH223553   4.848   3.245   8.889  0.9250 -0.4154 -0.6459
  665TIP3    H123554   4.784   3.310   8.860 -0.4554 -2.2157 -1.9026
  665TIP3    H223555   4.893   3.220   8.808 -0.1529 -2.5842 -0.6488
  666TIP3   OH223556   3.865   0.443   0.220  0.3851  0.6629  0.5854
  666TIP3    H123557   3.921   0.387   0.274  1.4956  1.6201  0.4617
  666TIP3    H223558   3.896   0.428   0.131 -0.7979 -0.1740  0.2837
  667TIP3   OH223559   6.706   5.904   7.662 -0.4526  0.1876  0.2578
  667TIP3    H123560   6.760   5.905   7.582 -0.6209 -0.6377  0.1228
  667TIP3    H223561   6.738   5.978   7.713 -0.5604  0.9340 -0.7157
  668TIP3   OH223562   3.561   3.592   1.264 -0.2767 -0.4513  0.0885
  668TIP3    H123563   3.650   3.555   1.262 -0.9014 -1.9611 -0.8631
  668TIP3    H223564   3.557   3.650   1.188  0.0666  0.0623  0.4562
  669TIP3   OH223565   1.813   4.246   7.890 -0.2103  0.3388 -0.5664
  669TIP3    H123566   1.856   4.331   7.894 -1.1995  0.8317  2.4230
  669TIP3    H223567   1.883   4.183   7.903  0.3673  0.7323 -1.6270
  670TIP3   OH223568   1.919   2.190   1.688 -0.4012  0.4681 -0.2441
  670TIP3    H123569   1.973   2.122   1.650  0.7710  0.7438  0.8677
  670TIP3    H223570   1.832   2.150   1.695  0.0782 -0.6312 -0.3302
  671TIP3   OH223571   5.924   3.916   8.179  0.0657 -0.1124 -0.1498
  671TIP3    H123572   5.844   3.884   8.139  0.8525 -0.5151 -1.4615
  671TIP3    H223573   5.934   3.863   8.258  0.0956 -1.4808 -1.0352
  672TIP3   OH223574   5.701   6.231   8.114  0.0020 -0.2328  0.1266
  672TIP3    H123575   5.786   6.247   8.072 -0.3028  0.3600 -0.2837
  672TIP3    H223576   5.699   6.293   8.187 -0.9828  1.3532 -1.1793
  673TIP3   OH223577   4.298   4.788   2.386 -0.5416 -0.1623 -0.0321
  673TIP3    H123578   4.349   4.745   2.317 -0.3515 -1.4148  0.8647
  673TIP3    H223579   4.352   4.862   2.412 -0.2555 -0.1317 -0.6839
  674TIP3   OH223580   4.254   4.386   0.122  0.2318  0.2384  0.4414
  674TIP3    H123581   4.242   4.293   0.141  0.3432  0.5982  2.4695
  674TIP3    H223582   4.166   4.419   0.104  0.2178 -0.2816 -0.4960
  675TIP3   OH223583   3.040   0.686   7.485  0.2186  0.0051  0.3445
  675TIP3    H123584   3.097   0.610   7.491  0.0090 -0.1903 -0.0770
  675TIP3    H223585   2.958   0.652   7.449 -0.7283 -0.0212  2.3645
  676TIP3   OH223586   4.190   2.025   0.965  0.1530  0.0006  0.0322
  676TIP3    H123587   4.114   1.995   1.015 -1.0972  0.1536 -1.6864
  676TIP3    H223588   4.207   1.955   0.902  0.1552  0.8375 -0.9272
  677TIP3   OH223589   0.332   0.681   7.172  0.2787  0.2108 -0.2488
  677TIP3    H123590   0.362   0.680   7.081  0.7428 -0.2343 -0.0937
  677TIP3    H223591   0.242   0.649   7.168  0.2539  0.3167 -0.5683
  678TIP3   OH223592   2.770   0.303   7.848 -0.1750  0.1180 -0.4831
  678TIP3    H123593   2.839   0.245   7.815 -1.7334 -0.3764 -3.1995
  678TIP3    H223594   2.818   0.373   7.893  1.8175 -2.5634  1.9645
  679TIP3   OH223595   5.000   4.891   2.191 -0.1696  0.2042  0.0882
  679TIP3    H123596   4.961   4.807   2.217  0.5798 -0.2579 -0.2615
  679TIP3    H223597   4.954   4.915   2.111  0.2734 -0.3550 -0.3412
  680TIP3   OH223598   1.719   6.513   0.604  0.1977  0.5102 -0.4552
  680TIP3    H123599   1.650   6.476   0.660 -0.7613  0.1971 -1.7931
  680TIP3    H223600   1.717   6.459   0.525  1.7145  0.7671 -0.7021
  681TIP3   OH223601   5.315   2.591   0.055  0.1140  0.0243 -0.3723
  681TIP3    H123602   5.365   2.670   0.073 -1.1111  0.2527  2.5408
  681TIP3    H223603   5.240   2.622   0.004 -0.2060  0.7333  0.4982
  682TIP3   OH223604   4.784   5.722   8.340  0.1193 -0.5945  0.1937
  682TIP3    H123605   4.823   5.750   8.422 -0.9255  1.2533  0.1145
  682TIP3    H223606   4.714   5.662   8.365  1.0417 -1.5600  0.5079
  683TIP3   OH223607   5.049   6.374   2.792 -0.4177  0.1384 -0.2302
  683TIP3    H123608   5.000   6.422   2.859 -0.1161  1.5565 -0.9711
  683TIP3    H223609   5.038   6.427   2.713 -1.4674 -1.9129 -1.5503
  684TIP3   OH223610   5.741   5.977   7.982  0.0302  0.1794 -0.8463
  684TIP3    H123611   5.783   5.919   7.918  0.1904 -0.1260 -0.4674
  684TIP3    H223612   5.755   5.933   8.066 -1.6673 -0.2997 -0.7814
  685TIP3   OH223613   3.849   3.409   1.406  0.0402 -0.5285  0.2588
  685TIP3    H123614   3.863   3.334   1.349 -0.3278  0.6404 -1.4666
  685TIP3    H223615   3.904   3.478   1.369  0.1777  0.1328  1.6381
  686TIP3   OH223616   2.771   1.707   2.737  0.2590 -0.8332 -0.0414
  686TIP3    H123617   2.720   1.769   2.686 -0.8892 -0.5389  1.3825
  686TIP3    H223618   2.829   1.762   2.790 -0.1823 -0.9934  0.6216
  687TIP3   OH223619   3.603   1.724   7.911  0.0226  0.4019  0.1892
  687TIP3    H123620   3.586   1.704   8.003  1.3262  1.0889  0.6099
  687TIP3    H223621   3.564   1.810   7.898 -1.5154 -0.3496 -0.3465
  688TIP3   OH223622   0.761   2.774   0.436 -0.5328  0.2817  0.3757
  688TIP3    H123623   0.682   2.795   0.487  0.2815 -1.3954  2.4959
  688TIP3    H223624   0.825   2.839   0.465 -0.6630  0.6834 -0.2043
  689TIP3   OH223625   2.348   1.640   0.287 -0.7943 -0.1875 -0.4038
  689TIP3    H123626   2.326   1.622   0.379 -0.5641  1.6570  0.0464
  689TIP3    H223627   2.383   1.729   0.288  0.4870 -0.6330 -2.0969
  690TIP3   OH223628   5.687   1.259   0.682  0.0309 -0.1644 -0.0478
  690TIP3    H123629   5.678   1.353   0.699 -0.7684  0.5288 -3.5996
  690TIP3    H223630   5.775   1.238   0.710  0.7968  2.0351 -0.5889
  691TIP3   OH223631   0.333   0.514   0.563 -0.3241  0.3610 -0.2087
  691TIP3    H123632   0.288   0.563   0.494  1.5273  0.5200 -1.3809
  691TIP3    H223633   0.364   0.581   0.624  0.1387  0.4497 -0.5360
  692TIP3   OH223634   4.353   4.103   2.919  0.0156  0.1259 -0.1145
  692TIP3    H123635   4.311   4.118   2.834  1.7552  1.0994 -0.8423
  692TIP3    H223636   4.421   4.039   2.902  0.6067  0.5865  0.4604
  693TIP3   OH223637   3.555   4.954   0.418 -0.5176  0.2712 -0.1432
  693TIP3    H123638   3.504   4.985   0.343 -0.7723  0.3284  0.0512
  693TIP3    H223639   3.496   4.965   0.493  0.1473  1.3042  0.2416
  694TIP3   OH223640   6.651   3.906   0.498  0.5771  0.1542 -0.4791
  694TIP3    H123641   6.659   3.833   0.560  0.8739 -0.4099 -1.1698
  694TIP3    H223642   6.722   3.893   0.436  1.7844  2.0919  0.4362
  695TIP3   OH223643   1.029   3.668   7.851  0.1687 -0.4811  0.1204
  695TIP3    H123644   0.973   3.594   7.832 -0.6501  0.1027  0.2072
  695TIP3    H223645   0.969   3.738   7.876  0.9988 -0.1904  1.4043
  696TIP3   OH223646   2.909   6.149   1.584 -0.2306  0.0005 -0.2592
  696TIP3    H123647   2.895   6.224   1.641  2.3250  0.4449 -0.1148
  696TIP3    H223648   2.913   6.074   1.643 -1.6005 -0.1304 -0.2950
  697TIP3   OH223649   0.075   4.059   8.215  0.0608 -0.6279  0.2272
  697TIP3    H123650   0.114   4.003   8.148  0.6673  1.2024 -1.0344
  697TIP3    H223651   0.141   4.127   8.230 -0.3251 -0.6532  2.2662
  698TIP3   OH223652   1.306   1.368   7.122  0.1109  0.0513 -0.1072
  698TIP3    H123653   1.229   1.422   7.141 -1.4617 -2.4164  1.0778
  698TIP3    H223654   1.355   1.367   7.204 -0.5686 -1.3017  0.3112
  699TIP3   OH223655   1.659   0.160   8.662  0.0954 -0.2627  0.2611
  699TIP3    H123656   1.620   0.118   8.585 -1.5410 -0.3442  1.0989
  699TIP3    H223657   1.599   0.231   8.684  1.3837  0.7805  0.5391
  700TIP3   OH223658   1.933   4.488   8.876 -0.5621 -0.4989 -0.3153
  700TIP3    H123659   1.930   4.435   8.796  2.5848 -0.0137 -0.8920
  700TIP3    H223660   2.011   4.543   8.865 -2.6970  3.0939  0.9895
  701TIP3   OH223661   2.102   0.115   0.908  0.7888  0.4027  0.1306
  701TIP3    H123662   2.194   0.132   0.925  0.5187  0.1460  2.1532
  701TIP3    H223663   2.091   0.021   0.926 -0.0134  0.6050  0.7806
  702TIP3   OH223664   2.737   3.881   1.375  0.6764  0.4626 -0.1322
  702TIP3    H123665   2.827   3.851   1.393  0.1041 -0.7032  0.9861
  702TIP3    H223666   2.701   3.901   1.461 -0.5930 -0.5111 -0.4030
  703TIP3   OH223667   4.030   3.516   0.553  0.1499 -0.1200  0.3411
  703TIP3    H123668   3.980   3.440   0.583  1.1304 -1.0064 -0.1909
  703TIP3    H223669   4.038   3.572   0.631 -0.9604 -0.3413  0.6281
  704TIP3   OH223670   0.517   5.502   7.147  0.0413  0.8993  0.1861
  704TIP3    H123671   0.586   5.550   7.192  0.5108 -0.4576  0.9644
  704TIP3    H223672   0.544   5.410   7.151 -0.7042  0.5614 -1.4709
  705TIP3   OH223673   6.250   2.502   0.116 -0.2457 -0.0825 -0.0303
  705TIP3    H123674   6.271   2.591   0.145  1.5042  0.1178 -1.7021
  705TIP3    H223675   6.320   2.448   0.152 -0.8602 -0.6794  0.3044
  706TIP3   OH223676   3.776   2.489   8.556  0.8073  0.0931 -0.2708
  706TIP3    H123677   3.863   2.525   8.538  0.5325  0.4313 -0.9880
  706TIP3    H223678   3.725   2.513   8.479 -0.4682  1.6553  0.9892
  707TIP3   OH223679   0.943   3.430   8.122  0.1223 -0.1807  0.1619
  707TIP3    H123680   0.967   3.341   8.147 -1.1774 -0.6856 -0.3160
  707TIP3    H223681   0.976   3.439   8.032 -0.6342 -0.5495 -0.1605
  708TIP3   OH223682   1.453   1.122   2.027 -0.4079  0.1365  0.2494
  708TIP3    H123683   1.499   1.073   2.095 -0.0382  0.3088  0.1220
  708TIP3    H223684   1.372   1.073   2.013  1.0392 -1.8901 -1.6821
  709TIP3   OH223685   5.766   1.795   1.089  0.3680 -0.4341  0.0075
  709TIP3    H123686   5.802   1.734   1.153 -0.3107  0.1548  0.9904
  709TIP3    H223687   5.730   1.867   1.142  2.1724  1.4302 -1.1343
  710TIP3   OH223688   3.569   5.629   1.887  0.0755 -0.0593 -0.2685
  710TIP3    H123689   3.535   5.541   1.869 -1.5852  0.7957 -1.5829
  710TIP3    H223690   3.494   5.677   1.921  0.9819  0.8635  0.5035
  711TIP3   OH223691   3.093   6.402   7.465  0.5732  0.4873  0.4328
  711TIP3    H123692   3.045   6.449   7.396 -2.2717 -2.6127  0.0207
  711TIP3    H223693   3.145   6.337   7.418  0.3198 -0.2202  1.1139
  712TIP3   OH223694   5.165   5.245   1.218 -0.1229 -0.2381 -0.0776
  712TIP3    H123695   5.215   5.276   1.293  0.2316 -0.3956 -0.2471
  712TIP3    H223696   5.230   5.237   1.148 -0.2851 -0.9684 -0.1501
  713TIP3   OH223697   5.022   1.494   0.291  0.0937  0.2120  0.1042
  713TIP3    H123698   5.089   1.513   0.226 -0.0106  1.0823  0.2306
  713TIP3    H223699   5.024   1.569   0.350 -2.9199  1.7676 -1.5109
  714TIP3   OH223700   6.099   6.161   1.218 -0.2413 -0.8196 -0.3882
  714TIP3    H123701   6.164   6.230   1.234 -1.0062 -0.5817  2.0953
  714TIP3    H223702   6.151   6.081   1.208  0.5389 -0.2234 -1.3216
  715TIP3   OH223703   5.494   5.369   1.804  0.3324  0.5178  0.3866
  715TIP3    H123704   5.515   5.348   1.895  0.1004  1.4407  0.6726
  715TIP3    H223705   5.533   5.456   1.790  1.7782 -0.2984 -0.9089
  716TIP3   OH223706   2.279   6.015   8.011 -0.0370 -0.4971 -0.3195
  716TIP3    H123707   2.324   5.955   7.953 -1.3040  0.1115 -1.9963
  716TIP3    H223708   2.192   6.026   7.973 -1.1612 -0.5315  2.0261
  717TIP3   OH223709   4.346   0.606   7.447 -0.1094 -0.3473 -0.3526
  717TIP3    H123710   4.412   0.675   7.436 -0.6097  0.4612  1.2681
  717TIP3    H223711   4.366   0.568   7.532 -2.4206  0.7733  0.7813
  718TIP3   OH223712   4.304   5.951   2.248  0.6150 -0.2927 -0.0403
  718TIP3    H123713   4.373   6.013   2.271  0.2319 -0.1386  0.7403
  718TIP3    H223714   4.224   5.993   2.280 -0.0497  0.2416 -2.2655
  719TIP3   OH223715   6.002   1.926   0.398 -0.4400  0.0388  0.0924
  719TIP3    H123716   5.916   1.965   0.378  0.4827  1.2509 -1.8916
  719TIP3    H223717   6.000   1.842   0.352  0.1396  0.9972 -1.8109
  720TIP3   OH223718   4.675   3.751   2.707  0.0633 -0.1995  0.1564
  720TIP3    H123719   4.746   3.705   2.662 -0.8662 -0.9975 -0.5407
  720TIP3    H223720   4.600   3.692   2.699 -1.0458  1.2323 -0.3358
  721TIP3   OH223721   2.464   1.429   0.137  0.0003  0.3049  0.1645
  721TIP3    H123722   2.531   1.477   0.088 -1.4474  1.7012 -0.5578
  721TIP3    H223723   2.418   1.496   0.186 -0.7896 -0.6406  0.7367
  722TIP3   OH223724   2.880   0.641   1.539  0.6275  0.9106 -0.2532
  722TIP3    H123725   2.791   0.617   1.564  0.4435  1.4393 -0.3852
  722TIP3    H223726   2.923   0.557   1.520  0.2398  0.6343  0.0648
  723TIP3   OH223727   4.656   2.743   0.228 -0.2695 -0.8110  0.2809
  723TIP3    H123728   4.674   2.715   0.138 -0.3951  0.2336 -0.0859
  723TIP3    H223729   4.711   2.687   0.283  1.6023  0.1003 -0.5903
  724TIP3   OH223730   3.710   3.238   7.429  0.0137 -0.0413  0.3144
  724TIP3    H123731   3.700   3.143   7.418 -0.2422  0.0371 -0.1430
  724TIP3    H223732   3.674   3.256   7.515  0.5346 -0.4321  0.6230
  725TIP3   OH223733   4.358   5.611   8.106  0.1856  0.5480  0.6777
  725TIP3    H123734   4.428   5.546   8.105 -0.7422 -0.5773 -2.2639
  725TIP3    H223735   4.302   5.584   8.179  0.1637 -1.6487 -0.0579
  726TIP3   OH223736   4.180   5.695   2.086  0.6554  0.2218 -0.2834
  726TIP3    H123737   4.197   5.635   2.014  0.8227 -0.7356  0.5401
  726TIP3    H223738   4.221   5.778   2.058  2.4339 -0.6674 -0.4675
  727TIP3   OH223739   2.037   1.277   0.667 -0.2939 -0.3090 -0.1289
  727TIP3    H123740   2.033   1.285   0.763  0.1619  2.4803 -0.2583
  727TIP3    H223741   2.130   1.277   0.647 -0.3679 -1.7976 -0.5607
  728TIP3   OH223742   2.493   3.847   7.477  0.2554 -0.0187 -0.2821
  728TIP3    H123743   2.536   3.763   7.461  1.1393  0.2522  0.5955
  728TIP3    H223744   2.564   3.910   7.485 -0.4063  0.9405 -1.4529
  729TIP3   OH223745   0.252   3.700   8.300 -0.2301 -0.4032  0.6040
  729TIP3    H123746   0.240   3.627   8.241  0.3889 -0.1390  0.1437
  729TIP3    H223747   0.327   3.676   8.354 -0.0460 -0.1305  0.4754
  730TIP3   OH223748   2.644   1.072   3.098  0.2541 -0.1864 -0.1762
  730TIP3    H123749   2.639   1.114   3.012 -0.5223 -1.2203 -0.6680
  730TIP3    H223750   2.698   1.131   3.151 -1.4493  1.8596 -0.5738
  731TIP3   OH223751   3.996   6.677   1.031  0.1614 -0.2311  0.5436
  731TIP3    H123752   3.979   6.612   0.963  0.4538 -1.3063  1.4588
  731TIP3    H223753   4.079   6.648   1.071  0.2092  0.6051  1.0774
  732TIP3   OH223754   2.026   1.468   1.479  0.4503 -0.2019  0.2789
  732TIP3    H123755   2.087   1.497   1.547  2.4116  1.0883 -1.9033
  732TIP3    H223756   1.971   1.402   1.523  0.2208  1.9795  3.6253
  733TIP3   OH223757   5.608   4.973   8.745  0.8965 -0.2443  0.3045
  733TIP3    H123758   5.661   4.914   8.691  0.6301 -0.4446  0.2624
  733TIP3    H223759   5.651   4.972   8.831  1.8347  0.7475 -0.1289
  734TIP3   OH223760   3.358   0.526   0.613 -0.4101 -0.0600  0.6154
  734TIP3    H123761   3.387   0.613   0.643  1.4977 -0.7565  0.9066
  734TIP3    H223762   3.313   0.489   0.688  2.3419 -0.8819  1.9697
  735TIP3   OH223763   0.213   2.140   8.546 -0.2492  0.2875  0.3013
  735TIP3    H123764   0.253   2.105   8.625  0.8751 -1.4857 -0.9806
  735TIP3    H223765   0.129   2.094   8.539  0.2227 -0.5269 -0.1822
  736TIP3   OH223766   2.603   0.979   0.212 -0.1550 -0.1745 -0.0623
  736TIP3    H123767   2.636   0.922   0.281 -1.1557  0.7133  1.1795
  736TIP3    H223768   2.633   1.066   0.236 -0.9645  0.2271 -0.4615
  737TIP3   OH223769   0.666   1.182   0.362  0.7972  0.1740  0.3004
  737TIP3    H123770   0.640   1.090   0.351 -5.2294  1.3546  0.9564
  737TIP3    H223771   0.641   1.224   0.279  0.6831  1.6286  1.0440
  738TIP3   OH223772   1.971   3.163   0.083 -0.1594  0.2997  0.0001
  738TIP3    H123773   2.043   3.223   0.066 -0.8887  1.2760  0.2073
  738TIP3    H223774   2.012   3.085   0.121  0.5096  2.5846  4.7109
  739TIP3   OH223775   2.143   3.036   1.464  0.4007  0.2071 -0.0061
  739TIP3    H123776   2.211   3.065   1.403  1.1028  1.5532  1.3203
  739TIP3    H223777   2.127   2.945   1.441  1.2982  0.4113 -1.5808
  740TIP3   OH223778   5.347   4.479   1.658  0.3027 -0.7011 -0.6153
  740TIP3    H123779   5.429   4.522   1.681  0.1018 -0.1479 -0.9194
  740TIP3    H223780   5.280   4.546   1.671  0.0497 -0.7341 -1.6205
  741TIP3   OH223781   2.788   1.751   0.981  0.0518  0.1066 -0.8666
  741TIP3    H123782   2.884   1.745   0.980  0.0238 -0.5710 -0.3177
  741TIP3    H223783   2.760   1.676   0.928 -0.1940 -0.5078  0.1128
  742TIP3   OH223784   4.897   6.720   2.141  0.2544  0.1614 -0.5858
  742TIP3    H123785   4.980   6.695   2.182  0.3645  2.0447  0.4761
  742TIP3    H223786   4.830   6.684   2.199  0.2750 -1.8865 -1.7720
  743TIP3   OH223787   1.595   3.778   1.101  0.3860  0.5292  0.1931
  743TIP3    H123788   1.651   3.737   1.035  0.3819  0.2160  0.3804
  743TIP3    H223789   1.656   3.827   1.157  0.5334 -0.1538  0.6495
  744TIP3   OH223790   4.378   6.409   2.257 -0.1189 -0.2144 -1.0091
  744TIP3    H123791   4.380   6.405   2.161  0.5063  0.5580 -1.0392
  744TIP3    H223792   4.389   6.318   2.285 -2.7349 -0.8082 -1.6599
  745TIP3   OH223793   1.148   5.690   0.856  0.1765  0.2695  0.3366
  745TIP3    H123794   1.144   5.767   0.798 -2.2958  0.1760  0.2813
  745TIP3    H223795   1.209   5.631   0.813 -0.8936  0.5810 -1.7648
  746TIP3   OH223796   4.143   0.521   2.406  0.0545 -0.0475  0.1716
  746TIP3    H123797   4.148   0.614   2.426 -0.9668  0.0334  0.1099
  746TIP3    H223798   4.160   0.477   2.489 -0.5564  0.2176  0.4390
  747TIP3   OH223799   1.018   5.808   0.295  0.2016  0.0582  0.0716
  747TIP3    H123800   1.043   5.721   0.262 -2.1179 -0.0766 -1.6055
  747TIP3    H223801   0.930   5.796   0.331 -1.3161  2.1237 -2.5696
  748TIP3   OH223802   0.780   1.858   8.588 -0.2418 -0.4373  0.0898
  748TIP3    H123803   0.863   1.906   8.581 -0.4782 -0.1812 -1.0626
  748TIP3    H223804   0.803   1.778   8.636  0.1180  0.8785  2.2925
  749TIP3   OH223805   4.047   1.325   8.598 -0.6657  0.0116 -0.0225
  749TIP3    H123806   4.073   1.240   8.634 -0.2776 -0.0914 -0.5406
  749TIP3    H223807   4.001   1.368   8.670 -1.5076 -0.9285  0.0278
  750TIP3   OH223808   1.321   1.955   1.229  0.2489  0.2505 -0.6368
  750TIP3    H123809   1.323   1.980   1.136 -0.1639  0.0900 -0.6930
  750TIP3    H223810   1.337   1.861   1.229  0.9266  0.3596 -0.4902
  751TIP3   OH223811   3.088   3.561   1.651  0.5975  0.0605 -0.3593
  751TIP3    H123812   3.149   3.616   1.602  0.8848 -0.9968 -1.2500
  751TIP3    H223813   3.010   3.558   1.596  1.1768 -1.7097 -1.1531
  752TIP3   OH223814   1.363   1.859   7.944  0.4659 -0.0526  0.2510
  752TIP3    H123815   1.389   1.779   7.991  1.2830 -0.1860 -0.4007
  752TIP3    H223816   1.446   1.898   7.916  0.0515  0.7680  0.1254
  753TIP3   OH223817   3.358   0.296   1.852 -0.4047  0.0636 -0.2045
  753TIP3    H123818   3.297   0.345   1.796  0.8668  0.5797 -1.2113
  753TIP3    H223819   3.434   0.281   1.796 -0.2069 -1.9464  0.5004
  754TIP3   OH223820   5.075   6.351   8.925  0.2208 -0.1400 -0.0532
  754TIP3    H123821   5.077   6.430   8.871 -0.1053 -1.3610 -1.9365
  754TIP3    H223822   5.153   6.358   8.981  1.5780  0.3905 -1.9059
  755TIP3   OH223823   6.739   0.205   0.990 -0.2412 -0.1590 -0.1744
  755TIP3    H123824   6.805   0.262   0.949  0.2940 -0.5398  0.1416
  755TIP3    H223825   6.779   0.118   0.990 -0.7695 -0.4074 -0.0220
  756TIP3   OH223826   2.238   3.548   8.621 -0.2225  0.1756  0.3374
  756TIP3    H123827   2.195   3.473   8.661  0.0286  0.0509  0.3770
  756TIP3    H223828   2.174   3.619   8.626 -1.3348 -0.6049 -1.7270
  757TIP3   OH223829   0.336   5.540   7.617 -0.6361  0.0110  0.0090
  757TIP3    H123830   0.250   5.582   7.617 -0.9810 -0.6418  1.3757
  757TIP3    H223831   0.397   5.611   7.602 -1.2439  0.9698  1.7490
  758TIP3   OH223832   2.505   6.372   7.330  0.1711  0.3381  0.1241
  758TIP3    H123833   2.463   6.311   7.268 -0.3021  0.4072  0.3767
  758TIP3    H223834   2.482   6.459   7.297 -0.3582  0.3730  0.5896
  759TIP3   OH223835   5.011   2.228   1.127  0.0353 -0.4084  0.7341
  759TIP3    H123836   5.032   2.301   1.070  0.4495 -1.9361 -1.1767
  759TIP3    H223837   4.916   2.217   1.118 -0.0369 -0.0804  1.0744
  760TIP3   OH223838   6.406   3.829   7.292  0.3706  0.1604  0.0577
  760TIP3    H123839   6.419   3.922   7.307 -1.5475  0.4431  0.1979
  760TIP3    H223840   6.413   3.818   7.197  1.2637  0.3231  0.1014
  761TIP3   OH223841   3.357   3.316   1.985  1.1297 -0.8246 -0.1039
  761TIP3    H123842   3.279   3.365   1.958  2.2149  1.1276  0.0811
  761TIP3    H223843   3.377   3.261   1.910  0.1481 -0.5925 -0.5553
  762TIP3   OH223844   0.958   4.817   0.712 -0.5434  0.3339  0.0304
  762TIP3    H123845   0.865   4.821   0.694 -0.6479  0.6571  0.6128
  762TIP3    H223846   0.971   4.733   0.757 -0.3439 -0.2937 -1.1679
  763TIP3   OH223847   1.874   3.524   8.723  0.4309 -0.5568 -0.1028
  763TIP3    H123848   1.834   3.459   8.665  0.7320 -1.2543  0.4544
  763TIP3    H223849   1.814   3.530   8.797  0.7853 -0.7787  0.2080
  764TIP3   OH223850   2.486   2.356   1.412 -0.4790 -0.3340 -0.2011
  764TIP3    H123851   2.525   2.309   1.338 -0.2776 -0.1597 -0.2070
  764TIP3    H223852   2.518   2.309   1.490 -0.3377 -0.2520 -0.2095
  765TIP3   OH223853   3.034   0.299   6.946 -0.6683  0.6538  0.5117
  765TIP3    H123854   3.123   0.322   6.918 -0.9968  1.4525  0.0726
  765TIP3    H223855   3.040   0.208   6.974 -0.0331  0.2144 -0.9560
  766TIP3   OH223856   3.505   6.059   2.366  0.1663 -0.0688 -0.3759
  766TIP3    H123857   3.465   6.127   2.311 -0.7512  0.1611  0.5537
  766TIP3    H223858   3.586   6.100   2.398 -0.0728  0.3672 -0.3143
  767TIP3   OH223859   2.336   1.877   7.837 -0.5987  0.3295 -0.6418
  767TIP3    H123860   2.379   1.836   7.912  1.9342  1.2438 -1.4846
  767TIP3    H223861   2.245   1.888   7.864 -0.0327 -0.4646  1.8051
  768TIP3   OH223862   5.597   3.649   0.650  0.6173  0.0803 -0.0560
  768TIP3    H123863   5.690   3.647   0.675  0.9253  1.0624 -1.0605
  768TIP3    H223864   5.588   3.730   0.599 -0.0996 -1.5193 -2.6212
  769TIP3   OH223865   4.887   2.285   0.611 -0.0752 -0.1944 -0.3541
  769TIP3    H123866   4.885   2.264   0.518  0.2006 -0.2953 -0.3392
  769TIP3    H223867   4.957   2.350   0.620 -1.4449  1.3464 -0.5166
  770TIP3   OH223868   3.769   1.105   1.233 -0.1279 -0.1095 -0.0880
  770TIP3    H123869   3.796   1.192   1.262  0.2639 -0.2437 -0.0455
  770TIP3    H223870   3.771   1.110   1.138  0.5564 -0.2688 -0.0891
  771TIP3   OH223871   5.827   2.801   0.018 -0.5490 -0.1290 -0.4755
  771TIP3    H123872   5.899   2.755   0.060 -1.4425  0.4399  1.8630
  771TIP3    H223873   5.869   2.870  -0.034  0.6313  0.8062  1.5937
  772TIP3   OH223874   6.279   2.340   8.315 -0.0878 -0.7117  0.1702
  772TIP3    H123875   6.223   2.337   8.238  1.4752 -0.7296 -1.0196
  772TIP3    H223876   6.227   2.384   8.381 -1.1720  0.0577 -1.1535
  773TIP3   OH223877   6.681   5.268   0.435 -0.4645  0.1174 -0.1399
  773TIP3    H123878   6.761   5.247   0.387  0.8402  0.0657  1.9400
  773TIP3    H223879   6.708   5.330   0.502 -1.5945 -1.7988  2.2573
  774TIP3   OH223880   3.421   1.877   0.671  0.0358 -0.0832 -0.0513
  774TIP3    H123881   3.494   1.883   0.732 -1.6937 -1.9712  2.4389
  774TIP3    H223882   3.414   1.784   0.651 -0.4969  0.3080 -1.8308
  775TIP3   OH223883   3.015   5.932   8.537 -0.0684  0.1084 -0.3381
  775TIP3    H123884   2.950   5.894   8.596 -0.5715 -0.0651 -0.9913
  775TIP3    H223885   3.032   5.863   8.472  0.5315  0.2689 -0.3647
  776TIP3   OH223886   6.263   0.415   2.285  0.0732 -0.1754  0.2980
  776TIP3    H123887   6.205   0.349   2.322 -0.1258 -0.5963 -0.7176
  776TIP3    H223888   6.222   0.439   2.201 -0.9830  2.7648  1.5027
  777TIP3   OH223889   0.910   3.379   7.796  0.4353  0.2810  0.5481
  777TIP3    H123890   0.856   3.436   7.741 -2.4690 -1.1823  1.6691
  777TIP3    H223891   0.852   3.307   7.820  3.0567 -1.6367  1.5906
  778TIP3   OH223892   1.144   0.748   0.935 -0.0337  0.2041 -0.4372
  778TIP3    H123893   1.123   0.663   0.897 -1.8471  0.9734 -1.2559
  778TIP3    H223894   1.237   0.761   0.915  0.3022 -1.5993 -0.2087
  779TIP3   OH223895   1.223   5.864   1.117  0.4260  0.3493 -0.2497
  779TIP3    H123896   1.284   5.868   1.191  0.6057  1.9057 -0.4530
  779TIP3    H223897   1.263   5.801   1.057  2.6081  2.2706 -0.9844
  780TIP3   OH223898   1.415   6.737   7.496 -0.5309 -0.4688 -0.1798
  780TIP3    H123899   1.332   6.772   7.464 -0.0115  2.5170  1.3346
  780TIP3    H223900   1.475   6.747   7.423 -1.4740 -2.8758 -1.3681
  781TIP3   OH223901   2.020   6.129   0.024 -0.2310 -0.0248  0.3891
  781TIP3    H123902   2.021   6.042   0.065 -0.3917  0.3699  1.2408
  781TIP3    H223903   2.110   6.161   0.034 -0.2193 -0.0071  0.2376
  782TIP3   OH223904   3.109   3.350   7.752 -0.4013 -0.0499  0.4580
  782TIP3    H123905   3.058   3.341   7.671 -0.4608  0.3323  0.4530
  782TIP3    H223906   3.126   3.444   7.760 -0.7947 -0.0294  1.1383
  783TIP3   OH223907   1.140   0.495   8.484  0.3565 -0.5275 -0.0679
  783TIP3    H123908   1.144   0.416   8.430  2.4774  0.0601 -0.8918
  783TIP3    H223909   1.075   0.475   8.552  0.5238 -2.7955 -0.4960
  784TIP3   OH223910   1.652   6.408   8.906 -0.2436 -0.5681  0.0106
  784TIP3    H123911   1.693   6.452   8.832  0.3301 -2.6449 -0.9881
  784TIP3    H223912   1.572   6.456   8.922 -0.4802 -0.1739 -2.0991
  785TIP3   OH223913   2.959   0.430   2.263 -0.4026  0.6999  0.2083
  785TIP3    H123914   2.945   0.513   2.308 -0.5428 -0.3755  2.3103
  785TIP3    H223915   2.948   0.364   2.332  0.6087 -1.0131 -1.1924
  786TIP3   OH223916   6.564   0.167   2.082 -0.1091 -0.4053 -0.5750
  786TIP3    H123917   6.486   0.149   2.029 -1.2253 -0.2978  0.9709
  786TIP3    H223918   6.636   0.134   2.029 -1.2575 -1.1431 -1.7552
  787TIP3   OH223919   2.015   5.272   1.331 -0.5893  0.7957  0.0942
  787TIP3    H123920   2.081   5.310   1.388 -1.5555  0.3663  1.5502
  787TIP3    H223921   1.932   5.298   1.369 -1.2659 -0.5489 -0.3947
  788TIP3   OH223922   3.957   3.356   1.688 -0.0378  0.4618 -0.1158
  788TIP3    H123923   3.977   3.295   1.759 -0.7928  1.1625  0.7101
  788TIP3    H223924   4.040   3.364   1.640  0.3288 -0.4495  0.3392
  789TIP3   OH223925   1.421   3.844   2.671  0.2451  0.3855 -0.5164
  789TIP3    H123926   1.454   3.933   2.657  1.3979  0.0314 -0.1604
  789TIP3    H223927   1.441   3.798   2.589  2.4497 -0.3429  0.3660
  790TIP3   OH223928   5.100   3.893   8.131 -0.3350  0.0678  0.0208
  790TIP3    H123929   5.150   3.823   8.089 -0.5327 -1.0863  1.5913
  790TIP3    H223930   5.142   3.905   8.216 -0.6958  1.4478  0.0324
  791TIP3   OH223931   3.155   1.368   7.255  0.6495 -0.1622  0.0703
  791TIP3    H123932   3.148   1.292   7.196 -0.7910 -0.3304  0.4260
  791TIP3    H223933   3.083   1.425   7.229 -1.1162 -1.0005  2.7184
  792TIP3   OH223934   1.496   3.644   2.459  0.4283 -0.4395 -1.0044
  792TIP3    H123935   1.552   3.568   2.473 -0.1335 -0.8708 -1.0402
  792TIP3    H223936   1.470   3.638   2.367 -1.3745 -1.4440 -0.4790
  793TIP3   OH223937   5.968   6.601   8.232  0.1103 -0.6823 -0.5495
  793TIP3    H123938   6.062   6.618   8.238  0.2207 -1.0741 -1.0984
  793TIP3    H223939   5.943   6.575   8.321  1.0536 -3.1623 -0.9390
  794TIP3   OH223940   2.038   2.921   0.190 -0.0280 -0.1163  0.4308
  794TIP3    H123941   2.074   2.847   0.140 -1.1960 -1.6466  1.7667
  794TIP3    H223942   1.944   2.905   0.194 -0.4516  1.9253  0.0454
  795TIP3   OH223943   2.089   1.830   3.018  0.0023 -0.5265 -0.2095
  795TIP3    H123944   2.040   1.773   3.077  0.1445  0.5563  0.9785
  795TIP3    H223945   2.177   1.791   3.015  0.0125 -0.5575  0.3457
  796TIP3   OH223946   2.065   2.444   7.758 -0.1249 -0.1796 -0.2165
  796TIP3    H123947   1.995   2.382   7.734  0.9955 -1.5763 -0.0417
  796TIP3    H223948   2.022   2.508   7.814 -1.8540  0.6188 -2.3213
  797TIP3   OH223949   1.760   3.345   0.200 -0.5286 -0.0935  0.6095
  797TIP3    H123950   1.775   3.250   0.205  0.1837  0.0313  0.9975
  797TIP3    H223951   1.665   3.354   0.198 -0.6163 -0.9202 -1.5854
  798TIP3   OH223952   3.386   2.950   0.201 -0.1912  0.8048 -0.1951
  798TIP3    H123953   3.350   3.034   0.173 -0.8781  0.5702 -0.0236
  798TIP3    H223954   3.349   2.935   0.287  0.9749  0.9417  0.3507
  799TIP3   OH223955   5.135   6.467   7.480 -0.4234 -0.1126 -0.0100
  799TIP3    H123956   5.088   6.418   7.548  0.7961 -1.8255 -0.3401
  799TIP3    H223957   5.153   6.401   7.412  0.2495  1.0844 -1.0264
  800TIP3   OH223958   0.487   4.101   7.710 -0.7934 -0.0335 -0.1333
  800TIP3    H123959   0.449   4.189   7.712  2.2346  1.5140 -2.3920
  800TIP3    H223960   0.424   4.049   7.661 -1.2061  1.7640 -1.6447
  801TIP3   OH223961   5.610   6.289   1.750  0.3942  0.1671 -0.2843
  801TIP3    H123962   5.618   6.195   1.733  2.2799 -0.0159  1.3183
  801TIP3    H223963   5.531   6.314   1.703  0.2466 -2.0598 -1.3859
  802TIP3   OH223964   3.646   2.658   7.784 -0.0871 -0.2361 -0.0736
  802TIP3    H123965   3.702   2.593   7.826  0.5229 -0.6209 -1.4349
  802TIP3    H223966   3.702   2.699   7.718 -0.9695  0.4583 -0.4088
  803TIP3   OH223967   1.449   4.009   8.112  0.4333 -0.9409  0.2419
  803TIP3    H123968   1.473   3.962   8.032  0.8423  0.2392 -0.3605
  803TIP3    H223969   1.483   4.098   8.099 -0.6740 -0.3462  1.1405
  804TIP3   OH223970   4.815   6.065   6.941  0.4575  0.1432 -0.5160
  804TIP3    H123971   4.830   5.990   6.998  0.1740  0.6549  0.2489
  804TIP3    H223972   4.721   6.064   6.923  0.7259 -0.7502 -2.0387
  805TIP3   OH223973   2.843   4.575   2.286 -0.2429  0.3788 -0.3030
  805TIP3    H123974   2.790   4.501   2.257 -0.3667  0.8818 -1.4129
  805TIP3    H223975   2.787   4.623   2.347 -0.0804 -0.5506  0.6005
  806TIP3   OH223976   1.649   4.580   8.926  0.4639  0.1535  0.4680
  806TIP3    H123977   1.721   4.530   8.887  1.2045  0.5108  1.3461
  806TIP3    H223978   1.620   4.526   9.000 -0.7012 -0.3589 -0.3461
  807TIP3   OH223979   6.490   0.248   0.900  0.0271 -0.5260  0.1670
  807TIP3    H123980   6.584   0.250   0.880  0.4454  0.8875  1.9574
  807TIP3    H223981   6.456   0.173   0.852  1.8806 -0.4806 -1.3199
  808TIP3   OH223982   0.801   6.426   1.006 -0.1818  0.3327  0.2355
  808TIP3    H123983   0.829   6.477   1.082 -0.7065 -0.8034  1.2386
  808TIP3    H223984   0.882   6.397   0.965  0.1167  0.1152  0.9647
  809TIP3   OH223985   4.353   3.478   8.125 -0.2271 -0.0961  0.5296
  809TIP3    H123986   4.338   3.384   8.128 -0.1290 -0.2105 -1.3734
  809TIP3    H223987   4.362   3.504   8.217 -1.2258 -1.7695  1.1417
  810TIP3   OH223988   1.311   6.070   7.018 -0.3717 -0.7910  0.3119
  810TIP3    H123989   1.218   6.047   7.013 -0.2969 -1.3032  1.1060
  810TIP3    H223990   1.339   6.038   7.104  0.5516 -0.6888  0.0575
  811TIP3   OH223991   5.926   3.252   1.638 -0.3495  0.2212  0.2750
  811TIP3    H123992   5.846   3.291   1.672 -1.3313 -1.6708  0.2662
  811TIP3    H223993   5.987   3.254   1.712 -1.1450 -0.2556  0.9626
  812TIP3   OH223994   0.208   2.033   8.204  0.1545  0.6287 -0.1853
  812TIP3    H123995   0.291   2.077   8.183 -0.1909  1.6549  0.5136
  812TIP3    H223996   0.192   2.053   8.296 -0.8416  0.3955 -0.2905
  813TIP3   OH223997   4.585   4.710   8.527  0.0480 -0.2388  0.4945
  813TIP3    H123998   4.640   4.639   8.493  0.1206 -0.1901  0.5096
  813TIP3    H223999   4.630   4.740   8.606  3.2173  3.6650 -2.3788
  814TIP3   OH224000   2.635   4.514   8.063 -0.3733  0.2747 -0.0298
  814TIP3    H124001   2.611   4.593   8.016 -1.3130  1.1021  1.7338
  814TIP3    H224002   2.719   4.487   8.025 -0.7979  1.2295 -1.6933
  815TIP3   OH224003   4.193   4.993   7.063 -0.2505  0.0323  0.3737
  815TIP3    H124004   4.158   5.081   7.076 -0.9010 -0.2207  0.3434
  815TIP3    H224005   4.251   5.002   6.987  2.6463  1.2604  2.5258
  816TIP3   OH224006   0.983   1.145   6.753  0.0484  0.2013 -0.8344
  816TIP3    H124007   0.976   1.072   6.814  0.5657  1.8345  1.2766
  816TIP3    H224008   1.065   1.128   6.706  0.0916 -0.6184 -0.4855
  817TIP3   OH224009   5.970   0.312   0.807  0.2094 -0.3088  0.0691
  817TIP3    H124010   5.999   0.228   0.773  0.1246  0.1692 -1.2461
  817TIP3    H224011   5.945   0.362   0.729  1.6137  1.4493  0.6709
  818TIP3   OH224012   5.257   3.664   2.393 -0.0897  0.1831  0.3841
  818TIP3    H124013   5.250   3.756   2.417 -0.0747  0.5070 -0.7994
  818TIP3    H224014   5.216   3.617   2.466  0.6135  1.0590  1.3740
  819TIP3   OH224015   5.907   6.176   8.434 -0.7215 -0.1739 -0.8629
  819TIP3    H124016   5.950   6.121   8.368  1.0719 -1.5404  1.3214
  819TIP3    H224017   5.893   6.118   8.509 -2.6095  1.3444  0.0336
  820TIP3   OH224018   2.412   4.146   8.920 -0.3985 -0.2036  0.1447
  820TIP3    H124019   2.419   4.171   9.012 -4.0448  2.0769  0.0217
  820TIP3    H224020   2.339   4.083   8.918  1.6829 -2.8090 -0.9554
  821TIP3   OH224021   5.345   4.951   8.830  0.1313  0.0975  0.5075
  821TIP3    H124022   5.428   4.984   8.795 -0.8932  0.3733 -1.9252
  821TIP3    H224023   5.359   4.857   8.843  1.9572  0.7159  3.9819
  822TIP3   OH224024   2.084   6.045   8.286 -0.0861 -0.4950 -0.4636
  822TIP3    H124025   2.049   6.022   8.200 -0.5663 -1.6426  0.0185
  822TIP3    H224026   2.035   5.991   8.347 -0.0478  0.6061  0.5882
  823TIP3   OH224027   1.554   2.088   1.360  0.2274 -0.2557 -0.7799
  823TIP3    H124028   1.551   2.093   1.455 -0.1480 -1.5503 -0.7109
  823TIP3    H224029   1.466   2.061   1.334  1.0648 -2.7137 -1.2721
  824TIP3   OH224030   3.022   0.441   8.298  0.3042  0.2008 -0.5370
  824TIP3    H124031   2.967   0.503   8.251 -2.3518 -0.7940  0.9969
  824TIP3    H224032   3.017   0.360   8.247  0.6720  0.2092 -0.5898
  825TIP3   OH224033   2.163   2.109   8.023 -0.0138  1.1141 -0.7068
  825TIP3    H124034   2.208   2.044   8.077  1.9385  0.6034 -2.7866
  825TIP3    H224035   2.115   2.163   8.086  0.9651 -0.3090  1.3843
  826TIP3   OH224036   1.122   6.754   2.220 -0.0696  0.6917  0.2307
  826TIP3    H124037   1.202   6.704   2.203 -0.4271  0.2996 -0.3775
  826TIP3    H224038   1.138   6.799   2.302 -0.1650 -1.3864  1.4496
  827TIP3   OH224039   0.826   1.280   7.200 -0.4090 -0.2107 -0.0714
  827TIP3    H124040   0.876   1.278   7.118 -0.0570 -1.3892  0.1539
  827TIP3    H224041   0.753   1.220   7.185 -0.1394 -0.7172  0.5969
  828TIP3   OH224042   6.669   0.387   7.653 -1.1261  0.0122 -0.7419
  828TIP3    H124043   6.677   0.450   7.725  0.5315 -2.9961  1.9655
  828TIP3    H224044   6.576   0.364   7.651 -0.9352 -1.3476  1.9832
  829TIP3   OH224045   5.010   6.308   7.685  0.9679 -0.1133  0.3599
  829TIP3    H124046   5.066   6.235   7.714  0.9514 -0.9508 -1.5167
  829TIP3    H224047   4.964   6.337   7.763  1.2639 -1.8982  1.2366
  830TIP3   OH224048   3.862   1.473   1.077 -0.1844 -0.1475  0.1675
  830TIP3    H124049   3.934   1.492   1.017 -0.8662  0.7179 -0.3920
  830TIP3    H224050   3.872   1.380   1.097  1.4774  0.0858  0.6243
  831TIP3   OH224051   0.040   0.727   1.645 -0.0737  0.3519  0.5359
  831TIP3    H124052  -0.056   0.727   1.642 -0.1103 -2.0486 -0.5244
  831TIP3    H224053   0.066   0.803   1.594 -1.4408  0.0348 -0.7089
  832TIP3   OH224054   4.516   1.562   1.954  0.0613 -0.0925 -0.4820
  832TIP3    H124055   4.501   1.521   2.039 -0.5747  1.1011  0.0115
  832TIP3    H224056   4.441   1.621   1.942  0.4716  0.2340 -1.5724
  833TIP3   OH224057   6.662   2.480   7.498  0.2709 -0.1259  0.2610
  833TIP3    H124058   6.587   2.507   7.446  0.6398  1.6044  0.5702
  833TIP3    H224059   6.671   2.386   7.481 -3.1142 -0.8448  1.7198
  834TIP3   OH224060   4.098   4.107   8.537  0.5067  0.6648  0.0434
  834TIP3    H124061   4.082   4.087   8.630  0.7599 -0.5302 -0.1654
  834TIP3    H224062   4.017   4.080   8.493  0.7554  0.3506 -0.2135
  835TIP3   OH224063   4.142   1.933   8.921 -0.5646 -0.3193 -0.4368
  835TIP3    H124064   4.189   2.004   8.964 -1.1415  0.8561 -1.6702
  835TIP3    H224065   4.194   1.855   8.938  1.4820  0.8128 -1.1843
  836TIP3   OH224066   0.854   0.181   8.544  0.5910  0.1976  0.3389
  836TIP3    H124067   0.937   0.162   8.500  0.4222  0.9402 -0.3163
  836TIP3    H224068   0.834   0.101   8.593  1.3630 -0.2223 -0.0167
  837TIP3   OH224069   4.894   5.583   2.321  0.2329  0.1490  0.1246
  837TIP3    H124070   4.842   5.612   2.246  1.3456 -0.4801 -0.9195
  837TIP3    H224071   4.925   5.664   2.361  0.2086  0.4856 -0.5191
  838TIP3   OH224072   2.207   1.909   2.227 -0.4913  0.1124  0.0777
  838TIP3    H124073   2.286   1.886   2.179  0.1767  0.4735  0.9671
  838TIP3    H224074   2.145   1.839   2.207  0.2948 -0.5591 -0.0585
  839TIP3   OH224075   6.022   1.417   1.223  0.1539 -0.1336  0.4620
  839TIP3    H124076   5.973   1.493   1.253  0.3807 -0.2297  1.0906
  839TIP3    H224077   5.976   1.389   1.143  0.9429  1.5320 -0.6378
  840TIP3   OH224078   1.395   4.592   1.538  0.0443  0.2191 -0.0548
  840TIP3    H124079   1.377   4.641   1.618  0.2336 -0.3653  0.3536
  840TIP3    H224080   1.311   4.550   1.516  0.2399 -0.4082  0.3881
  841TIP3   OH224081   0.918   4.032   6.996  0.3254  0.1358  0.2789
  841TIP3    H124082   0.967   4.044   6.915 -0.5967  0.5913 -0.2311
  841TIP3    H224083   0.985   4.019   7.063  1.1488 -3.9296 -1.0337
  842TIP3   OH224084   0.236   2.652   2.357 -0.4892 -0.0681 -0.1226
  842TIP3    H124085   0.152   2.615   2.385  0.2583 -1.9967 -0.2370
  842TIP3    H224086   0.300   2.583   2.376  0.9006  0.8784 -1.1413
  843TIP3   OH224087   1.044   4.382   7.778 -0.5279  0.1861  0.0685
  843TIP3    H124088   1.062   4.290   7.760 -0.4471  0.0162  0.9511
  843TIP3    H224089   1.038   4.424   7.692 -1.2406 -0.7736 -0.3643
  844TIP3   OH224090   3.738   2.473   2.167  0.2007  0.2730  0.5690
  844TIP3    H124091   3.661   2.422   2.144  0.4607  1.3036 -3.3621
  844TIP3    H224092   3.809   2.409   2.171 -0.1166 -0.1544 -0.4084
  845TIP3   OH224093   1.173   4.530   0.781 -0.4959 -0.1426 -0.1515
  845TIP3    H124094   1.246   4.572   0.828  0.8628 -3.2599  0.7727
  845TIP3    H224095   1.196   4.541   0.689  0.2959  0.3243  0.0878
  846TIP3   OH224096   2.914   6.040   0.955 -1.1825 -0.3730  0.4716
  846TIP3    H124097   2.947   6.039   0.865  1.8912 -1.2893  1.4760
  846TIP3    H224098   2.947   6.122   0.992 -0.8705 -0.8315  1.2385
  847TIP3   OH224099   0.544   0.420   2.872 -0.0271 -0.3569  0.6226
  847TIP3    H124100   0.620   0.381   2.916  0.9890 -1.1852 -1.6983
  847TIP3    H224101   0.491   0.346   2.845 -0.4755  0.1052  0.2184
  848TIP3   OH224102   3.493   4.557   8.655  0.1109 -0.0924  0.0651
  848TIP3    H124103   3.414   4.607   8.674  0.3168  0.7355 -1.1485
  848TIP3    H224104   3.548   4.569   8.733 -0.5716  0.0497  0.5423
  849TIP3   OH224105   0.426   2.667   7.904 -0.3349  0.1563  0.2707
  849TIP3    H124106   0.433   2.756   7.938 -0.0958  0.4596 -0.5303
  849TIP3    H224107   0.517   2.636   7.900 -0.4165 -0.1108  0.5292
  850TIP3   OH224108   4.629   4.193   7.964  0.0653  0.8274  0.3094
  850TIP3    H124109   4.564   4.205   8.033 -0.0921 -1.4472  0.6478
  850TIP3    H224110   4.709   4.168   8.011 -0.1038 -0.9648 -0.2683
  851TIP3   OH224111   2.524   0.923   1.212 -0.8334  0.9079  0.4505
  851TIP3    H124112   2.506   0.940   1.305 -0.8016  1.8461  0.2945
  851TIP3    H224113   2.608   0.966   1.195 -0.3019 -0.1724  0.2363
  852TIP3   OH224114   1.384   4.087   7.203 -0.0266  0.0725  0.3957
  852TIP3    H124115   1.296   4.117   7.180 -0.1689 -0.4701  0.2090
  852TIP3    H224116   1.383   3.993   7.184  0.9819  0.2751 -0.8339
  853TIP3   OH224117   3.940   1.166   8.202 -0.1504 -0.4251  0.1915
  853TIP3    H124118   3.857   1.130   8.170 -0.7782 -0.0279  1.3370
  853TIP3    H224119   3.953   1.125   8.287 -0.6221  1.6186  1.3120
  854TIP3   OH224120   5.898   5.282   2.308  0.0450 -0.7750 -0.2870
  854TIP3    H124121   5.807   5.253   2.317  0.7050 -2.5047  1.5665
  854TIP3    H224122   5.926   5.302   2.398  1.1982  0.8312 -0.9475
  855TIP3   OH224123   2.048   1.309   2.904 -0.3121  0.3269  0.0261
  855TIP3    H124124   2.037   1.397   2.868  0.5411 -0.3219 -1.9906
  855TIP3    H224125   2.133   1.279   2.869  0.5679 -0.4333  2.5984
  856TIP3   OH224126   6.499   6.346   1.393  0.3208  0.3059  0.5148
  856TIP3    H124127   6.584   6.343   1.350  0.7453  1.2680  1.2350
  856TIP3    H224128   6.436   6.335   1.323  0.9524  2.7589 -0.5315
  857TIP3   OH224129   2.450   1.749   8.933  0.4331 -0.0760 -0.4722
  857TIP3    H124130   2.373   1.713   8.978  0.9471  2.0639  2.4421
  857TIP3    H224131   2.483   1.676   8.880 -1.0052 -2.4849  1.6886
  858TIP3   OH224132   2.581   5.009   7.963  0.6909  0.0723 -0.0103
  858TIP3    H124133   2.645   5.078   7.979 -0.0452  0.4303  1.5623
  858TIP3    H224134   2.498   5.044   7.996  0.1100 -1.1950 -0.0463
  859TIP3   OH224135   4.794   0.667   0.719  0.5710  0.5390  0.5121
  859TIP3    H124136   4.706   0.705   0.717 -0.1107 -0.9451  0.8754
  859TIP3    H224137   4.820   0.663   0.627 -1.2274 -2.1734 -0.0149
  860TIP3   OH224138   2.927   2.288   7.610 -0.3963  0.5413  0.5044
  860TIP3    H124139   3.002   2.293   7.550 -1.7235  3.5077 -1.0907
  860TIP3    H224140   2.890   2.201   7.594  0.6308  0.3874 -1.3073
  861TIP3   OH224141   1.005   3.542   0.156  0.1802  0.0852  0.1438
  861TIP3    H124142   1.003   3.478   0.227  0.3461  0.9865  0.9793
  861TIP3    H224143   1.077   3.513   0.100  0.8739  0.0680  1.0259
  862TIP3   OH224144   5.904   1.522   7.110  0.4450  0.3314 -0.1869
  862TIP3    H124145   5.828   1.511   7.053  0.7378 -0.0497 -0.5085
  862TIP3    H224146   5.965   1.454   7.083  0.4809 -0.0378  0.7762
  863TIP3   OH224147   2.864   3.764   1.083 -0.6889  0.1143  0.0731
  863TIP3    H124148   2.922   3.687   1.081 -2.3712 -1.1937 -0.7131
  863TIP3    H224149   2.916   3.832   1.126  1.8174 -0.6461 -1.5137
  864TIP3   OH224150   3.819   3.629   8.308  0.1055 -0.2900  0.0872
  864TIP3    H124151   3.889   3.667   8.255 -0.7811  0.0593 -0.8644
  864TIP3    H224152   3.743   3.685   8.290 -0.3470 -0.4623  1.3511
  865TIP3   OH224153   3.994   3.528   7.673  0.1693 -0.0155 -0.1259
  865TIP3    H124154   3.970   3.608   7.626 -0.6935  0.1497  0.5845
  865TIP3    H224155   4.050   3.480   7.611  1.2480  1.4267 -0.3146
  866TIP3   OH224156   3.701   6.697   1.004 -0.4627  0.2767  0.2295
  866TIP3    H124157   3.758   6.651   1.066 -0.4565 -0.6077 -0.4120
  866TIP3    H224158   3.750   6.776   0.981  0.1551 -0.0820  0.2945
  867TIP3   OH224159   3.542   1.019   7.442  0.3392  0.5386 -0.2179
  867TIP3    H124160   3.600   0.953   7.404  0.5830  0.6543 -0.0481
  867TIP3    H224161   3.541   1.091   7.379 -1.1656 -0.2545 -1.1786
  868TIP3   OH224162   1.624   0.493   8.079 -0.6860  0.1629  0.2489
  868TIP3    H124163   1.672   0.514   7.999  0.0444  0.8526  0.8464
  868TIP3    H224164   1.678   0.529   8.150 -1.0140 -0.9667  1.1043
  869TIP3   OH224165   2.939   6.738   1.165  0.0184  0.6721 -0.6713
  869TIP3    H124166   2.905   6.752   1.253  1.3078 -0.3247  0.0267
  869TIP3    H224167   3.034   6.732   1.177  0.1064 -1.1287 -1.8636
  870TIP3   OH224168   1.184   3.398   2.104  0.7849  0.3725 -0.5587
  870TIP3    H124169   1.263   3.411   2.052  0.5930 -0.4483 -1.0738
  870TIP3    H224170   1.172   3.303   2.105  0.1680  0.4531  0.0623
  871TIP3   OH224171   5.148   0.276   7.535 -0.1522 -0.3487  0.4391
  871TIP3    H124172   5.179   0.186   7.549  0.2678 -0.2889 -0.0779
  871TIP3    H224173   5.207   0.311   7.468 -1.1573 -0.1250 -0.3436
  872TIP3   OH224174   1.852   0.567   1.814  0.2275 -0.3998  0.8325
  872TIP3    H124175   1.893   0.575   1.727  0.8262 -0.2588  1.1274
  872TIP3    H224176   1.924   0.575   1.876 -0.1547 -0.8022  1.3422
  873TIP3   OH224177   0.033   0.043   0.167 -0.1366 -0.2899  0.0543
  873TIP3    H124178   0.105   0.060   0.228 -0.2143 -0.4611  0.1948
  873TIP3    H224179  -0.020  -0.024   0.210 -1.1590  0.8149  0.5945
  874TIP3   OH224180   1.346   4.525   7.655  0.0370  0.3193 -0.6460
  874TIP3    H124181   1.287   4.599   7.668  0.9463  1.3574 -2.0971
  874TIP3    H224182   1.424   4.547   7.706 -0.1428 -0.2154 -0.1313
  875TIP3   OH224183   5.749   4.783   7.891 -0.1342 -0.1702 -1.1093
  875TIP3    H124184   5.760   4.718   7.821 -1.1275 -1.0817 -0.4616
  875TIP3    H224185   5.721   4.732   7.967  1.9219  0.6478  0.2959
  876TIP3   OH224186   0.757   1.513   0.327  0.3349 -0.1776  0.6737
  876TIP3    H124187   0.737   1.602   0.357 -0.2581 -0.5548  1.4312
  876TIP3    H224188   0.810   1.475   0.397  0.8723 -0.3244  0.2015
  877TIP3   OH224189   1.181   4.609   0.089  0.3067  0.0160 -0.0452
  877TIP3    H124190   1.220   4.696   0.097  0.5211 -0.2225  1.7459
  877TIP3    H224191   1.255   4.549   0.093  0.0108 -0.3209  0.3723
  878TIP3   OH224192   2.356   6.141   1.568  0.2213 -0.4456  0.0929
  878TIP3    H124193   2.416   6.203   1.608 -0.2903  0.2641 -0.2168
  878TIP3    H224194   2.397   6.118   1.484  0.8681 -1.2643  0.6174
  879TIP3   OH224195   2.876   6.157   2.214 -0.0230 -0.6141 -0.4616
  879TIP3    H124196   2.958   6.178   2.169  0.1919  0.0002  0.1943
  879TIP3    H224197   2.808   6.194   2.158  0.1610 -0.8769 -0.8658
  880TIP3   OH224198   0.581   2.902   2.273  0.2164 -0.5487  0.4071
  880TIP3    H124199   0.596   2.929   2.364  0.0014  1.6421 -0.1463
  880TIP3    H224200   0.527   2.823   2.280  1.2672 -1.1659  2.1805
  881TIP3   OH224201   3.225   5.645   8.665  0.0102  0.0984 -0.2262
  881TIP3    H124202   3.175   5.643   8.583  0.7133 -0.9795 -0.6565
  881TIP3    H224203   3.164   5.612   8.731  0.4386 -2.4556 -0.9704
  882TIP3   OH224204   3.303   4.022   6.912  0.5799  0.4289 -0.3363
  882TIP3    H124205   3.395   4.009   6.931  0.2125 -0.6564  0.8557
  882TIP3    H224206   3.288   4.116   6.928  1.0102  0.1958  1.6867
  883TIP3   OH224207   4.313   6.325   7.827 -0.1348  0.1023  0.3956
  883TIP3    H124208   4.285   6.405   7.872  0.5886  0.0186  1.0086
  883TIP3    H224209   4.406   6.336   7.812  0.3544 -1.3203  2.0355
  884TIP3   OH224210   1.632   3.171   8.780 -0.4750  0.5809  0.3980
  884TIP3    H124211   1.565   3.215   8.832 -1.9468 -0.8682 -0.1803
  884TIP3    H224212   1.586   3.099   8.737  1.2102  0.2655 -0.9982
  885TIP3   OH224213   1.970   0.483   7.988 -0.1113 -0.3416  0.1199
  885TIP3    H124214   2.061   0.453   7.998 -0.4360 -1.5682 -0.4265
  885TIP3    H224215   1.917   0.405   8.004 -0.9415 -0.5273 -2.8845
  886TIP3   OH224216   3.488   5.868   2.536 -0.3020 -0.2215  0.7650
  886TIP3    H124217   3.553   5.819   2.485 -1.7080 -0.7083 -0.6272
  886TIP3    H224218   3.472   5.947   2.484 -1.4891 -0.5452  0.6257
  887TIP3   OH224219   5.117   0.983   7.500  0.2754 -0.3608  0.0012
  887TIP3    H124220   5.039   1.028   7.532  0.3324 -0.5452  0.4149
  887TIP3    H224221   5.132   1.019   7.413  0.8091  1.0261  0.6420
  888TIP3   OH224222   6.491   0.971   2.366  0.4756 -0.6168 -0.0218
  888TIP3    H124223   6.416   0.944   2.419 -0.8053  0.9548 -0.9185
  888TIP3    H224224   6.518   0.892   2.320 -2.4629 -0.7576 -1.7892
  889TIP3   OH224225   2.973   2.247   8.165 -0.0370 -1.1843  0.2967
  889TIP3    H124226   2.989   2.332   8.204 -1.4779 -1.4787  1.6063
  889TIP3    H224227   3.008   2.184   8.229 -0.1423 -1.6112 -0.0602
  890TIP3   OH224228   3.381   2.084   0.507 -0.3236 -0.5633 -0.1697
  890TIP3    H124229   3.309   2.143   0.527  0.2421  0.3383 -0.7079
  890TIP3    H224230   3.392   2.032   0.587 -1.8812 -1.0813 -0.2572
  891TIP3   OH224231   3.735   2.444   7.368  0.2405 -0.0970  0.5765
  891TIP3    H124232   3.780   2.501   7.306  0.2778  1.0967  1.6516
  891TIP3    H224233   3.715   2.365   7.318  0.7074  0.6201 -0.7996
  892TIP3   OH224234   1.074   1.665   0.464 -0.5926  0.4399 -0.1135
  892TIP3    H124235   1.117   1.703   0.541 -0.7644 -1.6380  1.0535
  892TIP3    H224236   1.000   1.616   0.499 -1.0159 -0.0751 -1.6665
  893TIP3   OH224237   3.886   6.316   8.326  0.4265  0.1481  0.2217
  893TIP3    H124238   3.969   6.319   8.373  0.9838 -0.8866 -0.6519
  893TIP3    H224239   3.893   6.239   8.269 -1.3582 -0.3016  0.5419
  894TIP3   OH224240   0.539   0.627   3.051  0.1691 -0.5408 -0.0738
  894TIP3    H124241   0.534   0.571   2.974 -0.9965 -0.0075 -0.3968
  894TIP3    H224242   0.465   0.601   3.105 -0.0483  0.2810  0.0384
  895TIP3   OH224243   1.809   2.919   7.328 -0.3225 -0.0976 -0.2028
  895TIP3    H124244   1.880   2.854   7.330 -0.7809 -0.5958  0.4566
  895TIP3    H224245   1.853   3.003   7.325  0.3250 -0.3675  1.2323
  896TIP3   OH224246   6.298   6.414   7.885 -0.7925 -0.1932  0.5551
  896TIP3    H124247   6.235   6.435   7.954 -0.1068  1.6262  0.6891
  896TIP3    H224248   6.298   6.492   7.829  1.3678 -0.0990  0.6183
  897TIP3   OH224249   1.196   1.409   8.248  0.5884  0.3297 -0.2202
  897TIP3    H124250   1.102   1.427   8.253  0.5355 -0.0555  0.2418
  897TIP3    H224251   1.222   1.393   8.339  0.8061 -1.0015 -0.5060
  898TIP3   OH224252   6.289   3.382   1.685 -0.2915 -0.1025 -0.4544
  898TIP3    H124253   6.221   3.347   1.742  0.7822 -0.9316  0.3551
  898TIP3    H224254   6.368   3.381   1.739  0.4306  0.5553 -1.4707
  899TIP3   OH224255   1.978   5.707   2.343  0.1103  0.3118 -0.0233
  899TIP3    H124256   1.960   5.713   2.437 -0.6409  0.2681 -0.1544
  899TIP3    H224257   1.950   5.791   2.308  0.9723  0.5571 -0.1188
  900TIP3   OH224258   5.758   1.108   8.405 -0.4935  0.0319  0.0230
  900TIP3    H124259   5.787   1.198   8.395  2.0813 -0.8043 -0.6198
  900TIP3    H224260   5.720   1.085   8.320  1.1672 -0.2270 -0.6862
  901TIP3   OH224261   4.171   4.547   2.327 -0.0587 -0.4946 -0.2916
  901TIP3    H124262   4.212   4.515   2.408 -0.7543 -0.2494  0.1660
  901TIP3    H224263   4.181   4.642   2.331 -1.1353 -0.3856  0.0910
  902TIP3   OH224264   4.443   4.257   8.156  0.3883 -0.4282 -0.4707
  902TIP3    H124265   4.363   4.309   8.158 -0.6498 -1.9756  0.8469
  902TIP3    H224266   4.427   4.186   8.217  3.4162  0.1235  1.1951
  903TIP3   OH224267   5.522   5.158   0.827  0.2323  0.0774  0.3155
  903TIP3    H124268   5.491   5.094   0.891  1.4150 -1.0101 -0.1502
  903TIP3    H224269   5.519   5.111   0.743  0.6301  0.8072 -0.1136
  904TIP3   OH224270   3.059   0.342   0.711 -0.3601 -0.1272 -0.0791
  904TIP3    H124271   3.110   0.385   0.780 -0.4984  0.7027 -0.4931
  904TIP3    H224272   2.994   0.407   0.685 -0.7965 -0.7136 -0.4653
  905TIP3   OH224273   4.620   2.939   7.692  0.6401 -0.4428  0.2434
  905TIP3    H124274   4.601   2.859   7.642  0.1304 -1.0204  1.3057
  905TIP3    H224275   4.627   3.008   7.627  0.7720 -1.3082 -0.6754
  906TIP3   OH224276   5.823   1.621   8.195 -0.6553 -0.3517  0.0456
  906TIP3    H124277   5.833   1.549   8.257 -2.0761 -0.1788  0.5234
  906TIP3    H224278   5.906   1.668   8.199 -0.6594 -0.4155  1.7380
  907TIP3   OH224279   5.282   4.645   8.216 -0.3693  0.5905  0.4862
  907TIP3    H124280   5.353   4.653   8.280 -0.2776  1.1785  0.3151
  907TIP3    H224281   5.304   4.709   8.148  0.0004 -0.6426 -0.5819
  908TIP3   OH224282   0.467   3.277   8.374 -0.2968 -0.6860  0.2784
  908TIP3    H124283   0.542   3.337   8.373  0.4310 -1.4806  2.1224
  908TIP3    H224284   0.401   3.322   8.427  0.5737 -1.7807  2.4140
  909TIP3   OH224285   5.303   3.972   0.519 -0.1928 -0.4006 -0.0383
  909TIP3    H124286   5.289   4.048   0.462 -0.4412  0.6414  1.3661
  909TIP3    H224287   5.254   3.902   0.478  0.5220  0.0154 -1.6973
  910TIP3   OH224288   2.872   2.685   1.258 -0.0459  0.3594  0.1647
  910TIP3    H124289   2.915   2.661   1.340 -0.9002 -0.9068  0.2694
  910TIP3    H224290   2.788   2.722   1.284 -0.7942 -1.0674 -0.1544
  911TIP3   OH224291   6.300   6.205   1.527  0.1369  0.3065 -0.0469
  911TIP3    H124292   6.305   6.119   1.486 -0.8583  0.8261 -1.3502
  911TIP3    H224293   6.365   6.258   1.479 -1.6435  1.1540 -1.6757
  912TIP3   OH224294   1.325   4.594   8.174  0.1852 -0.3867  0.7170
  912TIP3    H124295   1.287   4.601   8.086  1.5445 -2.1112 -0.0567
  912TIP3    H224296   1.284   4.665   8.223 -1.3105  0.0417 -1.0437
  913TIP3   OH224297   2.284   1.828   7.462  0.2010 -0.4011  0.0997
  913TIP3    H124298   2.207   1.772   7.462  0.0484 -0.2604 -1.9780
  913TIP3    H224299   2.262   1.900   7.521  0.1830 -2.1689  2.3771
  914TIP3   OH224300   5.071   0.147   1.437  0.6656 -0.0660  0.2146
  914TIP3    H124301   5.067   0.159   1.532 -0.1671 -1.3318  0.3558
  914TIP3    H224302   5.108   0.229   1.404 -0.5070  1.0193  1.4946
  915TIP3   OH224303   0.029   3.128   0.052  0.0759  0.2826 -0.5514
  915TIP3    H124304   0.072   3.213   0.044  3.4854 -0.8073  3.3113
  915TIP3    H224305  -0.022   3.134   0.133  0.0513 -1.2519 -0.4296
  916TIP3   OH224306   0.402   6.364   1.125  0.3434  0.0979 -0.4657
  916TIP3    H124307   0.425   6.455   1.144 -1.7357  0.2583  1.7548
  916TIP3    H224308   0.428   6.315   1.203 -1.9001 -0.5295 -0.0441
  917TIP3   OH224309   0.148   0.929   1.485 -0.4531  0.0876  0.1004
  917TIP3    H124310   0.147   0.904   1.393 -0.3616  1.0436 -0.1789
  917TIP3    H224311   0.241   0.934   1.508 -0.3588  2.4358 -0.5360
  918TIP3   OH224312   6.531   1.185   0.267 -0.0817 -0.3439 -0.1519
  918TIP3    H124313   6.594   1.130   0.314  0.8554 -0.1182 -1.0848
  918TIP3    H224314   6.521   1.263   0.321  2.3834  0.7392 -1.0918
  919TIP3   OH224315   1.875   4.338   8.625 -0.3992 -0.5689 -0.1654
  919TIP3    H124316   1.907   4.249   8.608 -0.0617 -0.4565 -0.1358
  919TIP3    H224317   1.780   4.331   8.619 -0.4104 -1.0553  0.4297
  920TIP3   OH224318   3.542   5.217   1.146 -0.2164 -0.3309 -0.3000
  920TIP3    H124319   3.516   5.198   1.237 -0.5544 -1.4204 -0.6184
  920TIP3    H224320   3.462   5.203   1.095 -0.2488  1.0651 -0.6929
  921TIP3   OH224321   0.293   0.240   8.478  0.0661  0.2099  0.1311
  921TIP3    H124322   0.339   0.223   8.395 -1.3198 -1.6117 -0.3231
  921TIP3    H224323   0.353   0.207   8.545 -0.1736 -1.3473 -0.3887
  922TIP3   OH224324   1.056   3.726   0.665  0.1299  0.5858 -0.1197
  922TIP3    H124325   0.980   3.669   0.675 -1.6410  2.7108 -0.9264
  922TIP3    H224326   1.084   3.745   0.755  0.1209 -0.6600  0.1688
  923TIP3   OH224327   4.773   4.594   8.160 -0.1411 -0.2087 -0.6076
  923TIP3    H124328   4.857   4.552   8.175 -0.3499 -0.2865  0.3967
  923TIP3    H224329   4.708   4.526   8.182 -0.5040 -0.8755 -3.3904
  924TIP3   OH224330   2.173   3.722   0.521  0.2192  0.5257 -0.1130
  924TIP3    H124331   2.222   3.785   0.469 -1.3940  1.1050 -0.9903
  924TIP3    H224332   2.133   3.663   0.457 -0.6606  0.4011  0.5236
  925TIP3   OH224333   6.270   4.064   1.950 -0.3125  0.0249  0.3225
  925TIP3    H124334   6.332   4.060   1.877 -1.0956  0.7577 -0.4023
  925TIP3    H224335   6.229   4.150   1.943  0.2817  0.4947  2.2242
  926TIP3   OH224336   2.419   2.406   0.874 -0.5892 -0.7559 -0.1955
  926TIP3    H124337   2.357   2.473   0.902 -0.5247  0.0711 -1.9046
  926TIP3    H224338   2.482   2.399   0.946 -0.2569  1.4436 -0.2236
  927TIP3   OH224339   3.532   1.102   1.919 -0.3915 -0.2577 -0.8057
  927TIP3    H124340   3.451   1.117   1.967 -0.1555 -0.6645 -0.2733
  927TIP3    H224341   3.597   1.159   1.961 -0.1835 -0.6176 -0.6367
  928TIP3   OH224342   1.451   5.913   8.402  0.0988 -0.3872 -0.0980
  928TIP3    H124343   1.466   5.962   8.483  0.1753 -0.4301 -0.0858
  928TIP3    H224344   1.368   5.947   8.368  0.0891 -0.3377 -0.0244
  929TIP3   OH224345   2.523   2.225   1.657 -0.2307 -0.0143 -0.4454
  929TIP3    H124346   2.611   2.259   1.672  0.2247 -1.1376 -0.4765
  929TIP3    H224347   2.521   2.141   1.702 -2.0547  0.9786  1.5517
  930TIP3   OH224348   2.388   3.258   7.543  0.2822 -0.1212  0.1080
  930TIP3    H124349   2.467   3.204   7.538 -0.1644 -0.7582 -0.2213
  930TIP3    H224350   2.411   3.328   7.605  0.6744 -1.0234  1.0189
  931TIP3   OH224351   3.077   5.216   8.619 -0.3241  0.3329  0.0143
  931TIP3    H124352   3.067   5.258   8.704 -0.0341  3.1436 -1.2438
  931TIP3    H224353   3.170   5.192   8.614 -0.5328 -0.7244  0.8163
  932TIP3   OH224354   2.991   2.572   6.909 -0.1456 -0.1326  0.1873
  932TIP3    H124355   2.977   2.479   6.930  1.5021 -0.2808  0.7809
  932TIP3    H224356   3.085   2.578   6.891 -0.2679  1.3964 -0.0318
  933TIP3   OH224357   2.186   3.037   8.154 -0.1190 -0.0102  0.4725
  933TIP3    H124358   2.260   3.097   8.167  1.0903 -1.4132  0.2848
  933TIP3    H224359   2.181   3.026   8.059 -1.9677  1.6968  0.2922
  934TIP3   OH224360   0.651   0.869   1.298 -0.3176  0.0111  0.1538
  934TIP3    H124361   0.707   0.907   1.230 -1.0314  1.1303  0.1737
  934TIP3    H224362   0.609   0.944   1.339 -1.7921 -0.8098  0.1830
  935TIP3   OH224363   5.243   2.055   1.567 -0.0500 -0.1765  0.2390
  935TIP3    H124364   5.272   2.146   1.557 -0.1076 -0.2274 -0.4287
  935TIP3    H224365   5.198   2.035   1.485  1.2143 -1.2682 -0.2308
  936TIP3   OH224366   2.652   0.633   8.388 -0.3141 -0.1278  0.2221
  936TIP3    H124367   2.680   0.582   8.464  0.6803 -1.3651 -0.9422
  936TIP3    H224368   2.624   0.568   8.324  0.1122  0.8181 -0.9594
  937TIP3   OH224369   3.755   3.535   0.229  0.4993  0.1000  0.2350
  937TIP3    H124370   3.847   3.515   0.246  0.8164  1.1865 -0.1085
  937TIP3    H224371   3.757   3.601   0.160 -0.4640  1.3219  1.3205
  938TIP3   OH224372   3.188   5.136   1.030 -0.1816 -0.0175 -0.1542
  938TIP3    H124373   3.203   5.050   0.992 -3.4471 -0.5941 -0.3761
  938TIP3    H224374   3.180   5.120   1.124 -1.5769 -0.1301 -0.2740
  939TIP3   OH224375   4.329   2.345   1.598 -0.3791 -0.0750  0.0355
  939TIP3    H124376   4.333   2.257   1.560  0.9343 -0.7355  1.5815
  939TIP3    H224377   4.379   2.399   1.537  0.5507 -0.8277  0.1137
  940TIP3   OH224378   0.511   0.329   7.124 -0.6730  0.5389  0.2574
  940TIP3    H124379   0.427   0.370   7.143 -0.7373 -0.8308  3.6697
  940TIP3    H224380   0.558   0.330   7.208  1.8948 -0.6027 -1.0317
  941TIP3   OH224381   0.370   5.989   1.199  0.6711  0.3230 -0.8230
  941TIP3    H124382   0.414   5.941   1.129  2.0693  0.2557  0.0550
  941TIP3    H224383   0.346   5.922   1.263 -0.2877  0.4232 -1.0700
  942TIP3   OH224384   1.730   5.598   0.252 -0.5093 -0.2131 -0.1944
  942TIP3    H124385   1.771   5.517   0.222 -0.8586 -0.0383 -1.1752
  942TIP3    H224386   1.803   5.659   0.263 -0.5301  0.4910 -3.1573
  943TIP3   OH224387   5.584   6.506   3.290 -0.9490  0.6356 -0.0352
  943TIP3    H124388   5.656   6.563   3.264 -0.8344 -0.3835 -2.1732
  943TIP3    H224389   5.507   6.544   3.248 -0.6553 -1.4291 -2.6437
  944TIP3   OH224390   4.003   0.698   8.495  0.2610  0.4226 -0.0716
  944TIP3    H124391   4.001   0.646   8.415  1.6436 -1.7348  1.1880
  944TIP3    H224392   4.093   0.732   8.499  0.6273 -0.5970  1.1653
  945TIP3   OH224393   4.827   2.543   1.165 -0.2212 -0.0655  0.2454
  945TIP3    H124394   4.907   2.492   1.150 -0.1826 -0.0285  0.3272
  945TIP3    H224395   4.774   2.487   1.221 -1.2513 -1.1092 -1.6831
  946TIP3   OH224396   6.227   4.470   1.360 -0.8422  0.3316  0.1729
  946TIP3    H124397   6.205   4.486   1.452 -2.0452 -0.2140 -0.0046
  946TIP3    H224398   6.155   4.416   1.327  1.7929 -3.6003  0.1400
  947TIP3   OH224399   0.378   4.776   8.178  0.7379 -0.3083  0.5590
  947TIP3    H124400   0.418   4.846   8.125  0.6601 -0.7715 -0.1306
  947TIP3    H224401   0.285   4.781   8.156  0.9442 -1.6837 -0.7933
  948TIP3   OH224402   1.626   3.854   1.972 -0.2618  0.1482  0.1591
  948TIP3    H124403   1.601   3.875   2.062  0.6862  2.9556 -0.1456
  948TIP3    H224404   1.720   3.834   1.977 -0.6701 -2.0662  0.0732
  949TIP3   OH224405   5.360   6.070   8.079 -0.0819 -0.1355  0.7316
  949TIP3    H124406   5.292   6.027   8.027  1.9472 -1.1135 -1.2822
  949TIP3    H224407   5.374   6.012   8.153 -0.8141 -0.3562  0.7118
  950TIP3   OH224408   4.356   2.048   7.450 -0.1507 -0.2404 -0.1251
  950TIP3    H124409   4.330   2.139   7.432  1.3733  0.1617 -0.4591
  950TIP3    H224410   4.419   2.027   7.382 -0.4545 -1.5609 -0.0284
  951TIP3   OH224411   4.276   0.848   7.133  0.0854 -0.4243  0.0970
  951TIP3    H124412   4.338   0.920   7.142 -0.5533  0.1816 -0.2569
  951TIP3    H224413   4.228   0.848   7.216  0.2779 -0.6287  0.2090
  952TIP3   OH224414   2.122   5.372   8.604  0.2682  0.3502  0.5778
  952TIP3    H124415   2.052   5.385   8.539  0.6524 -0.6484 -0.0549
  952TIP3    H224416   2.178   5.305   8.565 -0.0172 -0.9917  2.3775
  953TIP3   OH224417   0.770   0.865   8.894  0.4773 -0.2595 -0.7089
  953TIP3    H124418   0.727   0.784   8.921  0.1826  0.0210 -0.3270
  953TIP3    H224419   0.743   0.877   8.803  0.8020 -0.7662 -0.8822
  954TIP3   OH224420   5.196   1.313   0.394  0.1861  0.2176 -0.4233
  954TIP3    H124421   5.114   1.359   0.374  0.2622 -0.0487 -1.4245
  954TIP3    H224422   5.265   1.376   0.371  0.2699  0.7306  1.1600
  955TIP3   OH224423   2.880   2.670   2.561  0.5285 -0.4837  0.6700
  955TIP3    H124424   2.785   2.682   2.559  0.6750  1.0673  1.6815
  955TIP3    H224425   2.901   2.660   2.654  1.5665  1.2492  0.6560
  956TIP3   OH224426   5.804   6.188   0.943 -0.2605 -0.2960  0.0177
  956TIP3    H124427   5.831   6.279   0.950  0.0161 -0.3297 -0.5489
  956TIP3    H224428   5.883   6.142   0.914 -0.5302 -0.6347 -0.1792
  957TIP3   OH224429   2.462   1.109   8.743 -0.7716  0.4889 -0.3640
  957TIP3    H124430   2.531   1.175   8.728 -0.2080 -0.3061 -1.3624
  957TIP3    H224431   2.451   1.067   8.659  1.1017 -2.8543  0.8886
  958TIP3   OH224432   5.533   1.220   1.460 -0.3494 -0.0893 -0.2638
  958TIP3    H124433   5.499   1.214   1.549 -0.9647  1.9060 -0.3171
  958TIP3    H224434   5.458   1.196   1.405 -0.4412  0.2421 -0.2826
  959TIP3   OH224435   3.851   1.841   7.578  0.1369  0.6944  0.1243
  959TIP3    H124436   3.792   1.852   7.503  1.2552  0.7428 -0.7719
  959TIP3    H224437   3.855   1.746   7.591  1.6867  0.5090 -1.3547
  960TIP3   OH224438   3.301   0.350   1.432 -0.1584 -0.2353  0.0750
  960TIP3    H124439   3.325   0.297   1.356  0.8684 -0.6115  0.6392
  960TIP3    H224440   3.242   0.294   1.483 -0.2745 -0.2555 -0.0807
  961TIP3   OH224441   0.940   3.109   0.770 -0.0749  0.3941 -0.0263
  961TIP3    H124442   0.888   3.079   0.844  0.7299 -2.3231 -0.4167
  961TIP3    H224443   1.012   3.159   0.809 -1.9446  2.7268  0.6270
  962TIP3   OH224444   5.660   4.182   0.313 -0.7010  0.9047  0.7381
  962TIP3    H124445   5.695   4.202   0.399 -0.0558  3.3534 -0.0209
  962TIP3    H224446   5.607   4.259   0.290 -1.1608  0.1514 -0.8945
  963TIP3   OH224447   5.562   6.405   0.886 -0.0046  0.1109 -0.0539
  963TIP3    H124448   5.602   6.476   0.837 -0.4324  0.8529  0.6475
  963TIP3    H224449   5.613   6.327   0.862  0.0546  0.5188 -1.3283
  964TIP3   OH224450   5.291   0.610   1.913 -0.5711 -0.0016  0.5171
  964TIP3    H124451   5.305   0.575   1.826 -2.2702  0.4578  0.0140
  964TIP3    H224452   5.324   0.543   1.973 -1.3259 -1.2624 -0.4483
  965TIP3   OH224453   1.282   4.967   0.963  0.1247  0.2173 -0.0392
  965TIP3    H124454   1.327   5.003   1.039 -2.4085  1.5990  0.9471
  965TIP3    H224455   1.350   4.956   0.897  2.0105  1.2511  1.6408
  966TIP3   OH224456   2.064   1.722   7.330 -0.3718  0.0465 -0.3754
  966TIP3    H124457   2.094   1.790   7.269  1.4768 -0.4256 -0.0252
  966TIP3    H224458   1.970   1.738   7.338  0.1769  3.4780  0.8124
  967TIP3   OH224459   5.830   5.335   1.984 -0.1928 -0.3994  0.6325
  967TIP3    H124460   5.811   5.419   1.941 -1.6499 -1.1370 -0.2586
  967TIP3    H224461   5.899   5.355   2.047 -1.1948  1.6940  1.1580
  968TIP3   OH224462   5.493   0.166   7.952  0.4588 -0.0352  0.2011
  968TIP3    H124463   5.444   0.243   7.981 -0.3101 -0.4137 -0.0408
  968TIP3    H224464   5.553   0.147   8.024  1.2108  1.2499 -0.0748
  969TIP3   OH224465   2.097   6.123   7.558 -0.3707 -0.1375  0.1155
  969TIP3    H124466   2.058   6.119   7.645 -1.0848 -0.2639 -0.2031
  969TIP3    H224467   2.096   6.033   7.527  1.2701 -0.3398  0.5577
  970TIP3   OH224468   2.921   4.299   2.017 -0.3005 -0.0207 -0.2413
  970TIP3    H124469   2.858   4.371   2.013 -1.6439 -1.1297  0.1207
  970TIP3    H224470   2.885   4.233   1.958  1.3294 -0.1060 -1.2074
  971TIP3   OH224471   5.831   1.681   1.833  0.3308 -0.0613  0.5733
  971TIP3    H124472   5.755   1.626   1.854  0.6930 -1.1846 -0.8799
  971TIP3    H224473   5.894   1.663   1.903  0.4157 -1.4878  0.1649
  972TIP3   OH224474   5.924   2.594   8.367 -0.4064 -0.1924 -0.2703
  972TIP3    H124475   5.934   2.667   8.305 -1.8182  0.3515  0.1133
  972TIP3    H224476   5.864   2.533   8.324 -0.4441 -0.3891  0.0573
  973TIP3   OH224477   4.602   1.016   8.757  0.3980 -0.2290 -0.2529
  973TIP3    H124478   4.675   1.059   8.801  0.1817 -2.0173  1.9977
  973TIP3    H224479   4.542   0.991   8.827 -0.6348 -2.0103 -1.6828
  974TIP3   OH224480   2.009   4.786   8.072 -0.2961 -0.0149 -0.5493
  974TIP3    H124481   2.102   4.768   8.079 -0.6072 -1.6569 -0.0610
  974TIP3    H224482   1.975   4.771   8.161 -1.1541 -0.4099 -0.9245
  975TIP3   OH224483   1.924   2.242   7.612 -0.0555 -0.2231 -0.0156
  975TIP3    H124484   1.873   2.166   7.585 -0.4805 -0.4487  1.3186
  975TIP3    H224485   1.948   2.286   7.530  0.3467 -1.8708 -0.8183
  976TIP3   OH224486   4.115   0.370   2.633 -0.3005 -0.1613  0.0004
  976TIP3    H124487   4.194   0.369   2.687 -0.5484  0.2198  0.3727
  976TIP3    H224488   4.127   0.297   2.572  0.0156 -0.5511  0.5165
  977TIP3   OH224489   2.595   3.884   7.950  0.1980 -0.1461  0.0523
  977TIP3    H124490   2.564   3.875   8.041 -3.2422  0.7440 -0.8806
  977TIP3    H224491   2.574   3.800   7.910 -1.0864  0.4666 -0.6035
  978TIP3   OH224492   6.333   1.267   7.814 -0.2221  0.2671  0.5756
  978TIP3    H124493   6.252   1.272   7.865 -0.0743  0.7322  0.7715
  978TIP3    H224494   6.333   1.179   7.778 -1.3240  0.5755 -0.2691
  979TIP3   OH224495   4.051   1.526   0.892 -1.0080 -0.5744 -0.3279
  979TIP3    H124496   4.012   1.610   0.919 -1.7187 -1.1376  0.4691
  979TIP3    H224497   4.113   1.549   0.823  1.4130  1.0675  2.1997
  980TIP3   OH224498   6.344   1.774   7.396 -0.5143 -0.8642 -0.1443
  980TIP3    H124499   6.266   1.820   7.425 -0.5865 -1.5023  0.7042
  980TIP3    H224500   6.365   1.813   7.311 -0.9807  0.2268  0.2269
  981TIP3   OH224501   0.852   6.536   8.005 -0.1158 -0.3649  0.3265
  981TIP3    H124502   0.837   6.594   7.930  0.6603 -0.0371  0.4099
  981TIP3    H224503   0.765   6.505   8.029 -0.4393 -0.0054 -0.3393
  982TIP3   OH224504   4.498   3.172   0.928  0.0153  0.0381 -0.1085
  982TIP3    H124505   4.553   3.095   0.920 -0.9176 -0.5817 -0.7509
  982TIP3    H224506   4.417   3.139   0.969 -0.6088  0.5490 -0.8948
  983TIP3   OH224507   0.929   4.298   0.885  0.0241  0.1461 -0.8517
  983TIP3    H124508   0.841   4.263   0.898 -0.2430  0.5809 -1.4247
  983TIP3    H224509   0.916   4.393   0.883  0.4826  0.2042 -1.0865
  984TIP3   OH224510   5.362   1.171   8.423  0.2427  0.4743  0.6827
  984TIP3    H124511   5.427   1.226   8.380 -1.0353  0.5566 -1.2465
  984TIP3    H224512   5.340   1.104   8.359 -1.1000  0.0650  1.5268
  985TIP3   OH224513   4.177   5.914   8.899  0.0554  0.3055 -0.2224
  985TIP3    H124514   4.092   5.958   8.897 -0.1421 -0.0123  0.7402
  985TIP3    H224515   4.241   5.986   8.898 -0.1659  0.5333 -2.0736
  986TIP3   OH224516   1.130   2.226   1.175 -0.1430 -0.2967 -0.2632
  986TIP3    H124517   1.224   2.247   1.173  0.0186 -0.9996 -0.3538
  986TIP3    H224518   1.095   2.280   1.246  0.1283  0.7659 -0.9169
  987TIP3   OH224519   3.615   1.348   1.443  0.4946  0.5937  0.2866
  987TIP3    H124520   3.598   1.330   1.535  0.6388  0.6615  0.3275
  987TIP3    H224521   3.708   1.369   1.440  0.4323  0.8631  0.1690
  988TIP3   OH224522   3.092   1.537   1.843 -0.2227 -0.0457 -0.0855
  988TIP3    H124523   3.173   1.526   1.792  0.8568  0.9722  1.3236
  988TIP3    H224524   3.078   1.632   1.844 -2.2463 -0.2557 -1.4364
  989TIP3   OH224525   0.510   5.835   2.200 -0.2121  0.7619  0.1364
  989TIP3    H124526   0.455   5.910   2.225 -0.3077  0.9318 -0.5789
  989TIP3    H224527   0.590   5.847   2.252 -0.9563  0.3309  1.4387
  990TIP3   OH224528   3.451   3.075   0.639 -0.0996  0.1294 -0.3679
  990TIP3    H124529   3.394   3.046   0.569 -1.5430  0.2577  0.7108
  990TIP3    H224530   3.478   2.995   0.683 -0.4113  0.1374 -0.1595
  991TIP3   OH224531   0.226   2.506   2.955  0.1366 -0.5240 -0.3149
  991TIP3    H124532   0.299   2.445   2.968 -0.6645 -1.7493 -1.3214
  991TIP3    H224533   0.261   2.570   2.893  1.3965  0.8394  1.6923
  992TIP3   OH224534   3.737   3.904   1.163 -0.0874 -0.0773 -0.0936
  992TIP3    H124535   3.776   3.862   1.240  2.0818  1.0129 -0.5158
  992TIP3    H224536   3.676   3.969   1.199  1.3692  0.8649  0.7759
  993TIP3   OH224537   2.686   2.860   7.600 -0.0093  0.7665 -0.8586
  993TIP3    H124538   2.770   2.826   7.569  1.2204 -0.1147  2.8415
  993TIP3    H224539   2.640   2.782   7.632  1.4089  1.6877  4.6183
  994TIP3   OH224540   3.261   1.908   8.264  0.7332 -0.3214 -0.2159
  994TIP3    H124541   3.313   1.945   8.336  0.4433  2.2824 -1.2416
  994TIP3    H224542   3.193   1.856   8.308  0.8784  0.7603  1.3657
  995TIP3   OH224543   2.456   2.093   8.913 -0.9385  0.7646 -0.1557
  995TIP3    H124544   2.494   2.140   8.839  1.1223  0.1712  0.4832
  995TIP3    H224545   2.492   2.136   8.991  0.2512 -1.1992  0.4443
  996TIP3   OH224546   6.264   3.179   2.603 -0.0465 -0.3438  0.2591
  996TIP3    H124547   6.335   3.195   2.665  0.8131  1.0273 -1.0313
  996TIP3    H224548   6.259   3.259   2.550 -1.9037 -0.7950 -0.3290
  997TIP3   OH224549   1.693   4.364   8.286  0.1838 -0.0897  0.1013
  997TIP3    H124550   1.653   4.370   8.373 -1.8211  0.2298 -0.7876
  997TIP3    H224551   1.625   4.323   8.231  1.6077 -0.8052 -1.2069
  998TIP3   OH224552   2.465   5.222   1.182  0.1797 -0.0178 -0.0677
  998TIP3    H124553   2.476   5.317   1.176  1.5614  0.0359  2.0996
  998TIP3    H224554   2.490   5.201   1.272 -3.4081 -2.0327  0.6479
  999TIP3   OH224555   1.869   2.625   7.531 -0.4074 -0.0815 -0.6075
  999TIP3    H124556   1.908   2.650   7.448 -1.6920 -0.5014 -1.3749
  999TIP3    H224557   1.891   2.696   7.592  1.5120 -0.3263 -0.9850
 1000TIP3   OH224558   6.295   4.920   0.983 -0.3736 -0.4604 -0.4577
 1000TIP3    H124559   6.217   4.923   1.038  0.0203  1.0072  0.0603
 1000TIP3    H224560   6.350   4.991   1.016 -0.2400  0.6693 -2.9328
 1001TIP3   OH224561   1.247   1.403   0.265 -0.0650  0.3990 -0.3862
 1001TIP3    H124562   1.186   1.409   0.339 -1.9324  1.8325 -1.9405
 1001TIP3    H224563   1.191   1.393   0.188  1.8105 -1.0504 -1.6659
 1002TIP3   OH224564   6.373   0.675   0.755  0.2718 -0.4220 -0.1189
 1002TIP3    H124565   6.304   0.714   0.809 -0.9182 -2.0023 -0.4254
 1002TIP3    H224566   6.376   0.731   0.677  1.5359  1.4835  1.2114
 1003TIP3   OH224567   0.593   3.934   0.946 -0.7842  0.0869 -0.6534
 1003TIP3    H124568   0.684   3.957   0.933 -0.6222  0.0868  0.4186
 1003TIP3    H224569   0.595   3.843   0.975 -1.2457 -0.4530 -2.1931
 1004TIP3   OH224570   4.000   4.399   0.018 -0.2060 -0.0329 -0.4037
 1004TIP3    H124571   3.973   4.413   0.109 -0.7130  0.5857 -0.6404
 1004TIP3    H224572   3.934   4.339  -0.017  2.5637 -4.2758  0.9234
 1005TIP3   OH224573   3.846   5.982   7.848  0.1340  0.0516 -0.5555
 1005TIP3    H124574   3.887   6.068   7.842 -1.5838  0.9069 -0.8297
 1005TIP3    H224575   3.877   5.935   7.770  0.3237  0.7751 -0.9253
 1006TIP3   OH224576   0.504   0.066   7.383 -0.0344  0.2310  0.1450
 1006TIP3    H124577   0.508   0.035   7.473 -1.3384  1.6862  0.7575
 1006TIP3    H224578   0.539   0.155   7.386  0.9079 -0.0678 -1.0121
 1007TIP3   OH224579   0.614   2.541   7.440  0.2172  0.0557  0.8078
 1007TIP3    H124580   0.601   2.482   7.515  2.2443  0.8339  1.8568
 1007TIP3    H224581   0.684   2.499   7.389 -1.0200 -0.3712 -0.6056
 1008TIP3   OH224582   4.915   4.945   7.885 -0.0266  0.1593  0.0012
 1008TIP3    H124583   4.908   4.851   7.868 -1.3242  0.1906  0.2830
 1008TIP3    H224584   4.870   4.958   7.969  4.8714  0.2350  2.9926
 1009TIP3   OH224585   2.287   1.662   2.936 -0.0354  0.0238  0.1346
 1009TIP3    H124586   2.338   1.583   2.955 -0.2047  0.5534  3.2067
 1009TIP3    H224587   2.353   1.727   2.912  0.1770 -0.7025 -1.4336
 1010TIP3   OH224588   5.869   4.450   7.865 -0.5235  0.6466 -0.0908
 1010TIP3    H124589   5.898   4.360   7.856 -1.2689  0.4048 -0.1676
 1010TIP3    H224590   5.811   4.464   7.790 -2.1956  0.4697  1.1238
 1011TIP3   OH224591   2.516   1.714   1.761  0.0858  0.0350  0.1560
 1011TIP3    H124592   2.456   1.663   1.815  0.9000 -0.9398  0.1660
 1011TIP3    H224593   2.490   1.695   1.671  0.4475 -0.4802  0.1580
 1012TIP3   OH224594   3.802   1.926   8.361  0.4664 -0.3281 -0.4016
 1012TIP3    H124595   3.707   1.915   8.370  0.6045 -0.5999  0.9597
 1012TIP3    H224596   3.821   1.900   8.271 -0.4891 -2.2404 -0.1014
 1013TIP3   OH224597   0.967   6.735   0.156  0.1652 -0.0728  0.5958
 1013TIP3    H124598   0.914   6.657   0.174  0.2869 -0.1873  0.4507
 1013TIP3    H224599   0.988   6.769   0.243  0.2345 -0.2821  0.6629
 1014TIP3   OH224600   6.053   5.516   7.280 -0.3474 -0.3756  0.0238
 1014TIP3    H124601   6.102   5.446   7.238  1.1010  0.4450  0.2986
 1014TIP3    H224602   6.039   5.581   7.210  0.4456  0.1501  0.3440
 1015TIP3   OH224603   2.361   4.803   0.859  0.1096  0.3221 -0.0498
 1015TIP3    H124604   2.444   4.826   0.817  0.3267 -0.9260 -0.3634
 1015TIP3    H224605   2.314   4.753   0.792 -1.2194  1.6009 -0.1288
 1016TIP3   OH224606   5.264   6.165   0.090 -0.2264 -0.4341  0.0330
 1016TIP3    H124607   5.250   6.085   0.141  1.5619 -1.8167 -1.5096
 1016TIP3    H224608   5.264   6.137  -0.001  0.5423  1.3136 -0.5610
 1017TIP3   OH224609   6.744   2.789   7.531  0.5249 -0.2041  0.4844
 1017TIP3    H124610   6.739   2.880   7.558 -1.8311 -0.3150  0.6469
 1017TIP3    H224611   6.742   2.791   7.436  1.5049 -0.0775  0.4555
 1018TIP3   OH224612   0.004   6.344   1.297 -0.0653  0.0247 -0.4137
 1018TIP3    H124613   0.029   6.435   1.288 -0.0496  0.3080  1.8048
 1018TIP3    H224614   0.079   6.302   1.339 -0.2607 -0.9128 -0.9602
 1019TIP3   OH224615   6.342   5.073   1.406  0.4797  0.2027  0.6337
 1019TIP3    H124616   6.390   5.022   1.341  2.9286  1.5747  1.2622
 1019TIP3    H224617   6.356   5.026   1.488  2.4193  1.5670  1.1468
 1020TIP3   OH224618   1.867   5.063   7.238  0.0771 -0.8620  0.3702
 1020TIP3    H124619   1.962   5.071   7.249  0.1542 -0.6114 -0.3833
 1020TIP3    H224620   1.830   5.129   7.296  0.3213 -1.4852  1.2620
 1021TIP3   OH224621   0.646   2.567   2.248  0.0591 -0.4248 -0.1409
 1021TIP3    H124622   0.708   2.543   2.316 -0.5702  2.1796  1.5137
 1021TIP3    H224623   0.677   2.651   2.215 -1.3017 -0.1991 -0.9405
 1022TIP3   OH224624   2.631   2.979   1.465  0.0953  0.2057  0.3678
 1022TIP3    H124625   2.723   2.999   1.446  0.3446 -0.2537  1.0427
 1022TIP3    H224626   2.617   3.013   1.553  0.0860 -1.1513  0.9130
 1023TIP3   OH224627   3.229   5.705   7.215  0.7031 -0.2342  0.5296
 1023TIP3    H124628   3.142   5.688   7.251  1.0864 -1.4610  0.9430
 1023TIP3    H224629   3.224   5.794   7.182 -1.0219 -0.5973 -0.3448
 1024TIP3   OH224630   2.487   0.599   0.559 -0.4174 -0.4777  0.4424
 1024TIP3    H124631   2.438   0.640   0.488  1.5527 -3.7593 -3.1550
 1024TIP3    H224632   2.432   0.525   0.586 -1.0044  0.5584  2.3132
 1025TIP3   OH224633   0.246   2.179   7.555  0.3094 -0.7817 -0.2920
 1025TIP3    H124634   0.209   2.103   7.510 -0.6218  0.1869 -1.2234
 1025TIP3    H224635   0.184   2.198   7.625 -0.5673  0.3305 -1.3306
 1026TIP3   OH224636   6.076   5.611   1.794 -0.1020 -0.6264 -0.6154
 1026TIP3    H124637   5.981   5.604   1.795 -0.1211 -0.7305 -1.8322
 1026TIP3    H224638   6.095   5.677   1.728  0.5388  3.3101  3.0557
 1027TIP3   OH224639   4.860   2.022   8.626 -0.4604  0.2340  0.4376
 1027TIP3    H124640   4.844   1.928   8.629  0.8120 -0.0843 -1.1642
 1027TIP3    H224641   4.862   2.049   8.718 -2.5936 -0.9427  0.8783
 1028TIP3   OH224642   1.805   5.296   7.371  0.0260  0.3614 -0.4827
 1028TIP3    H124643   1.752   5.312   7.293  0.6452  2.3905 -0.5521
 1028TIP3    H224644   1.874   5.362   7.367  0.6407 -0.1078  1.3025
 1029TIP3   OH224645   3.152   6.160   8.205 -0.3369  0.0822  0.6100
 1029TIP3    H124646   3.229   6.133   8.157 -0.5708 -0.5302  0.5656
 1029TIP3    H224647   3.161   6.255   8.215 -0.4671  0.2924 -0.9620
 1030TIP3   OH224648   4.541   2.355   1.317 -0.7498  0.5805 -0.0171
 1030TIP3    H124649   4.490   2.433   1.337  0.1413  1.5992 -1.5085
 1030TIP3    H224650   4.479   2.282   1.325 -0.9159  0.9357  4.5961
 1031TIP3   OH224651   5.781   5.758   7.084 -0.0193  0.0558  0.2328
 1031TIP3    H124652   5.843   5.830   7.099 -0.4011  0.6052 -0.7166
 1031TIP3    H224653   5.697   5.801   7.073 -0.1078 -0.4375 -1.2662
 1032TIP3   OH224654   5.779   4.772   0.685  0.3376  0.0245 -0.2265
 1032TIP3    H124655   5.721   4.736   0.752  0.8097  0.5152  0.4463
 1032TIP3    H224656   5.867   4.751   0.715  0.5415 -0.2262 -0.9666
 1033TIP3   OH224657   1.680   1.994   2.312 -0.5183  0.2626  0.1993
 1033TIP3    H124658   1.762   2.017   2.355 -0.5972  0.2918  0.3346
 1033TIP3    H224659   1.623   1.963   2.383 -0.3190 -0.6193 -0.0194
 1034TIP3   OH224660   2.566   1.631   2.242  0.0727  0.0089  0.3520
 1034TIP3    H124661   2.538   1.539   2.234 -0.6032  0.0572  1.8610
 1034TIP3    H224662   2.494   1.673   2.290  0.2250  1.4137 -0.6130
 1035TIP3   OH224663   6.278   1.928   0.464 -0.4581  0.1102  0.2034
 1035TIP3    H124664   6.190   1.948   0.433 -0.6753 -0.8772  0.1213
 1035TIP3    H224665   6.302   1.848   0.416  0.7246  0.6880 -0.2207
 1036TIP3   OH224666   1.572   3.935   2.239  0.4537 -0.0036  0.1303
 1036TIP3    H124667   1.592   4.027   2.223  0.0171  0.2108  0.7998
 1036TIP3    H224668   1.499   3.936   2.301 -1.5686 -0.7665 -2.1142
 1037TIP3   OH224669   5.103   3.037   8.743 -0.5040 -0.6141 -0.2246
 1037TIP3    H124670   5.149   3.119   8.726 -0.1856 -1.1299 -1.9929
 1037TIP3    H224671   5.163   2.988   8.800  0.6221 -0.7755 -1.5027
 1038TIP3   OH224672   3.138   6.203   2.130  0.6273  0.0276 -0.1650
 1038TIP3    H124673   3.099   6.280   2.088 -1.9543 -0.6395  0.7805
 1038TIP3    H224674   3.132   6.134   2.065  0.4547 -0.0188 -0.0996
 1039TIP3   OH224675   5.334   2.392   0.714 -0.2093  0.2795  0.2671
 1039TIP3    H124676   5.392   2.382   0.789 -0.2125  1.7150  0.4749
 1039TIP3    H224677   5.262   2.331   0.731 -0.3019  0.7162  1.5087
 1040TIP3   OH224678   6.382   2.383   1.091 -0.3815  0.6486 -0.0315
 1040TIP3    H124679   6.321   2.425   1.151 -0.4250  1.3783 -0.5739
 1040TIP3    H224680   6.348   2.294   1.080  0.7157 -0.1854  2.5453
 1041TIP3   OH224681   4.079   1.983   8.459  0.0033 -0.0574 -0.1565
 1041TIP3    H124682   3.993   1.978   8.417 -0.3653  3.2797 -0.0595
 1041TIP3    H224683   4.060   1.970   8.552 -0.0076 -1.6345 -0.3521
 1042TIP3   OH224684   3.197   1.205   7.602  0.0308  0.2017 -0.2942
 1042TIP3    H124685   3.149   1.178   7.523  0.0318 -0.5299 -0.0475
 1042TIP3    H224686   3.247   1.128   7.628 -1.6587 -0.2909  1.7097
 1043TIP3   OH224687   3.088   1.027   2.228 -0.0077  0.0967  0.2357
 1043TIP3    H124688   3.059   1.114   2.258  0.8911  0.1354  1.0361
 1043TIP3    H224689   3.123   0.985   2.306  3.3024  0.5426 -0.8753
 1044TIP3   OH224690   3.489   2.914   7.079  0.2363 -0.0530 -0.3191
 1044TIP3    H124691   3.441   2.961   7.010 -0.8303 -0.3772  0.1871
 1044TIP3    H224692   3.571   2.887   7.037 -1.2593 -2.1066 -2.1374
 1045TIP3   OH224693   1.725   6.655   7.406 -0.0009  0.3204 -0.7598
 1045TIP3    H124694   1.671   6.723   7.365  1.2017  1.5687 -0.3426
 1045TIP3    H224695   1.671   6.577   7.402 -1.1782  1.1365 -1.8555
 1046TIP3   OH224696   4.036   6.104   1.737 -0.0726  0.5749  0.3750
 1046TIP3    H124697   4.043   6.044   1.811  1.1487 -0.3225 -0.4237
 1046TIP3    H224698   4.121   6.098   1.693 -0.5978  1.4568 -0.8184
 1047TIP3   OH224699   6.042   5.494   0.770  0.2216  0.2387  0.4288
 1047TIP3    H124700   6.064   5.410   0.811  0.2643 -0.1527 -0.3615
 1047TIP3    H224701   5.960   5.520   0.811  0.2835 -0.1223  0.7891
 1048TIP3   OH224702   0.683   1.971   0.151  0.0586  0.0363 -0.0737
 1048TIP3    H124703   0.744   1.978   0.077 -0.9125 -0.1870 -0.9250
 1048TIP3    H224704   0.628   2.049   0.144 -1.0674 -0.7758 -0.5563
 1049TIP3   OH224705   3.973   3.336   8.769  0.1750 -0.2464  0.0912
 1049TIP3    H124706   3.911   3.268   8.794 -0.2885  0.5579  1.2302
 1049TIP3    H224707   3.955   3.352   8.676  0.8505 -2.2122 -0.4290
 1050TIP3   OH224708   2.748   0.069   8.616  0.4539 -0.2974  0.0489
 1050TIP3    H124709   2.801   0.127   8.562  0.6590 -0.4770  0.0527
 1050TIP3    H224710   2.744   0.112   8.701  2.1707 -1.1568  0.6171
 1051TIP3   OH224711   1.479   3.001   8.188  0.3696  0.2238  0.5239
 1051TIP3    H124712   1.557   2.960   8.226  0.0372 -1.2278 -0.2721
 1051TIP3    H224713   1.507   3.090   8.165  2.2307 -0.6800 -1.0140
 1052TIP3   OH224714   6.354   6.023   0.527  0.0439  0.1514  0.3286
 1052TIP3    H124715   6.405   5.944   0.510 -1.6645 -0.6241 -1.5972
 1052TIP3    H224716   6.275   5.991   0.571  0.8054  1.2587  2.6891
 1053TIP3   OH224717   1.871   1.279   7.728  0.3596  0.0393  0.5620
 1053TIP3    H124718   1.778   1.290   7.749  0.4068 -0.0936  0.8378
 1053TIP3    H224719   1.899   1.204   7.781  0.1241 -1.2473 -1.0486
 1054TIP3   OH224720   1.681   3.578   0.019  0.3247 -0.1810 -0.4839
 1054TIP3    H124721   1.618   3.529  -0.033  1.0691 -0.7106 -0.9018
 1054TIP3    H224722   1.654   3.562   0.110 -0.2794 -0.2134 -0.6666
 1055TIP3   OH224723   5.181   2.013   2.210 -0.1986 -0.1929  0.5246
 1055TIP3    H124724   5.159   2.025   2.117  1.0288  0.8299  0.3296
 1055TIP3    H224725   5.275   1.992   2.209 -0.3481 -0.9301  1.4901
 1056TIP3   OH224726   4.738   1.862   0.692  0.1861 -0.0974  0.1364
 1056TIP3    H124727   4.769   1.944   0.655 -1.8580  0.2080 -0.9868
 1056TIP3    H224728   4.645   1.876   0.710  0.0599 -1.7800  1.0453
 1057TIP3   OH224729   0.804   2.748   2.113  0.1339  0.3016  0.0505
 1057TIP3    H124730   0.746   2.746   2.036 -1.3358  0.9533  1.0794
 1057TIP3    H224731   0.832   2.839   2.120 -0.7081  0.5147  0.9359
 1058TIP3   OH224732   2.264   3.899   1.760  0.1033  0.1325  0.0576
 1058TIP3    H124733   2.260   3.976   1.703  1.0638  1.2462  1.4279
 1058TIP3    H224734   2.346   3.855   1.736 -0.7351 -0.8491 -1.1413
 1059TIP3   OH224735   6.627   3.692   0.187 -0.1380  0.0285 -0.7341
 1059TIP3    H124736   6.554   3.675   0.128 -1.0463  0.6766  0.1724
 1059TIP3    H224737   6.691   3.740   0.134 -1.1453  1.0300 -1.0599
 1060TIP3   OH224738   1.686   1.764   8.010  0.9670  0.3689  0.0437
 1060TIP3    H124739   1.679   1.812   7.927  2.5606 -0.1631 -0.4350
 1060TIP3    H224740   1.610   1.706   8.010 -1.4718  3.2938  0.9898
 1061TIP3   OH224741   4.537   1.276   1.311  0.2685 -0.4495  0.1982
 1061TIP3    H124742   4.536   1.358   1.261 -0.5078 -0.8767 -0.5121
 1061TIP3    H224743   4.622   1.238   1.292 -0.9101 -1.8770 -3.0107
 1062TIP3   OH224744   0.080   0.920   8.849 -0.5982 -0.4419  0.1083
 1062TIP3    H124745   0.167   0.896   8.881 -0.4021 -0.0318 -0.1124
 1062TIP3    H224746   0.028   0.841   8.860  0.3206 -1.3447 -1.6289
 1063TIP3   OH224747   5.932   0.452   1.974 -0.2302 -0.0190  0.4961
 1063TIP3    H124748   5.852   0.453   2.025 -0.4797  0.3746  0.1052
 1063TIP3    H224749   5.996   0.499   2.027 -0.4290  0.2036  0.5367
 1064TIP3   OH224750   1.428   6.065   8.627 -0.0464  0.5347 -0.6807
 1064TIP3    H124751   1.426   5.991   8.689 -1.4281 -0.3935 -1.7730
 1064TIP3    H224752   1.382   6.135   8.673  0.0968  0.2947 -0.1507
 1065TIP3   OH224753   3.290   1.988   6.716  0.0778  0.2059  0.0042
 1065TIP3    H124754   3.362   1.962   6.773  0.2260  0.4599 -0.0618
 1065TIP3    H224755   3.292   2.084   6.717 -0.4529  0.2160  0.2431
 1066TIP3   OH224756   2.193   3.536   0.906 -0.1999 -0.3763 -0.1472
 1066TIP3    H124757   2.214   3.443   0.915 -0.7111 -0.6248 -1.3906
 1066TIP3    H224758   2.101   3.537   0.881 -0.5494  0.5334  1.0482
 1067TIP3   OH224759   1.703   0.912   7.141 -0.2185  0.3367 -0.2625
 1067TIP3    H124760   1.696   0.864   7.058 -2.1464  1.6640 -0.9389
 1067TIP3    H224761   1.751   0.992   7.119  1.0162 -0.2160  0.3622
 1068TIP3   OH224762   3.419   2.637   8.312 -0.1234  0.2540  0.3532
 1068TIP3    H124763   3.439   2.693   8.236 -0.4357 -1.0373 -0.7236
 1068TIP3    H224764   3.445   2.689   8.388  3.1364  0.4121 -0.7373
 1069TIP3   OH224765   6.582   1.139   1.172 -0.5088  0.2195 -0.2640
 1069TIP3    H124766   6.623   1.224   1.191 -0.2024 -0.0478  0.2875
 1069TIP3    H224767   6.583   1.092   1.255  0.4230 -0.7903 -0.8156
 1070TIP3   OH224768   0.455   2.981   8.086 -0.4557 -0.6345  0.3947
 1070TIP3    H124769   0.367   3.015   8.073 -0.3451 -0.0348  1.1536
 1070TIP3    H224770   0.498   2.990   8.001 -0.5911  0.6643  0.4452
 1071TIP3   OH224771   5.429   5.724   7.718  0.1500  0.2489  0.4411
 1071TIP3    H124772   5.347   5.755   7.680 -0.0381  0.2969  0.8922
 1071TIP3    H224773   5.403   5.659   7.783  0.5086 -0.3365  0.0099
 1072TIP3   OH224774   3.935   4.995   2.164  0.2055  0.1693  0.2511
 1072TIP3    H124775   3.978   5.046   2.232  0.1428  0.7260 -0.1214
 1072TIP3    H224776   3.858   4.958   2.207  1.3894 -1.4155  1.1148
 1073TIP3   OH224777   6.659   0.084   2.875  0.2172  0.4598  0.1822
 1073TIP3    H124778   6.750   0.086   2.845 -0.2582 -0.8840 -1.5173
 1073TIP3    H224779   6.617   0.155   2.826  0.0596  0.1653 -0.1118
 1074TIP3   OH224780   1.221   5.303   0.939  0.3206  0.5191 -0.2167
 1074TIP3    H124781   1.224   5.208   0.938  1.4974  0.5031  1.2971
 1074TIP3    H224782   1.177   5.327   0.857 -0.0160 -1.3063 -0.6050
 1075TIP3   OH224783   0.561   0.150   7.980  0.8456 -0.2912 -1.0245
 1075TIP3    H124784   0.508   0.230   7.989  1.9995  0.6122 -1.8862
 1075TIP3    H224785   0.543   0.119   7.892 -0.7902 -1.9119 -0.1662
 1076TIP3   OH224786   6.437   1.191   8.378  0.6934 -1.0385 -0.1706
 1076TIP3    H124787   6.429   1.205   8.472 -1.0374  0.0626 -0.4428
 1076TIP3    H224788   6.502   1.256   8.349  1.7007 -1.7960  0.3115
 1077TIP3   OH224789   6.043   3.153   0.586  0.8765  0.0966 -0.1919
 1077TIP3    H124790   5.955   3.119   0.598  1.3090 -0.6328  1.1017
 1077TIP3    H224791   6.036   3.246   0.608  0.3188  0.1923 -0.7308
 1078TIP3   OH224792   5.820   0.666   0.321  0.9187 -0.5716 -0.6779
 1078TIP3    H124793   5.737   0.704   0.291  0.3891 -0.3155  1.0180
 1078TIP3    H224794   5.798   0.625   0.405  3.0219  1.8713  1.2158
 1079TIP3   OH224795   4.210   0.753   2.164  0.4376 -0.2588  0.4339
 1079TIP3    H124796   4.233   0.818   2.098 -1.2415 -0.4250 -0.3842
 1079TIP3    H224797   4.148   0.797   2.222 -0.1230 -0.8664  0.3224
 1080TIP3   OH224798   1.506   3.621   7.842  0.3842  0.3567 -0.6030
 1080TIP3    H124799   1.578   3.639   7.781 -0.7207  0.4135 -1.9423
 1080TIP3    H224800   1.427   3.626   7.788 -0.6965  0.9839  0.9701
 1081TIP3   OH224801   4.366   4.748   1.918 -0.2666 -0.3550  0.7682
 1081TIP3    H124802   4.305   4.780   1.851  0.0553  1.3347  1.2358
 1081TIP3    H224803   4.388   4.826   1.969  1.4164 -1.1459  1.3099
 1082TIP3   OH224804   1.891   0.042   0.104 -0.1391 -0.1243 -0.1081
 1082TIP3    H124805   1.916  -0.044   0.139 -0.8021 -0.4947 -0.4986
 1082TIP3    H224806   1.974   0.088   0.090  0.2102 -0.5968  0.3685
 1083TIP3   OH224807   2.900   0.529   7.239 -0.9207 -0.0253  0.2135
 1083TIP3    H124808   2.865   0.614   7.267 -0.9228  0.5758 -1.5027
 1083TIP3    H224809   2.846   0.504   7.164  0.5048 -0.4398 -0.7284
 1084TIP3   OH224810   0.786   0.967   7.623  0.0717 -0.5739  0.3028
 1084TIP3    H124811   0.790   1.004   7.535  0.8035 -0.4473  0.3836
 1084TIP3    H224812   0.874   0.931   7.637 -0.3190 -1.4124  0.6246
 1085TIP3   OH224813   4.960   4.566   0.728 -0.1704  0.2843 -0.7405
 1085TIP3    H124814   4.977   4.472   0.735  0.9619  0.4674 -0.8183
 1085TIP3    H224815   4.883   4.581   0.784 -1.9314 -1.0612 -2.6314
 1086TIP3   OH224816   5.958   4.789   0.225  0.0910 -0.4191 -0.2336
 1086TIP3    H124817   5.878   4.744   0.195 -0.9665  0.7963  0.6468
 1086TIP3    H224818   6.014   4.792   0.148 -1.8078  1.0406 -1.6632
 1087TIP3   OH224819   2.336   4.642   1.066 -0.1490 -0.1530 -0.9074
 1087TIP3    H124820   2.264   4.683   1.114  0.3615 -2.3481  2.0579
 1087TIP3    H224821   2.348   4.696   0.988 -1.3582  3.5368  1.2357
 1088TIP3   OH224822   5.991   2.589   1.967 -0.0805  0.7581 -0.1681
 1088TIP3    H124823   5.935   2.522   2.004  0.6193 -0.2105 -0.8235
 1088TIP3    H224824   6.075   2.579   2.012 -0.5254  2.5178  1.1673
 1089TIP3   OH224825   1.223   4.590   6.974  0.3067  0.1690  0.0657
 1089TIP3    H124826   1.296   4.535   7.002 -0.2322 -1.1514 -1.0459
 1089TIP3    H224827   1.147   4.532   6.972 -0.2516  0.8780 -1.2987
 1090TIP3   OH224828   0.343   0.024   6.925  0.3532 -0.0457 -0.0021
 1090TIP3    H124829   0.274   0.089   6.909  0.6744  0.2897 -0.0483
 1090TIP3    H224830   0.424   0.075   6.924  0.6461 -0.5134 -0.4634
 1091TIP3   OH224831   1.494   6.698   2.703 -0.2504 -0.5183 -0.1571
 1091TIP3    H124832   1.580   6.737   2.691 -0.0355 -1.0907 -0.5016
 1091TIP3    H224833   1.439   6.771   2.732  0.1777  0.0095 -0.6479
 1092TIP3   OH224834   2.813   3.850   1.740  0.5369  0.6460  0.3402
 1092TIP3    H124835   2.837   3.798   1.816 -0.7715  0.1954  0.4781
 1092TIP3    H224836   2.860   3.809   1.667 -1.1208 -1.3518  0.2976
 1093TIP3   OH224837   2.454   0.032   1.414 -0.6999  0.5211  0.5941
 1093TIP3    H124838   2.474   0.002   1.503  1.4847 -0.8648 -0.2916
 1093TIP3    H224839   2.361   0.056   1.417 -1.2539 -1.5269  2.7121
 1094TIP3   OH224840   1.245   3.026   2.712  0.2367  0.0026 -0.3025
 1094TIP3    H124841   1.190   2.950   2.692 -0.9182  0.8296 -0.3594
 1094TIP3    H224842   1.198   3.072   2.782  1.2543  0.3165  0.1854
 1095TIP3   OH224843   6.651   4.592   1.633  0.1409 -0.1702  0.1139
 1095TIP3    H124844   6.603   4.592   1.550  0.9881 -2.3611 -0.4355
 1095TIP3    H224845   6.743   4.582   1.608  0.5352  0.3011  1.2924
 1096TIP3   OH224846   3.376   4.804   0.792  0.1333  0.5131 -0.3414
 1096TIP3    H124847   3.424   4.727   0.824 -0.6280  0.0089 -0.4017
 1096TIP3    H224848   3.436   4.877   0.808  0.5758  0.0073  0.3841
 1097TIP3   OH224849   1.409   2.938   1.951 -0.3838 -0.0147 -0.5410
 1097TIP3    H124850   1.392   2.858   2.000  0.0014  0.3612  0.2203
 1097TIP3    H224851   1.504   2.940   1.940 -0.0171  1.8249  2.0877
 1098TIP3   OH224852   6.104   6.419   8.071 -0.7514  0.4823  0.6856
 1098TIP3    H124853   6.032   6.474   8.101 -0.7532 -0.7886  3.2523
 1098TIP3    H224854   6.063   6.335   8.049 -0.5983  1.0415 -2.1619
 1099TIP3   OH224855   0.023   5.014   0.712 -0.8544 -0.4106 -0.9369
 1099TIP3    H124856   0.056   5.103   0.725  0.9582 -1.4281  3.0260
 1099TIP3    H224857   0.099   4.958   0.731 -1.9522 -2.8850 -3.2295
 1100TIP3   OH224858   5.342   2.023   7.717 -0.1593  0.2474  0.3632
 1100TIP3    H124859   5.271   1.965   7.689 -2.5256  3.1982 -0.3558
 1100TIP3    H224860   5.382   2.054   7.636  0.1549  0.6126  0.6522
 1101TIP3   OH224861   3.815   0.320   8.277 -0.2941 -0.3575  0.3801
 1101TIP3    H124862   3.781   0.238   8.313 -1.4968 -0.4717 -0.9429
 1101TIP3    H224863   3.753   0.387   8.305 -0.0377 -0.1093  0.3594
 1102TIP3   OH224864   4.721   5.912   8.145  0.0662  0.6280 -0.2169
 1102TIP3    H124865   4.774   5.911   8.065 -0.9257  0.6762 -0.9074
 1102TIP3    H224866   4.768   5.856   8.206  1.3041  1.3118 -0.5223
 1103TIP3   OH224867   0.194   4.255   0.638 -0.7756 -0.4376  0.0342
 1103TIP3    H124868   0.171   4.218   0.552  0.4602  1.0220 -0.9851
 1103TIP3    H224869   0.271   4.206   0.666 -1.2505 -0.9958  0.3864
 1104TIP3   OH224870   4.962   0.674   8.108 -0.0616 -0.0829  0.5526
 1104TIP3    H124871   4.880   0.627   8.090 -1.1651  0.8248  2.7938
 1104TIP3    H224872   4.934   0.759   8.141  1.8785  1.8087 -2.3229
 1105TIP3   OH224873   3.173   4.005   1.857 -0.1183  0.3231 -0.1308
 1105TIP3    H124874   3.218   4.084   1.886  0.5355 -0.0839 -0.0166
 1105TIP3    H224875   3.104   3.991   1.922 -1.8478  2.1364 -1.4210
 1106TIP3   OH224876   6.547   5.809   2.020  0.2109  0.0317  0.0894
 1106TIP3    H124877   6.578   5.739   1.963  1.1629  0.1442  0.4457
 1106TIP3    H224878   6.588   5.791   2.105 -0.3675  0.4342  0.4651
 1107TIP3   OH224879   5.158   4.542   0.996  0.1738 -0.2124  0.6715
 1107TIP3    H124880   5.237   4.488   1.000 -0.2234 -0.9845 -1.0335
 1107TIP3    H224881   5.095   4.494   1.050  0.2178 -0.7673  0.2379
 1108TIP3   OH224882   0.095   2.191   1.048  0.3992 -0.1049 -0.1863
 1108TIP3    H124883   0.098   2.251   0.974  0.1267  0.1381 -0.0001
 1108TIP3    H224884   0.104   2.247   1.125 -0.5308 -0.2299  0.0210
 1109TIP3   OH224885   4.700   0.104   8.512  0.2323 -0.0823 -0.3647
 1109TIP3    H124886   4.676   0.146   8.595 -0.2930  0.8341 -0.9633
 1109TIP3    H224887   4.624   0.116   8.456  1.1645  0.7487 -1.5111
 1110TIP3   OH224888   3.251   4.409   2.558  0.1022 -0.5002  0.0135
 1110TIP3    H124889   3.337   4.421   2.518  0.1946 -0.0487  0.3441
 1110TIP3    H224890   3.219   4.498   2.575 -0.4058 -0.6648 -0.0503
 1111TIP3   OH224891   5.600   4.569   6.740  0.7166  0.1729 -0.7431
 1111TIP3    H124892   5.596   4.478   6.771  0.7369  0.9319  1.7339
 1111TIP3    H224893   5.694   4.585   6.727  0.7125 -0.1459 -1.1975
 1112TIP3   OH224894   4.102   5.636   8.005 -0.3738 -0.4853  0.1050
 1112TIP3    H124895   4.191   5.642   8.039 -0.6519 -1.4705  1.0718
 1112TIP3    H224896   4.056   5.580   8.068 -0.8457 -2.6772 -2.0670
 1113TIP3   OH224897   3.009   4.474   7.139 -0.1941 -0.3819 -0.5514
 1113TIP3    H124898   2.963   4.520   7.209 -0.1334  0.1735 -0.8710
 1113TIP3    H224899   2.975   4.512   7.058  1.5739  0.8359 -0.7910
 1114TIP3   OH224900   3.761   5.851   1.842 -0.4512  0.1265  0.5757
 1114TIP3    H124901   3.715   5.858   1.926 -2.4874  1.1070 -0.5441
 1114TIP3    H224902   3.737   5.765   1.809  0.4853 -0.3284  1.0306
 1115TIP3   OH224903   5.746   3.496   1.262 -0.3170  0.0842  0.1021
 1115TIP3    H124904   5.818   3.440   1.233 -0.4781 -0.4163  0.6599
 1115TIP3    H224905   5.674   3.476   1.202 -0.2002  0.1016 -0.0445
 1116TIP3   OH224906   3.973   4.115   6.762  0.2436  0.2741  0.1243
 1116TIP3    H124907   3.908   4.077   6.821  0.3690 -0.3236 -0.1162
 1116TIP3    H224908   4.004   4.041   6.709  1.8370  0.3323  0.9055
 1117TIP3   OH224909   2.998   4.181   7.475 -0.2691 -0.3517 -0.9637
 1117TIP3    H124910   3.025   4.272   7.465  1.8934 -0.6906  0.9344
 1117TIP3    H224911   2.912   4.176   7.432 -1.3380  2.9972  0.4867
 1118TIP3   OH224912   1.308   4.400   8.471  0.1730  0.2265 -0.4818
 1118TIP3    H124913   1.219   4.434   8.481 -0.0090 -0.5579  0.7724
 1118TIP3    H224914   1.314   4.374   8.379 -0.9730  0.0772 -0.5224
 1119TIP3   OH224915   5.941   4.727   7.537  0.4042  0.5725  0.0231
 1119TIP3    H124916   5.917   4.695   7.450 -0.3964 -0.7248  0.7004
 1119TIP3    H224917   6.018   4.675   7.561  0.8042  1.1339 -0.0131
 1120TIP3   OH224918   6.336   3.447   8.753 -0.1401  0.7908 -0.1470
 1120TIP3    H124919   6.404   3.410   8.696  1.5235  1.8095  1.0613
 1120TIP3    H224920   6.305   3.373   8.805 -0.2062  0.2429 -0.9628
 1121TIP3   OH224921   4.693   5.041   0.803  0.2736  0.2218  0.3429
 1121TIP3    H124922   4.663   4.953   0.826 -1.8442  1.4090  2.6510
 1121TIP3    H224923   4.785   5.041   0.826  0.4382 -1.5053 -0.1513
 1122TIP3   OH224924   4.521   5.769   7.947 -0.2935 -0.3289 -0.7476
 1122TIP3    H124925   4.466   5.733   8.016 -0.2130 -0.7261 -0.8903
 1122TIP3    H224926   4.570   5.840   7.989 -0.0591 -0.7321 -0.3366
 1123TIP3   OH224927   4.406   3.840   0.247  0.6901 -0.1055 -0.5297
 1123TIP3    H124928   4.365   3.922   0.276  0.6073 -0.5689  0.7327
 1123TIP3    H224929   4.492   3.839   0.289  0.6059 -0.7698 -0.3599
 1124TIP3   OH224930   1.358   0.581   8.095  0.0021 -0.2182  0.2069
 1124TIP3    H124931   1.447   0.545   8.097  0.0547 -0.1191 -0.3259
 1124TIP3    H224932   1.351   0.623   8.010 -0.9571 -1.2297 -0.2265
 1125TIP3   OH224933   2.495   5.448   7.608 -1.1400 -0.4925 -0.5141
 1125TIP3    H124934   2.527   5.361   7.630 -0.2697  0.1138  0.6841
 1125TIP3    H224935   2.402   5.445   7.629 -0.5898 -0.3198  2.2269
 1126TIP3   OH224936   0.781   1.382   8.071  0.1938  0.4073  0.1175
 1126TIP3    H124937   0.689   1.405   8.084 -0.2234  1.3868 -3.5025
 1126TIP3    H224938   0.828   1.434   8.135 -1.7087  0.3386  1.6588
 1127TIP3   OH224939   0.466   5.772   1.026 -0.4242  0.0744 -0.3469
 1127TIP3    H124940   0.398   5.732   0.972 -1.3220  0.2543  0.6081
 1127TIP3    H224941   0.543   5.776   0.970 -1.3318  0.2971 -1.6123
 1128TIP3   OH224942   1.090   4.964   8.110 -0.1932  0.7641  0.1312
 1128TIP3    H124943   1.149   4.913   8.166 -1.1578  0.6074  1.0228
 1128TIP3    H224944   1.122   4.947   8.021 -0.1886 -1.0332  0.4304
 1129TIP3   OH224945   0.104   6.027   8.094 -0.2108  0.0847 -0.1314
 1129TIP3    H124946   0.164   6.003   8.023  0.1619 -1.8201  0.7564
 1129TIP3    H224947   0.016   6.016   8.056 -0.0193  1.0946 -0.8903
 1130TIP3   OH224948   3.512   3.516   8.533 -0.4436  0.2419 -0.6182
 1130TIP3    H124949   3.471   3.603   8.528  1.6733  1.3791  0.3653
 1130TIP3    H224950   3.550   3.513   8.621  0.5634 -1.2046 -1.0641
 1131TIP3   OH224951   4.443   0.605   8.395  0.4734  0.2972 -0.4802
 1131TIP3    H124952   4.443   0.527   8.451 -0.6345  0.5239 -0.1398
 1131TIP3    H224953   4.522   0.596   8.342  1.3074 -0.1524  0.7954
 1132TIP3   OH224954   5.957   0.685   1.295 -0.2549  0.6366  0.4561
 1132TIP3    H124955   5.879   0.726   1.332 -1.3018 -0.1356 -0.8300
 1132TIP3    H224956   5.941   0.591   1.302  1.4505  0.4034  1.9749
 1133TIP3   OH224957   0.021   1.274   1.306 -0.1611 -0.0905  0.3354
 1133TIP3    H124958  -0.010   1.244   1.391 -1.2531  0.6312  0.2086
 1133TIP3    H224959   0.019   1.369   1.312  1.1387 -0.0272 -0.0151
 1134TIP3   OH224960   6.190   0.442   1.738 -0.3207  0.2240  0.4430
 1134TIP3    H124961   6.176   0.500   1.662  0.7925 -2.7742 -2.2978
 1134TIP3    H224962   6.125   0.373   1.727  1.6420 -1.7465  0.5419
 1135TIP3   OH224963   3.631   5.307   0.211 -0.0191 -0.0381  0.2468
 1135TIP3    H124964   3.724   5.298   0.233 -0.0829 -1.1527  0.1207
 1135TIP3    H224965   3.590   5.336   0.293 -0.0124 -2.6164  1.2493
 1136TIP3   OH224966   3.518   2.384   1.501  0.1881 -0.2843 -0.2992
 1136TIP3    H124967   3.559   2.469   1.518 -0.2881 -0.1660  0.2885
 1136TIP3    H224968   3.430   2.406   1.471  0.4460 -0.5460 -1.3160
 1137TIP3   OH224969   3.453   5.851   0.455 -0.1211 -0.0258  0.0836
 1137TIP3    H124970   3.393   5.781   0.430  0.2847  0.1179 -1.3638
 1137TIP3    H224971   3.478   5.892   0.372 -0.7252  2.1538  0.9238
 1138TIP3   OH224972   2.935   3.567   2.445 -0.0557  0.2751 -0.0291
 1138TIP3    H124973   2.986   3.549   2.366  1.1796  1.2043  0.5268
 1138TIP3    H224974   2.973   3.509   2.511  0.8254  1.5213  0.5834
 1139TIP3   OH224975   1.682   1.635   2.045  0.0243 -0.8485 -0.6443
 1139TIP3    H124976   1.737   1.621   2.121  0.1256  0.8237 -0.3544
 1139TIP3    H224977   1.606   1.683   2.079 -0.5342 -1.1780 -1.3928
 1140TIP3   OH224978   4.656   1.143   1.582  0.3910 -0.4998 -0.1590
 1140TIP3    H124979   4.732   1.200   1.594 -0.7012  0.6147  2.1671
 1140TIP3    H224980   4.660   1.117   1.490  1.1829  3.0290 -1.2703
 1141TIP3   OH224981   3.310   0.033   2.083 -0.2393 -0.6710  0.0834
 1141TIP3    H124982   3.281  -0.048   2.124  0.6703 -1.7278 -1.2958
 1141TIP3    H224983   3.386   0.008   2.031  0.9805  1.3412  0.7661
 1142TIP3   OH224984   2.076   6.114   1.744  0.3716 -0.3080  0.2299
 1142TIP3    H124985   2.103   6.198   1.782  1.7157  0.3140 -1.9137
 1142TIP3    H224986   2.157   6.069   1.724 -0.3316 -1.6640  0.3440
 1143TIP3   OH224987   5.870   2.538   7.829 -0.0234  0.5744  0.1266
 1143TIP3    H124988   5.961   2.562   7.809  0.3947 -0.8956  0.1437
 1143TIP3    H224989   5.869   2.442   7.823 -1.9760  0.6403 -1.6063
 1144TIP3   OH224990   0.996   5.001   0.979 -0.0090  0.2660 -0.4193
 1144TIP3    H124991   1.088   4.988   0.956  0.1590  1.0801 -0.2475
 1144TIP3    H224992   0.956   4.914   0.969  0.9852 -0.3196  0.4643
 1145TIP3   OH224993   0.814   2.501   0.524 -0.2624  0.2016  0.1638
 1145TIP3    H124994   0.811   2.563   0.451  1.3090  0.7473  0.5353
 1145TIP3    H224995   0.830   2.555   0.601  1.0165 -0.6425  0.5121
 1146TIP3   OH224996   2.327   6.678   0.584  0.3754 -0.1568  0.1414
 1146TIP3    H124997   2.257   6.729   0.624 -1.2417 -1.1442 -1.2489
 1146TIP3    H224998   2.398   6.679   0.648 -1.2796  0.0609  2.0713
 1147TIP3   OH224999   1.082   4.067   1.115  0.1620 -0.2483  0.9735
 1147TIP3    H125000   1.031   4.125   1.172 -0.5115 -0.1841  0.3218
 1147TIP3    H225001   1.156   4.121   1.086  1.2763 -0.6971  2.8363
 1148TIP3   OH225002   4.744   4.166   6.883 -0.5567 -0.0411 -0.5743
 1148TIP3    H125003   4.767   4.259   6.872  0.0643 -0.1424 -0.1845
 1148TIP3    H225004   4.679   4.166   6.954  0.7194 -0.0515  0.6292
 1149TIP3   OH225005   3.194   4.266   7.060 -0.1454 -0.1400  0.4045
 1149TIP3    H125006   3.138   4.256   6.983 -0.7737 -0.7373  0.9316
 1149TIP3    H225007   3.155   4.339   7.109  0.5342  0.5600 -0.0701
 1150TIP3   OH225008   5.408   5.929   2.561 -0.2139 -0.4860 -0.0882
 1150TIP3    H125009   5.418   6.012   2.608 -0.9651 -0.3364 -0.1786
 1150TIP3    H225010   5.316   5.928   2.534  0.1125 -0.7336 -1.2362
 1151TIP3   OH225011   5.301   2.217   0.312  0.2301  0.2005 -0.0279
 1151TIP3    H125012   5.332   2.308   0.315  0.9653  0.0525 -1.7571
 1151TIP3    H225013   5.211   2.224   0.280 -1.0910  0.5114  3.3775
 1152TIP3   OH225014   3.423   3.248   8.500 -0.4396 -0.0566 -0.3325
 1152TIP3    H125015   3.467   3.204   8.427 -0.8635  0.9276 -1.2089
 1152TIP3    H225016   3.471   3.331   8.510 -0.9442  0.2135 -0.1033
 1153TIP3   OH225017   2.246   2.679   0.666  0.6959  0.6374 -0.0020
 1153TIP3    H125018   2.327   2.681   0.717  1.3088 -0.8984 -0.8504
 1153TIP3    H225019   2.275   2.683   0.575 -0.1687  0.1230 -0.3116
 1154TIP3   OH225020   2.966   3.228   8.859  0.0261 -0.2491 -0.1664
 1154TIP3    H125021   3.017   3.249   8.781  0.8885  2.7542  1.0311
 1154TIP3    H225022   3.024   3.174   8.912  0.6640  0.2812 -0.3064
 1155TIP3   OH225023   6.578   3.552   1.146 -0.0554  0.3974  0.5630
 1155TIP3    H125024   6.633   3.625   1.117  1.5067 -0.5126  1.1316
 1155TIP3    H225025   6.593   3.483   1.082 -1.7394  0.6161 -0.1293
 1156TIP3   OH225026   2.059   6.188   0.957  0.1677  0.5177  0.5106
 1156TIP3    H125027   1.996   6.241   0.908 -1.7784  0.3280  2.5914
 1156TIP3    H225028   2.027   6.193   1.048  1.3989 -2.1151  1.1723
 1157TIP3   OH225029   0.121   0.616   8.411 -0.5009 -0.0502  0.1629
 1157TIP3    H125030   0.080   0.565   8.480  0.4117  0.7849  1.3599
 1157TIP3    H225031   0.093   0.706   8.426  2.0826  0.6547  1.3619
 1158TIP3   OH225032   6.717   2.844   1.623  0.0615 -0.1502  0.2601
 1158TIP3    H125033   6.647   2.847   1.689 -1.0306 -1.1244 -0.8089
 1158TIP3    H225034   6.794   2.816   1.672 -0.9662 -1.8919  0.9893
 1159TIP3   OH225035   5.000   3.468   2.166  0.4169  0.3671 -0.0007
 1159TIP3    H125036   5.057   3.528   2.117  0.5977  1.1586  1.1452
 1159TIP3    H225037   5.059   3.399   2.196  0.5978  0.6584  0.3315
 1160TIP3   OH225038   6.111   2.268   1.137  0.0756  1.2914  0.5550
 1160TIP3    H125039   6.112   2.283   1.043 -1.5610  0.7385  0.4191
 1160TIP3    H225040   6.056   2.339   1.172  0.9991  1.7328  1.1626
 1161TIP3   OH225041   5.347   5.002   7.820  0.8859  0.1525 -0.4547
 1161TIP3    H125042   5.409   5.016   7.892  0.2257  0.3755  0.0900
 1161TIP3    H225043   5.319   5.091   7.797  0.7144  0.0474 -0.6448
 1162TIP3   OH225044   0.954   4.065   2.070 -0.4409  0.3355 -0.0152
 1162TIP3    H125045   1.040   4.075   2.028 -1.1260  1.0441 -1.3185
 1162TIP3    H225046   0.973   4.025   2.155  1.2081  0.8026 -0.1306
 1163TIP3   OH225047   4.981   2.624   0.121 -0.4633 -0.2592 -0.0608
 1163TIP3    H125048   4.960   2.705   0.168 -1.9923 -0.0177 -1.1071
 1163TIP3    H225049   4.972   2.646   0.029  0.1380 -1.3614 -0.4061
 1164TIP3   OH225050   5.488   6.191   2.345 -0.2333  0.2603  0.2639
 1164TIP3    H125051   5.515   6.195   2.437  0.8326 -1.1298  0.0530
 1164TIP3    H225052   5.534   6.263   2.303  0.8507 -0.2713  0.4892
 1165TIP3   OH225053   5.115   2.976   8.024  0.8465 -0.2622 -0.0628
 1165TIP3    H125054   5.179   3.028   7.974 -0.2817  1.5756  0.3043
 1165TIP3    H225055   5.042   3.036   8.038 -0.2194 -1.7595  1.0452
 1166TIP3   OH225056   4.627   0.109   1.622 -0.0125  0.0531 -0.1056
 1166TIP3    H125057   4.653   0.199   1.604 -1.4118  0.3460 -0.7833
 1166TIP3    H225058   4.685   0.056   1.567 -0.4428  0.6585 -1.1828
 1167TIP3   OH225059   2.882   5.267   2.361 -0.2012 -0.0332  0.1958
 1167TIP3    H125060   2.894   5.225   2.447 -0.8941 -0.8419 -0.0944
 1167TIP3    H225061   2.850   5.355   2.382 -0.1308 -0.1383  0.7732
 1168TIP3   OH225062   2.101   0.070   0.625  0.1327 -0.0306  0.2258
 1168TIP3    H125063   2.098   0.081   0.720 -0.0584 -0.8850  0.3256
 1168TIP3    H225064   2.011   0.050   0.599 -0.4948  3.2143 -0.5659
 1169TIP3   OH225065   2.814   2.879   0.059  0.3049 -0.1542 -0.4974
 1169TIP3    H125066   2.822   2.946   0.127 -1.4468 -1.8027  1.5001
 1169TIP3    H225067   2.744   2.911   0.002 -0.7636 -0.3524  0.6447
 1170TIP3   OH225068   5.215   6.121   0.458  0.5611 -0.1724 -0.6439
 1170TIP3    H125069   5.126   6.096   0.434  0.8271 -0.2985 -1.5401
 1170TIP3    H225070   5.206   6.164   0.543 -0.2079 -1.2363 -0.1575
 1171TIP3   OH225071   5.577   1.718   2.132 -0.6176  0.5311 -0.7632
 1171TIP3    H125072   5.487   1.710   2.164 -0.6056 -0.8670 -1.0088
 1171TIP3    H225073   5.608   1.627   2.126  0.4824  0.9472 -1.5942
 1172TIP3   OH225074   2.378   5.119   0.302  0.6243 -0.3251  0.0696
 1172TIP3    H125075   2.344   5.137   0.389  1.0719  0.3834  0.1116
 1172TIP3    H225076   2.301   5.119   0.245  0.1956 -1.8590  0.6052
 1173TIP3   OH225077   6.004   3.272   8.760 -0.3850 -0.2246 -0.0693
 1173TIP3    H125078   6.022   3.318   8.841  0.6337  0.1100 -0.4780
 1173TIP3    H225079   5.910   3.253   8.764 -0.6231  0.9734  0.5702
 1174TIP3   OH225080   3.134   0.132   1.478 -0.0520 -0.0530  0.8151
 1174TIP3    H125081   3.184   0.102   1.554  0.9803  1.0384  0.5982
 1174TIP3    H225082   3.127   0.054   1.422 -0.9855 -0.9210  2.0733
 1175TIP3   OH225083   4.103   6.632   1.350 -0.1933 -0.2989  0.1415
 1175TIP3    H125084   4.042   6.572   1.394 -0.8494 -0.9207 -1.4916
 1175TIP3    H225085   4.065   6.718   1.361 -1.6511 -0.7180 -1.1607
 1176TIP3   OH225086   1.795   4.003   8.751  0.0672 -0.3040 -0.2195
 1176TIP3    H125087   1.837   3.923   8.782  0.1204  0.0994  0.7716
 1176TIP3    H225088   1.739   3.974   8.679 -1.1737 -1.5150  1.1533
 1177TIP3   OH225089   0.685   2.464   1.014  0.0441 -0.5699 -0.4175
 1177TIP3    H125090   0.756   2.519   1.045 -0.2332  1.1121 -2.5999
 1177TIP3    H225091   0.665   2.407   1.089  0.7587  1.8373  1.7508
 1178TIP3   OH225092   3.052   3.772   0.805 -0.3438 -0.4143 -0.4531
 1178TIP3    H125093   3.057   3.702   0.871 -2.3156 -0.7031 -0.5307
 1178TIP3    H225094   2.966   3.813   0.821  0.3239  1.3306 -1.0834
 1179TIP3   OH225095   5.469   2.891   1.050 -0.2718  0.2046 -0.3594
 1179TIP3    H125096   5.466   2.865   0.958  2.3680  1.9124 -1.0485
 1179TIP3    H225097   5.471   2.986   1.048 -0.3114  0.2835  1.4987
 1180TIP3   OH225098   5.030   5.717   8.856 -0.4025 -0.3959  0.5778
 1180TIP3    H125099   4.950   5.691   8.809  0.4976 -0.9699 -0.6954
 1180TIP3    H225100   5.075   5.634   8.872  0.9655  0.0657 -0.6595
 1181TIP3   OH225101   3.006   1.301   8.883 -0.2657  0.2983  0.4347
 1181TIP3    H125102   2.998   1.282   8.789 -1.2506  1.6704  0.2135
 1181TIP3    H225103   3.086   1.256   8.909  0.9640  1.2546 -1.4425
 1182TIP3   OH225104   0.016   6.748   2.235  1.0062  0.5872 -0.1338
 1182TIP3    H125105  -0.064   6.742   2.288  1.4971 -1.0589  0.4852
 1182TIP3    H225106  -0.015   6.750   2.145  0.2533  0.5165  0.1140
 1183TIP3   OH225107   4.760   2.638   2.193 -0.7730 -0.3706 -0.0927
 1183TIP3    H125108   4.673   2.651   2.231 -0.3807  0.0698  0.6705
 1183TIP3    H225109   4.790   2.725   2.170 -0.0369 -0.3822  0.7779
 1184TIP3   OH225110   1.746   3.406   1.490  0.2291  0.3630 -0.2043
 1184TIP3    H125111   1.804   3.336   1.460  1.5267  2.3860 -2.8901
 1184TIP3    H225112   1.802   3.465   1.541 -1.0985 -0.9713  3.0235
 1185TIP3   OH225113   1.709   5.527   7.752  0.1200  0.2404 -0.5384
 1185TIP3    H125114   1.685   5.490   7.667  1.1834  0.7543 -1.0757
 1185TIP3    H225115   1.715   5.622   7.736  2.2675  0.1704 -0.4044
 1186TIP3   OH225116   6.513   6.663   8.342  0.6273 -0.4788  0.8000
 1186TIP3    H125117   6.547   6.749   8.319 -0.7727  0.2271  1.2463
 1186TIP3    H225118   6.497   6.667   8.436  1.2898 -1.5090  0.9726
 1187TIP3   OH225119   1.784   0.654   7.913  0.2390  0.3282  0.0119
 1187TIP3    H125120   1.830   0.698   7.841 -1.0014 -0.8129 -1.5426
 1187TIP3    H225121   1.848   0.591   7.947  0.1858 -0.5738 -1.4952
 1188TIP3   OH225122   2.157   1.028   2.798  0.3319 -0.4092  0.2415
 1188TIP3    H125123   2.155   0.973   2.876  1.4026 -1.1715 -0.2493
 1188TIP3    H225124   2.197   1.110   2.828 -0.0575 -0.3709  0.6764
 1189TIP3   OH225125   1.829   2.275   8.531 -0.4926  0.0314 -0.0984
 1189TIP3    H125126   1.786   2.283   8.445  0.0360  0.8608 -0.2927
 1189TIP3    H225127   1.789   2.344   8.583 -0.7043 -0.3783  0.2945
 1190TIP3   OH225128   2.703   5.801   1.533  0.0504 -0.6480  0.2151
 1190TIP3    H125129   2.739   5.713   1.544  0.2870 -0.6537 -0.5515
 1190TIP3    H225130   2.719   5.823   1.441 -1.5196 -0.4758 -0.0455
 1191TIP3   OH225131   3.921   4.661   8.315  0.0939  0.1154 -0.2456
 1191TIP3    H125132   3.936   4.593   8.250  0.7649  0.9402 -0.9778
 1191TIP3    H225133   3.843   4.633   8.362  1.1235 -1.8714  0.4063
 1192TIP3   OH225134   4.626   4.128   7.540  0.5661 -0.5487  0.0236
 1192TIP3    H125135   4.707   4.076   7.539  0.0534 -1.5794 -3.7947
 1192TIP3    H225136   4.647   4.208   7.492 -0.2158  0.0412  0.6317
 1193TIP3   OH225137   6.537   3.098   8.834 -0.0873 -0.0875 -0.2556
 1193TIP3    H125138   6.601   3.159   8.872  0.3876 -0.0498 -1.0968
 1193TIP3    H225139   6.457   3.150   8.826  0.7776  1.0174 -2.5914
 1194TIP3   OH225140   2.287   4.778   8.082  0.0863 -0.4067  0.5177
 1194TIP3    H125141   2.328   4.712   8.137  1.6680  0.2226  0.1717
 1194TIP3    H225142   2.318   4.758   7.993  1.5915  1.4356  0.5571
 1195TIP3   OH225143   4.834   2.710   1.792  0.1793  0.4025 -0.0042
 1195TIP3    H125144   4.760   2.675   1.841  0.2059  0.3172 -0.0242
 1195TIP3    H225145   4.841   2.652   1.715  0.5639  0.1210  0.2416
 1196TIP3   OH225146   3.071   1.788   0.225 -0.4906 -0.6699  0.4975
 1196TIP3    H125147   3.144   1.799   0.286  0.5971 -0.4796 -0.7891
 1196TIP3    H225148   3.112   1.765   0.142 -1.8337  0.2021 -0.4611
 1197TIP3   OH225149   4.432   1.170   7.729  0.2497  0.9569 -0.5406
 1197TIP3    H125150   4.368   1.164   7.659 -1.0306 -0.3843  0.6756
 1197TIP3    H225151   4.418   1.257   7.767 -0.1154  1.0716 -0.9329
 1198TIP3   OH225152   6.340   5.150   7.841 -0.3737 -0.8184 -0.2212
 1198TIP3    H125153   6.425   5.188   7.818 -0.9372  0.5096 -0.1997
 1198TIP3    H225154   6.362   5.068   7.886  0.8878 -0.6086 -0.4199
 1199TIP3   OH225155   2.069   4.733   1.679  0.2002 -0.3963 -0.2218
 1199TIP3    H125156   2.121   4.773   1.609  1.3425 -1.4762 -0.0204
 1199TIP3    H225157   2.027   4.658   1.638  0.3767 -0.6712  0.0952
 1200TIP3   OH225158   2.890   0.944   8.196  0.0244  0.5246 -0.3254
 1200TIP3    H125159   2.897   0.890   8.275  0.8148  0.9245 -0.1118
 1200TIP3    H225160   2.818   0.904   8.147 -0.6121  0.3789  0.6767
 1201TIP3   OH225161   3.020   4.847   8.836  0.1250  0.3790 -0.3122
 1201TIP3    H125162   3.013   4.858   8.741 -0.4850  0.9606 -0.2097
 1201TIP3    H225163   3.012   4.935   8.871 -0.7686  0.0656  0.3313
 1202TIP3   OH225164   4.762   6.495   2.482 -0.0815  0.0049 -0.2135
 1202TIP3    H125165   4.692   6.556   2.460 -0.2072 -0.1700 -0.3035
 1202TIP3    H225166   4.753   6.425   2.418  1.4564  0.9557 -1.5227
 1203TIP3   OH225167   5.660   1.987   1.467 -0.0164  0.2462 -0.0232
 1203TIP3    H125168   5.753   1.968   1.480 -0.5365 -1.9503  1.0008
 1203TIP3    H225169   5.623   1.903   1.439 -1.8200  0.8671  0.3849
 1204TIP3   OH225170   0.613   1.481   8.917  0.6639 -0.3646 -1.0389
 1204TIP3    H125171   0.701   1.488   8.953  0.3113  0.3048 -0.2866
 1204TIP3    H225172   0.568   1.418   8.973 -0.0148  0.9911  0.0166
 1205TIP3   OH225173   3.831   5.451   0.544 -0.7163  0.1178 -0.4060
 1205TIP3    H125174   3.809   5.536   0.505 -1.2742  0.3521  0.3785
 1205TIP3    H225175   3.746   5.408   0.556 -0.3712 -0.9870 -1.7181
 1206TIP3   OH225176   2.287   5.757   2.800 -0.1360  0.0425  0.3909
 1206TIP3    H125177   2.242   5.691   2.748  1.4227 -0.2089 -0.7124
 1206TIP3    H225178   2.232   5.835   2.792 -0.9807 -0.5693  0.0803
 1207TIP3   OH225179   1.475   2.968   8.693  0.2902 -0.2437 -0.3830
 1207TIP3    H125180   1.443   2.880   8.713  0.3790 -0.3970 -0.9145
 1207TIP3    H225181   1.501   2.965   8.601  0.5492  0.2638 -0.3339
 1208TIP3   OH225182   0.041   0.345   8.615 -0.0266 -0.1309  0.3435
 1208TIP3    H125183   0.109   0.280   8.594  1.6358  1.7310 -0.3241
 1208TIP3    H225184   0.045   0.353   8.711 -0.0175 -0.7376  0.4028
 1209TIP3   OH225185   0.632   1.655   2.464  0.1293  0.3493  0.1865
 1209TIP3    H125186   0.700   1.588   2.469 -0.3868 -0.3465 -1.4946
 1209TIP3    H225187   0.550   1.607   2.477 -0.1426  1.0261  1.1655
 1210TIP3   OH225188   3.290   3.112   7.776 -0.0855 -0.1199 -0.7078
 1210TIP3    H125189   3.253   3.199   7.791 -0.7880 -0.4800 -0.2639
 1210TIP3    H225190   3.224   3.067   7.722  0.4970 -0.2177 -1.3442
 1211TIP3   OH225191   1.684   1.718   0.103  0.3937  0.0457  0.1662
 1211TIP3    H125192   1.633   1.706   0.183  0.1601  1.2932  0.2190
 1211TIP3    H225193   1.656   1.647   0.046 -1.2937  0.6068  0.2582
 1212TIP3   OH225194   0.065   5.245   8.892  0.5620  0.0905 -0.1850
 1212TIP3    H125195   0.145   5.237   8.840  2.6514 -0.4005  2.8525
 1212TIP3    H225196   0.076   5.181   8.963 -1.6602  1.3196  1.4071
 1213TIP3   OH225197   6.285   0.457   8.523  0.1726  0.0928  0.3391
 1213TIP3    H125198   6.279   0.420   8.435 -0.0982 -1.7184  1.0695
 1213TIP3    H225199   6.222   0.529   8.524  0.4059  0.3318 -1.0261
 1214TIP3   OH225200   1.132   3.537   1.093 -0.3713  0.5758 -0.6046
 1214TIP3    H125201   1.214   3.560   1.136  0.0343  2.3534 -2.1730
 1214TIP3    H225202   1.064   3.566   1.155  0.1790  1.0837 -0.2276
 1215TIP3   OH225203   6.043   3.787   1.606  0.0797  0.3320  0.9580
 1215TIP3    H125204   6.007   3.872   1.581 -2.1905 -0.1446  2.3378
 1215TIP3    H225205   6.063   3.744   1.522  0.3972  1.8280  0.2294
 1216TIP3   OH225206   2.345   6.654   7.927 -0.1969 -0.1745  0.1330
 1216TIP3    H125207   2.280   6.597   7.885 -0.3481  0.0858  0.0109
 1216TIP3    H225208   2.428   6.607   7.918 -0.4859 -0.8781  0.9713
 1217TIP3   OH225209   0.029   1.874   1.304 -0.4686 -0.5929  0.0611
 1217TIP3    H125210   0.002   1.918   1.224  0.7958  1.3155  0.6071
 1217TIP3    H225211  -0.039   1.896   1.368 -0.8077 -1.0386 -0.1385
 1218TIP3   OH225212   2.328   6.708   7.577  0.1518  0.3982 -0.3390
 1218TIP3    H125213   2.243   6.688   7.616  1.3552 -1.1479  1.6949
 1218TIP3    H225214   2.308   6.727   7.485 -2.2134 -1.5053 -0.3342
 1219TIP3   OH225215   5.249   5.255   8.799  0.1948  0.0394  0.3946
 1219TIP3    H125216   5.226   5.325   8.860  0.5145 -0.3927  1.0317
 1219TIP3    H225217   5.254   5.177   8.854  0.8180 -0.3008 -0.1295
 1220TIP3   OH225218   2.277   1.614   0.555  0.1477 -0.7055 -0.6589
 1220TIP3    H125219   2.287   1.691   0.611  0.5926 -1.2540  0.0321
 1220TIP3    H225220   2.182   1.605   0.543  0.0754 -0.3085 -0.3863
 1221TIP3   OH225221   4.145   6.099   7.799  0.1785  0.2503  0.4238
 1221TIP3    H125222   4.201   6.173   7.821  0.1601  0.6208 -0.7117
 1221TIP3    H225223   4.103   6.124   7.716  1.4506 -1.7023 -0.9044
 1222TIP3   OH225224   5.438   5.291   7.790 -0.2400 -0.3983  0.1472
 1222TIP3    H125225   5.429   5.255   7.878  0.2915 -1.1877 -0.1114
 1222TIP3    H225226   5.525   5.332   7.789 -0.5051  0.1712  0.1850
 1223TIP3   OH225227   0.442   2.353   8.732  0.0543  0.0473  0.3489
 1223TIP3    H125228   0.419   2.442   8.707 -0.4249 -0.7582 -2.4459
 1223TIP3    H225229   0.361   2.316   8.766  0.1126  0.5181  0.9991
 1224TIP3   OH225230   0.520   5.081   8.911  0.9709  0.3819 -0.2506
 1224TIP3    H125231   0.534   5.142   8.839  0.8049 -0.1152 -0.7038
 1224TIP3    H225232   0.508   4.996   8.869 -1.1814  0.3938  0.2185
 1225TIP3   OH225233   0.571   5.565   1.477  0.1481 -0.2216 -0.2893
 1225TIP3    H125234   0.652   5.515   1.471  1.1681  1.4028 -0.7049
 1225TIP3    H225235   0.587   5.629   1.547 -0.4992  0.5695 -0.8413
 1226TIP3   OH225236   3.934   6.499   0.858 -0.1788 -0.2626 -0.2588
 1226TIP3    H125237   3.982   6.417   0.860 -0.4874 -0.4380  0.2603
 1226TIP3    H225238   3.842   6.474   0.860 -0.2892  0.0833 -0.7103
 1227TIP3   OH225239   0.397   2.952   0.909 -0.3003  0.1659  0.7891
 1227TIP3    H125240   0.416   2.886   0.976  0.9085 -0.9409 -0.5697
 1227TIP3    H225241   0.366   2.902   0.834 -0.8959  1.3138  0.2366
 1228TIP3   OH225242   3.907   3.132   6.870 -0.2071  0.4324  0.0312
 1228TIP3    H125243   3.814   3.137   6.893  0.1862 -0.4498  2.1103
 1228TIP3    H225244   3.945   3.213   6.903  0.0889 -0.1440  1.1803
 1229TIP3   OH225245   2.300   1.792   6.935  0.5905 -0.0363 -0.0989
 1229TIP3    H125246   2.252   1.714   6.963 -1.2160  0.8072 -0.7351
 1229TIP3    H225247   2.392   1.765   6.938  0.0336 -2.1547 -0.1838
 1230TIP3   OH225248   0.062   4.206   0.355  0.3499 -0.3593 -0.0983
 1230TIP3    H125249   0.050   4.116   0.324  1.1993 -0.2329 -0.8459
 1230TIP3    H225250   0.116   4.247   0.287 -0.3100  0.8117  0.0659
 1231TIP3   OH225251   3.075   1.021   2.504 -0.1340 -0.5995  0.4581
 1231TIP3    H125252   3.077   1.092   2.569  1.6371  1.1340 -1.3749
 1231TIP3    H225253   3.155   0.971   2.521  0.2542 -0.2327 -0.2689
 1232TIP3   OH225254   3.529   3.136   8.769 -0.3899 -0.4734  0.0158
 1232TIP3    H125255   3.460   3.146   8.703  0.4921  0.7644 -0.7630
 1232TIP3    H225256   3.603   3.101   8.720  0.5077  1.1285  0.1575
 1233TIP3   OH225257   6.208   4.058   8.841  0.0235  0.1558  0.0861
 1233TIP3    H125258   6.227   4.151   8.849 -0.1316  0.3747 -1.7156
 1233TIP3    H225259   6.251   4.018   8.917  1.3934  1.5066  0.0664
 1234TIP3   OH225260   5.005   1.007   0.243  0.1039  0.1733 -0.5348
 1234TIP3    H125261   4.950   1.082   0.221 -1.0948 -0.1837  1.0663
 1234TIP3    H225262   4.990   0.993   0.337  1.2079 -1.3463 -0.5514
 1235TIP3   OH225263   0.729   6.374   8.496  0.2006 -0.2044  0.3054
 1235TIP3    H125264   0.670   6.332   8.559  0.5240 -0.7444  0.2535
 1235TIP3    H225265   0.815   6.368   8.537  0.2427  0.4613  0.3204
 1236TIP3   OH225266   2.119   4.715   8.737 -0.0981 -0.1607  0.0432
 1236TIP3    H125267   2.152   4.797   8.700 -2.1642  1.1730  0.9883
 1236TIP3    H225268   2.132   4.724   8.831  0.4461 -1.3211  0.0995
 1237TIP3   OH225269   5.431   1.881   1.846  0.4507 -0.1847 -0.1944
 1237TIP3    H125270   5.415   1.813   1.781 -1.2786 -0.2873  0.2948
 1237TIP3    H225271   5.363   1.867   1.912  1.7393  0.3377  1.2983
 1238TIP3   OH225272   0.871   1.089   2.364 -0.0924 -0.2864  0.5128
 1238TIP3    H125273   0.954   1.090   2.412  0.7764 -0.1681 -0.9377
 1238TIP3    H225274   0.885   1.146   2.289 -1.3020 -0.7152 -0.0749
 1239TIP3   OH225275   4.763   0.430   8.412  0.4637 -0.4433  0.2065
 1239TIP3    H125276   4.730   0.377   8.340  0.5340  0.7925 -0.7609
 1239TIP3    H225277   4.728   0.387   8.491 -2.1956 -0.1047 -0.6886
 1240TIP3   OH225278   3.250   1.058   0.795 -0.2570 -0.4789 -0.4091
 1240TIP3    H125279   3.327   1.036   0.848 -0.0971 -0.7163 -0.7404
 1240TIP3    H225280   3.177   1.057   0.858 -0.0699 -0.7610 -0.1918
 1241TIP3   OH225281   0.914   3.990   0.686 -0.3086 -0.5658 -0.2876
 1241TIP3    H125282   0.989   3.996   0.627  0.4026  0.4331  0.6967
 1241TIP3    H225283   0.864   3.914   0.654 -0.4157  0.4440 -2.7129
 1242TIP3   OH225284   6.270   5.629   7.790 -0.3076  0.8122  0.1778
 1242TIP3    H125285   6.208   5.692   7.753 -0.6830  1.4708  1.8236
 1242TIP3    H225286   6.247   5.625   7.883 -0.0155 -1.4584  0.2004
 1243TIP3   OH225287   5.950   5.642   2.342 -0.4915 -0.3390  0.0313
 1243TIP3    H125288   5.934   5.556   2.382  0.2854 -1.0734 -1.1486
 1243TIP3    H225289   5.954   5.703   2.416  1.0235 -1.6571  1.1069
 1244TIP3   OH225290   3.316   2.234   2.761  0.5060 -0.0005 -0.3739
 1244TIP3    H125291   3.334   2.178   2.836 -0.5707  0.5030  0.2888
 1244TIP3    H225292   3.327   2.323   2.794 -0.4386  0.2379 -0.6769
 1245TIP3   OH225293   1.295   6.688   8.226  0.0573  0.2787 -0.0383
 1245TIP3    H125294   1.211   6.710   8.266  0.4663  2.0077 -0.0688
 1245TIP3    H225295   1.339   6.772   8.214  0.8728 -0.3802 -2.0664
 1246TIP3   OH225296   6.531   0.546   1.006  0.1960  0.1314  0.1489
 1246TIP3    H125297   6.483   0.627   1.024 -0.7115 -0.3169 -0.1846
 1246TIP3    H225298   6.614   0.575   0.969 -1.0147  0.8908 -2.1205
 1247TIP3   OH225299   5.548   5.842   1.910 -0.0015  0.5391 -0.2336
 1247TIP3    H125300   5.489   5.767   1.919 -1.5447  1.6908 -0.4281
 1247TIP3    H225301   5.527   5.880   1.825  1.8291  0.3317 -0.8131
 1248TIP3   OH225302   0.003   5.379   2.416 -0.5126 -0.0008  0.4572
 1248TIP3    H125303  -0.025   5.329   2.493  0.0768  0.3250  0.8893
 1248TIP3    H225304  -0.072   5.375   2.356 -0.5341 -1.2559  0.5479
 1249TIP3   OH225305   1.283   3.410   8.394 -0.0448  0.6902  0.7963
 1249TIP3    H125306   1.305   3.493   8.436  2.0953  0.3421  0.4734
 1249TIP3    H225307   1.291   3.427   8.300 -1.5720  0.6048  0.6190
 1250TIP3   OH225308   1.121   0.771   1.196  0.5440  0.0987  0.8097
 1250TIP3    H125309   1.202   0.750   1.242  1.1680 -0.9705 -0.6805
 1250TIP3    H225310   1.148   0.780   1.104 -0.7534  1.4572  0.5326
 1251TIP3   OH225311   1.381   4.774   8.524  0.7766  0.0476  0.8902
 1251TIP3    H125312   1.313   4.827   8.565  0.5235  0.4271 -0.0084
 1251TIP3    H225313   1.416   4.721   8.596 -0.5053 -0.2035  1.3651
 1252TIP3   OH225314   1.160   6.281   8.950 -0.0862 -0.8923 -0.1233
 1252TIP3    H125315   1.147   6.368   8.987 -1.3760 -0.8864 -0.5375
 1252TIP3    H225316   1.163   6.223   9.025 -1.9668 -0.7973  0.0573
 1253TIP3   OH225317   0.862   3.234   8.864 -0.1755  0.0706  0.1040
 1253TIP3    H125318   0.881   3.156   8.812 -0.4094 -0.1120  0.2911
 1253TIP3    H225319   0.769   3.227   8.885 -1.3334  2.3410 -3.2275
 1254TIP3   OH225320   0.767   6.157   1.089 -0.0663 -0.3409 -0.2098
 1254TIP3    H125321   0.738   6.237   1.045 -0.1812  1.0152  2.1600
 1254TIP3    H225322   0.862   6.165   1.095  0.1601 -1.4083 -1.7369
 1255TIP3   OH225323   4.201   6.000   1.218 -0.8144 -0.0197 -0.1077
 1255TIP3    H125324   4.141   5.939   1.260 -2.3202  0.5365 -1.3347
 1255TIP3    H225325   4.154   6.084   1.219  0.4207  0.6889 -0.1103
 1256TIP3   OH225326   6.268   2.421   8.777  0.0547 -0.2377 -0.5194
 1256TIP3    H125327   6.285   2.341   8.826 -1.6540 -0.5187 -0.3321
 1256TIP3    H225328   6.290   2.492   8.837 -0.4142 -0.5775  0.0545
 1257TIP3   OH225329   2.848   1.958   8.656  0.1782  0.2346 -0.0262
 1257TIP3    H125330   2.857   1.974   8.750  0.9835  1.7421 -0.3364
 1257TIP3    H225331   2.932   1.918   8.631  0.2154  0.4262 -0.2103
 1258TIP3   OH225332   2.223   0.752   1.925  0.4932  0.4702  0.1079
 1258TIP3    H125333   2.139   0.760   1.969  0.9297 -0.4126  1.1406
 1258TIP3    H225334   2.275   0.694   1.981  2.2994  2.1137  0.2470
 1259TIP3   OH225335   0.913   4.979   7.835  0.4834  0.6049 -0.2456
 1259TIP3    H125336   0.993   4.990   7.886  0.8017 -0.9025 -0.3683
 1259TIP3    H225337   0.887   5.068   7.811  2.2276  1.1184 -0.3751
 1260TIP3   OH225338   5.451   0.106   1.937 -0.2771 -0.0220 -0.1544
 1260TIP3    H125339   5.391   0.167   1.980 -0.3428 -0.9348  1.1108
 1260TIP3    H225340   5.427   0.020   1.972 -1.1763 -1.0507 -2.9769
 1261TIP3   OH225341   4.796   5.249   8.805  0.0122 -0.6428  0.3379
 1261TIP3    H125342   4.830   5.258   8.894 -0.2260  1.0451  0.2866
 1261TIP3    H225343   4.728   5.182   8.812  0.5658 -1.1320  1.2461
 1262TIP3   OH225344   2.422   2.584   1.539 -0.0435 -0.0198 -0.3588
 1262TIP3    H125345   2.511   2.609   1.566 -0.1153 -0.8743  0.7164
 1262TIP3    H225346   2.435   2.509   1.481 -0.1372 -1.9785  1.9948
 1263TIP3   OH225347   4.106   0.170   0.969 -0.0125 -0.0933  0.2739
 1263TIP3    H125348   4.184   0.190   0.918 -0.0238  3.0123  1.2404
 1263TIP3    H225349   4.115   0.077   0.992  3.1861  0.0474  0.0437
 1264TIP3   OH225350   4.213   5.594   6.826 -0.4858 -0.7658 -0.0695
 1264TIP3    H125351   4.268   5.656   6.874  0.0296  0.4051 -2.0384
 1264TIP3    H225352   4.244   5.508   6.854 -1.1007 -0.2073  2.6038
 1265TIP3   OH225353   1.593   0.031   1.937  0.0678  0.0468 -0.0455
 1265TIP3    H125354   1.566  -0.037   1.875  0.4798  1.1571 -1.4928
 1265TIP3    H225355   1.674  -0.002   1.974  0.4831 -0.0959 -1.0414
 1266TIP3   OH225356   0.919   3.625   1.258  0.5990 -0.3377  0.2323
 1266TIP3    H125357   0.897   3.684   1.330  0.0882 -0.1990 -0.0399
 1266TIP3    H225358   0.873   3.660   1.182  1.5304 -0.1981 -0.2818
 1267TIP3   OH225359   1.757   2.043   0.806 -0.5364 -0.2140 -0.0248
 1267TIP3    H125360   1.668   2.010   0.801 -0.5387 -0.3114  0.5805
 1267TIP3    H225361   1.758   2.097   0.885 -0.4535  0.9923 -0.8205
 1268TIP3   OH225362   3.593   1.882   2.185 -0.6415  0.0811  0.2547
 1268TIP3    H125363   3.664   1.830   2.220 -0.6190  0.2309  0.4350
 1268TIP3    H225364   3.621   1.906   2.096 -1.6335 -2.1198 -0.7121
 1269TIP3   OH225365   0.560   3.672   0.966 -0.1376  0.1022  0.2005
 1269TIP3    H125366   0.655   3.672   0.971 -0.1823  0.5940  1.8360
 1269TIP3    H225367   0.539   3.633   0.881  1.5302  1.0445 -0.6742
 1270TIP3   OH225368   3.659   3.171   1.148 -0.5068 -0.5356 -0.2074
 1270TIP3    H125369   3.734   3.207   1.195  0.7963 -1.0889 -1.7759
 1270TIP3    H225370   3.655   3.080   1.175 -0.7838 -0.4418  0.0724
 1271TIP3   OH225371   0.254   0.176   7.320 -0.1186  0.6194  0.2071
 1271TIP3    H125372   0.220   0.236   7.387 -0.5579  1.6232 -0.8837
 1271TIP3    H225373   0.323   0.127   7.365 -2.7509 -1.3789  2.4560
 1272TIP3   OH225374   5.445   0.461   0.205  0.4872  0.3117 -0.1975
 1272TIP3    H125375   5.499   0.386   0.179 -0.0844  0.9145 -3.5476
 1272TIP3    H225376   5.363   0.449   0.156  0.4780  3.1906 -1.0405
 1273TIP3   OH225377   2.115   0.187   0.044  0.1034 -0.0076 -0.1562
 1273TIP3    H125378   2.204   0.176   0.010  0.3243  0.0972  0.3734
 1273TIP3    H225379   2.091   0.276   0.021 -1.1255 -0.9958 -3.1630
 1274TIP3   OH225380   4.549   3.921   1.551 -0.2592  0.0188  0.1417
 1274TIP3    H125381   4.580   3.908   1.461 -0.3304 -0.1330  0.1389
 1274TIP3    H225382   4.579   4.009   1.574 -0.6191  0.2299 -0.1832
 1275TIP3   OH225383   2.953   0.204   2.494 -0.1978  0.4193 -0.4989
 1275TIP3    H125384   2.874   0.231   2.541 -0.7780  0.7885 -1.6406
 1275TIP3    H225385   3.006   0.158   2.559 -0.6330  1.5467  0.7012
 1276TIP3   OH225386   6.283   1.579   0.709 -0.0231 -0.2568  0.2253
 1276TIP3    H125387   6.343   1.598   0.637  1.4254 -1.0465  1.1903
 1276TIP3    H225388   6.303   1.646   0.775  0.0493 -0.7377  0.6943
 1277TIP3   OH225389   0.265   0.869   1.113  0.0091  0.8511  0.0558
 1277TIP3    H125390   0.361   0.860   1.115  0.0140  0.2659 -1.5872
 1277TIP3    H225391   0.250   0.962   1.124  0.9088  1.2743 -1.8871
 1278TIP3   OH225392   4.322   2.126   8.492  0.6181 -0.1352 -0.3132
 1278TIP3    H125393   4.244   2.073   8.480  0.0482  0.6624 -0.2307
 1278TIP3    H225394   4.394   2.063   8.497 -0.0302 -0.8849 -0.2795
 1279TIP3   OH225395   4.223   1.241   1.050  0.2194 -0.3557  0.1104
 1279TIP3    H125396   4.246   1.333   1.052  3.3600 -1.0370  0.1319
 1279TIP3    H225397   4.304   1.195   1.074 -0.8012 -3.1728 -1.3484
 1280TIP3   OH225398   6.595   4.163   7.507 -0.0412  0.2049 -0.0151
 1280TIP3    H125399   6.689   4.154   7.522 -0.2979  0.2135  1.7906
 1280TIP3    H225400   6.577   4.104   7.433  1.5823  1.2729 -1.3396
 1281TIP3   OH225401   2.713   1.305   7.737  0.2263  0.3908 -0.1557
 1281TIP3    H125402   2.803   1.336   7.738 -0.4029  2.3484  0.1440
 1281TIP3    H225403   2.677   1.339   7.655 -0.1163 -0.8100 -0.5213
 1282TIP3   OH225404   3.674   0.493   2.253 -0.3187  0.6891 -0.5406
 1282TIP3    H125405   3.749   0.549   2.271  0.7755 -0.4528 -1.3708
 1282TIP3    H225406   3.627   0.488   2.336  1.9333 -0.5817  0.7672
 1283TIP3   OH225407   6.190   6.459   1.405  0.1979 -0.2962 -0.2701
 1283TIP3    H125408   6.212   6.367   1.421  1.8630  0.0190 -0.5677
 1283TIP3    H225409   6.158   6.460   1.315 -3.1491 -1.0613  0.7453
 1284TIP3   OH225410   6.556   0.750   6.867  0.3260  0.0027  0.5113
 1284TIP3    H125411   6.523   0.670   6.825  0.9196  0.8845 -1.7783
 1284TIP3    H225412   6.650   0.747   6.851  0.4772  0.7276  1.2345
 1285TIP3   OH225413   3.881   0.761   1.206  0.6083  0.5162 -0.0799
 1285TIP3    H125414   3.938   0.769   1.283  1.2842  1.5173 -0.6593
 1285TIP3    H225415   3.802   0.719   1.239  1.5072 -0.5312  0.8354
 1286TIP3   OH225416   4.500   2.747   1.544  0.0718 -0.3707 -0.2502
 1286TIP3    H125417   4.533   2.826   1.502  1.1981 -1.0203 -0.6073
 1286TIP3    H225418   4.515   2.762   1.637 -0.6980  0.2670 -0.2115
 1287TIP3   OH225419   1.774   0.619   8.806  0.1201  0.4073 -0.0775
 1287TIP3    H125420   1.744   0.539   8.762  0.9341  0.2977 -0.4438
 1287TIP3    H225421   1.833   0.661   8.743  0.5544  0.7417  0.5377
 1288TIP3   OH225422   5.790   0.201   6.768 -0.0978 -0.5249  0.2059
 1288TIP3    H125423   5.869   0.156   6.797  0.8007 -0.6240 -2.1271
 1288TIP3    H225424   5.726   0.130   6.753  0.3993 -0.7894 -0.7771
 1289TIP3   OH225425   5.533   1.161   0.920 -0.2991  0.2554  0.4720
 1289TIP3    H125426   5.621   1.192   0.942 -0.3818 -0.3038  1.7053
 1289TIP3    H225427   5.477   1.196   0.989 -0.5946 -1.5061  1.1752
 1290TIP3   OH225428   0.675   1.831   1.056 -0.0046  1.1631 -0.4492
 1290TIP3    H125429   0.676   1.791   1.142  0.5101 -0.3992 -1.1484
 1290TIP3    H225430   0.743   1.899   1.060 -0.9995  2.1323  0.7972
 1291TIP3   OH225431   0.141   3.627   8.698  0.7924  0.5785 -0.0826
 1291TIP3    H125432   0.129   3.692   8.629 -0.4493  0.5921  0.1310
 1291TIP3    H225433   0.102   3.667   8.776 -1.0127 -0.8530 -0.2055
 1292TIP3   OH225434   2.588   3.641   7.843  0.0571 -0.0053 -0.5629
 1292TIP3    H125435   2.646   3.685   7.781  2.2340  1.1872  2.1215
 1292TIP3    H225436   2.617   3.550   7.844  0.8889  0.2572 -0.3563
 1293TIP3   OH225437   4.179   1.961   0.621  0.1563 -0.0047  0.1165
 1293TIP3    H125438   4.151   1.991   0.535  2.2959  1.9023 -0.0415
 1293TIP3    H225439   4.115   1.998   0.682 -0.9912 -0.7954 -0.5910
 1294TIP3   OH225440   0.742   5.351   1.422  0.6230  0.2130  0.1384
 1294TIP3    H125441   0.658   5.323   1.385  1.1474 -0.5326 -0.5357
 1294TIP3    H225442   0.788   5.392   1.349  0.6388  1.0916  0.6376
 1295TIP3   OH225443   6.618   1.866   1.520 -0.1559  0.3379  0.1304
 1295TIP3    H125444   6.628   1.921   1.598 -0.0681 -0.8636  0.9952
 1295TIP3    H225445   6.524   1.855   1.509 -0.1381 -0.9925  1.1739
 1296TIP3   OH225446   6.414   0.382   1.884  0.1632  0.2493  0.2204
 1296TIP3    H125447   6.337   0.383   1.828 -0.6085  0.4153  1.2519
 1296TIP3    H225448   6.437   0.289   1.890 -1.2386 -0.0574  1.5682
 1297TIP3   OH225449   4.307   4.636   7.354 -0.6620 -0.0710 -0.7351
 1297TIP3    H125450   4.290   4.592   7.270  0.3462 -0.1392 -0.9254
 1297TIP3    H225451   4.233   4.614   7.409 -1.5356  0.2905 -1.7388
 1298TIP3   OH225452   1.265   2.046   8.689  0.3651  0.0798  0.1533
 1298TIP3    H125453   1.285   2.135   8.719 -0.0530 -0.1035  1.0209
 1298TIP3    H225454   1.279   1.991   8.766 -1.9214 -0.2602  0.3992
 1299TIP3   OH225455   5.956   1.922   8.344  0.4343 -0.1226 -0.6527
 1299TIP3    H125456   5.877   1.902   8.294 -1.0144 -1.4050  1.9852
 1299TIP3    H225457   5.937   2.006   8.387  0.2905 -0.6463  0.3348
 1300TIP3   OH225458   6.388   1.638   8.942  0.0226  0.1917  0.4861
 1300TIP3    H125459   6.480   1.612   8.953  0.0517  0.3599  0.6419
 1300TIP3    H225460   6.351   1.635   9.031 -0.6667 -1.8946  0.1760
 1301TIP3   OH225461   4.853   5.196   0.117 -0.3430 -0.4864  0.2880
 1301TIP3    H125462   4.879   5.105   0.101  2.3679  0.7517 -4.2309
 1301TIP3    H225463   4.930   5.238   0.153 -1.8070  0.0689  3.0750
 1302TIP3   OH225464   1.152   1.682   8.393  0.0324  0.1354 -0.2898
 1302TIP3    H125465   1.238   1.642   8.380  0.0132  0.2191 -0.6940
 1302TIP3    H225466   1.107   1.670   8.309  0.9091  3.1675 -1.3269
 1303TIP3   OH225467   5.150   2.387   8.017 -0.0121 -0.0476  0.3411
 1303TIP3    H125468   5.065   2.416   8.048  0.0873  0.5240  0.0841
 1303TIP3    H225469   5.203   2.466   8.012 -0.3522  0.1021 -2.3355
 1304TIP3   OH225470   4.976   6.451   0.472  0.4626 -0.1973 -0.6254
 1304TIP3    H125471   4.972   6.369   0.521 -0.1844  0.2080  0.0126
 1304TIP3    H225472   4.973   6.519   0.539  2.3271  0.3618 -1.0536
 1305TIP3   OH225473   3.122   5.083   1.285 -1.0864 -0.8316 -0.1189
 1305TIP3    H125474   3.078   5.005   1.250 -0.9977 -1.5361  1.2921
 1305TIP3    H225475   3.108   5.079   1.379  1.3021 -0.6701  0.3201
 1306TIP3   OH225476   3.482   2.554   7.479 -0.3477  0.4567 -0.5220
 1306TIP3    H125477   3.475   2.567   7.574 -1.7285  0.8608 -0.6603
 1306TIP3    H225478   3.574   2.528   7.465  0.1658  1.4585  0.7914
 1307TIP3   OH225479   6.299   3.067   0.174  0.2290  0.1875 -0.3415
 1307TIP3    H125480   6.328   2.980   0.200 -1.3397 -0.5096 -0.8141
 1307TIP3    H225481   6.272   3.109   0.256 -0.4443 -0.3382 -0.2889
 1308TIP3   OH225482   3.207   6.319   8.899 -0.1640 -0.5016 -0.6253
 1308TIP3    H125483   3.133   6.360   8.943  0.7003  0.0200  0.3521
 1308TIP3    H225484   3.166   6.269   8.828 -1.3522  0.7874 -0.8983
 1309TIP3   OH225485   2.744   2.822   0.737  0.0046  0.2745 -0.4786
 1309TIP3    H125486   2.790   2.807   0.655 -0.5467  1.0558 -0.9445
 1309TIP3    H225487   2.661   2.775   0.727  0.2104 -0.1802 -0.0971
 1310TIP3   OH225488   6.375   5.966   8.400 -1.0620 -0.2842  0.2797
 1310TIP3    H125489   6.344   6.045   8.357  0.1552 -0.4294 -0.9122
 1310TIP3    H225490   6.359   5.981   8.493 -0.8378  1.3561  0.0717
 1311TIP3   OH225491   5.835   2.279   1.568 -0.4566 -0.5174 -0.3175
 1311TIP3    H125492   5.825   2.248   1.658 -3.2023 -1.3859 -0.8373
 1311TIP3    H225493   5.879   2.208   1.522  0.5798 -0.2365  0.2016
 1312TIP3   OH225494   6.450   0.263   8.854 -0.3269 -0.1648  0.1736
 1312TIP3    H125495   6.398   0.242   8.776 -2.5709  0.7984  1.2987
 1312TIP3    H225496   6.404   0.221   8.926 -0.6626  2.2025  1.4626
 1313TIP3   OH225497   4.463   2.633   2.534  0.0556  0.0630  0.9524
 1313TIP3    H125498   4.464   2.537   2.535 -0.2127  0.0520  0.5072
 1313TIP3    H225499   4.548   2.658   2.571 -0.0212 -0.3405  1.4093
 1314TIP3   OH225500   0.086   5.306   0.799 -0.2769 -0.6354  0.2077
 1314TIP3    H125501   0.172   5.310   0.758 -0.9715 -1.1182 -1.3431
 1314TIP3    H225502   0.033   5.368   0.750 -1.1391 -1.2475  0.3422
 1315TIP3   OH225503   4.879   5.910   7.905  0.0567  0.4673 -0.0811
 1315TIP3    H125504   4.813   5.970   7.870 -0.4284 -0.0846 -0.1307
 1315TIP3    H225505   4.883   5.838   7.842  0.1411  0.1170  0.3118
 1316TIP3   OH225506   2.850   4.299   8.148  0.1578 -0.1284  0.0021
 1316TIP3    H125507   2.842   4.367   8.215  0.0511 -2.4289  2.4466
 1316TIP3    H225508   2.771   4.247   8.156  1.0746 -1.6557 -0.5223
 1317TIP3   OH225509   1.329   3.980   7.498 -0.2857  0.0763  0.2696
 1317TIP3    H125510   1.367   4.066   7.513 -0.1315  0.0955 -0.2094
 1317TIP3    H225511   1.369   3.924   7.565  1.1300 -0.0581 -0.6455
 1318TIP3   OH225512   5.949   6.506   0.632 -0.2492 -0.1174  0.1368
 1318TIP3    H125513   6.017   6.440   0.641 -0.7918 -0.4771  1.8246
 1318TIP3    H225514   5.950   6.529   0.539  2.3010  0.0320  0.1275
 1319TIP3   OH225515   3.241   2.724   1.038  0.0110 -0.2315  0.8683
 1319TIP3    H125516   3.214   2.750   1.126 -0.2808 -0.2968  0.7998
 1319TIP3    H225517   3.290   2.800   1.004 -1.1528  0.3971  0.5296
 1320TIP3   OH225518   0.738   1.837   1.718 -0.2588 -0.4957 -0.1590
 1320TIP3    H125519   0.721   1.745   1.700  0.0078 -0.5168 -0.3151
 1320TIP3    H225520   0.756   1.876   1.632 -0.9574 -0.1709 -0.1609
 1321TIP3   OH225521   2.541   4.793   1.386  0.4318  0.7902  0.1309
 1321TIP3    H125522   2.558   4.885   1.370 -0.4596  1.1870  1.3242
 1321TIP3    H225523   2.497   4.762   1.307  0.1886  1.5326 -0.0290
 1322TIP3   OH225524   2.714   2.573   0.003  0.1368  0.2355  0.4565
 1322TIP3    H125525   2.733   2.666  -0.010  2.0486 -0.2291 -0.5216
 1322TIP3    H225526   2.789   2.540   0.053  0.5504 -1.1504 -0.9899
 1323TIP3   OH225527   6.140   3.452   0.377 -0.6339  0.1109 -0.1351
 1323TIP3    H125528   6.133   3.528   0.320  0.8499  0.0988 -0.3591
 1323TIP3    H225529   6.136   3.488   0.466  1.1802  0.6182 -0.2167
 1324TIP3   OH225530   0.310   0.200   0.996 -0.0991 -0.2008 -0.0050
 1324TIP3    H125531   0.303   0.163   1.084 -0.0518 -2.6589 -0.9328
 1324TIP3    H225532   0.396   0.173   0.965 -1.0337 -1.5675 -1.6281
 1325TIP3   OH225533   0.592   5.712   1.741  0.2781  0.4638  0.3694
 1325TIP3    H125534   0.504   5.689   1.770  0.1936  1.1407  0.6912
 1325TIP3    H225535   0.605   5.801   1.776  1.3521  0.0961  0.9275
 1326TIP3   OH225536   3.220   1.425   0.721  0.5798  0.1880  0.0763
 1326TIP3    H125537   3.255   1.352   0.670 -0.4653 -0.9319  0.9073
 1326TIP3    H225538   3.254   1.410   0.809 -0.4384  0.1288  0.4727
 1327TIP3   OH225539   6.412   6.103   0.267  0.1181 -0.1361  0.0249
 1327TIP3    H125540   6.507   6.100   0.267  0.1242  0.0530  0.3460
 1327TIP3    H225541   6.387   6.091   0.359 -0.1265  0.8866  0.1038
 1328TIP3   OH225542   4.400   6.654   0.049 -0.7378  0.6107 -0.7691
 1328TIP3    H125543   4.451   6.732   0.028 -0.9789  1.4580  1.5366
 1328TIP3    H225544   4.310   6.685   0.056 -0.8701  0.0807 -0.0391
 1329TIP3   OH225545   6.285   6.031   7.593  0.0927 -0.6002 -0.4618
 1329TIP3    H125546   6.304   5.969   7.663 -0.2893 -1.2019 -0.8742
 1329TIP3    H225547   6.222   5.984   7.537 -0.8428  0.4727 -0.3391
 1330TIP3   OH225548   0.522   0.872   0.635 -0.0740 -0.0693  0.3459
 1330TIP3    H125549   0.539   0.932   0.708 -1.8906  1.9575 -0.7768
 1330TIP3    H225550   0.480   0.796   0.676 -1.3951  1.1749  1.4230
 1331TIP3   OH225551   2.959   2.391   7.858  0.1087 -0.3667 -0.0564
 1331TIP3    H125552   2.933   2.358   7.772 -1.6045 -0.0948  0.3145
 1331TIP3    H225553   3.050   2.363   7.868 -0.0924 -1.6280 -1.3608
 1332TIP3   OH225554   1.994   5.439   7.799 -0.2969  0.1664  0.1577
 1332TIP3    H125555   1.946   5.366   7.762  3.8218 -2.3271 -0.9927
 1332TIP3    H225556   1.991   5.507   7.731 -0.9117 -0.5101 -0.5048
 1333TIP3   OH225557   3.592   4.277   8.778  0.1695 -0.6011 -0.0429
 1333TIP3    H125558   3.581   4.359   8.729 -2.0640 -0.3524  0.7646
 1333TIP3    H225559   3.643   4.302   8.855  1.1816 -0.3946 -0.7644
 1334TIP3   OH225560   3.568   1.771   8.356 -0.4020 -0.1715 -0.2096
 1334TIP3    H125561   3.515   1.752   8.433 -0.9071  1.8827 -0.0197
 1334TIP3    H225562   3.506   1.798   8.289  0.2357  0.2409 -0.6488
 1335TIP3   OH225563   3.867   6.083   8.136  0.3428 -0.4859  0.3481
 1335TIP3    H125564   3.811   6.076   8.059 -0.4405 -0.5867  0.9158
 1335TIP3    H225565   3.955   6.067   8.103  0.2055  0.8344 -0.7807
 1336TIP3   OH225566   1.227   4.907   0.627  0.2330 -0.0613 -0.9275
 1336TIP3    H125567   1.148   4.886   0.677  0.8877 -0.0961  0.1154
 1336TIP3    H225568   1.194   4.939   0.543 -0.9735  1.9897  0.2307
 1337TIP3   OH225569   6.702   5.408   8.673  0.0487 -0.1592  0.6802
 1337TIP3    H125570   6.656   5.331   8.641  1.1630 -1.3014  1.7203
 1337TIP3    H225571   6.743   5.379   8.755  2.0305  0.9921  0.1597
 1338TIP3   OH225572   0.850   6.311   8.236 -0.2772  0.7990  0.5345
 1338TIP3    H125573   0.824   6.315   8.328  1.7320  2.2239  1.1021
 1338TIP3    H225574   0.862   6.218   8.219 -1.1691  0.4706  1.5413
 1339TIP3   OH225575   5.451   4.635   7.197 -0.7790  0.2132  0.4411
 1339TIP3    H125576   5.495   4.692   7.134  1.5037 -1.5464  0.3494
 1339TIP3    H225577   5.380   4.594   7.147 -1.3504  1.5961  0.0634
 1340TIP3   OH225578   4.594   3.326   1.668  0.3286 -0.6296 -0.2530
 1340TIP3    H125579   4.563   3.240   1.641  1.4122 -0.9770 -0.4465
 1340TIP3    H225580   4.679   3.336   1.624 -0.1005  0.8388 -0.8158
 1341TIP3   OH225581   4.655   1.615   2.327 -0.6609 -0.2169  0.2171
 1341TIP3    H125582   4.598   1.601   2.402 -0.3826 -0.2563  0.4242
 1341TIP3    H225583   4.629   1.700   2.292 -1.1121 -0.4106  0.0667
 1342TIP3   OH225584   5.711   3.704   7.724 -0.5576  0.2617  0.3760
 1342TIP3    H125585   5.717   3.734   7.633  0.4430  0.6932  0.5637
 1342TIP3    H225586   5.776   3.757   7.770 -0.2956 -0.7088  1.1435
 1343TIP3   OH225587   4.313   5.049   2.776 -0.4588 -0.0052 -0.1113
 1343TIP3    H125588   4.369   5.124   2.794 -0.8072 -0.2188  2.1374
 1343TIP3    H225589   4.373   4.982   2.743  0.0906  0.7789 -0.7407
 1344TIP3   OH225590   5.429   6.477   0.595 -0.0273 -0.2883  0.4187
 1344TIP3    H125591   5.491   6.439   0.657 -1.6394 -2.7641  0.6674
 1344TIP3    H225592   5.470   6.465   0.509  0.6606 -0.1081  0.7130
 1345TIP3   OH225593   3.673   5.669   2.393 -0.0882 -0.5854 -0.1106
 1345TIP3    H125594   3.733   5.595   2.399  0.8968  0.2648  1.0774
 1345TIP3    H225595   3.728   5.746   2.406 -1.3812  0.2496  0.7019
 1346TIP3   OH225596   4.707   5.350   7.611  0.5830 -0.5701 -0.4642
 1346TIP3    H125597   4.761   5.299   7.672 -0.5135 -1.6155 -0.3492
 1346TIP3    H225598   4.656   5.409   7.667  2.6050  1.5038 -0.6456
 1347TIP3   OH225599   1.069   2.520   2.034 -0.0498 -0.1072  0.1365
 1347TIP3    H125600   0.998   2.583   2.021  1.3880  1.5176 -0.1614
 1347TIP3    H225601   1.025   2.440   2.063 -1.9206  1.1274  0.8812
 1348TIP3   OH225602   2.156   1.187   8.569  0.0741 -0.0364 -0.1876
 1348TIP3    H125603   2.202   1.264   8.538 -1.6238  1.0084 -0.2135
 1348TIP3    H225604   2.185   1.116   8.511  2.0116  0.4438  0.1444
 1349TIP3   OH225605   6.752   6.681   0.436 -0.3330  0.4601  0.3289
 1349TIP3    H125606   6.824   6.697   0.496  0.3443  0.4418 -0.4548
 1349TIP3    H225607   6.756   6.587   0.417  0.8220  0.8020 -1.3820
 1350TIP3   OH225608   5.173   1.667   0.818  0.3937  0.0883 -0.5326
 1350TIP3    H125609   5.192   1.574   0.826 -0.4797 -0.4063 -3.3859
 1350TIP3    H225610   5.235   1.699   0.752 -0.8657  0.9901 -1.3221
 1351TIP3   OH225611   3.903   2.592   2.850 -0.0899  0.2726  0.3489
 1351TIP3    H125612   3.933   2.521   2.793 -0.4698  0.1462  0.3087
 1351TIP3    H225613   3.928   2.672   2.803 -1.7805  0.1921 -0.7582
 1352TIP3   OH225614   0.745   0.443   0.087  0.1860  0.3858 -0.3802
 1352TIP3    H125615   0.784   0.386   0.152  2.2596  1.8425 -0.2504
 1352TIP3    H225616   0.818   0.495   0.053 -0.6347 -0.6095 -4.2590
 1353TIP3   OH225617   1.495   2.238   7.844  0.3936 -0.2045  0.3987
 1353TIP3    H125618   1.550   2.177   7.893 -1.1031 -1.6297  0.4098
 1353TIP3    H225619   1.424   2.259   7.904  1.2092  2.1222  0.6242
 1354TIP3   OH225620   3.277   6.402   1.528 -0.1964 -0.3248  0.1618
 1354TIP3    H125621   3.240   6.447   1.604 -0.7195  0.7302 -0.6844
 1354TIP3    H225622   3.369   6.430   1.527 -0.1797 -0.3697  0.4250
 1355TIP3   OH225623   0.014   1.963   8.472 -0.1541  0.1007  0.1138
 1355TIP3    H125624   0.015   1.897   8.403 -0.8442  0.7150 -0.4977
 1355TIP3    H225625  -0.077   1.991   8.478 -0.0533  0.2604  1.0898
 1356TIP3   OH225626   4.210   6.519   7.143  0.0962 -0.2907  0.2631
 1356TIP3    H125627   4.269   6.524   7.218 -1.8344  0.6411  1.8072
 1356TIP3    H225628   4.242   6.585   7.082  1.2083 -0.4950  0.6051
 1357TIP3   OH225629   5.946   3.363   8.521 -0.3782 -0.7647 -0.2989
 1357TIP3    H125630   5.963   3.326   8.608 -0.3010  1.9571  0.9311
 1357TIP3    H225631   6.021   3.336   8.469  1.5376  0.6219  1.5750
 1358TIP3   OH225632   6.690   3.800   1.094  0.0375  0.6741 -0.1223
 1358TIP3    H125633   6.750   3.786   1.167  0.3678  1.4263 -0.2471
 1358TIP3    H225634   6.703   3.891   1.069  0.2035  0.3224 -1.3796
 1359TIP3   OH225635   5.616   0.440   1.697  0.2096  0.1470 -0.3286
 1359TIP3    H125636   5.632   0.528   1.729 -0.5268  0.1290  0.1126
 1359TIP3    H225637   5.648   0.383   1.767  1.9172  0.0085 -1.1660
 1360TIP3   OH225638   5.943   5.420   2.528  0.5684  0.7796  0.5777
 1360TIP3    H125639   5.895   5.377   2.599  0.5830  0.9484  0.6909
 1360TIP3    H225640   5.993   5.489   2.572  0.6697  0.8075  0.4183
 1361TIP3   OH225641   4.641   1.833   7.072 -0.2122  0.2763 -0.7797
 1361TIP3    H125642   4.592   1.901   7.024  0.9286  0.9019 -1.0849
 1361TIP3    H225643   4.709   1.806   7.011  0.6495  0.3738  0.1285
 1362TIP3   OH225644   6.336   4.028   2.219  0.2337  0.7443  0.1820
 1362TIP3    H125645   6.431   4.031   2.231  0.2759  1.5896 -0.3041
 1362TIP3    H225646   6.320   4.080   2.141 -0.3199 -2.1493 -1.8013
 1363TIP3   OH225647   0.989   2.088   8.291  0.3343  0.3306  0.3774
 1363TIP3    H125648   0.897   2.097   8.317  0.6830  0.1708  1.7397
 1363TIP3    H225649   1.023   2.018   8.346  1.4112  0.7550  0.2858
 1364TIP3   OH225650   6.411   0.002   7.217 -0.0500  0.1581 -0.1525
 1364TIP3    H125651   6.420  -0.035   7.129  0.0923 -2.9825  1.0281
 1364TIP3    H225652   6.355  -0.061   7.263  1.5806  0.5616  2.5719
 1365TIP3   OH225653   5.122   5.757   8.268  0.4282 -0.2267 -0.1088
 1365TIP3    H125654   5.080   5.826   8.217 -0.8997  0.8346  2.2536
 1365TIP3    H225655   5.060   5.738   8.339  2.0452 -1.7962  0.9845
 1366TIP3   OH225656   2.188   0.294   8.069 -0.3695  0.2454  0.2903
 1366TIP3    H125657   2.264   0.310   8.013 -0.3326 -1.5047 -0.2067
 1366TIP3    H225658   2.215   0.222   8.126 -1.4928 -0.0792  0.4368
 1367TIP3   OH225659   4.038   3.793   1.024  0.0071 -1.0088 -0.0331
 1367TIP3    H125660   3.955   3.750   1.042  0.7136 -1.4698  2.4301
 1367TIP3    H225661   4.015   3.884   1.006 -1.1767 -1.5886 -1.6610
 1368TIP3   OH225662   3.484   4.894   8.088 -0.1486  0.0438 -0.1114
 1368TIP3    H125663   3.466   4.843   8.167 -0.4592 -0.2601 -0.3791
 1368TIP3    H225664   3.570   4.865   8.059 -1.0250 -1.5845 -1.2260
 1369TIP3   OH225665   4.245   3.027   0.655  0.4315  0.0529  0.1076
 1369TIP3    H125666   4.217   2.936   0.665  0.3158  0.2969  2.6244
 1369TIP3    H225667   4.204   3.073   0.729  0.8368  2.0757 -0.8574
 1370TIP3   OH225668   3.098   1.684   0.704  0.0458  0.2072  0.3591
 1370TIP3    H125669   3.077   1.719   0.790  1.7054 -1.1646  1.3897
 1370TIP3    H225670   3.143   1.601   0.722 -2.0596 -1.5542 -1.8993
 1371TIP3   OH225671   1.279   4.834   8.297 -0.1049 -0.0438  0.6658
 1371TIP3    H125672   1.345   4.842   8.366 -0.5190  0.7766  0.9769
 1371TIP3    H225673   1.195   4.839   8.343 -0.3923 -0.8367  0.2459
 1372TIP3   OH225674   2.439   5.785   0.532  0.2167  0.4731 -0.4761
 1372TIP3    H125675   2.462   5.694   0.513  0.7654  0.1428  1.5539
 1372TIP3    H225676   2.344   5.783   0.547  0.3908 -0.0065  0.6681
 1373TIP3   OH225677   0.816   4.379   0.440  0.2323 -0.0107  0.3016
 1373TIP3    H125678   0.902   4.404   0.406 -0.9898  1.9638 -1.6157
 1373TIP3    H225679   0.824   4.389   0.535  2.0000  0.4241  0.1466
 1374TIP3   OH225680   4.266   4.257   1.886  0.3845  0.6328 -0.5476
 1374TIP3    H125681   4.177   4.224   1.895  0.4466  0.6182  0.0583
 1374TIP3    H225682   4.257   4.338   1.836 -0.2302  1.7457  1.2475
 1375TIP3   OH225683   2.119   0.247   7.815  0.1869  0.1458 -0.8068
 1375TIP3    H125684   2.118   0.263   7.909 -0.2782 -0.2393 -0.7439
 1375TIP3    H225685   2.209   0.218   7.796 -0.0300 -0.9136 -0.2847
 1376TIP3   OH225686   2.535   1.673   6.928  0.5155  0.1065  0.1380
 1376TIP3    H125687   2.592   1.652   7.002  1.7713  1.5819 -0.3789
 1376TIP3    H225688   2.594   1.695   6.857 -0.5092  4.7458  0.4102
 1377TIP3   OH225689   3.350   3.385   0.898  0.3503 -0.2499  0.1666
 1377TIP3    H125690   3.269   3.423   0.931  0.7852  0.3806  0.5154
 1377TIP3    H225691   3.375   3.322   0.965 -0.9270 -1.9917 -0.8917
 1378TIP3   OH225692   3.126   0.126   8.511  1.0764  0.1578  0.1053
 1378TIP3    H125693   3.058   0.181   8.473 -0.2545 -0.8533  0.9764
 1378TIP3    H225694   3.196   0.188   8.534 -0.2504  1.4549  0.7824
 1379TIP3   OH225695   5.305   5.210   8.341  0.5124 -0.0878  0.2492
 1379TIP3    H125696   5.364   5.142   8.376  0.6271  0.0564  0.3412
 1379TIP3    H225697   5.349   5.292   8.364 -1.6297  0.2471  4.0135
 1380TIP3   OH225698   3.257   2.525   8.105 -0.1346  0.5537 -0.2006
 1380TIP3    H125699   3.308   2.542   8.026  0.3839  1.9601  0.3902
 1380TIP3    H225700   3.310   2.563   8.175  0.1013 -1.9056  1.0379
 1381TIP3   OH225701   4.263   6.152   7.542 -0.3072  0.3454  0.2791
 1381TIP3    H125702   4.293   6.097   7.614 -0.2593  0.1920  0.1415
 1381TIP3    H225703   4.317   6.126   7.467 -0.0970  0.7671  0.2828
 1382TIP3   OH225704   5.933   1.208   0.411 -0.0141 -0.7960  0.6939
 1382TIP3    H125705   5.898   1.291   0.379  0.3129 -0.2785  1.6516
 1382TIP3    H225706   6.022   1.204   0.376  0.1131 -0.5452  0.9887
 1383TIP3   OH225707   4.396   4.503   8.851 -0.2860 -0.7282 -0.1957
 1383TIP3    H125708   4.359   4.463   8.929 -0.7910 -0.7581 -0.4493
 1383TIP3    H225709   4.352   4.460   8.778 -0.2964 -0.2416 -0.4842
 1384TIP3   OH225710   3.114   5.131   2.302  0.4077  0.1703 -0.0042
 1384TIP3    H125711   3.137   5.089   2.385  1.3893  1.1938  0.2647
 1384TIP3    H225712   3.029   5.170   2.318 -0.1986 -1.0920 -0.0389
 1385TIP3   OH225713   6.627   5.110   8.618 -0.3661 -0.1099  0.9045
 1385TIP3    H125714   6.698   5.067   8.571 -0.9037 -1.4075  1.2202
 1385TIP3    H225715   6.578   5.158   8.551 -0.0499 -0.4209  0.4467
 1386TIP3   OH225716   2.064   0.699   0.308 -0.4278 -0.2151  0.8166
 1386TIP3    H125717   2.040   0.760   0.238 -0.0985  0.9830  1.7113
 1386TIP3    H225718   1.982   0.654   0.331 -0.4894 -0.8018 -0.4759
 1387TIP3   OH225719   4.598   2.351   2.789  0.1962 -0.0071 -0.4652
 1387TIP3    H125720   4.673   2.292   2.799 -0.9407 -1.1963  1.5689
 1387TIP3    H225721   4.524   2.293   2.769 -0.8501  0.7151  1.1007
 1388TIP3   OH225722   0.378   2.796   2.083 -0.4784  0.3725 -0.1791
 1388TIP3    H125723   0.292   2.785   2.124 -0.9242  0.1165 -1.1432
 1388TIP3    H225724   0.416   2.873   2.125 -1.0262  0.2730  0.5110
 1389TIP3   OH225725   2.884   2.521   1.048  0.0952 -0.6661  0.0009
 1389TIP3    H125726   2.898   2.583   1.119 -0.8416 -0.9342  0.4365
 1389TIP3    H225727   2.812   2.558   0.997  2.3288  0.8067 -2.3195
 1390TIP3   OH225728   5.151   3.316   8.279  0.0230 -0.4466 -0.3298
 1390TIP3    H125729   5.099   3.348   8.205  1.9633  1.4330 -0.9651
 1390TIP3    H225730   5.241   3.314   8.247  0.9917  0.7848  2.0514
 1391TIP3   OH225731   5.365   0.869   2.531  0.6571  0.0429 -0.2940
 1391TIP3    H125732   5.303   0.821   2.477  0.4111  0.2531 -0.2070
 1391TIP3    H225733   5.365   0.958   2.494  0.2510  0.2708  0.2302
 1392TIP3   OH225734   2.857   0.584   8.837 -0.2879 -0.5041 -0.0901
 1392TIP3    H125735   2.887   0.666   8.800 -1.9793  1.0733  1.7918
 1392TIP3    H225736   2.922   0.563   8.904 -1.2580  0.8923  1.3752
 1393TIP3   OH225737   0.015   0.573   0.909 -0.3759  0.1242  0.6605
 1393TIP3    H125738   0.107   0.556   0.889 -0.2511 -0.2460  1.5421
 1393TIP3    H225739   0.006   0.668   0.899 -0.6422 -0.1197 -2.4356
 1394TIP3   OH225740   3.486   4.451   2.425 -0.1166  0.4615  0.5638
 1394TIP3    H125741   3.533   4.516   2.478 -0.4240  0.2300  1.1132
 1394TIP3    H225742   3.532   4.369   2.441  0.6491  0.6378 -0.5971
 1395TIP3   OH225743   5.505   6.604   1.466  0.1371  0.2345  0.0395
 1395TIP3    H125744   5.587   6.568   1.502 -0.2387 -0.7848 -0.1106
 1395TIP3    H225745   5.523   6.614   1.373 -0.0717 -0.4802 -0.0841
 1396TIP3   OH225746   4.247   5.001   2.097 -0.3711  0.8699  0.0319
 1396TIP3    H125747   4.201   4.958   2.169  1.5732 -0.1669  0.7327
 1396TIP3    H225748   4.182   5.006   2.027 -2.0524  1.1200  1.5354
 1397TIP3   OH225749   1.105   3.417   2.401  0.6385 -0.0678 -0.0767
 1397TIP3    H125750   1.163   3.396   2.474  3.0629  1.9298 -1.2826
 1397TIP3    H225751   1.161   3.413   2.324 -0.8599  1.8465 -1.3522
 1398TIP3   OH225752   5.231   4.669   6.998 -0.0171 -0.3712  0.5450
 1398TIP3    H125753   5.262   4.737   7.058  0.5442 -1.0659  1.0575
 1398TIP3    H225754   5.160   4.625   7.045 -1.4300  0.8194 -0.3852
 1399TIP3   OH225755   5.023   4.763   1.085  0.0482  0.8585 -0.0055
 1399TIP3    H125756   5.076   4.803   1.154 -0.3105 -0.7546  1.2523
 1399TIP3    H225757   5.063   4.678   1.069 -1.2252  0.2544 -0.1325
 1400TIP3   OH225758   3.256   2.670   1.760 -0.5028 -0.3109 -0.6700
 1400TIP3    H125759   3.197   2.744   1.741  1.3305  1.3022 -0.3055
 1400TIP3    H225760   3.277   2.679   1.852  2.8582  1.1710 -1.4471
 1401TIP3   OH225761   4.115   6.359   7.465  0.3095  0.7943 -0.2830
 1401TIP3    H125762   4.117   6.328   7.375  0.2803 -1.4255  0.4347
 1401TIP3    H225763   4.184   6.309   7.509 -0.8790  0.4850  1.3173
 1402TIP3   OH225764   3.634   5.887   0.701 -0.7669  0.0578  0.3148
 1402TIP3    H125765   3.573   5.869   0.629 -0.5806 -4.9501  1.0544
 1402TIP3    H225766   3.587   5.858   0.779  0.0701  2.8067  1.9728
 1403TIP3   OH225767   3.499   5.758   8.612  0.1647 -0.0571  0.2570
 1403TIP3    H125768   3.429   5.695   8.630  1.3330 -1.0407  1.6535
 1403TIP3    H225769   3.520   5.796   8.698  1.2198  0.3157 -0.1461
 1404TIP3   OH225770   3.575   1.394   0.547  0.2087  0.2282 -0.2860
 1404TIP3    H125771   3.658   1.351   0.565  0.0529 -1.0396 -2.2643
 1404TIP3    H225772   3.509   1.336   0.585  0.1000 -0.3737 -1.3501
 1405TIP3   OH225773   0.648   5.953   1.836 -0.4971 -0.2151  0.4752
 1405TIP3    H125774   0.661   5.999   1.919  0.4138 -0.2453  0.3648
 1405TIP3    H225775   0.642   6.023   1.771  0.6554 -0.2155  0.3383
 1406TIP3   OH225776   1.262   1.000   8.555 -0.3096  0.1182  0.1610
 1406TIP3    H125777   1.279   1.055   8.631  2.1193  0.6886 -0.6872
 1406TIP3    H225778   1.217   1.057   8.493  1.1149  0.8627 -0.2426
 1407TIP3   OH225779   3.933   3.757   0.460  0.3211  0.2749  0.0524
 1407TIP3    H125780   3.951   3.665   0.480  0.9394  0.9116  2.7867
 1407TIP3    H225781   3.838   3.762   0.456  0.2378 -0.2831  1.0781
 1408TIP3   OH225782   6.203   4.231   0.263 -0.0235 -0.3336  0.0544
 1408TIP3    H125783   6.287   4.186   0.254 -0.8485 -1.8145 -0.6788
 1408TIP3    H225784   6.177   4.216   0.354 -0.0251 -0.8832 -0.0317
 1409TIP3   OH225785   5.679   0.893   0.116 -0.8957  0.2624  0.1898
 1409TIP3    H125786   5.654   0.974   0.071 -1.9154  1.0736  2.1250
 1409TIP3    H225787   5.728   0.923   0.193  1.0368 -1.1029 -0.4398
 1410TIP3   OH225788   0.578   6.581   1.187  0.4590 -0.1425  0.2953
 1410TIP3    H125789   0.656   6.630   1.213 -1.1046  1.2883  2.6979
 1410TIP3    H225790   0.587   6.570   1.093  1.8785  3.1201 -0.0946
 1411TIP3   OH225791   5.903   3.559   1.678 -0.3560 -0.1701  0.5130
 1411TIP3    H125792   5.950   3.639   1.656  2.4447 -2.0886 -1.1946
 1411TIP3    H225793   5.949   3.524   1.754 -0.8617 -0.6816  0.5875
 1412TIP3   OH225794   3.701   2.546   8.310 -0.2724  0.2443 -0.4521
 1412TIP3    H125795   3.608   2.537   8.289 -0.2726  0.1215 -0.4012
 1412TIP3    H225796   3.741   2.576   8.229 -0.4236  0.7110 -0.3542
 1413TIP3   OH225797   5.028   1.321   7.432 -0.0716  0.1367  0.1556
 1413TIP3    H125798   4.964   1.392   7.439  0.1331  0.3397 -0.0045
 1413TIP3    H225799   4.980   1.250   7.390  0.1357  0.7132 -1.1091
 1414TIP3   OH225800   2.848   5.783   1.012  0.4133  0.0072  0.0409
 1414TIP3    H125801   2.937   5.758   1.039 -0.1188  0.7649  2.8225
 1414TIP3    H225802   2.857   5.873   0.980  0.8691 -0.4980 -1.3309
 1415TIP3   OH225803   4.295   1.830   7.677  0.1856 -0.1567 -0.7795
 1415TIP3    H125804   4.226   1.849   7.741  1.5711 -0.3771  0.8565
 1415TIP3    H225805   4.309   1.914   7.633  0.2104  0.3965  0.2449
 1416TIP3   OH225806   6.542   2.837   1.388 -0.1742 -0.1201 -0.2926
 1416TIP3    H125807   6.593   2.855   1.467 -0.3108 -1.1084  0.0285
 1416TIP3    H225808   6.522   2.743   1.392 -0.3162 -0.1572 -1.4200
 1417TIP3   OH225809   2.629   0.436   0.071  0.1145 -0.2289  0.0261
 1417TIP3    H125810   2.690   0.460   0.001  0.7768 -0.1951  0.6021
 1417TIP3    H225811   2.575   0.514   0.083  1.1407  0.4191  0.7191
 1418TIP3   OH225812   2.564   5.479   1.233  0.2753  0.1369  0.4349
 1418TIP3    H125813   2.618   5.477   1.154  0.8934 -1.0301  0.8611
 1418TIP3    H225814   2.509   5.557   1.223  1.4803  0.9094 -0.3750
 1419TIP3   OH225815   1.142   1.715   1.472  0.0037  0.4227 -0.3344
 1419TIP3    H125816   1.108   1.651   1.533 -0.8576 -0.0570 -1.3021
 1419TIP3    H225817   1.170   1.664   1.396 -0.2923  1.1376 -0.9385
 1420TIP3   OH225818   0.225   3.913   0.780  0.2429 -0.8467 -0.7406
 1420TIP3    H125819   0.265   3.885   0.697  4.3067 -0.2530  0.7469
 1420TIP3    H225820   0.241   4.008   0.782 -2.0464 -0.4256 -0.2910
 1421TIP3   OH225821   2.313   4.060   6.831 -0.1077  0.3404 -0.1124
 1421TIP3    H125822   2.245   3.999   6.803 -1.1355  0.9766  0.9021
 1421TIP3    H225823   2.358   4.015   6.903 -1.8262  1.2675  1.6504
 1422TIP3   OH225824   1.322   4.000   7.836 -0.5673  0.2606 -0.2481
 1422TIP3    H125825   1.287   4.058   7.904  0.9362 -0.0540  0.8526
 1422TIP3    H225826   1.347   4.058   7.765 -1.5513  0.6672 -0.2752
 1423TIP3   OH225827   2.649   4.877   0.809  0.4269 -0.0289  0.4617
 1423TIP3    H125828   2.738   4.843   0.815  0.8202  0.7348 -0.7928
 1423TIP3    H225829   2.648   4.929   0.729 -0.7639  1.1190  1.1856
 1424TIP3   OH225830   6.445   3.777   0.931  0.3148 -0.3577 -0.8512
 1424TIP3    H125831   6.506   3.791   1.004  0.1507  1.4043 -0.9926
 1424TIP3    H225832   6.488   3.820   0.857 -0.2278 -0.7800 -1.4148
 1425TIP3   OH225833   4.509   5.526   0.380  0.4138  0.0177  0.4561
 1425TIP3    H125834   4.504   5.608   0.330 -0.9637 -1.8463 -2.8159
 1425TIP3    H225835   4.584   5.480   0.343 -0.4337 -1.2864  0.3033
 1426TIP3   OH225836   0.864   2.475   0.198 -0.0500  0.0977  0.2883
 1426TIP3    H125837   0.821   2.468   0.113 -1.8050 -0.5039  1.1801
 1426TIP3    H225838   0.830   2.402   0.249 -0.2958  1.3702  2.0379
 1427TIP3   OH225839   1.786   0.019   1.429  0.5243 -0.0427  0.0048
 1427TIP3    H125840   1.806   0.027   1.522 -0.5780 -0.1448  0.2615
 1427TIP3    H225841   1.869  -0.007   1.389  1.0145  0.0117  0.9511
 1428TIP3   OH225842   4.632   3.107   1.227 -0.0969  0.4326  0.1505
 1428TIP3    H125843   4.586   3.130   1.307 -1.5893 -1.0388 -0.2216
 1428TIP3    H225844   4.584   3.032   1.192  1.3439  0.1518 -1.3976
 1429TIP3   OH225845   5.006   1.426   6.802 -0.0270  0.3117  0.0906
 1429TIP3    H125846   5.076   1.361   6.796  0.8663  1.2246  0.4280
 1429TIP3    H225847   5.038   1.490   6.866 -1.3328  0.5499  0.5254
 1430TIP3   OH225848   1.249   5.777   7.897  0.0134 -0.4029 -1.0670
 1430TIP3    H125849   1.197   5.760   7.819  0.4873  0.5823 -1.6130
 1430TIP3    H225850   1.254   5.692   7.941 -1.2815 -0.7067 -1.4633
 1431TIP3   OH225851   1.635   5.256   0.263 -0.7127 -0.2596 -0.0996
 1431TIP3    H125852   1.700   5.319   0.233 -0.6456 -0.0420  0.4765
 1431TIP3    H225853   1.567   5.258   0.197  0.4517 -1.4430 -1.4027
 1432TIP3   OH225854   6.384   1.210   0.594 -0.1709 -0.3510 -0.6450
 1432TIP3    H125855   6.316   1.205   0.661  0.0660  0.7768 -0.3040
 1432TIP3    H225856   6.433   1.289   0.614 -0.0717  0.0081 -2.1418
 1433TIP3   OH225857   0.706   5.454   1.881  0.1323  0.4753 -0.1576
 1433TIP3    H125858   0.661   5.521   1.829 -1.2206 -0.0406  0.3189
 1433TIP3    H225859   0.737   5.500   1.959 -0.8268  0.5468  0.1863
 1434TIP3   OH225860   4.454   3.041   6.936  0.7081 -0.1427 -0.1699
 1434TIP3    H125861   4.524   3.107   6.939  1.7080 -1.2128  1.0504
 1434TIP3    H225862   4.374   3.092   6.922  1.6768  1.1371 -1.2845
 1435TIP3   OH225863   3.279   4.186   0.219  0.1798 -0.5033  0.2297
 1435TIP3    H125864   3.309   4.175   0.129 -0.6852 -0.6315 -0.0532
 1435TIP3    H225865   3.206   4.125   0.228  0.3418 -0.5934  1.0652
 1436TIP3   OH225866   2.486   5.369   0.207  0.4928  0.1982  0.6134
 1436TIP3    H125867   2.482   5.273   0.216  0.0220  0.2853  1.4047
 1436TIP3    H225868   2.540   5.383   0.129 -2.2582 -0.8121 -1.6854
 1437TIP3   OH225869   4.226   6.537   0.305 -0.3516  0.0815  0.0347
 1437TIP3    H125870   4.195   6.553   0.215  0.1108  1.8275  0.1328
 1437TIP3    H225871   4.321   6.549   0.299 -0.1637 -1.1218  0.5133
 1438TIP3   OH225872   3.364   6.134   8.500 -0.2379 -0.2640  0.1973
 1438TIP3    H125873   3.293   6.134   8.564 -1.3049 -1.4575 -0.9279
 1438TIP3    H225874   3.325   6.169   8.420 -0.2861 -2.9827 -1.0986
 1439TIP3   OH225875   4.634   0.071   2.892 -0.2649  0.8958  0.8404
 1439TIP3    H125876   4.558   0.064   2.834 -0.6963  0.2818  1.4692
 1439TIP3    H225877   4.674  -0.016   2.890 -0.7307  0.6404  2.0610
 1440TIP3   OH225878   4.700   2.164   1.548  0.6792  0.1006  0.2070
 1440TIP3    H125879   4.779   2.213   1.523  0.6011 -0.0862 -0.4212
 1440TIP3    H225880   4.628   2.217   1.514  0.6387 -1.3397 -2.1767
 1441TIP3   OH225881   5.986   1.163   7.677  0.6031 -0.1011 -0.0702
 1441TIP3    H125882   5.955   1.116   7.754 -2.9813  3.2760  0.8704
 1441TIP3    H225883   5.975   1.102   7.605 -1.2513 -1.5846  1.3701
 1442TIP3   OH225884   2.165   6.718   1.528  0.2185 -0.0934  0.1171
 1442TIP3    H125885   2.121   6.683   1.450 -2.1246  0.3353  1.1418
 1442TIP3    H225886   2.137   6.660   1.598 -1.4357  2.0546  1.3635
 1443TIP3   OH225887   6.291   3.573   1.471  0.1641  0.0647 -0.4933
 1443TIP3    H125888   6.269   3.543   1.559 -0.7225  0.9891 -0.3737
 1443TIP3    H225889   6.375   3.617   1.482  1.7477 -2.6914 -0.7753
 1444TIP3   OH225890   5.570   5.231   1.543  0.8372 -0.6907  0.1935
 1444TIP3    H125891   5.510   5.268   1.608  1.9031 -3.6428  3.1900
 1444TIP3    H225892   5.658   5.247   1.580  1.4796 -2.4060 -0.4892
 1445TIP3   OH225893   3.942   2.708   2.046  0.0165 -0.5664 -0.0068
 1445TIP3    H125894   3.931   2.726   2.140 -0.3361 -0.2151 -0.1132
 1445TIP3    H225895   3.964   2.615   2.042 -0.0831 -0.6099  0.4172
 1446TIP3   OH225896   4.509   2.446   0.123 -0.0418 -0.1954 -0.2501
 1446TIP3    H125897   4.499   2.537   0.149 -2.6901 -0.7035  0.8205
 1446TIP3    H225898   4.442   2.432   0.056 -0.8475 -1.7199  0.8030
 1447TIP3   OH225899   4.849   1.088   8.885 -0.0898 -0.3084 -0.2776
 1447TIP3    H125900   4.930   1.050   8.850  1.0869  1.6574  0.1647
 1447TIP3    H225901   4.877   1.137   8.962 -1.5762  1.0291 -0.5474
 1448TIP3   OH225902   1.375   2.502   1.652  0.0774  0.3936  0.1935
 1448TIP3    H125903   1.371   2.491   1.747  2.0422 -0.3484  0.2398
 1448TIP3    H225904   1.417   2.587   1.639  3.5616 -1.1421  0.1487
 1449TIP3   OH225905   6.669   3.815   7.709 -0.0873 -0.4043  0.8673
 1449TIP3    H125906   6.759   3.782   7.708  0.1470  0.1414  2.1842
 1449TIP3    H225907   6.667   3.878   7.781 -1.8714 -1.4238  1.7931
 1450TIP3   OH225908   4.500   6.304   1.013  0.2072  0.3432 -0.1140
 1450TIP3    H125909   4.460   6.334   1.095  2.3350  1.1426  0.6811
 1450TIP3    H225910   4.568   6.368   0.994  0.7712 -0.6675 -1.7202
 1451TIP3   OH225911   4.160   0.132   0.102 -0.2611  0.0570  0.0189
 1451TIP3    H125912   4.076   0.088   0.092  0.0446 -0.5092 -0.0849
 1451TIP3    H225913   4.191   0.147   0.012 -0.2624  0.2983  0.0558
 1452TIP3   OH225914   1.950   3.791   1.786 -0.0418 -0.7637  0.5694
 1452TIP3    H125915   1.942   3.823   1.876  0.4444  1.8270 -0.2175
 1452TIP3    H225916   2.038   3.818   1.760 -1.6744  2.8152 -2.0995
 1453TIP3   OH225917   3.831   4.340   1.115  0.0974  0.4193 -0.1427
 1453TIP3    H125918   3.878   4.258   1.099 -0.6116 -0.0129 -0.0694
 1453TIP3    H225919   3.762   4.341   1.048 -0.7525  0.2689  0.7087
 1454TIP3   OH225920   3.552   6.432   1.465  0.8923  0.3836  0.0630
 1454TIP3    H125921   3.537   6.488   1.389 -2.6682 -0.6896 -0.2315
 1454TIP3    H225922   3.590   6.352   1.429 -0.9518 -0.1955 -0.7639
 1455TIP3   OH225923   4.597   0.988   8.098 -0.1166  0.1410  0.4069
 1455TIP3    H125924   4.541   1.062   8.124 -0.6104  0.2184 -0.7882
 1455TIP3    H225925   4.638   1.018   8.017 -3.5830 -2.3354 -2.6099
 1456TIP3   OH225926   2.593   0.817   8.180 -0.1070  0.0669  0.2874
 1456TIP3    H125927   2.604   0.758   8.105 -1.7407  0.1807 -0.0673
 1456TIP3    H225928   2.597   0.760   8.257 -0.6234 -0.3674 -0.0036
 1457TIP3   OH225929   1.642   2.427   1.530  0.2726 -0.2215 -0.7959
 1457TIP3    H125930   1.599   2.345   1.554 -0.6738  1.0876  2.4853
 1457TIP3    H225931   1.697   2.448   1.605  0.9657  1.8518 -1.8231
 1458TIP3   OH225932   0.411   5.423   7.878 -0.1600 -0.5466  0.2147
 1458TIP3    H125933   0.341   5.489   7.878  0.7756  0.4684 -0.1946
 1458TIP3    H225934   0.451   5.430   7.792  0.9781 -0.5394  0.7307
 1459TIP3   OH225935   4.539   3.171   7.261 -0.9327  0.4161  0.6549
 1459TIP3    H125936   4.501   3.221   7.189 -1.0325 -1.0622 -0.3632
 1459TIP3    H225937   4.563   3.087   7.223  1.1649  0.4006  1.8319
 1460TIP3   OH225938   3.935   0.446   7.007 -0.0081  0.0258 -0.1528
 1460TIP3    H125939   3.996   0.503   6.960 -0.4192 -0.2117 -0.9971
 1460TIP3    H225940   3.983   0.364   7.018  0.0591  0.0538 -0.2361
 1461TIP3   OH225941   3.756   4.085   6.982  0.7337  0.2729  0.3729
 1461TIP3    H125942   3.691   4.016   6.970 -1.1954  1.9088  0.9604
 1461TIP3    H225943   3.788   4.072   7.072  0.8183 -0.1945  0.2791
 1462TIP3   OH225944   6.299   3.986   1.342  0.6780  0.1300 -0.2451
 1462TIP3    H125945   6.259   4.050   1.401  0.7782 -1.9208  2.2090
 1462TIP3    H225946   6.390   3.980   1.372  0.9963 -0.2776 -1.2629
 1463TIP3   OH225947   2.177   6.548   8.181  0.1262 -0.2164 -0.4669
 1463TIP3    H125948   2.140   6.539   8.093  1.3634 -1.9423 -0.8524
 1463TIP3    H225949   2.258   6.498   8.178  2.3480  3.0098  0.4691
 1464TIP3   OH225950   1.418   2.308   8.841 -0.1774  0.0355  0.4579
 1464TIP3    H125951   1.477   2.327   8.914  2.8428  3.3550 -2.4354
 1464TIP3    H225952   1.453   2.229   8.801  0.1179 -0.0040  0.7966
 1465TIP3   OH225953   6.723   0.729   8.594 -0.1827 -0.6961  0.3312
 1465TIP3    H125954   6.653   0.667   8.575 -1.5024  1.2416 -1.5644
 1465TIP3    H225955   6.679   0.812   8.609  1.6370  0.4061 -0.0569
 1466TIP3   OH225956   1.793   0.595   0.565 -0.0982 -0.3878  0.3715
 1466TIP3    H125957   1.755   0.673   0.604 -0.3220  0.4990 -1.4936
 1466TIP3    H225958   1.786   0.609   0.470 -0.0781 -2.6352 -0.0376
 1467TIP3   OH225959   4.597   4.532   1.145 -0.1914 -0.4979 -0.0636
 1467TIP3    H125960   4.511   4.539   1.104 -0.2830 -2.6589 -0.3384
 1467TIP3    H225961   4.584   4.477   1.222  0.8115 -0.2194  0.3317
 1468TIP3   OH225962   5.672   3.073   1.283 -0.2398 -0.5231  0.3709
 1468TIP3    H125963   5.610   3.003   1.303 -0.4356 -0.5069 -0.1511
 1468TIP3    H225964   5.679   3.123   1.364  1.4708 -2.3059  1.4100
 1469TIP3   OH225965   2.344   2.398   0.150  0.0798 -0.3676 -0.2736
 1469TIP3    H125966   2.281   2.340   0.191  1.0667 -1.8807 -0.8161
 1469TIP3    H225967   2.304   2.423   0.067 -1.5632  2.0466  1.1198
 1470TIP3   OH225968   1.689   0.194   7.553 -0.4635 -0.7226 -0.0516
 1470TIP3    H125969   1.690   0.230   7.464  0.2642 -1.0586 -0.1877
 1470TIP3    H225970   1.720   0.104   7.543 -0.6721 -0.8619  0.5047
 1471TIP3   OH225971   4.813   3.511   8.085  0.6459 -0.2536 -0.1374
 1471TIP3    H125972   4.898   3.498   8.043  0.0919 -2.4979 -0.6582
 1471TIP3    H225973   4.804   3.438   8.145  0.0135  1.1717  1.5886
 1472TIP3   OH225974   3.260   4.686   8.705  0.0287 -0.6573  0.1080
 1472TIP3    H125975   3.231   4.777   8.690  2.0959  0.0475  0.1161
 1472TIP3    H225976   3.186   4.633   8.675 -0.9251  1.0001 -0.6567
 1473TIP3   OH225977   3.539   6.272   7.752  0.4906  0.1751 -0.2059
 1473TIP3    H125978   3.526   6.348   7.809  2.4711  0.5506 -0.2100
 1473TIP3    H225979   3.450   6.241   7.734 -0.4390  2.8610 -0.7305
 1474TIP3   OH225980   4.981   0.187   8.233 -0.4755  0.5243 -0.5609
 1474TIP3    H125981   5.070   0.151   8.235 -0.8965 -0.5538  0.1266
 1474TIP3    H225982   4.939   0.149   8.311 -2.3453 -1.1767 -2.2981
 1475TIP3   OH225983   3.714   3.088   0.152  0.6153  0.5623 -0.4330
 1475TIP3    H125984   3.711   3.005   0.200  1.4405 -0.1552 -1.5475
 1475TIP3    H225985   3.684   3.154   0.215  0.2252 -0.5375  0.5713
 1476TIP3   OH225986   3.166   6.640   1.354  0.3361  0.6267 -0.4739
 1476TIP3    H125987   3.188   6.575   1.420  0.4816 -0.4352 -1.5395
 1476TIP3    H225988   3.203   6.606   1.273  1.8826  2.8606 -0.7854
 1477TIP3   OH225989   3.159   0.413   7.242 -0.5318  0.2894  0.0071
 1477TIP3    H125990   3.188   0.435   7.154 -0.3907  1.7139  0.3789
 1477TIP3    H225991   3.072   0.452   7.250 -1.6869 -2.0286 -0.3322
 1478TIP3   OH225992   4.579   5.526   1.195 -0.4760  0.2283  0.4231
 1478TIP3    H125993   4.596   5.546   1.103  1.0636 -0.8367  0.4501
 1478TIP3    H225994   4.540   5.438   1.194  1.6287 -0.7664  0.8881
 1479TIP3   OH225995   2.325   1.613   1.943  0.5187  0.1580 -0.3321
 1479TIP3    H125996   2.290   1.614   2.032  0.5758  0.7282 -0.3127
 1479TIP3    H225997   2.392   1.545   1.944 -0.2761 -0.6414 -0.2523
 1480TIP3   OH225998   0.882   1.071   1.585 -0.7346 -0.3491  0.2723
 1480TIP3    H125999   0.853   1.007   1.649 -0.0858 -0.4091  0.5151
 1480TIP3    H226000   0.951   1.026   1.536 -0.1226  0.2215  0.5893
 1481TIP3   OH226001   3.801   5.579   0.799  0.2118 -0.0156 -0.1175
 1481TIP3    H126002   3.883   5.531   0.804  0.6972  0.7675 -0.4369
 1481TIP3    H226003   3.776   5.574   0.706 -0.7853 -1.3564  0.1951
 1482TIP3   OH226004   0.907   4.539   1.689  0.1462  0.5206  0.1489
 1482TIP3    H126005   0.901   4.452   1.650 -0.7243  0.1669  1.0503
 1482TIP3    H226006   0.975   4.530   1.756  1.8641  1.2061 -1.3886
 1483TIP3   OH226007   3.299   4.348   7.298 -0.5954 -0.6389 -0.2273
 1483TIP3    H126008   3.213   4.383   7.323 -0.7626 -1.1526 -0.0869
 1483TIP3    H226009   3.284   4.303   7.215 -0.2382  0.2068 -0.7662
 1484TIP3   OH226010   0.868   2.029   7.031 -0.1234  0.0283 -0.6280
 1484TIP3    H126011   0.918   2.005   6.953 -0.8597 -1.9941 -0.5405
 1484TIP3    H226012   0.859   1.947   7.080 -1.0832  0.9169  0.7726
 1485TIP3   OH226013   0.752   5.920   0.943  0.5311  0.5174 -0.1046
 1485TIP3    H126014   0.752   5.997   1.000  3.1342  1.6336 -1.4653
 1485TIP3    H226015   0.804   5.855   0.991  1.0779  0.7702 -0.3494
 1486TIP3   OH226016   3.850   6.403   7.459 -0.1899 -0.6573  0.0573
 1486TIP3    H126017   3.944   6.394   7.470 -0.4819 -1.8668  2.1625
 1486TIP3    H226018   3.839   6.436   7.370  2.1866 -0.8421 -0.3695
 1487TIP3   OH226019   0.295   4.244   8.208  0.1058 -0.3288  0.1085
 1487TIP3    H126020   0.242   4.320   8.234 -1.1670 -1.0768 -0.2255
 1487TIP3    H226021   0.319   4.262   8.117  3.3996  1.6331  1.1952
 1488TIP3   OH226022   5.510   0.185   0.209 -0.3766 -0.0455 -0.4412
 1488TIP3    H126023   5.421   0.171   0.242 -1.1750 -1.2094 -2.8718
 1488TIP3    H226024   5.522   0.116   0.143  2.7638 -0.6018  0.5745
 1489TIP3   OH226025   3.633   4.344   8.395 -0.1834  0.0703  0.2588
 1489TIP3    H126026   3.663   4.432   8.414  1.2906 -0.4700  0.5606
 1489TIP3    H226027   3.546   4.339   8.435 -0.3656  1.4237  0.0772
 1490TIP3   OH226028   4.484   5.800   0.285  0.1749 -0.0295 -0.7219
 1490TIP3    H126029   4.574   5.814   0.256  0.3665  0.2065 -0.0363
 1490TIP3    H226030   4.430   5.823   0.210  0.6763  0.0871 -1.0485
 1491TIP3   OH226031   5.831   3.189   7.311 -0.0240 -0.1718  0.1266
 1491TIP3    H126032   5.770   3.263   7.313  1.3757  1.0278 -0.2474
 1491TIP3    H226033   5.840   3.167   7.219 -0.0170 -0.4785  0.1971
 1492TIP3   OH226034   6.261   3.196   8.824 -0.4845 -0.5082  0.3800
 1492TIP3    H126035   6.252   3.178   8.917 -1.1530  0.6822  0.5629
 1492TIP3    H226036   6.175   3.229   8.797 -0.3198 -0.8760 -0.6751
 1493TIP3   OH226037   4.616   2.556   8.316 -0.7179  0.0618 -0.1535
 1493TIP3    H126038   4.553   2.617   8.277  0.2052  0.6523 -0.7827
 1493TIP3    H226039   4.663   2.520   8.241 -0.6546 -0.7627  0.2779
 1494TIP3   OH226040   1.177   5.090   7.855 -0.1447 -0.0139 -0.2413
 1494TIP3    H126041   1.223   5.008   7.835  2.3053  1.4559 -0.9904
 1494TIP3    H226042   1.193   5.146   7.779 -0.9700  1.5013  0.6486
 1495TIP3   OH226043   3.048   0.703   0.647 -0.4634 -0.1590 -0.2844
 1495TIP3    H126044   3.069   0.694   0.740  0.1066 -0.4992 -0.4437
 1495TIP3    H226045   3.057   0.796   0.629  0.6105 -0.2497 -0.2720
 1496TIP3   OH226046   0.917   3.004   8.717  0.8054 -0.5577 -0.0705
 1496TIP3    H126047   0.865   2.926   8.738  1.1305 -0.8527 -0.3596
 1496TIP3    H226048   0.917   3.008   8.622 -0.9561  0.9696 -0.0795
 1497TIP3   OH226049   0.247   3.299   1.254 -0.6575 -0.6728 -0.7443
 1497TIP3    H126050   0.309   3.358   1.211 -0.6048 -1.1677 -1.3632
 1497TIP3    H226051   0.232   3.229   1.190 -1.4002 -0.8694 -0.3707
 1498TIP3   OH226052   3.444   3.978   1.997 -0.6684 -0.3972 -0.5649
 1498TIP3    H126053   3.384   4.023   2.057 -1.4573 -2.6781  0.4852
 1498TIP3    H226054   3.412   3.999   1.910  0.3341  2.7713 -0.2820
 1499TIP3   OH226055   4.276   5.312   8.586  0.2366 -0.2610  0.2949
 1499TIP3    H126056   4.186   5.280   8.581  0.2709 -0.3247  0.0724
 1499TIP3    H226057   4.278   5.388   8.527 -0.1141  0.8130  1.6140
 1500TIP3   OH226058   1.096   2.322   2.617  0.5475 -0.1346  0.5943
 1500TIP3    H126059   1.047   2.404   2.619  0.7351  0.0160 -0.3836
 1500TIP3    H226060   1.034   2.256   2.646  0.1122  0.2227  0.4865
 1501TIP3   OH226061   1.426   1.618   8.351  0.3400  0.0388 -0.3508
 1501TIP3    H126062   1.518   1.619   8.324 -0.0930  0.9125 -1.9206
 1501TIP3    H226063   1.424   1.561   8.428  2.4092  1.0704  0.5454
 1502TIP3   OH226064   4.419   5.456   8.772 -0.0188  0.0765 -0.3045
 1502TIP3    H126065   4.365   5.406   8.711 -0.8311 -0.0473  0.4934
 1502TIP3    H226066   4.394   5.547   8.757 -0.5718  0.0094  0.1560
 1503TIP3   OH226067   6.719   1.832   2.167  0.3241  0.9842  0.4226
 1503TIP3    H126068   6.808   1.847   2.197  0.0760  1.6088  0.8664
 1503TIP3    H226069   6.663   1.868   2.236 -0.3694 -2.2109  1.7404
 1504TIP3   OH226070   0.925   0.971   2.135 -0.4625  0.1801  0.1571
 1504TIP3    H126071   0.969   0.886   2.134 -1.1900 -0.2013 -0.3553
 1504TIP3    H226072   0.899   0.984   2.226 -1.6970 -0.8738 -0.0204
 1505TIP3   OH226073   4.277   4.061   8.291 -0.1746 -0.0904 -0.0527
 1505TIP3    H126074   4.223   4.077   8.214  0.4341 -0.0069 -0.4635
 1505TIP3    H226075   4.217   4.019   8.354 -0.4514 -0.9861 -0.8881
 1506TIP3   OH226076   6.666   4.032   0.976 -0.0282  0.0178  0.5498
 1506TIP3    H126077   6.642   4.026   0.883  0.6383  1.9675  0.2187
 1506TIP3    H226078   6.749   4.078   0.977 -1.0978  2.0978  2.2056
 1507TIP3   OH226079   5.125   1.935   0.541 -0.4328 -0.3309  0.2963
 1507TIP3    H126080   5.070   1.917   0.618 -0.8516 -0.1191  0.0486
 1507TIP3    H226081   5.212   1.949   0.577 -0.1312 -2.4848  0.5609
 1508TIP3   OH226082   4.310   4.943   0.454  0.0616  0.1822 -0.4941
 1508TIP3    H126083   4.316   4.913   0.545 -0.4586  1.6340  0.0622
 1508TIP3    H226084   4.383   5.005   0.445 -0.1609  0.3836 -0.9160
 1509TIP3   OH226085   2.635   1.937   1.469  0.1489 -0.6168 -0.1696
 1509TIP3    H126086   2.655   1.885   1.392  0.6914  1.3183 -1.3898
 1509TIP3    H226087   2.715   1.985   1.487 -0.7090  0.7636  0.1226
 1510TIP3   OH226088   3.062   4.154   0.646 -0.6817  0.3996  0.8199
 1510TIP3    H126089   2.970   4.176   0.633 -1.1673 -1.6526  0.5076
 1510TIP3    H226090   3.068   4.124   0.736 -0.6886 -1.0775  0.3514
 1511TIP3   OH226091   3.037   2.444   8.557  0.1409 -0.5008  0.0839
 1511TIP3    H126092   2.950   2.414   8.582  0.0954  0.5830  1.3453
 1511TIP3    H226093   3.094   2.412   8.627  0.7428 -1.1007 -0.6707
 1512TIP3   OH226094   0.733   2.557   2.627  0.9607  0.2089 -0.1082
 1512TIP3    H126095   0.687   2.529   2.706  0.3639  0.8712 -0.2137
 1512TIP3    H226096   0.825   2.556   2.651  1.0797 -2.4741 -0.2933
 1513TIP3   OH226097   0.918   3.341   1.321  0.4476  1.0767 -0.2427
 1513TIP3    H126098   0.947   3.425   1.284 -0.0260  0.7390 -1.4350
 1513TIP3    H226099   0.939   3.277   1.253 -1.1898  0.5390 -0.2706
 1514TIP3   OH226100   1.492   4.474   6.733 -0.0472 -0.7593 -0.0951
 1514TIP3    H126101   1.473   4.559   6.694  0.3080 -0.1969  0.9112
 1514TIP3    H226102   1.576   4.449   6.694 -0.5324 -1.0305 -0.9887
 1515TIP3   OH226103   6.093   2.625   1.682 -0.0593  0.4747 -0.4314
 1515TIP3    H126104   6.056   2.632   1.770  0.8668 -1.4107  0.1490
 1515TIP3    H226105   6.080   2.712   1.644 -1.1492  1.1126  1.2849
 1516TIP3   OH226106   5.789   4.131   8.479  0.1628 -0.3699 -0.2096
 1516TIP3    H126107   5.751   4.108   8.394 -0.1937  0.6425 -0.3400
 1516TIP3    H226108   5.759   4.062   8.538 -1.4270  0.0727 -0.4343
 1517TIP3   OH226109   4.891   5.209   2.176  0.7190  0.5533  0.5435
 1517TIP3    H126110   4.948   5.286   2.183 -0.0178  0.9638  2.7825
 1517TIP3    H226111   4.811   5.235   2.221 -0.0637 -1.1010  0.1629
 1518TIP3   OH226112   3.368   5.501   8.434 -0.1487 -0.0001  0.3837
 1518TIP3    H126113   3.354   5.482   8.527 -2.2343 -0.6729 -0.0018
 1518TIP3    H226114   3.434   5.438   8.407 -0.6858 -0.8968  1.0836
 1519TIP3   OH226115   5.863   0.705   7.798 -0.2566 -0.2066 -0.1141
 1519TIP3    H126116   5.828   0.694   7.886 -0.1377 -1.1433 -0.1772
 1519TIP3    H226117   5.796   0.756   7.752 -0.7206 -0.4581  0.2746
 1520TIP3   OH226118   1.053   0.530   1.804 -0.1253 -0.2013 -1.0127
 1520TIP3    H126119   1.067   0.436   1.810  1.1814  0.0512  0.7445
 1520TIP3    H226120   0.964   0.539   1.771 -0.3566 -2.0439 -0.9919
 1521TIP3   OH226121   3.932   2.493   6.914 -0.2194 -0.3269 -0.2379
 1521TIP3    H126122   3.877   2.416   6.900  0.1766 -0.7679  0.5296
 1521TIP3    H226123   3.932   2.539   6.830 -2.1618 -0.0346 -0.1167
 1522TIP3   OH226124   4.679   4.594   1.620  0.1301 -0.0808  0.2213
 1522TIP3    H126125   4.670   4.520   1.560 -1.0258 -0.0314  0.3111
 1522TIP3    H226126   4.598   4.594   1.671  0.6761  0.4714  1.1123
 1523TIP3   OH226127   5.986   5.078   8.388 -0.1790 -0.0167  0.7489
 1523TIP3    H126128   6.001   5.172   8.391 -1.3798  0.1981  0.5331
 1523TIP3    H226129   5.920   5.061   8.455 -0.9518 -0.4890 -0.1084
 1524TIP3   OH226130   5.758   6.568   2.342  0.1301 -0.2108 -0.0230
 1524TIP3    H126131   5.714   6.521   2.271  0.6258  0.4411 -0.7940
 1524TIP3    H226132   5.789   6.649   2.300 -1.8880  1.4984  1.5432
 1525TIP3   OH226133   5.247   3.134   0.973 -0.4804 -0.1369  0.0392
 1525TIP3    H126134   5.225   3.190   1.047  1.8601  0.4607  0.3700
 1525TIP3    H226135   5.342   3.123   0.979 -0.5446 -2.0812 -1.4856
 1526TIP3   OH226136   5.577   1.184   2.147 -0.1202 -0.3011  0.4938
 1526TIP3    H126137   5.637   1.174   2.221  0.4280  1.4913  0.3401
 1526TIP3    H226138   5.513   1.248   2.175 -0.3209 -0.1218 -0.3322
 1527TIP3   OH226139   5.302   5.640   2.311  0.4054  0.0168 -0.0266
 1527TIP3    H126140   5.233   5.642   2.245 -0.1699  0.9850  0.5698
 1527TIP3    H226141   5.372   5.588   2.272 -0.2268 -0.0630 -1.0839
 1528TIP3   OH226142   5.631   5.125   8.283  0.3304  0.3526 -0.5438
 1528TIP3    H126143   5.691   5.126   8.358 -1.6133 -0.5117  1.1117
 1528TIP3    H226144   5.591   5.038   8.285 -2.2781  1.4608 -0.4401
 1529TIP3   OH226145   5.163   3.782   0.349  0.1361  0.0257  0.6647
 1529TIP3    H126146   5.115   3.865   0.346  1.6974  0.9500  0.5493
 1529TIP3    H226147   5.098   3.716   0.324 -0.7100  1.3950 -0.9295
 1530TIP3   OH226148   3.115   3.834   2.316  0.5237 -0.0520 -0.5258
 1530TIP3    H126149   3.113   3.849   2.410  0.5660 -1.7399 -0.2261
 1530TIP3    H226150   3.070   3.750   2.304  0.0559  0.3788 -2.0700
 1531TIP3   OH226151   0.868   5.510   8.368 -0.1983 -0.0928 -0.2788
 1531TIP3    H126152   0.947   5.562   8.383 -1.1779  1.7070 -1.0181
 1531TIP3    H226153   0.862   5.502   8.273 -0.2346 -1.3346 -0.1857
 1532TIP3   OH226154   4.856   2.219   8.243  0.4386  0.1497 -0.0147
 1532TIP3    H126155   4.863   2.282   8.314  0.0372  0.0423  0.1264
 1532TIP3    H226156   4.853   2.273   8.164  2.2756  0.2225 -0.0802
 1533TIP3   OH226157   0.741   6.026   0.118 -0.1212 -0.2142  0.4974
 1533TIP3    H126158   0.744   5.936   0.084  0.3192  0.3811 -1.1144
 1533TIP3    H226159   0.661   6.063   0.081  0.9135  0.7788 -0.8623
 1534TIP3   OH226160   2.145   2.621   8.697 -0.3560 -0.2781 -0.0822
 1534TIP3    H126161   2.077   2.687   8.714 -0.3640 -0.7216  1.8237
 1534TIP3    H226162   2.208   2.665   8.640  0.1267  1.7649  1.8842
 1535TIP3   OH226163   1.346   3.636   8.554  0.7127  0.1700 -0.2948
 1535TIP3    H126164   1.264   3.685   8.545 -0.8476 -2.3754 -0.7777
 1535TIP3    H226165   1.401   3.669   8.483 -0.8754  0.1860 -1.5872
 1536TIP3   OH226166   6.054   3.020   2.009 -0.2873  0.4161  0.1675
 1536TIP3    H126167   6.078   3.059   2.093  0.2768  2.1793 -0.7652
 1536TIP3    H226168   6.135   3.022   1.958 -0.6138 -0.6560 -0.4249
 1537TIP3   OH226169   3.762   0.928   0.098  0.0375  0.1816  0.1925
 1537TIP3    H126170   3.678   0.963   0.128  0.4941  1.8599 -0.3740
 1537TIP3    H226171   3.819   0.933   0.174 -0.2772 -0.6949  0.4994
 1538TIP3   OH226172   2.972   1.846   2.422 -0.1390  0.4484  0.2156
 1538TIP3    H126173   2.921   1.785   2.369  0.6086  1.1901 -1.4514
 1538TIP3    H226174   3.061   1.839   2.388  0.6179  0.1491  2.1734
 1539TIP3   OH226175   2.004   1.860   0.865 -0.1499  0.7659 -0.2981
 1539TIP3    H126176   1.972   1.950   0.864  0.5526  1.0736  1.4943
 1539TIP3    H226177   2.099   1.868   0.864 -0.0812  0.0416 -0.2195
 1540TIP3   OH226178   5.307   0.477   8.589  0.2548 -0.1929 -0.3025
 1540TIP3    H126179   5.342   0.400   8.632  2.2054  1.0838  0.5433
 1540TIP3    H226180   5.221   0.450   8.556  1.2106 -2.9357 -0.7842
 1541TIP3   OH226181   6.417   6.654   1.479 -0.0065 -0.4856 -0.0294
 1541TIP3    H126182   6.388   6.692   1.562  1.5151 -1.5289  1.0402
 1541TIP3    H226183   6.383   6.565   1.481 -0.8138 -0.2122 -1.0157
 1542TIP3   OH226184   0.461   0.775   8.693 -0.5477  0.5384 -0.0305
 1542TIP3    H126185   0.372   0.741   8.680 -0.9029  0.8231  1.5092
 1542TIP3    H226186   0.503   0.711   8.749  0.4214  0.1318 -1.1888
 1543TIP3   OH226187   0.403   5.108   8.311 -0.0462  0.4230 -0.1495
 1543TIP3    H126188   0.474   5.113   8.246  1.1051  0.7056  1.0939
 1543TIP3    H226189   0.351   5.187   8.295  1.3651  1.5357  0.5201
 1544TIP3   OH226190   1.072   0.886   8.841 -0.0247  0.0039 -0.1347
 1544TIP3    H126191   1.068   0.829   8.764  1.0164  0.7623 -0.7887
 1544TIP3    H226192   1.110   0.968   8.808  0.2483  0.4201  1.1432
 1545TIP3   OH226193   4.763   1.073   1.321  0.1086 -0.7661  0.0399
 1545TIP3    H126194   4.738   1.087   1.230 -0.1554  1.6103  0.4203
 1545TIP3    H226195   4.859   1.065   1.318 -0.0082 -2.4102 -0.5798
 1546TIP3   OH226196   0.326   0.939   0.349 -0.3712  0.2078  0.2256
 1546TIP3    H126197   0.288   0.994   0.417 -0.5042  0.5104 -0.0898
 1546TIP3    H226198   0.304   0.984   0.267 -1.9203 -1.1452 -0.1582
 1547TIP3   OH226199   3.461   2.408   2.375 -0.4881  0.1093  0.0055
 1547TIP3    H126200   3.498   2.324   2.399  0.4289  0.5360  0.1235
 1547TIP3    H226201   3.507   2.471   2.431 -1.4655  0.6454  0.2319
 1548TIP3   OH226202   0.963   2.494   1.300  0.3673 -0.1638 -0.4278
 1548TIP3    H126203   0.987   2.548   1.375  3.5833 -0.9453 -0.7469
 1548TIP3    H226204   0.964   2.405   1.334  2.6348 -0.5964 -1.4560
 1549TIP3   OH226205   6.622   0.854   1.256 -0.1719 -0.0003 -0.4898
 1549TIP3    H126206   6.557   0.879   1.322  0.9948  0.7483  0.4387
 1549TIP3    H226207   6.572   0.815   1.185 -1.5408 -0.1773  0.5456
 1550TIP3   OH226208   2.272   6.229   0.000 -0.2175 -0.1148 -0.4932
 1550TIP3    H126209   2.325   6.241  -0.079  0.8068 -1.4366 -0.0417
 1550TIP3    H226210   2.325   6.267   0.070 -0.7283  0.2651 -0.3121
 1551TIP3   OH226211   2.652   6.049   7.455 -0.0372 -0.6758 -0.4733
 1551TIP3    H126212   2.724   5.989   7.475  0.1032  0.0183  1.2711
 1551TIP3    H226213   2.581   5.992   7.424 -1.0713 -2.3046  4.0843
 1552TIP3   OH226214   4.972   0.862   0.476 -0.4634 -0.4717  0.1347
 1552TIP3    H126215   5.010   0.780   0.447 -1.1789 -0.9638  0.5660
 1552TIP3    H226216   4.879   0.855   0.454 -0.1719  1.1349 -1.8569
 1553TIP3   OH226217   0.047   6.430   0.843  0.3711  0.4891  0.0038
 1553TIP3    H126218   0.005   6.375   0.909  0.0769  1.1098  0.3479
 1553TIP3    H226219  -0.025   6.461   0.788  0.6383 -0.1890 -0.7449
 1554TIP3   OH226220   1.374   6.554   0.225  0.5629 -0.0156 -0.1039
 1554TIP3    H126221   1.365   6.503   0.305  0.0425 -2.1477 -1.4211
 1554TIP3    H226222   1.468   6.568   0.216  0.9048 -2.0934 -0.4097
 1555TIP3   OH226223   5.612   4.101   6.991 -0.0553 -0.1999 -0.3466
 1555TIP3    H126224   5.606   4.012   7.027  2.1155  0.0177  0.7432
 1555TIP3    H226225   5.665   4.091   6.912 -1.2544 -0.0717 -1.1972
 1556TIP3   OH226226   0.812   0.208   8.897 -0.0861  0.0687 -0.7124
 1556TIP3    H126227   0.795   0.154   8.974 -0.5408 -0.8830 -1.4493
 1556TIP3    H226228   0.751   0.281   8.904  0.2750  0.3093  0.1099
 1557TIP3   OH226229   0.192   6.688   7.710  0.0237  0.4394  0.2154
 1557TIP3    H126230   0.192   6.682   7.614  0.2867  0.8820  0.1850
 1557TIP3    H226231   0.281   6.711   7.733  0.2907 -0.9403  0.6699
 1558TIP3   OH226232   3.029   5.894   8.258  0.3884  0.0488  0.0203
 1558TIP3    H126233   2.935   5.884   8.249  0.2974  1.3673 -0.9401
 1558TIP3    H226234   3.043   5.989   8.255  1.6502 -0.0669  1.2841
 1559TIP3   OH226235   4.526   6.567   7.081  0.3849 -0.1567  0.7371
 1559TIP3    H126236   4.556   6.640   7.135  0.4188  0.2548  0.1774
 1559TIP3    H226237   4.589   6.563   7.009 -0.5405  0.3243 -0.1207
 1560TIP3   OH226238   5.742   5.928   8.625  0.1801 -0.0706  0.2304
 1560TIP3    H126239   5.753   5.964   8.713  0.3984  0.0221  0.1672
 1560TIP3    H226240   5.653   5.954   8.599  0.7061  1.3898 -0.2419
 1561TIP3   OH226241   0.220   3.711   7.393 -0.9992 -0.0642 -0.3819
 1561TIP3    H126242   0.314   3.722   7.406 -1.1031 -0.0533  0.4599
 1561TIP3    H226243   0.188   3.799   7.373 -1.0042  0.1835  0.6309
 1562TIP3   OH226244   3.400   6.463   7.960 -0.0058 -0.1228 -0.1538
 1562TIP3    H126245   3.343   6.528   7.918 -2.3299 -1.6698  0.4087
 1562TIP3    H226246   3.366   6.457   8.050  2.0482 -0.0444  0.6744
 1563TIP3   OH226247   0.597   0.908   0.364 -0.3494  0.4232 -0.4683
 1563TIP3    H126248   0.509   0.925   0.329 -0.6200  1.5859  0.7100
 1563TIP3    H226249   0.584   0.900   0.458  1.0455  2.5071 -0.0530
 1564TIP3   OH226250   1.533   6.669   8.907  0.6683 -0.1242 -0.1145
 1564TIP3    H126251   1.457   6.727   8.907  1.1621  0.6359 -2.1809
 1564TIP3    H226252   1.571   6.679   8.994 -0.3198  1.2583  0.1929
 1565TIP3   OH226253   4.027   1.969   2.357 -0.6573  0.3994  0.0357
 1565TIP3    H126254   4.009   2.058   2.387 -1.0241  0.0518  0.8709
 1565TIP3    H226255   4.101   1.940   2.411  1.9350  1.4393 -2.6316
 1566TIP3   OH226256   0.483   5.023   7.808  1.0211 -0.5268  0.1728
 1566TIP3    H126257   0.559   5.064   7.766  0.7856  1.3909  1.4830
 1566TIP3    H226258   0.412   5.034   7.745  1.4876 -0.9983 -0.4447
 1567TIP3   OH226259   6.553   1.072   7.430 -0.3619  0.3322  0.0389
 1567TIP3    H126260   6.585   1.128   7.500  1.3216  0.5505 -0.8454
 1567TIP3    H226261   6.612   0.997   7.431  0.9172  1.2035 -2.2678
 1568TIP3   OH226262   4.256   1.307   8.407  0.7390 -0.0390 -0.2456
 1568TIP3    H126263   4.220   1.304   8.318  2.2603 -0.3296 -0.8861
 1568TIP3    H226264   4.180   1.298   8.464 -0.3509  0.8424 -1.4985
 1569TIP3   OH226265   0.141   3.093   7.547 -0.7225  0.1325 -0.6088
 1569TIP3    H126266   0.176   3.114   7.633  1.4677 -0.9725 -1.1330
 1569TIP3    H226267   0.206   3.033   7.509 -2.2545 -0.4397 -2.5244
 1570TIP3   OH226268   6.200   5.085   0.078  0.2723 -0.2289 -0.3910
 1570TIP3    H126269   6.181   5.147   0.009  3.8720  1.8022  0.1813
 1570TIP3    H226270   6.185   5.134   0.159  3.0076  0.0032  0.0713
 1571TIP3   OH226271   6.333   3.506   7.126  0.0254 -0.0490  0.1900
 1571TIP3    H126272   6.323   3.583   7.070 -0.0221 -1.3394 -1.6981
 1571TIP3    H226273   6.290   3.529   7.208 -0.4580  1.7256 -0.5244
 1572TIP3   OH226274   3.487   1.243   7.246  0.6727 -0.2254 -0.0175
 1572TIP3    H126275   3.517   1.284   7.327 -0.7228 -1.4941  1.1887
 1572TIP3    H226276   3.453   1.316   7.194  1.4183  0.5789  0.5865
 1573TIP3   OH226277   0.265   0.473   0.930  0.2603 -0.0036  0.2220
 1573TIP3    H126278   0.214   0.474   1.011  3.3510 -1.8380  2.3750
 1573TIP3    H226279   0.294   0.383   0.920  3.1371  0.9136 -0.7643
 1574TIP3   OH226280   2.018   0.500   6.909 -0.5246 -0.4723 -0.8461
 1574TIP3    H126281   2.013   0.435   6.979  0.3792 -0.7415 -1.0105
 1574TIP3    H226282   1.986   0.455   6.831 -0.8953 -0.3840 -0.7459
 1575TIP3   OH226283   3.473   6.032   1.426 -0.2985  0.2541 -0.3711
 1575TIP3    H126284   3.523   6.040   1.508  1.9180 -1.5936 -1.4072
 1575TIP3    H226285   3.467   5.937   1.412 -3.6535  0.4091 -0.6792
 1576TIP3   OH226286   3.098   4.722   8.236  0.0038 -0.3063  0.4524
 1576TIP3    H126287   3.008   4.688   8.229 -1.3351  2.6811  1.5240
 1576TIP3    H226288   3.118   4.757   8.149  0.3157 -1.2894  0.1142
 1577TIP3   OH226289   3.179   5.413   1.085  0.0883 -0.5919 -0.0107
 1577TIP3    H126290   3.097   5.420   1.133 -0.3874 -0.4451 -0.8267
 1577TIP3    H226291   3.188   5.320   1.065 -0.4624 -0.4607 -0.9039
 1578TIP3   OH226292   5.361   3.689   7.028 -0.5982 -0.1898 -0.5160
 1578TIP3    H126293   5.285   3.663   6.975 -0.1332 -1.3871 -0.6199
 1578TIP3    H226294   5.406   3.607   7.047 -0.2203  0.3283  0.9326
 1579TIP3   OH226295   2.440   3.861   8.739 -0.6002  0.2970 -0.0713
 1579TIP3    H126296   2.494   3.832   8.666  2.0707  0.7722  1.5635
 1579TIP3    H226297   2.387   3.932   8.703 -0.0903 -0.1390 -1.7723
 1580TIP3   OH226298   3.111   3.942   0.204 -0.5905 -0.4915 -0.0736
 1580TIP3    H126299   3.028   3.894   0.207 -1.4763  1.0273  1.2525
 1580TIP3    H226300   3.155   3.919   0.285 -0.4012 -0.1457 -0.0760
 1581TIP3   OH226301   4.876   2.209   0.348  0.5362 -0.1237 -0.8446
 1581TIP3    H126302   4.914   2.234   0.264  1.9318 -1.5903 -0.6973
 1581TIP3    H226303   4.910   2.121   0.365 -0.5360 -0.2739  0.7745
 1582TIP3   OH226304   5.030   5.833   1.734 -0.0145 -0.1262 -0.2387
 1582TIP3    H126305   5.020   5.928   1.743  1.1667 -0.1005  1.3225
 1582TIP3    H226306   4.957   5.797   1.784 -0.3340 -0.0540 -0.6438
 1583TIP3   OH226307   1.844   5.263   8.623  0.2651  0.5583  0.3023
 1583TIP3    H126308   1.923   5.215   8.600 -0.4912 -0.5051 -0.1664
 1583TIP3    H226309   1.777   5.230   8.564 -0.7359  0.8171  1.2407
 1584TIP3   OH226310   6.209   1.918   6.725  0.2767  0.3842 -0.0354
 1584TIP3    H126311   6.190   1.879   6.640  1.5752 -0.7069  0.1481
 1584TIP3    H226312   6.180   1.852   6.788 -2.3102  1.8604  0.5167
 1585TIP3   OH226313   4.134   5.850   7.689  0.1075 -0.0612  0.0926
 1585TIP3    H126314   4.171   5.930   7.726  1.1074  0.1416 -1.2854
 1585TIP3    H226315   4.072   5.881   7.622  0.1447 -0.4349 -0.1159
 1586TIP3   OH226316   6.517   3.501   2.006 -0.0536  0.5446 -0.3598
 1586TIP3    H126317   6.487   3.554   2.080 -3.7847 -0.4700 -0.9245
 1586TIP3    H226318   6.520   3.562   1.933  0.0811  0.8681 -0.0852
 1587TIP3   OH226319   2.277   5.040   8.129 -0.6023 -0.2378 -0.2696
 1587TIP3    H126320   2.318   5.038   8.216 -1.9240 -1.6141  0.3690
 1587TIP3    H226321   2.277   4.949   8.101 -0.3553  0.1682 -1.6714
 1588TIP3   OH226322   5.527   0.445   1.176  0.9288  0.4912 -0.0383
 1588TIP3    H126323   5.610   0.470   1.134  1.2063 -1.1021 -0.4944
 1588TIP3    H226324   5.553   0.402   1.258  0.5447  0.2072 -0.0616
 1589TIP3   OH226325   1.791   6.537   1.713 -0.4652 -0.6923 -0.1323
 1589TIP3    H126326   1.741   6.548   1.632 -0.7623 -1.4076 -0.0576
 1589TIP3    H226327   1.789   6.442   1.729 -0.1104 -0.5941  0.5225
 1590TIP3   OH226328   2.337   0.371   8.848 -0.3746 -0.2852  0.0999
 1590TIP3    H126329   2.381   0.328   8.775  1.0417 -0.2692  0.9103
 1590TIP3    H226330   2.374   0.329   8.926 -0.6144  0.8606  0.8503
 1591TIP3   OH226331   5.261   0.103   0.343 -0.5241 -0.1921 -0.3736
 1591TIP3    H126332   5.190   0.165   0.327 -1.5276 -1.3148 -0.4096
 1591TIP3    H226333   5.227   0.019   0.311  1.6557 -0.3672 -2.4786
 1592TIP3   OH226334   3.501   2.750   8.544 -0.2262 -0.3476  0.2954
 1592TIP3    H126335   3.498   2.689   8.618  0.1034  0.7031  1.2113
 1592TIP3    H226336   3.441   2.820   8.568 -1.6662 -0.9220 -1.3669
 1593TIP3   OH226337   3.088   1.501   0.359  0.2138  0.1284 -0.6668
 1593TIP3    H126338   2.997   1.500   0.389  0.3024  0.8257 -0.3452
 1593TIP3    H226339   3.119   1.589   0.381  0.9036 -0.0366 -0.9616
 1594TIP3   OH226340   5.717   3.279   8.686 -0.5038 -0.0067  0.0568
 1594TIP3    H126341   5.635   3.326   8.698 -0.5328  0.2114 -0.9452
 1594TIP3    H226342   5.765   3.331   8.622 -0.6078 -1.4213 -1.2151
 1595TIP3   OH226343   2.536   5.633   1.733 -0.2301  0.0496  0.3481
 1595TIP3    H126344   2.508   5.713   1.688  1.0748  0.0784 -0.4689
 1595TIP3    H226345   2.511   5.562   1.674  0.1498 -0.0208  0.2711
 1596TIP3   OH226346   3.625   0.892   8.500 -0.1718  0.1873  0.4521
 1596TIP3    H126347   3.659   0.841   8.574  2.2510 -1.4228 -1.6076
 1596TIP3    H226348   3.659   0.981   8.515 -0.1610  0.0158  1.5256
 1597TIP3   OH226349   1.133   2.357   0.593  0.5767  0.4666 -0.0661
 1597TIP3    H126350   1.084   2.411   0.530 -0.0272  0.1570  0.1285
 1597TIP3    H226351   1.225   2.376   0.574  0.4989  4.1376  2.1584
 1598TIP3   OH226352   3.768   0.009   1.832  0.4266  0.3461  0.5372
 1598TIP3    H126353   3.819   0.084   1.866  0.0822  0.8144  0.0378
 1598TIP3    H226354   3.804  -0.007   1.745  0.5750 -0.1512  0.6874
 1599TIP3   OH226355   4.190   4.131   2.174 -0.3502 -0.2126 -1.1119
 1599TIP3    H126356   4.116   4.127   2.113  1.1372  0.0228 -3.0382
 1599TIP3    H226357   4.253   4.189   2.131  0.5319  0.4993  0.9934
 1600TIP3   OH226358   1.586   2.489   0.256  0.0800 -0.0878  0.1899
 1600TIP3    H126359   1.509   2.541   0.279  0.0043  0.2108 -0.7162
 1600TIP3    H226360   1.660   2.536   0.297 -0.0117  0.6356 -0.4413
 1601TIP3   OH226361   0.651   5.249   0.954  0.2326 -0.0690  0.3524
 1601TIP3    H126362   0.656   5.344   0.966  0.5674 -0.1366  0.7871
 1601TIP3    H226363   0.738   5.225   0.921  0.1228 -0.2164  0.1701
 1602TIP3   OH226364   2.567   1.300   0.783  0.3892 -0.1369  0.4091
 1602TIP3    H126365   2.522   1.322   0.701  2.6574  0.4326 -0.7769
 1602TIP3    H226366   2.497   1.274   0.842 -1.6558  2.0961 -0.8189
 1603TIP3   OH226367   4.604   4.040   0.885 -0.5393 -0.0795  0.2162
 1603TIP3    H126368   4.611   3.960   0.936  1.3435 -1.0767 -1.4331
 1603TIP3    H226369   4.584   4.010   0.796 -0.2313  1.2916 -0.3451
 1604TIP3   OH226370   2.944   1.378   1.629  0.2681  0.3553  0.5537
 1604TIP3    H126371   3.018   1.436   1.616  1.0209 -1.0621 -2.2191
 1604TIP3    H226372   2.891   1.421   1.697  0.8818  4.1351 -1.1243
 1605TIP3   OH226373   6.745   3.240   0.711 -0.0281  0.0198 -0.4204
 1605TIP3    H126374   6.796   3.165   0.682  1.1375  1.2785 -1.7223
 1605TIP3    H226375   6.655   3.220   0.684  0.3960 -0.5645 -1.4414
 1606TIP3   OH226376   1.382   1.022   8.913  0.1078 -0.1833  0.4583
 1606TIP3    H126377   1.422   1.080   8.977  0.7822 -1.6834  1.4550
 1606TIP3    H226378   1.442   0.948   8.907  0.6832  0.3750 -2.7804
 1607TIP3   OH226379   4.778   5.509   3.044 -0.2520 -0.0273 -0.2000
 1607TIP3    H126380   4.828   5.550   2.973 -0.7255 -3.1709 -2.5388
 1607TIP3    H226381   4.842   5.496   3.114  1.2350 -0.2539 -1.5425
 1608TIP3   OH226382   4.102   2.363   0.218 -0.1405  0.6430  0.3339
 1608TIP3    H126383   4.007   2.352   0.209 -0.1615  0.5117  0.6725
 1608TIP3    H226384   4.139   2.291   0.169 -0.1203  2.3397 -2.3484
 1609TIP3   OH226385   4.339   0.180   0.839 -0.4163 -0.0338  0.2737
 1609TIP3    H126386   4.422   0.171   0.887 -0.5314 -0.0787  0.4652
 1609TIP3    H226387   4.317   0.091   0.813  0.2945  0.1292 -0.9702
 1610TIP3   OH226388   0.964   3.150   1.134 -0.2596  0.3277  0.5719
 1610TIP3    H126389   0.914   3.078   1.096 -1.5616  1.9679 -1.0653
 1610TIP3    H226390   1.055   3.124   1.124 -0.7076 -1.8578  1.7275
 1611TIP3   OH226391   6.031   2.538   7.121  0.1501 -0.1412  0.3218
 1611TIP3    H126392   5.938   2.517   7.115  0.0624  0.0358  1.0594
 1611TIP3    H226393   6.075   2.453   7.109 -0.1244 -0.3292  0.6332
 1612TIP3   OH226394   4.179   4.570   2.033  0.1169  0.3835  0.1900
 1612TIP3    H126395   4.247   4.630   2.000  0.2138  0.6229  0.8170
 1612TIP3    H226396   4.171   4.591   2.126 -0.2565 -0.1917  0.2935
 1613TIP3   OH226397   4.025   3.058   0.872  0.0620 -0.1779  0.2072
 1613TIP3    H126398   4.001   2.990   0.809 -0.0788 -1.1981  1.3316
 1613TIP3    H226399   3.946   3.111   0.881 -1.2399 -2.2637  2.2942
 1614TIP3   OH226400   5.278   0.588   1.154 -0.2749  0.9040 -0.6314
 1614TIP3    H126401   5.315   0.676   1.157 -0.8963  1.1506  2.1225
 1614TIP3    H226402   5.344   0.532   1.195 -0.7130  0.4347 -0.5538
 1615TIP3   OH226403   0.530   0.587   1.027  0.2343 -0.0282 -0.3842
 1615TIP3    H126404   0.499   0.564   1.115 -0.0299  1.9377  0.0735
 1615TIP3    H226405   0.473   0.536   0.969 -1.9048  1.1701  0.5234
 1616TIP3   OH226406   5.507   2.263   1.435 -0.3807  0.3275  0.1321
 1616TIP3    H126407   5.500   2.264   1.339 -2.6641  0.7432  0.2553
 1616TIP3    H226408   5.564   2.188   1.454  1.4114  1.1475 -1.5564
 1617TIP3   OH226409   5.500   5.985   7.742  0.0514 -0.2187  0.3096
 1617TIP3    H126410   5.440   5.911   7.739 -1.2969  0.8045  0.6842
 1617TIP3    H226411   5.512   6.010   7.650 -1.5334  0.6135  0.2767
 1618TIP3   OH226412   1.609   5.840   1.853  0.2218  0.3535  0.8521
 1618TIP3    H126413   1.697   5.876   1.853  0.3508  0.0437  0.7045
 1618TIP3    H226414   1.609   5.775   1.923 -0.0068  0.6343  1.1139
 1619TIP3   OH226415   1.545   0.402   0.368 -0.2250 -0.2997 -0.3442
 1619TIP3    H126416   1.502   0.418   0.452 -1.7149  1.2717 -1.3313
 1619TIP3    H226417   1.638   0.397   0.389 -0.3148  2.2965  1.1631
 1620TIP3   OH226418   4.908   3.551   0.602  0.7502 -0.2795 -0.3580
 1620TIP3    H126419   4.940   3.508   0.682 -0.0334  0.8960  0.6352
 1620TIP3    H226420   4.840   3.493   0.568  0.7350 -0.5460  0.1188
 1621TIP3   OH226421   4.922   2.747   1.488  0.5212 -0.0333  0.4079
 1621TIP3    H126422   5.004   2.745   1.537  2.7908  0.8359 -3.0772
 1621TIP3    H226423   4.871   2.817   1.529  2.3712  0.7880  1.4206
 1622TIP3   OH226424   0.098   4.143   8.806 -0.0124  0.0616  0.6289
 1622TIP3    H126425   0.167   4.210   8.806 -0.6324  0.7442 -0.9290
 1622TIP3    H226426   0.071   4.137   8.714  0.3523 -2.6924  0.6360
 1623TIP3   OH226427   0.377   4.255   8.858 -0.1562  0.2923 -0.0163
 1623TIP3    H126428   0.422   4.178   8.892  0.8799  0.7088 -0.3937
 1623TIP3    H226429   0.445   4.323   8.854 -1.2498  1.5273  1.2223
 1624TIP3   OH226430   5.458   4.128   1.883 -0.0283 -0.1151 -0.0223
 1624TIP3    H126431   5.525   4.171   1.934 -0.9143 -0.9231  1.9076
 1624TIP3    H226432   5.377   4.175   1.904 -0.3639 -0.2311 -0.9814
 1625TIP3   OH226433   0.260   3.097   7.789  0.0721 -0.0530  0.4119
 1625TIP3    H126434   0.298   3.009   7.785 -1.8024 -0.9506  1.4721
 1625TIP3    H226435   0.266   3.122   7.881  1.0474  1.1898  0.0479
 1626TIP3   OH226436   5.366   0.179   1.106 -0.2331 -0.0193 -0.0936
 1626TIP3    H126437   5.432   0.215   1.166 -1.5322  1.4562  0.5326
 1626TIP3    H226438   5.361   0.086   1.128  1.5109 -0.1311 -0.0638
 1627TIP3   OH226439   3.704   0.414   0.920 -0.0723  0.8663 -0.3040
 1627TIP3    H126440   3.735   0.459   0.999  0.5335 -1.6495  1.0083
 1627TIP3    H226441   3.609   0.422   0.923 -0.3620 -1.8057  2.5291
 1628TIP3   OH226442   2.053   3.254   0.546  0.3206  0.2274 -0.0163
 1628TIP3    H126443   2.091   3.306   0.475 -4.8778  0.1499 -3.3324
 1628TIP3    H226444   2.073   3.164   0.524 -0.3476  0.2637 -0.7826
 1629TIP3   OH226445   2.819   5.072   0.376 -0.4567  0.3384 -0.0732
 1629TIP3    H126446   2.845   5.146   0.321 -0.4223 -0.0923 -0.6495
 1629TIP3    H226447   2.798   5.002   0.314  0.3431 -0.4102  0.4719
 1630TIP3   OH226448   6.104   3.461   1.010  0.0722  0.0511  0.5743
 1630TIP3    H126449   6.148   3.546   1.003  1.0690 -0.3300  1.8973
 1630TIP3    H226450   6.142   3.420   1.087  1.1380 -2.4796 -1.1363
 1631TIP3   OH226451   0.824   1.102   0.054  0.5675 -0.4014  0.1621
 1631TIP3    H126452   0.832   1.017   0.011  1.4310 -0.2690  0.0349
 1631TIP3    H226453   0.731   1.110   0.077  0.3234 -0.9929 -0.6080
 1632TIP3   OH226454   2.565   1.142   8.361 -0.3939 -0.3431  0.1963
 1632TIP3    H126455   2.610   1.146   8.277  1.3528 -0.2752  1.1069
 1632TIP3    H226456   2.594   1.059   8.400  0.4732  0.6046  1.6232
 1633TIP3   OH226457   2.735   0.907   8.903  0.2002 -0.1768  0.1129
 1633TIP3    H126458   2.659   0.869   8.860 -0.8373  0.0389  1.6787
 1633TIP3    H226459   2.705   0.928   8.991  2.4405 -1.3277  1.2370
 1634TIP3   OH226460   4.452   1.811   8.641 -0.5532  0.4785 -0.5588
 1634TIP3    H126461   4.455   1.851   8.555  0.0734 -0.0079 -0.7729
 1634TIP3    H226462   4.491   1.877   8.699  0.5048  0.1727 -0.9124
 1635TIP3   OH226463   5.081   1.224   1.805  0.1466  1.0023 -0.1265
 1635TIP3    H126464   5.116   1.217   1.716 -1.7336  2.5684 -1.0453
 1635TIP3    H226465   4.987   1.235   1.794 -0.8167 -2.7836  2.2169
 1636TIP3   OH226466   5.673   5.950   0.512  0.5255  0.2778 -0.6392
 1636TIP3    H126467   5.655   6.010   0.584 -3.7419  0.4971 -1.5708
 1636TIP3    H226468   5.663   5.863   0.550  0.4431  0.3324 -0.5359
 1637TIP3   OH226469   5.879   5.180   1.018  0.1248 -0.1967 -0.0659
 1637TIP3    H126470   5.828   5.195   1.098  0.9319 -2.2773  0.8954
 1637TIP3    H226471   5.918   5.094   1.030  0.2535 -0.5818 -2.7479
 1638TIP3   OH226472   4.009   2.179   2.143  0.2769  0.4169 -0.8438
 1638TIP3    H126473   3.928   2.216   2.177 -0.3734 -0.0271 -1.8719
 1638TIP3    H226474   4.019   2.096   2.189 -0.2094  0.1555 -1.2170
 1639TIP3   OH226475   5.567   2.181   0.466 -0.5931  0.5939 -0.4443
 1639TIP3    H126476   5.599   2.261   0.423 -0.5893  0.7309 -0.1851
 1639TIP3    H226477   5.489   2.157   0.417  0.8273 -0.7177 -2.2204
 1640TIP3   OH226478   5.396   1.997   7.439  0.6409  0.1546 -0.4409
 1640TIP3    H126479   5.408   2.077   7.387 -0.5192  1.1098  0.6843
 1640TIP3    H226480   5.430   1.927   7.383  0.5427  1.2737 -1.9840
 1641TIP3   OH226481   2.734   1.037   1.504  0.1034 -0.5518  0.7419
 1641TIP3    H126482   2.666   0.985   1.546  0.2458  1.1798  3.3291
 1641TIP3    H226483   2.688   1.114   1.471  0.4193 -0.6417  0.0666
 1642TIP3   OH226484   1.399   4.640   0.944  0.0414 -0.0141  0.6305
 1642TIP3    H126485   1.397   4.635   1.040  1.5086  0.5796  0.7143
 1642TIP3    H226486   1.474   4.696   0.924 -0.0191 -0.4232 -0.8819
 1643TIP3   OH226487   0.194   6.300   8.705  0.0781  0.4205  0.0330
 1643TIP3    H126488   0.266   6.362   8.698  0.5480 -0.1441 -0.1990
 1643TIP3    H226489   0.161   6.291   8.616 -1.9672  2.6006  0.4425
 1644TIP3   OH226490   1.191   4.171   2.238  0.4042 -0.2352  0.3629
 1644TIP3    H126491   1.120   4.220   2.280  0.6327  0.2689  0.1706
 1644TIP3    H226492   1.200   4.212   2.152  1.1825 -0.0381  0.5262
 1645TIP3   OH226493   3.284   0.524   7.468  0.2542  0.1332 -0.0017
 1645TIP3    H126494   3.226   0.503   7.395  0.7375  0.6570 -0.5503
 1645TIP3    H226495   3.372   0.511   7.434  0.4699 -0.6064  0.8114
 1646TIP3   OH226496   0.318   2.560   1.622  0.1491 -0.0582  0.1268
 1646TIP3    H126497   0.330   2.542   1.715 -1.2793  0.4621  0.4363
 1646TIP3    H226498   0.294   2.475   1.585  0.4827 -0.2184  0.2758
 1647TIP3   OH226499   1.943   1.553   0.060 -0.1292 -0.1665 -0.0011
 1647TIP3    H126500   1.916   1.484   0.121 -2.8104  0.2354 -0.6393
 1647TIP3    H226501   1.947   1.632   0.114 -2.4520  0.1808 -0.2738
 1648TIP3   OH226502   4.777   1.466   1.378 -0.0130  0.1204  0.5664
 1648TIP3    H126503   4.805   1.553   1.350 -0.3899  0.8132  2.1951
 1648TIP3    H226504   4.802   1.408   1.306 -1.2102  1.7789 -1.3038
 1649TIP3   OH226505   1.654   0.970   7.391 -0.2490 -0.2247  0.5777
 1649TIP3    H126506   1.634   1.063   7.394 -0.0912 -0.0800 -1.6384
 1649TIP3    H226507   1.678   0.953   7.300  1.2463 -2.1209  1.2562
 1650TIP3   OH226508   4.281   5.090   7.552 -0.2275 -0.3242 -0.9108
 1650TIP3    H126509   4.368   5.071   7.517 -1.4599  0.3611 -4.7778
 1650TIP3    H226510   4.283   5.184   7.572 -0.2843 -0.1591 -1.6719
 1651TIP3   OH226511   2.932   2.629   7.593 -0.0102 -0.5116  0.0778
 1651TIP3    H126512   2.945   2.587   7.678 -2.1097 -0.7041  0.3636
 1651TIP3    H226513   2.890   2.562   7.539  0.2750 -0.0356 -0.7457
 1652TIP3   OH226514   6.124   5.278   0.261  0.0351 -0.2495  0.3750
 1652TIP3    H126515   6.200   5.313   0.216 -2.1379  2.7412 -1.3873
 1652TIP3    H226516   6.130   5.313   0.350 -0.0662  1.4779 -0.2522
 1653TIP3   OH226517   4.256   5.328   7.679 -0.3759  0.2040 -0.8171
 1653TIP3    H126518   4.209   5.403   7.713 -0.9526 -1.0984  1.4172
 1653TIP3    H226519   4.336   5.323   7.732 -0.5723 -1.0057 -0.6001
 1654TIP3   OH226520   5.393   2.857   0.791 -0.4318  0.4066 -0.0105
 1654TIP3    H126521   5.418   2.942   0.753 -1.4645  0.6366 -0.2063
 1654TIP3    H226522   5.363   2.805   0.716 -1.6857  0.5733  0.3463
 1655TIP3   OH226523   6.224   2.546   2.083 -0.3099 -0.4042  0.2886
 1655TIP3    H126524   6.305   2.561   2.033 -1.2612 -0.7080 -1.4279
 1655TIP3    H226525   6.245   2.474   2.141  0.6400 -0.5323 -0.1959
 1656TIP3   OH226526   4.000   3.096   7.573 -1.0809 -0.9134 -0.1975
 1656TIP3    H126527   3.951   3.151   7.512 -0.4035  0.8633  0.7556
 1656TIP3    H226528   4.091   3.100   7.541 -0.9034 -0.8336  0.2969
 1657TIP3   OH226529   0.734   2.148   7.469  0.1478 -0.5051  0.0129
 1657TIP3    H126530   0.771   2.205   7.536 -0.7047 -0.9938  0.9243
 1657TIP3    H226531   0.652   2.190   7.443  0.1309 -0.6781 -0.2217
 1658TIP3   OH226532   2.388   3.708   7.210  0.7154 -0.5733 -0.4965
 1658TIP3    H126533   2.463   3.653   7.231  0.4272 -1.1688 -0.9901
 1658TIP3    H226534   2.325   3.690   7.279  0.7283 -0.6584 -0.5069
 1659TIP3   OH226535   4.716   6.571   2.801  0.4107  0.0325  0.0790
 1659TIP3    H126536   4.732   6.566   2.707  0.7627  0.0698  0.1388
 1659TIP3    H226537   4.721   6.480   2.831 -0.3440 -0.0618 -0.0412
 1660TIP3   OH226538   5.443   6.664   8.262 -0.0200  0.5072  0.1554
 1660TIP3    H126539   5.514   6.683   8.323 -0.7463 -0.0466  1.2131
 1660TIP3    H226540   5.420   6.573   8.279 -0.0545  0.2460 -1.1715
 1661TIP3   OH226541   5.184   3.277   2.254 -0.4279 -0.3119 -0.2493
 1661TIP3    H126542   5.204   3.187   2.277 -0.4628  0.0033  1.1227
 1661TIP3    H226543   5.267   3.314   2.224 -0.2802 -0.6245 -0.2240
 1662TIP3   OH226544   6.079   3.187   1.389  0.4878 -0.5209  0.1234
 1662TIP3    H126545   6.057   3.096   1.367  1.0055 -0.8020  0.7676
 1662TIP3    H226546   6.019   3.209   1.460  1.1108 -0.7208  0.7119
 1663TIP3   OH226547   6.312   5.324   2.170  0.0851 -0.3341 -0.7869
 1663TIP3    H126548   6.271   5.398   2.126  0.2479 -1.0946 -2.2853
 1663TIP3    H226549   6.300   5.342   2.263 -1.4105  0.7073 -1.1433
 1664TIP3   OH226550   1.041   5.976   7.041  0.1436  0.0437 -0.8911
 1664TIP3    H126551   0.980   5.973   7.115  1.8170  1.4011  0.6495
 1664TIP3    H226552   1.000   6.037   6.980 -0.4505  0.2912 -0.2663
 1665TIP3   OH226553   4.556   2.103   1.756  0.4223  0.1865  0.4508
 1665TIP3    H126554   4.541   2.008   1.759 -2.4084  0.3738 -2.5395
 1665TIP3    H226555   4.616   2.115   1.682  2.1992  0.6924  1.9072
 1666TIP3   OH226556   3.374   6.122   0.064  0.0689 -0.2533  0.1718
 1666TIP3    H126557   3.313   6.053   0.038 -0.5972  0.2950  0.2837
 1666TIP3    H226558   3.329   6.204   0.044  1.6313  0.1901 -1.8704
 1667TIP3   OH226559   0.909   4.293   8.003  0.3719  0.3462  0.5082
 1667TIP3    H126560   0.882   4.207   7.972  2.2296 -0.3477  0.6747
 1667TIP3    H226561   0.963   4.328   7.932  0.6014  0.8577  0.9308
 1668TIP3   OH226562   6.590   6.407   8.204  0.2810  0.4962  0.0247
 1668TIP3    H126563   6.606   6.496   8.237  3.3088  0.0727  0.0003
 1668TIP3    H226564   6.500   6.388   8.230 -0.1814  3.2234  0.8013
 1669TIP3   OH226565   6.022   0.056   0.673 -0.4100 -0.2435  0.0620
 1669TIP3    H126566   6.059   0.065   0.586  1.5011  2.6311  1.0220
 1669TIP3    H226567   5.930   0.033   0.659  0.0492 -0.7143 -2.6211
 1670TIP3   OH226568   0.671   5.345   7.547  0.1395  0.3808 -0.0260
 1670TIP3    H126569   0.707   5.341   7.458 -1.3603  0.4564 -0.6600
 1670TIP3    H226570   0.673   5.437   7.570 -0.2905  0.4676 -0.3342
 1671TIP3   OH226571   3.378   6.121   8.040  0.0742  0.2609  0.0242
 1671TIP3    H126572   3.350   6.168   7.962  0.1530  0.1116 -0.0932
 1671TIP3    H226573   3.433   6.050   8.008 -1.9043 -1.3614  0.0105
 1672TIP3   OH226574   3.096   2.510   2.116  0.3825  0.7893  0.0050
 1672TIP3    H126575   3.023   2.526   2.056 -1.2648  1.8417  2.1614
 1672TIP3    H226576   3.061   2.449   2.181  1.6447  0.8371  0.7649
 1673TIP3   OH226577   0.123   1.781   1.623  0.1856 -0.1023 -0.4569
 1673TIP3    H126578   0.040   1.798   1.578 -0.3977 -1.1356  0.1787
 1673TIP3    H226579   0.096   1.751   1.711  1.2065  5.5823  2.2517
 1674TIP3   OH226580   4.970   1.774   7.940 -0.5585 -0.1375 -0.0119
 1674TIP3    H126581   5.021   1.818   8.008 -1.1422  0.2597  0.1793
 1674TIP3    H226582   4.879   1.784   7.968 -0.7381 -1.0051 -0.2470
 1675TIP3   OH226583   5.829   1.099   7.901  0.2479  0.2770  0.2891
 1675TIP3    H126584   5.760   1.105   7.836 -0.0690 -0.6965  0.5298
 1675TIP3    H226585   5.822   1.181   7.951 -1.1477 -0.0857  0.7276
 1676TIP3   OH226586   2.303   3.388   1.651 -0.0637  0.1021 -0.1810
 1676TIP3    H126587   2.309   3.354   1.562 -0.4428  2.6069 -1.2574
 1676TIP3    H226588   2.219   3.434   1.653  0.8473  1.8047  0.7824
 1677TIP3   OH226589   3.657   2.502   2.581  0.4382 -0.5872 -0.4324
 1677TIP3    H126590   3.715   2.430   2.607  1.5298  0.3740 -0.0887
 1677TIP3    H226591   3.635   2.546   2.662 -3.1959 -2.5495 -0.1384
 1678TIP3   OH226592   0.679   0.606   7.737  0.2179 -0.5406 -0.0138
 1678TIP3    H126593   0.609   0.540   7.746  0.7357 -1.0963 -0.0222
 1678TIP3    H226594   0.726   0.602   7.821  2.0279 -2.2545 -1.0182
 1679TIP3   OH226595   5.789   5.278   7.216  0.3788 -0.2558  0.2324
 1679TIP3    H126596   5.829   5.192   7.228 -0.5025 -0.7022  0.0936
 1679TIP3    H226597   5.801   5.298   7.123  0.6689 -0.1870  0.2851
 1680TIP3   OH226598   3.997   2.334   7.451 -0.3813  0.1660 -0.3668
 1680TIP3    H126599   3.936   2.398   7.415 -1.3178  0.2527  1.2562
 1680TIP3    H226600   3.945   2.254   7.461  0.1033 -0.1204 -0.1040
 1681TIP3   OH226601   6.041   3.038   8.336  0.2439 -0.8087  0.1637
 1681TIP3    H126602   6.076   3.126   8.326  0.2200 -0.9312 -1.1776
 1681TIP3    H226603   6.034   3.004   8.246 -1.8511 -1.3556  0.4825
 1682TIP3   OH226604   2.472   6.431   0.198  0.1268 -0.0167  0.0346
 1682TIP3    H126605   2.420   6.500   0.238 -0.4625 -0.0382 -0.6786
 1682TIP3    H226606   2.505   6.380   0.272 -1.7324 -0.6301  0.5052
 1683TIP3   OH226607   1.869   4.019   0.807 -0.1801  0.2749 -0.2569
 1683TIP3    H126608   1.866   3.946   0.868 -0.8228 -1.0642 -1.8152
 1683TIP3    H226609   1.891   3.979   0.723 -0.2700  1.9171 -1.1039
 1684TIP3   OH226610   1.860   3.860   0.385 -0.5009 -0.5940 -0.0716
 1684TIP3    H126611   1.818   3.778   0.414 -1.0576 -0.5277 -0.6765
 1684TIP3    H226612   1.945   3.832   0.351  1.7507 -0.3745  4.5901
 1685TIP3   OH226613   2.863   0.037   7.941 -0.0764  0.3071  0.2079
 1685TIP3    H126614   2.932  -0.011   7.986 -0.1062 -0.2302 -0.2967
 1685TIP3    H226615   2.908   0.080   7.868 -0.3842 -0.6749 -0.5818
 1686TIP3   OH226616   2.359   3.433   0.627  0.1469  0.1052 -0.8647
 1686TIP3    H126617   2.348   3.507   0.687  2.7248 -0.3528  0.2807
 1686TIP3    H226618   2.449   3.438   0.597 -0.3083 -1.2441 -2.6516
 1687TIP3   OH226619   4.869   5.316   0.716 -0.2105 -0.1663 -0.2096
 1687TIP3    H126620   4.803   5.379   0.746 -0.3901 -1.0668  1.4032
 1687TIP3    H226621   4.917   5.293   0.795  1.6407 -0.0248 -1.2494
 1688TIP3   OH226622   3.210   3.691   0.099  0.2613 -0.2072 -0.6614
 1688TIP3    H126623   3.228   3.761   0.036  1.4852  0.6659  0.6113
 1688TIP3    H226624   3.120   3.707   0.127  1.1967  2.2953  1.2697
 1689TIP3   OH226625   4.929   0.590   7.324 -0.1998  0.3485  0.6579
 1689TIP3    H126626   5.018   0.558   7.310 -0.4910 -0.7529  1.2548
 1689TIP3    H226627   4.882   0.565   7.245 -0.2602 -0.1183  0.8373
 1690TIP3   OH226628   0.853   4.070   8.787 -0.1297  0.5671 -1.0812
 1690TIP3    H126629   0.814   4.143   8.834  0.9344 -1.5205  3.5704
 1690TIP3    H226630   0.808   3.992   8.819  2.6912 -1.2930 -1.2060
 1691TIP3   OH226631   0.239   0.397   7.157 -0.8170  0.0237 -0.0807
 1691TIP3    H126632   0.148   0.426   7.153 -0.3897  1.4302 -0.3792
 1691TIP3    H226633   0.237   0.316   7.208 -2.5384 -1.3993 -2.2185
 1692TIP3   OH226634   1.909   4.950   1.678  0.1531 -0.3836  0.3584
 1692TIP3    H126635   1.969   4.998   1.621 -0.4403 -0.5957 -0.4665
 1692TIP3    H226636   1.953   4.866   1.694 -0.1252 -0.7388 -0.6551
 1693TIP3   OH226637   0.524   1.739   0.271 -0.4165 -0.2265  0.1812
 1693TIP3    H126638   0.566   1.812   0.224 -1.6547  0.2805 -0.1698
 1693TIP3    H226639   0.440   1.728   0.228 -0.4393 -1.5876  0.5312
 1694TIP3   OH226640   1.177   2.321   7.554 -0.0986 -0.0031 -0.7434
 1694TIP3    H126641   1.193   2.352   7.643  1.5410  0.4262 -1.1555
 1694TIP3    H226642   1.205   2.230   7.555  1.5248  0.4672 -1.2142
 1695TIP3   OH226643   2.988   1.420   2.560  0.0808 -0.1046 -0.2959
 1695TIP3    H126644   3.064   1.478   2.568 -0.1147  0.0347  0.7371
 1695TIP3    H226645   2.970   1.393   2.650 -2.0809  1.1127 -0.3161
 1696TIP3   OH226646   3.851   2.383   0.963 -0.1623  0.2374 -0.1487
 1696TIP3    H126647   3.807   2.299   0.978  2.4548 -1.2054  0.0749
 1696TIP3    H226648   3.929   2.360   0.913  1.5498  2.2627  1.4440
 1697TIP3   OH226649   0.421   5.673   8.431  0.0124  0.3917  0.0812
 1697TIP3    H126650   0.495   5.733   8.436  0.3639  0.1388 -1.6364
 1697TIP3    H226651   0.381   5.692   8.346 -0.3229 -1.2828 -0.1567
 1698TIP3   OH226652   4.356   5.124   1.770  0.0020  0.1342 -0.1623
 1698TIP3    H126653   4.409   5.050   1.801 -1.0733 -0.1437  1.0794
 1698TIP3    H226654   4.407   5.161   1.697  1.0850 -1.1432 -0.0896
 1699TIP3   OH226655   5.130   6.651   2.257  0.9391 -0.0185  0.0965
 1699TIP3    H126656   5.110   6.712   2.328  0.9343 -0.2094  0.2597
 1699TIP3    H226657   5.160   6.571   2.301 -0.6189 -0.7208 -0.0397
 1700TIP3   OH226658   2.023   4.788   0.870  0.1507  0.2597  0.2646
 1700TIP3    H126659   2.117   4.808   0.876  0.1574 -0.1541  2.5369
 1700TIP3    H226660   2.019   4.698   0.839  0.4812  0.3922 -0.1754
 1701TIP3   OH226661   2.801   5.481   0.450  0.5371 -0.0051 -0.1944
 1701TIP3    H126662   2.760   5.401   0.482  0.6010  0.1740  0.3554
 1701TIP3    H226663   2.806   5.538   0.527  1.5782  0.0689 -0.2938
 1702TIP3   OH226664   2.416   3.003   0.050 -0.0290 -0.0370  0.8842
 1702TIP3    H126665   2.374   3.084   0.022  2.0297  0.7649 -0.1107
 1702TIP3    H226666   2.386   2.937  -0.012  1.0243  0.7670 -0.5238
 1703TIP3   OH226667   0.922   5.210   8.593 -0.0002 -0.2816  0.2320
 1703TIP3    H126668   0.872   5.196   8.512  0.8006  0.4503 -0.4031
 1703TIP3    H226669   0.904   5.132   8.646  1.3079 -1.9376 -1.6222
 1704TIP3   OH226670   2.303   1.898   0.617  0.0075 -0.0227  0.1453
 1704TIP3    H126671   2.215   1.930   0.636  0.6391  0.8616  1.8850
 1704TIP3    H226672   2.353   1.977   0.596  0.4485 -0.4876 -0.5798
 1705TIP3   OH226673   2.906   2.433   0.198 -0.4952 -0.6441  0.0707
 1705TIP3    H126674   2.865   2.462   0.280  0.4602 -1.6415  0.9187
 1705TIP3    H226675   2.936   2.344   0.216 -0.1508 -0.8282 -1.3285
 1706TIP3   OH226676   4.251   4.358   8.627  0.1014  0.0222 -0.3218
 1706TIP3    H126677   4.196   4.290   8.587  0.4564  1.0526 -2.7150
 1706TIP3    H226678   4.200   4.438   8.619  0.1309  0.2745  1.5223
 1707TIP3   OH226679   3.801   0.458   7.518 -0.1416  0.1590  0.0474
 1707TIP3    H126680   3.862   0.418   7.456 -1.0581 -1.2701  0.0059
 1707TIP3    H226681   3.829   0.425   7.604  0.3596  1.1294  0.2699
 1708TIP3   OH226682   5.490   0.665   0.016 -0.6232 -0.0294 -0.0279
 1708TIP3    H126683   5.530   0.747   0.042 -0.7960 -0.0554  0.3171
 1708TIP3    H226684   5.510   0.604   0.087 -0.0630 -0.4288 -0.5069
 1709TIP3   OH226685   2.905   5.334   7.277  0.3699  0.0505 -0.7765
 1709TIP3    H126686   2.881   5.245   7.250 -0.6998  0.3164 -0.7375
 1709TIP3    H226687   2.827   5.367   7.322  0.8598  0.9109 -0.5402
 1710TIP3   OH226688   4.617   1.853   2.727  0.4179  0.3581 -0.3295
 1710TIP3    H126689   4.554   1.814   2.667  0.3010 -0.8085  0.4989
 1710TIP3    H226690   4.702   1.833   2.689  0.3870 -1.3923  0.4249
 1711TIP3   OH226691   2.826   3.372   1.992 -0.1552  0.0066  0.4238
 1711TIP3    H126692   2.906   3.413   1.959 -0.1268  0.2998  0.8532
 1711TIP3    H226693   2.854   3.326   2.071  0.1993 -2.3961 -1.0069
 1712TIP3   OH226694   0.041   5.370   1.883  0.1600  0.5816  0.7998
 1712TIP3    H126695   0.005   5.454   1.911  0.4485  1.2347 -0.6832
 1712TIP3    H226696   0.009   5.358   1.794  0.2479 -0.8246  0.9266
 1713TIP3   OH226697   0.264   2.915   0.061 -0.0231  0.7166  0.6084
 1713TIP3    H126698   0.335   2.974   0.039 -0.5172  0.6289 -1.4407
 1713TIP3    H226699   0.204   2.967   0.115  1.5926  0.7466  2.4642
 1714TIP3   OH226700   4.535   3.107   8.316  0.6892  0.2505  0.0565
 1714TIP3    H126701   4.541   3.096   8.411  1.4057  0.4339  0.0422
 1714TIP3    H226702   4.491   3.028   8.285  0.2762  0.2823  0.5638
 1715TIP3   OH226703   4.452   4.909   7.127  0.1720  0.3980  0.0664
 1715TIP3    H126704   4.523   4.972   7.118  0.5617 -0.2050 -1.2244
 1715TIP3    H226705   4.372   4.962   7.126  0.5353  0.9504  0.0432
 1716TIP3   OH226706   1.734   6.195   0.808  0.3343 -0.3086  0.1122
 1716TIP3    H126707   1.677   6.207   0.732  0.0543  1.5305  0.5575
 1716TIP3    H226708   1.815   6.240   0.785 -0.2797  1.5572  1.4194
 1717TIP3   OH226709   5.524   5.847   7.107  0.0023  0.0972 -0.5476
 1717TIP3    H126710   5.441   5.865   7.151  1.0862 -0.6369  1.9660
 1717TIP3    H226711   5.517   5.756   7.079  0.6711 -0.6131  1.4785
 1718TIP3   OH226712   6.121   3.643   8.945 -0.1602  0.6430 -0.3993
 1718TIP3    H126713   6.116   3.621   8.852 -1.7179  0.7167 -0.3611
 1718TIP3    H226714   6.056   3.712   8.957  1.1615  1.7937  0.4513
 1719TIP3   OH226715   1.803   5.398   1.441  0.3702  0.1281  0.5809
 1719TIP3    H126716   1.728   5.435   1.395  1.3849  1.5167 -0.0204
 1719TIP3    H226717   1.773   5.312   1.470  0.1442 -1.6901 -4.1482
 1720TIP3   OH226718   5.190   5.393   8.575 -0.4811  0.3615  0.4144
 1720TIP3    H126719   5.230   5.348   8.500  0.6944  1.2738  0.4676
 1720TIP3    H226720   5.191   5.327   8.645  2.0178  0.6424  0.7498
 1721TIP3   OH226721   5.125   2.923   0.884  0.1790  0.1345 -0.2033
 1721TIP3    H126722   5.178   2.988   0.930  0.6570 -0.6337  0.3684
 1721TIP3    H226723   5.186   2.884   0.821 -0.2887  0.7022 -1.0262
 1722TIP3   OH226724   3.524   5.390   1.367  0.2272  0.4135 -0.8894
 1722TIP3    H126725   3.449   5.442   1.395  0.0192  0.2616 -1.1669
 1722TIP3    H226726   3.576   5.378   1.447  0.3159  1.1059 -0.8352
 1723TIP3   OH226727   4.707   2.955   2.016 -0.1678  0.1978  0.0293
 1723TIP3    H126728   4.701   2.961   2.111  0.0229  0.8536  0.0043
 1723TIP3    H226729   4.794   2.988   1.995 -0.7627  1.5438 -0.4825
 1724TIP3   OH226730   3.520   3.805   7.927 -0.4856  0.2282  0.2354
 1724TIP3    H126731   3.515   3.891   7.884 -2.6238 -0.1130 -0.2872
 1724TIP3    H226732   3.474   3.746   7.868 -0.9060 -0.8546  1.6086
 1725TIP3   OH226733   6.213   3.244   8.385  0.0563 -0.0679  0.2320
 1725TIP3    H126734   6.305   3.223   8.399  0.1629  0.5216  0.4322
 1725TIP3    H226735   6.214   3.330   8.342 -0.3668 -0.5189 -0.7099
 1726TIP3   OH226736   2.280   0.420   0.250  0.0106 -0.0273 -0.2142
 1726TIP3    H126737   2.324   0.375   0.178 -0.8134  0.1598 -0.8531
 1726TIP3    H226738   2.272   0.510   0.221 -1.0208 -0.1155 -0.2283
 1727TIP3   OH226739   4.655   1.062   0.162  0.3751 -0.0535 -0.1238
 1727TIP3    H126740   4.719   1.080   0.093  0.4922  2.2359  0.5205
 1727TIP3    H226741   4.576   1.110   0.135  0.7877  1.8604  1.8267
 1728TIP3   OH226742   0.594   0.814   0.921  0.4424  0.3157  0.2673
 1728TIP3    H126743   0.661   0.858   0.973  0.2195  0.0062  0.8161
 1728TIP3    H226744   0.575   0.734   0.969 -0.5988  0.5798  0.3175
 1729TIP3   OH226745   0.794   6.289   7.548  0.5171 -0.4282  0.1823
 1729TIP3    H126746   0.794   6.249   7.461 -0.1519 -1.4842  0.6382
 1729TIP3    H226747   0.767   6.380   7.533 -0.2985 -0.7873 -0.6387
 1730TIP3   OH226748   6.231   1.130   1.828 -0.4707  0.0016 -0.1713
 1730TIP3    H126749   6.164   1.198   1.817 -0.5596 -0.3121 -1.7519
 1730TIP3    H226750   6.313   1.174   1.805 -0.5004 -0.3338 -0.9651
 1731TIP3   OH226751   6.577   1.756   0.735  0.2038  0.5659 -0.6629
 1731TIP3    H126752   6.637   1.736   0.807  0.5630 -0.8068 -1.3107
 1731TIP3    H226753   6.493   1.771   0.777  0.6656  0.9818  0.1363
 1732TIP3   OH226754   4.279   4.214   0.898 -0.6836  0.1835 -0.1637
 1732TIP3    H126755   4.305   4.143   0.840  1.3674  2.0245 -1.6809
 1732TIP3    H226756   4.187   4.230   0.877 -0.5381 -0.5449 -1.4581
 1733TIP3   OH226757   6.730   5.963   1.687  0.1536 -0.0143  0.1159
 1733TIP3    H126758   6.807   5.948   1.741 -1.4032 -3.5806  1.7150
 1733TIP3    H226759   6.693   6.045   1.718  1.2000 -0.2282  2.0645
 1734TIP3   OH226760   6.608   0.153   8.254  0.2064 -0.0742  0.3809
 1734TIP3    H126761   6.554   0.183   8.327  0.2273  1.2970 -0.1420
 1734TIP3    H226762   6.692   0.199   8.265  0.2761  0.0079 -0.3882
 1735TIP3   OH226763   1.925   6.188   7.796  0.3304 -0.1469  1.0517
 1735TIP3    H126764   1.938   6.249   7.723  0.0624 -0.7916  0.4515
 1735TIP3    H226765   1.982   6.221   7.865  0.8569  0.2818  0.4285
 1736TIP3   OH226766   5.458   6.616   0.270 -0.1591 -0.1208 -0.2388
 1736TIP3    H126767   5.414   6.533   0.252  0.5210 -0.8096  1.1954
 1736TIP3    H226768   5.544   6.608   0.229 -0.2400  0.0550 -0.4505
 1737TIP3   OH226769   0.650   3.246   8.109 -0.4651 -0.1120  0.8099
 1737TIP3    H126770   0.611   3.323   8.066  0.9405  0.7032  0.9340
 1737TIP3    H226771   0.737   3.276   8.136 -1.0185 -0.7911  3.6344
 1738TIP3   OH226772   3.116   3.952   0.471  0.5172  0.2789 -1.1965
 1738TIP3    H126773   3.070   3.893   0.530  0.7587  0.5295 -0.7510
 1738TIP3    H226774   3.103   4.039   0.510 -0.8899  0.6983 -2.4973
 1739TIP3   OH226775   2.524   3.869   2.200 -0.1920 -0.1136  0.1475
 1739TIP3    H126776   2.456   3.806   2.226 -0.6884 -0.0052 -0.8615
 1739TIP3    H226777   2.604   3.817   2.199  0.7651  0.6331  5.8151
 1740TIP3   OH226778   3.924   5.709   8.285 -0.2994  0.1474 -0.1233
 1740TIP3    H126779   3.842   5.757   8.295 -0.6802 -0.9011  2.7227
 1740TIP3    H226780   3.993   5.773   8.301 -0.7684  0.1203  2.3876
 1741TIP3   OH226781   1.170   0.051   7.903 -0.3366 -0.0359  0.3975
 1741TIP3    H126782   1.170   0.070   7.810 -0.7681  1.4965  0.6916
 1741TIP3    H226783   1.125  -0.033   7.911 -0.8733  0.1374 -0.7050
 1742TIP3   OH226784   0.026   3.378   8.709  0.5820  0.0217  0.2746
 1742TIP3    H126785   0.038   3.473   8.718  0.6549  0.4782 -3.0813
 1742TIP3    H226786   0.095   3.351   8.648 -1.2998 -1.5588 -1.2927
 1743TIP3   OH226787   1.898   2.233   0.121  0.3344 -0.7764 -0.2773
 1743TIP3    H126788   1.878   2.305   0.061  1.1229 -0.8622 -0.6508
 1743TIP3    H226789   1.841   2.248   0.196 -0.2518 -0.3429 -0.7947
 1744TIP3   OH226790   3.714   1.120   7.673  0.4036 -0.5850 -0.8643
 1744TIP3    H126791   3.796   1.158   7.642  0.2130 -0.7878 -1.6302
 1744TIP3    H226792   3.647   1.156   7.615 -0.1140 -0.1156 -0.0065
 1745TIP3   OH226793   1.772   0.880   2.656  0.0026  0.1628  0.4861
 1745TIP3    H126794   1.698   0.820   2.662  0.2075 -0.2275 -0.5948
 1745TIP3    H226795   1.755   0.947   2.721 -0.9320 -0.3239  0.7508
 1746TIP3   OH226796   1.107   4.693   1.061  0.2599 -0.3198  0.1392
 1746TIP3    H126797   1.176   4.738   1.013  1.9933 -0.9986  1.8827
 1746TIP3    H226798   1.095   4.744   1.141 -1.1083 -0.3683  0.0031
 1747TIP3   OH226799   1.852   1.060   7.915  0.5129  0.0486 -0.3856
 1747TIP3    H126800   1.832   1.135   7.971  1.3844  0.2620 -0.3460
 1747TIP3    H226801   1.778   1.000   7.927 -0.1128  0.8346 -0.3027
 1748TIP3   OH226802   0.255   2.665   0.494  0.5773  0.3249  0.6735
 1748TIP3    H126803   0.283   2.680   0.584 -0.4011 -0.7286  1.1808
 1748TIP3    H226804   0.222   2.576   0.493 -3.0874  1.5135  0.2626
 1749TIP3   OH226805   2.191   1.459   1.728 -0.2302 -0.3537  0.4602
 1749TIP3    H126806   2.260   1.399   1.700 -1.9654 -2.3436  0.2352
 1749TIP3    H226807   2.215   1.482   1.818  0.5567 -1.2645  0.5010
 1750TIP3   OH226808   4.161   3.025   6.882 -0.1626  0.4949 -0.1295
 1750TIP3    H126809   4.077   3.071   6.887  0.2945  1.2173  2.3381
 1750TIP3    H226810   4.137   2.934   6.861 -1.9140  0.0247  3.2430
 1751TIP3   OH226811   0.984   0.884   8.429  0.4740 -0.7749 -0.0694
 1751TIP3    H126812   1.065   0.885   8.480 -0.1401  0.2718  0.9382
 1751TIP3    H226813   0.914   0.879   8.494 -0.3191  0.2372 -0.8101
 1752TIP3   OH226814   3.473   0.181   7.972  0.1468  0.3045 -0.0509
 1752TIP3    H126815   3.526   0.250   7.933  0.0236  0.6152  0.3230
 1752TIP3    H226816   3.536   0.121   8.011  0.2295  0.5692  0.2224
 1753TIP3   OH226817   4.149   3.636   7.910 -0.1703  0.4131  0.6685
 1753TIP3    H126818   4.082   3.703   7.923 -1.4385 -0.4276 -1.1340
 1753TIP3    H226819   4.121   3.589   7.831  3.4660  1.1482 -1.2768
 1754TIP3   OH226820   3.940   0.379   8.926  0.5588  0.9422  0.1232
 1754TIP3    H126821   4.021   0.337   8.899  0.1902  0.5723 -0.4264
 1754TIP3    H226822   3.905   0.419   8.847 -0.2721  0.2762  0.1359
 1755TIP3   OH226823   3.391   1.612   0.588 -0.2849  0.4593 -0.3297
 1755TIP3    H126824   3.462   1.548   0.578 -0.5033  0.2459 -0.5256
 1755TIP3    H226825   3.322   1.565   0.635 -1.0633  0.0455 -1.7997
 1756TIP3   OH226826   3.611   4.750   1.560  0.4328 -0.2440  0.3939
 1756TIP3    H126827   3.702   4.740   1.589  0.4182 -1.5216  0.0876
 1756TIP3    H226828   3.611   4.830   1.508  0.9932  0.7251  1.8239
 1757TIP3   OH226829   0.032   2.396   1.281 -0.1469  0.8045 -0.5247
 1757TIP3    H126830   0.121   2.432   1.284  0.4604 -0.5919  2.3909
 1757TIP3    H226831  -0.025   2.473   1.279  1.1053  1.7579 -0.9046
 1758TIP3   OH226832   0.017   1.031   0.341 -0.3588 -0.3409  0.4649
 1758TIP3    H126833   0.062   1.097   0.288  0.3230  0.6012  2.1407
 1758TIP3    H226834   0.070   1.022   0.419 -0.8568 -2.3648  0.6291
 1759TIP3   OH226835   6.698   4.617   0.466  0.0861  0.1699 -0.0207
 1759TIP3    H126836   6.653   4.533   0.463  1.6075 -0.7335  1.2996
 1759TIP3    H226837   6.762   4.609   0.537  2.3963  1.3429 -1.8156
 1760TIP3   OH226838   1.795   0.925   2.369 -0.0584  0.0651 -0.1253
 1760TIP3    H126839   1.727   0.863   2.341 -0.2747  0.5393 -0.6505
 1760TIP3    H226840   1.758   0.968   2.446  0.2218 -0.6782  0.4388
 1761TIP3   OH226841   3.754   4.586   0.899 -0.8380 -0.1852 -0.4278
 1761TIP3    H126842   3.821   4.541   0.950  0.0422  0.6351 -0.8473
 1761TIP3    H226843   3.773   4.563   0.808 -0.7252  0.5562 -0.5997
 1762TIP3   OH226844   3.390   2.327   1.094  0.5269  0.2973 -0.9487
 1762TIP3    H126845   3.442   2.393   1.049  1.1109 -1.1253 -2.4719
 1762TIP3    H226846   3.315   2.312   1.036 -2.8277  3.6239  2.0097
 1763TIP3   OH226847   1.619   0.582   8.483  0.6880  0.3170 -0.1310
 1763TIP3    H126848   1.691   0.579   8.419 -0.0767  1.7128 -1.1213
 1763TIP3    H226849   1.617   0.674   8.511  0.5272 -0.1262  1.3702
 1764TIP3   OH226850   5.018   0.708   0.219  0.3190  0.1710  0.0520
 1764TIP3    H126851   5.083   0.727   0.151 -0.0411  0.2907 -0.2631
 1764TIP3    H226852   4.983   0.794   0.243  0.1778  0.0936  0.1244
 1765TIP3   OH226853   6.184   2.638   6.866 -0.0545 -0.5683  0.1012
 1765TIP3    H126854   6.259   2.651   6.808  0.5735  0.1392  1.0446
 1765TIP3    H226855   6.148   2.553   6.841 -0.2253  0.0155 -1.7788
 1766TIP3   OH226856   1.150   2.809   8.709 -0.3065  0.3208  0.0520
 1766TIP3    H126857   1.162   2.886   8.763 -0.5702 -0.3964  1.1695
 1766TIP3    H226858   1.136   2.843   8.620  3.1167  1.4252 -0.2011
 1767TIP3   OH226859   2.944   2.895   2.434  0.3568  0.2472 -0.4176
 1767TIP3    H126860   2.956   2.818   2.488  1.8829 -1.1994 -2.6421
 1767TIP3    H226861   2.859   2.883   2.392 -0.2885  0.7881  0.6966
 1768TIP3   OH226862   0.625   3.280   1.059 -0.3440  0.1801 -0.0247
 1768TIP3    H126863   0.557   3.340   1.026  0.1117  0.8584  0.2574
 1768TIP3    H226864   0.606   3.271   1.152  0.4963  1.1021  0.2423
 1769TIP3   OH226865   5.978   6.422   0.925  0.2272 -0.5649 -0.1750
 1769TIP3    H126866   6.064   6.444   0.961 -0.0507 -0.2643  0.3137
 1769TIP3    H226867   5.959   6.492   0.863  0.4692 -0.8014 -0.5257
 1770TIP3   OH226868   1.495   3.798   8.321 -0.3075  0.1306 -0.4833
 1770TIP3    H126869   1.508   3.725   8.261  0.2585 -0.3280  0.1817
 1770TIP3    H226870   1.473   3.872   8.265  2.6329  0.3462 -1.4984
 1771TIP3   OH226871   3.833   2.197   8.228 -0.3246 -0.0999  0.1842
 1771TIP3    H126872   3.902   2.239   8.280  1.0947 -1.0877 -0.8242
 1771TIP3    H226873   3.776   2.155   8.292 -0.7355  1.7394  1.1158
 1772TIP3   OH226874   3.290   2.543   1.411  0.0297 -0.0715 -0.5570
 1772TIP3    H126875   3.242   2.524   1.492  0.1624 -1.9154 -0.8763
 1772TIP3    H226876   3.255   2.627   1.382 -0.5446  0.2778  1.0173
 1773TIP3   OH226877   2.765   6.442   1.423 -0.4758 -0.6922  0.3082
 1773TIP3    H126878   2.792   6.388   1.498 -0.2391 -1.4251 -0.2898
 1773TIP3    H226879   2.806   6.400   1.347 -0.2329  0.3752 -0.1706
 1774TIP3   OH226880   2.876   5.457   2.716 -0.1100 -0.4529  0.4855
 1774TIP3    H126881   2.888   5.365   2.690 -1.5655  0.2061 -3.1790
 1774TIP3    H226882   2.781   5.467   2.726  0.0767  0.5324  1.4252
 1775TIP3   OH226883   3.055   5.151   8.890  0.8178  0.1309  0.0577
 1775TIP3    H126884   3.061   5.129   8.983 -1.2373  1.7625  0.6605
 1775TIP3    H226885   3.146   5.170   8.864  1.3972 -0.0784  1.7908
 1776TIP3   OH226886   4.260   6.488   8.259 -0.2141 -0.1324  0.2381
 1776TIP3    H126887   4.196   6.471   8.329 -0.1836 -0.0592  0.2845
 1776TIP3    H226888   4.243   6.420   8.194 -0.9888  0.4659 -0.2050
 1777TIP3   OH226889   6.271   0.041   0.037 -0.1533  0.2876  0.7285
 1777TIP3    H126890   6.281  -0.018  -0.038 -0.0025  0.2482  0.7802
 1777TIP3    H226891   6.298  -0.011   0.113  0.2251  0.5006  0.7428
 1778TIP3   OH226892   5.219   3.679   2.115  0.5393 -0.2204 -0.3623
 1778TIP3    H126893   5.235   3.773   2.107 -0.8419 -0.0104 -0.8167
 1778TIP3    H226894   5.247   3.657   2.204  1.7737  0.4094 -0.5707
 1779TIP3   OH226895   0.216   4.758   2.703 -0.2668  0.0876  0.6165
 1779TIP3    H126896   0.138   4.737   2.755 -0.4875  0.3036  0.3722
 1779TIP3    H226897   0.271   4.680   2.710 -1.2479 -0.7446 -0.5931
 1780TIP3   OH226898   4.592   1.639   0.829 -0.0357 -0.3259  0.0539
 1780TIP3    H126899   4.659   1.686   0.779 -0.2141 -0.5596 -0.4020
 1780TIP3    H226900   4.582   1.691   0.909  1.3727 -0.8010  0.5643
 1781TIP3   OH226901   0.826   0.929   7.296  0.0322 -0.1623  0.2999
 1781TIP3    H126902   0.827   0.879   7.215 -0.2925 -1.3799  1.0162
 1781TIP3    H226903   0.916   0.924   7.329  0.1783  0.3839 -0.0132
 1782TIP3   OH226904   2.020   3.717   8.528 -0.2294  0.5728 -0.6663
 1782TIP3    H126905   2.012   3.720   8.433 -1.1382  0.3700 -0.6026
 1782TIP3    H226906   1.941   3.672   8.557 -0.2669  1.2080  0.2287
 1783TIP3   OH226907   1.540   2.940   1.051 -0.4444  0.0444  0.0368
 1783TIP3    H126908   1.631   2.948   1.022 -0.8891 -1.1411 -1.8225
 1783TIP3    H226909   1.519   3.026   1.086  1.3232  0.4016  0.3167
 1784TIP3   OH226910   1.939   3.404   0.943  0.3555 -0.3584  0.3986
 1784TIP3    H126911   1.923   3.457   0.865 -0.0083 -0.6204  0.2949
 1784TIP3    H226912   1.977   3.323   0.910 -1.4162 -1.1982  0.3223
 1785TIP3   OH226913   5.937   0.896   0.691  0.5078  0.0152  0.0180
 1785TIP3    H126914   6.015   0.917   0.638  0.1046  0.7598 -0.2955
 1785TIP3    H226915   5.889   0.979   0.697 -1.2034 -0.8048 -1.3538
 1786TIP3   OH226916   6.498   0.599   8.302  0.2426 -0.0793  0.9583
 1786TIP3    H126917   6.544   0.577   8.382  1.1510  1.1398  0.8033
 1786TIP3    H226918   6.540   0.680   8.271  1.0585 -1.3756 -1.6348
 1787TIP3   OH226919   5.989   3.090   0.198 -0.3512  0.2631  0.0349
 1787TIP3    H126920   6.081   3.118   0.203 -0.3073  0.6411 -2.0116
 1787TIP3    H226921   5.983   3.017   0.259  1.0792  0.7879  0.8655
 1788TIP3   OH226922   2.483   2.384   8.526  0.4564 -0.2892 -0.5711
 1788TIP3    H126923   2.535   2.384   8.606 -0.6111 -1.9106  0.1650
 1788TIP3    H226924   2.547   2.372   8.456  1.4577  1.6073 -0.0519
 1789TIP3   OH226925   4.008   0.106   8.178 -0.0546 -0.8397  0.1572
 1789TIP3    H126926   4.063   0.097   8.256 -0.5960  2.7891  1.1418
 1789TIP3    H226927   3.923   0.074   8.204  0.2280 -1.3598  0.4475
 1790TIP3   OH226928   2.132   1.937   7.151  0.2197 -0.0039  0.1438
 1790TIP3    H126929   2.188   1.990   7.207 -0.3507  0.9766 -0.1814
 1790TIP3    H226930   2.189   1.906   7.081  1.0559 -1.6557  1.4950
 1791TIP3   OH226931   0.252   2.653   1.288  0.1695  0.0161  0.2314
 1791TIP3    H126932   0.245   2.636   1.383 -0.2900 -1.4052 -0.0265
 1791TIP3    H226933   0.162   2.652   1.257  0.2371  1.6305 -0.0667
 1792TIP3   OH226934   3.508   4.498   7.941 -0.1860 -0.5069  0.0531
 1792TIP3    H126935   3.473   4.560   7.877  1.7836  0.0805 -0.5108
 1792TIP3    H226936   3.434   4.480   8.000 -0.7633  2.5283  0.3881
 1793TIP3   OH226937   5.746   3.431   8.325 -0.2233 -0.2782 -0.1424
 1793TIP3    H126938   5.779   3.471   8.245 -1.5038  1.6130  0.2103
 1793TIP3    H226939   5.818   3.441   8.388  0.9707 -2.1998 -1.1046
 1794TIP3   OH226940   5.538   1.692   0.956 -0.3364  0.2877  0.1533
 1794TIP3    H126941   5.464   1.677   1.015  0.3041 -0.7205  0.7441
 1794TIP3    H226942   5.615   1.683   1.012  0.2429  1.5916 -0.3924
 1795TIP3   OH226943   2.737   1.086   1.161  0.0856  0.1491  0.2166
 1795TIP3    H126944   2.749   1.178   1.137 -0.4323  0.5421  1.3832
 1795TIP3    H226945   2.787   1.037   1.096 -0.2873  1.2136 -0.9013
 1796TIP3   OH226946   4.975   4.369   1.841 -0.0029  0.1160  0.4964
 1796TIP3    H126947   4.890   4.332   1.862 -1.5482  2.3246 -1.3545
 1796TIP3    H226948   4.981   4.448   1.896  1.1660 -0.3571  1.0842
 1797TIP3   OH226949   1.129   2.664   0.534  0.6601  0.3125 -0.1877
 1797TIP3    H126950   1.055   2.699   0.584  0.5994 -0.1260  0.0374
 1797TIP3    H226951   1.201   2.726   0.551  1.0564 -0.5739  1.6195
 1798TIP3   OH226952   6.282   2.809   8.107 -0.2007  0.4083 -1.0572
 1798TIP3    H126953   6.269   2.748   8.180 -0.4538  0.9852 -0.6133
 1798TIP3    H226954   6.249   2.893   8.140  1.9221  1.2535 -0.9334
 1799TIP3   OH226955   5.429   5.224   8.057 -0.1165 -0.1292 -0.4178
 1799TIP3    H126956   5.449   5.282   8.131  1.6204 -0.1664 -0.8108
 1799TIP3    H226957   5.491   5.152   8.066 -1.5609 -1.4358 -0.5311
 1800TIP3   OH226958   1.621   4.766   0.833  0.0608  0.2240  0.3527
 1800TIP3    H126959   1.573   4.835   0.786 -1.7837 -0.0621  1.7154
 1800TIP3    H226960   1.704   4.808   0.858  0.1312  1.0727 -1.1671
 1801TIP3   OH226961   2.932   6.690   0.057 -0.2548 -0.0365  0.3552
 1801TIP3    H126962   2.960   6.780   0.040 -0.9744 -0.1050 -1.3870
 1801TIP3    H226963   2.852   6.699   0.109  0.2132  0.2849  1.0337
 1802TIP3   OH226964   3.020   1.675   8.078  0.1204  0.1257 -0.5382
 1802TIP3    H126965   3.043   1.660   8.170  1.9614 -0.4884 -1.0513
 1802TIP3    H226966   3.078   1.746   8.051 -0.1232  0.0296 -1.3333
 1803TIP3   OH226967   2.513   0.934   8.518  0.0840 -0.0129 -0.0440
 1803TIP3    H126968   2.443   0.889   8.471  2.3523 -0.8346 -3.0011
 1803TIP3    H226969   2.556   0.864   8.568  0.4920 -0.1201 -0.5333
 1804TIP3   OH226970   2.253   1.927   0.984  0.2046  0.3478  0.1207
 1804TIP3    H126971   2.314   1.993   0.951 -0.3083  0.2214 -1.1365
 1804TIP3    H226972   2.307   1.851   1.002  0.2636 -0.5701 -3.1360
 1805TIP3   OH226973   1.009   0.804   7.570 -0.2323 -0.7152  0.1349
 1805TIP3    H126974   1.033   0.795   7.478  1.0854  0.8665  0.2910
 1805TIP3    H226975   1.019   0.716   7.606  1.0981 -0.9837 -0.8198
 1806TIP3   OH226976   5.508   1.894   8.359  0.1732  0.7922  0.4470
 1806TIP3    H126977   5.428   1.859   8.318 -0.0180 -0.0470  1.5005
 1806TIP3    H226978   5.476   1.963   8.417  0.0787 -0.1846  1.5988
 1807TIP3   OH226979   1.112   1.136   8.385 -0.1885  0.0075 -0.2250
 1807TIP3    H126980   1.160   1.165   8.307  1.2985  0.8439  0.9396
 1807TIP3    H226981   1.041   1.082   8.351  2.0868 -2.0729 -2.0122
 1808TIP3   OH226982   2.584   0.278   2.879 -0.4511  0.7793 -0.2010
 1808TIP3    H126983   2.594   0.351   2.940  0.3602  1.8081 -1.4968
 1808TIP3    H226984   2.502   0.295   2.833 -1.2217 -0.1599  0.7702
 1809TIP3   OH226985   4.550   0.107   1.003 -0.3848 -0.4519 -0.0929
 1809TIP3    H126986   4.544   0.039   1.069  3.0872 -0.8801 -0.0613
 1809TIP3    H226987   4.606   0.174   1.042 -0.8703  0.7923 -1.4347
 1810TIP3   OH226988   2.317   3.842   0.896 -0.4780  0.4272 -0.3868
 1810TIP3    H126989   2.238   3.888   0.925  0.2392  1.1997  0.3718
 1810TIP3    H226990   2.306   3.753   0.930 -0.2319  0.9827  1.2597
 1811TIP3   OH226991   4.533   0.463   1.517 -0.2930  0.1064 -0.3909
 1811TIP3    H126992   4.565   0.551   1.539  3.0540 -0.2585 -3.0285
 1811TIP3    H226993   4.601   0.404   1.551 -0.1613 -1.0851 -2.5847
 1812TIP3   OH226994   2.617   2.044   8.086 -0.7555 -0.2340 -0.4183
 1812TIP3    H126995   2.553   2.043   8.015 -0.0015 -1.9320 -1.1255
 1812TIP3    H226996   2.676   1.971   8.066  0.5181  0.3580  1.0129
 1813TIP3   OH226997   2.911   5.814   1.831  0.1635  0.1689 -0.3316
 1813TIP3    H126998   2.846   5.754   1.867  1.8783 -1.0261  0.9740
 1813TIP3    H226999   2.864   5.864   1.764 -2.3779  0.2454  1.3730
 1814TIP3   OH227000   6.480   2.363   8.609 -0.2124  0.3817  0.4149
 1814TIP3    H127001   6.417   2.383   8.539  2.8388  4.1484 -1.6782
 1814TIP3    H227002   6.447   2.410   8.685 -2.3539 -1.8155  0.9485
 1815TIP3   OH227003   0.500   6.062   0.018  0.2903 -0.3218  0.2877
 1815TIP3    H127004   0.456   6.133   0.065  1.2944  0.3710  0.1923
 1815TIP3    H227005   0.430   5.999  -0.001 -0.2656 -0.2820  2.0668
 1816TIP3   OH227006   0.749   3.889   1.506 -0.3133 -0.0671  0.2012
 1816TIP3    H127007   0.833   3.909   1.548 -0.1004 -0.9172  0.1939
 1816TIP3    H227008   0.729   3.799   1.533 -0.0500 -0.7357 -1.6707
 1817TIP3   OH227009   5.534   0.674   0.350  0.3303  0.0896  0.5598
 1817TIP3    H127010   5.530   0.593   0.299 -0.4441 -0.1122  0.9245
 1817TIP3    H227011   5.547   0.645   0.440  0.1586  0.3732  0.6776
 1818TIP3   OH227012   2.226   0.538   1.179  0.5551  0.4593  0.5656
 1818TIP3    H127013   2.290   0.589   1.129  0.5055  0.4780  0.5212
 1818TIP3    H227014   2.169   0.604   1.219  0.1076  0.4219  0.0006
 1819TIP3   OH227015   3.321   3.129   7.417  0.0238  0.3233  0.2843
 1819TIP3    H127016   3.375   3.051   7.407  0.4511  0.8841 -2.5568
 1819TIP3    H227017   3.368   3.197   7.368 -1.7288  1.6341  0.3406
 1820TIP3   OH227018   4.072   6.268   7.209 -0.0690 -0.0557 -0.0572
 1820TIP3    H127019   4.102   6.352   7.174 -1.9481  1.1844  1.1241
 1820TIP3    H227020   3.981   6.260   7.178 -0.4431 -0.8623  1.1582
 1821TIP3   OH227021   1.084   4.795   1.991 -0.2782  0.4824 -0.3362
 1821TIP3    H127022   1.093   4.890   1.999  0.9527  0.4208 -0.7521
 1821TIP3    H227023   1.019   4.771   2.058 -1.3248  1.7123 -0.8692
 1822TIP3   OH227024   2.959   4.682   1.771 -0.2612 -0.0378  0.4958
 1822TIP3    H127025   3.030   4.663   1.833  1.4358  0.6794 -1.1342
 1822TIP3    H227026   2.926   4.596   1.745  0.0269 -0.3834  1.2432
 1823TIP3   OH227027   6.043   1.650   1.459 -0.2658  0.3824 -0.1884
 1823TIP3    H127028   6.075   1.714   1.396 -0.6783  0.8236  0.0459
 1823TIP3    H227029   6.005   1.702   1.529  2.7741  0.0454  1.9084
 1824TIP3   OH227030   1.463   5.325   1.826 -0.5210  0.1104 -0.4700
 1824TIP3    H127031   1.437   5.409   1.864  0.0269 -0.1012  0.4027
 1824TIP3    H227032   1.555   5.337   1.803 -0.4727 -0.2087 -0.4450
 1825TIP3   OH227033   4.252   3.024   1.811 -0.2064 -0.1194 -0.1200
 1825TIP3    H127034   4.260   2.930   1.827  0.0243 -0.0354  0.2652
 1825TIP3    H227035   4.162   3.045   1.839 -0.0265 -0.0971  0.4474
 1826TIP3   OH227036   2.235   2.691   1.703  0.3627  0.0155 -0.1336
 1826TIP3    H127037   2.154   2.694   1.652 -0.4138  0.8231  1.0854
 1826TIP3    H227038   2.302   2.663   1.640 -0.9318 -1.1700 -1.0623
 1827TIP3   OH227039   2.455   1.001   7.595 -0.1878  0.3456 -0.3243
 1827TIP3    H127040   2.530   1.014   7.654 -0.3566  0.5861 -0.1635
 1827TIP3    H227041   2.478   1.052   7.517  0.0171  0.0605 -0.4500
 1828TIP3   OH227042   0.297   3.330   0.517  0.6463 -0.1820  0.6873
 1828TIP3    H127043   0.339   3.305   0.600  0.1262 -2.0491  0.4433
 1828TIP3    H227044   0.229   3.264   0.505  0.2928  0.4411 -0.9296
 1829TIP3   OH227045   0.536   5.402   2.379 -0.2668 -1.0238  0.1284
 1829TIP3    H127046   0.566   5.342   2.448  0.8493 -0.9960 -0.3270
 1829TIP3    H227047   0.517   5.484   2.426 -1.4906 -1.5952  0.7035
 1830TIP3   OH227048   2.735   1.443   2.426 -0.1098 -0.1193  0.0280
 1830TIP3    H127049   2.692   1.360   2.406  0.2157 -0.0995 -0.7822
 1830TIP3    H227050   2.815   1.418   2.473  0.1252 -0.2834 -0.4531
 1831TIP3   OH227051   3.077   1.577   8.608  0.5825  0.1902 -0.5344
 1831TIP3    H127052   3.037   1.635   8.673  0.6656 -0.2638 -0.0769
 1831TIP3    H227053   3.141   1.525   8.658  1.3102  0.4763 -1.1400
 1832TIP3   OH227054   4.066   5.302   0.565 -0.0640 -0.3059  0.2600
 1832TIP3    H127055   3.973   5.324   0.570  0.0090 -0.1306  0.9565
 1832TIP3    H227056   4.082   5.288   0.471 -0.1965  2.2754 -0.2191
 1833TIP3   OH227057   1.065   3.793   1.002 -0.1977  0.5098  0.5661
 1833TIP3    H127058   1.119   3.725   1.043 -0.6523  0.3589  0.9197
 1833TIP3    H227059   1.104   3.875   1.033  1.8137  0.5123 -1.6931
 1834TIP3   OH227060   2.970   1.365   7.636 -0.3302  0.4445  0.6095
 1834TIP3    H127061   2.962   1.380   7.542  0.3417  0.6725  0.5843
 1834TIP3    H227062   3.051   1.316   7.646 -0.0685  0.9674  1.1193
 1835TIP3   OH227063   0.337   1.601   2.493  0.2785 -0.6646 -0.6847
 1835TIP3    H127064   0.313   1.689   2.522 -0.7738 -0.4280 -2.1058
 1835TIP3    H227065   0.253   1.554   2.488  0.8558 -1.8934  0.4130
 1836TIP3   OH227066   0.452   3.784   7.733 -0.7894  0.0160  0.0286
 1836TIP3    H127067   0.472   3.775   7.640 -0.6381 -4.2363  0.2724
 1836TIP3    H227068   0.357   3.788   7.737 -0.7885  0.4505 -0.2812
 1837TIP3   OH227069   6.647   1.360   7.155  0.2856  0.1046  0.0361
 1837TIP3    H127070   6.658   1.266   7.169  1.9023  0.4108  1.0826
 1837TIP3    H227071   6.727   1.387   7.110  0.6778  1.2712  1.3668
 1838TIP3   OH227072   4.293   4.815   2.944  0.1941 -0.2518 -0.0296
 1838TIP3    H127073   4.379   4.787   2.914  0.5126  0.6166  0.0533
 1838TIP3    H227074   4.277   4.897   2.899 -0.2853 -0.0511  0.4896
 1839TIP3   OH227075   6.109   5.229   0.872  0.3544 -0.4485 -0.1027
 1839TIP3    H127076   6.046   5.201   0.938 -0.9033 -0.4169 -1.2560
 1839TIP3    H227077   6.104   5.163   0.803  0.8721  0.0708 -0.6593
 1840TIP3   OH227078   0.775   0.289   7.819 -0.2042  0.4612 -0.4713
 1840TIP3    H127079   0.693   0.249   7.847 -0.8736  2.0240 -0.0884
 1840TIP3    H227080   0.793   0.250   7.734 -0.2073 -1.4646  0.3697
 1841TIP3   OH227081   3.144   0.429   1.737 -0.1718  0.6790 -0.7251
 1841TIP3    H127082   3.191   0.508   1.712  1.0741 -0.2710 -1.4873
 1841TIP3    H227083   3.103   0.398   1.656  2.1255 -1.2499 -1.2335
 1842TIP3   OH227084   4.588   2.003   8.788 -0.1410 -0.7701 -0.3747
 1842TIP3    H127085   4.637   1.968   8.862  0.1412 -0.5161 -0.4388
 1842TIP3    H227086   4.644   2.072   8.752 -0.0897 -1.1756 -1.0887
 1843TIP3   OH227087   6.523   2.158   2.536  0.3812 -0.6540 -0.0211
 1843TIP3    H127088   6.569   2.088   2.488 -1.3620 -1.8212 -0.0849
 1843TIP3    H227089   6.519   2.231   2.474  2.1333 -0.5030  0.0022
 1844TIP3   OH227090   4.013   4.443   0.431 -0.0230 -0.3206 -0.2634
 1844TIP3    H127091   4.070   4.370   0.407  0.4806 -0.1261  0.3094
 1844TIP3    H227092   4.001   4.492   0.350  1.9636  0.5576 -0.0845
 1845TIP3   OH227093   0.751   2.864   0.055 -0.7827 -0.7668  0.0792
 1845TIP3    H127094   0.819   2.808   0.018 -1.7883 -0.6546 -2.0743
 1845TIP3    H227095   0.795   2.910   0.126  0.6653 -2.6147  0.4697
 1846TIP3   OH227096   5.694   2.106   7.347  0.3222 -0.5793  0.0321
 1846TIP3    H127097   5.788   2.087   7.349  0.5837  0.6841  1.7765
 1846TIP3    H227098   5.677   2.136   7.257  1.3553 -1.8032 -0.5975
 1847TIP3   OH227099   3.814   3.422   8.544 -0.0595 -0.1028  0.4364
 1847TIP3    H127100   3.786   3.342   8.499  0.2346 -1.1847  2.1180
 1847TIP3    H227101   3.795   3.492   8.481 -0.3955 -1.4660 -1.0438
 1848TIP3   OH227102   5.253   6.041   8.542 -0.3423 -0.1299  0.7822
 1848TIP3    H127103   5.201   6.121   8.549 -0.0166  0.0265  1.5322
 1848TIP3    H227104   5.291   6.030   8.630  0.1515 -0.7385  0.4949
 1849TIP3   OH227105   5.261   5.582   1.034  0.3374 -0.2829  0.0999
 1849TIP3    H127106   5.196   5.532   0.983 -0.6777 -0.0292  1.0994
 1849TIP3    H227107   5.244   5.673   1.011 -2.0395  0.1267  2.8472
 1850TIP3   OH227108   1.316   2.304   1.397 -0.1937  0.0926  0.1581
 1850TIP3    H127109   1.312   2.256   1.480 -0.0822  0.0332  0.1297
 1850TIP3    H227110   1.325   2.395   1.423  0.5329  0.0108  0.2135
 1851TIP3   OH227111   1.776   4.268   1.321 -0.3066 -0.2921 -0.9594
 1851TIP3    H127112   1.718   4.332   1.363 -0.6197 -0.4010 -1.2246
 1851TIP3    H227113   1.749   4.184   1.358  0.8284 -0.1835  0.2308
 1852TIP3   OH227114   4.940   1.469   2.004  0.4008 -0.1288  0.3612
 1852TIP3    H127115   4.913   1.400   1.944  0.2298 -1.0654  1.4932
 1852TIP3    H227116   4.949   1.547   1.949  0.8035 -1.0916 -0.9673
 1853TIP3   OH227117   6.694   5.120   0.972  0.8723 -0.2377  0.2465
 1853TIP3    H127118   6.706   5.055   0.904  3.3595 -0.1332  0.4889
 1853TIP3    H227119   6.730   5.201   0.935 -1.1857  0.7784  0.3429
 1854TIP3   OH227120   3.358   0.297   0.418 -0.1951  0.0440  0.1107
 1854TIP3    H127121   3.353   0.371   0.479 -0.7323  0.8727 -0.8907
 1854TIP3    H227122   3.431   0.318   0.360 -2.2683  1.5157 -2.2308
 1855TIP3   OH227123   5.109   2.239   0.819  0.3662 -0.0028  0.7132
 1855TIP3    H127124   5.056   2.187   0.759  0.4489  0.0245  0.6167
 1855TIP3    H227125   5.138   2.176   0.886  4.1875 -1.2050 -1.7341
 1856TIP3   OH227126   3.279   1.013   8.256 -0.2190 -0.3806  0.0783
 1856TIP3    H127127   3.193   1.055   8.262 -0.7019 -1.3680  0.2902
 1856TIP3    H227128   3.341   1.082   8.275 -1.0561 -0.0745  1.8605
 1857TIP3   OH227129   6.652   4.257   8.080  0.3263 -0.5382 -0.8274
 1857TIP3    H127130   6.716   4.288   8.016  0.6235 -0.7071 -0.6181
 1857TIP3    H227131   6.692   4.177   8.116  0.0449 -0.5857 -0.6170
 1858TIP3   OH227132   3.843   3.112   1.992  0.0235 -0.7376  0.0456
 1858TIP3    H127133   3.876   3.105   2.081  0.0501 -1.8072 -0.0361
 1858TIP3    H227134   3.775   3.045   1.986 -2.0896  1.2210  0.1433
 1859TIP3   OH227135   3.444   0.149   2.987 -0.2356 -0.1044  1.0289
 1859TIP3    H127136   3.398   0.125   3.068 -0.2271  2.2731  1.8266
 1859TIP3    H227137   3.386   0.212   2.944  1.5789  1.9359  1.3943
 1860TIP3   OH227138   1.927   4.888   2.300  0.3922  0.1698 -0.5377
 1860TIP3    H127139   2.014   4.855   2.320  1.3239  2.7613  0.1579
 1860TIP3    H227140   1.910   4.859   2.210  1.0039 -2.1540  0.0390
 1861TIP3   OH227141   4.122   4.308   1.415  0.1412  0.0227 -0.1685
 1861TIP3    H127142   4.100   4.281   1.504  0.6540 -0.2587 -0.1206
 1861TIP3    H227143   4.174   4.235   1.380  1.7261  1.0196  0.0394
 1862TIP3   OH227144   3.925   2.478   1.244  0.0022 -0.5414  0.2313
 1862TIP3    H127145   3.960   2.391   1.228 -0.1912 -0.3680 -1.2269
 1862TIP3    H227146   3.878   2.500   1.164  2.0612  1.8910 -0.4305
 1863TIP3   OH227147   3.311   5.655   0.286 -0.2211  0.0350  0.5772
 1863TIP3    H127148   3.328   5.697   0.202  0.8673  0.1653  0.8413
 1863TIP3    H227149   3.222   5.622   0.279  0.1185 -0.6469 -0.9225
 1864TIP3   OH227150   5.542   4.946   0.312 -0.2033 -0.0258 -0.3304
 1864TIP3    H127151   5.633   4.924   0.333  0.5100  2.6983 -0.2262
 1864TIP3    H227152   5.521   4.889   0.238  1.8426 -0.2432 -0.8144
 1865TIP3   OH227153   5.606   0.298   8.552  0.0114  0.3389 -0.0689
 1865TIP3    H127154   5.551   0.254   8.617  0.7873 -1.1886 -0.4215
 1865TIP3    H227155   5.544   0.324   8.483 -0.4475 -0.2803  0.1026
 1866TIP3   OH227156   6.182   0.446   0.896  0.7030  0.2737 -0.1328
 1866TIP3    H127157   6.195   0.445   0.991 -0.2163  1.0922  0.0142
 1866TIP3    H227158   6.094   0.411   0.883  0.9643 -0.1939 -0.7216
 1867TIP3   OH227159   3.455   4.525   1.604  0.2163 -0.2933 -0.2632
 1867TIP3    H127160   3.492   4.604   1.564  1.9002 -1.3660 -0.8942
 1867TIP3    H227161   3.530   4.469   1.623 -0.6380 -0.4914  3.1204
 1868TIP3   OH227162   4.342   4.915   1.066  0.0231 -0.2521  0.2404
 1868TIP3    H127163   4.415   4.946   1.119 -0.1971 -1.5922  1.3592
 1868TIP3    H227164   4.264   4.952   1.108 -0.0028  1.1214 -0.9113
 1869TIP3   OH227165   5.136   1.666   0.472  0.0598  0.5919  0.0013
 1869TIP3    H127166   5.227   1.644   0.452 -0.0937  1.2211 -1.5264
 1869TIP3    H227167   5.138   1.760   0.489 -0.3724  0.7041 -0.5448
 1870TIP3   OH227168   0.344   0.991   7.497 -0.2235  0.1997 -0.5076
 1870TIP3    H127169   0.412   0.927   7.477 -0.2960 -0.0038 -0.1203
 1870TIP3    H227170   0.265   0.939   7.513  0.2349  0.1522  2.1689
 1871TIP3   OH227171   1.760   3.064   2.736 -0.3730  0.0651  0.7641
 1871TIP3    H127172   1.771   2.969   2.735  1.1916  0.1943 -1.1045
 1871TIP3    H227173   1.678   3.078   2.783 -1.6587 -2.3345 -0.5272
 1872TIP3   OH227174   6.339   1.853   0.837 -0.1906  0.2755 -0.1185
 1872TIP3    H127175   6.370   1.942   0.820  0.4128  0.0911 -0.0004
 1872TIP3    H227176   6.278   1.862   0.911  1.5982  0.3111  1.4386
 1873TIP3   OH227177   3.965   4.510   1.856 -0.1234  0.1238  0.0129
 1873TIP3    H127178   3.890   4.521   1.914  0.4171 -0.9983  0.9699
 1873TIP3    H227179   4.041   4.534   1.910  0.1953  2.3433 -1.2596
 1874TIP3   OH227180   2.475   5.971   7.056  0.1712 -0.2938 -0.3609
 1874TIP3    H127181   2.511   5.978   6.968  0.0709  1.9251 -0.2831
 1874TIP3    H227182   2.544   5.929   7.107  0.7944 -0.3019 -1.1978
 1875TIP3   OH227183   4.109   3.013   8.852  0.0167  0.1672 -0.2504
 1875TIP3    H127184   4.062   2.930   8.842 -0.4266  0.3533  0.2266
 1875TIP3    H227185   4.040   3.080   8.850  0.2265  0.4220  0.7953
 1876TIP3   OH227186   4.195   4.427   8.093  0.5387  0.0495 -0.3754
 1876TIP3    H127187   4.250   4.395   8.021  0.1024 -1.4339 -0.0639
 1876TIP3    H227188   4.246   4.499   8.130  1.5018 -0.1948 -1.1630
 1877TIP3   OH227189   3.529   1.448   0.000 -0.4640 -0.0517  1.2644
 1877TIP3    H127190   3.617   1.414  -0.014 -0.3747  0.5506  0.2792
 1877TIP3    H227191   3.507   1.420   0.089  0.7391 -0.1615  1.5521
 1878TIP3   OH227192   5.817   0.990   2.279 -0.2320  0.2532  0.7064
 1878TIP3    H127193   5.730   0.952   2.287 -0.6720  0.9733 -0.5038
 1878TIP3    H227194   5.812   1.071   2.329 -0.5894  0.8207 -0.2319
 1879TIP3   OH227195   4.585   6.669   7.746 -0.1040 -0.1880 -0.2997
 1879TIP3    H127196   4.647   6.696   7.813 -0.4299 -0.8252  0.2738
 1879TIP3    H227197   4.579   6.745   7.687 -0.3818  0.6765  0.8027
 1880TIP3   OH227198   1.993   4.274   0.346 -0.1286  0.8899 -0.1670
 1880TIP3    H127199   2.039   4.322   0.415  2.7658  0.8881 -1.9212
 1880TIP3    H227200   1.921   4.230   0.391  0.7724  1.9846  2.5657
 1881TIP3   OH227201   5.851   2.485   7.372 -0.0962 -0.1737 -0.0758
 1881TIP3    H127202   5.830   2.489   7.278  0.4972 -1.7331 -0.3193
 1881TIP3    H227203   5.946   2.495   7.375  0.0343 -1.3444  0.2207
 1882TIP3   OH227204   3.299   0.874   7.975  0.8480  0.1642 -0.1993
 1882TIP3    H127205   3.299   0.947   7.913  1.1251  0.8918  0.6251
 1882TIP3    H227206   3.286   0.916   8.060  0.2936 -0.8296  0.2205
 1883TIP3   OH227207   3.838   4.199   0.456  0.4222  0.3796 -0.0026
 1883TIP3    H127208   3.912   4.257   0.436 -1.0299  1.4433 -2.7853
 1883TIP3    H227209   3.870   4.112   0.434  0.3695  1.0319 -3.0897
 1884TIP3   OH227210   0.699   3.427   8.428  0.4037 -0.5860  0.2579
 1884TIP3    H127211   0.751   3.451   8.505 -0.7458  2.1739  0.2852
 1884TIP3    H227212   0.739   3.475   8.356 -0.6147 -0.3481 -0.1704
 1885TIP3   OH227213   2.792   1.968   7.560  0.1422  0.4874  0.3752
 1885TIP3    H127214   2.820   1.926   7.641 -0.6125 -0.7169  0.0491
 1885TIP3    H227215   2.697   1.964   7.562  0.0992  0.9170 -0.3325
 1886TIP3   OH227216   1.575   0.032   8.415  0.1511 -0.2424  0.8077
 1886TIP3    H127217   1.646   0.083   8.378 -0.1195  0.8026  1.6710
 1886TIP3    H227218   1.503   0.040   8.352  0.4256 -0.3772  0.4771
 1887TIP3   OH227219   6.217   3.603   0.596 -0.1220 -0.4504  0.2213
 1887TIP3    H127220   6.233   3.671   0.531  0.2311  0.9751  1.7049
 1887TIP3    H227221   6.304   3.582   0.631 -0.2411 -1.5975 -0.1327
 1888TIP3   OH227222   4.116   5.302   7.977 -0.3729  0.1062  0.7310
 1888TIP3    H127223   4.155   5.287   8.063  2.6264  0.7528 -0.3908
 1888TIP3    H227224   4.074   5.388   7.984 -0.1732  0.1475  1.5277
 1889TIP3   OH227225   3.893   5.328   1.654 -0.0583 -0.1779 -0.2602
 1889TIP3    H127226   3.945   5.308   1.575 -0.6648  2.2593 -1.3679
 1889TIP3    H227227   3.957   5.324   1.725  0.8079 -1.0852 -1.0471
 1890TIP3   OH227228   6.659   2.349   0.176  0.5557  0.1028  0.1185
 1890TIP3    H127229   6.584   2.337   0.117  0.3902 -0.9761  0.5289
 1890TIP3    H227230   6.639   2.294   0.252  2.4258 -1.3893 -0.3933
 1891TIP3   OH227231   0.136   4.732   0.829  0.0238 -0.3603  0.2550
 1891TIP3    H127232   0.229   4.722   0.845  0.0643  0.3356  0.5204
 1891TIP3    H227233   0.119   4.681   0.750  0.8987  0.5967 -0.5846
 1892TIP3   OH227234   5.056   0.572   7.005 -0.0753  0.0062  0.2532
 1892TIP3    H127235   4.991   0.518   7.050 -0.7634  2.2204  2.1464
 1892TIP3    H227236   5.136   0.519   7.005 -1.2372 -1.8113  0.0688
 1893TIP3   OH227237   2.851   5.880   7.496 -0.1365 -0.0017  0.1515
 1893TIP3    H127238   2.822   5.790   7.479 -0.7649  0.3903 -0.9955
 1893TIP3    H227239   2.921   5.895   7.432 -1.2122  0.8701 -0.8747
 1894TIP3   OH227240   3.836   1.272   2.587  0.5388 -0.2899 -0.4530
 1894TIP3    H127241   3.770   1.340   2.599  1.8248  1.1794 -1.3758
 1894TIP3    H227242   3.848   1.234   2.674 -0.6198  0.2517 -0.0432
 1895TIP3   OH227243   0.422   4.108   0.693 -0.0857  0.5831 -0.7911
 1895TIP3    H127244   0.481   4.111   0.618 -0.5616 -0.6934 -1.2525
 1895TIP3    H227245   0.464   4.045   0.753 -1.5153 -1.3162 -1.6667
 1896TIP3   OH227246   2.265   4.374   1.813 -0.0244  0.0081  0.1131
 1896TIP3    H127247   2.296   4.443   1.755 -1.4948  0.9743  0.4289
 1896TIP3    H227248   2.302   4.396   1.899  1.8760 -1.2389 -0.3091
 1897TIP3   OH227249   1.083   0.859   0.629 -0.2248  0.1049 -0.4106
 1897TIP3    H127250   1.098   0.796   0.700  2.4789  0.6831 -0.4005
 1897TIP3    H227251   1.100   0.810   0.549 -0.2999  0.2665 -0.5273
 1898TIP3   OH227252   2.119   4.490   8.514  0.2220  0.6441 -0.0763
 1898TIP3    H127253   2.149   4.550   8.582  1.9030  1.0918 -1.1630
 1898TIP3    H227254   2.026   4.477   8.533  0.6000  0.8417  2.2121
 1899TIP3   OH227255   4.846   6.264   8.645 -0.6542 -0.0186  0.1604
 1899TIP3    H127256   4.931   6.250   8.603 -1.0830 -0.2894 -0.6359
 1899TIP3    H227257   4.863   6.250   8.738 -0.4782 -3.5615 -0.2472
 1900TIP3   OH227258   4.713   5.167   8.077 -0.0199  0.2903 -0.1677
 1900TIP3    H127259   4.640   5.160   8.139  0.3824  1.4337  0.4522
 1900TIP3    H227260   4.777   5.103   8.108 -1.2362 -1.6575 -1.4527
 1901TIP3   OH227261   4.811   0.066   7.852 -0.5353  0.2132  0.0631
 1901TIP3    H127262   4.860   0.118   7.787  0.4918  0.8427  1.2970
 1901TIP3    H227263   4.803   0.124   7.928  2.1165 -1.8919  2.1611
 1902TIP3   OH227264   5.638   4.086   8.241  0.5533  0.1931 -0.3993
 1902TIP3    H127265   5.577   4.153   8.271  0.2674 -0.8483  1.4410
 1902TIP3    H227266   5.651   4.106   8.148 -2.1137  0.7897 -0.7100
 1903TIP3   OH227267   5.867   1.790   2.406 -0.3868  0.0256 -0.4333
 1903TIP3    H127268   5.825   1.785   2.320 -0.8586  0.8059 -0.2643
 1903TIP3    H227269   5.960   1.778   2.388 -0.4999  0.0112 -1.0329
 1904TIP3   OH227270   3.409   3.282   1.149 -0.2889  1.1198  0.1764
 1904TIP3    H127271   3.419   3.360   1.203 -0.7358  0.3912  1.3625
 1904TIP3    H227272   3.498   3.247   1.141 -0.2323  1.1645  0.5758
 1905TIP3   OH227273   6.103   6.008   2.096 -0.5988 -0.0850  0.4373
 1905TIP3    H127274   6.018   5.968   2.114 -1.0343 -0.6669 -2.4502
 1905TIP3    H227275   6.082   6.094   2.061  0.1917  0.9816  2.3792
 1906TIP3   OH227276   6.562   0.867   8.347  0.0195  0.3812  0.4503
 1906TIP3    H127277   6.532   0.954   8.321  1.1286  0.1863 -1.7185
 1906TIP3    H227278   6.567   0.870   8.442  2.5237  3.6171  0.3845
 1907TIP3   OH227279   3.010   0.393   1.441 -0.0373 -0.2041 -0.2601
 1907TIP3    H127280   3.080   0.402   1.377 -2.9136 -1.1599 -3.9451
 1907TIP3    H227281   2.982   0.301   1.433 -0.7828 -0.2392  2.1228
 1908TIP3   OH227282   3.555   6.745   7.742  0.0004 -0.2114  0.5688
 1908TIP3    H127283   3.602   6.796   7.676 -1.3208  0.5921  0.2209
 1908TIP3    H227284   3.610   6.751   7.821 -0.8095  3.0605  1.0048
 1909TIP3   OH227285   5.559   4.642   1.720  0.1622  0.3897 -0.1871
 1909TIP3    H127286   5.490   4.706   1.737 -2.2703 -1.5879 -1.9246
 1909TIP3    H227287   5.578   4.604   1.805 -0.0282  1.7342  0.4878
 1910TIP3   OH227288   1.007   5.031   2.359  1.0532 -0.6710 -0.0664
 1910TIP3    H127289   1.061   5.027   2.438  0.0101 -0.4267  0.6905
 1910TIP3    H227290   0.962   4.947   2.357 -1.2012  0.4069  1.3253
 1911TIP3   OH227291   4.937   5.372   1.900 -0.5760  0.0635  0.0915
 1911TIP3    H127292   5.024   5.411   1.909 -0.8510  1.2121 -1.8175
 1911TIP3    H227293   4.881   5.424   1.957  0.2064 -1.7658  2.7352
 1912TIP3   OH227294   2.735   6.253   0.889 -0.0005  0.4097  0.1132
 1912TIP3    H127295   2.819   6.274   0.929  0.7850 -2.0374 -0.1201
 1912TIP3    H227296   2.722   6.321   0.823  1.1089  1.5950  1.0659
 1913TIP3   OH227297   2.475   5.223   8.431 -0.0051 -0.3090 -0.1559
 1913TIP3    H127298   2.520   5.298   8.391  1.4993 -2.1465 -2.1858
 1913TIP3    H227299   2.465   5.247   8.523 -0.6926  2.8428 -0.9410
 1914TIP3   OH227300   4.764   0.815   7.879  0.1278 -0.1447  0.1490
 1914TIP3    H127301   4.796   0.740   7.828 -0.5224 -1.4541  1.5787
 1914TIP3    H227302   4.843   0.866   7.900  0.7395 -1.0325  0.0693
 1915TIP3   OH227303   4.513   5.405   8.155 -0.0658  0.4106 -0.0997
 1915TIP3    H127304   4.518   5.434   8.246  0.0880  3.3018 -0.9320
 1915TIP3    H227305   4.596   5.360   8.140  1.3894  2.7649  0.3732
 1916TIP3   OH227306   4.454   1.709   7.497  0.0021  0.1689 -0.5781
 1916TIP3    H127307   4.399   1.747   7.565  2.0610  0.5875  0.9673
 1916TIP3    H227308   4.450   1.770   7.424  0.4650  1.5618  0.5246
 1917TIP3   OH227309   4.515   5.103   8.224 -0.3219 -0.1386  0.5503
 1917TIP3    H127310   4.534   5.035   8.289 -1.7173  0.2387  1.3960
 1917TIP3    H227311   4.424   5.089   8.199 -0.3827  0.9063  0.1132
 1918TIP3   OH227312   2.745   3.720   7.621 -0.8157  0.9915  0.1648
 1918TIP3    H127313   2.836   3.697   7.604 -1.6896 -1.3238 -2.0851
 1918TIP3    H227314   2.737   3.812   7.596  0.4142  0.5887 -1.8785
 1919TIP3   OH227315   5.908   2.315   1.848 -0.3890  0.1859 -0.3168
 1919TIP3    H127316   5.886   2.352   1.934  0.7612  0.4746 -0.1289
 1919TIP3    H227317   6.002   2.326   1.841 -0.6126  1.3158 -2.1520
 1920TIP3   OH227318   3.676   3.744   0.424 -0.1333 -0.0530 -0.4182
 1920TIP3    H127319   3.588   3.777   0.441 -0.3480 -1.3639  1.2133
 1920TIP3    H227320   3.669   3.701   0.339 -0.4860  1.6828 -1.3299
 1921TIP3   OH227321   5.630   5.420   1.203 -0.2569  0.4760 -0.5677
 1921TIP3    H127322   5.682   5.431   1.282 -1.5899 -1.6214  0.7202
 1921TIP3    H227323   5.632   5.326   1.186 -2.7377  0.4357 -1.0258
 1922TIP3   OH227324   4.084   2.629   0.105  0.6042  0.0640 -0.4760
 1922TIP3    H127325   4.097   2.535   0.123  0.6467  0.3056  0.9353
 1922TIP3    H227326   4.002   2.650   0.151  0.8641  0.8251 -0.3497
 1923TIP3   OH227327   3.919   5.760   8.693  0.5740 -0.7683 -0.5072
 1923TIP3    H127328   3.864   5.806   8.757  3.6078  0.9331  1.0996
 1923TIP3    H227329   3.946   5.829   8.631  1.8487 -1.2467 -0.5152
 1924TIP3   OH227330   1.115   4.026   7.248  0.2017 -0.4312  0.8921
 1924TIP3    H127331   1.046   3.960   7.253  0.8266 -1.1682  0.1655
 1924TIP3    H227332   1.191   3.986   7.289  0.5908 -0.1712  0.4441
 1925TIP3   OH227333   1.620   6.668   0.207  0.0549 -0.0626  0.0547
 1925TIP3    H127334   1.581   6.747   0.245 -1.1219 -0.5419 -0.1151
 1925TIP3    H227335   1.712   6.673   0.231  0.0737  1.5263 -0.2245
 1926TIP3   OH227336   5.165   5.478   8.945  0.1617  0.5933 -0.3345
 1926TIP3    H127337   5.132   5.439   9.026  0.8199 -0.0785 -0.3715
 1926TIP3    H227338   5.234   5.538   8.975  0.3503  0.4048 -0.3921
 1927TIP3   OH227339   2.188   3.120   1.148  0.0288 -0.5518  0.3908
 1927TIP3    H127340   2.142   3.198   1.178  1.3285  0.4198 -0.0749
 1927TIP3    H227341   2.274   3.125   1.190 -0.2344 -2.3196  1.2357
 1928TIP3   OH227342   1.523   4.441   0.379 -0.3094  0.4201  0.6151
 1928TIP3    H127343   1.525   4.358   0.426 -1.3435 -0.0158 -0.0730
 1928TIP3    H227344   1.464   4.496   0.430  0.5949  0.8543  1.2270
 1929TIP3   OH227345   5.515   4.946   1.295 -0.3702  0.2779 -0.1330
 1929TIP3    H127346   5.484   4.938   1.385 -0.6200  0.3193 -0.2152
 1929TIP3    H227347   5.585   4.882   1.289 -0.7012 -0.0979 -0.0608
 1930TIP3   OH227348   2.142   3.845   6.792 -0.4648  0.4761 -0.5072
 1930TIP3    H127349   2.082   3.911   6.758  1.0259  2.8970  1.2087
 1930TIP3    H227350   2.097   3.808   6.868 -0.5015  0.9648 -0.2919
 1931TIP3   OH227351   2.801   4.455   8.779 -0.3759  0.6608  0.1909
 1931TIP3    H127352   2.823   4.381   8.722  0.5399 -0.2934  1.7323
 1931TIP3    H227353   2.809   4.532   8.722 -2.8718 -0.4581 -1.8916
 1932TIP3   OH227354   2.875   2.055   1.516  0.9432 -0.0170  0.0348
 1932TIP3    H127355   2.951   2.062   1.573  1.2238 -1.2952 -0.1466
 1932TIP3    H227356   2.911   2.055   1.427  0.9629 -2.4376 -0.0262
 1933TIP3   OH227357   5.802   4.985   1.492 -0.6088  0.0292 -0.1686
 1933TIP3    H127358   5.756   4.955   1.570  1.7046 -0.3325  1.1189
 1933TIP3    H227359   5.841   4.906   1.454  0.3878  0.5536 -0.2573
 1934TIP3   OH227360   2.181   1.411   0.940 -0.0218 -0.2453 -0.0020
 1934TIP3    H127361   2.127   1.339   0.974 -1.0504 -0.9120 -2.8084
 1934TIP3    H227362   2.117   1.475   0.908  0.8993  0.5250 -0.3526
 1935TIP3   OH227363   0.643   0.927   2.049 -0.1026  0.0464 -0.3136
 1935TIP3    H127364   0.636   0.846   2.099  0.2740  0.4765  0.4558
 1935TIP3    H227365   0.735   0.952   2.056 -0.3967  1.0432  0.2989
 1936TIP3   OH227366   6.516   5.557   2.442 -0.2211 -0.1066 -0.4397
 1936TIP3    H127367   6.576   5.611   2.493 -0.4875 -0.9430  0.8095
 1936TIP3    H227368   6.455   5.619   2.402  0.2428  0.5995 -0.0644
 1937TIP3   OH227369   5.808   0.094   0.308  1.0538 -0.0870 -0.8093
 1937TIP3    H127370   5.773   0.119   0.223  2.7497  3.3379 -0.6647
 1937TIP3    H227371   5.790   0.169   0.365  0.6641 -1.9293  1.6994
 1938TIP3   OH227372   3.945   2.021   0.809  0.2603 -0.2638 -0.0846
 1938TIP3    H127373   3.918   2.104   0.848  1.1802  0.6525 -1.3057
 1938TIP3    H227374   3.882   2.006   0.738  0.5385 -0.2182 -0.3425
 1939TIP3   OH227375   0.493   1.434   1.823  0.3060  0.0215 -0.0423
 1939TIP3    H127376   0.414   1.436   1.877 -0.4391 -0.2886 -1.1106
 1939TIP3    H227377   0.500   1.344   1.792  0.8861  0.1276 -0.2493
 1940TIP3   OH227378   1.186   4.065   1.944 -0.0995  0.7136 -0.3743
 1940TIP3    H127379   1.233   4.114   1.877  0.2019 -0.0068 -0.6950
 1940TIP3    H227380   1.165   3.982   1.903 -1.9249  1.1215 -0.3379
 1941TIP3   OH227381   3.234   0.842   8.473 -0.0170 -0.3565  0.3867
 1941TIP3    H127382   3.254   0.909   8.538 -1.3794  0.7407 -0.2689
 1941TIP3    H227383   3.267   0.877   8.391 -0.2496 -0.7456  0.1205
 1942TIP3   OH227384   3.967   5.970   8.526  0.6046 -0.1271 -0.0505
 1942TIP3    H127385   3.931   6.003   8.443 -0.6853  2.1816  1.3059
 1942TIP3    H227386   4.057   6.002   8.528  0.8093 -0.6298 -0.7549
 1943TIP3   OH227387   0.908   5.335   2.066  0.1398  0.5279 -0.0303
 1943TIP3    H127388   0.957   5.303   1.990  0.2747  0.4458  0.0919
 1943TIP3    H227389   0.903   5.429   2.053  1.1848  0.6594  0.4561
 1944TIP3   OH227390   0.547   0.416   2.450  0.7275 -0.1745  0.1998
 1944TIP3    H127391   0.538   0.324   2.474  0.7823 -0.3204 -0.3087
 1944TIP3    H227392   0.480   0.462   2.501 -0.6537 -0.7706 -0.9951
 1945TIP3   OH227393   1.818   1.023   1.007  0.7374 -0.3590  0.4855
 1945TIP3    H127394   1.751   0.971   1.052  1.8955  0.0791  2.8985
 1945TIP3    H227395   1.777   1.108   0.991  0.1476 -0.6839  0.2629
 1946TIP3   OH227396   0.064   3.423   1.395  0.5335 -0.0752 -0.2310
 1946TIP3    H127397   0.132   3.385   1.340 -0.5526 -0.6108 -1.2597
 1946TIP3    H227398   0.024   3.347   1.439  1.4442  0.3461  1.4299
 1947TIP3   OH227399   1.776   0.189   8.304 -0.1794  0.3346 -0.4527
 1947TIP3    H127400   1.803   0.131   8.232 -1.8286 -1.7680  0.5163
 1947TIP3    H227401   1.858   0.223   8.340  0.7490  0.0414 -2.1810
 1948TIP3   OH227402   2.096   5.208   1.613  0.1280  0.0334  0.1510
 1948TIP3    H127403   2.106   5.191   1.706  0.1365  0.4929  0.2387
 1948TIP3    H227404   2.172   5.165   1.572 -0.4834 -1.1475  0.2241
 1949TIP3   OH227405   5.435   3.734   8.818 -0.6569 -0.6481 -0.2515
 1949TIP3    H127406   5.460   3.741   8.910 -0.3496  1.2832 -0.4493
 1949TIP3    H227407   5.344   3.704   8.820 -0.1765 -2.1347  0.6082
 1950TIP3   OH227408   1.358   6.070   7.857  0.3575  0.4866 -0.7305
 1950TIP3    H127409   1.281   6.016   7.878 -0.2126  1.1895 -0.9778
 1950TIP3    H227410   1.397   6.091   7.941  0.6179 -0.3452 -0.6291
 1951TIP3   OH227411   3.694   3.339   1.813 -0.4831 -0.2392 -0.0531
 1951TIP3    H127412   3.663   3.257   1.853 -4.0539  0.1986 -1.5946
 1951TIP3    H227413   3.718   3.394   1.888 -0.0956 -1.8938  1.1069
 1952TIP3   OH227414   4.260   6.123   1.528 -0.0328  0.1441  0.1644
 1952TIP3    H127415   4.344   6.168   1.518  0.4089 -0.4367  1.0517
 1952TIP3    H227416   4.271   6.041   1.481  0.3268 -0.4468  1.2487
 1953TIP3   OH227417   3.923   1.161   2.845  0.5822  0.5553  0.2704
 1953TIP3    H127418   3.862   1.108   2.896 -0.0895 -0.6353 -1.6586
 1953TIP3    H227419   3.924   1.246   2.889  1.6248 -0.9536  3.4324
 1954TIP3   OH227420   4.730   3.287   8.225 -0.3778  0.0118 -0.0440
 1954TIP3    H127421   4.748   3.333   8.306  1.1867 -1.3845  0.4492
 1954TIP3    H227422   4.652   3.235   8.244 -1.5873  1.6395 -0.3115
 1955TIP3   OH227423   2.965   0.439   0.258 -0.3639 -0.3506 -0.0591
 1955TIP3    H127424   3.010   0.380   0.319 -0.6580  0.7572  1.2899
 1955TIP3    H227425   2.877   0.448   0.294 -0.8111 -0.3083 -1.1198
 1956TIP3   OH227426   3.479   5.457   0.362 -0.1833  0.2867  1.1746
 1956TIP3    H127427   3.409   5.521   0.346 -1.7690 -1.4824  0.6410
 1956TIP3    H227428   3.439   5.391   0.419  0.9212 -0.9797  0.5522
 1957TIP3   OH227429   1.785   0.409   1.093  0.0390 -0.2006  0.1326
 1957TIP3    H127430   1.737   0.385   1.014  1.7002  2.1194 -1.7621
 1957TIP3    H227431   1.856   0.345   1.099 -0.4038 -0.7039  0.0726
 1958TIP3   OH227432   2.262   1.213   0.125 -0.1660  0.2709 -0.2217
 1958TIP3    H127433   2.218   1.217   0.040  0.7406  1.5412 -0.6557
 1958TIP3    H227434   2.333   1.276   0.119 -0.0278  0.3331  1.4633
 1959TIP3   OH227435   5.043   4.261   8.530  0.4088 -0.1522  0.0650
 1959TIP3    H127436   5.003   4.175   8.538  1.3524 -0.8087 -1.8902
 1959TIP3    H227437   5.017   4.306   8.611  0.4484 -2.4559  1.4563
 1960TIP3   OH227438   5.123   4.288   0.785  0.3767 -0.4192 -0.3438
 1960TIP3    H127439   5.186   4.219   0.804  0.0199 -0.2345  1.8553
 1960TIP3    H227440   5.150   4.361   0.842 -1.3797 -0.0935  0.1313
 1961TIP3   OH227441   1.715   1.409   8.405 -0.0786 -0.3059 -0.1277
 1961TIP3    H127442   1.724   1.455   8.322 -0.9966  0.0050 -0.0731
 1961TIP3    H227443   1.791   1.351   8.410  0.4828  0.3762 -0.7300
 1962TIP3   OH227444   5.815   2.779   1.493 -0.1017  0.0717  0.0282
 1962TIP3    H127445   5.814   2.697   1.543 -0.5341  0.0053 -0.0917
 1962TIP3    H227446   5.731   2.820   1.511 -0.2075  0.1098 -0.5471
 1963TIP3   OH227447   1.480   0.386   0.080 -0.4618  0.2280 -0.5034
 1963TIP3    H127448   1.525   0.417   0.159 -1.0271  0.8515 -0.4114
 1963TIP3    H227449   1.528   0.308   0.054  1.5368  1.5872 -1.1842
 1964TIP3   OH227450   1.529   3.447   0.260 -0.0018  0.8959 -0.1034
 1964TIP3    H127451   1.445   3.476   0.223 -0.6628  1.2041  1.5555
 1964TIP3    H227452   1.509   3.425   0.351  1.1649 -1.6060 -0.3546
 1965TIP3   OH227453   4.992   0.315   7.999  0.2319 -0.2260 -0.2657
 1965TIP3    H127454   4.995   0.287   8.091  0.2532 -0.6073 -0.3813
 1965TIP3    H227455   4.964   0.407   8.003  1.5215  0.1877  0.2150
 1966TIP3   OH227456   6.328   1.884   1.480 -0.1048  0.0264  0.0465
 1966TIP3    H127457   6.235   1.885   1.503 -0.8202 -0.3215 -2.4794
 1966TIP3    H227458   6.356   1.975   1.488 -0.9863  0.3341 -0.2490
 1967TIP3   OH227459   5.028   5.016   1.348  0.0397  0.3307  0.5168
 1967TIP3    H127460   5.062   5.090   1.298 -1.3332  0.2573 -0.5975
 1967TIP3    H227461   4.956   5.052   1.399 -1.7174 -0.4611 -1.2681
 1968TIP3   OH227462   0.382   2.105   7.862  0.0678 -0.4637  0.1001
 1968TIP3    H127463   0.417   2.020   7.888 -0.0111 -0.2620  0.9164
 1968TIP3    H227464   0.353   2.093   7.772  1.2210 -0.9403 -0.2243
 1969TIP3   OH227465   4.656   4.806   0.492 -0.7085 -0.5018  0.5217
 1969TIP3    H127466   4.673   4.715   0.466 -1.7999 -0.7647  0.6805
 1969TIP3    H227467   4.607   4.799   0.574  0.0378  0.2596  1.0463
 1970TIP3   OH227468   3.635   6.083   8.430 -0.2745 -0.0022  0.0435
 1970TIP3    H127469   3.633   6.175   8.403 -0.0388  0.6272  2.0290
 1970TIP3    H227470   3.546   6.065   8.461 -0.1344 -0.2389  0.3122
 1971TIP3   OH227471   4.775   2.971   1.540  0.0844  0.2814 -0.0101
 1971TIP3    H127472   4.693   3.019   1.554  0.1694  0.5533 -0.4308
 1971TIP3    H227473   4.840   3.020   1.591 -0.2970 -0.8272  1.6177
 1972TIP3   OH227474   5.970   4.615   0.801  0.0680  0.4910  0.2847
 1972TIP3    H127475   6.060   4.644   0.816  0.7617 -2.2233  2.0550
 1972TIP3    H227476   5.976   4.520   0.797 -2.8082  0.2029  0.8753
 1973TIP3   OH227477   0.596   0.137   6.954 -0.6316  0.6398 -0.3143
 1973TIP3    H127478   0.563   0.219   6.992 -0.6415 -0.0666  1.2957
 1973TIP3    H227479   0.683   0.159   6.923 -0.4560  1.1677  0.5142
 1974TIP3   OH227480   3.881   0.496   0.753 -0.2255 -0.2182 -0.0545
 1974TIP3    H127481   3.885   0.573   0.809 -0.8846 -0.2486  0.0487
 1974TIP3    H227482   3.810   0.443   0.790  1.4595 -1.8385  1.0685
 1975TIP3   OH227483   4.602   4.993   8.478  0.2502 -0.3622  0.1703
 1975TIP3    H127484   4.555   4.910   8.480  1.1377 -0.8945 -0.2275
 1975TIP3    H227485   4.580   5.035   8.560 -1.7280 -0.1167 -0.4288
 1976TIP3   OH227486   1.366   2.021   1.852 -0.4613  0.1457 -0.0384
 1976TIP3    H127487   1.410   2.010   1.936 -0.1418  2.7526  0.2029
 1976TIP3    H227488   1.274   2.001   1.870 -0.2797 -0.0160  0.7478
 1977TIP3   OH227489   4.779   1.709   7.748  0.7189  0.5128 -0.0261
 1977TIP3    H127490   4.864   1.738   7.779  0.4471  1.8744 -0.4981
 1977TIP3    H227491   4.720   1.783   7.764 -0.4443 -0.4769  0.5112
 1978TIP3   OH227492   5.720   1.192   1.926  0.9469 -0.3005 -0.3966
 1978TIP3    H127493   5.804   1.196   1.971 -0.1610 -3.0488  2.2226
 1978TIP3    H227494   5.654   1.199   1.995 -0.9006 -2.7962 -1.7184
 1979TIP3   OH227495   3.967   4.657   1.371 -0.0518 -0.1617  0.5568
 1979TIP3    H127496   3.992   4.589   1.309  0.8320  0.8133 -0.2020
 1979TIP3    H227497   3.909   4.715   1.321  0.1790  0.3049  0.8204
 1980TIP3   OH227498   1.524   4.077   8.453 -0.6735 -0.2779 -0.4551
 1980TIP3    H127499   1.429   4.072   8.447 -0.7163 -1.1029  0.6392
 1980TIP3    H227500   1.548   4.004   8.509  0.7645 -1.0867 -2.0403
 1981TIP3   OH227501   5.948   5.878   8.910  0.1702  0.2323  0.2768
 1981TIP3    H127502   5.928   5.832   8.991 -0.3565 -1.6863 -0.8722
 1981TIP3    H227503   5.874   5.938   8.898 -0.5897 -0.6401  0.4289
 1982TIP3   OH227504   3.903   1.689   2.595 -0.4500  0.1807 -0.3373
 1982TIP3    H127505   3.870   1.644   2.673 -1.4291  0.5659 -0.5271
 1982TIP3    H227506   3.995   1.707   2.616 -0.0203 -1.8559 -0.2370
 1983TIP3   OH227507   6.331   4.336   1.682  0.3166  0.0403 -0.2099
 1983TIP3    H127508   6.394   4.289   1.626 -1.5153 -1.1289 -1.4023
 1983TIP3    H227509   6.346   4.428   1.663  1.8122 -0.1903 -0.2827
 1984TIP3   OH227510   1.159   2.103   2.902 -0.1258  0.1992  0.1118
 1984TIP3    H127511   1.199   2.174   2.953  0.3062 -0.1418  0.2529
 1984TIP3    H227512   1.071   2.135   2.882  0.8395  1.8424 -1.9428
 1985TIP3   OH227513   0.260   2.289   8.010  0.0033 -0.1067  0.1363
 1985TIP3    H127514   0.270   2.209   7.958 -0.9798 -2.4586  3.2782
 1985TIP3    H227515   0.339   2.293   8.064  0.9066  2.1767 -1.1768
 1986TIP3   OH227516   5.219   2.391   2.691 -0.6511  0.6139  0.0534
 1986TIP3    H127517   5.231   2.300   2.665  1.2064  0.7885  0.1355
 1986TIP3    H227518   5.286   2.438   2.641  1.4094  1.3211  3.1908
 1987TIP3   OH227519   4.811   4.000   0.549  0.1829  0.0059  0.3978
 1987TIP3    H127520   4.867   3.923   0.559  1.4141  0.9758  1.4208
 1987TIP3    H227521   4.872   4.074   0.551 -1.0779  1.0709  0.8740
 1988TIP3   OH227522   0.229   5.611   7.979 -0.2063  0.4105  0.3526
 1988TIP3    H127523   0.169   5.561   8.035 -0.4740  0.9312  0.5478
 1988TIP3    H227524   0.278   5.666   8.040  2.2866 -1.7653  0.4832
 1989TIP3   OH227525   6.107   3.464   8.210  0.3844 -0.9760  0.3843
 1989TIP3    H127526   6.029   3.456   8.155  1.2366  1.0864 -1.3073
 1989TIP3    H227527   6.178   3.434   8.153  1.0994 -0.3733  0.9429
 1990TIP3   OH227528   3.164   2.567   6.539 -0.4468  0.0998  0.0055
 1990TIP3    H127529   3.188   2.579   6.630 -0.5138 -1.7688  0.2955
 1990TIP3    H227530   3.243   2.533   6.497 -0.9582 -0.8640 -0.2036
 1991TIP3   OH227531   4.298   6.398   1.982  0.2436 -0.3558 -0.0373
 1991TIP3    H127532   4.247   6.440   2.051  0.2675  1.7855 -1.2476
 1991TIP3    H227533   4.244   6.407   1.903  1.5688  0.0745 -0.9188
 1992TIP3   OH227534   0.652   1.187   7.909  0.2803  0.0156  0.1110
 1992TIP3    H127535   0.671   1.255   7.973 -1.9606  1.8585 -0.9906
 1992TIP3    H227536   0.699   1.214   7.830 -0.9970  0.6461 -0.4760
 1993TIP3   OH227537   1.078   4.607   0.441 -0.6726 -0.4886 -0.1119
 1993TIP3    H127538   1.006   4.670   0.453 -0.7296 -0.2492 -1.5271
 1993TIP3    H227539   1.116   4.631   0.357  0.3453 -1.3450  0.0923
 1994TIP3   OH227540   2.115   5.590   8.153 -0.1449  0.1497  0.1262
 1994TIP3    H127541   2.160   5.648   8.091  1.2681  0.6221  1.5101
 1994TIP3    H227542   2.186   5.553   8.206 -1.2197 -1.0924  0.7485
 1995TIP3   OH227543   4.628   0.962   1.799 -0.7241 -0.0429  0.4211
 1995TIP3    H127544   4.631   1.035   1.739 -0.0987 -0.3129  0.1163
 1995TIP3    H227545   4.668   0.889   1.751 -1.0914 -0.5140  0.8122
 1996TIP3   OH227546   0.462   1.348   2.428  0.0130  0.0898  0.0095
 1996TIP3    H127547   0.475   1.319   2.518  0.3012 -0.8524 -0.3241
 1996TIP3    H227548   0.420   1.434   2.436  0.1116  0.0512  1.0357
 1997TIP3   OH227549   2.541   1.675   8.411 -0.1218 -0.5164  0.2800
 1997TIP3    H127550   2.617   1.677   8.353  0.1025 -0.5597  0.5656
 1997TIP3    H227551   2.579   1.668   8.499 -0.4394  0.1463  0.4755
 1998TIP3   OH227552   3.284   3.950   1.225 -0.4932  0.2997 -0.2866
 1998TIP3    H127553   3.309   3.918   1.138 -0.1936  1.6318 -0.7136
 1998TIP3    H227554   3.319   3.884   1.285 -0.1709 -0.3296 -1.1389
 1999TIP3   OH227555   5.130   2.650   1.635 -0.2277  0.0071  0.2751
 1999TIP3    H127556   5.097   2.561   1.623 -0.6467 -0.2411  2.8823
 1999TIP3    H227557   5.224   2.644   1.617 -0.0077 -1.2742  1.7111
 2000TIP3   OH227558   5.396   4.315   1.367  0.4707 -0.5467  0.0540
 2000TIP3    H127559   5.316   4.367   1.365  0.1452 -1.0035 -2.7438
 2000TIP3    H227560   5.403   4.285   1.457 -1.3432  1.2332  0.8693
 2001TIP3   OH227561   4.510   6.597   0.276  0.0823  0.2566 -0.1047
 2001TIP3    H127562   4.475   6.612   0.189 -0.4946  0.1138  0.0939
 2001TIP3    H227563   4.604   6.608   0.267 -0.0226  0.7615 -0.6309
 2002TIP3   OH227564   6.604   0.434   0.691  0.3679 -0.5295  0.2155
 2002TIP3    H127565   6.666   0.499   0.723  1.8487 -1.3070 -0.9912
 2002TIP3    H227566   6.651   0.351   0.695  0.0718 -0.8986 -2.3529
 2003TIP3   OH227567   5.296   2.076   1.000  0.2686 -0.3194 -0.1231
 2003TIP3    H127568   5.314   2.047   1.090  1.6271 -0.0031 -0.2719
 2003TIP3    H227569   5.379   2.063   0.954  0.1192  1.2366 -0.8771
 2004TIP3   OH227570   2.278   0.795   7.969  0.3242 -0.0280  0.3878
 2004TIP3    H127571   2.280   0.723   7.906  1.4196 -1.0753  1.5637
 2004TIP3    H227572   2.362   0.838   7.960  0.2814  0.1405  0.7600
 2005TIP3   OH227573   1.397   0.069   2.140 -0.0220 -0.1749  0.4685
 2005TIP3    H127574   1.447   0.024   2.073 -0.0590 -0.2550  0.4946
 2005TIP3    H227575   1.455   0.138   2.172  0.5722 -1.0842  1.4263
 2006TIP3   OH227576   0.871   4.324   1.275 -0.0569  0.8887 -0.2923
 2006TIP3    H127577   0.900   4.413   1.298  0.4348  0.0869  2.6075
 2006TIP3    H227578   0.880   4.274   1.356  2.1657 -2.5095 -2.3901
 2007TIP3   OH227579   6.098   1.548   6.848  0.1086  0.6464  0.0634
 2007TIP3    H127580   6.091   1.474   6.908 -0.2725  1.0511  0.5245
 2007TIP3    H227581   6.140   1.617   6.900 -0.2085  0.9920 -0.1360
 2008TIP3   OH227582   5.811   4.412   0.181 -0.8552  0.4176  1.2014
 2008TIP3    H127583   5.860   4.384   0.258 -1.0208 -0.1811  1.0911
 2008TIP3    H227584   5.726   4.439   0.215 -0.7820  0.5508  1.2783
 2009TIP3   OH227585   2.696   2.711   1.602  0.4399  0.1179  0.2710
 2009TIP3    H127586   2.740   2.792   1.576  0.9476  0.2611  1.5201
 2009TIP3    H227587   2.751   2.641   1.568  1.1412  0.3024  0.9923
 2010TIP3   OH227588   1.185   3.405   1.726  0.3080  0.3289  0.3376
 2010TIP3    H127589   1.236   3.401   1.807 -1.3909  1.8307  1.5465
 2010TIP3    H227590   1.233   3.467   1.671 -0.2086  1.8689  1.5293
 2011TIP3   OH227591   6.420   2.175   8.851 -0.2980  0.6145 -0.3805
 2011TIP3    H127592   6.515   2.174   8.851 -0.2896  0.7157  0.9511
 2011TIP3    H227593   6.395   2.083   8.850 -0.2164  0.5820 -1.8942
 2012TIP3   OH227594   3.640   2.209   2.011 -0.3732 -0.4421 -0.2359
 2012TIP3    H127595   3.552   2.182   1.985  0.2021 -0.4624 -2.3205
 2012TIP3    H227596   3.693   2.130   2.004 -0.3770 -0.7459  2.2771
 2013TIP3   OH227597   4.245   0.088   7.905  0.6751  0.0886  0.4360
 2013TIP3    H127598   4.233   0.120   7.815 -1.4158 -0.3452  0.4890
 2013TIP3    H227599   4.284   0.001   7.894  0.0519 -0.1360 -0.0990
 2014TIP3   OH227600   1.386   1.899   2.276  0.1590 -0.1228  0.2800
 2014TIP3    H127601   1.339   1.873   2.196 -3.1214 -1.4411  2.4380
 2014TIP3    H227602   1.420   1.817   2.311  1.5427  0.4482  0.3302
 2015TIP3   OH227603   4.739   3.635   1.713 -0.2693  0.3385  0.7687
 2015TIP3    H127604   4.815   3.652   1.768  0.7700 -0.4673 -0.3593
 2015TIP3    H227605   4.776   3.608   1.629 -1.7966  1.6105 -0.3678
 2016TIP3   OH227606   3.034   1.081   1.643 -0.0567 -0.0589  0.0860
 2016TIP3    H127607   2.953   1.119   1.611 -0.9655 -0.4937  1.7715
 2016TIP3    H227608   3.011   0.991   1.666  1.3334 -0.7311 -1.0060
 2017TIP3   OH227609   3.125   4.300   8.154  0.1264  0.1611  0.4427
 2017TIP3    H127610   3.032   4.321   8.144  0.2042 -0.3714 -2.1169
 2017TIP3    H227611   3.130   4.250   8.235 -1.9343 -0.4048  0.2679
 2018TIP3   OH227612   3.347   0.281   8.607  0.6324 -0.1957  0.8126
 2018TIP3    H127613   3.368   0.323   8.524  2.3837 -0.0258  1.3109
 2018TIP3    H227614   3.330   0.354   8.667  2.0805 -0.2062  1.2692
 2019TIP3   OH227615   2.574   4.931   0.383 -0.1159  0.0475 -0.0243
 2019TIP3    H127616   2.618   4.960   0.463 -0.0784 -0.6062  0.1992
 2019TIP3    H227617   2.525   5.008   0.353 -1.0426 -0.0199  1.2458
 2020TIP3   OH227618   0.157   6.559   1.211  0.3931 -0.2123 -0.0489
 2020TIP3    H127619   0.204   6.589   1.288  1.2379  1.3548 -1.1231
 2020TIP3    H227620   0.173   6.626   1.145 -0.9012 -1.1395 -1.3805
 2021TIP3   OH227621   1.198   4.869   1.539 -0.0080 -0.3044 -0.5571
 2021TIP3    H127622   1.268   4.832   1.594  1.2933 -0.0535 -1.9886
 2021TIP3    H227623   1.158   4.936   1.595 -0.0091 -1.3588  0.7694
 2022TIP3   OH227624   3.142   1.265   8.309 -0.1132  0.0176  0.5200
 2022TIP3    H127625   3.129   1.296   8.220 -1.8561 -1.1235  0.3378
 2022TIP3    H227626   3.180   1.340   8.355 -1.1001  1.3114 -0.6958
 2023TIP3   OH227627   3.974   3.594   1.259 -0.1240  0.4356 -0.1322
 2023TIP3    H127628   3.948   3.547   1.180 -0.5023  1.7242 -0.7986
 2023TIP3    H227629   4.062   3.626   1.241  0.3721 -0.4930  0.5525
 2024TIP3   OH227630   4.057   2.549   8.385  0.0406 -0.0905  0.1131
 2024TIP3    H127631   4.084   2.527   8.474 -0.2137 -1.7164 -0.1943
 2024TIP3    H227632   4.090   2.478   8.330  3.0008  2.3685 -1.6717
 2025TIP3   OH227633   4.428   2.048   7.004  0.7186  0.3320  0.0095
 2025TIP3    H127634   4.460   2.109   7.070  0.6459  0.1122  0.2464
 2025TIP3    H227635   4.333   2.054   7.010  0.5732 -2.5053  2.5953
 2026TIP3   OH227636   1.802   5.775   2.066  0.3683  0.1888 -0.1114
 2026TIP3    H127637   1.746   5.700   2.043  0.8324 -0.3756  0.5318
 2026TIP3    H227638   1.759   5.813   2.143  0.3863  0.2948 -0.1553
 2027TIP3   OH227639   4.287   3.639   1.305 -0.1553 -0.1515  0.3128
 2027TIP3    H127640   4.345   3.570   1.273 -0.6396 -0.8448  0.9213
 2027TIP3    H227641   4.298   3.638   1.400 -0.1748  0.6136  0.3347
 2028TIP3   OH227642   3.884   1.708   7.337 -0.2808 -0.0771 -0.6038
 2028TIP3    H127643   3.802   1.752   7.315 -0.8739 -0.5780  0.5117
 2028TIP3    H227644   3.950   1.777   7.333 -1.0129  0.6933  0.0104
 2029TIP3   OH227645   2.188   5.897   6.910 -0.3695  0.2398 -0.1214
 2029TIP3    H127646   2.261   5.919   6.854  0.0136  0.9434  0.6247
 2029TIP3    H227647   2.132   5.975   6.909  0.0412  0.5855  1.0582
 2030TIP3   OH227648   5.129   0.835   8.415  0.5901 -0.0750  0.0354
 2030TIP3    H127649   5.104   0.924   8.440  2.9699  1.1300 -1.4716
 2030TIP3    H227650   5.049   0.784   8.426 -1.0595  2.3682  0.3421
 2031TIP3   OH227651   3.801   5.303   1.201 -0.1782 -0.6012  0.2033
 2031TIP3    H127652   3.834   5.381   1.156 -0.5188 -1.3010 -1.2906
 2031TIP3    H227653   3.733   5.336   1.260  1.0319  0.4656  1.0544
 2032TIP3   OH227654   3.788   4.301   1.415  0.6721  0.0281 -0.2214
 2032TIP3    H127655   3.773   4.311   1.321  0.1110 -0.1902 -0.1614
 2032TIP3    H227656   3.883   4.295   1.424  1.0111  3.0948 -0.4926
 2033TIP3   OH227657   0.188   0.664   0.361 -0.0872  0.1150 -0.6697
 2033TIP3    H127658   0.205   0.740   0.306 -2.9991 -0.5508 -2.7389
 2033TIP3    H227659   0.138   0.698   0.435 -2.3839  0.2102 -2.1615
 2034TIP3   OH227660   5.873   3.000   8.770 -0.1947  0.7573 -0.3965
 2034TIP3    H127661   5.956   3.046   8.755 -0.3167  0.9931 -0.3444
 2034TIP3    H227662   5.822   3.015   8.690 -0.1594  0.5562 -0.4561
 2035TIP3   OH227663   1.787   0.638   0.292  0.3000 -0.1738  0.4304
 2035TIP3    H127664   1.791   0.573   0.222 -0.8574 -0.8645  0.9751
 2035TIP3    H227665   1.702   0.682   0.279 -0.7957 -1.5290  2.4037
 2036TIP3   OH227666   1.178   5.955   8.082  0.4128 -0.3312 -0.2588
 2036TIP3    H127667   1.233   5.882   8.052  1.3123 -0.1617  0.9029
 2036TIP3    H227668   1.173   5.945   8.177 -0.6151  0.3305 -0.2255
 2037TIP3   OH227669   0.581   6.106   2.309  0.4102  0.0670  0.7953
 2037TIP3    H127670   0.505   6.145   2.352  1.2906  1.5368  1.0767
 2037TIP3    H227671   0.587   6.151   2.225  1.0793  0.1007  0.8562
 2038TIP3   OH227672   2.884   3.610   8.207 -0.4083 -0.0590  0.0222
 2038TIP3    H127673   2.888   3.572   8.119 -1.8285  0.2518 -0.2043
 2038TIP3    H227674   2.886   3.704   8.193 -1.6293  0.0098  0.2404
 2039TIP3   OH227675   5.265   3.225   7.892  0.2164  0.4205 -0.0303
 2039TIP3    H127676   5.310   3.260   7.969  2.0691 -0.2381 -0.7551
 2039TIP3    H227677   5.319   3.151   7.864 -0.1554  0.8911 -2.2059
 2040TIP3   OH227678   4.713   3.405   7.355 -0.1182 -0.5351 -0.1335
 2040TIP3    H127679   4.627   3.441   7.334 -0.3456 -0.4231  0.9247
 2040TIP3    H227680   4.756   3.394   7.270 -0.3385  1.4636 -0.5644
 2041TIP3   OH227681   3.596   0.938   0.541 -0.0379  0.6789  0.4447
 2041TIP3    H127682   3.685   0.934   0.507 -0.2318 -1.0695  0.0350
 2041TIP3    H227683   3.544   0.975   0.470 -0.1825 -1.5617 -0.7157
 2042TIP3   OH227684   2.358   0.902   7.151 -0.5396 -0.1141  0.0142
 2042TIP3    H127685   2.404   0.836   7.099 -0.6810 -0.3666  0.2081
 2042TIP3    H227686   2.425   0.967   7.172 -0.2555 -0.5019  0.3307
 2043TIP3   OH227687   0.152   5.069   1.152  0.4745  0.2749 -0.3907
 2043TIP3    H127688   0.162   4.979   1.183 -0.6528 -0.1587 -1.2079
 2043TIP3    H227689   0.070   5.067   1.102  0.5995  1.6884 -0.6647
 2044TIP3   OH227690   4.286   0.913   0.914 -0.5985  0.3602  0.2440
 2044TIP3    H127691   4.363   0.965   0.936 -0.1625 -0.2589  0.2085
 2044TIP3    H227692   4.212   0.966   0.943 -0.2786  1.9172 -1.6609
 2045TIP3   OH227693   6.411   6.680   8.763  0.0592  0.0709 -0.4813
 2045TIP3    H127694   6.417   6.600   8.710  1.4045 -0.9416  1.0871
 2045TIP3    H227695   6.484   6.673   8.825 -1.0956  1.4520  1.1347
 2046TIP3   OH227696   4.042   3.581   8.502  0.3654  0.4636 -0.7259
 2046TIP3    H127697   3.965   3.631   8.529  1.3270  1.6257 -0.0633
 2046TIP3    H227698   4.007   3.494   8.480 -0.8653  0.3103  1.5159
 2047TIP3   OH227699   2.791   3.039   6.756  0.1599  0.2468  0.2046
 2047TIP3    H127700   2.759   3.062   6.669 -1.0286 -0.4825  0.4233
 2047TIP3    H227701   2.885   3.057   6.753  0.2667 -0.4396 -1.4568
 2048TIP3   OH227702   1.784   5.825   6.992  0.0125 -0.6123 -0.0669
 2048TIP3    H127703   1.701   5.852   6.953  0.4371 -0.1641 -0.6796
 2048TIP3    H227704   1.807   5.896   7.052  0.3320 -0.3772 -0.4694
 2049TIP3   OH227705   1.611   1.367   2.317 -0.5377 -0.3648  0.0674
 2049TIP3    H127706   1.668   1.303   2.275 -0.5057 -0.9003  0.9000
 2049TIP3    H227707   1.665   1.445   2.326  0.5127 -1.2412  1.9418
 2050TIP3   OH227708   5.865   0.517   8.244  0.4290 -0.4034 -0.3882
 2050TIP3    H127709   5.867   0.477   8.331 -2.3918  1.7063  0.8085
 2050TIP3    H227710   5.943   0.572   8.242 -0.4248  1.0232  1.7196
 2051TIP3   OH227711   3.657   0.855   1.366 -0.0881  0.6700 -0.1950
 2051TIP3    H127712   3.691   0.918   1.303 -0.6364  0.2377 -0.9523
 2051TIP3    H227713   3.591   0.903   1.416  1.5435  1.5140  1.2817
 2052TIP3   OH227714   0.770   6.390   7.198 -1.1819  0.2528 -0.4581
 2052TIP3    H127715   0.864   6.398   7.179 -0.7112  1.2756  1.9142
 2052TIP3    H227716   0.763   6.311   7.251 -1.3022  1.3155  1.1546
 2053TIP3   OH227717   1.356   1.734   2.027 -0.4653 -0.1928  0.3350
 2053TIP3    H127718   1.371   1.687   1.945 -2.6150  1.7959 -1.3518
 2053TIP3    H227719   1.269   1.705   2.056 -0.2265  0.0036  1.2799
 2054TIP3   OH227720   5.684   1.007   2.657 -0.7234 -0.1886 -0.3889
 2054TIP3    H127721   5.732   1.082   2.620 -0.2924 -0.5886 -0.6492
 2054TIP3    H227722   5.597   1.042   2.676 -0.1820  0.6883  0.5761
 2055TIP3   OH227723   0.373   1.303   1.455 -0.0893  0.0273  0.4736
 2055TIP3    H127724   0.302   1.263   1.506  1.4398 -1.1170  1.7775
 2055TIP3    H227725   0.350   1.396   1.450 -1.2170 -0.1689  1.6481
 2056TIP3   OH227726   1.000   2.203   8.661  0.0784 -0.6071 -0.3284
 2056TIP3    H127727   1.064   2.143   8.623  0.5887  0.2238 -0.7993
 2056TIP3    H227728   1.013   2.286   8.615 -1.7001 -0.5564 -0.8369
 2057TIP3   OH227729   0.234   0.589   1.810 -0.1656  0.7764 -0.3435
 2057TIP3    H127730   0.287   0.537   1.750  1.8268  2.1974  0.0960
 2057TIP3    H227731   0.177   0.640   1.753  0.3034  0.6573 -0.9288
 2058TIP3   OH227732   1.090   2.536   1.710  0.0358 -0.2869 -0.0542
 2058TIP3    H127733   1.103   2.620   1.754 -1.5639 -0.3537  0.6072
 2058TIP3    H227734   1.178   2.511   1.680  0.7769  0.9118  1.0084
 2059TIP3   OH227735   5.468   3.073   0.607  0.2678  0.0547 -0.0560
 2059TIP3    H127736   5.492   3.030   0.525 -1.6283 -0.3670 -0.4419
 2059TIP3    H227737   5.501   3.162   0.598 -0.6829  0.2965 -1.7044
 2060TIP3   OH227738   4.817   6.323   7.033  0.6595  0.3539  0.1177
 2060TIP3    H127739   4.840   6.234   7.005  0.0956 -0.0390  0.8310
 2060TIP3    H227740   4.813   6.374   6.952  1.8157 -0.0627 -0.2279
 2061TIP3   OH227741   0.794   0.142   7.564  0.4171 -0.4035  0.5355
 2061TIP3    H127742   0.820   0.113   7.476  1.3514  0.1376  0.6252
 2061TIP3    H227743   0.715   0.091   7.583 -1.2787  1.2209 -1.6221
 2062TIP3   OH227744   0.135   0.760   7.612 -0.0650  0.1730  0.6059
 2062TIP3    H127745   0.079   0.692   7.574 -0.3491  1.7676 -2.0765
 2062TIP3    H227746   0.074   0.822   7.652 -0.0482  0.6125 -0.0464
 2063TIP3   OH227747   4.384   6.411   6.799 -0.6501 -0.7274  0.5818
 2063TIP3    H127748   4.362   6.503   6.813 -1.7486 -1.1701  2.0783
 2063TIP3    H227749   4.318   6.380   6.736  0.6219 -0.1817 -1.0970
 2064TIP3   OH227750   1.736   3.942   2.918  0.3384 -0.0309 -0.4843
 2064TIP3    H127751   1.726   3.987   2.834  2.3586  1.7023  0.1463
 2064TIP3    H227752   1.649   3.947   2.958  0.2017  2.3136 -0.9468
 2065TIP3   OH227753   6.733   0.324   8.005  0.4088  0.4110  0.6669
 2065TIP3    H127754   6.710   0.271   8.082  2.4669 -0.0685  1.0098
 2065TIP3    H227755   6.705   0.270   7.930  1.2768 -0.5918  1.0362
 2066TIP3   OH227756   0.413   2.450   2.388 -0.3108 -0.7705 -0.2389
 2066TIP3    H127757   0.474   2.386   2.425 -0.4460 -0.7539  0.0175
 2066TIP3    H227758   0.465   2.499   2.325  0.3416  0.2348  1.0364
 2067TIP3   OH227759   1.703   1.284   2.735 -0.2308  0.8210 -0.7083
 2067TIP3    H127760   1.659   1.368   2.729 -1.0377  0.4972  0.3885
 2067TIP3    H227761   1.716   1.270   2.829 -0.1564 -0.2943 -0.8688
 2068TIP3   OH227762   5.234   5.836   2.800  0.3195 -0.1190 -0.2453
 2068TIP3    H127763   5.283   5.795   2.871 -1.9847  0.0381  1.5506
 2068TIP3    H227764   5.231   5.929   2.823  0.8518  0.2110 -1.4090
 2069TIP3   OH227765   3.445   0.537   1.072  0.0960  0.5680 -0.5283
 2069TIP3    H127766   3.480   0.619   1.106  0.0830 -0.1692  1.3564
 2069TIP3    H227767   3.351   0.541   1.090  0.4142 -0.8113  1.7697
 2070TIP3   OH227768   5.821   2.693   0.505 -0.7112 -0.1281  0.0842
 2070TIP3    H127769   5.869   2.612   0.487  0.3371  0.2225  1.1586
 2070TIP3    H227770   5.741   2.665   0.549  0.3697 -0.5381  1.8965
 2071TIP3   OH227771   5.150   6.551   8.752 -0.2791  0.0659  0.2924
 2071TIP3    H127772   5.152   6.566   8.657 -0.8577  2.6488  0.6384
 2071TIP3    H227773   5.241   6.558   8.779 -0.3520  1.4935  0.2052
 2072TIP3   OH227774   5.768   4.284   1.018  0.2343 -0.2706  0.3638
 2072TIP3    H127775   5.680   4.275   1.054 -0.0205 -0.5354 -0.3168
 2072TIP3    H227776   5.812   4.202   1.040  0.2941 -0.1664  0.6419
 2073TIP3   OH227777   0.284   0.568   2.305  0.0516 -0.3901  0.1592
 2073TIP3    H127778   0.225   0.611   2.366 -0.9224 -1.7467  0.2218
 2073TIP3    H227779   0.258   0.601   2.219 -1.3551 -1.5298  0.1066
 2074TIP3   OH227780   3.346   2.507   2.728  0.0083 -0.4065 -0.3845
 2074TIP3    H127781   3.424   2.493   2.674  1.7410 -0.7468  2.0195
 2074TIP3    H227782   3.354   2.598   2.759 -1.1979 -0.0606 -1.0478
 2075TIP3   OH227783   3.156   4.475   8.432 -0.5126 -0.0741 -0.1354
 2075TIP3    H127784   3.120   4.544   8.488  2.2989  1.9242 -0.5595
 2075TIP3    H227785   3.142   4.508   8.343  1.0285  0.0945 -0.3377
 2076TIP3   OH227786   4.359   2.884   2.321 -0.2743  0.0282  0.3033
 2076TIP3    H127787   4.382   2.844   2.405  0.7019 -2.8840 -1.2063
 2076TIP3    H227788   4.442   2.898   2.277 -0.8419 -0.4361 -0.9657
 2077TIP3   OH227789   4.591   2.340   7.555  0.3153 -0.0275 -0.8065
 2077TIP3    H127790   4.501   2.371   7.541 -0.2983 -1.1366  0.3660
 2077TIP3    H227791   4.646   2.408   7.518 -1.0226 -0.1271 -3.1478
 2078TIP3   OH227792   0.674   3.605   6.880  0.2886  0.4953  0.4363
 2078TIP3    H127793   0.653   3.614   6.973  2.4329  2.0072  0.8332
 2078TIP3    H227794   0.709   3.516   6.872 -1.0048 -0.0688  0.8079
 2079TIP3   OH227795   2.836   1.889   8.353  0.4298 -0.3103  0.0406
 2079TIP3    H127796   2.797   1.851   8.432 -0.2656  1.0271  0.3604
 2079TIP3    H227797   2.893   1.958   8.385 -1.0190  1.2696 -0.6649
 2080TIP3   OH227798   4.172   1.046   2.765  0.0575 -0.3317 -0.1212
 2080TIP3    H127799   4.089   1.079   2.730 -0.7963 -1.3012  0.9317
 2080TIP3    H227800   4.215   1.123   2.803  0.2385  0.4190 -1.7508
 2081TIP3   OH227801   0.193   6.137   0.700  0.0864  0.5620 -0.1453
 2081TIP3    H127802   0.232   6.065   0.651  0.1918 -0.1775  0.9753
 2081TIP3    H227803   0.266   6.174   0.750 -0.7747 -2.0945  3.5158
 2082TIP3   OH227804   6.700   0.754   8.035  0.4569  0.4329 -1.0094
 2082TIP3    H127805   6.607   0.736   8.048  0.3566  1.0095 -0.8951
 2082TIP3    H227806   6.707   0.849   8.045  1.4995  0.1427  1.8321
 2083TIP3   OH227807   1.699   4.910   1.928 -0.2170  0.4332  0.4424
 2083TIP3    H127808   1.759   4.864   1.870  0.3969  0.2709  1.1827
 2083TIP3    H227809   1.710   5.003   1.907 -0.8019  0.3087 -0.4400
 2084TIP3   OH227810   0.556   1.044   8.718 -0.7666  0.5832 -0.0766
 2084TIP3    H127811   0.528   0.957   8.690 -0.0090  0.2292  0.2386
 2084TIP3    H227812   0.562   1.038   8.813  1.5678  0.2352 -0.1701
 2085TIP3   OH227813   0.635   1.294   0.600 -0.0703  0.2230 -0.1940
 2085TIP3    H127814   0.662   1.224   0.660  1.1447  0.9522  0.1387
 2085TIP3    H227815   0.647   1.257   0.513 -0.1076 -0.2145 -0.0201
 2086TIP3   OH227816   3.640   2.146   0.478  0.1440 -0.1667 -0.2899
 2086TIP3    H127817   3.651   2.188   0.564  0.6150 -0.3470 -0.2629
 2086TIP3    H227818   3.552   2.108   0.482 -0.6552  1.5312 -0.6216
 2087TIP3   OH227819   4.300   4.123   0.637  0.2565  0.1910  0.1094
 2087TIP3    H127820   4.384   4.083   0.617  0.0174 -0.9923  1.3034
 2087TIP3    H227821   4.242   4.049   0.656 -0.0993  1.0305  2.7588
 2088TIP3   OH227822   4.363   0.269   8.173 -0.2328  0.0862 -0.0271
 2088TIP3    H127823   4.351   0.213   8.096  2.1337  0.3026 -0.6456
 2088TIP3    H227824   4.296   0.241   8.234  0.5172 -3.1342 -0.4978
 2089TIP3   OH227825   5.632   5.802   7.529  0.1483  0.5080  0.4990
 2089TIP3    H127826   5.577   5.824   7.454  0.6500  2.0174  0.5395
 2089TIP3    H227827   5.576   5.750   7.586  0.0643 -1.6405 -1.3876
 2090TIP3   OH227828   4.883   3.951   1.414  0.1490 -0.0874  0.0872
 2090TIP3    H127829   4.926   3.940   1.499  2.7161 -1.5070 -1.3009
 2090TIP3    H227830   4.830   3.872   1.404  1.7473 -1.0987 -0.6303
 2091TIP3   OH227831   0.035   2.191   7.777 -0.1846  0.3829 -0.2565
 2091TIP3    H127832   0.058   2.209   7.868 -1.9513 -0.2235  0.3446
 2091TIP3    H227833  -0.055   2.161   7.780 -0.9736  2.1921 -2.4021
 2092TIP3   OH227834   1.383   0.222   1.434 -0.0390 -0.6376 -0.7164
 2092TIP3    H127835   1.338   0.277   1.369 -0.2722 -0.4727 -0.4177
 2092TIP3    H227836   1.377   0.272   1.516 -0.7754 -1.3758 -0.3053
 2093TIP3   OH227837   6.253   2.042   1.239 -0.4092 -0.3501 -0.9744
 2093TIP3    H127838   6.227   2.115   1.183  1.0994  0.6032 -0.4717
 2093TIP3    H227839   6.273   2.082   1.324  0.5685 -1.3222 -0.7254
 2094TIP3   OH227840   5.104   0.779   7.204 -0.0407  0.7823  0.0811
 2094TIP3    H127841   5.180   0.735   7.240 -0.5576  0.9662  1.4736
 2094TIP3    H227842   5.079   0.727   7.127  0.1523 -0.5724  0.9111
 2095TIP3   OH227843   5.217   3.339   0.708 -0.3886  0.5471 -0.2903
 2095TIP3    H127844   5.261   3.272   0.760  0.7790 -0.3463 -2.2903
 2095TIP3    H227845   5.253   3.422   0.738  1.0542 -0.0262 -0.3825
 2096TIP3   OH227846   1.690   2.649   7.996 -0.1964  0.0865  0.1592
 2096TIP3    H127847   1.713   2.723   7.940 -0.6927  0.0031 -0.1644
 2096TIP3    H227848   1.741   2.575   7.961  0.1013  0.2163  0.3188
 2097TIP3   OH227849   0.001   4.437   1.214  0.4008  0.5620 -0.0138
 2097TIP3    H127850  -0.017   4.459   1.122 -0.6080  0.5024  0.1524
 2097TIP3    H227851  -0.034   4.511   1.264 -1.3167 -0.4894  0.4424
 2098TIP3   OH227852   3.871   6.697   0.622  0.6944 -0.7246  0.3705
 2098TIP3    H127853   3.948   6.717   0.568  0.3223 -0.0740  0.0713
 2098TIP3    H227854   3.889   6.739   0.706  0.4441 -0.1346  0.1334
 2099TIP3   OH227855   5.987   1.599   8.579 -0.5266 -0.5892 -0.1305
 2099TIP3    H127856   5.966   1.515   8.537 -1.4417 -0.7955  0.7095
 2099TIP3    H227857   5.902   1.635   8.604 -0.1857  0.8312 -0.9028
 2100TIP3   OH227858   1.543   5.941   6.873 -0.0693  0.1134 -0.1197
 2100TIP3    H127859   1.478   6.003   6.905 -0.6062 -0.0035 -0.9455
 2100TIP3    H227860   1.491   5.865   6.844  0.2919  0.5060 -1.9407
 2101TIP3   OH227861   2.565   6.675   8.428 -0.4275 -0.5346  0.7562
 2101TIP3    H127862   2.470   6.692   8.428 -0.1437  1.2222  0.5268
 2101TIP3    H227863   2.602   6.745   8.481  0.8485 -0.5505 -0.0778
 2102TIP3   OH227864   3.692   3.939   2.090  0.7891  0.2592  0.0743
 2102TIP3    H127865   3.599   3.936   2.070  0.9104  0.1005 -0.4811
 2102TIP3    H227866   3.704   4.023   2.135  0.4789  0.5558 -0.3825
 2103TIP3   OH227867   5.167   5.913   7.966  0.0297 -0.5486  0.9620
 2103TIP3    H127868   5.167   5.817   7.974 -0.0954 -0.6415 -0.0004
 2103TIP3    H227869   5.087   5.941   8.010 -0.8042 -1.0409 -0.1861
 2104TIP3   OH227870   2.115   4.159   8.132  0.5534  0.2575  1.1460
 2104TIP3    H127871   2.093   4.237   8.183 -2.0189  0.5211 -0.2352
 2104TIP3    H227872   2.032   4.113   8.120  1.2786 -0.5222 -1.5830
 2105TIP3   OH227873   3.776   6.684   2.947 -0.3555  0.1257 -0.8257
 2105TIP3    H127874   3.744   6.643   2.867  0.4605  0.4598 -1.3399
 2105TIP3    H227875   3.828   6.617   2.990 -1.4008 -0.2924 -0.1867
 2106TIP3   OH227876   2.437   0.253   0.821  0.4180  0.5001 -0.3392
 2106TIP3    H127877   2.407   0.197   0.893 -0.3554  1.6238  0.2575
 2106TIP3    H227878   2.448   0.339   0.862 -0.5376  1.2779 -1.6707
 2107TIP3   OH227879   0.646   5.986   8.674  0.1268 -0.0079 -0.5521
 2107TIP3    H127880   0.654   6.045   8.748  0.4807  0.9683 -1.3566
 2107TIP3    H227881   0.731   5.988   8.631 -0.0249 -0.6800 -0.9123
 2108TIP3   OH227882   3.369   3.047   8.244  0.2631 -0.0810  0.0064
 2108TIP3    H127883   3.453   3.080   8.212  0.1249  1.1437  0.8464
 2108TIP3    H227884   3.325   3.014   8.165  0.2887  2.0246 -0.9499
 2109TIP3   OH227885   2.306   2.433   2.033  0.1094 -0.1948 -0.9836
 2109TIP3    H127886   2.335   2.401   2.119  0.4056 -1.6083 -1.5964
 2109TIP3    H227887   2.380   2.417   1.975  0.6259  2.4166 -1.1891
 2110TIP3   OH227888   4.469   5.860   0.547  0.2983  0.2704 -0.3417
 2110TIP3    H127889   4.462   5.840   0.454  1.6544 -0.2460 -0.3676
 2110TIP3    H227890   4.559   5.835   0.570  0.3149  1.3207  0.8783
 2111TIP3   OH227891   4.840   2.913   8.356  0.2277  0.1332  0.3259
 2111TIP3    H127892   4.772   2.957   8.304 -1.0503 -2.2379 -0.1853
 2111TIP3    H227893   4.913   2.975   8.358 -1.7807  2.6557  0.5903
 2112TIP3   OH227894   6.529   0.728   1.650 -0.6145  0.2667 -0.2262
 2112TIP3    H127895   6.492   0.641   1.657 -0.4905  0.2822  0.7823
 2112TIP3    H227896   6.454   0.787   1.660 -0.5406  0.2807  0.2821
 2113TIP3   OH227897   4.079   5.365   1.474 -0.8757 -0.4628 -0.6864
 2113TIP3    H127898   4.082   5.387   1.380  3.4244 -2.4346 -1.2692
 2113TIP3    H227899   4.119   5.440   1.517  0.3759 -0.9710 -0.9197
 2114TIP3   OH227900   2.834   1.403   8.613 -0.0048  0.2919 -0.0382
 2114TIP3    H127901   2.921   1.440   8.619  0.4756 -0.6592 -0.8249
 2114TIP3    H227902   2.848   1.309   8.602 -1.1129  0.1535 -0.4740
 2115TIP3   OH227903   4.373   6.376   8.619 -0.0725  0.0144 -0.6326
 2115TIP3    H127904   4.341   6.290   8.592 -0.3542 -0.1345  0.1512
 2115TIP3    H227905   4.437   6.357   8.688  0.4642  0.4003 -1.0094
 2116TIP3   OH227906   5.253   0.112   8.495  0.6612  0.0301  0.1802
 2116TIP3    H127907   5.243   0.122   8.400  0.8892  5.6691  0.4136
 2116TIP3    H227908   5.164   0.096   8.527  0.4963 -1.3081 -0.8467
 2117TIP3   OH227909   3.478   2.006   7.624  0.1249  0.0473  0.1450
 2117TIP3    H127910   3.569   2.016   7.652  0.1196  2.2829 -0.4934
 2117TIP3    H227911   3.472   1.915   7.594  1.4913 -0.8675  2.3496
 2118TIP3   OH227912   2.289   6.212   2.046  0.3734 -0.0614  0.5260
 2118TIP3    H127913   2.274   6.257   1.962  2.2793  0.6408  0.5013
 2118TIP3    H227914   2.353   6.144   2.025 -0.3004 -0.9104  1.1417
 2119TIP3   OH227915   5.501   0.531   2.525  0.2460 -0.2484  0.0698
 2119TIP3    H127916   5.570   0.468   2.507  0.3223 -0.2894  0.4953
 2119TIP3    H227917   5.547   0.609   2.556  0.0620 -0.6159  1.3443
 2120TIP3   OH227918   1.161   4.008   8.854  0.4892  0.0679 -0.3504
 2120TIP3    H127919   1.142   3.929   8.904  1.1285 -0.7964 -1.4449
 2120TIP3    H227920   1.087   4.018   8.795  1.4893 -1.0673 -1.8513
 2121TIP3   OH227921   5.084   2.813   8.604  0.3531 -0.0518 -0.0799
 2121TIP3    H127922   5.070   2.890   8.660  0.8998  0.0324 -0.0530
 2121TIP3    H227923   5.133   2.846   8.529  1.0113 -0.4514  0.1589
 2122TIP3   OH227924   6.237   1.956   8.266 -0.1856 -0.4015  0.0513
 2122TIP3    H127925   6.146   1.967   8.291 -0.1834 -0.6028  0.1453
 2122TIP3    H227926   6.284   1.946   8.349 -0.0137  0.1549  0.0310
 2123TIP3   OH227927   2.612   6.631   8.775 -0.3522  0.0616 -0.1321
 2123TIP3    H127928   2.552   6.682   8.829  0.9923  0.0144  1.4884
 2123TIP3    H227929   2.653   6.695   8.717  0.8665  0.7781  1.4542
 2124TIP3   OH227930   2.135   5.487   1.881  0.1147 -0.0241  0.1540
 2124TIP3    H127931   2.058   5.458   1.930 -0.0019  1.0759  0.6469
 2124TIP3    H227932   2.168   5.407   1.839 -2.3652 -0.2397 -1.6228
 2125TIP3   OH227933   5.619   0.191   2.964 -0.1208 -0.5164  0.0041
 2125TIP3    H127934   5.702   0.240   2.965  0.4918 -1.5258  0.6776
 2125TIP3    H227935   5.556   0.250   3.005  0.6168 -0.2944  0.8620
 2126TIP3   OH227936   4.740   0.473   7.760 -0.6762  0.0753 -0.3232
 2126TIP3    H127937   4.824   0.431   7.743 -1.2941 -0.9222 -1.0713
 2126TIP3    H227938   4.732   0.540   7.692 -0.4490  0.2414 -0.1882
 2127TIP3   OH227939   3.724   4.830   7.338 -0.2364 -0.5541  0.4123
 2127TIP3    H127940   3.728   4.809   7.431 -1.4011 -0.3551  0.5156
 2127TIP3    H227941   3.646   4.884   7.328  1.6678  2.3132 -0.1253
 2128TIP3   OH227942   0.319   6.622   8.033 -0.0229 -0.0916 -0.2896
 2128TIP3    H127943   0.312   6.717   8.043 -2.4149 -0.3326  0.8995
 2128TIP3    H227944   0.401   6.600   8.078 -0.9252  1.1038  2.0864
 2129TIP3   OH227945   6.452   5.779   0.449 -0.6439 -0.0513  0.1670
 2129TIP3    H127946   6.490   5.773   0.362  0.9665 -1.9246  0.9037
 2129TIP3    H227947   6.463   5.691   0.486 -0.7778  0.8053  2.4454
 2130TIP3   OH227948   1.758   6.079   0.354 -0.2160  0.2509 -0.0619
 2130TIP3    H127949   1.782   6.143   0.287 -2.0133 -1.5210 -2.6152
 2130TIP3    H227950   1.662   6.079   0.354 -0.3062 -2.5604 -0.4296
 2131TIP3   OH227951   2.493   0.257   2.263 -0.3063  0.3223  0.1662
 2131TIP3    H127952   2.564   0.194   2.275  0.4177  1.1480  0.2017
 2131TIP3    H227953   2.433   0.239   2.336  0.3400  0.2804  0.6876
 2132TIP3   OH227954   4.386   2.621   0.294 -0.1617  0.0477 -0.3560
 2132TIP3    H127955   4.308   2.570   0.314  0.0120 -0.6784 -1.4719
 2132TIP3    H227956   4.389   2.688   0.362  0.1964 -2.0454  1.7967
 2133TIP3   OH227957   2.855   3.507   1.522  0.5156 -0.0193  0.3661
 2133TIP3    H127958   2.799   3.556   1.461  0.0758 -0.0165  0.7691
 2133TIP3    H227959   2.885   3.431   1.471  0.8516  0.4292 -0.1246
 2134TIP3   OH227960   2.784   4.367   0.889 -0.3654 -0.3730  0.1942
 2134TIP3    H127961   2.763   4.276   0.870 -0.1889 -0.1117 -1.3789
 2134TIP3    H227962   2.764   4.414   0.808 -1.0690  1.1000  1.1807
 2135TIP3   OH227963   3.267   1.549   2.154 -0.5302  0.0268  0.6591
 2135TIP3    H127964   3.333   1.602   2.197 -0.6319  0.0678  0.7634
 2135TIP3    H227965   3.191   1.606   2.146 -0.6788 -0.1411  0.8775
 2136TIP3   OH227966   2.805   5.510   0.031 -0.3647 -0.6026 -0.4127
 2136TIP3    H127967   2.777   5.598   0.053 -0.1150 -0.3816 -0.9486
 2136TIP3    H227968   2.737   5.477  -0.027  0.3366 -0.1469 -1.5351
 2137TIP3   OH227969   4.087   2.663   8.072  0.2930  0.0779 -0.0791
 2137TIP3    H127970   4.086   2.567   8.082  1.9130  0.2701  3.1532
 2137TIP3    H227971   4.179   2.684   8.060  0.0652  1.3199  0.2920
 2138TIP3   OH227972   0.443   3.121   0.044  0.1068 -0.2049 -0.2573
 2138TIP3    H127973   0.409   3.199   0.089  1.8384  0.0836  0.6407
 2138TIP3    H227974   0.424   3.136  -0.048 -1.2318  0.4096  0.0979
 2139TIP3   OH227975   0.556   0.911   2.982 -0.1980 -0.8183 -0.1658
 2139TIP3    H127976   0.630   0.962   3.015 -2.1662  0.6232  2.3700
 2139TIP3    H227977   0.554   0.834   3.038 -0.5803 -0.8791 -0.2642
 2140TIP3   OH227978   2.506   0.493   8.138 -0.5236  0.1193  0.3714
 2140TIP3    H127979   2.417   0.518   8.161 -0.6286 -0.9549  1.2048
 2140TIP3    H227980   2.527   0.546   8.061 -1.9774  0.1887  0.0001
 2141TIP3   OH227981   2.960   3.221   1.710 -0.8625 -0.6792 -0.0061
 2141TIP3    H127982   2.942   3.287   1.644 -0.4909 -0.6196 -0.0480
 2141TIP3    H227983   2.938   3.263   1.793  0.8774  0.0540  0.1098
 2142TIP3   OH227984   2.777   3.676   8.945 -0.3969 -0.1799 -0.2819
 2142TIP3    H127985   2.701   3.640   8.989 -1.5048 -1.8833 -3.2815
 2142TIP3    H227986   2.754   3.768   8.929 -0.0183  0.4503  2.3181
 2143TIP3   OH227987   5.497   3.936   1.578 -0.4422  0.4372  0.2581
 2143TIP3    H127988   5.586   3.971   1.581 -0.4753  0.5478  0.0063
 2143TIP3    H227989   5.442   4.010   1.602 -0.5726  0.8074 -1.0552
 2144TIP3   OH227990   0.575   2.102   1.404 -0.0498  0.0405 -0.4825
 2144TIP3    H127991   0.553   2.180   1.454 -0.3192  0.5645 -1.3837
 2144TIP3    H227992   0.656   2.070   1.442  0.4866  1.2164 -0.5931
 2145TIP3   OH227993   3.237   5.425   1.528  0.0038  0.1767 -0.0391
 2145TIP3    H127994   3.254   5.334   1.552  0.0802 -0.2087 -1.4596
 2145TIP3    H227995   3.182   5.459   1.599 -0.4682 -1.1290  0.2416
 2146TIP3   OH227996   1.982   5.242   2.047  0.4249  0.0201 -0.1513
 2146TIP3    H127997   2.069   5.202   2.041  0.4227 -0.0307  0.1341
 2146TIP3    H227998   1.994   5.316   2.108  0.2077 -0.1546  0.1025
 2147TIP3   OH227999   1.079   6.138   2.008 -0.4375  0.3374  0.1675
 2147TIP3    H128000   1.145   6.073   2.033 -0.8172  0.3143  1.1555
 2147TIP3    H228001   1.010   6.129   2.074  0.0203  2.5428  1.0243
 2148TIP3   OH228002   3.732   1.987   8.823  0.2188  0.7360  0.2721
 2148TIP3    H128003   3.774   1.958   8.904  0.5530  1.6683  0.4455
 2148TIP3    H228004   3.802   2.029   8.773 -0.4485  2.1788  0.4966
 2149TIP3   OH228005   4.280   3.868   1.579 -0.4546  0.5024  0.1546
 2149TIP3    H128006   4.375   3.877   1.579 -0.3394 -0.5441 -0.1022
 2149TIP3    H228007   4.256   3.866   1.672 -0.1698  0.3137  0.2255
 2150TIP3   OH228008   5.221   5.414   7.395  0.1700 -0.4855 -0.5353
 2150TIP3    H128009   5.167   5.354   7.446 -0.3073 -0.6838 -1.2572
 2150TIP3    H228010   5.161   5.453   7.332  0.3552  1.1583  0.2562
 2151TIP3   OH228011   6.730   2.658   0.986  0.0875  0.1517  0.1697
 2151TIP3    H128012   6.740   2.570   0.948 -1.4737 -0.2834  0.6787
 2151TIP3    H228013   6.789   2.713   0.935  0.7736 -1.1107 -0.4487
 2152TIP3   OH228014   4.829   4.532   8.524  0.3688  0.0122  0.2825
 2152TIP3    H128015   4.908   4.584   8.535  1.0588 -1.4246  3.2070
 2152TIP3    H228016   4.851   4.467   8.457  1.0856  0.6317 -0.0822
 2153TIP3   OH228017   5.180   5.891   0.109  0.1340  0.3342  0.3491
 2153TIP3    H128018   5.214   5.812   0.151  0.9320  0.4668 -0.0241
 2153TIP3    H228019   5.116   5.859   0.046  0.7478 -0.0640 -0.0931
 2154TIP3   OH228020   4.367   3.144   1.349 -0.0346  0.1681 -0.1184
 2154TIP3    H128021   4.309   3.178   1.417 -0.7031  1.5403 -1.3172
 2154TIP3    H228022   4.312   3.084   1.299  0.4372 -0.7840  0.4708
 2155TIP3   OH228023   1.539   4.604   7.874 -0.4795  0.0626  0.7366
 2155TIP3    H128024   1.490   4.663   7.931 -0.8460 -0.5488  1.0631
 2155TIP3    H228025   1.630   4.634   7.882 -0.3488 -0.6282  2.4667
 2156TIP3   OH228026   1.090   4.834   1.300 -0.6764 -0.3060 -0.7073
 2156TIP3    H128027   1.114   4.852   1.391 -0.1012 -0.7912 -0.7564
 2156TIP3    H228028   1.048   4.915   1.270 -0.5324 -0.0078 -0.1257
 2157TIP3   OH228029   3.360   4.479   0.045  0.0066  0.7666 -0.3086
 2157TIP3    H128030   3.314   4.414   0.097 -0.8228  1.5883  0.0145
 2157TIP3    H228031   3.292   4.517  -0.012  0.2171  2.1197  0.2978
 2158TIP3   OH228032   1.088   0.095   0.367 -0.2105 -0.1103  0.2041
 2158TIP3    H128033   1.150   0.154   0.324  0.3574 -1.5908 -1.1131
 2158TIP3    H228034   1.142   0.031   0.411 -0.8032 -0.5987  0.2294
 2159TIP3   OH228035   4.720   0.745   8.722 -0.2460  0.0680 -0.0139
 2159TIP3    H128036   4.811   0.765   8.701  0.1967 -2.0164 -0.2893
 2159TIP3    H228037   4.670   0.818   8.684  1.1998  0.6308 -0.9187
 2160TIP3   OH228038   2.338   3.796   0.048 -0.4633  0.3773 -0.3514
 2160TIP3    H128039   2.244   3.812   0.036 -0.3826  1.5224  0.4266
 2160TIP3    H228040   2.379   3.831  -0.032 -0.5904  1.0382 -0.1313
 2161TIP3   OH228041   2.546   3.879   1.672  0.0211  0.0404 -0.0485
 2161TIP3    H128042   2.550   3.969   1.640 -0.3318  0.3522  0.7701
 2161TIP3    H228043   2.634   3.860   1.703 -0.0328  0.2748  0.2439
 2162TIP3   OH228044   6.564   2.981   0.871  0.1924  0.5519 -0.1736
 2162TIP3    H128045   6.524   3.067   0.861 -0.2921  0.6327  1.9785
 2162TIP3    H228046   6.529   2.929   0.799 -1.7615  1.3659  0.1307
 2163TIP3   OH228047   1.032   1.921   8.496 -0.1125  0.7117 -0.1182
 2163TIP3    H128048   1.077   1.845   8.460  0.7971  0.0752  2.1858
 2163TIP3    H228049   1.096   1.961   8.555 -0.8960  2.7319 -0.5553
 2164TIP3   OH228050   4.522   4.351   1.523 -0.0780 -0.6696  0.4641
 2164TIP3    H128051   4.546   4.297   1.447  0.9826  0.5856 -0.1440
 2164TIP3    H228052   4.541   4.295   1.598 -0.5617 -1.7209 -0.1693
 2165TIP3   OH228053   4.879   1.479   8.260  0.3599 -0.0651 -0.2531
 2165TIP3    H128054   4.910   1.403   8.211  0.6934 -0.5288  0.6429
 2165TIP3    H228055   4.944   1.492   8.329 -1.4137 -1.1349  1.7506
 2166TIP3   OH228056   3.857   6.027   7.087  0.0487  0.2788 -0.1315
 2166TIP3    H128057   3.945   6.022   7.050  0.2726 -0.5255  0.4874
 2166TIP3    H228058   3.843   6.121   7.103  0.7740  0.4104 -0.2550
 2167TIP3   OH228059   1.581   3.162   0.392 -0.1223  0.3755 -0.3880
 2167TIP3    H128060   1.642   3.135   0.461 -1.9683 -1.6351  0.5590
 2167TIP3    H228061   1.528   3.230   0.433  0.2206  0.7644 -0.5823
 2168TIP3   OH228062   1.162   4.167   0.415 -0.3947  0.4069 -0.0243
 2168TIP3    H128063   1.153   4.077   0.447 -0.6868 -0.0349 -1.3196
 2168TIP3    H228064   1.113   4.220   0.478 -1.4963 -0.5165 -0.0851
 2169TIP3   OH228065   4.655   1.937   7.850  0.2987  0.7448  0.1974
 2169TIP3    H128066   4.600   2.002   7.807 -0.3336 -0.1728 -0.4191
 2169TIP3    H228067   4.596   1.893   7.912 -0.4677 -1.9954 -2.2492
 2170TIP3   OH228068   0.075   6.716   8.389 -0.3806 -0.2204  0.7302
 2170TIP3    H128069   0.158   6.668   8.398 -1.2004 -1.8050  0.2419
 2170TIP3    H228070   0.071   6.741   8.297  0.2414  1.2378  1.0656
 2171TIP3   OH228071   0.928   1.607   1.128  0.0714 -0.6318 -0.5864
 2171TIP3    H128072   0.856   1.626   1.188 -2.9735  0.8719 -4.2812
 2171TIP3    H228073   0.930   1.511   1.122 -2.2293 -0.7326 -0.8667
 2172TIP3   OH228074   2.739   3.768   2.519 -0.5673 -0.0484  0.4628
 2172TIP3    H128075   2.814   3.713   2.497 -0.1910 -0.2761  2.1925
 2172TIP3    H228076   2.681   3.710   2.570 -1.2674  0.5124  0.3221
 2173TIP3   OH228077   1.516   6.736   1.032 -0.2153 -0.1345 -0.3523
 2173TIP3    H128078   1.438   6.682   1.043  0.2195 -0.3866  2.0512
 2173TIP3    H228079   1.534   6.770   1.120  0.8774  2.0640 -1.3577
 2174TIP3   OH228080   0.796   4.866   0.112  0.1655 -0.1309 -0.1072
 2174TIP3    H128081   0.888   4.892   0.108  0.3648 -0.6764  0.7449
 2174TIP3    H228082   0.749   4.940   0.073  1.1159 -0.9165 -2.9598
 2175TIP3   OH228083   0.206   0.915   0.793  0.8380  0.8463 -0.4012
 2175TIP3    H128084   0.256   0.962   0.860 -0.3840  0.2666  0.9726
 2175TIP3    H228085   0.249   0.830   0.787 -0.0523  0.2718  0.9312
 2176TIP3   OH228086   4.279   5.475   0.664 -0.2469 -0.3470 -0.3918
 2176TIP3    H128087   4.344   5.413   0.697 -1.5547 -0.5401  2.0580
 2176TIP3    H228088   4.221   5.423   0.610  0.4574 -0.5882 -0.9249
 2177TIP3   OH228089   3.549   1.727   0.267  0.4550 -0.9208  0.0375
 2177TIP3    H128090   3.506   1.645   0.291 -1.1572 -0.0913  0.0859
 2177TIP3    H228091   3.618   1.738   0.332 -0.7095 -1.1734  1.3602
 2178TIP3   OH228092   0.309   1.321   8.606  0.3634 -0.4717  0.4752
 2178TIP3    H128093   0.282   1.229   8.603 -1.6029  0.0692 -0.6137
 2178TIP3    H228094   0.226   1.370   8.608  1.3546  1.2907  0.4979
 2179TIP3   OH228095   4.171   3.250   0.222 -0.4309 -0.2545 -0.4885
 2179TIP3    H128096   4.197   3.233   0.132  1.2739  0.4061 -0.1487
 2179TIP3    H228097   4.166   3.345   0.228  0.7624 -0.2392  0.4480
 2180TIP3   OH228098   1.833   0.438   0.109  0.6837  0.1057  0.3837
 2180TIP3    H128099   1.809   0.349   0.084  0.0880  0.5052 -0.5317
 2180TIP3    H228100   1.819   0.490   0.030 -0.8257  1.3526  1.3831
 2181TIP3   OH228101   6.636   6.341   1.636  0.4378 -0.3369 -0.7778
 2181TIP3    H128102   6.599   6.357   1.549 -2.0014  0.2326  0.2713
 2181TIP3    H228103   6.576   6.385   1.696  2.0369 -0.7238  1.2231
 2182TIP3   OH228104   3.264   2.974   0.435  0.2054  0.2337  0.3792
 2182TIP3    H128105   3.199   2.953   0.503  0.3860 -1.5550  0.0380
 2182TIP3    H228106   3.216   3.031   0.374 -1.5191 -2.0037 -0.5189
 2183TIP3   OH228107   3.552   2.124   2.327  0.2951  0.4094 -0.1022
 2183TIP3    H128108   3.582   2.042   2.286  0.2664  0.9143 -1.1775
 2183TIP3    H228109   3.459   2.129   2.304 -0.1445 -0.1137  1.4612
 2184TIP3   OH228110   3.671   3.193   7.148  0.5638 -0.5959 -0.3298
 2184TIP3    H128111   3.585   3.204   7.188  0.5701  0.5177 -0.5796
 2184TIP3    H228112   3.673   3.257   7.076  0.4858 -2.6344 -2.2603
 2185TIP3   OH228113   3.105   4.387   0.011 -0.3110 -0.1662 -0.0056
 2185TIP3    H128114   3.035   4.338   0.055  1.0937 -0.4482  2.0733
 2185TIP3    H228115   3.114   4.345  -0.074  1.1874 -4.0797  1.8421
 2186TIP3   OH228116   5.681   1.911   1.970 -0.4610  0.2550 -0.1043
 2186TIP3    H128117   5.663   1.835   2.025 -0.2446 -0.1527 -0.5903
 2186TIP3    H228118   5.660   1.883   1.881  3.1373 -0.5491 -0.8631
 2187TIP3   OH228119   1.938   3.417   7.280  0.1884 -0.1431  0.0701
 2187TIP3    H128120   1.860   3.471   7.270  0.2465 -0.2266 -0.9493
 2187TIP3    H228121   1.994   3.442   7.207  0.9093 -0.4432  0.5061
 2188TIP3   OH228122   0.515   5.505   8.938  0.0825  0.1896  0.0310
 2188TIP3    H128123   0.438   5.531   8.887 -0.7946 -2.6736 -0.2363
 2188TIP3    H228124   0.567   5.452   8.878  0.5333 -0.7545  1.2207
 2189TIP3   OH228125   0.206   0.669   8.722 -0.6447  0.8422 -0.0442
 2189TIP3    H128126   0.138   0.714   8.672 -1.8280 -2.8080 -2.0606
 2189TIP3    H228127   0.165   0.587   8.751  2.8027 -1.6183 -1.4467
 2190TIP3   OH228128   4.852   3.211   0.208  0.6222  0.4292 -0.4662
 2190TIP3    H128129   4.948   3.207   0.202  0.5697 -0.0961 -1.0483
 2190TIP3    H228130   4.823   3.218   0.117  0.0515 -0.9753 -0.4140
 2191TIP3   OH228131   2.281   3.724   1.991  0.0226 -0.0810  0.0952
 2191TIP3    H128132   2.312   3.673   1.915  0.6156  2.1635 -1.2634
 2191TIP3    H228133   2.240   3.801   1.953  0.7667  1.3653  2.0767
 2192TIP3   OH228134   3.182   3.010   8.049  0.4552 -0.5264 -0.2016
 2192TIP3    H128135   3.199   3.012   7.955 -1.5239 -0.5882 -0.6186
 2192TIP3    H228136   3.119   2.939   8.060 -0.1270  0.1491  1.0051
 2193TIP3   OH228137   4.348   0.880   8.178  0.5411  0.2581 -0.2578
 2193TIP3    H128138   4.388   0.796   8.197 -0.1258  0.4530  2.4952
 2193TIP3    H228139   4.415   0.929   8.131  1.1950 -1.5118 -1.2624
 2194TIP3   OH228140   5.458   0.759   8.074  0.0797  0.2717  0.0285
 2194TIP3    H128141   5.401   0.808   8.014  0.4029  0.7034  0.0684
 2194TIP3    H228142   5.544   0.798   8.063 -0.2864  2.0570  2.5371
 2195TIP3   OH228143   3.998   6.431   7.996 -0.1942 -0.3545 -0.1177
 2195TIP3    H128144   3.977   6.524   7.996 -0.8368 -0.4900 -0.6444
 2195TIP3    H228145   3.913   6.387   7.990 -0.0817 -1.0468  2.1604
 2196TIP3   OH228146   0.246   3.594   0.770  0.0554 -0.0800  0.8191
 2196TIP3    H128147   0.177   3.572   0.708  0.5214  0.4323  0.0955
 2196TIP3    H228148   0.201   3.633   0.845 -0.3555  2.0988 -0.4613
 2197TIP3   OH228149   0.196   6.254   1.814  0.7418  0.4517 -0.3016
 2197TIP3    H128150   0.175   6.186   1.879  0.4850 -0.5905 -1.4374
 2197TIP3    H228151   0.258   6.212   1.755 -0.1948  0.8617 -1.6144
 2198TIP3   OH228152   5.404   3.124   8.823 -0.0335 -0.3257  0.6221
 2198TIP3    H128153   5.432   3.215   8.813 -1.6691  0.0155 -2.1337
 2198TIP3    H228154   5.481   3.078   8.855  1.3976  1.7166  0.3177
 2199TIP3   OH228155   3.589   1.458   8.531  0.7262 -0.0004  0.2600
 2199TIP3    H128156   3.572   1.526   8.596  2.4758 -1.3129  2.2375
 2199TIP3    H228157   3.685   1.457   8.523  0.5936 -0.4968 -1.7075
 2200TIP3   OH228158   3.679   6.136   0.471  0.0532 -0.2776  0.8321
 2200TIP3    H128159   3.669   6.212   0.415 -0.0638 -0.7348  0.2279
 2200TIP3    H228160   3.772   6.112   0.463  0.4371  0.6255  2.1171
 2201TIP3   OH228161   6.355   4.667   8.586  0.2093  0.2112 -0.0758
 2201TIP3    H128162   6.394   4.692   8.670  0.8486 -0.4191 -0.1761
 2201TIP3    H228163   6.368   4.744   8.530 -1.4500  1.1594  0.7873
 2202TIP3   OH228164   0.100   5.665   0.236 -0.5879 -0.4425  0.2165
 2202TIP3    H128165   0.153   5.585   0.239  1.0419  0.3006 -3.3086
 2202TIP3    H228166   0.116   5.707   0.320  1.2132 -2.2310  0.8654
 2203TIP3   OH228167   2.708   0.566   1.953 -0.1326 -0.1764  0.3295
 2203TIP3    H128168   2.680   0.517   1.875  1.8669 -0.8815 -0.0133
 2203TIP3    H228169   2.804   0.562   1.950  0.1250  3.3289  0.5992
 2204TIP3   OH228170   4.260   1.497   1.097 -0.1606  0.0832  0.1392
 2204TIP3    H128171   4.192   1.523   1.035 -0.4367 -0.6744  0.1031
 2204TIP3    H228172   4.272   1.573   1.153 -0.3931  0.5410 -0.4199
 2205TIP3   OH228173   4.500   3.828   8.950 -0.3786  0.0981  0.0842
 2205TIP3    H128174   4.417   3.861   8.917  0.9827  1.5542 -2.2039
 2205TIP3    H228175   4.497   3.845   9.044 -1.9105  1.9749 -0.2352
 2206TIP3   OH228176   6.258   5.277   8.099  0.2984 -0.5954  0.8915
 2206TIP3    H128177   6.188   5.300   8.038  1.4408  1.5134  0.2874
 2206TIP3    H228178   6.318   5.223   8.048 -0.3283 -1.5113  1.1032
 2207TIP3   OH228179   5.532   5.037   1.780  0.2692 -0.5980 -0.1555
 2207TIP3    H128180   5.560   5.121   1.744 -2.0947  0.6473  0.7132
 2207TIP3    H228181   5.494   5.058   1.865  0.8664 -2.7723  0.7214
 2208TIP3   OH228182   5.913   5.764   0.928  0.2507  0.7669 -0.5793
 2208TIP3    H128183   5.943   5.718   0.850 -1.6183  0.3430 -1.1138
 2208TIP3    H228184   5.856   5.701   0.972 -2.1546  2.3871 -1.1739
 2209TIP3   OH228185   3.805   6.109   0.750  0.0177 -0.3085  0.0580
 2209TIP3    H128186   3.773   6.031   0.795  2.1697 -0.3280  1.7486
 2209TIP3    H228187   3.771   6.101   0.661 -3.6679 -0.7697  1.3311
 2210TIP3   OH228188   0.798   3.267   1.571 -0.0677 -0.1082 -0.4238
 2210TIP3    H128189   0.829   3.349   1.532 -1.8107  0.8544  0.0752
 2210TIP3    H228190   0.835   3.199   1.516  0.3062  1.0779 -1.7188
 2211TIP3   OH228191   2.020   2.070   1.441 -0.2589 -0.2379  0.1380
 2211TIP3    H128192   2.068   2.009   1.384 -0.0487  0.4250 -0.4066
 2211TIP3    H228193   2.040   2.156   1.405 -1.7745  0.0697 -0.0315
 2212TIP3   OH228194   6.408   5.241   0.595  0.2876  0.4832  0.4769
 2212TIP3    H128195   6.403   5.279   0.683 -1.3363  1.2103  0.1039
 2212TIP3    H228196   6.318   5.240   0.564  0.8098  0.0357 -1.1164
 2213TIP3   OH228197   0.846   5.619   2.041  0.3330  0.4990 -0.4204
 2213TIP3    H128198   0.811   5.615   2.130 -0.9130 -1.4925 -0.9526
 2213TIP3    H228199   0.900   5.698   2.040  1.6448 -0.2281  2.5606
 2214TIP3   OH228200   1.023   2.117   1.968 -0.5717 -0.0586 -0.5300
 2214TIP3    H128201   0.938   2.077   1.982  0.0501 -0.8903  1.0453
 2214TIP3    H228202   1.017   2.203   2.011 -0.3841 -0.4311  0.2559
 2215TIP3   OH228203   4.673   6.367   2.047 -0.2361  0.4775 -0.1064
 2215TIP3    H128204   4.657   6.349   2.140 -0.2704  0.5436 -0.0996
 2215TIP3    H228205   4.614   6.439   2.026  2.5370  3.2090  0.8068
 2216TIP3   OH228206   6.248   6.644   8.262  0.4935 -0.0202  0.7623
 2216TIP3    H128207   6.333   6.610   8.288  0.2093 -0.6147  0.9309
 2216TIP3    H228208   6.212   6.681   8.342  1.0311  1.2007  0.4649
 2217TIP3   OH228209   1.253   3.520   0.857  0.6826  0.0576  0.6188
 2217TIP3    H128210   1.186   3.508   0.925  0.5875 -1.8356  0.2567
 2217TIP3    H228211   1.267   3.615   0.853 -3.1343  0.7309 -0.4073
 2218TIP3   OH228212   0.268   5.904   0.069 -0.2360 -0.2650 -0.2128
 2218TIP3    H128213   0.259   5.945   0.155 -0.6644 -0.0745 -0.3479
 2218TIP3    H228214   0.209   5.954   0.012  0.6038  0.1017 -0.7939
 2219TIP3   OH228215   5.163   4.035   8.403 -0.2372 -0.2421 -0.4363
 2219TIP3    H128216   5.210   4.035   8.487 -0.7301 -0.3765 -0.1580
 2219TIP3    H228217   5.072   4.052   8.426 -0.2178  0.7744 -1.0464
 2220TIP3   OH228218   0.307   6.019   0.298 -0.0631  0.4432  0.4723
 2220TIP3    H128219   0.367   5.968   0.352  0.1118 -0.4987 -0.5598
 2220TIP3    H228220   0.355   6.100   0.278  0.6617 -0.0586  0.1191
 2221TIP3   OH228221   6.421   5.287   1.279  0.5893  0.3182 -0.1755
 2221TIP3    H128222   6.512   5.307   1.300  0.8950 -0.6528 -0.5330
 2221TIP3    H228223   6.396   5.218   1.341  0.2538  0.2368 -0.3977
 2222TIP3   OH228224   1.354   1.465   2.307  0.5259  0.4968  0.2325
 2222TIP3    H128225   1.386   1.555   2.301 -0.8276  0.9068 -3.0051
 2222TIP3    H228226   1.433   1.410   2.301  1.1345  1.5081 -3.1798
 2223TIP3   OH228227   5.867   4.694   7.269  0.1703  0.0245  0.3446
 2223TIP3    H128228   5.885   4.746   7.191 -2.4470 -1.1911 -1.2314
 2223TIP3    H228229   5.910   4.610   7.252  1.5492  0.4913  1.3423
 2224TIP3   OH228230   5.310   3.327   1.559 -0.3015 -0.3123  0.1179
 2224TIP3    H128231   5.336   3.277   1.636 -1.3013 -0.9971  0.0325
 2224TIP3    H228232   5.221   3.357   1.578  0.3401  1.6771  0.2652
 2225TIP3   OH228233   0.642   2.527   7.785  0.4088  0.5433 -0.4730
 2225TIP3    H128234   0.604   2.444   7.759 -0.1833 -0.3779  2.8701
 2225TIP3    H228235   0.713   2.504   7.845 -1.7865  2.2642  3.1833
 2226TIP3   OH228236   5.734   3.727   1.956  0.2829 -0.4478  0.2973
 2226TIP3    H128237   5.797   3.659   1.930  0.2758 -1.0241  1.7191
 2226TIP3    H228238   5.708   3.703   2.045 -1.0982  0.4218  0.1544
 2227TIP3   OH228239   2.975   6.447   8.914  0.2920 -0.2120  0.2726
 2227TIP3    H128240   2.958   6.531   8.957 -1.3827 -1.2144  1.6816
 2227TIP3    H228241   2.907   6.388   8.948  2.3072 -2.5569  0.4983
 2228TIP3   OH228242   5.455   1.234   0.244  0.0278 -0.1049  0.0317
 2228TIP3    H128243   5.414   1.153   0.214  2.5869 -0.6826 -2.3432
 2228TIP3    H228244   5.387   1.301   0.232 -1.8998 -1.7040  1.3636
 2229TIP3   OH228245   0.731   6.612   2.344  0.9692 -0.0904 -0.1028
 2229TIP3    H128246   0.720   6.586   2.435 -1.3166 -2.3043 -0.8623
 2229TIP3    H228247   0.719   6.707   2.344 -3.3268 -0.4031  1.5392
 2230TIP3   OH228248   5.846   6.049   1.190 -0.5319  0.3249  0.3387
 2230TIP3    H128249   5.933   6.080   1.217 -1.2907  0.9443  2.2390
 2230TIP3    H228250   5.839   6.075   1.098  1.3067  0.2079  0.1301
 2231TIP3   OH228251   4.470   0.796   0.454 -0.5820  0.4898  0.5368
 2231TIP3    H128252   4.401   0.860   0.473  0.4297  1.2748  1.6477
 2231TIP3    H228253   4.440   0.716   0.496 -2.0480  0.0636 -1.1866
 2232TIP3   OH228254   4.555   1.359   0.627  0.4814 -0.1489  0.8037
 2232TIP3    H128255   4.636   1.352   0.578  0.1289 -1.2578  0.3362
 2232TIP3    H228256   4.519   1.445   0.604  1.8053  0.6154  1.4959
 2233TIP3   OH228257   5.733   4.791   8.564  0.1715 -0.2599 -0.3240
 2233TIP3    H128258   5.807   4.731   8.558 -1.5353 -2.5157  0.0040
 2233TIP3    H228259   5.756   4.863   8.505  1.6011 -2.0030 -2.0375
 2234TIP3   OH228260   4.669   2.979   0.888 -0.2647 -0.5639  0.3763
 2234TIP3    H128261   4.744   2.953   0.941 -0.8203  1.2929  2.2041
 2234TIP3    H228262   4.708   3.011   0.806  0.7015 -2.2866  0.1256
 2235TIP3   OH228263   4.183   4.120   7.646  0.0699  0.0969  0.3392
 2235TIP3    H128264   4.175   4.118   7.742 -1.7283  0.8543  0.2457
 2235TIP3    H228265   4.167   4.212   7.623  1.1276  0.0491 -0.6597
 2236TIP3   OH228266   1.556   1.510   2.996 -0.8053  0.1113 -0.2727
 2236TIP3    H128267   1.573   1.540   2.907  0.9978  1.7573  0.5519
 2236TIP3    H228268   1.554   1.590   3.048 -0.6935 -0.8904  1.3338
 2237TIP3   OH228269   0.963   2.259   1.433  0.2920  0.4047 -0.4636
 2237TIP3    H128270   0.958   2.271   1.528  0.2800  2.6565 -0.6801
 2237TIP3    H228271   1.009   2.176   1.422  0.8695  0.3966  1.5226
 2238TIP3   OH228272   0.773   4.928   8.506 -0.3399  0.0444  0.5749
 2238TIP3    H128273   0.678   4.914   8.498 -0.4543  0.8481  0.4302
 2238TIP3    H228274   0.792   4.905   8.597 -0.9750  1.4112  1.0870
 2239TIP3   OH228275   3.596   6.175   3.061 -0.2016  0.1984  0.1308
 2239TIP3    H128276   3.613   6.244   2.997  0.8607  1.5786  1.8171
 2239TIP3    H228277   3.502   6.178   3.076 -0.0851  1.8183  0.7075
 2240TIP3   OH228278   2.226   2.349   8.433  0.3026  0.0369  0.1313
 2240TIP3    H128279   2.217   2.428   8.381 -1.3180  0.3717  0.8547
 2240TIP3    H228280   2.310   2.358   8.478  1.0563  0.3924 -1.3108
 2241TIP3   OH228281   1.620   1.802   0.394 -0.2804  0.0805 -0.0753
 2241TIP3    H128282   1.610   1.792   0.488 -0.2863 -0.9304 -0.1751
 2241TIP3    H228283   1.534   1.831   0.363  0.0504  1.6254  0.3655
 2242TIP3   OH228284   2.414   2.502   8.059 -0.3657 -0.1853  0.2933
 2242TIP3    H128285   2.491   2.558   8.064 -0.7955  0.3756  0.9224
 2242TIP3    H228286   2.365   2.522   8.139 -1.3146 -0.2895 -0.2481
 2243TIP3   OH228287   4.851   2.955   8.874  0.0976 -0.1861 -0.1110
 2243TIP3    H128288   4.779   3.018   8.879  0.1512 -0.2101  1.4953
 2243TIP3    H228289   4.912   2.994   8.811 -0.9286  0.2299 -0.8703
 2244TIP3   OH228290   6.013   4.295   8.713  0.0630 -0.0509  0.1268
 2244TIP3    H128291   6.017   4.268   8.805 -0.5287 -0.3478  0.0742
 2244TIP3    H228292   6.072   4.235   8.668 -2.9879 -2.9843 -0.3610
 2245TIP3   OH228293   5.668   2.036   7.727  0.1157  0.0416 -0.1652
 2245TIP3    H128294   5.574   2.025   7.740  0.3817 -2.1529  0.4532
 2245TIP3    H228295   5.703   2.050   7.815  0.6712 -2.8066  0.1782
 2246TIP3   OH228296   5.518   1.371   8.305  0.8726 -0.1278 -0.1071
 2246TIP3    H128297   5.609   1.364   8.336  0.5180 -1.4998  0.7520
 2246TIP3    H228298   5.481   1.442   8.357  1.9903  1.9791 -2.0099
 2247TIP3   OH228299   3.492   4.609   0.955 -0.3221 -0.2277  0.0979
 2247TIP3    H128300   3.581   4.579   0.934 -0.6093 -1.9003  1.0202
 2247TIP3    H228301   3.505   4.674   1.024  0.2071 -0.6113  0.3786
 2248TIP3   OH228302   3.572   2.094   3.135  0.1026  0.3735 -0.6701
 2248TIP3    H128303   3.579   2.010   3.180 -1.3559 -0.4492 -1.8798
 2248TIP3    H228304   3.662   2.127   3.131  0.4480 -0.1153  1.6183
 2249TIP3   OH228305   1.428   6.646   7.045 -0.4960  0.2161 -0.8585
 2249TIP3    H128306   1.358   6.605   7.096 -0.5335  0.6868 -0.5245
 2249TIP3    H228307   1.476   6.573   7.007 -1.1552 -0.1147 -1.0706
 2250TIP3   OH228308   3.775   6.020   2.408  0.4853  0.1170  1.0505
 2250TIP3    H128309   3.791   6.004   2.501  1.9747  0.2610  0.8312
 2250TIP3    H228310   3.818   6.103   2.389  0.9381 -0.3174  0.0533
 2251TIP3   OH228311   4.631   4.991   7.706  0.2762 -0.0623  0.2488
 2251TIP3    H128312   4.579   5.044   7.767 -2.6847 -2.2814 -0.1445
 2251TIP3    H228313   4.676   4.928   7.762 -0.2412 -0.3321  0.3702
 2252TIP3   OH228314   1.967   5.536   7.312 -0.3687 -0.1183 -0.0520
 2252TIP3    H128315   1.983   5.630   7.306 -2.5289  0.2200 -1.6661
 2252TIP3    H228316   1.961   5.507   7.221 -2.5494 -1.2424  0.3786
 2253TIP3   OH228317   0.839   0.057   7.281 -0.6220  0.3214 -0.0690
 2253TIP3    H128318   0.765   0.016   7.237 -0.8861  2.1218 -1.4383
 2253TIP3    H228319   0.916   0.014   7.244 -0.9303 -0.1819 -0.1324
 2254TIP3   OH228320   4.200   6.252   8.124 -0.1071  0.1740 -0.0165
 2254TIP3    H128321   4.145   6.307   8.066 -1.7550  0.7473  1.9715
 2254TIP3    H228322   4.174   6.163   8.103 -0.5644  0.3655 -0.2899
 2255TIP3   OH228323   1.312   2.300   8.031  0.6180 -0.0368  0.6263
 2255TIP3    H128324   1.280   2.221   8.075 -0.0263 -1.2543 -1.8296
 2255TIP3    H228325   1.255   2.370   8.064  0.3338 -0.8260  1.8781
 2256TIP3   OH228326   6.134   5.597   2.659  0.0287  0.6366  0.3190
 2256TIP3    H128327   6.101   5.641   2.737 -0.5876  1.2682 -0.2852
 2256TIP3    H228328   6.177   5.666   2.608  0.6509  0.1816  0.2060
 2257TIP3   OH228329   3.699   0.010   8.046  0.7021 -0.1755  0.0173
 2257TIP3    H128330   3.715  -0.068   8.100  0.2600  0.4193  1.0389
 2257TIP3    H228331   3.764   0.004   7.976 -0.7679 -2.6484 -1.2689
 2258TIP3   OH228332   5.501   2.460   0.235  0.0941  0.3630  0.0404
 2258TIP3    H128333   5.418   2.506   0.223  0.5993  2.3487  3.1202
 2258TIP3    H228334   5.565   2.529   0.254  1.7512 -1.3069  0.9228
 2259TIP3   OH228335   5.500   6.056   1.663 -0.3346 -0.2672  0.3143
 2259TIP3    H128336   5.422   6.014   1.700 -0.2784 -0.3117  0.3808
 2259TIP3    H228337   5.466   6.110   1.592 -0.4501 -0.1197  0.4830
 2260TIP3   OH228338   3.388   0.883   1.782 -0.0797 -0.9272  0.0489
 2260TIP3    H128339   3.443   0.931   1.844  0.5247 -0.1297 -1.0562
 2260TIP3    H228340   3.417   0.792   1.789  3.0877 -0.2486 -2.0857
 2261TIP3   OH228341   0.374   1.800   1.756 -0.0385  0.8130  0.6120
 2261TIP3    H128342   0.371   1.734   1.825  1.2614  1.0490  0.9172
 2261TIP3    H228343   0.282   1.812   1.731 -0.5291  0.6360  2.2081
 2262TIP3   OH228344   4.230   1.753   7.104 -0.4555 -1.1842  0.4249
 2262TIP3    H128345   4.180   1.809   7.045  0.7883  1.1618  1.4423
 2262TIP3    H228346   4.206   1.664   7.079 -3.8930 -0.2473 -0.1414
 2263TIP3   OH228347   1.517   4.728   6.624 -0.2256 -0.2574  0.1031
 2263TIP3    H128348   1.582   4.794   6.598 -1.6028  2.0803  2.2113
 2263TIP3    H228349   1.443   4.778   6.657 -0.7088 -2.8180  3.4260
 2264TIP3   OH228350   4.076   6.296   2.364  0.1619  0.4340 -0.5086
 2264TIP3    H128351   4.072   6.244   2.283 -1.0099 -1.3640  0.6289
 2264TIP3    H228352   4.110   6.234   2.429 -1.1679  1.1250  0.8856
 2265TIP3   OH228353   1.532   0.565   1.109  0.3409 -0.1610 -0.1304
 2265TIP3    H128354   1.602   0.507   1.137 -0.8889 -0.9478  1.4712
 2265TIP3    H228355   1.558   0.594   1.021  2.0788 -1.3241 -0.0386
 2266TIP3   OH228356   6.519   6.459   7.380 -0.5351 -0.4497 -0.3664
 2266TIP3    H128357   6.438   6.509   7.392 -0.3136 -0.2344  0.3205
 2266TIP3    H228358   6.568   6.474   7.461 -0.0014 -0.9342 -0.5929
 2267TIP3   OH228359   2.693   2.987   7.856  0.4334 -0.1373  0.1623
 2267TIP3    H128360   2.769   3.045   7.847 -0.2410  0.8469  0.6899
 2267TIP3    H228361   2.687   2.944   7.771 -0.0007  1.7762 -0.8450
 2268TIP3   OH228362   4.927   4.285   0.590 -0.4311  0.6993 -0.5775
 2268TIP3    H128363   4.970   4.344   0.528 -1.2894  2.5127  0.4666
 2268TIP3    H228364   4.998   4.248   0.642  0.1032  1.0141 -1.0813
 2269TIP3   OH228365   2.264   2.897   8.520  0.0240 -0.5703 -0.0460
 2269TIP3    H128366   2.294   2.984   8.545 -2.1850 -0.5148  2.8427
 2269TIP3    H228367   2.334   2.838   8.549 -0.1680 -0.0358  1.6014
 2270TIP3   OH228368   1.780   1.791   7.324 -0.2229  0.1105 -0.2940
 2270TIP3    H128369   1.703   1.835   7.360 -1.3552 -1.0880 -1.1698
 2270TIP3    H228370   1.753   1.763   7.237  1.9993  1.7381 -1.6264
 2271TIP3   OH228371   4.070   5.235   7.088 -0.5237 -0.4361  0.9017
 2271TIP3    H128372   3.985   5.242   7.045 -0.2361 -0.6095  0.2923
 2271TIP3    H228373   4.052   5.252   7.181 -1.2434 -0.6262  0.8007
 2272TIP3   OH228374   3.011   0.838   6.387  0.5158  0.3645 -0.6911
 2272TIP3    H128375   2.938   0.883   6.345  0.8890 -0.0789 -1.8636
 2272TIP3    H228376   3.061   0.907   6.429  0.2627  0.8638 -1.1922
 2273TIP3   OH228377   2.391   5.672   8.051  0.0996 -0.2376 -0.5579
 2273TIP3    H128378   2.407   5.721   7.970 -2.3074 -1.1869 -1.7193
 2273TIP3    H228379   2.460   5.606   8.053  0.3153 -0.0711 -1.7495
 2274TIP3   OH228380   3.549   6.281   8.180 -0.0471 -0.0878  0.8419
 2274TIP3    H128381   3.460   6.275   8.145  0.2853  2.0078 -0.5444
 2274TIP3    H228382   3.596   6.209   8.138 -0.2876  0.8827 -1.1944
 2275TIP3   OH228383   3.064   2.897   1.807 -0.0839 -0.4498  0.1510
 2275TIP3    H128384   2.993   2.921   1.748  0.1973  0.3262  0.1126
 2275TIP3    H228385   3.034   2.925   1.893  0.4980  0.6524  0.0215
 2276TIP3   OH228386   4.962   3.089   2.122 -0.5693 -0.3358 -0.3006
 2276TIP3    H128387   5.038   3.114   2.070 -0.3307 -1.9631 -0.7972
 2276TIP3    H228388   4.984   3.001   2.155 -0.9290  0.4032  2.1289
 2277TIP3   OH228389   3.431   1.882   8.730  0.2751 -0.5171  0.2732
 2277TIP3    H128390   3.452   1.841   8.814  0.9052 -0.7699  0.0020
 2277TIP3    H228391   3.516   1.893   8.687  0.0341  0.2962 -0.0182
 2278TIP3   OH228392   1.287   0.705   7.821  0.4304  0.1069 -0.2370
 2278TIP3    H128393   1.372   0.668   7.799  0.5793  0.8612 -1.0007
 2278TIP3    H228394   1.297   0.799   7.804 -0.6973  0.1410 -0.8164
 2279TIP3   OH228395   0.081   0.920   8.300 -0.6715  0.4262 -0.3097
 2279TIP3    H128396   0.135   0.864   8.245  0.0376  0.7338  0.0553
 2279TIP3    H228397   0.005   0.867   8.321 -0.0450 -0.3817 -0.0234
 2280TIP3   OH228398   2.184   4.931   7.512 -0.0983 -0.3369  0.1214
 2280TIP3    H128399   2.261   4.875   7.498 -0.3556 -0.6446 -0.0737
 2280TIP3    H228400   2.179   4.985   7.434  1.2322  1.2827  1.0818
 2281TIP3   OH228401   3.881   3.857   1.390 -0.0708 -0.1132  0.0678
 2281TIP3    H128402   3.924   3.772   1.398  1.9525  0.7435 -1.0220
 2281TIP3    H228403   3.948   3.915   1.355 -1.4972  1.8722  0.4259
 2282TIP3   OH228404   1.543   1.682   2.376 -0.3886  0.2584  0.1210
 2282TIP3    H128405   1.557   1.706   2.467  0.1535  0.8857 -0.1207
 2282TIP3    H228406   1.613   1.620   2.357 -2.1769 -2.1454  0.9399
 2283TIP3   OH228407   1.023   4.498   7.550 -0.5506  0.1077 -0.5272
 2283TIP3    H128408   1.041   4.591   7.561 -0.3599 -0.2265  3.4008
 2283TIP3    H228409   0.934   4.494   7.516 -1.3868  1.7909  1.3102
 2284TIP3   OH228410   1.127   1.757   8.065  0.0363  0.8982  0.1701
 2284TIP3    H128411   1.212   1.801   8.057  0.4636  0.1615  0.6370
 2284TIP3    H228412   1.063   1.829   8.060  0.6921  1.4996  0.2143
 2285TIP3   OH228413   5.456   2.368   1.706  0.0008 -0.1568 -0.7139
 2285TIP3    H128414   5.422   2.391   1.619  2.3012 -0.1599 -1.6801
 2285TIP3    H228415   5.485   2.278   1.697  1.4771  0.2601 -0.3858
 2286TIP3   OH228416   2.487   1.173   7.371 -0.4598 -0.0045 -0.4711
 2286TIP3    H128417   2.535   1.103   7.328 -1.2062 -2.5273  2.4838
 2286TIP3    H228418   2.400   1.171   7.331 -0.5292 -0.9056 -0.2862
 2287TIP3   OH228419   5.791   2.435   8.156  0.1775  0.0238  0.3113
 2287TIP3    H128420   5.698   2.430   8.181  0.0164  0.6517 -0.1435
 2287TIP3    H228421   5.799   2.377   8.081  0.0672  0.2808  0.1018
 2288TIP3   OH228422   5.997   4.882   7.871 -0.7454  0.1177  0.5415
 2288TIP3    H128423   5.976   4.900   7.963 -0.5368  2.3258  0.2154
 2288TIP3    H228424   5.912   4.879   7.827 -0.8588 -1.1754  0.8187
 2289TIP3   OH228425   5.046   4.773   7.371 -0.3067 -0.1014  0.7020
 2289TIP3    H128426   5.037   4.681   7.346  2.3995 -0.4688  0.8176
 2289TIP3    H228427   5.047   4.820   7.287  1.6991 -0.6000  0.3816
 2290TIP3   OH228428   1.709   0.715   2.070  0.2025 -0.3237 -0.2088
 2290TIP3    H128429   1.630   0.677   2.032 -0.8441  0.4079  1.1306
 2290TIP3    H228430   1.702   0.809   2.051  0.9364 -0.3094 -0.4074
 2291TIP3   OH228431   0.387   3.977   8.407 -0.0935 -0.1771  0.4538
 2291TIP3    H128432   0.455   4.019   8.355 -0.5504 -0.5295 -0.4457
 2291TIP3    H228433   0.353   3.907   8.351 -0.7524 -0.4265  1.1394
 2292TIP3   OH228434   6.658   5.547   2.094  0.3482 -0.3203  0.5829
 2292TIP3    H128435   6.623   5.467   2.132 -0.5639  0.7314  2.0540
 2292TIP3    H228436   6.723   5.577   2.158  2.5199 -1.1325 -1.1150
 2293TIP3   OH228437   5.353   0.759   7.770  0.0078  0.3728  0.5773
 2293TIP3    H128438   5.344   0.763   7.674  0.3942 -0.5942  0.4870
 2293TIP3    H228439   5.264   0.742   7.801 -0.0067 -0.0287  0.3325
 2294TIP3   OH228440   0.847   0.517   7.553 -0.1304  0.7953 -0.2498
 2294TIP3    H128441   0.919   0.479   7.604 -1.2297 -3.2408 -1.3168
 2294TIP3    H228442   0.780   0.536   7.618  0.3459  0.5323  0.3305
 2295TIP3   OH228443   5.524   0.896   2.294  0.3574 -0.9106 -0.5176
 2295TIP3    H128444   5.429   0.896   2.296  0.2440 -2.9021 -2.3484
 2295TIP3    H228445   5.547   0.881   2.203  2.4532 -0.1554 -0.1864
 2296TIP3   OH228446   6.456   4.597   1.245  0.7930  0.2761  0.0962
 2296TIP3    H128447   6.375   4.578   1.292 -0.0006  0.9608 -0.9809
 2296TIP3    H228448   6.444   4.558   1.158  1.6117  0.3926 -0.0820
 2297TIP3   OH228449   0.979   2.957   2.034 -0.0445 -1.0731  0.6053
 2297TIP3    H128450   1.038   2.883   2.048  1.8189  0.4741  1.2531
 2297TIP3    H228451   1.036   3.034   2.033 -2.2475  0.8537  4.0630
 2298TIP3   OH228452   4.387   6.403   2.572 -0.2334 -0.6925 -0.3619
 2298TIP3    H128453   4.441   6.325   2.586  2.5877  1.3616  1.1427
 2298TIP3    H228454   4.342   6.416   2.654 -1.7647 -1.4169 -1.0529
 2299TIP3   OH228455   2.786   6.354   7.431 -0.7176  0.0709 -0.0234
 2299TIP3    H128456   2.853   6.298   7.392  0.2126  2.3553 -2.0104
 2299TIP3    H228457   2.721   6.366   7.361 -2.6419 -1.1177  1.4662
 2300TIP3   OH228458   6.653   4.673   8.058 -0.2986  0.1228 -0.2216
 2300TIP3    H128459   6.564   4.637   8.053 -0.0551 -0.7413  1.1788
 2300TIP3    H228460   6.664   4.721   7.976 -1.7770 -0.4010 -0.7580
 2301TIP3   OH228461   5.048   6.269   8.232 -0.8614  0.3690  0.1254
 2301TIP3    H128462   5.067   6.340   8.294 -1.3811  0.6671 -0.0534
 2301TIP3    H228463   4.954   6.253   8.242 -1.4544  1.9650 -2.1646
 2302TIP3   OH228464   2.059   0.108   7.464 -0.2472  0.0491 -0.0334
 2302TIP3    H128465   2.004   0.162   7.408 -1.7799 -1.0145  0.3880
 2302TIP3    H228466   2.136   0.087   7.411 -0.2275  1.5762 -0.6248
 2303TIP3   OH228467   2.676   3.364   7.849 -0.1214 -0.2692 -0.3361
 2303TIP3    H128468   2.719   3.281   7.827 -1.4951 -1.0775 -0.0798
 2303TIP3    H228469   2.619   3.343   7.923 -1.6731  0.5074 -1.2545
 2304TIP3   OH228470   1.577   1.110   1.244  0.5234  0.3443 -0.2132
 2304TIP3    H128471   1.591   1.031   1.192  1.3237  1.3435 -1.6082
 2304TIP3    H228472   1.655   1.117   1.299  0.3340  0.0360  0.0975
 2305TIP3   OH228473   5.976   1.456   2.709  0.2442 -0.1098  0.4701
 2305TIP3    H128474   5.981   1.471   2.804 -1.1367  1.2702  0.3504
 2305TIP3    H228475   6.067   1.459   2.680  0.6592 -0.1684  1.6939
 2306TIP3   OH228476   0.356   3.804   1.137  0.0923 -0.0164 -0.6007
 2306TIP3    H128477   0.410   3.725   1.136 -0.2140 -0.2328 -1.4530
 2306TIP3    H228478   0.340   3.823   1.044 -2.7065 -0.9491 -0.4279
 2307TIP3   OH228479   3.058   1.715   0.977 -0.1334 -0.1984  0.2228
 2307TIP3    H128480   3.144   1.740   1.009 -1.1152  2.0871  1.2617
 2307TIP3    H228481   3.050   1.622   1.000  1.1819  0.0982  2.1073
 2308TIP3   OH228482   5.787   6.006   1.645 -0.8051 -0.5027 -0.3728
 2308TIP3    H128483   5.834   5.971   1.720  0.5632  0.3597 -0.7790
 2308TIP3    H228484   5.695   5.998   1.668 -0.4640  2.3606  2.6953
 2309TIP3   OH228485   2.057   6.417   8.480 -0.5058 -0.3123  0.0468
 2309TIP3    H128486   2.028   6.452   8.395 -0.3733  1.6380  0.7527
 2309TIP3    H228487   1.976   6.407   8.530 -0.3803  1.3577  0.6566
 2310TIP3   OH228488   5.595   2.579   0.573  0.0190  0.2200  0.0012
 2310TIP3    H128489   5.505   2.584   0.604 -0.3999  2.1337 -1.3208
 2310TIP3    H228490   5.587   2.547   0.483  0.7756 -0.6635  0.2336
 2311TIP3   OH228491   4.282   0.758   8.749  0.4316  0.1826  0.1154
 2311TIP3    H128492   4.336   0.836   8.763 -0.7967  0.6686  2.5841
 2311TIP3    H228493   4.261   0.761   8.655  0.8953  2.5091  0.0198
 2312TIP3   OH228494   3.251   4.900   0.378  0.3820  0.2857 -0.0029
 2312TIP3    H128495   3.243   4.828   0.316 -0.2810  0.4100 -0.0690
 2312TIP3    H228496   3.232   4.978   0.327  0.1565  0.4184  0.2790
 2313TIP3   OH228497   2.521   2.046   7.773 -0.1960 -0.1935  0.2995
 2313TIP3    H128498   2.450   1.984   7.794 -0.9456  0.1693 -1.0241
 2313TIP3    H228499   2.490   2.130   7.806  0.2044 -0.2650  0.8660
 2314TIP3   OH228500   4.096   0.475   0.555  0.5128  0.5265 -0.5021
 2314TIP3    H128501   4.054   0.419   0.489  0.5180 -0.4513  0.2966
 2314TIP3    H228502   4.037   0.471   0.630  1.0722  0.7157 -0.0533
 2315TIP3   OH228503   3.562   6.629   1.260 -0.4970 -0.1250  0.0055
 2315TIP3    H128504   3.522   6.666   1.180  2.1410  0.5529 -1.0902
 2315TIP3    H228505   3.618   6.559   1.229 -0.4215 -0.7331  1.4497
 2316TIP3   OH228506   0.151   5.012   0.084 -0.6003  0.0231  0.5791
 2316TIP3    H128507   0.094   4.946   0.123 -1.7045  0.1508 -0.7005
 2316TIP3    H228508   0.196   4.966   0.013  1.0520 -0.1128  1.6716
 2317TIP3   OH228509   0.311   1.311   0.803  0.4236 -0.3651  0.0412
 2317TIP3    H128510   0.388   1.286   0.854 -0.2167  0.8645  1.7480
 2317TIP3    H228511   0.346   1.358   0.728  1.4008 -2.0006 -0.5617
 2318TIP3   OH228512   6.577   6.165   8.636  0.1201  0.5284 -0.0786
 2318TIP3    H128513   6.649   6.134   8.581 -0.6379 -0.5612 -0.5018
 2318TIP3    H228514   6.507   6.102   8.620 -0.2344  0.3664  1.9094
 2319TIP3   OH228515   4.411   0.069   7.429  0.0678 -0.0956  0.0988
 2319TIP3    H128516   4.488   0.034   7.385  1.1790  2.0316  0.2139
 2319TIP3    H228517   4.352   0.093   7.357  0.0270 -0.6048 -0.0409
 2320TIP3   OH228518   1.429   2.753   2.232 -0.1852 -0.1180  0.1132
 2320TIP3    H128519   1.410   2.666   2.267 -1.3016 -0.5833 -1.5242
 2320TIP3    H228520   1.466   2.801   2.306 -1.1154 -1.4567  1.5217
 2321TIP3   OH228521   4.445   2.386   0.909  0.9316  0.2514 -0.8005
 2321TIP3    H128522   4.456   2.383   0.814 -1.0234  1.3337 -1.1048
 2321TIP3    H228523   4.520   2.437   0.940 -0.0840  2.7599 -2.1691
 2322TIP3   OH228524   3.212   2.102   7.657  0.7186  0.2629  0.0217
 2322TIP3    H128525   3.210   2.198   7.654  1.5410  0.3269  1.0239
 2322TIP3    H228526   3.297   2.078   7.621  0.7673 -0.0507  0.3372
 2323TIP3   OH228527   6.271   5.811   1.840  0.2042  0.1623 -0.5103
 2323TIP3    H128528   6.242   5.845   1.755  0.1184 -1.6578 -1.2652
 2323TIP3    H228529   6.250   5.718   1.837  0.3828  0.0138  1.4536
 2324TIP3   OH228530   2.632   5.735   8.911 -0.0606 -0.1565  0.1651
 2324TIP3    H128531   2.665   5.770   8.829  0.8560  0.6602  0.8526
 2324TIP3    H228532   2.541   5.711   8.893 -0.4618  1.7651 -0.5823
 2325TIP3   OH228533   1.070   4.543   8.450  0.2110  0.0370 -0.0678
 2325TIP3    H128534   1.009   4.616   8.457 -1.1547 -1.1892  1.5147
 2325TIP3    H228535   1.059   4.510   8.361 -0.9896  0.2215  0.0020
 2326TIP3   OH228536   4.243   5.714   8.731  0.4740 -0.0189 -0.3690
 2326TIP3    H128537   4.212   5.764   8.807  0.1367  0.1070 -0.5862
 2326TIP3    H228538   4.164   5.694   8.681  0.6544 -0.4221 -0.4957
 2327TIP3   OH228539   4.902   0.592   0.002 -0.3877 -0.0302  0.0533
 2327TIP3    H128540   4.927   0.645   0.077 -1.4707  1.8703 -0.8712
 2327TIP3    H228541   4.806   0.589   0.004 -0.3991 -0.8363 -0.6638
 2328TIP3   OH228542   0.332   2.091   8.785  0.2123  0.6580  0.4199
 2328TIP3    H128543   0.413   2.039   8.785 -0.0409  0.2558  0.5839
 2328TIP3    H228544   0.289   2.067   8.867 -1.0540 -0.6902 -0.5873
 2329TIP3   OH228545   5.560   0.694   2.085 -0.3595 -0.0708  0.4026
 2329TIP3    H128546   5.615   0.680   2.162 -0.0012  1.1370  0.3882
 2329TIP3    H228547   5.484   0.638   2.099  0.3820 -0.9939  0.9169
 2330TIP3   OH228548   0.459   4.900   1.433 -0.0244  0.0764  0.3094
 2330TIP3    H128549   0.382   4.850   1.407 -0.9803  1.2292  0.8286
 2330TIP3    H228550   0.467   4.884   1.527  2.2053 -2.4326 -0.1830
 2331TIP3   OH228551   0.411   4.813   1.043  0.1247  0.1592  0.4690
 2331TIP3    H128552   0.338   4.802   1.105  1.7399 -1.3202  2.2226
 2331TIP3    H228553   0.449   4.897   1.066 -2.5867  2.3626 -2.3267
 2332TIP3   OH228554   1.533   5.518   8.403  0.0006 -0.0675  0.4202
 2332TIP3    H128555   1.527   5.423   8.417  0.3139 -0.4092 -1.5005
 2332TIP3    H228556   1.619   5.542   8.436  0.5608 -0.7416 -0.5383
 2333TIP3   OH228557   5.980   0.442   7.543  0.0425 -0.2233 -0.1779
 2333TIP3    H128558   6.070   0.415   7.560 -0.1457 -2.1450 -1.8390
 2333TIP3    H228559   5.935   0.430   7.626  1.2976  0.8271  0.6939
 2334TIP3   OH228560   1.480   1.385   2.028  0.5363 -0.0636  0.6153
 2334TIP3    H128561   1.565   1.414   2.061  0.6481 -0.0702  0.3359
 2334TIP3    H228562   1.489   1.290   2.020  0.4232 -0.0904  0.8113
 2335TIP3   OH228563   6.518   1.266   1.832  0.1713 -0.8433 -0.9696
 2335TIP3    H128564   6.570   1.186   1.826  1.6658 -0.0393  0.3289
 2335TIP3    H228565   6.583   1.335   1.848 -1.1205  0.5528 -1.5429
 2336TIP3   OH228566   3.763   5.211   2.339 -0.3939 -0.5767 -0.0632
 2336TIP3    H128567   3.781   5.296   2.379 -1.1423 -0.7730  0.7099
 2336TIP3    H228568   3.721   5.161   2.408 -0.1495 -1.5122 -0.5800
 2337TIP3   OH228569   4.446   1.257   0.113  0.3428 -0.4270 -0.2412
 2337TIP3    H128570   4.469   1.249   0.206 -1.2732 -0.2205  0.2036
 2337TIP3    H228571   4.351   1.269   0.113  0.4632  0.7948 -1.8677
 2338TIP3   OH228572   4.176   5.576   7.740 -0.8756 -0.8005 -0.5694
 2338TIP3    H128573   4.143   5.592   7.828  1.4483 -0.8441  0.3799
 2338TIP3    H228574   4.148   5.653   7.689  1.4099  1.4359  1.3310
 2339TIP3   OH228575   1.514   2.906   0.396 -0.3054  0.0943  0.2706
 2339TIP3    H128576   1.534   2.998   0.384  1.1450 -0.1388  0.6939
 2339TIP3    H228577   1.499   2.872   0.307  1.4360  0.2674 -0.1179
 2340TIP3   OH228578   6.247   1.457   2.264 -0.5129 -0.2207  0.1537
 2340TIP3    H128579   6.276   1.372   2.229 -0.3844  0.3014 -1.0544
 2340TIP3    H228580   6.301   1.470   2.342 -0.2250 -1.0432  0.1087
 2341TIP3   OH228581   2.571   3.718   0.937  0.4737 -0.0563  0.1422
 2341TIP3    H128582   2.637   3.737   1.004 -1.4928 -0.8414  2.4199
 2341TIP3    H228583   2.512   3.793   0.940 -0.8062 -1.0540  0.8682
 2342TIP3   OH228584   5.535   1.610   8.948 -0.2347 -0.0099 -0.3636
 2342TIP3    H128585   5.508   1.549   8.879 -1.0114  0.4772 -0.5036
 2342TIP3    H228586   5.524   1.697   8.909 -2.8470  0.4031  1.0506
 2343TIP3   OH228587   3.343   6.208   1.828  0.0979 -0.1409 -0.2219
 2343TIP3    H128588   3.290   6.143   1.781 -0.7749 -0.4598  1.1598
 2343TIP3    H228589   3.348   6.282   1.768 -1.8462 -0.1360 -0.4280
 2344TIP3   OH228590   3.569   4.882   7.763  0.2925 -0.3635 -0.0783
 2344TIP3    H128591   3.639   4.856   7.704  1.1960 -0.3537  0.9520
 2344TIP3    H228592   3.510   4.808   7.765  1.8311 -1.6468  1.3203
 2345TIP3   OH228593   5.205   1.877   8.794  0.3881 -0.7410  0.7024
 2345TIP3    H128594   5.203   1.950   8.856  1.1194 -0.2588  0.1738
 2345TIP3    H228595   5.298   1.865   8.774  0.1260 -0.3009 -0.9603
 2346TIP3   OH228596   2.433   5.524   0.428  0.1016 -0.0558  0.2890
 2346TIP3    H128597   2.454   5.451   0.370 -1.1811  0.5179 -0.9644
 2346TIP3    H228598   2.352   5.561   0.392 -0.1939  0.9543  1.8749
 2347TIP3   OH228599   1.692   3.033   7.111  0.3705 -0.1418  0.0113
 2347TIP3    H128600   1.731   2.985   7.184  0.6500  0.9844  0.6112
 2347TIP3    H228601   1.606   3.059   7.143  0.4798  0.3228 -0.0773
 2348TIP3   OH228602   2.964   0.805   8.428 -0.8543  0.4324  0.5140
 2348TIP3    H128603   3.050   0.829   8.464 -0.6312  0.9473 -0.3317
 2348TIP3    H228604   2.915   0.773   8.504  0.4458 -0.9309  0.8349
 2349TIP3   OH228605   3.233   5.161   1.628  0.4361 -0.0661 -0.0527
 2349TIP3    H128606   3.229   5.206   1.712 -1.3020 -0.2173 -0.0296
 2349TIP3    H228607   3.293   5.088   1.643 -0.3243 -0.4428  1.2267
 2350TIP3   OH228608   6.213   0.694   7.574  0.8495  0.4671 -0.6479
 2350TIP3    H128609   6.165   0.742   7.641 -0.6013  0.8331 -1.8941
 2350TIP3    H228610   6.193   0.602   7.590 -0.8473  0.6440 -1.5146
 2351TIP3   OH228611   4.029   2.514   7.688  0.1263 -1.0382 -0.2801
 2351TIP3    H128612   4.034   2.582   7.621  3.0266 -1.0021 -0.1488
 2351TIP3    H228613   4.028   2.432   7.638  2.4773 -1.0184 -0.4686
 2352TIP3   OH228614   1.382   4.581   2.046  0.4249 -0.4503  0.3800
 2352TIP3    H128615   1.369   4.672   2.018 -0.2245 -0.3402  0.9991
 2352TIP3    H228616   1.475   4.575   2.069  0.8586 -0.4051 -1.2578
 2353TIP3   OH228617   5.896   6.161   0.594  0.8274  0.2436  0.3432
 2353TIP3    H128618   5.974   6.217   0.586  0.7727  0.5689  1.8693
 2353TIP3    H228619   5.822   6.222   0.582  0.7580 -0.1382 -1.5668
 2354TIP3   OH228620   5.076   3.506   8.006  0.3114  0.1355 -0.5463
 2354TIP3    H128621   5.104   3.443   7.940 -0.6962 -0.2884 -0.5884
 2354TIP3    H228622   5.152   3.563   8.019  0.5848  0.1255 -1.9502
 2355TIP3   OH228623   3.975   5.626   2.253  0.8041 -0.4632  0.4275
 2355TIP3    H128624   3.993   5.649   2.344  1.6103 -0.2731  0.2287
 2355TIP3    H228625   4.055   5.649   2.206 -0.0195  0.6139 -0.5380
 2356TIP3   OH228626   0.245   1.190   1.687 -0.2959  0.9234  0.2798
 2356TIP3    H128627   0.218   1.180   1.778 -2.4921 -0.7910 -0.4578
 2356TIP3    H228628   0.298   1.112   1.669 -2.2863 -0.3158 -0.6068
 2357TIP3   OH228629   0.795   5.737   0.428  0.0261  0.2421 -0.7900
 2357TIP3    H128630   0.772   5.645   0.439  2.5935 -0.4836 -0.8751
 2357TIP3    H228631   0.811   5.769   0.517  0.9335  0.0770 -0.8888
 2358TIP3   OH228632   1.565   1.317   8.619 -0.1346  0.2238 -0.0248
 2358TIP3    H128633   1.607   1.326   8.705 -2.1348  1.2768  0.9204
 2358TIP3    H228634   1.623   1.362   8.559  0.4501  1.0225  1.1004
 2359TIP3   OH228635   6.180   4.196   7.541 -0.3082 -0.4009  0.2253
 2359TIP3    H128636   6.097   4.243   7.533  0.5197  1.0390 -0.5148
 2359TIP3    H228637   6.161   4.121   7.597 -2.1180 -0.1586 -0.0234
 2360TIP3   OH228638   3.835   0.156   7.728  0.5247 -0.7249 -0.4239
 2360TIP3    H128639   3.912   0.212   7.739  0.3801 -0.4370 -0.8492
 2360TIP3    H228640   3.870   0.073   7.695  0.4620  0.2535 -3.2584
 2361TIP3   OH228641   0.658   2.823   0.777  0.1117 -0.9828 -0.2105
 2361TIP3    H128642   0.650   2.901   0.832  1.7949 -1.9412  1.4920
 2361TIP3    H228643   0.596   2.838   0.706  0.4075  1.9404  0.0125
 2362TIP3   OH228644   5.459   3.844   1.269 -0.3480  0.4725 -0.3138
 2362TIP3    H128645   5.367   3.854   1.291 -0.1069  1.4870  0.3206
 2362TIP3    H228646   5.503   3.834   1.354  0.3510  2.1878 -0.4202
 2363TIP3   OH228647   1.453   4.620   8.758 -0.0063  0.0463 -0.3656
 2363TIP3    H128648   1.542   4.614   8.794  1.2093 -0.9474 -3.2153
 2363TIP3    H228649   1.406   4.547   8.799  0.0598  1.2256  2.0054
 2364TIP3   OH228650   1.610   2.008   2.607  0.4436 -0.7257  0.3418
 2364TIP3    H128651   1.599   1.913   2.616 -0.2596 -0.5923  1.0051
 2364TIP3    H228652   1.528   2.044   2.641  0.4143  0.0945 -0.5629
 2365TIP3   OH228653   1.445   0.755   8.675  0.2218 -0.2873 -0.0336
 2365TIP3    H128654   1.493   0.837   8.664  1.0164 -0.6590  0.5660
 2365TIP3    H228655   1.443   0.740   8.769  1.3653 -1.6757 -0.1916
 2366TIP3   OH228656   5.295   0.400   0.959 -0.3047  0.0573  0.1650
 2366TIP3    H128657   5.306   0.436   1.047 -0.1964 -0.8791  0.5508
 2366TIP3    H228658   5.316   0.307   0.969  0.9801  0.1841 -1.1184
 2367TIP3   OH228659   6.219   4.197   7.991  0.3542  0.1439  0.2075
 2367TIP3    H128660   6.207   4.258   8.064 -0.3759  1.0766 -0.6574
 2367TIP3    H228661   6.245   4.253   7.918 -1.3021 -0.4266 -0.8697
 2368TIP3   OH228662   4.648   4.075   0.148 -0.4101  0.2894  0.4113
 2368TIP3    H128663   4.598   4.136   0.093 -0.4840 -0.7609 -0.7316
 2368TIP3    H228664   4.736   4.077   0.112 -0.4175 -0.2920  0.3547
 2369TIP3   OH228665   2.690   6.502   1.868  0.1126 -0.0965 -0.1406
 2369TIP3    H128666   2.709   6.578   1.922  0.8573  0.1022 -0.6657
 2369TIP3    H228667   2.627   6.451   1.919  0.8224  0.0648  0.9251
 2370TIP3   OH228668   6.008   1.528   7.940  0.4387  0.2187  0.2259
 2370TIP3    H128669   6.000   1.433   7.951  0.9379  0.0401 -0.8378
 2370TIP3    H228670   5.990   1.564   8.027 -1.1217 -0.7574  0.3391
 2371TIP3   OH228671   5.311   4.496   0.440  0.4187  0.0874 -0.5090
 2371TIP3    H128672   5.343   4.493   0.529  0.4543 -0.2200 -0.5326
 2371TIP3    H228673   5.245   4.427   0.435  1.3629 -0.8084 -1.0920
 2372TIP3   OH228674   2.664   6.148   1.416 -0.0753 -0.3182  0.5961
 2372TIP3    H128675   2.739   6.158   1.475  0.1957  0.5274  0.1326
 2372TIP3    H228676   2.692   6.190   1.335 -0.3487 -1.6870 -0.2271
 2373TIP3   OH228677   5.287   4.774   7.967 -0.2068 -0.5088 -0.3874
 2373TIP3    H128678   5.192   4.784   7.958 -0.4372  1.9657  2.8930
 2373TIP3    H228679   5.324   4.856   7.934  0.9219 -1.6143 -2.0456
 2374TIP3   OH228680   3.819   1.398   8.757 -0.6471  0.0892  0.3367
 2374TIP3    H128681   3.796   1.487   8.732  1.0088  0.8635  1.4111
 2374TIP3    H228682   3.871   1.407   8.836  0.1667 -1.7898  0.0893
 2375TIP3   OH228683   0.537   3.125   8.696  0.2469  0.3748  0.2219
 2375TIP3    H128684   0.446   3.151   8.681  1.0681  2.0390 -2.7352
 2375TIP3    H228685   0.582   3.206   8.718  1.1523 -0.3055  0.9333
 2376TIP3   OH228686   5.722   0.566   0.589  0.2918 -0.4123  0.5354
 2376TIP3    H128687   5.659   0.610   0.646 -0.9622  1.3063 -2.0067
 2376TIP3    H228688   5.808   0.589   0.624 -0.4265  1.0424  1.3933
 2377TIP3   OH228689   4.815   5.536   0.469 -0.0068  0.4172 -0.3668
 2377TIP3    H128690   4.825   5.580   0.384 -2.1437 -1.4563 -1.7154
 2377TIP3    H228691   4.859   5.452   0.457  0.7869  0.6454  0.8530
 2378TIP3   OH228692   6.171   2.543   7.967  0.2932 -0.0173  0.2397
 2378TIP3    H128693   6.260   2.511   7.954  0.2868  0.3519 -0.7938
 2378TIP3    H228694   6.146   2.582   7.883 -1.0217 -0.5412  0.3482
 2379TIP3   OH228695   0.010   3.429   2.199  0.6029  0.3695  0.6161
 2379TIP3    H128696  -0.076   3.389   2.213 -0.0193  2.1806  2.5103
 2379TIP3    H228697  -0.010   3.515   2.160  1.6260  0.4492  0.2398
 2380TIP3   OH228698   2.069   1.113   2.226  0.3838  0.2684 -0.1460
 2380TIP3    H128699   2.157   1.152   2.222  0.3370  0.2564 -1.4229
 2380TIP3    H228700   2.012   1.186   2.249  0.1992  1.1837 -3.1783
 2381TIP3   OH228701   0.307   3.209   6.769 -0.1195  0.2652  0.9717
 2381TIP3    H128702   0.377   3.150   6.797  0.9396  0.0928 -1.7889
 2381TIP3    H228703   0.349   3.295   6.761 -0.5576  0.4518  0.6368
 2382TIP3   OH228704   1.175   2.940   7.295  0.3469 -1.2004 -0.5489
 2382TIP3    H128705   1.192   2.906   7.207  0.6442 -1.6624 -0.3152
 2382TIP3    H228706   1.260   2.937   7.339  0.5136  0.3832 -0.6971
 2383TIP3   OH228707   1.460   1.526   0.158 -0.3549 -0.1010 -0.0064
 2383TIP3    H128708   1.384   1.469   0.149 -0.6352 -0.1384  1.9659
 2383TIP3    H228709   1.528   1.470   0.194  0.0015  0.3493  0.0342
 2384TIP3   OH228710   6.686   2.526   7.817  0.3086 -0.0412 -0.3156
 2384TIP3    H128711   6.659   2.555   7.904 -0.1312  0.8995 -0.7601
 2384TIP3    H228712   6.613   2.474   7.785 -0.6213  1.6713 -1.1085
 2385TIP3   OH228713   2.630   1.373   7.480 -0.6313 -1.0020  0.3126
 2385TIP3    H128714   2.713   1.333   7.453 -0.4861 -2.7524  2.9492
 2385TIP3    H228715   2.563   1.325   7.431 -0.1802 -0.3920 -0.9342
 2386TIP3   OH228716   5.991   0.697   7.039  0.5712  0.2975 -0.3541
 2386TIP3    H128717   5.905   0.662   7.014  0.4610  0.2325  0.0974
 2386TIP3    H228718   6.044   0.690   6.960  0.8485 -1.7786 -0.0354
 2387TIP3   OH228719   1.319   5.448   7.750 -0.9534 -0.3504  0.5860
 2387TIP3    H128720   1.345   5.489   7.833 -1.2181 -0.7345  0.8660
 2387TIP3    H228721   1.375   5.488   7.684 -0.0634 -0.7359  1.0936
 2388TIP3   OH228722   3.594   5.450   7.502 -0.5476  0.1619  0.3297
 2388TIP3    H128723   3.622   5.427   7.414 -1.6378  1.9459 -0.5558
 2388TIP3    H228724   3.629   5.381   7.558 -1.5062 -2.1605 -1.7369
 2389TIP3   OH228725   2.334   5.498   8.276  0.7219 -0.1415 -0.4255
 2389TIP3    H128726   2.410   5.538   8.319 -0.4836  1.1217  0.6095
 2389TIP3    H228727   2.370   5.460   8.196  2.5228  0.0085  0.2677
 2390TIP3   OH228728   6.380   0.654   7.839 -0.3127  0.2286  0.4100
 2390TIP3    H128729   6.396   0.612   7.923 -0.7578  0.1145  0.4430
 2390TIP3    H228730   6.329   0.590   7.789  0.0401  0.2531  0.0149
 2391TIP3   OH228731   1.925   5.460   7.052 -0.1486 -0.2870  0.3138
 2391TIP3    H128732   1.970   5.537   7.018 -0.5697  0.4965  1.4638
 2391TIP3    H228733   1.844   5.455   7.000  0.2470 -0.4311 -0.2957
 2392TIP3   OH228734   3.888   5.900   1.586 -0.0663 -0.4005 -0.5356
 2392TIP3    H128735   3.861   5.886   1.676 -1.4115  1.2710 -0.6351
 2392TIP3    H228736   3.962   5.961   1.591  0.0616 -0.5509 -0.5623
 2393TIP3   OH228737   0.799   5.114   8.112  0.4198  0.0091 -0.2114
 2393TIP3    H128738   0.892   5.098   8.092  0.3003  0.7211 -1.4145
 2393TIP3    H228739   0.787   5.208   8.099 -0.1158  0.2190  1.5450
 2394TIP3   OH228740   5.774   3.098   0.601  0.6262  0.1222  0.6423
 2394TIP3    H128741   5.710   3.053   0.657 -0.8042 -2.1778 -2.5435
 2394TIP3    H228742   5.745   3.190   0.600 -2.4734 -0.7462 -0.2968
 2395TIP3   OH228743   4.958   3.633   1.431 -0.2798  0.0881 -0.3389
 2395TIP3    H128744   4.941   3.601   1.343  0.0053  0.0710 -0.3888
 2395TIP3    H228745   5.014   3.709   1.419  0.4942 -0.4354 -0.1293
 2396TIP3   OH228746   6.144   2.168   7.978  0.3606  0.2292 -0.0461
 2396TIP3    H128747   6.064   2.172   7.926  0.4451  1.0437 -0.1255
 2396TIP3    H228748   6.138   2.245   8.036  1.8837  1.3009 -1.2370
 2397TIP3   OH228749   5.642   4.593   8.749  0.0092 -0.4053 -0.5669
 2397TIP3    H128750   5.685   4.515   8.713 -0.1043 -0.6539 -0.1670
 2397TIP3    H228751   5.704   4.664   8.733  1.0799 -0.9344  0.9821
 2398TIP3   OH228752   2.428   3.100   1.304 -0.7752 -0.2162  0.3198
 2398TIP3    H128753   2.501   3.042   1.325 -0.8547 -0.6215 -0.5064
 2398TIP3    H228754   2.470   3.183   1.280 -0.5954 -0.3784  0.0684
 2399TIP3   OH228755   2.830   6.011   7.160  0.0216  0.4159 -0.0268
 2399TIP3    H128756   2.903   5.987   7.217  1.2377  0.8381 -1.3498
 2399TIP3    H228757   2.764   5.943   7.177 -0.3432  1.3686  2.9741
 2400TIP3   OH228758   3.496   3.059   7.967 -0.1579 -0.5083  0.1322
 2400TIP3    H128759   3.557   3.125   7.936 -2.0659  1.7051  0.8252
 2400TIP3    H228760   3.411   3.087   7.932 -1.2703 -1.7371  1.7021
 2401TIP3   OH228761   3.554   2.790   8.117  0.6097  0.0818  0.4193
 2401TIP3    H128762   3.624   2.804   8.181  0.7831  1.2663  0.0065
 2401TIP3    H228763   3.554   2.870   8.065  0.5283 -0.9000 -1.1241
 2402TIP3   OH228764   5.690   4.698   0.111  0.8442  0.2768 -0.9813
 2402TIP3    H128765   5.719   4.607   0.121 -0.3618  0.0294  0.7733
 2402TIP3    H228766   5.595   4.693   0.118  0.8318  1.7940  0.3880
 2403TIP3   OH228767   5.729   4.319   8.656  0.1949 -0.1240 -0.2652
 2403TIP3    H128768   5.760   4.270   8.580 -0.8615 -1.6826  0.2526
 2403TIP3    H228769   5.796   4.306   8.722  1.2146  1.4001 -0.9379
 2404TIP3   OH228770   0.749   1.548   1.702 -0.0841  0.0729  0.4799
 2404TIP3    H128771   0.659   1.561   1.731 -0.0288  0.3815  0.5118
 2404TIP3    H228772   0.756   1.453   1.688 -0.6973  0.1542 -0.4720
 2405TIP3   OH228773   4.486   2.902   1.076  0.3533 -0.2624 -0.3502
 2405TIP3    H128774   4.543   2.925   1.003  1.0283 -0.4650  0.1044
 2405TIP3    H228775   4.542   2.850   1.134 -0.3033 -0.4861  0.0899
 2406TIP3   OH228776   3.447   3.896   0.462  0.5003 -0.0473  0.1790
 2406TIP3    H128777   3.439   3.979   0.510  0.9175  1.2239 -1.8170
 2406TIP3    H228778   3.357   3.871   0.444  0.3763  1.3781 -1.4037
 2407TIP3   OH228779   0.449   0.270   0.259  0.1444  0.5113  0.4811
 2407TIP3    H128780   0.368   0.254   0.307  0.9049 -0.3553  1.5268
 2407TIP3    H228781   0.434   0.354   0.214 -1.8282 -0.2944 -0.4874
 2408TIP3   OH228782   3.830   0.998   2.576  0.7090  0.0134 -0.0765
 2408TIP3    H128783   3.872   1.084   2.585  1.8966 -0.5581 -0.0345
 2408TIP3    H228784   3.809   0.972   2.666  0.1226  0.3460 -0.1056
 2409TIP3   OH228785   4.347   0.050   0.554 -0.8751 -1.2033  0.2957
 2409TIP3    H128786   4.422   0.035   0.611 -0.6230  0.9648  0.6277
 2409TIP3    H228787   4.385   0.077   0.471 -1.2901 -1.7217 -0.0742
 2410TIP3   OH228788   5.365   0.773   8.627 -0.0448  0.4841  1.3249
 2410TIP3    H128789   5.294   0.822   8.585  0.1717  0.0183  0.3826
 2410TIP3    H228790   5.332   0.683   8.631  0.3706  0.3173  1.1276
 2411TIP3   OH228791   1.174   6.252   0.663 -0.2762  0.2824  0.6160
 2411TIP3    H128792   1.135   6.176   0.620  2.0309 -0.8981  0.4042
 2411TIP3    H228793   1.230   6.214   0.731  1.8644  1.6644 -0.2676
 2412TIP3   OH228794   1.718   1.910   8.448  0.1374  0.2078  1.0308
 2412TIP3    H128795   1.800   1.947   8.481  1.5016 -1.7319  0.0035
 2412TIP3    H228796   1.674   1.874   8.525  1.5135 -1.0072  1.2789
 2413TIP3   OH228797   6.138   0.857   0.470  0.4904  0.0315  0.1759
 2413TIP3    H128798   6.233   0.844   0.471  0.3748 -1.7305 -2.2816
 2413TIP3    H228799   6.122   0.913   0.394 -0.5871 -1.7331 -0.9502
 2414TIP3   OH228800   5.315   2.630   0.615 -0.5365  0.4471 -0.2537
 2414TIP3    H128801   5.310   2.547   0.662 -0.4163  0.6053  0.0430
 2414TIP3    H228802   5.239   2.630   0.557  0.1904 -0.4686 -1.2341
 2415TIP3   OH228803   4.946   6.654   0.687  0.0384 -0.1492 -0.3968
 2415TIP3    H128804   4.983   6.662   0.775 -0.4200 -2.3368  0.0776
 2415TIP3    H228805   4.909   6.740   0.668 -1.3089 -0.0468  2.2581
 2416TIP3   OH228806   1.598   2.643   7.526 -0.4535  0.1322  0.0747
 2416TIP3    H128807   1.560   2.570   7.575 -0.2493 -0.7621 -1.0555
 2416TIP3    H228808   1.693   2.633   7.538 -0.4396  2.3851  2.9310
 2417TIP3   OH228809   1.939   1.707   1.102  0.0188 -0.1590  0.1517
 2417TIP3    H128810   1.998   1.732   1.173 -0.6014  1.7023  0.0804
 2417TIP3    H228811   1.960   1.768   1.031  0.7551 -2.0949 -1.3637
 2418TIP3   OH228812   3.046   5.112   7.953 -0.3077 -0.5047  0.7873
 2418TIP3    H128813   3.069   5.019   7.949  0.9751 -0.1675 -0.2524
 2418TIP3    H228814   3.072   5.139   8.041 -0.5802 -1.0891  1.0529
 2419TIP3   OH228815   0.117   0.728   1.275  0.2465 -0.4825  0.0847
 2419TIP3    H128816   0.030   0.767   1.271  0.1860 -0.4878  1.0632
 2419TIP3    H228817   0.163   0.765   1.199 -0.7082 -0.7602 -0.6565
 2420TIP3   OH228818   3.135   6.644   0.607 -0.0974  0.3406 -0.3444
 2420TIP3    H128819   3.084   6.571   0.570  1.2545 -0.0598 -1.4820
 2420TIP3    H228820   3.225   6.627   0.580  0.8349  0.5859  2.2944
 2421TIP3   OH228821   5.175   3.996   1.596 -0.5391  0.0436  0.5024
 2421TIP3    H128822   5.219   4.081   1.597  1.1909 -0.8085 -0.1956
 2421TIP3    H228823   5.171   3.970   1.687  1.8509 -0.5458  0.4923
 2422TIP3   OH228824   1.123   5.607   0.531 -0.1292 -0.3782 -0.9069
 2422TIP3    H128825   1.114   5.528   0.584 -0.6736 -0.0426 -0.4978
 2422TIP3    H228826   1.087   5.583   0.446  0.8121 -0.9410 -1.1716
 2423TIP3   OH228827   2.990   4.955   8.555 -0.3319  0.3374 -0.1437
 2423TIP3    H128828   3.030   5.041   8.569 -0.8393  0.5927 -0.2499
 2423TIP3    H228829   2.937   4.966   8.476 -1.7907  0.4305  0.8059
 2424TIP3   OH228830   3.615   5.332   8.071  0.2318 -0.2252  0.1172
 2424TIP3    H128831   3.599   5.373   8.156  0.4000 -1.0943  0.5782
 2424TIP3    H228832   3.607   5.238   8.088 -1.6505 -0.3538 -1.2333
 2425TIP3   OH228833   4.199   6.161   8.694 -0.5301 -0.1568 -0.0511
 2425TIP3    H128834   4.115   6.124   8.722 -1.0499  0.6481 -0.5298
 2425TIP3    H228835   4.259   6.139   8.765 -0.8273 -1.8543 -0.2808
 2426TIP3   OH228836   0.094   1.502   8.683  0.0546 -0.0614 -0.4686
 2426TIP3    H128837   0.021   1.459   8.727  2.3961 -2.3217  1.5579
 2426TIP3    H228838   0.150   1.534   8.755  2.0255 -0.1896 -1.8594
 2427TIP3   OH228839   5.398   2.019   0.028  0.7093  0.0336  0.2664
 2427TIP3    H128840   5.485   1.988   0.000  1.0687  0.7288  0.6047
 2427TIP3    H228841   5.398   2.112   0.007 -0.5872 -0.2613 -1.2977
 2428TIP3   OH228842   0.040   1.347   7.449  0.2691  0.0589  0.4614
 2428TIP3    H128843   0.126   1.386   7.465 -0.3718  1.5441  0.4088
 2428TIP3    H228844   0.037   1.333   7.355 -0.3282  1.9984  0.1525
 2429TIP3   OH228845   2.897   2.541   1.505 -0.0806 -0.5238  0.4788
 2429TIP3    H128846   2.862   2.468   1.454 -1.0265 -0.6994  1.3504
 2429TIP3    H228847   2.982   2.510   1.536  0.2315 -0.6401 -0.4798
 2430TIP3   OH228848   5.171   5.184   7.555 -0.1058 -0.5317  0.2303
 2430TIP3    H128849   5.182   5.089   7.563 -2.1166 -0.9997 -1.5212
 2430TIP3    H228850   5.084   5.194   7.516 -0.1058  2.0709  0.7701
 2431TIP3   OH228851   4.972   5.458   1.230  0.4094 -0.8543  0.4478
 2431TIP3    H128852   5.023   5.534   1.257  1.7688 -1.6299  0.1662
 2431TIP3    H228853   5.036   5.386   1.225 -0.6606 -1.8052 -0.1775
 2432TIP3   OH228854   4.394   6.100   8.888 -0.2331  0.4479  0.3879
 2432TIP3    H128855   4.451   6.112   8.812 -1.2121  2.9724 -0.0383
 2432TIP3    H228856   4.454   6.103   8.963  0.6085 -0.9723 -0.1865
 2433TIP3   OH228857   1.489   5.144   2.067  0.0448  0.5892 -0.4019
 2433TIP3    H128858   1.423   5.128   2.134 -0.0004 -1.3013 -0.8542
 2433TIP3    H228859   1.443   5.194   1.999 -0.4070  0.8871  0.1184
 2434TIP3   OH228860   1.287   5.276   7.114 -0.1950 -0.4207 -0.5234
 2434TIP3    H128861   1.198   5.301   7.137  0.2201 -0.8313  1.8490
 2434TIP3    H228862   1.292   5.182   7.131  0.4880 -0.5595 -1.3923
 2435TIP3   OH228863   0.495   3.347   1.897 -0.1842 -0.3307  0.3296
 2435TIP3    H128864   0.511   3.259   1.864  1.2650  0.3250 -0.8559
 2435TIP3    H228865   0.413   3.375   1.855  0.3478 -0.4323 -0.8084
 2436TIP3   OH228866   5.897   4.114   1.876 -0.0957 -0.0726  0.1209
 2436TIP3    H128867   5.949   4.177   1.826 -0.9059  0.1152 -0.5171
 2436TIP3    H228868   5.830   4.085   1.814 -0.4265 -0.7070  0.7641
 2437TIP3   OH228869   1.094   6.531   1.668 -0.3453 -0.0408  0.4633
 2437TIP3    H128870   1.100   6.450   1.618 -0.2436 -0.5872  1.3525
 2437TIP3    H228871   1.153   6.592   1.622  0.4898 -0.8213  0.4748
 2438TIP3   OH228872   2.550   5.594   0.759 -0.3351 -0.6158 -0.3351
 2438TIP3    H128873   2.630   5.625   0.717 -1.3942 -0.0687 -2.0194
 2438TIP3    H228874   2.532   5.659   0.827  1.0099 -1.1355  0.5710
 2439TIP3   OH228875   6.108   6.733   0.928  0.6398  0.3930  0.0053
 2439TIP3    H128876   6.013   6.748   0.925  0.7063  0.9011  0.2887
 2439TIP3    H228877   6.139   6.763   0.843  0.7019  1.4331  0.3746
 2440TIP3   OH228878   5.594   5.693   8.239  0.1596  0.0812 -0.1215
 2440TIP3    H128879   5.632   5.777   8.265  1.3840 -0.5623  0.2313
 2440TIP3    H228880   5.499   5.705   8.249  0.3613  1.2050  0.5458
 2441TIP3   OH228881   5.892   0.768   2.117 -0.0471  0.6487  0.1787
 2441TIP3    H128882   5.819   0.707   2.130 -0.6099  0.5268 -2.7342
 2441TIP3    H228883   5.857   0.853   2.144 -1.3383  0.5822 -1.1359
 2442TIP3   OH228884   1.766   5.942   8.506 -0.3194  0.3517 -0.4150
 2442TIP3    H128885   1.858   5.953   8.531 -0.1279  1.8873 -1.5857
 2442TIP3    H228886   1.726   6.027   8.527 -1.6090 -0.4648  0.5345
 2443TIP3   OH228887   2.745   0.653   0.250  0.4132 -0.1150  0.1470
 2443TIP3    H128888   2.687   0.702   0.192  0.4691  1.3245  1.2561
 2443TIP3    H228889   2.694   0.578   0.277 -1.0213  1.1766  1.1827
 2444TIP3   OH228890   1.621   1.807   1.834  0.3269  0.8953  0.3716
 2444TIP3    H128891   1.608   1.884   1.889 -1.0053 -0.2305  1.7142
 2444TIP3    H228892   1.633   1.734   1.896 -0.8023 -0.3468 -0.7978
 2445TIP3   OH228893   2.131   4.420   2.708 -0.1287 -0.4612  0.2890
 2445TIP3    H128894   2.209   4.476   2.714 -1.1650  0.9608  1.7489
 2445TIP3    H228895   2.145   4.352   2.774 -0.2094 -0.0415  0.7511
 2446TIP3   OH228896   6.749   0.203   0.700 -0.3904  0.0393  0.1142
 2446TIP3    H128897   6.823   0.216   0.640  1.8117 -0.6031  2.5079
 2446TIP3    H228898   6.747   0.108   0.715 -1.1772  0.1465  0.7530
 2447TIP3   OH228899   4.500   1.231   0.385 -0.1521  0.4478  0.1410
 2447TIP3    H128900   4.509   1.291   0.459 -0.8579  1.4784 -0.5723
 2447TIP3    H228901   4.425   1.176   0.408  1.1679 -0.9499  1.2916
 2448TIP3   OH228902   0.913   0.361   0.579  0.1046  0.5667 -0.3634
 2448TIP3    H128903   0.916   0.320   0.493  0.5750  0.5460 -0.3383
 2448TIP3    H228904   0.882   0.291   0.638  2.5636 -0.3248 -0.0076
 2449TIP3   OH228905   1.701   1.385   0.243  0.4309  0.4267  0.0228
 2449TIP3    H128906   1.728   1.469   0.281  1.1336 -0.0863  0.7004
 2449TIP3    H228907   1.781   1.333   0.242  0.0002 -0.2384 -0.3861
 2450TIP3   OH228908   0.556   3.871   2.461 -0.3272  0.1626 -0.2850
 2450TIP3    H128909   0.587   3.802   2.402  0.2711  1.1649 -1.1679
 2450TIP3    H228910   0.622   3.875   2.530 -1.4025 -1.5253  0.9318
 2451TIP3   OH228911   5.899   1.023   7.447 -0.2433 -0.6315 -0.2646
 2451TIP3    H128912   5.929   0.964   7.378 -1.5116 -0.0252 -1.3730
 2451TIP3    H228913   5.812   1.052   7.419 -0.1839  0.7765  0.8588
 2452TIP3   OH228914   3.559   5.529   1.100 -0.0835 -0.0540 -0.1336
 2452TIP3    H128915   3.584   5.483   1.020 -1.7645 -0.7500 -0.2996
 2452TIP3    H228916   3.555   5.460   1.166 -1.5862 -0.0000 -0.1454
 2453TIP3   OH228917   2.290   2.077   1.814  0.2243 -0.4041  0.2964
 2453TIP3    H128918   2.278   2.169   1.790  1.2811  0.5456  3.0451
 2453TIP3    H228919   2.385   2.064   1.812  0.0238 -1.9882 -1.7029
 2454TIP3   OH228920   2.462   1.270   0.370 -0.1662  0.4258  0.1794
 2454TIP3    H128921   2.546   1.224   0.375 -0.5059 -0.3451 -0.9113
 2454TIP3    H228922   2.460   1.307   0.282 -0.1656  2.0567  0.8340
 2455TIP3   OH228923   6.205   6.188   8.441 -0.4328  0.1978  0.2015
 2455TIP3    H128924   6.238   6.226   8.523 -1.5212  1.1469  0.2337
 2455TIP3    H228925   6.109   6.190   8.451 -0.5626 -2.0771 -0.0388
 2456TIP3   OH228926   4.289   5.710   0.091 -0.1266  0.4636  0.0408
 2456TIP3    H128927   4.231   5.782   0.065  0.4028 -0.1580 -3.4124
 2456TIP3    H228928   4.231   5.634   0.094 -0.1504  0.5009  0.5642
 2457TIP3   OH228929   3.750   2.528   0.630  0.1903 -0.3103 -0.1747
 2457TIP3    H128930   3.787   2.616   0.630 -1.0125  0.2083  0.4313
 2457TIP3    H228931   3.727   2.511   0.538  0.3601  0.0311 -0.2797
 2458TIP3   OH228932   5.458   5.451   8.412 -0.0703  0.2501 -0.4488
 2458TIP3    H128933   5.462   5.481   8.503  1.6856 -2.4437  0.4885
 2458TIP3    H228934   5.548   5.430   8.389 -0.4974  0.6304 -2.7691
 2459TIP3   OH228935   2.843   3.272   0.711  0.0512  0.2272  0.3004
 2459TIP3    H128936   2.807   3.361   0.715 -1.0888  0.0287 -2.7122
 2459TIP3    H228937   2.766   3.216   0.704  0.7859 -0.9641  1.3863
 2460TIP3   OH228938   5.762   4.139   0.575 -0.1488  0.0150 -0.1267
 2460TIP3    H128939   5.731   4.220   0.616 -0.7210  0.7994 -1.9711
 2460TIP3    H228940   5.715   4.069   0.619 -0.2745  0.7576  0.9471
 2461TIP3   OH228941   0.054   1.546   8.096 -0.2288  0.1910 -0.5823
 2461TIP3    H128942  -0.034   1.582   8.091 -0.0495  0.7004 -0.0919
 2461TIP3    H228943   0.081   1.560   8.187  0.4144  0.1827 -0.7683
 2462TIP3   OH228944   1.793   5.949   7.632 -0.0078 -0.6950 -0.3645
 2462TIP3    H128945   1.835   5.994   7.705 -0.3621 -0.8238 -0.0753
 2462TIP3    H228946   1.709   5.919   7.668  0.3875 -1.9360 -0.4394
 2463TIP3   OH228947   1.216   3.093   2.118  0.3094  0.1576  0.3058
 2463TIP3    H128948   1.282   3.087   2.187  1.5409  0.0514 -0.8414
 2463TIP3    H228949   1.260   3.059   2.039 -1.1098  0.1003 -0.5014
 2464TIP3   OH228950   5.997   2.018   1.862  0.1153  0.4304 -0.3160
 2464TIP3    H128951   5.929   2.085   1.862 -0.4055 -0.0865  0.2749
 2464TIP3    H228952   6.073   2.061   1.902 -0.6632  0.2568  1.4642
 2465TIP3   OH228953   2.472   5.493   2.118  0.1744  0.6889  0.2514
 2465TIP3    H128954   2.423   5.568   2.086  0.4044 -0.1235 -2.2422
 2465TIP3    H228955   2.564   5.521   2.116  0.6911 -0.5491 -4.1308
 2466TIP3   OH228956   5.910   4.287   7.518  0.5225  0.5889 -0.2332
 2466TIP3    H128957   5.895   4.239   7.600  2.4780  0.2140 -0.0289
 2466TIP3    H228958   5.826   4.284   7.473 -0.0521 -1.0349  0.8226
 2467TIP3   OH228959   5.378   1.331   0.682  0.0190  0.2787 -0.5757
 2467TIP3    H128960   5.435   1.405   0.701 -1.0679  2.0142 -3.3979
 2467TIP3    H228961   5.302   1.344   0.739  0.5943  0.3494  0.1767
 2468TIP3   OH228962   5.667   0.233   8.163  0.0024 -0.6293  0.4631
 2468TIP3    H128963   5.683   0.327   8.168  0.3826 -0.6342 -0.4109
 2468TIP3    H228964   5.604   0.215   8.233  0.6560  0.1047  1.2541
 2469TIP3   OH228965   5.091   1.232   2.436 -0.8715 -0.4828 -0.5842
 2469TIP3    H128966   5.006   1.265   2.465 -0.9039 -0.3124 -0.8728
 2469TIP3    H228967   5.150   1.306   2.448 -1.0379 -0.1497 -1.6925
 2470TIP3   OH228968   5.077   0.837   1.894 -0.1796 -0.4053 -0.3106
 2470TIP3    H128969   5.013   0.835   1.966 -0.2113  1.1731 -0.2567
 2470TIP3    H228970   5.029   0.876   1.821  0.3148 -0.5261 -0.7038
 2471TIP3   OH228971   5.385   4.046   1.102 -0.1716 -0.2951 -0.8194
 2471TIP3    H128972   5.297   4.078   1.123 -0.6420  0.1431 -3.1749
 2471TIP3    H228973   5.410   3.993   1.179 -1.6651  1.1254  0.7379
 2472TIP3   OH228974   2.400   4.968   8.362  0.1053 -0.2147 -0.5553
 2472TIP3    H128975   2.468   4.900   8.361  0.4288  0.1036 -0.9883
 2472TIP3    H228976   2.449   5.051   8.362 -0.2670  0.0304 -1.5164
 2473TIP3   OH228977   2.932   2.210   6.531  0.0791  0.3250  0.0679
 2473TIP3    H128978   2.985   2.140   6.492 -0.5283  0.6006 -1.3179
 2473TIP3    H228979   2.861   2.165   6.576  0.1661  0.0183 -0.1009
 2474TIP3   OH228980   3.414   0.841   8.841 -0.3200 -0.7850 -0.1766
 2474TIP3    H128981   3.369   0.757   8.847 -0.2691 -0.7698  0.6228
 2474TIP3    H228982   3.507   0.819   8.839 -0.3365 -0.7959 -1.3356
 2475TIP3   OH228983   6.544   1.871   0.084  0.4379 -0.5870 -0.6459
 2475TIP3    H128984   6.471   1.907   0.034  0.0116 -0.9878 -0.3141
 2475TIP3    H228985   6.528   1.898   0.174  0.2824 -1.3258 -0.4438
 2476TIP3   OH228986   1.112   4.592   7.962 -0.5838  0.1828 -0.1676
 2476TIP3    H128987   1.169   4.655   7.920  0.5305 -1.3970 -1.1454
 2476TIP3    H228988   1.100   4.523   7.897 -2.3498 -0.2886  0.5862
 2477TIP3   OH228989   3.562   1.884   0.915  0.1875  0.6420  0.1871
 2477TIP3    H128990   3.597   1.963   0.955 -1.0875  0.5111  1.6536
 2477TIP3    H228991   3.584   1.814   0.976 -0.2120  0.1364 -0.2335
 2478TIP3   OH228992   2.422   5.895   1.702 -0.6637 -0.7743 -0.1776
 2478TIP3    H128993   2.337   5.849   1.703 -1.2286  0.2474  0.4976
 2478TIP3    H228994   2.410   5.965   1.637 -0.0426 -1.1323 -0.6876
 2479TIP3   OH228995   2.951   3.712   0.199  0.2856 -0.9346  0.3039
 2479TIP3    H128996   2.882   3.696   0.134 -0.0237  0.0888  0.3704
 2479TIP3    H228997   2.938   3.642   0.263  0.1163 -1.5064 -0.3382
 2480TIP3   OH228998   3.105   1.354   8.046 -0.0483  0.3683  0.4805
 2480TIP3    H128999   3.183   1.380   7.998  1.1082 -2.5956  0.5228
 2480TIP3    H229000   3.033   1.398   8.000  1.5151  2.6961  0.0582
 2481TIP3   OH229001   1.469   2.852   0.139 -0.5534  0.6774 -0.3499
 2481TIP3    H129002   1.389   2.802   0.124 -0.9264  0.9034  0.7418
 2481TIP3    H229003   1.487   2.894   0.056 -0.3466 -1.0791 -1.2539
 2482TIP3   OH229004   4.595   4.613   0.211  0.1352  0.1558 -0.0051
 2482TIP3    H129005   4.582   4.520   0.229 -0.1016  0.1266 -0.3142
 2482TIP3    H229006   4.529   4.657   0.264 -0.6958  0.0582 -0.9210
 2483TIP3   OH229007   0.395   0.564   8.327 -0.1943  0.2091  0.5592
 2483TIP3    H129008   0.381   0.476   8.361 -1.6770  0.2446  0.0865
 2483TIP3    H229009   0.311   0.608   8.338  0.4297  1.4576  0.4575
 2484TIP3   OH229010   0.458   6.751   1.570  0.0385  0.3134 -0.3548
 2484TIP3    H129011   0.426   6.780   1.656  0.4217  0.5022 -0.2760
 2484TIP3    H229012   0.551   6.732   1.583  0.1097  0.3807 -0.7375
 2485TIP3   OH229013   1.403   0.188   8.241 -0.5531 -0.5514  0.0079
 2485TIP3    H129014   1.393   0.221   8.151 -0.0566 -1.5752 -0.4485
 2485TIP3    H229015   1.450   0.257   8.287 -3.3327  1.2977  0.3234
 2486TIP3   OH229016   4.438   2.855   7.363 -0.2467  0.3299 -0.3546
 2486TIP3    H129017   4.495   2.850   7.286 -0.9351 -1.3020 -0.7848
 2486TIP3    H229018   4.485   2.807   7.430  0.6250  2.2336  0.4932
 2487TIP3   OH229019   2.627   3.236   8.293  0.1606  0.3782  0.0010
 2487TIP3    H129020   2.710   3.273   8.323  1.0141 -1.1084 -0.4059
 2487TIP3    H229021   2.562   3.270   8.355  1.1865  0.9039  0.8353
 2488TIP3   OH229022   0.082   1.310   2.750 -0.0482  0.1854 -0.0464
 2488TIP3    H129023   0.101   1.385   2.805  2.2616 -0.2412 -0.1809
 2488TIP3    H229024  -0.002   1.277   2.782 -0.0639  1.5458  1.3997
 2489TIP3   OH229025   0.174   4.359   1.727  0.0986 -0.0063  0.0563
 2489TIP3    H129026   0.196   4.393   1.640 -0.8396 -1.2525 -0.7088
 2489TIP3    H229027   0.257   4.328   1.763  0.4350  0.1669 -0.5662
 2490TIP3   OH229028   0.641   4.899   2.114  0.1193 -0.1890 -0.6945
 2490TIP3    H129029   0.579   4.867   2.049  1.1254 -2.0779 -0.7906
 2490TIP3    H229030   0.617   4.853   2.195 -0.0180  0.8027 -0.1495
 2491TIP3   OH229031   1.701   2.114   7.959 -0.6919 -0.2891  0.1196
 2491TIP3    H129032   1.789   2.083   7.941 -1.2328 -1.0250 -1.3586
 2491TIP3    H229033   1.675   2.068   8.039  0.0264 -0.5139  0.2288
 2492TIP3   OH229034   5.332   2.670   8.528 -0.0928  0.5790  0.2194
 2492TIP3    H129035   5.396   2.660   8.599 -0.2041 -0.9636  0.1388
 2492TIP3    H229036   5.256   2.710   8.570  0.3547  1.0125  0.6444
 2493TIP3   OH229037   4.901   4.038   8.460 -0.3424 -0.4354 -0.2940
 2493TIP3    H129038   4.908   3.944   8.472 -0.6118 -0.3645  0.4349
 2493TIP3    H229039   4.824   4.064   8.511 -0.0204  0.2412 -0.1354
 2494TIP3   OH229040   6.534   3.355   8.602  0.0584 -0.1362 -0.1802
 2494TIP3    H129041   6.613   3.343   8.656  1.6968  3.5725 -1.4343
 2494TIP3    H229042   6.553   3.308   8.521  1.3992  1.2911 -0.7447
 2495TIP3   OH229043   1.327   0.285   8.000  0.7920  0.5507 -0.1129
 2495TIP3    H129044   1.274   0.362   7.978 -0.6610 -0.2640  0.4470
 2495TIP3    H229045   1.302   0.219   7.936  2.7931  0.7999 -1.2471
 2496TIP3   OH229046   5.701   6.544   0.702 -0.1772 -0.2072  0.2898
 2496TIP3    H129047   5.794   6.544   0.681  0.1594 -0.3097  1.7054
 2496TIP3    H229048   5.667   6.623   0.661  0.9061  0.8186  1.3071
 2497TIP3   OH229049   1.462   5.039   1.611 -0.1805 -0.5680 -1.2489
 2497TIP3    H129050   1.447   5.096   1.536  0.9657  0.0826 -0.9986
 2497TIP3    H229051   1.379   5.041   1.659 -0.4041  0.2708 -1.6540
 2498TIP3   OH229052   4.334   1.570   0.774  0.4105 -0.0061  0.1084
 2498TIP3    H129053   4.314   1.547   0.683 -0.8226 -1.1403  0.6364
 2498TIP3    H229054   4.428   1.554   0.783  0.4035 -0.5896 -0.7602
 2499TIP3   OH229055   3.748   1.254   2.031  0.0626 -0.4708  0.5950
 2499TIP3    H129056   3.749   1.341   2.072 -0.5024 -0.1017 -0.1457
 2499TIP3    H229057   3.831   1.214   2.057 -0.5382 -0.5290  2.6418
 2500TIP3   OH229058   2.479   6.584   2.099 -0.1399  0.1919  0.3528
 2500TIP3    H129059   2.388   6.560   2.117  0.1790 -0.6867  0.8614
 2500TIP3    H229060   2.516   6.603   2.185  0.2639  0.1540  0.1880
 2501TIP3   OH229061   5.976   3.894   8.866  0.0280 -0.0440  0.0302
 2501TIP3    H129062   5.934   3.967   8.911 -0.2788 -1.2663  1.8517
 2501TIP3    H229063   6.063   3.927   8.842 -0.6390  1.3663 -0.5303
 2502TIP3   OH229064   5.888   6.415   1.264 -0.4383 -0.4774  0.4363
 2502TIP3    H129065   5.960   6.360   1.233 -0.2529 -0.0317  0.0499
 2502TIP3    H229066   5.856   6.372   1.343  0.5305 -0.4498  0.8486
 2503TIP3   OH229067   6.134   6.298   0.502 -0.1721  0.0906  0.0824
 2503TIP3    H129068   6.169   6.319   0.415  0.8182  0.7968  0.6378
 2503TIP3    H229069   6.209   6.263   0.550 -0.0669  2.0654  1.4485
 2504TIP3   OH229070   2.663   5.712   2.525 -0.0776  0.2631  0.7317
 2504TIP3    H129071   2.708   5.794   2.544  0.6896 -0.0153  0.1900
 2504TIP3    H229072   2.612   5.693   2.604  0.5914  0.7109  1.2836
 2505TIP3   OH229073   0.153   1.413   0.512 -0.5042 -0.2569 -0.0105
 2505TIP3    H129074   0.239   1.424   0.551  0.1023 -0.1914 -1.3139
 2505TIP3    H229075   0.170   1.401   0.419 -1.7831 -1.9501 -0.0823
 2506TIP3   OH229076   3.839   2.061   7.979  0.6340 -0.2760  0.1496
 2506TIP3    H129077   3.833   2.119   8.055  2.2790  1.0445 -0.6906
 2506TIP3    H229078   3.842   1.973   8.017  2.1414  0.3828  1.6826
 2507TIP3   OH229079   4.972   2.917   0.148  0.0211 -0.0863  0.2541
 2507TIP3    H129080   4.910   2.939   0.217 -0.9498 -1.8129 -0.0168
 2507TIP3    H229081   4.923   2.924   0.067  1.2442  2.2620 -0.3826
 2508TIP3   OH229082   0.017   1.017   2.356  0.1312  0.0713  0.3731
 2508TIP3    H129083  -0.075   1.040   2.369 -0.2150 -0.4486 -1.0251
 2508TIP3    H229084   0.029   1.020   2.261  1.4416 -0.3294  0.5158
 2509TIP3   OH229085   1.048   3.147   2.884  0.4019 -0.3030  0.1552
 2509TIP3    H129086   1.004   3.231   2.900  0.9820  0.4449 -1.8523
 2509TIP3    H229087   1.029   3.095   2.962 -1.6050  0.9984  0.6196
 2510TIP3   OH229088   3.191   1.269   8.590 -0.3881  0.6003 -0.2994
 2510TIP3    H129089   3.284   1.273   8.615 -0.2219  2.0116 -1.0530
 2510TIP3    H229090   3.192   1.223   8.506 -0.4585 -0.0003  0.0208
 2511TIP3   OH229091   1.778   1.072   8.803 -0.5203 -0.6518 -0.4452
 2511TIP3    H129092   1.729   1.002   8.846 -0.6051  0.1190  0.7465
 2511TIP3    H229093   1.725   1.150   8.817  1.1571  0.2589  1.1358
 2512TIP3   OH229094   3.414   4.691   1.830 -0.7117 -0.2329 -0.1418
 2512TIP3    H129095   3.431   4.608   1.785 -1.0965 -0.3406 -0.0858
 2512TIP3    H229096   3.345   4.671   1.893 -0.8045  0.1298 -0.1266
 2513TIP3   OH229097   5.410   2.716   7.709  0.2156  0.1257  0.1416
 2513TIP3    H129098   5.502   2.743   7.706  0.0839  0.5581 -0.0319
 2513TIP3    H229099   5.409   2.629   7.669  0.4953  0.2806 -0.2077
 2514TIP3   OH229100   3.487   6.278   8.706  0.5905 -0.2556 -0.2884
 2514TIP3    H129101   3.464   6.252   8.617  1.4618  0.5775 -0.7835
 2514TIP3    H229102   3.569   6.232   8.724  0.7965  0.1355 -0.2060
 2515TIP3   OH229103   0.879   1.688   8.773  0.1069 -0.4573 -0.4321
 2515TIP3    H129104   0.968   1.668   8.744 -0.8159 -3.1853 -1.7787
 2515TIP3    H229105   0.848   1.607   8.814 -1.4292  0.7553  0.9616
 2516TIP3   OH229106   1.484   5.680   0.177 -0.5161 -0.5117 -0.1399
 2516TIP3    H129107   1.481   5.674   0.082 -1.8018 -0.4012 -0.1290
 2516TIP3    H229108   1.575   5.661   0.200 -0.3983 -1.4901 -1.3147
 2517TIP3   OH229109   5.796   1.582   1.275 -0.3646 -0.2531  0.2573
 2517TIP3    H129110   5.770   1.499   1.313  1.0388 -0.8311 -0.0019
 2517TIP3    H229111   5.810   1.640   1.350 -0.1812 -0.6034  0.4911
 2518TIP3   OH229112   6.119   0.616   1.524 -0.5064  0.6367 -0.3720
 2518TIP3    H129113   6.042   0.598   1.579 -0.1804 -0.5032 -0.2599
 2518TIP3    H229114   6.084   0.667   1.451 -1.6981 -1.1628 -1.1442
 2519TIP3   OH229115   0.607   3.558   7.485  0.0427  0.0410 -0.0660
 2519TIP3    H129116   0.641   3.488   7.540  1.1299 -0.0840 -0.8722
 2519TIP3    H229117   0.678   3.578   7.424 -1.4392 -0.4630 -2.0500
 2520TIP3   OH229118   6.071   0.981   1.267  0.1161  0.5175 -0.0678
 2520TIP3    H129119   6.106   0.909   1.319 -0.9587  0.1633  0.1786
 2520TIP3    H229120   6.148   1.018   1.223  0.8758  0.1402  0.9207
 2521TIP3   OH229121   2.964   2.113   7.931  0.4671 -0.7118  0.5721
 2521TIP3    H129122   2.953   2.167   8.010 -0.7890  0.0921 -0.1153
 2521TIP3    H229123   2.978   2.177   7.861  2.0989 -1.4371  0.1886
 2522TIP3   OH229124   5.470   0.776   1.443 -0.4734  0.3413 -0.3425
 2522TIP3    H129125   5.516   0.695   1.422 -0.7821  0.4166 -1.3457
 2522TIP3    H229126   5.502   0.839   1.378  1.3179  1.6220  1.6609
 2523TIP3   OH229127   0.635   0.579   1.915  0.1081 -0.9484  0.4401
 2523TIP3    H129128   0.690   0.507   1.946  0.6353 -0.2996  1.0439
 2523TIP3    H229129   0.599   0.548   1.832  1.3026 -1.4286  0.0882
 2524TIP3   OH229130   2.548   0.283   8.627  0.2384 -0.0946 -0.3690
 2524TIP3    H129131   2.527   0.205   8.678 -0.1952  1.9286  2.8396
 2524TIP3    H229132   2.545   0.254   8.536  0.1242 -3.7649  0.6565
 2525TIP3   OH229133   6.585   5.606   1.788  0.3079 -0.5847  0.4406
 2525TIP3    H129134   6.678   5.608   1.765  0.3492 -2.7622  0.2322
 2525TIP3    H229135   6.547   5.542   1.728 -1.4842  0.7317  0.0959
 2526TIP3   OH229136   6.269   1.585   1.648 -0.4018  0.4290  0.0400
 2526TIP3    H129137   6.325   1.523   1.601 -0.0596  1.3494 -0.7801
 2526TIP3    H229138   6.204   1.613   1.583 -0.2750  1.2797  0.2750
 2527TIP3   OH229139   3.540   2.581   0.058 -0.0483  0.6941  0.0454
 2527TIP3    H129140   3.503   2.633  -0.013  0.0173  0.4822 -0.1437
 2527TIP3    H229141   3.599   2.642   0.104  0.1541  0.7407 -0.2755
 2528TIP3   OH229142   0.048   6.298   0.080 -0.4068 -0.6064 -0.5678
 2528TIP3    H129143   0.030   6.333  -0.007 -0.9256 -1.3220 -0.7615
 2528TIP3    H229144  -0.017   6.228   0.091  0.5010 -1.4005 -0.1449
 2529TIP3   OH229145   2.709   4.060   7.789 -0.0264  0.6305 -0.3879
 2529TIP3    H129146   2.671   3.998   7.851  2.0903 -2.1926 -1.6905
 2529TIP3    H229147   2.787   4.094   7.834  0.4771  0.0038 -0.7688
 2530TIP3   OH229148   2.764   6.325   7.710  0.2501  0.0583  0.7830
 2530TIP3    H129149   2.804   6.389   7.652  2.6713 -1.2020  0.9451
 2530TIP3    H229150   2.783   6.357   7.798 -0.3832  0.1789  0.8812
 2531TIP3   OH229151   2.939   0.858   0.166 -0.6473  0.8319  0.7377
 2531TIP3    H129152   2.908   0.767   0.177 -0.1188  0.8143  2.2987
 2531TIP3    H229153   2.904   0.884   0.081 -1.8289 -0.4357  0.7870
 2532TIP3   OH229154   6.293   0.109   2.000  0.4584  0.6933 -0.1896
 2532TIP3    H129155   6.213   0.141   1.959 -1.6807 -0.7306  2.5364
 2532TIP3    H229156   6.265   0.077   2.086  3.8176 -0.7380  0.5335
 2533TIP3   OH229157   0.695   6.491   2.091  0.1691 -0.0966  0.5354
 2533TIP3    H129158   0.710   6.531   2.177 -0.2223  0.9085  0.1579
 2533TIP3    H229159   0.665   6.564   2.036 -0.3864 -0.8863 -0.2373
 2534TIP3   OH229160   0.479   2.399   2.766  0.2561  0.2663 -0.4683
 2534TIP3    H129161   0.472   2.385   2.861 -0.9570 -2.0027 -0.8278
 2534TIP3    H229162   0.545   2.336   2.737  0.7803  1.0970 -1.1388
 2535TIP3   OH229163   5.488   6.108   8.451 -0.0354  0.0640 -0.1779
 2535TIP3    H129164   5.404   6.091   8.491  0.9091  0.2748  2.0311
 2535TIP3    H229165   5.538   6.154   8.518  1.6035  0.5812 -1.6702
 2536TIP3   OH229166   3.218   4.789   0.111  0.0151 -0.3656 -0.0855
 2536TIP3    H129167   3.165   4.729   0.059  1.1482 -0.0364 -1.6907
 2536TIP3    H229168   3.308   4.764   0.093  0.4798 -0.2572  1.7960
 2537TIP3   OH229169   2.905   3.939   8.654  0.0889  0.5529 -0.2156
 2537TIP3    H129170   2.965   3.866   8.637  0.5752  1.0553 -0.6896
 2537TIP3    H229171   2.930   3.970   8.741 -0.9000 -0.5804  0.4999
 2538TIP3   OH229172   6.265   4.284   8.536  0.0451  0.4319  0.0080
 2538TIP3    H129173   6.182   4.280   8.489 -1.0469 -0.5195  1.9356
 2538TIP3    H229174   6.305   4.198   8.522  1.1657  1.1420 -1.5791
 2539TIP3   OH229175   0.865   0.125   1.201  0.6908 -0.1678 -0.1381
 2539TIP3    H129176   0.954   0.107   1.171  1.4478  1.4148  0.9875
 2539TIP3    H229177   0.853   0.067   1.276  1.4637  0.8036  0.7758
 2540TIP3   OH229178   1.742   2.399   7.859 -1.1590  0.3018  0.2145
 2540TIP3    H129179   1.722   2.318   7.906  0.5851 -0.8015 -0.8516
 2540TIP3    H229180   1.718   2.382   7.769 -0.0648  0.6770 -0.1689
 2541TIP3   OH229181   2.054   0.444   8.848 -0.0272  0.1658  1.0739
 2541TIP3    H129182   2.021   0.509   8.787 -0.4798 -0.7727  0.2852
 2541TIP3    H229183   2.141   0.475   8.872 -0.1847  0.9884  0.6174
 2542TIP3   OH229184   5.119   1.963   8.462  0.8261 -0.6537 -0.2730
 2542TIP3    H129185   5.101   1.917   8.380 -1.0991 -0.5142  0.0397
 2542TIP3    H229186   5.036   1.963   8.509  1.9716 -1.1562  1.9225
 2543TIP3   OH229187   1.467   2.495   8.645 -0.2075 -0.0812  0.0768
 2543TIP3    H129188   1.473   2.443   8.565  2.7927 -1.8211  1.2700
 2543TIP3    H229189   1.441   2.432   8.713 -1.3355  1.0635  0.7433
 2544TIP3   OH229190   0.518   2.739   2.516 -0.0458  0.1425 -0.0375
 2544TIP3    H129191   0.571   2.815   2.541  0.5982  0.0972 -1.1848
 2544TIP3    H229192   0.577   2.664   2.527 -1.3761 -0.6147  3.5049
 2545TIP3   OH229193   4.843   1.326   8.735  0.1841 -0.5946 -0.3269
 2545TIP3    H129194   4.781   1.329   8.808 -1.5619  0.6608 -1.7565
 2545TIP3    H229195   4.809   1.257   8.678 -0.4068  0.6001 -1.4828
 2546TIP3   OH229196   4.678   4.393   8.729  0.1781 -0.3827 -0.0781
 2546TIP3    H129197   4.729   4.409   8.809 -0.4671 -1.0949  0.4915
 2546TIP3    H229198   4.681   4.476   8.682  1.2661 -0.2004  0.2797
 2547TIP3   OH229199   2.201   2.592   0.987 -0.3620 -0.0724 -0.6592
 2547TIP3    H129200   2.156   2.531   1.046  2.2555 -1.6260 -0.0613
 2547TIP3    H229201   2.206   2.674   1.036 -0.7910 -0.4598  0.0535
 2548TIP3   OH229202   1.312   5.411   2.590 -0.2844  0.0769  0.2449
 2548TIP3    H129203   1.288   5.371   2.674 -0.0064 -0.7103 -0.0332
 2548TIP3    H229204   1.384   5.357   2.558 -1.4951 -0.7133 -1.2951
 2549TIP3   OH229205   4.875   6.681   8.918  0.3684  0.2043  0.2890
 2549TIP3    H129206   4.907   6.730   8.994  0.9091  3.2108 -1.6908
 2549TIP3    H229207   4.953   6.664   8.865 -0.4082  1.8517 -1.4977
 2550TIP3   OH229208   1.371   2.105   2.722 -0.4612 -0.1098  0.2633
 2550TIP3    H129209   1.310   2.102   2.796  0.7413  2.9188  1.5824
 2550TIP3    H229210   1.348   2.185   2.675  0.7643 -0.3524 -0.8130
 2551TIP3   OH229211   2.552   1.716   7.977 -0.0333 -0.4559 -0.7455
 2551TIP3    H129212   2.540   1.631   8.021 -2.3910  0.6104  0.9095
 2551TIP3    H229213   2.629   1.754   8.020 -2.2596  0.5609  2.8745
 2552TIP3   OH229214   6.324   3.765   7.606  0.0065  0.7733  0.3770
 2552TIP3    H129215   6.349   3.766   7.513 -0.4025  1.2748  0.2713
 2552TIP3    H229216   6.377   3.695   7.644 -1.4094 -0.9791 -0.6884
 2553TIP3   OH229217   0.878   5.535   1.216 -0.8017  0.4152  0.1601
 2553TIP3    H129218   0.884   5.596   1.142  0.9149  0.7305  0.5276
 2553TIP3    H229219   0.952   5.556   1.271 -1.3309 -0.6781  1.3478
 2554TIP3   OH229220   5.585   6.154   0.768  0.4994  0.1110 -0.5406
 2554TIP3    H129221   5.670   6.146   0.812  0.1131  1.3208  0.4960
 2554TIP3    H229222   5.522   6.116   0.830  0.2957 -0.9762 -1.3966
 2555TIP3   OH229223   4.984   4.369   8.797  0.6651 -0.2212 -0.3192
 2555TIP3    H129224   4.952   4.452   8.832  0.3729 -0.0118 -1.0648
 2555TIP3    H229225   5.058   4.346   8.853  0.5985  0.4169  0.0390
 2556TIP3   OH229226   1.129   2.846   1.626  0.0862 -0.4673  0.2861
 2556TIP3    H129227   1.113   2.868   1.534  0.6269  0.9133  0.5107
 2556TIP3    H229228   1.209   2.893   1.648  0.7118 -1.8551  1.0981
 2557TIP3   OH229229   4.726   2.582   2.871  0.4368 -0.7852 -0.3387
 2557TIP3    H129230   4.667   2.646   2.831 -0.7528 -1.2283  0.6332
 2557TIP3    H229231   4.706   2.500   2.824 -2.3857 -1.7762  2.2701
 2558TIP3   OH229232   2.181   4.265   2.460  0.2647  0.0957  0.0382
 2558TIP3    H129233   2.197   4.178   2.497  0.3085 -0.0303 -0.2709
 2558TIP3    H229234   2.170   4.322   2.536 -0.4447 -0.3020  0.2413
 2559TIP3   OH229235   2.799   0.143   7.391  0.2129  0.8468 -1.0333
 2559TIP3    H129236   2.875   0.136   7.333  1.2253 -0.3008  0.3526
 2559TIP3    H229237   2.794   0.058   7.436 -2.0984  0.7759 -1.2930
 2560TIP3   OH229238   3.594   6.168   1.950 -0.5388 -0.1259 -0.2104
 2560TIP3    H129239   3.512   6.184   1.902  0.5740  0.2001 -2.0976
 2560TIP3    H229240   3.662   6.200   1.892  1.0836 -2.0601  0.5207
 2561TIP3   OH229241   4.857   0.897   7.260  0.2263 -0.5137  0.7737
 2561TIP3    H129242   4.936   0.844   7.249 -0.1645 -0.8507 -0.5807
 2561TIP3    H229243   4.832   0.885   7.351  0.6273 -1.9681  0.7081
 2562TIP3   OH229244   4.692   0.304   1.126 -0.6010  0.0640 -0.5376
 2562TIP3    H129245   4.705   0.343   1.039 -1.8304 -0.2060 -0.8669
 2562TIP3    H229246   4.663   0.376   1.181  0.3718  0.2773 -0.2804
 2563TIP3   OH229247   0.072   5.557   8.185 -0.2314  0.2668  0.2090
 2563TIP3    H129248   0.100   5.526   8.271  1.2487  0.4670 -0.1748
 2563TIP3    H229249   0.027   5.482   8.146  1.6195 -0.8367  0.0558
 2564TIP3   OH229250   1.274   2.895   8.427  0.1197 -0.3260  0.2353
 2564TIP3    H129251   1.300   2.814   8.383 -0.6483 -0.0373 -0.8022
 2564TIP3    H229252   1.322   2.964   8.381  0.5164 -0.1601  0.8955
 2565TIP3   OH229253   5.673   3.434   0.146 -0.0888 -0.4205  0.4561
 2565TIP3    H129254   5.666   3.355   0.198 -2.1941  0.4887  1.6603
 2565TIP3    H229255   5.652   3.406   0.057 -0.3370 -1.2950  0.7790
 2566TIP3   OH229256   1.253   4.643   2.309 -0.4305  0.3689 -0.0383
 2566TIP3    H129257   1.244   4.564   2.362  1.2298  1.3885  1.9039
 2566TIP3    H229258   1.285   4.612   2.224 -2.9965 -1.2938 -0.4956
 2567TIP3   OH229259   6.549   0.998   0.591  0.2552 -0.1379 -0.3479
 2567TIP3    H129260   6.492   1.071   0.618 -0.0445 -1.0263  1.5481
 2567TIP3    H229261   6.623   1.002   0.650 -0.2753 -1.9835  0.5026
 2568TIP3   OH229262   5.252   2.620   8.079  0.2806  0.1362 -0.0937
 2568TIP3    H129263   5.313   2.680   8.036 -0.7272  0.1544 -1.5530
 2568TIP3    H229264   5.198   2.676   8.135  0.5714  0.3298 -0.0067
 2569TIP3   OH229265   0.558   2.857   1.597  0.5890  0.0342  0.5836
 2569TIP3    H129266   0.593   2.783   1.547  1.8429  1.1626 -0.2879
 2569TIP3    H229267   0.554   2.929   1.534 -1.5110  0.4980  1.1615
 2570TIP3   OH229268   1.082   3.732   8.486  0.0681  0.2808 -0.2357
 2570TIP3    H129269   1.025   3.669   8.441  0.8362  0.4042 -1.4468
 2570TIP3    H229270   1.056   3.817   8.450  0.0668  0.4915  0.2599
 2571TIP3   OH229271   4.696   1.319   7.639  0.1703  0.3594 -1.0857
 2571TIP3    H129272   4.609   1.337   7.603  0.6373  0.2484 -2.3342
 2571TIP3    H229273   4.752   1.384   7.597  0.6599  0.5539 -0.1364
 2572TIP3   OH229274   6.481   4.425   8.576  0.4774 -0.2347 -0.0908
 2572TIP3    H129275   6.412   4.359   8.566 -0.0743 -0.0765  2.0675
 2572TIP3    H229276   6.437   4.508   8.559  0.6511 -0.2641 -0.7064
 2573TIP3   OH229277   1.008   4.707   3.157  0.3151 -0.3828  0.5109
 2573TIP3    H129278   0.914   4.698   3.172 -0.2014  1.5685 -1.2306
 2573TIP3    H229279   1.022   4.800   3.138  2.3332 -0.8945 -0.9038
 2574TIP3   OH229280   4.501   3.862   1.881  0.3067  0.0025  0.1775
 2574TIP3    H129281   4.504   3.812   1.799  0.0556  0.2355  0.0277
 2574TIP3    H229282   4.593   3.871   1.906  0.4325  0.5958 -0.4817
 2575TIP3   OH229283   4.461   0.302   0.591 -0.1678 -0.3418  0.1050
 2575TIP3    H129284   4.379   0.273   0.551 -0.5437 -1.5663  1.7035
 2575TIP3    H229285   4.449   0.286   0.684  0.8161  2.1210  0.7233
 2576TIP3   OH229286   4.981   6.488   8.371 -0.1898  0.4685 -0.1628
 2576TIP3    H129287   4.954   6.556   8.311 -1.2706 -1.1062 -1.5649
 2576TIP3    H229288   4.902   6.469   8.423 -0.4442 -0.8419 -0.9685
 2577TIP3   OH229289   2.569   5.439   2.464  0.5557 -0.1613 -0.1320
 2577TIP3    H129290   2.565   5.480   2.378 -3.2397 -0.1651 -0.1424
 2577TIP3    H229291   2.621   5.499   2.517  1.4543  0.7438 -1.9496
 2578TIP3   OH229292   2.913   2.305   6.860 -1.1173  0.4072  0.4925
 2578TIP3    H129293   2.927   2.312   6.765  0.9025  0.7969  0.7882
 2578TIP3    H229294   2.820   2.281   6.868 -0.8555 -1.7277 -1.6536
 2579TIP3   OH229295   2.039   2.981   7.587 -0.3304  0.3277  0.4840
 2579TIP3    H129296   2.095   3.026   7.650 -0.6170  0.8516  0.3659
 2579TIP3    H229297   2.099   2.945   7.522  0.1740 -2.0352  2.1559
 2580TIP3   OH229298   4.271   4.182   1.196 -0.0985  0.4089 -0.4575
 2580TIP3    H129299   4.238   4.213   1.112  0.0558 -0.0847 -0.7008
 2580TIP3    H229300   4.366   4.180   1.186 -0.0410  0.8641 -0.0875
 2581TIP3   OH229301   5.540   3.492   1.031  0.1159 -0.4976 -0.0433
 2581TIP3    H129302   5.490   3.549   0.973  0.5237 -1.4209 -1.3216
 2581TIP3    H229303   5.589   3.435   0.973  1.8962 -0.3057  1.1908
 2582TIP3   OH229304   1.936   3.852   2.069 -0.2411  0.4619  0.3970
 2582TIP3    H129305   1.889   3.786   2.121  1.6863  0.3641  2.1336
 2582TIP3    H229306   1.899   3.935   2.097 -1.5266  0.2599 -0.5904
 2583TIP3   OH229307   1.820   3.563   8.039  0.6260 -0.3535  0.2298
 2583TIP3    H129308   1.826   3.552   7.944 -0.8426 -0.2342  0.1036
 2583TIP3    H229309   1.731   3.595   8.054  0.6745 -0.8330  1.6934
 2584TIP3   OH229310   0.713   1.081   8.290  0.1638  0.2300  0.2799
 2584TIP3    H129311   0.653   1.135   8.341 -0.5048 -1.3078  1.1982
 2584TIP3    H229312   0.690   0.991   8.314  0.7529 -0.5041 -1.7183
 2585TIP3   OH229313   0.560   2.185   2.160 -0.0986  0.3446  0.5791
 2585TIP3    H129314   0.562   2.260   2.100 -0.2156 -0.5115 -0.5107
 2585TIP3    H229315   0.643   2.139   2.145  0.8014  1.2125  2.5411
 2586TIP3   OH229316   0.574   6.449   1.454  0.2030 -0.6267  0.4479
 2586TIP3    H129317   0.592   6.501   1.375 -2.1462 -1.2962 -0.6247
 2586TIP3    H229318   0.601   6.360   1.431 -0.5675 -0.8394  0.3553
 2587TIP3   OH229319   4.576   1.822   1.014  0.5839 -0.9671  0.0308
 2587TIP3    H129320   4.557   1.822   1.108 -1.1339  0.0463 -0.2675
 2587TIP3    H229321   4.637   1.895   1.002  0.8403 -1.1249  0.3694
 2588TIP3   OH229322   2.625   5.230   7.706 -0.2987  0.2172 -0.1543
 2588TIP3    H129323   2.622   5.138   7.676  1.1516  0.1385 -0.1167
 2588TIP3    H229324   2.699   5.233   7.766 -0.8390  1.2479  0.4752
 2589TIP3   OH229325   5.588   2.361   1.169  0.1211 -0.3286  0.0577
 2589TIP3    H129326   5.505   2.380   1.126  0.2217  1.2574  0.4958
 2589TIP3    H229327   5.610   2.442   1.215  0.9107 -1.3720  1.6102
 2590TIP3   OH229328   2.356   3.415   6.968 -0.1134  0.4172 -0.7887
 2590TIP3    H129329   2.393   3.491   6.923  0.2741  1.4386  1.1436
 2590TIP3    H229330   2.269   3.444   6.996  1.0057  1.2232  2.2787
 2591TIP3   OH229331   4.995   0.397   7.708 -0.3565 -0.1742 -0.1830
 2591TIP3    H129332   5.053   0.351   7.648  0.7269  0.1043  0.6104
 2591TIP3    H229333   5.053   0.459   7.754 -0.9543 -0.9909  1.7725
 2592TIP3   OH229334   4.039   2.072   8.713 -0.0085 -0.2654  0.6590
 2592TIP3    H129335   4.086   2.045   8.792  1.1609 -2.1925 -0.6028
 2592TIP3    H229336   4.020   2.165   8.727  3.9636  0.6177  1.4346
 2593TIP3   OH229337   0.433   6.173   2.543 -0.2404  0.1553  0.1459
 2593TIP3    H129338   0.525   6.156   2.563 -0.8626 -1.3572  1.9786
 2593TIP3    H229339   0.387   6.094   2.571 -2.0680  0.6950 -1.1494
 2594TIP3   OH229340   0.856   4.522   8.208  0.0820 -0.1542 -0.1169
 2594TIP3    H129341   0.867   4.584   8.136 -2.3657 -0.6209 -0.9977
 2594TIP3    H229342   0.848   4.437   8.164 -1.9956 -0.3869  0.5874
 2595TIP3   OH229343   3.311   2.370   8.622  0.0955  0.1141 -0.1654
 2595TIP3    H129344   3.329   2.384   8.529  0.6291  2.1215  0.1981
 2595TIP3    H229345   3.323   2.455   8.663  2.6065 -1.1977  2.2155
 2596TIP3   OH229346   5.568   6.172   1.182  0.5031 -0.0038 -0.2418
 2596TIP3    H129347   5.653   6.216   1.177  0.4887 -0.0037 -0.5072
 2596TIP3    H229348   5.522   6.217   1.253  0.6879  0.0610 -0.1621
 2597TIP3   OH229349   6.079   3.134   2.291  0.0689  0.3334  0.1628
 2597TIP3    H129350   6.060   3.099   2.378 -1.2476  0.2374 -0.1448
 2597TIP3    H229351   6.088   3.228   2.304 -0.0395  0.3097  0.4105
 2598TIP3   OH229352   4.350   4.366   2.216  0.1693  0.2510 -0.4796
 2598TIP3    H129353   4.403   4.391   2.291  0.5369 -0.2423 -0.5646
 2598TIP3    H229354   4.273   4.423   2.220  0.2385  0.3051  0.2029
 2599TIP3   OH229355   3.657   6.350   0.299  0.1133  0.1643  0.3277
 2599TIP3    H129356   3.676   6.443   0.303 -0.7427  0.3434  0.4806
 2599TIP3    H229357   3.561   6.345   0.298  0.1474 -0.7193  0.4982
 2600TIP3   OH229358   0.579   4.656   1.398  0.6145 -0.4592  0.4889
 2600TIP3    H129359   0.529   4.737   1.398 -1.9055 -1.8926  1.8328
 2600TIP3    H229360   0.654   4.674   1.455  0.4499  1.0847  0.2436
 2601TIP3   OH229361   0.025   3.442   8.350 -0.0352 -0.2912 -0.4742
 2601TIP3    H129362   0.055   3.476   8.266  1.2634 -0.6784 -0.1850
 2601TIP3    H229363  -0.036   3.509   8.382 -2.1426 -1.0824 -2.6051
 2602TIP3   OH229364   5.962   6.404   7.709 -0.1690 -0.3043  0.0453
 2602TIP3    H129365   5.936   6.337   7.772  1.0170 -2.7338 -1.8276
 2602TIP3    H229366   5.998   6.475   7.762 -1.7216 -0.9973  2.1609
 2603TIP3   OH229367   1.565   0.199   1.683 -0.2057  0.6271  0.3193
 2603TIP3    H129368   1.513   0.194   1.763 -0.5459 -2.8918  0.0240
 2603TIP3    H229369   1.654   0.177   1.710 -0.2960 -0.4529 -0.2135
 2604TIP3   OH229370   5.993   3.652   8.714 -0.1101  0.2186  0.1520
 2604TIP3    H129371   5.956   3.730   8.753 -0.2107  0.1957  0.1041
 2604TIP3    H229372   5.926   3.622   8.652  0.0318  0.2351 -0.0095
 2605TIP3   OH229373   4.350   2.719   7.033 -0.1207 -0.4103 -0.2901
 2605TIP3    H129374   4.344   2.686   6.944 -0.8972  0.9748 -0.7838
 2605TIP3    H229375   4.367   2.813   7.023 -1.5492  0.0276  0.9747
 2606TIP3   OH229376   1.720   4.921   6.669 -0.0054 -0.1837  0.0675
 2606TIP3    H129377   1.803   4.911   6.716  0.0977  0.4377  0.0170
 2606TIP3    H229378   1.656   4.938   6.738  0.0657  0.2559  0.0254
 2607TIP3   OH229379   4.241   1.038   8.600 -0.0164  0.1082  0.0145
 2607TIP3    H129380   4.308   1.013   8.536 -0.5829  0.1296 -0.5860
 2607TIP3    H229381   4.291   1.072   8.674  0.6752 -0.5416 -0.1379
 2608TIP3   OH229382   5.144   4.985   0.584 -0.2982  0.3531 -0.1418
 2608TIP3    H129383   5.203   4.919   0.620 -0.7454  0.2927  0.5121
 2608TIP3    H229384   5.068   4.934   0.555 -1.0624  0.6518  1.2469
 2609TIP3   OH229385   2.484   4.940   2.633 -0.0056 -0.2816 -0.6667
 2609TIP3    H129386   2.564   4.956   2.683 -0.5283 -0.6936  0.3433
 2609TIP3    H229387   2.491   4.997   2.557  2.0045 -1.5385 -1.4851
 2610TIP3   OH229388   1.234   6.676   0.529 -0.3713  0.6901 -0.6231
 2610TIP3    H129389   1.244   6.736   0.602  1.4346 -1.0751  0.7036
 2610TIP3    H229390   1.322   6.670   0.490 -0.7906 -0.1249 -1.4965
 2611TIP3   OH229391   1.445   5.340   8.950  0.1533  0.5111 -0.7388
 2611TIP3    H129392   1.371   5.342   8.889  1.7131  0.3757 -2.7191
 2611TIP3    H229393   1.489   5.424   8.937 -0.5151  1.2915  1.6149
 2612TIP3   OH229394   1.473   6.708   1.613  0.6220 -0.0663 -0.0295
 2612TIP3    H129395   1.559   6.667   1.601  0.0301 -1.2421 -0.4212
 2612TIP3    H229396   1.493   6.801   1.627  2.0183 -0.5059  1.1253
 2613TIP3   OH229397   1.792   3.028   0.982  0.0730  0.1865  0.5589
 2613TIP3    H129398   1.852   3.040   1.057 -0.4220  0.1944  0.9603
 2613TIP3    H229399   1.839   3.067   0.908 -0.3298  2.1874  1.2981
 2614TIP3   OH229400   4.183   0.023   1.958 -0.0435  0.0269  0.2438
 2614TIP3    H129401   4.185  -0.064   1.997 -0.5773 -0.0404  0.1300
 2614TIP3    H229402   4.232   0.015   1.876 -0.6622 -0.3309 -0.0949
 2615TIP3   OH229403   0.136   6.073   8.855 -0.8648  0.5867 -0.2244
 2615TIP3    H129404   0.133   6.024   8.773 -0.0147 -0.6890  0.4698
 2615TIP3    H229405   0.174   6.157   8.832  0.6885 -0.2669 -0.9263
 2616TIP3   OH229406   2.397   5.971   6.734  0.0240  0.5290  0.1825
 2616TIP3    H129407   2.404   6.052   6.685  1.3639  0.5743  0.3996
 2616TIP3    H229408   2.474   5.970   6.791 -1.9677  0.9937  3.1258
 2617TIP3   OH229409   3.453   1.009   0.970 -0.3169 -0.0033 -0.3379
 2617TIP3    H129410   3.427   1.070   1.038  2.2677 -0.6176  1.3154
 2617TIP3    H229411   3.469   0.927   1.016  1.2584 -0.5091 -1.6935
 2618TIP3   OH229412   5.441   0.333   8.342 -0.3754 -1.0961 -0.3329
 2618TIP3    H129413   5.446   0.428   8.336  2.8638 -1.2582 -2.8754
 2618TIP3    H229414   5.363   0.310   8.291 -1.8160  0.1272  1.1837
 2619TIP3   OH229415   1.002   5.514   0.300  0.4127 -0.3711 -0.3769
 2619TIP3    H129416   0.910   5.502   0.276  0.3644 -1.0723  0.1330
 2619TIP3    H229417   1.031   5.427   0.325  1.1440 -0.0968 -0.2617
 2620TIP3   OH229418   6.712   5.491   0.621 -0.1926  0.0129  0.2982
 2620TIP3    H129419   6.629   5.536   0.632  0.3493  1.2939 -0.5900
 2620TIP3    H229420   6.768   5.555   0.576  0.5169 -1.6455 -1.3156
 2621TIP3   OH229421   1.402   0.877   0.587  0.1250  0.9625 -0.0041
 2621TIP3    H129422   1.396   0.827   0.505  2.6635  1.0059 -0.2948
 2621TIP3    H229423   1.365   0.963   0.565 -1.0548  0.3544 -0.4993
 2622TIP3   OH229424   5.075   0.989   8.755 -0.2114  0.0880  0.1166
 2622TIP3    H129425   5.065   1.016   8.664 -0.5857  0.5213  0.2795
 2622TIP3    H229426   5.096   0.896   8.751  1.3547  0.4472 -0.4697
 2623TIP3   OH229427   4.468   1.420   7.520  0.4015  0.5070 -0.0149
 2623TIP3    H129428   4.385   1.375   7.535  1.4746 -1.8283 -0.6542
 2623TIP3    H229429   4.443   1.511   7.505 -1.6937  0.8573  3.9890
 2624TIP3   OH229430   2.946   1.923   7.242  0.2534 -0.3069 -0.1852
 2624TIP3    H129431   3.002   1.949   7.316  0.0398 -0.1699 -0.0699
 2624TIP3    H229432   2.957   1.829   7.235 -0.4361 -0.4548  0.6114
 2625TIP3   OH229433   1.317   2.845   7.075  0.3903  0.4059  0.1493
 2625TIP3    H129434   1.397   2.805   7.041  0.5451  0.0711  0.8937
 2625TIP3    H229435   1.248   2.815   7.016  0.8970  1.2580 -0.9182
 2626TIP3   OH229436   2.831   4.617   8.275  0.5149  0.0258 -0.3165
 2626TIP3    H129437   2.741   4.639   8.253  0.0561 -0.1563  1.2400
 2626TIP3    H229438   2.833   4.615   8.371  2.0521 -0.4727 -0.3196
 2627TIP3   OH229439   6.329   0.946   7.699  0.0255 -0.1337  0.2772
 2627TIP3    H129440   6.244   0.937   7.742 -0.1340  0.8781  0.2062
 2627TIP3    H229441   6.335   0.872   7.640 -1.2184  0.2794 -0.3854
 2628TIP3   OH229442   3.356   5.678   7.923  0.1027  0.2432 -0.1146
 2628TIP3    H129443   3.315   5.730   7.992  0.0907  2.1300 -1.4612
 2628TIP3    H229444   3.449   5.679   7.944 -0.1797 -1.9539  1.5862
 2629TIP3   OH229445   0.683   1.756   7.888  0.2259  0.4987  0.4119
 2629TIP3    H129446   0.768   1.763   7.843  1.8745 -3.1267  2.5302
 2629TIP3    H229447   0.702   1.777   7.979 -0.9102 -1.1357  1.0840
 2630TIP3   OH229448   2.722   0.667   7.601  0.1053 -0.2708  0.5580
 2630TIP3    H129449   2.781   0.606   7.645  1.1126  0.9435  0.9492
 2630TIP3    H229450   2.640   0.662   7.651  0.5895 -0.3800  1.3540
 2631TIP3   OH229451   1.299   4.617   3.155 -0.1114  0.3306  0.0094
 2631TIP3    H129452   1.218   4.632   3.106  1.2500  0.1850 -2.4923
 2631TIP3    H229453   1.348   4.699   3.147  0.2257  0.2460  1.0406
 2632TIP3   OH229454   0.770   2.401   8.891 -0.0574  0.1653 -0.3427
 2632TIP3    H129455   0.835   2.332   8.894 -0.6295 -0.4649 -1.5684
 2632TIP3    H229456   0.686   2.356   8.904 -0.3267  0.8509  0.4126
 2633TIP3   OH229457   6.219   1.213   0.366  0.2111 -0.4435  0.3775
 2633TIP3    H129458   6.229   1.148   0.297  1.7517  0.7886 -0.6155
 2633TIP3    H229459   6.295   1.200   0.422 -0.0206 -0.1748  0.7645
 2634TIP3   OH229460   3.401   4.934   1.708 -0.2416  0.7738  0.6259
 2634TIP3    H129461   3.377   4.852   1.751 -0.8783  1.0585  0.8332
 2634TIP3    H229462   3.491   4.921   1.679 -0.9437 -0.7529 -1.1101
 2635TIP3   OH229463   1.256   1.239   0.599  0.3898 -0.0656  0.1621
 2635TIP3    H129464   1.239   1.191   0.680  0.4785 -1.2761 -0.5032
 2635TIP3    H229465   1.169   1.260   0.565  0.3146 -0.7405 -0.0877
 2636TIP3   OH229466   1.663   0.834   0.680  0.0152 -0.3880 -0.0402
 2636TIP3    H129467   1.597   0.882   0.631  1.7825  0.9215 -1.2693
 2636TIP3    H229468   1.668   0.880   0.765  0.2935  0.4038 -0.4689
 2637TIP3   OH229469   1.014   1.942   2.556  0.5336  0.4839  0.2921
 2637TIP3    H129470   0.979   1.997   2.625  0.2548  0.6405  0.0265
 2637TIP3    H229471   1.101   1.979   2.537  1.6155 -0.9268  2.1358
 2638TIP3   OH229472   3.614   3.300   0.302 -0.3547  0.0392 -0.1878
 2638TIP3    H129473   3.566   3.348   0.369 -0.6300  0.4176 -0.6570
 2638TIP3    H229474   3.586   3.339   0.219  0.1901 -0.2454 -0.5082
 2639TIP3   OH229475   5.714   0.099   1.960  0.5041  0.4486  0.0073
 2639TIP3    H129476   5.624   0.067   1.955  0.8663 -0.9713  1.4650
 2639TIP3    H229477   5.737   0.120   1.870 -1.2858  0.9046 -0.3886
 2640TIP3   OH229478   1.856   2.977   8.043  0.1083 -0.0241 -0.0997
 2640TIP3    H129479   1.824   3.001   8.131 -0.6545  0.9588 -0.6233
 2640TIP3    H229480   1.928   3.038   8.027 -1.1044  1.2240 -0.9799
 2641TIP3   OH229481   4.040   3.465   2.195 -0.3025 -0.1930  0.1509
 2641TIP3    H129482   4.056   3.556   2.220  0.0990 -0.7440  2.0536
 2641TIP3    H229483   4.086   3.454   2.112  0.5832  1.0443  0.4515
 2642TIP3   OH229484   5.114   0.682   7.862  0.2936 -0.4426 -0.1084
 2642TIP3    H129485   5.062   0.684   7.782  0.0018 -0.4060  0.0785
 2642TIP3    H229486   5.049   0.687   7.933  0.5335 -0.7280  0.1319
 2643TIP3   OH229487   6.201   1.976   3.133 -0.3004  0.3032 -0.2121
 2643TIP3    H129488   6.262   1.953   3.204 -0.9347  0.3303  0.3517
 2643TIP3    H229489   6.175   1.892   3.095 -0.1617  0.2723 -0.2386
 2644TIP3   OH229490   2.399   5.587   1.504 -0.0208  0.2612 -0.4977
 2644TIP3    H129491   2.404   5.510   1.447  2.6095  1.8340 -2.6786
 2644TIP3    H229492   2.394   5.661   1.444  1.7909  1.9778  1.3030
 2645TIP3   OH229493   6.673   6.145   0.786  0.3212  0.2941 -0.1790
 2645TIP3    H129494   6.764   6.167   0.809 -0.0928  1.3505  0.5169
 2645TIP3    H229495   6.624   6.225   0.803 -0.9252 -0.5719  0.4739
 2646TIP3   OH229496   2.383   3.852   8.233  0.3396  0.3019 -0.0577
 2646TIP3    H129497   2.340   3.857   8.147  0.4419 -1.2252 -0.2217
 2646TIP3    H229498   2.400   3.944   8.256  1.3304  0.7175 -2.1818
 2647TIP3   OH229499   0.839   2.653   8.417  0.3957 -0.2327  0.0122
 2647TIP3    H129500   0.751   2.672   8.448  0.5395  0.7799 -0.1519
 2647TIP3    H229501   0.858   2.566   8.451 -0.0586  0.1951  1.4500
 2648TIP3   OH229502   4.360   4.685   0.860  0.4369  0.2242 -0.2262
 2648TIP3    H129503   4.329   4.720   0.943 -1.1798  1.2404 -1.1899
 2648TIP3    H229504   4.351   4.591   0.869  0.7941  0.2861  0.9302
 2649TIP3   OH229505   4.461   4.837   2.698 -0.0554  0.6990 -0.6323
 2649TIP3    H129506   4.480   4.851   2.605 -0.5812 -1.7274 -1.1879
 2649TIP3    H229507   4.537   4.788   2.731 -0.9738 -0.6675 -0.4637
 2650TIP3   OH229508   1.414   0.390   6.782  0.0378 -0.1998 -0.1012
 2650TIP3    H129509   1.334   0.441   6.791 -1.3783 -2.0500 -1.3012
 2650TIP3    H229510   1.394   0.306   6.824  0.9953 -1.0238 -1.2019
 2651TIP3   OH229511   0.822   5.635   1.564  0.7844  0.0020 -0.4968
 2651TIP3    H129512   0.884   5.703   1.540  1.0414 -0.1924 -0.3831
 2651TIP3    H229513   0.858   5.596   1.644  0.0182  0.5506  0.1342
 2652TIP3   OH229514   0.407   0.549   7.428 -0.0304  0.4881  0.0076
 2652TIP3    H129515   0.398   0.579   7.338 -2.3405 -0.4159 -0.1206
 2652TIP3    H229516   0.438   0.626   7.476  2.0161  0.7786 -1.6262
 2653TIP3   OH229517   0.923   5.093   1.254  0.3442  0.2788  0.4688
 2653TIP3    H129518   0.901   5.084   1.161 -0.6363  1.3914  0.5583
 2653TIP3    H229519   0.841   5.074   1.299  0.6615  0.3258  1.0730
 2654TIP3   OH229520   5.984   0.958   8.730 -0.0416  0.1129  0.2552
 2654TIP3    H129521   6.001   1.048   8.759  1.1195 -0.1924  0.5883
 2654TIP3    H229522   6.003   0.904   8.807  0.2971 -0.4889 -0.2372
 2655TIP3   OH229523   3.414   2.645   0.332  0.3314 -0.8224  0.1578
 2655TIP3    H129524   3.345   2.639   0.266  0.0369 -0.9103  0.4737
 2655TIP3    H229525   3.370   2.632   0.415  0.5870  0.0256  0.4361
 2656TIP3   OH229526   4.516   4.971   2.087  0.3265  0.1050  0.5257
 2656TIP3    H129527   4.421   4.970   2.099  0.1937 -0.7549 -0.4376
 2656TIP3    H229528   4.548   4.900   2.144  0.2789 -0.2356  0.1374
 2657TIP3   OH229529   0.240   6.275   1.409 -1.1718 -0.0143 -0.2621
 2657TIP3    H129530   0.284   6.214   1.467  0.0172 -0.9833 -2.0905
 2657TIP3    H229531   0.292   6.355   1.415 -0.6991 -0.3049 -0.4331
 2658TIP3   OH229532   3.040   5.343   7.792  0.1130  0.1739 -0.0328
 2658TIP3    H129533   2.949   5.340   7.764 -0.2506  2.2027  0.7539
 2658TIP3    H229534   3.054   5.260   7.838 -2.0671  0.7806  1.8817
 2659TIP3   OH229535   6.285   3.835   8.295 -0.2882 -0.5544 -0.1146
 2659TIP3    H129536   6.299   3.920   8.338  1.2156 -0.5636 -0.5179
 2659TIP3    H229537   6.208   3.798   8.339 -2.1069  1.7638 -1.1222
 2660TIP3   OH229538   6.434   2.621   0.888 -0.0965 -0.1506  0.1308
 2660TIP3    H129539   6.469   2.544   0.932 -2.8484 -1.1110  0.8556
 2660TIP3    H229540   6.454   2.694   0.947  2.0345 -0.3150 -0.2975
 2661TIP3   OH229541   6.442   2.574   1.426 -0.1902  0.5393 -0.2444
 2661TIP3    H129542   6.370   2.569   1.363 -0.1026  0.6017 -0.3505
 2661TIP3    H229543   6.408   2.532   1.505 -0.0640 -0.1628 -0.5537
 2662TIP3   OH229544   0.326   4.233   2.150 -0.4742 -0.1798 -0.1180
 2662TIP3    H129545   0.239   4.192   2.155 -0.5319 -0.2412 -1.4187
 2662TIP3    H229546   0.372   4.198   2.226 -1.2688 -0.9128  0.0490
 2663TIP3   OH229547   3.546   0.286   2.118  0.4254  0.1075 -0.0734
 2663TIP3    H129548   3.599   0.262   2.042 -0.4713  0.0369 -0.6923
 2663TIP3    H229549   3.594   0.358   2.159  1.8531 -1.0390  0.3558
 2664TIP3   OH229550   1.455   6.475   7.620  0.0528 -0.1037 -0.5227
 2664TIP3    H129551   1.496   6.560   7.629  2.0100 -1.0896  0.6433
 2664TIP3    H229552   1.463   6.452   7.528  1.8695 -0.1065 -0.3856
 2665TIP3   OH229553   3.653   5.697   8.033  0.8044  0.0332  0.0855
 2665TIP3    H129554   3.650   5.642   8.112 -1.6408 -1.0446 -0.6788
 2665TIP3    H229555   3.742   5.685   8.000  1.5537 -0.3354  2.0803
 2666TIP3   OH229556   1.595   3.239   1.139  0.0834  0.3135 -0.1401
 2666TIP3    H129557   1.654   3.193   1.079  0.3240  0.5198 -0.0595
 2666TIP3    H229558   1.560   3.312   1.088  1.1045  1.1165  0.2972
 2667TIP3   OH229559   1.469   2.283   8.472 -0.3647 -0.3644 -0.6820
 2667TIP3    H129560   1.525   2.302   8.397  0.4993  0.5998  0.1804
 2667TIP3    H229561   1.509   2.208   8.515  0.6407  0.6785  0.2634
 2668TIP3   OH229562   4.879   6.586   7.436 -0.6044 -0.0216 -0.6647
 2668TIP3    H129563   4.885   6.566   7.530 -0.1246  1.0114 -0.4651
 2668TIP3    H229564   4.951   6.536   7.397 -0.1414  0.3760 -0.3327
 2669TIP3   OH229565   4.654   6.604   8.756 -0.4064  0.0546 -0.0846
 2669TIP3    H129566   4.731   6.628   8.808 -0.4560  1.5492 -0.6408
 2669TIP3    H229567   4.628   6.518   8.789  1.6959 -0.6318 -0.1265
 2670TIP3   OH229568   6.671   3.404   0.930 -0.1772  0.1269  0.2826
 2670TIP3    H129569   6.600   3.352   0.966 -1.0720  0.4454 -0.9563
 2670TIP3    H229570   6.714   3.347   0.866 -0.3854  0.4699 -0.1763
 2671TIP3   OH229571   5.422   6.304   7.841 -0.0725 -0.0339  0.2228
 2671TIP3    H129572   5.426   6.387   7.888 -0.0562 -0.4856  1.0397
 2671TIP3    H229573   5.413   6.329   7.749 -1.0966  0.8749  0.5436
 2672TIP3   OH229574   4.992   2.495   2.308  0.0278  0.2102 -0.1200
 2672TIP3    H129575   4.906   2.534   2.295  0.0608  0.4079  0.2688
 2672TIP3    H229576   5.017   2.518   2.397  0.3130 -0.1797 -0.0925
 2673TIP3   OH229577   2.013   0.348   8.410 -0.1016 -0.5484  0.3236
 2673TIP3    H129578   2.099   0.389   8.396 -0.3737  0.0364  0.2987
 2673TIP3    H229579   2.009   0.329   8.503 -1.2331  2.5190  1.0257
 2674TIP3   OH229580   5.575   0.944   0.769 -0.1033  0.1206  0.0510
 2674TIP3    H129581   5.569   0.967   0.862 -3.3852  1.4278 -0.3419
 2674TIP3    H229582   5.595   0.850   0.769  1.5944  0.4059  1.9833
 2675TIP3   OH229583   2.771   1.740   7.421 -0.3458  0.4163  0.7118
 2675TIP3    H129584   2.750   1.800   7.492  0.1943  1.5115 -0.0298
 2675TIP3    H229585   2.686   1.721   7.380 -0.7088 -0.5171  1.8511
 2676TIP3   OH229586   3.383   1.735   7.699 -0.0471  0.0708  0.3548
 2676TIP3    H129587   3.400   1.787   7.777 -0.3011  0.4715  0.1519
 2676TIP3    H229588   3.309   1.680   7.722 -0.1574  0.2291  0.3817
 2677TIP3   OH229589   3.345   2.035   8.482 -0.2506 -0.1305 -0.0181
 2677TIP3    H129590   3.432   2.074   8.490 -0.5702  0.8757 -1.2782
 2677TIP3    H229591   3.296   2.071   8.556 -0.3302  1.2943 -0.7452
 2678TIP3   OH229592   6.304   1.381   8.846  0.6841  0.0304  0.5520
 2678TIP3    H129593   6.400   1.373   8.846  0.7205  0.3876 -0.0269
 2678TIP3    H229594   6.288   1.467   8.883  0.5298 -0.4979  1.7384
 2679TIP3   OH229595   5.852   3.458   0.504 -0.4202 -0.2492  0.1033
 2679TIP3    H129596   5.942   3.424   0.495 -0.1900  0.6861 -1.4499
 2679TIP3    H229597   5.805   3.421   0.429 -0.7742  0.9226 -0.2761
 2680TIP3   OH229598   3.092   1.879   1.703 -0.2649 -0.0797  0.6610
 2680TIP3    H129599   3.062   1.858   1.614  2.4396 -2.0006  0.1009
 2680TIP3    H229600   3.113   1.973   1.699  0.0990 -0.1967 -0.8059
 2681TIP3   OH229601   4.667   3.820   0.352  0.3581  0.2212 -0.3308
 2681TIP3    H129602   4.717   3.901   0.356 -0.2344  0.5371  0.9483
 2681TIP3    H229603   4.733   3.751   0.344  0.8637  0.8033 -1.3892
 2682TIP3   OH229604   1.150   1.049   0.296  0.1456 -0.2215 -0.1094
 2682TIP3    H129605   1.167   0.964   0.254  0.6816 -0.4433  0.5429
 2682TIP3    H229606   1.218   1.057   0.363  0.3185  0.8880 -0.3989
 2683TIP3   OH229607   0.581   4.114   8.255  0.0644  0.3032 -0.2749
 2683TIP3    H129608   0.516   4.184   8.266 -0.7970 -0.5644  0.3901
 2683TIP3    H229609   0.603   4.117   8.161  0.3669  1.7107 -0.1860
 2684TIP3   OH229610   0.357   5.449   2.630  0.2001 -0.0883  0.0175
 2684TIP3    H129611   0.405   5.529   2.650  2.3534 -1.1011 -0.8519
 2684TIP3    H229612   0.270   5.479   2.603  0.3541  1.8169  1.4575
 2685TIP3   OH229613   0.405   2.713   1.071  0.4440 -0.5174 -0.1472
 2685TIP3    H129614   0.357   2.706   1.153 -0.2839 -1.0576 -0.6089
 2685TIP3    H229615   0.455   2.632   1.065 -1.0823 -1.4308 -1.1962
 2686TIP3   OH229616   2.244   2.849   1.075  0.2410  0.0413  1.0007
 2686TIP3    H129617   2.323   2.880   1.031  0.8767 -2.5073  0.1597
 2686TIP3    H229618   2.217   2.922   1.131  2.9910  1.1063  1.0851
 2687TIP3   OH229619   4.676   6.598   1.488  0.5272 -0.1629  0.3509
 2687TIP3    H129620   4.760   6.643   1.482 -0.5399  1.8736 -0.2154
 2687TIP3    H229621   4.686   6.522   1.432  1.4856  0.9375 -1.0480
 2688TIP3   OH229622   3.908   4.680   3.028 -0.4264  0.1383  0.5603
 2688TIP3    H129623   3.994   4.638   3.024 -1.3148 -1.8815  1.4155
 2688TIP3    H229624   3.846   4.607   3.032 -2.0505  1.5293  2.4130
 2689TIP3   OH229625   1.909   5.455   0.667 -0.1065  0.3625  0.2171
 2689TIP3    H129626   1.926   5.542   0.703  1.1398  0.3423 -0.2706
 2689TIP3    H229627   1.814   5.450   0.661 -0.1871  2.5950 -1.8674
 2690TIP3   OH229628   3.126   2.814   7.817 -0.3784 -0.2421 -0.3406
 2690TIP3    H129629   3.086   2.810   7.731  0.4844  1.7242 -0.8967
 2690TIP3    H229630   3.054   2.803   7.878 -1.3427  0.4412 -1.3201
 2691TIP3   OH229631   5.567   5.097   6.928 -0.2656  0.1190 -0.3264
 2691TIP3    H129632   5.504   5.076   6.858  0.7082 -1.1430 -0.8609
 2691TIP3    H229633   5.624   5.021   6.932  0.1404  0.4795  1.3854
 2692TIP3   OH229634   0.949   2.503   2.369  0.8123  0.4682  0.3041
 2692TIP3    H129635   0.999   2.542   2.440  1.3928 -0.4880  0.4328
 2692TIP3    H229636   0.903   2.430   2.409  0.2214  0.6252 -0.0684
 2693TIP3   OH229637   1.537   4.985   6.873  0.5286 -0.5015  0.3588
 2693TIP3    H129638   1.451   4.944   6.883 -0.1451  0.8835  0.5043
 2693TIP3    H229639   1.574   4.985   6.961  0.8837 -1.4972  0.2213
 2694TIP3   OH229640   1.759   0.433   7.671  0.6366 -0.2225 -0.1418
 2694TIP3    H129641   1.724   0.353   7.631  1.6703 -1.1745  0.7724
 2694TIP3    H229642   1.789   0.405   7.757 -0.2126  1.4622  0.7487
 2695TIP3   OH229643   1.381   6.375   8.487  0.5712 -0.7451  0.3362
 2695TIP3    H129644   1.348   6.326   8.563  0.2682  1.7214  1.9248
 2695TIP3    H229645   1.433   6.446   8.525 -1.4218  1.9704 -1.5517
 2696TIP3   OH229646   6.645   2.387   2.107  0.4872  0.1220  0.1612
 2696TIP3    H129647   6.729   2.433   2.103 -0.3247  1.5930 -0.5016
 2696TIP3    H229648   6.631   2.373   2.201  1.9172 -1.0372  0.2418
 2697TIP3   OH229649   2.129   3.285   8.708 -0.0025  0.0937  0.1903
 2697TIP3    H129650   2.142   3.255   8.618  0.0829  0.4792  0.0722
 2697TIP3    H229651   2.046   3.245   8.735 -0.5132  0.7342 -0.3913
 2698TIP3   OH229652   3.728   4.327   6.896  0.1086  0.6723  0.3018
 2698TIP3    H129653   3.778   4.355   6.819 -1.8297  0.4899 -1.0848
 2698TIP3    H229654   3.738   4.232   6.897 -1.9996  0.3570 -1.3783
 2699TIP3   OH229655   4.180   3.462   1.904  0.4767  0.1511  0.4990
 2699TIP3    H129656   4.179   3.456   1.808  0.1623  0.3476  0.4882
 2699TIP3    H229657   4.251   3.523   1.923  0.0685  0.6736  0.3553
 2700TIP3   OH229658   1.129   4.568   1.844 -0.5087 -0.2715  0.5967
 2700TIP3    H129659   1.076   4.624   1.901 -1.9369 -1.1720  0.1889
 2700TIP3    H229660   1.183   4.517   1.904  1.4877  2.0668  0.9819
 2701TIP3   OH229661   2.660   5.022   2.224  0.0334  0.0290  0.3799
 2701TIP3    H129662   2.679   4.947   2.168 -0.7566  0.1168 -0.0306
 2701TIP3    H229663   2.725   5.018   2.293 -1.5668 -2.5618  1.8973
 2702TIP3   OH229664   4.110   6.380   1.771  0.3279 -0.0622 -0.2800
 2702TIP3    H129665   4.125   6.289   1.746 -0.8052 -0.7660  1.4558
 2702TIP3    H229666   4.024   6.380   1.813  0.5830  1.6935  0.3221
 2703TIP3   OH229667   3.598   4.057   0.276 -0.4455  0.4317 -0.0320
 2703TIP3    H129668   3.513   4.052   0.320 -0.7713  0.9617 -0.5878
 2703TIP3    H229669   3.660   4.079   0.345 -0.6586 -0.5145  0.4843
 2704TIP3   OH229670   2.449   2.821   7.919 -0.1167  0.3773 -0.2053
 2704TIP3    H129671   2.516   2.889   7.912  0.0227  0.1918 -0.6875
 2704TIP3    H229672   2.482   2.763   7.989  0.8490 -0.3863 -1.2433
 2705TIP3   OH229673   2.778   3.858   0.750 -0.3478 -0.7243 -0.1961
 2705TIP3    H129674   2.706   3.797   0.765  0.8322 -1.9363  0.7840
 2705TIP3    H229675   2.790   3.858   0.655 -1.5147 -0.6271 -0.3569
 2706TIP3   OH229676   5.576   2.491   2.875 -0.4418 -0.2566  0.4304
 2706TIP3    H129677   5.639   2.420   2.866 -0.8080 -0.3171 -2.7926
 2706TIP3    H229678   5.564   2.524   2.786 -3.4647  1.0678  1.2001
 2707TIP3   OH229679   3.366   6.683   7.543 -0.1037  0.0065  0.0428
 2707TIP3    H129680   3.399   6.726   7.622 -2.5178  0.7015  0.7713
 2707TIP3    H229681   3.308   6.615   7.576  1.0525 -1.6376 -1.1592
 2708TIP3   OH229682   1.893   2.485   8.923 -0.1222 -0.1706  0.3230
 2708TIP3    H129683   1.928   2.461   8.837 -0.4876  0.2536  0.0542
 2708TIP3    H229684   1.820   2.544   8.904  0.1000  0.3149  0.9376
 2709TIP3   OH229685   1.204   2.584   8.028 -0.2671  0.1435 -0.2977
 2709TIP3    H129686   1.245   2.668   8.049 -0.4625 -0.0767  1.0351
 2709TIP3    H229687   1.126   2.580   8.083 -0.4955 -0.7264 -0.6610
 2710TIP3   OH229688   4.407   0.505   8.669  0.0994  0.4565 -0.2481
 2710TIP3    H129689   4.366   0.592   8.676  0.1839  0.4180  0.9389
 2710TIP3    H229690   4.337   0.444   8.693  0.6821  0.3610  1.3323
 2711TIP3   OH229691   3.383   2.437   2.102  0.1138  0.1457  0.1819
 2711TIP3    H129692   3.403   2.420   2.193  0.1097  2.0541  0.5971
 2711TIP3    H229693   3.290   2.461   2.101 -0.3504 -1.5089 -0.6168
 2712TIP3   OH229694   1.507   3.788   0.111  0.1271  0.0461 -0.1117
 2712TIP3    H129695   1.516   3.735   0.032 -0.1565  0.4075 -0.3927
 2712TIP3    H229696   1.481   3.875   0.079 -1.3795 -0.1622  0.4630
 2713TIP3   OH229697   4.572   4.547   7.264  0.1821  0.5682  0.1140
 2713TIP3    H129698   4.640   4.573   7.201 -0.7231  0.9608 -0.7154
 2713TIP3    H229699   4.513   4.622   7.268 -1.1307 -0.4038 -0.4682
 2714TIP3   OH229700   3.528   4.854   8.899  0.9350  0.2819  0.0742
 2714TIP3    H129701   3.546   4.877   8.991 -1.0305  0.9011  0.3521
 2714TIP3    H229702   3.594   4.789   8.878  1.8499  0.6049  1.7266
 2715TIP3   OH229703   3.068   1.901   7.504  0.0240 -0.3333  0.1385
 2715TIP3    H129704   3.139   1.958   7.532  0.7150 -0.4054 -1.3774
 2715TIP3    H229705   3.002   1.908   7.574  0.8453  0.9250  0.8182
 2716TIP3   OH229706   1.608   1.563   8.851 -0.7311 -0.1262 -0.1456
 2716TIP3    H129707   1.516   1.577   8.829 -0.2816  1.9049 -0.9593
 2716TIP3    H229708   1.656   1.608   8.782  0.8865 -0.6873  0.5593
 2717TIP3   OH229709   2.335   2.844   1.915 -0.7261 -0.1022  0.0703
 2717TIP3    H129710   2.295   2.799   1.841  0.8089  0.3156 -1.0542
 2717TIP3    H229711   2.429   2.839   1.898 -0.3196 -0.1578  2.0936
 2718TIP3   OH229712   5.074   2.087   8.034  0.4384  0.3656 -0.9388
 2718TIP3    H129713   5.055   2.041   8.116 -0.2386  0.8940 -0.7856
 2718TIP3    H229714   5.121   2.166   8.061 -0.5322  0.9692 -0.9669
 2719TIP3   OH229715   4.460   3.631   1.687 -0.6334 -0.1997  0.1301
 2719TIP3    H129716   4.515   3.672   1.620 -0.9736 -1.4092 -0.9190
 2719TIP3    H229717   4.522   3.589   1.746 -0.3145  1.1715  0.8215
 2720TIP3   OH229718   3.060   5.429   7.070 -0.1554  0.3640 -0.0544
 2720TIP3    H129719   2.994   5.429   7.139  1.2834  0.7754  1.3820
 2720TIP3    H229720   3.015   5.392   6.994 -2.2935  1.5042  0.5863
 2721TIP3   OH229721   6.023   2.415   0.812 -0.0850  0.5223 -0.7488
 2721TIP3    H129722   6.065   2.501   0.812  0.6602  0.2090  1.1286
 2721TIP3    H229723   5.929   2.435   0.812  0.0689  1.4044  0.7891
 2722TIP3   OH229724   0.244   3.433   8.499  0.1814  0.1101  0.1096
 2722TIP3    H129725   0.259   3.517   8.541 -0.7031  0.5925 -0.5230
 2722TIP3    H229726   0.153   3.435   8.470  0.4560 -0.6298 -0.8697
 2723TIP3   OH229727   2.153   6.028   1.234 -0.4933  0.3741  0.1966
 2723TIP3    H129728   2.117   6.116   1.239 -0.3448  0.4349  0.1926
 2723TIP3    H229729   2.248   6.040   1.234 -0.4706  0.2414 -0.2193
 2724TIP3   OH229730   3.346   2.322   7.670 -0.1967 -0.6175  0.2179
 2724TIP3    H129731   3.422   2.380   7.665 -0.1180 -0.5645  1.6364
 2724TIP3    H229732   3.307   2.341   7.754 -0.5620 -2.1528  0.4292
 2725TIP3   OH229733   5.118   6.665   0.918  0.7653  0.1087 -0.0169
 2725TIP3    H129734   5.192   6.717   0.886 -0.5930  2.3969  0.3904
 2725TIP3    H229735   5.061   6.728   0.962 -0.2138 -1.9981  1.9442
 2726TIP3   OH229736   1.367   4.260   1.479  0.0038  0.1143 -0.2316
 2726TIP3    H129737   1.307   4.318   1.433 -2.0370 -1.7810 -0.1704
 2726TIP3    H229738   1.423   4.224   1.411  0.5389  1.2648 -0.4201
 2727TIP3   OH229739   1.169   2.588   0.813 -0.1075 -0.3864  0.0662
 2727TIP3    H129740   1.112   2.519   0.781  1.1143 -1.2225 -0.3740
 2727TIP3    H229741   1.254   2.570   0.774  0.6539  0.4134  1.2571
 2728TIP3   OH229742   1.616   1.167   2.499 -0.0055 -0.2561  0.0963
 2728TIP3    H129743   1.656   1.211   2.574  4.6401 -1.7979 -1.1335
 2728TIP3    H229744   1.610   1.235   2.432  2.1823 -0.2406 -0.1438
 2729TIP3   OH229745   5.026   0.513   2.006 -0.3627 -0.1849  0.1194
 2729TIP3    H129746   5.088   0.548   1.942 -0.3102 -2.2269 -1.0570
 2729TIP3    H229747   5.013   0.584   2.069  0.7976  1.3631 -1.2879
 2730TIP3   OH229748   5.344   1.585   1.975  0.2790  0.1953  0.4774
 2730TIP3    H129749   5.288   1.662   1.963  3.5236  3.1306  2.1713
 2730TIP3    H229750   5.339   1.566   2.068  2.2899  0.8094  0.7551
 2731TIP3   OH229751   1.528   5.845   7.711  0.1018  0.4746  0.5875
 2731TIP3    H129752   1.460   5.900   7.750  0.6847  0.7918  1.1766
 2731TIP3    H229753   1.490   5.816   7.628 -1.8203 -1.5578  2.0714
 2732TIP3   OH229754   0.561   0.148   2.537  0.0381  0.5216  0.4467
 2732TIP3    H129755   0.485   0.157   2.594 -1.6131  0.5755 -1.6649
 2732TIP3    H229756   0.635   0.173   2.593 -1.5891  1.6336  2.2475
 2733TIP3   OH229757   4.022   1.863   0.283 -0.1345 -0.4451 -0.1301
 2733TIP3    H129758   3.983   1.848   0.197 -1.8379 -0.0331  0.5365
 2733TIP3    H229759   4.046   1.775   0.313  0.1147 -0.6332 -0.8510
 2734TIP3   OH229760   4.117   3.799   8.310 -0.3996  0.0434 -0.1389
 2734TIP3    H129761   4.094   3.726   8.368  0.1897 -0.7116 -0.8370
 2734TIP3    H229762   4.034   3.826   8.271 -0.3288 -1.9637 -1.8292
 2735TIP3   OH229763   2.702   3.579   1.293  0.4372 -0.0063 -0.3564
 2735TIP3    H129764   2.732   3.592   1.203  1.2811  0.1426 -0.0611
 2735TIP3    H229765   2.721   3.662   1.337  0.6697 -0.3107  0.1264
 2736TIP3   OH229766   3.103   1.250   1.895  0.2104 -0.7536  0.8474
 2736TIP3    H129767   3.091   1.217   1.806 -1.4593  0.0426  0.7555
 2736TIP3    H229768   3.082   1.343   1.890  0.0596 -0.7072  2.0789
 2737TIP3   OH229769   0.408   3.890   7.996 -0.5840 -0.0556  0.3327
 2737TIP3    H129770   0.431   3.838   7.919 -2.6161 -0.9587  0.2712
 2737TIP3    H229771   0.480   3.953   8.005 -0.0338 -0.2660 -1.9765
 2738TIP3   OH229772   5.097   2.463   0.465  0.3087 -0.0206  0.2072
 2738TIP3    H129773   5.098   2.410   0.385 -1.6798 -1.1414  0.8519
 2738TIP3    H229774   5.066   2.549   0.437  0.7865 -0.0426 -0.4021
 2739TIP3   OH229775   5.720   6.013   2.430 -0.4425  0.1832 -0.1613
 2739TIP3    H129776   5.656   6.032   2.362  2.2342  2.2391 -2.3655
 2739TIP3    H229777   5.736   6.098   2.472  2.6230  0.4038 -1.5113
 2740TIP3   OH229778   2.804   5.227   7.923 -0.1418 -0.4765 -0.4401
 2740TIP3    H129779   2.817   5.289   7.994 -1.4097 -0.4893 -0.1684
 2740TIP3    H229780   2.883   5.173   7.923  2.1098  2.5238 -2.1703
 2741TIP3   OH229781   6.120   5.104   1.173  0.4669  0.3418 -1.1169
 2741TIP3    H129782   6.090   5.194   1.179 -1.2865 -0.2254 -0.9767
 2741TIP3    H229783   6.199   5.102   1.227 -0.3054  1.4610  0.1105
 2742TIP3   OH229784   2.780   2.913   1.962 -0.3065  0.4846 -0.6193
 2742TIP3    H129785   2.834   2.961   2.025 -0.1738  0.5613 -0.7914
 2742TIP3    H229786   2.694   2.908   2.003 -0.1677  0.3568 -0.3392
 2743TIP3   OH229787   6.232   1.873   2.017  0.3677 -0.7118 -0.1053
 2743TIP3    H129788   6.321   1.888   2.049  0.4304  0.2588 -0.6862
 2743TIP3    H229789   6.230   1.915   1.931 -1.1039  0.7422  0.5716
 2744TIP3   OH229790   1.058   3.268   8.453  0.2079 -0.0981  0.7725
 2744TIP3    H129791   0.977   3.290   8.407  0.6715  0.4140  0.1856
 2744TIP3    H229792   1.128   3.292   8.392  0.8332  0.2944  1.6176
 2745TIP3   OH229793   0.639   5.653   7.688  0.0796  0.5060  0.4058
 2745TIP3    H129794   0.609   5.673   7.599 -0.7235  0.7837  0.7271
 2745TIP3    H229795   0.722   5.700   7.696  1.9128 -2.1659 -1.3080
 2746TIP3   OH229796   6.681   2.409   1.602  0.8375 -0.0010  0.5597
 2746TIP3    H129797   6.675   2.462   1.523  2.3977  1.5341  1.4260
 2746TIP3    H229798   6.590   2.403   1.633  0.4176  0.7466 -0.4591
 2747TIP3   OH229799   5.202   0.623   0.834  0.0055  0.4322  0.5599
 2747TIP3    H129800   5.222   0.534   0.864  0.0827  0.1283 -0.3691
 2747TIP3    H229801   5.179   0.613   0.742  2.6419  1.6738 -0.3378
 2748TIP3   OH229802   0.365   4.255   1.883 -0.6819  0.9220  0.2459
 2748TIP3    H129803   0.347   4.245   1.977 -0.6077 -2.4675  0.0413
 2748TIP3    H229804   0.443   4.201   1.868 -1.5931  0.1070 -1.9661
 2749TIP3   OH229805   2.849   5.822   7.882 -0.5278 -0.3415 -0.0574
 2749TIP3    H129806   2.917   5.867   7.832  1.5208 -1.5508  1.4616
 2749TIP3    H229807   2.780   5.887   7.892  0.7981  1.2839 -0.8740
 2750TIP3   OH229808   0.398   1.145   2.163 -0.0453 -0.2256 -0.0354
 2750TIP3    H129809   0.486   1.171   2.191  0.0517  0.0254 -0.5596
 2750TIP3    H229810   0.385   1.059   2.202  0.0545  0.1487  0.8392
 2751TIP3   OH229811   3.817   5.732   0.504 -0.4898 -0.3584  0.8356
 2751TIP3    H129812   3.896   5.786   0.508  0.1229 -1.2941  2.0819
 2751TIP3    H229813   3.752   5.781   0.555 -0.5410  0.1115  0.3324
 2752TIP3   OH229814   1.559   1.275   1.599 -0.0744 -0.2844  0.2250
 2752TIP3    H129815   1.491   1.249   1.536 -0.9294 -1.1690  1.4645
 2752TIP3    H229816   1.562   1.370   1.594 -0.5302 -0.3057 -0.7264
 2753TIP3   OH229817   1.671   5.056   1.286 -0.0710 -0.2196 -0.2507
 2753TIP3    H129818   1.746   4.996   1.281  0.2169  0.1317 -0.1684
 2753TIP3    H229819   1.660   5.073   1.379 -1.9694 -2.4020  0.0130
 2754TIP3   OH229820   0.872   3.034   0.258 -0.4969  0.2899  1.2744
 2754TIP3    H129821   0.880   3.009   0.350 -0.5004  0.1992  1.2508
 2754TIP3    H229822   0.800   3.097   0.256  0.1003  0.9884  1.4661
 2755TIP3   OH229823   0.755   0.140   2.728 -0.1164 -0.1807  0.4769
 2755TIP3    H129824   0.764   0.193   2.807 -0.9205  0.3875  0.2034
 2755TIP3    H229825   0.719   0.056   2.759 -0.2908 -0.0128  0.7357
 2756TIP3   OH229826   4.707   1.382   0.868 -0.1235  0.0888  0.5473
 2756TIP3    H129827   4.631   1.348   0.821 -1.0839 -0.3390  2.3472
 2756TIP3    H229828   4.710   1.475   0.844 -0.7209 -0.0718 -0.1783
 2757TIP3   OH229829   6.589   1.356   8.711  0.2124  0.5172  0.3286
 2757TIP3    H129830   6.648   1.323   8.644  2.0079  1.3846  1.4174
 2757TIP3    H229831   6.615   1.310   8.791 -2.1617 -0.8173  0.4514
 2758TIP3   OH229832   5.393   5.645   1.267 -0.2295  0.1103  0.3494
 2758TIP3    H129833   5.485   5.658   1.247  0.1438 -0.0981  1.8208
 2758TIP3    H229834   5.354   5.616   1.184  0.6894  1.7218 -0.6904
 2759TIP3   OH229835   5.581   1.784   6.410  0.0119  0.0552 -0.2786
 2759TIP3    H129836   5.584   1.719   6.480  1.2418 -0.3070 -0.6410
 2759TIP3    H229837   5.493   1.821   6.415 -0.7620 -1.7240 -0.1573
 2760TIP3   OH229838   0.882   2.329   7.619  0.4777 -0.1698  0.6197
 2760TIP3    H129839   0.970   2.340   7.583  0.1043 -0.3676 -0.3843
 2760TIP3    H229840   0.871   2.403   7.679 -0.1907  2.3112 -2.3426
 2761TIP3   OH229841   0.114   2.515   2.133  0.1973  0.4438  0.5446
 2761TIP3    H129842   0.165   2.528   2.213  1.0695  1.6818 -0.1823
 2761TIP3    H229843   0.093   2.603   2.102 -1.8662 -0.0107  0.4523
 2762TIP3   OH229844   6.093   6.694   8.493  0.3456 -0.1163 -0.1449
 2762TIP3    H129845   6.004   6.723   8.473  0.0272 -1.2104 -0.3882
 2762TIP3    H229846   6.082   6.630   8.563  0.8654 -0.8110 -0.6850
 2763TIP3   OH229847   1.562   0.402   2.417 -0.2653 -0.3464 -0.8536
 2763TIP3    H129848   1.596   0.388   2.505 -0.8333  0.0333 -0.5667
 2763TIP3    H229849   1.578   0.320   2.371 -0.0220 -0.5658 -0.3816
 2764TIP3   OH229850   2.757   5.862   1.264  0.1155 -0.5081  0.4217
 2764TIP3    H129851   2.824   5.926   1.289 -2.0831  2.5016 -0.7553
 2764TIP3    H229852   2.800   5.806   1.200  1.7436  0.8301  0.2674
 2765TIP3   OH229853   2.142   3.992   8.912  0.0316 -0.7915  0.0438
 2765TIP3    H129854   2.075   4.051   8.948  2.4889  2.2946 -0.0128
 2765TIP3    H229855   2.133   4.002   8.817  1.5943  1.1056  0.0234
 2766TIP3   OH229856   2.161   5.956   0.826 -0.0773  0.1325  0.4396
 2766TIP3    H129857   2.152   6.047   0.851 -0.4664 -0.0180  0.8595
 2766TIP3    H229858   2.248   5.950   0.786  0.3317  0.4982  1.2561
 2767TIP3   OH229859   2.679   6.353   2.523 -0.5596 -0.0304 -0.4663
 2767TIP3    H129860   2.583   6.350   2.524 -0.6343  1.3608 -0.9448
 2767TIP3    H229861   2.700   6.430   2.469  0.8285 -0.3726 -0.4569
 2768TIP3   OH229862   3.953   6.660   1.661  0.0785  0.4543  0.5260
 2768TIP3    H129863   4.041   6.657   1.698 -0.0928  0.2656  0.9255
 2768TIP3    H229864   3.947   6.580   1.608 -0.1358  0.0395  1.1617
 2769TIP3   OH229865   6.458   0.000   8.049 -0.5348  0.1965  0.4229
 2769TIP3    H129866   6.476  -0.090   8.076 -1.6030  0.0750  0.7773
 2769TIP3    H229867   6.503   0.054   8.115 -2.2324 -0.1018  1.9036
 2770TIP3   OH229868   1.899   4.087   2.243 -0.0928  0.3384 -0.5536
 2770TIP3    H129869   1.986   4.121   2.219  0.5406 -1.3163 -0.7105
 2770TIP3    H229870   1.839   4.156   2.214  1.0817  1.0640 -1.4062
 2771TIP3   OH229871   5.695   5.961   8.262  1.1472  0.1737 -0.3869
 2771TIP3    H129872   5.703   6.012   8.181 -1.2264 -0.1682 -0.9136
 2771TIP3    H229873   5.640   6.016   8.319  1.0025 -0.5388  0.1749
 2772TIP3   OH229874   3.526   4.092   8.561  0.6813 -0.0960 -0.2970
 2772TIP3    H129875   3.509   4.091   8.467 -1.0824 -1.5415 -0.0193
 2772TIP3    H229876   3.480   4.171   8.592  2.2685  1.0572 -0.7592
 2773TIP3   OH229877   4.147   3.902   0.593 -0.0986 -0.4108  0.4299
 2773TIP3    H129878   4.072   3.844   0.579 -0.6095 -0.3933  2.7146
 2773TIP3    H229879   4.222   3.853   0.559 -0.8783 -1.2317 -0.1646
 2774TIP3   OH229880   0.379   3.201   0.723 -0.6310  0.1830 -0.3021
 2774TIP3    H129881   0.434   3.123   0.718 -0.3282  0.2803  1.1119
 2774TIP3    H229882   0.341   3.198   0.811  0.2665  2.1881  0.2120
 2775TIP3   OH229883   6.714   3.087   2.236 -0.9323  0.8368 -0.1228
 2775TIP3    H129884   6.750   3.014   2.286 -0.8529  1.5632  0.9015
 2775TIP3    H229885   6.694   3.154   2.301 -1.0221  1.7359 -1.0425
 2776TIP3   OH229886   1.350   4.990   7.172  0.1614 -0.4097  0.6194
 2776TIP3    H129887   1.443   4.998   7.147 -0.7721  1.3398 -2.9638
 2776TIP3    H229888   1.332   4.896   7.166  0.9294 -0.4895 -2.5975
 2777TIP3   OH229889   6.585   0.459   0.280  0.2464 -0.3931 -0.8883
 2777TIP3    H129890   6.557   0.526   0.341 -0.0470  0.1095 -1.5589
 2777TIP3    H229891   6.541   0.481   0.198  1.6045 -0.2976 -1.6315
 2778TIP3   OH229892   2.968   1.383   0.663  0.0261 -0.0489  0.0238
 2778TIP3    H129893   3.055   1.415   0.689  0.6005 -1.2189 -0.4148
 2778TIP3    H229894   2.933   1.453   0.608  0.3606  0.7718  0.8269
 2779TIP3   OH229895   2.378   3.139   8.557 -0.6508  0.2237  0.5686
 2779TIP3    H129896   2.373   3.220   8.507 -0.3933  1.2273  2.1047
 2779TIP3    H229897   2.380   3.167   8.648  3.3470 -1.2860  1.1364
 2780TIP3   OH229898   5.342   6.613   1.977  0.0890  0.3354  0.4544
 2780TIP3    H129899   5.298   6.538   1.935 -1.1081  0.8743  0.7195
 2780TIP3    H229900   5.276   6.652   2.033  0.3309  2.2847 -0.5192
 2781TIP3   OH229901   4.165   0.032   8.408  0.8089  0.3418 -0.4981
 2781TIP3    H129902   4.145  -0.028   8.480  1.3376  1.8371  0.9502
 2781TIP3    H229903   4.239  -0.008   8.363  0.2541 -0.7800 -0.4436
 2782TIP3   OH229904   6.343   1.240   2.112  0.1377  0.1063 -0.6231
 2782TIP3    H129905   6.384   1.196   2.038 -1.5895 -1.2996 -0.8144
 2782TIP3    H229906   6.296   1.170   2.158  0.6471  1.0522  1.4563
 2783TIP3   OH229907   5.282   1.062   2.325  0.2797  0.2977  0.3461
 2783TIP3    H129908   5.342   1.130   2.295  0.0678  2.3482  3.9757
 2783TIP3    H229909   5.208   1.110   2.363 -1.1591 -2.0321  0.7297
 2784TIP3   OH229910   2.378   0.333   1.537  0.7757  0.1184  0.5039
 2784TIP3    H129911   2.352   0.410   1.588 -1.6804  1.4531 -2.4687
 2784TIP3    H229912   2.467   0.353   1.507  0.4903  1.4138  0.4782
 2785TIP3   OH229913   3.582   3.729   1.021  0.1462  0.3496 -0.6166
 2785TIP3    H129914   3.580   3.733   0.926  0.1623  1.7477 -0.5820
 2785TIP3    H229915   3.631   3.806   1.048  5.2484 -2.8028  0.4214
 2786TIP3   OH229916   3.101   3.445   6.750  0.1088  0.3210 -0.5614
 2786TIP3    H129917   3.058   3.451   6.664  0.4310  0.4371 -0.7155
 2786TIP3    H229918   3.071   3.361   6.785 -0.1586  0.3500 -0.7127
 2787TIP3   OH229919   2.610   2.450   0.247 -0.5194 -0.2959 -0.2449
 2787TIP3    H129920   2.520   2.418   0.241  0.3045 -2.6973 -0.9935
 2787TIP3    H229921   2.629   2.484   0.160 -0.2870 -1.0806 -0.5103
 2788TIP3   OH229922   6.741   2.262   8.044  0.4498  0.2794  0.0429
 2788TIP3    H129923   6.665   2.242   8.098 -0.0392  2.2909  0.2090
 2788TIP3    H229924   6.813   2.271   8.106  0.1610  1.3122  0.2512
 2789TIP3   OH229925   1.028   0.730   2.223 -0.0273 -0.7176 -0.0943
 2789TIP3    H129926   1.059   0.709   2.135  0.5293  0.1842 -0.1315
 2789TIP3    H229927   1.092   0.690   2.281 -0.5067 -1.4899 -0.0763
 2790TIP3   OH229928   1.389   4.805   1.273  0.1435  0.4298 -0.2451
 2790TIP3    H129929   1.397   4.895   1.239 -1.9384  0.6451 -0.2639
 2790TIP3    H229930   1.314   4.808   1.331  0.0159 -1.3369 -0.2812
 2791TIP3   OH229931   5.951   6.151   0.195 -0.5378  0.3446  0.9219
 2791TIP3    H129932   6.013   6.085   0.164 -1.0060  0.2834  0.0735
 2791TIP3    H229933   5.877   6.144   0.135 -0.5004  1.7884  0.6692
 2792TIP3   OH229934   6.344   0.965   7.013  1.0678  0.5859 -0.0589
 2792TIP3    H129935   6.333   1.056   7.040 -0.9549  0.5901 -0.7524
 2792TIP3    H229936   6.403   0.970   6.937 -1.4155  1.7588 -2.0787
 2793TIP3   OH229937   1.309   0.411   1.669  0.2003  0.0397  0.1909
 2793TIP3    H129938   1.374   0.403   1.739  1.6131  0.4984 -1.0342
 2793TIP3    H229939   1.225   0.415   1.716  1.0020 -0.8482  1.7964
 2794TIP3   OH229940   6.216   2.526   1.286  0.4260 -0.2116 -0.3666
 2794TIP3    H129941   6.157   2.477   1.344 -0.0323 -1.1093 -1.5592
 2794TIP3    H229942   6.174   2.611   1.274 -0.4428 -0.7077 -0.9053
 2795TIP3   OH229943   0.673   3.938   2.087  0.5513 -0.2328 -0.7347
 2795TIP3    H129944   0.673   3.889   2.169 -0.3616  0.1755 -0.4794
 2795TIP3    H229945   0.764   3.966   2.076  0.6543 -0.1589  0.2206
 2796TIP3   OH229946   4.952   3.782   7.703 -0.3235  0.0786  0.6745
 2796TIP3    H129947   4.889   3.821   7.765 -1.1498  0.0910 -0.1493
 2796TIP3    H229948   4.897   3.739   7.637  0.5385  0.0275 -0.0267
 2797TIP3   OH229949   4.365   5.180   1.399 -0.1551  0.0883  0.1651
 2797TIP3    H129950   4.286   5.127   1.413 -0.9246  1.4776  1.3341
 2797TIP3    H229951   4.336   5.252   1.344 -0.0948  1.4301  1.8251
 2798TIP3   OH229952   6.066   1.867   1.643 -0.4459  0.1671  0.8082
 2798TIP3    H129953   5.999   1.927   1.611 -0.0892 -0.6459 -1.6789
 2798TIP3    H229954   6.034   1.839   1.729 -1.7499  2.0862  1.0185
 2799TIP3   OH229955   4.639   5.239   2.262  0.0024  0.2955  0.0497
 2799TIP3    H129956   4.611   5.202   2.345  1.0031 -3.3838 -1.0473
 2799TIP3    H229957   4.639   5.334   2.276 -3.2732  0.0380  3.0459
 2800TIP3   OH229958   6.536   2.203   8.239 -0.0294  0.8017  0.2083
 2800TIP3    H129959   6.452   2.242   8.264  0.2671  1.4970  0.1683
 2800TIP3    H229960   6.515   2.116   8.207 -0.5951  0.4706  1.4234
 2801TIP3   OH229961   3.813   5.095   0.591  0.1357  0.3481  0.4412
 2801TIP3    H129962   3.790   5.003   0.582  0.9252  0.3629 -3.0854
 2801TIP3    H229963   3.897   5.094   0.636 -0.8849 -0.4244  2.4697
 2802TIP3   OH229964   0.639   1.760   8.203 -0.1615  0.0437  0.1219
 2802TIP3    H129965   0.574   1.829   8.189 -0.4837 -0.4556 -0.8939
 2802TIP3    H229966   0.588   1.682   8.222  0.0760 -0.5158 -1.3787
 2803TIP3   OH229967   0.208   1.471   0.246  0.1008 -0.0917 -0.7572
 2803TIP3    H129968   0.230   1.562   0.263 -1.3354  0.2865 -0.8261
 2803TIP3    H229969   0.157   1.472   0.166  1.0688 -1.1082 -1.4144
 2804TIP3   OH229970   4.041   4.681   0.952 -0.0108  0.0895 -0.2106
 2804TIP3    H129971   4.081   4.604   0.993  0.8168  0.2789 -0.6347
 2804TIP3    H229972   4.039   4.660   0.858 -0.4919  0.2729 -0.2433
 2805TIP3   OH229973   3.240   4.786   1.046  0.3274 -0.1238  0.0981
 2805TIP3    H129974   3.309   4.738   1.093  1.1941 -0.5322 -1.5057
 2805TIP3    H229975   3.274   4.795   0.957 -1.3487  0.4182 -0.5207
 2806TIP3   OH229976   2.723   4.410   1.871  0.1046  0.1722  0.0603
 2806TIP3    H129977   2.676   4.492   1.885  1.3237  0.8120  0.6042
 2806TIP3    H229978   2.785   4.430   1.800 -0.3764 -0.6339 -0.6047
 2807TIP3   OH229979   2.907   1.252   1.390 -0.2823  0.3759 -0.4224
 2807TIP3    H129980   2.909   1.280   1.481  1.0689 -0.9879  0.0254
 2807TIP3    H229981   2.851   1.175   1.390 -1.2904  1.0850 -1.0089
 2808TIP3   OH229982   1.413   4.341   2.317  0.1274  0.2843 -0.5264
 2808TIP3    H129983   1.338   4.362   2.372  0.9654 -0.3312  0.9143
 2808TIP3    H229984   1.379   4.283   2.249 -0.7759  0.3830 -0.1615
 2809TIP3   OH229985   5.931   3.535   7.212 -0.1650 -0.5104 -0.1606
 2809TIP3    H129986   5.965   3.572   7.293 -1.8383  0.2142  0.2561
 2809TIP3    H229987   5.861   3.475   7.240 -0.2737 -0.8151 -1.0369
 2810TIP3   OH229988   3.979   1.775   8.746 -0.2822  0.4413  0.2605
 2810TIP3    H129989   3.995   1.691   8.788  4.6092  0.2489 -1.3676
 2810TIP3    H229990   4.025   1.838   8.802 -1.9816  1.7490  0.2546
 2811TIP3   OH229991   5.237   1.008   7.948 -0.2439 -0.0839 -0.2478
 2811TIP3    H129992   5.269   1.016   7.859 -1.3428  0.0446 -0.6436
 2811TIP3    H229993   5.245   1.096   7.985 -0.8996  0.1457 -0.6240
 2812TIP3   OH229994   0.302   4.353   8.538 -0.8166 -0.0869  0.6497
 2812TIP3    H129995   0.379   4.313   8.578 -0.8258  1.0905  1.9196
 2812TIP3    H229996   0.329   4.374   8.449 -0.7710 -2.7026 -0.0331
 2813TIP3   OH229997   5.476   2.929   1.407 -0.9769 -0.2424  0.1049
 2813TIP3    H129998   5.402   2.989   1.400  0.4994  1.7722  0.7134
 2813TIP3    H229999   5.494   2.924   1.501  0.7985  0.8336 -0.1429
 2814TIP3   OH230000   0.387   2.335   1.045  0.5689  0.3155  0.6025
 2814TIP3    H130001   0.359   2.341   1.137 -1.9772 -2.6318  0.1891
 2814TIP3    H230002   0.330   2.395   0.998 -0.3983 -0.5849  0.5988
 2815TIP3   OH230003   3.868   3.473   7.918  0.5541 -0.4655  0.5052
 2815TIP3    H130004   3.828   3.558   7.937 -3.0464 -0.9674 -3.4363
 2815TIP3    H230005   3.905   3.483   7.831 -0.3632 -3.0037 -0.2626
 2816TIP3   OH230006   0.133   4.480   8.234 -0.2585  0.1967  1.2285
 2816TIP3    H130007   0.081   4.461   8.156  0.0363 -0.3381  1.1594
 2816TIP3    H230008   0.123   4.574   8.247 -0.5760  0.2344  0.7376
 2817TIP3   OH230009   5.215   6.733   7.570  0.0291 -0.4385  0.4438
 2817TIP3    H130010   5.196   6.639   7.567 -1.0673 -0.2791  1.5625
 2817TIP3    H230011   5.248   6.748   7.659 -1.0344  0.4287  0.7124
 2818TIP3   OH230012   4.187   4.753   8.210 -0.3169 -0.6448  0.6141
 2818TIP3    H130013   4.252   4.784   8.148 -1.1070 -0.4352 -0.1297
 2818TIP3    H230014   4.231   4.757   8.295  1.0490 -1.6947 -0.0019
 2819TIP3   OH230015   3.904   0.523   8.681  0.2874 -0.6495 -0.5170
 2819TIP3    H130016   3.814   0.504   8.657 -0.0121  0.2142 -0.1222
 2819TIP3    H230017   3.943   0.557   8.600  0.0446 -0.3244 -0.5009
 2820TIP3   OH230018   2.325   3.898   0.313  0.7213 -0.0795 -0.2148
 2820TIP3    H130019   2.377   3.846   0.251  0.7919  0.4885 -0.6361
 2820TIP3    H230020   2.342   3.989   0.289  0.7722  0.1510  0.6626
 2821TIP3   OH230021   6.262   5.574   8.538  0.3920  0.1195 -0.1754
 2821TIP3    H130022   6.171   5.585   8.567  0.2924  2.0128 -1.0415
 2821TIP3    H230023   6.309   5.550   8.618 -0.6126  0.6986  0.6251
 2822TIP3   OH230024   3.015   1.282   7.016  0.0684  0.2231  0.0910
 2822TIP3    H130025   2.957   1.213   7.047 -1.1005  0.1760 -1.9531
 2822TIP3    H230026   2.959   1.361   7.015  1.3000  1.1956  2.1370
 2823TIP3   OH230027   3.459   5.812   2.976 -0.1398  0.2230  0.2900
 2823TIP3    H130028   3.524   5.768   3.030 -0.3301 -0.9826 -0.4441
 2823TIP3    H230029   3.509   5.878   2.928  0.1832  0.6754  1.2132
 2824TIP3   OH230030   2.465   1.869   2.893  0.1033  0.1290 -0.2811
 2824TIP3    H130031   2.540   1.891   2.838 -0.3126  0.9648 -0.5307
 2824TIP3    H230032   2.488   1.902   2.980  0.6524 -0.9682  0.0197
 2825TIP3   OH230033   3.752   1.142   8.495 -0.9641 -0.5715  0.6944
 2825TIP3    H130034   3.840   1.116   8.468 -1.0779 -1.9383  1.5905
 2825TIP3    H230035   3.745   1.233   8.466  0.8169 -0.3667  0.7834
 2826TIP3   OH230036   3.997   1.099   2.052 -0.5481 -0.1464 -0.2049
 2826TIP3    H130037   4.069   1.161   2.047 -0.5467 -0.2469 -2.0398
 2826TIP3    H230038   4.037   1.017   2.080 -0.0041 -0.1278 -0.9222
 2827TIP3   OH230039   2.245   0.281   1.284  0.4786  0.5930 -0.6097
 2827TIP3    H130040   2.230   0.367   1.244 -0.4334  0.8903  0.3397
 2827TIP3    H230041   2.299   0.301   1.361  1.0959  0.1804 -0.9242
 2828TIP3   OH230042   5.815   1.019   1.199 -0.3251 -0.3234  0.1260
 2828TIP3    H130043   5.814   1.073   1.120  1.4950  1.6305  1.2947
 2828TIP3    H230044   5.908   1.009   1.220 -0.7429 -0.3099  2.2824
 2829TIP3   OH230045   5.188   3.116   1.979  0.1907  0.3506  0.3679
 2829TIP3    H130046   5.277   3.145   1.960  0.1262  0.2406 -0.1318
 2829TIP3    H230047   5.165   3.060   1.905 -0.1946  0.1590  0.6300
 2830TIP3   OH230048   6.408   0.804   1.078  0.1316  0.0777 -0.1441
 2830TIP3    H130049   6.378   0.815   1.169  1.6285 -1.2961  0.5743
 2830TIP3    H230050   6.333   0.828   1.025 -1.5799 -1.3364  1.5059
 2831TIP3   OH230051   2.467   0.032   1.897  0.2219 -0.2863 -0.5035
 2831TIP3    H130052   2.480  -0.046   1.952 -1.0559 -0.2293 -0.0964
 2831TIP3    H230053   2.543   0.087   1.915 -0.2719 -0.1599  1.4189
 2832TIP3   OH230054   4.378   5.285   0.228  0.7562  0.1264  0.1380
 2832TIP3    H130055   4.468   5.289   0.193  0.6544 -1.0937 -0.3139
 2832TIP3    H230056   4.326   5.332   0.163  0.8437 -0.5644 -0.4510
 2833TIP3   OH230057   4.274   5.349   1.900  0.1076  0.4137 -0.0293
 2833TIP3    H130058   4.316   5.269   1.868 -0.7762  1.1048 -3.3737
 2833TIP3    H230059   4.180   5.334   1.887 -0.1259  1.6697  0.0091
 2834TIP3   OH230060   3.591   5.573   0.091  0.1296  0.6977  0.7695
 2834TIP3    H130061   3.610   5.492   0.043 -0.9732  1.6224 -1.3476
 2834TIP3    H230062   3.567   5.543   0.178 -1.5558 -1.4158 -0.3088
 2835TIP3   OH230063   2.302   4.962   8.813 -0.3668 -0.3396  0.3159
 2835TIP3    H130064   2.290   4.920   8.898 -2.1116 -2.3580 -0.8036
 2835TIP3    H230065   2.377   4.917   8.775 -0.0937 -0.0130  0.4695
 2836TIP3   OH230066   5.560   4.436   0.279  0.2763  0.0776 -0.6307
 2836TIP3    H130067   5.477   4.463   0.319  0.2552 -0.2700 -0.4386
 2836TIP3    H230068   5.535   4.397   0.196  0.2907  0.4673 -0.8174
 2837TIP3   OH230069   3.810   3.353   0.872  0.0215  0.0258  0.6450
 2837TIP3    H130070   3.878   3.339   0.806 -0.5320  0.3627 -0.0110
 2837TIP3    H230071   3.730   3.365   0.821 -0.4015  0.3492  1.3770
 2838TIP3   OH230072   6.186   5.519   6.971  0.5889 -0.2053 -0.0282
 2838TIP3    H130073   6.176   5.613   6.988 -1.1187  0.0389 -2.0335
 2838TIP3    H230074   6.100   5.482   6.992  0.8497 -1.1018 -0.5192
 2839TIP3   OH230075   5.179   1.600   8.730 -0.1905  0.0848  0.0276
 2839TIP3    H130076   5.206   1.552   8.652 -0.4596 -0.7319  0.4197
 2839TIP3    H230077   5.161   1.689   8.699 -1.5002 -0.5347 -1.0718
 2840TIP3   OH230078   3.030   5.955   7.708  0.0840  0.4192  0.9077
 2840TIP3    H130079   3.027   6.050   7.700 -3.1435  0.4854  1.5731
 2840TIP3    H230080   3.008   5.923   7.620 -0.1399  0.3250  0.9974
 2841TIP3   OH230081   2.566   5.907   8.680  0.5629  0.4042 -0.5676
 2841TIP3    H130082   2.574   5.999   8.703  0.0411  0.2409  0.2962
 2841TIP3    H230083   2.490   5.876   8.730 -0.1572 -0.1488 -1.9444
 2842TIP3   OH230084   1.403   5.274   8.386  0.0907 -0.5403 -0.1163
 2842TIP3    H130085   1.369   5.311   8.305  0.1280 -0.4474 -0.0899
 2842TIP3    H230086   1.325   5.260   8.440  0.2701  3.2813  1.4744
 2843TIP3   OH230087   5.204   5.699   0.408 -0.1314  0.7467 -1.0454
 2843TIP3    H130088   5.159   5.696   0.493  0.5752  0.0386 -0.6855
 2843TIP3    H230089   5.272   5.765   0.419  0.2716  0.3054 -0.9076
 2844TIP3   OH230090   1.487   0.752   1.882  0.4200 -0.2968 -0.8481
 2844TIP3    H130091   1.425   0.787   1.818  1.9217  1.4568 -1.4568
 2844TIP3    H230092   1.438   0.686   1.930 -2.1224  1.4461 -0.8497
 2845TIP3   OH230093   3.338   4.210   7.983 -0.1855 -0.6885  0.0455
 2845TIP3    H130094   3.322   4.255   7.900 -0.8729 -1.3465 -0.1861
 2845TIP3    H230095   3.255   4.218   8.030  0.6128  0.9570  1.3117
 2846TIP3   OH230096   0.933   1.726   7.762  0.6069 -0.0285 -0.0553
 2846TIP3    H130097   1.010   1.776   7.736  1.4253  0.0711  2.3488
 2846TIP3    H230098   0.962   1.635   7.760  0.9381  0.0351  1.2240
 2847TIP3   OH230099   0.712   6.187   7.976  0.3646 -0.2250  0.2643
 2847TIP3    H130100   0.762   6.239   7.913  0.6854 -0.5974  0.2041
 2847TIP3    H230101   0.776   6.163   8.043 -0.0001  0.2656  0.7959
 2848TIP3   OH230102   4.315   1.574   8.670 -0.2282  0.0880  0.1671
 2848TIP3    H130103   4.373   1.650   8.663 -0.0258 -0.1256 -0.6842
 2848TIP3    H230104   4.227   1.609   8.655 -0.1367  0.1648 -0.2132
 2849TIP3   OH230105   6.749   3.767   8.886 -0.0863 -0.1144  0.3857
 2849TIP3    H130106   6.669   3.804   8.847  0.5107 -2.0896 -3.1288
 2849TIP3    H230107   6.806   3.843   8.899 -0.6148  0.8084 -2.1025
 2850TIP3   OH230108   3.491   3.057   1.898  0.0083  0.1919 -0.6842
 2850TIP3    H130109   3.529   2.975   1.929 -0.1044  0.4876  0.2536
 2850TIP3    H230110   3.446   3.033   1.817  0.3584 -0.5813 -0.6610
 2851TIP3   OH230111   1.574   5.377   2.286 -0.4350 -0.0082  0.3075
 2851TIP3    H130112   1.613   5.303   2.238 -0.5175 -0.0757  0.3456
 2851TIP3    H230113   1.577   5.350   2.378 -2.0271 -0.6933  0.1860
 2852TIP3   OH230114   5.011   2.933   7.142 -0.3688 -0.1694  0.3643
 2852TIP3    H130115   4.948   2.897   7.079 -1.9050 -0.4087  1.9663
 2852TIP3    H230116   4.967   3.007   7.181  0.7471  0.2627  0.8478
 2853TIP3   OH230117   5.024   3.405   1.612  0.6824 -0.2648  0.2723
 2853TIP3    H130118   4.997   3.463   1.541  1.6576  0.9590  0.8764
 2853TIP3    H230119   5.020   3.459   1.690 -0.3665 -1.5972  1.1913
 2854TIP3   OH230120   2.218   2.576   8.267 -0.3348 -0.6015 -0.2569
 2854TIP3    H130121   2.153   2.579   8.197 -0.0177 -0.5644 -0.5505
 2854TIP3    H230122   2.209   2.660   8.312  0.2928 -0.1166 -1.0113
 2855TIP3   OH230123   3.688   0.376   8.682  0.3956  0.9327 -0.0284
 2855TIP3    H130124   3.649   0.389   8.769  1.8083 -0.4205  0.8583
 2855TIP3    H230125   3.615   0.392   8.621 -1.7129 -1.7199  1.5454
 2856TIP3   OH230126   0.292   4.322   1.366  0.4561 -0.1614 -0.0731
 2856TIP3    H130127   0.302   4.229   1.345  1.8345 -0.1030  0.2094
 2856TIP3    H230128   0.298   4.367   1.281 -1.7597 -0.3880 -0.4101
 2857TIP3   OH230129   3.064   6.104   0.163  0.4442 -0.6630  0.1175
 2857TIP3    H130130   3.041   6.067   0.078 -0.0100  0.9490 -0.5012
 2857TIP3    H230131   3.141   6.055   0.190  0.7928 -0.9946 -1.3682
 2858TIP3   OH230132   5.785   0.205   8.806 -0.1298 -0.2650 -0.2509
 2858TIP3    H130133   5.869   0.202   8.852 -1.2389 -0.7814  1.8205
 2858TIP3    H230134   5.759   0.113   8.798 -1.3354 -0.0329  0.7694
 2859TIP3   OH230135   3.898   0.459   1.659 -0.3545  0.2948 -0.2027
 2859TIP3    H130136   3.811   0.440   1.694 -0.1187 -1.6978 -0.5511
 2859TIP3    H230137   3.930   0.374   1.627  2.6092  0.4415  1.8986
 2860TIP3   OH230138   5.801   5.436   1.424 -0.4752 -0.1122 -0.1894
 2860TIP3    H130139   5.768   5.525   1.439  1.8390  0.6531  0.8798
 2860TIP3    H230140   5.774   5.387   1.501 -0.0594  0.2126  0.1688
 2861TIP3   OH230141   0.841   0.218   0.947 -0.1510 -0.4078  0.4796
 2861TIP3    H130142   0.805   0.185   1.030 -1.9419  2.4345  0.9662
 2861TIP3    H230143   0.826   0.313   0.951  0.4572 -0.0845 -2.7707
 2862TIP3   OH230144   4.556   0.812   7.374 -0.4189  0.2464  0.3089
 2862TIP3    H130145   4.583   0.874   7.306  0.1942 -1.1179 -0.7323
 2862TIP3    H230146   4.569   0.860   7.456  1.4199  1.0192 -0.3760
 2863TIP3   OH230147   1.886   1.262   1.645 -0.1152 -0.1753 -0.0330
 2863TIP3    H130148   1.968   1.213   1.645  0.7535  1.2088 -0.5872
 2863TIP3    H230149   1.851   1.249   1.733  0.3751 -1.2866  0.0167
 2864TIP3   OH230150   2.245   0.023   2.383 -0.0292  0.0940  0.4201
 2864TIP3    H130151   2.309  -0.026   2.332  0.1619 -0.5410  1.2394
 2864TIP3    H230152   2.296   0.090   2.428 -0.2503  0.8893 -0.4876
 2865TIP3   OH230153   5.875   5.116   7.570  0.2177  0.2845  0.7952
 2865TIP3    H130154   5.829   5.198   7.548 -0.9089 -0.2365  1.1325
 2865TIP3    H230155   5.924   5.137   7.649 -0.7209  0.4280  1.3590
 2866TIP3   OH230156   5.656   5.531   7.727 -0.0046  0.1472  0.1841
 2866TIP3    H130157   5.676   5.485   7.646  0.2782  1.3452 -0.4535
 2866TIP3    H230158   5.571   5.573   7.710 -1.2201 -1.6571  1.4430
 2867TIP3   OH230159   2.056   2.332   1.506  0.8600 -0.0826 -0.3204
 2867TIP3    H130160   1.998   2.275   1.557 -0.4126  0.8348 -0.7241
 2867TIP3    H230161   2.083   2.400   1.568  1.5178 -0.5014 -0.1364
 2868TIP3   OH230162   1.816   1.593   0.381  0.1895  0.3763  0.6539
 2868TIP3    H130163   1.889   1.599   0.444 -1.0066 -0.2173  2.1695
 2868TIP3    H230164   1.768   1.675   0.392  0.2129  0.4482  0.2080
 2869TIP3   OH230165   2.065   3.516   1.688 -0.2971 -0.2670 -0.1771
 2869TIP3    H130166   2.064   3.461   1.767  0.5148 -1.5791 -1.0448
 2869TIP3    H230167   1.979   3.556   1.686 -0.5472 -0.6904  1.0536
 2870TIP3   OH230168   4.394   2.364   6.981 -0.2959  0.5884  0.0870
 2870TIP3    H130169   4.346   2.374   7.063 -0.2106 -0.7546  0.3191
 2870TIP3    H230170   4.484   2.345   7.008 -0.1413  0.7415 -0.3201
 2871TIP3   OH230171   3.671   0.946   7.881  0.2380 -0.3073  0.2889
 2871TIP3    H130172   3.617   0.866   7.875  0.5430 -0.4470 -1.2086
 2871TIP3    H230173   3.661   0.987   7.795  3.4970 -1.0008 -0.5566
 2872TIP3   OH230174   1.282   2.876   0.538 -0.4001  0.0570  0.2842
 2872TIP3    H130175   1.313   2.892   0.627 -0.3510  0.7739  0.1425
 2872TIP3    H230176   1.351   2.910   0.481 -1.0813  0.9945 -0.0284
 2873TIP3   OH230177   6.195   1.700   8.707  0.7025  0.0453 -0.9047
 2873TIP3    H130178   6.191   1.688   8.802 -0.7287 -0.6749 -1.0270
 2873TIP3    H230179   6.114   1.660   8.675  1.3152 -0.0035 -2.4616
 2874TIP3   OH230180   1.242   1.054   0.835 -0.2191 -0.5756  0.4374
 2874TIP3    H130181   1.273   0.994   0.904 -0.3155  0.2300  1.1966
 2874TIP3    H230182   1.147   1.042   0.834 -0.0813 -1.8140 -0.7346
 2875TIP3   OH230183   6.544   3.835   2.021  0.0728 -0.0441  0.0032
 2875TIP3    H130184   6.518   3.862   1.933  2.4255 -0.1101 -0.7967
 2875TIP3    H230185   6.555   3.918   2.069  0.3120  0.0734 -0.2524
 2876TIP3   OH230186   6.155   5.760   0.149  0.2004  0.0621 -0.1750
 2876TIP3    H130187   6.095   5.687   0.138 -1.7782  1.0915  2.7123
 2876TIP3    H230188   6.181   5.756   0.241  1.8377  1.6831 -0.5195
 2877TIP3   OH230189   5.368   1.822   0.666 -0.3977 -0.4233  0.3738
 2877TIP3    H130190   5.421   1.790   0.593 -1.6193  0.6470 -1.0517
 2877TIP3    H230191   5.431   1.866   0.724  0.4516 -0.2695 -0.6302
 2878TIP3   OH230192   1.127   0.057   1.186 -0.4226  0.0959 -0.1145
 2878TIP3    H130193   1.182   0.007   1.126 -0.4263 -0.8425  0.6325
 2878TIP3    H230194   1.168   0.144   1.190  0.2727 -0.2050 -0.5292
 2879TIP3   OH230195   1.918   3.057   1.225  0.5725  0.3915 -0.0672
 2879TIP3    H130196   1.968   3.006   1.289 -0.3743 -0.5268 -0.0309
 2879TIP3    H230197   1.931   3.148   1.251  2.2431  0.1901 -0.0826
 2880TIP3   OH230198   3.162   5.668   8.410 -0.0923  0.0069 -0.3464
 2880TIP3    H130199   3.225   5.599   8.390 -0.1749  0.2127 -1.3971
 2880TIP3    H230200   3.217   5.744   8.432  0.0568  0.1769 -1.2304
 2881TIP3   OH230201   2.699   2.838   2.291  0.1401 -0.1301  0.0120
 2881TIP3    H130202   2.656   2.856   2.207 -0.2945  1.1731  0.4886
 2881TIP3    H230203   2.638   2.782   2.338  0.7231 -1.5008 -0.8196
 2882TIP3   OH230204   4.177   2.913   7.325 -0.4706  0.3426  0.2251
 2882TIP3    H130205   4.183   3.002   7.290  1.0863  0.8857  1.7216
 2882TIP3    H230206   4.267   2.890   7.349 -0.7313 -1.8893 -0.6393
 2883TIP3   OH230207   5.517   1.799   7.250  0.2886 -0.0698  0.0313
 2883TIP3    H130208   5.486   1.708   7.248 -0.0034  0.0460 -1.4816
 2883TIP3    H230209   5.453   1.848   7.199  1.3059  0.7077 -0.5395
 2884TIP3   OH230210   4.241   2.720   8.861 -0.1919 -0.3261 -0.0122
 2884TIP3    H130211   4.215   2.687   8.947 -0.7129  2.2077  0.9199
 2884TIP3    H230212   4.159   2.750   8.821  0.2377 -0.1166 -0.7545
 2885TIP3   OH230213   5.168   0.455   0.143 -0.3001 -0.0251  0.2728
 2885TIP3    H130214   5.101   0.517   0.115  0.0696  0.3868  0.2936
 2885TIP3    H230215   5.135   0.419   0.225  0.0565  1.0870  0.9383
 2886TIP3   OH230216   4.575   6.133   8.679 -0.3711  0.1609 -0.1287
 2886TIP3    H130217   4.621   6.051   8.696 -1.3301 -0.4667 -0.4388
 2886TIP3    H230218   4.644   6.198   8.666  0.4059 -0.6267 -0.0097
 2887TIP3   OH230219   1.228   3.753   8.031  0.0296 -0.1496 -0.0493
 2887TIP3    H130220   1.158   3.704   7.989  2.1066 -2.9014 -0.5683
 2887TIP3    H230221   1.272   3.798   7.959 -0.4304  0.5852  0.1182
 2888TIP3   OH230222   0.881   1.945   0.694  0.4817  0.3769 -0.2503
 2888TIP3    H130223   0.837   1.995   0.762  0.4153 -1.4414  1.1405
 2888TIP3    H230224   0.860   1.990   0.613 -2.2105  0.7840  0.5702
 2889TIP3   OH230225   1.640   5.599   1.983  0.0213  0.3828  0.3351
 2889TIP3    H130226   1.546   5.593   1.965  0.0609 -0.6559  0.3998
 2889TIP3    H230227   1.680   5.533   1.927  0.6030  0.1244  1.0267
 2890TIP3   OH230228   0.153   1.803   8.680  1.0294  0.3360 -0.2271
 2890TIP3    H130229   0.117   1.800   8.768  0.8778  4.2603  0.0085
 2890TIP3    H230230   0.089   1.854   8.630  1.2516 -1.5349 -2.6206
 2891TIP3   OH230231   3.520   2.703   1.302  0.0929  0.1850 -0.4081
 2891TIP3    H130232   3.445   2.649   1.326  0.7228 -0.2957  0.5951
 2891TIP3    H230233   3.558   2.730   1.386  0.7149  0.8744 -0.8918
 2892TIP3   OH230234   3.989   1.025   8.469 -0.0756 -0.5169 -1.0897
 2892TIP3    H130235   3.965   0.933   8.465  0.7741 -0.8393  0.4140
 2892TIP3    H230236   4.070   1.026   8.520 -1.3083  1.2614  0.9800
 2893TIP3   OH230237   4.942   6.230   0.629  0.1256  0.3350 -0.1350
 2893TIP3    H130238   4.933   6.152   0.683  0.3181 -0.5691 -1.3659
 2893TIP3    H230239   4.858   6.274   0.635 -0.0206 -0.0174  0.4784
 2894TIP3   OH230240   4.706   4.544   0.890  0.0898 -0.4174 -0.1731
 2894TIP3    H130241   4.730   4.452   0.882 -0.0700 -0.3074 -2.3143
 2894TIP3    H230242   4.665   4.550   0.976 -0.7842 -2.5528 -0.3792
 2895TIP3   OH230243   3.378   4.389   0.364 -0.2037 -0.0246  0.1014
 2895TIP3    H130244   3.335   4.330   0.301  1.0316 -0.3910 -0.4191
 2895TIP3    H230245   3.457   4.419   0.319 -0.1363  0.9968  0.8745
 2896TIP3   OH230246   0.434   1.194   1.158  0.2323  0.2383 -0.2103
 2896TIP3    H130247   0.340   1.177   1.161  0.1925  0.4580 -0.2384
 2896TIP3    H230248   0.469   1.150   1.236  0.1244  0.0488 -0.2684
 2897TIP3   OH230249   1.062   3.916   7.526 -0.0971  0.0052  0.0700
 2897TIP3    H130250   1.154   3.920   7.500 -0.3920  1.4808 -0.9084
 2897TIP3    H230251   1.016   3.890   7.446 -0.8839  3.2752 -0.6922
 2898TIP3   OH230252   2.274   1.025   0.579 -0.0863 -0.4282  0.6205
 2898TIP3    H130253   2.296   1.111   0.614 -0.3157  0.1842 -0.6569
 2898TIP3    H230254   2.301   0.963   0.647  3.4080  0.4005  0.1746
 2899TIP3   OH230255   3.520   6.536   2.452  0.3376 -0.2542  0.2465
 2899TIP3    H130256   3.551   6.626   2.439  1.5700 -0.7035 -0.0985
 2899TIP3    H230257   3.472   6.538   2.534  0.0638  0.7952  0.0670
 2900TIP3   OH230258   3.672   5.089   8.818  0.5417 -0.9126 -0.6116
 2900TIP3    H130259   3.753   5.055   8.855 -0.6551 -0.4943  2.7789
 2900TIP3    H230260   3.607   5.021   8.837 -0.5510  0.2744  0.0522
 2901TIP3   OH230261   0.850   2.232   2.418  0.6487  0.1915 -0.0775
 2901TIP3    H130262   0.848   2.154   2.474  0.4508  0.5706  0.4537
 2901TIP3    H230263   0.758   2.245   2.392  0.5147  0.8474  0.6915
 2902TIP3   OH230264   1.336   5.555   2.192 -0.0797 -0.4664 -0.2674
 2902TIP3    H130265   1.259   5.539   2.247  0.3348  1.2251  0.8609
 2902TIP3    H230266   1.403   5.495   2.226  0.2932  0.8355  1.4037
 2903TIP3   OH230267   1.991   2.705   7.866  0.3093  0.7015  0.4214
 2903TIP3    H130268   1.930   2.777   7.883  1.6266  2.4088 -1.4969
 2903TIP3    H230269   2.077   2.747   7.865  1.1601 -0.9616 -0.4777
 2904TIP3   OH230270   2.479   5.013   2.010 -0.0110  0.5165 -0.1179
 2904TIP3    H130271   2.521   5.034   2.093  3.0030  0.4601 -1.4938
 2904TIP3    H230272   2.540   5.045   1.944 -1.7396 -0.4935 -2.3235
 2905TIP3   OH230273   5.520   3.074   8.281  0.6006 -0.2026 -0.0873
 2905TIP3    H130274   5.476   3.150   8.319  1.8638 -0.8573  2.9675
 2905TIP3    H230275   5.567   3.109   8.206  0.1541  1.7935  0.5000
 2906TIP3   OH230276   4.522   1.940   8.403  0.2428 -0.1989 -0.8117
 2906TIP3    H130277   4.612   1.957   8.375  0.2391  0.4136 -0.4658
 2906TIP3    H230278   4.468   1.985   8.337  0.2220  0.6575 -0.2234
 2907TIP3   OH230279   1.080   0.249   2.861  0.3544 -0.0770 -0.0116
 2907TIP3    H130280   1.104   0.334   2.898 -1.1819  1.2718 -1.9016
 2907TIP3    H230281   0.991   0.233   2.893  0.0908 -0.2562 -0.8195
 2908TIP3   OH230282   5.079   5.061   2.568  0.0092 -0.4356  0.1442
 2908TIP3    H130283   5.122   5.050   2.653  1.1150  0.7547 -0.2157
 2908TIP3    H230284   5.151   5.076   2.506 -0.8641  3.1082 -0.2612
 2909TIP3   OH230285   6.122   5.902   1.134  0.8341 -0.3301 -0.5427
 2909TIP3    H130286   6.066   5.886   1.058 -1.7540  2.3731  0.5893
 2909TIP3    H230287   6.107   5.826   1.190 -1.3146  0.0284 -0.5506
 2910TIP3   OH230288   5.382   4.073   7.931  0.3500  0.0969 -0.2928
 2910TIP3    H130289   5.333   4.001   7.891  0.2320 -0.2495  0.4603
 2910TIP3    H230290   5.369   4.147   7.871  1.7718 -0.8991 -1.9166
 2911TIP3   OH230291   0.307   6.423   7.832 -0.4929  0.0517 -0.4248
 2911TIP3    H130292   0.260   6.502   7.856  2.6379  2.5539 -1.8013
 2911TIP3    H230293   0.370   6.410   7.903  1.9019  1.5171 -2.0884
 2912TIP3   OH230294   3.719   2.943   8.645  0.1072  0.2763 -0.1419
 2912TIP3    H130295   3.656   2.873   8.628  0.5858 -1.1140  3.0448
 2912TIP3    H230296   3.703   3.007   8.576 -1.9001 -1.9153 -1.9004
 2913TIP3   OH230297   3.007   6.627   1.599 -0.3424  0.1274  0.1016
 2913TIP3    H130298   2.957   6.662   1.525  1.2039  0.7211 -0.7130
 2913TIP3    H230299   3.035   6.704   1.648 -0.2032 -0.1919  0.5265
 2914TIP3   OH230300   5.758   0.629   6.914  0.6719  0.3371 -0.5321
 2914TIP3    H130301   5.725   0.719   6.906 -0.0461  0.3422  1.8779
 2914TIP3    H230302   5.709   0.580   6.849  1.0684  1.6452 -1.8882
 2915TIP3   OH230303   1.813   3.479   1.171 -0.0151 -0.0461  0.8160
 2915TIP3    H130304   1.854   3.460   1.087  1.5000  0.9045  1.3103
 2915TIP3    H230305   1.719   3.471   1.154  0.0975  2.2767 -1.5742
 2916TIP3   OH230306   1.103   5.256   7.637 -0.4268 -0.2360  0.1231
 2916TIP3    H130307   1.097   5.258   7.541  4.0138  1.5352 -0.3786
 2916TIP3    H230308   1.141   5.342   7.660 -0.4146 -0.9912  3.3553
 2917TIP3   OH230309   6.027   3.052   2.573  0.2800 -0.8978  0.5725
 2917TIP3    H130310   6.030   2.969   2.621 -0.4188 -1.2467  0.0205
 2917TIP3    H230311   6.110   3.094   2.595  0.0407 -1.0942  2.0018
 2918TIP3   OH230312   0.163   6.283   8.202  0.4697  0.1893 -0.1419
 2918TIP3    H130313   0.254   6.263   8.178  0.3171 -2.2168  0.9388
 2918TIP3    H230314   0.111   6.223   8.149 -0.2229 -0.8424  1.6071
 2919TIP3   OH230315   6.190   2.491   8.525  0.2513 -0.1678 -0.0114
 2919TIP3    H130316   6.216   2.462   8.612  1.0249 -1.6846 -0.7044
 2919TIP3    H230317   6.095   2.491   8.527  0.2517 -1.3734  0.4711
 2920TIP3   OH230318   0.205   1.171   0.168 -0.0774  0.0579  0.0061
 2920TIP3    H130319   0.224   1.178   0.075  0.2488  1.6242  0.1599
 2920TIP3    H230320   0.214   1.261   0.201 -1.1202 -0.3013  1.3647
 2921TIP3   OH230321   4.617   3.623   8.298 -0.0748  0.0378 -0.4927
 2921TIP3    H130322   4.578   3.708   8.318 -1.5874 -0.7929  0.2087
 2921TIP3    H230323   4.627   3.622   8.203 -0.7223  0.7138 -0.5725
 2922TIP3   OH230324   6.231   2.159   1.515 -0.4520 -0.1992 -0.4657
 2922TIP3    H130325   6.240   2.120   1.602 -0.7799  0.7528  0.0110
 2922TIP3    H230326   6.250   2.252   1.528 -2.6413  0.3784 -0.9856
 2923TIP3   OH230327   2.626   4.191   2.096  0.4695 -0.3039 -0.1102
 2923TIP3    H130328   2.554   4.138   2.062  0.4470 -0.1787 -0.2571
 2923TIP3    H230329   2.690   4.193   2.025  1.3380 -1.7416  0.5697
 2924TIP3   OH230330   3.986   5.854   1.281 -0.1478 -0.2081 -0.5316
 2924TIP3    H130331   3.928   5.927   1.304 -0.1095 -0.6494  1.0836
 2924TIP3    H230332   3.950   5.780   1.330  2.2523 -0.3162  1.1991
 2925TIP3   OH230333   0.221   2.446   8.467 -0.0151 -0.6033 -0.1342
 2925TIP3    H130334   0.303   2.468   8.423 -0.5051  1.4105 -0.1327
 2925TIP3    H230335   0.187   2.370   8.419  2.1898 -1.9767  0.3592
 2926TIP3   OH230336   4.805   1.328   0.486 -0.2114 -0.0338 -0.1699
 2926TIP3    H130337   4.800   1.239   0.453 -1.0935 -0.2659  0.5734
 2926TIP3    H230338   4.880   1.327   0.546 -0.9062 -0.5715  0.7054
 2927TIP3   OH230339   0.961   5.849   3.056  0.2012 -0.1789  0.0405
 2927TIP3    H130340   0.968   5.756   3.078  0.0380  0.0976  1.3377
 2927TIP3    H230341   1.008   5.893   3.127  1.4275  0.6694 -1.2488
 2928TIP3   OH230342   3.066   3.370   2.573  0.2439  0.1897  0.0332
 2928TIP3    H130343   3.071   3.297   2.511 -0.7433  0.0202  0.1368
 2928TIP3    H230344   3.024   3.332   2.650 -0.2395  0.8572  0.1030
 2929TIP3   OH230345   3.748   0.704   0.548 -0.2643 -0.6191  0.1633
 2929TIP3    H130346   3.725   0.612   0.555  0.8128 -0.8585  0.7105
 2929TIP3    H230347   3.666   0.751   0.566 -0.1828 -1.4133  3.2096
 2930TIP3   OH230348   1.046   5.770   8.702 -0.1669  0.8313  0.5886
 2930TIP3    H130349   1.003   5.854   8.683  0.1029  0.7993 -0.2000
 2930TIP3    H230350   1.084   5.743   8.618  0.8946  0.5739  1.1325
 2931TIP3   OH230351   2.103   3.759   8.256 -0.3093  0.1616 -0.1440
 2931TIP3    H130352   2.114   3.706   8.178 -0.0492 -0.4090  0.2734
 2931TIP3    H230353   2.192   3.784   8.281 -0.2775 -0.7538  0.7074
 2932TIP3   OH230354   4.246   2.514   1.022  0.3173 -0.3790  0.1532
 2932TIP3    H130355   4.329   2.466   1.029  0.4184 -0.2266  0.0136
 2932TIP3    H230356   4.186   2.452   0.979  0.9306  0.2017 -1.6228
 2933TIP3   OH230357   1.416   3.270   1.351  0.2574  0.7370  0.2691
 2933TIP3    H130358   1.480   3.255   1.421  0.8031  1.2756 -0.1046
 2933TIP3    H230359   1.467   3.308   1.280 -0.5878  1.7899  0.1957
 2934TIP3   OH230360   0.740   3.059   0.969  0.4832  0.4019  0.4774
 2934TIP3    H130361   0.718   3.006   1.045 -1.3897 -0.1097 -0.3594
 2934TIP3    H230362   0.704   3.146   0.989 -1.8011 -0.2267 -0.5529
 2935TIP3   OH230363   0.473   2.224   8.497  0.2726  0.1305 -0.2759
 2935TIP3    H130364   0.442   2.268   8.576  0.7864 -1.8340  1.0876
 2935TIP3    H230365   0.396   2.177   8.463  0.4436 -0.3386 -0.0146
 2936TIP3   OH230366   1.584   5.646   1.600  0.1429  0.3067  0.1697
 2936TIP3    H130367   1.617   5.693   1.676  1.8624  1.2517 -1.0848
 2936TIP3    H230368   1.639   5.675   1.527 -0.0908 -2.0881 -1.0855
 2937TIP3   OH230369   0.257   1.970   1.988 -0.4963  0.2796  0.1075
 2937TIP3    H130370   0.345   1.934   2.000 -0.4468  0.0231 -0.9237
 2937TIP3    H230371   0.220   1.974   2.077  0.3298 -0.1733  0.4810
 2938TIP3   OH230372   1.099   4.962   0.409  0.4225 -0.0845 -0.3132
 2938TIP3    H130373   1.015   4.916   0.404 -0.8314  1.8008  1.5630
 2938TIP3    H230374   1.081   5.050   0.375  1.3010  0.6840  1.0616
 2939TIP3   OH230375   1.413   0.508   2.188  0.0550  0.4467 -0.4187
 2939TIP3    H130376   1.447   0.483   2.274  1.8547  0.8903 -0.9596
 2939TIP3    H230377   1.340   0.448   2.172 -0.7437  0.7853  1.6747
 2940TIP3   OH230378   5.933   0.532   6.697  0.1429  0.0067  0.2067
 2940TIP3    H130379   5.859   0.493   6.744 -0.3909  1.7465  0.9094
 2940TIP3    H230380   6.008   0.479   6.722 -0.5750 -0.6690  0.9838
 2941TIP3   OH230381   2.021   2.283   8.735  0.1569  0.1430 -0.3527
 2941TIP3    H130382   1.944   2.300   8.681 -0.0118 -0.9939 -0.5087
 2941TIP3    H230383   1.999   2.202   8.781  0.4186  0.9228  1.2096
 2942TIP3   OH230384   1.485   4.563   1.232  0.3003 -0.5195  0.3383
 2942TIP3    H130385   1.458   4.655   1.237 -1.2400 -0.7713 -1.8068
 2942TIP3    H230386   1.402   4.514   1.235  0.9574 -1.7161 -0.4655
 2943TIP3   OH230387   5.071   2.474   1.008  0.2552 -0.2198 -0.6531
 2943TIP3    H130388   5.022   2.550   0.977  0.4481  0.5311  0.7964
 2943TIP3    H230389   5.110   2.437   0.929  0.1808  1.2148 -1.4007
 2944TIP3   OH230390   6.297   5.372   7.195  0.5533  0.0114 -0.9148
 2944TIP3    H130391   6.304   5.467   7.199  2.1353 -0.1119  0.5249
 2944TIP3    H230392   6.383   5.343   7.163  0.9827 -0.9992  0.9940
 2945TIP3   OH230393   5.544   0.524   8.740  0.9470  0.0414 -0.2061
 2945TIP3    H130394   5.461   0.512   8.695  2.2111 -1.1079 -2.3669
 2945TIP3    H230395   5.521   0.575   8.818 -2.0610 -1.8163  0.2978
 2946TIP3   OH230396   6.706   5.321   8.105  0.0464  0.7552  0.0572
 2946TIP3    H130397   6.621   5.347   8.070 -0.5529 -1.0007  0.0884
 2946TIP3    H230398   6.760   5.305   8.028  0.0034  0.8311  0.0113
 2947TIP3   OH230399   1.226   2.031   7.240 -0.0079  0.4307 -0.0992
 2947TIP3    H130400   1.254   2.111   7.197 -0.6683 -0.2528 -1.9360
 2947TIP3    H230401   1.132   2.042   7.252 -0.2363 -0.2985 -1.0177
 2948TIP3   OH230402   4.101   1.246   0.709 -0.0192  0.6023  0.0111
 2948TIP3    H130403   4.091   1.272   0.801 -0.1668  1.7288 -0.3050
 2948TIP3    H230404   4.196   1.243   0.696  0.0572 -1.7194  0.7577
 2949TIP3   OH230405   2.618   4.115   1.568  0.8386 -0.5481  0.1804
 2949TIP3    H130406   2.703   4.157   1.553  0.7068  0.6194  2.4037
 2949TIP3    H230407   2.556   4.187   1.575  0.0886 -1.2519  1.0182
 2950TIP3   OH230408   0.089   4.764   8.211 -0.0309  0.2790  0.1356
 2950TIP3    H130409   0.011   4.729   8.168 -0.0798 -0.4136  0.7554
 2950TIP3    H230410   0.055   4.834   8.268 -0.0353  0.8093 -0.5081
 2951TIP3   OH230411   5.922   2.821   2.200  0.1351 -0.5459  0.3479
 2951TIP3    H130412   5.833   2.786   2.189 -0.2493  0.7722 -1.1531
 2951TIP3    H230413   5.934   2.880   2.125  2.4182 -0.9429  0.3366
 2952TIP3   OH230414   4.786   5.706   7.702  0.0242 -0.2801 -0.5680
 2952TIP3    H130415   4.710   5.648   7.703  0.4596 -0.9293  2.2865
 2952TIP3    H230416   4.849   5.662   7.645 -1.0433 -0.6106 -1.5458
 2953TIP3   OH230417   2.530   6.498   7.631 -0.3925 -0.1206  0.0868
 2953TIP3    H130418   2.453   6.555   7.630 -1.6359 -1.6826  1.3398
 2953TIP3    H230419   2.557   6.496   7.723  0.1868 -0.8520 -0.0928
 2954TIP3   OH230420   3.019   1.042   7.409  0.3014 -0.2456  0.0819
 2954TIP3    H130421   2.956   1.108   7.382  0.3518 -0.8923 -1.8150
 2954TIP3    H230422   2.978   0.997   7.483 -0.5216  0.7111  0.2207
 2955TIP3   OH230423   1.976   4.953   2.020 -0.2839 -0.1940  0.8308
 2955TIP3    H130424   1.882   4.938   2.006  0.0717  0.4886 -3.3667
 2955TIP3    H230425   1.985   5.048   2.022  0.5260 -0.1327 -1.8909
 2956TIP3   OH230426   3.581   5.265   0.568 -0.1286 -0.1782  0.5365
 2956TIP3    H130427   3.646   5.195   0.563 -0.7946 -0.7679 -0.1352
 2956TIP3    H230428   3.497   5.220   0.562 -0.5691  0.7612 -1.4486
 2957TIP3   OH230429   1.800   0.264   7.940  0.1138 -0.0331  0.1061
 2957TIP3    H130430   1.707   0.273   7.922  0.1575 -0.4817 -0.3920
 2957TIP3    H230431   1.805   0.206   8.016  0.0065 -1.0837 -0.6586
 2958TIP3   OH230432   5.683   2.784   7.721 -0.1938  0.5394 -0.0020
 2958TIP3    H130433   5.765   2.830   7.702  0.8980 -1.0862  0.6351
 2958TIP3    H230434   5.710   2.697   7.748 -2.1466  0.0178  0.3788
 2959TIP3   OH230435   1.532   0.040   7.247 -0.2749  0.5769 -0.3687
 2959TIP3    H130436   1.506  -0.013   7.172 -1.0122  0.5936 -0.1389
 2959TIP3    H230437   1.569   0.120   7.208 -2.2998  1.3957 -0.7721
 2960TIP3   OH230438   1.964   0.259   8.659 -0.7185 -0.6043  0.1803
 2960TIP3    H130439   1.996   0.284   8.745  0.5831  2.3697 -1.0307
 2960TIP3    H230440   1.869   0.269   8.664 -0.7191 -1.0476  1.3992
 2961TIP3   OH230441   3.647   1.580   7.662 -0.4961  0.9880  0.0553
 2961TIP3    H130442   3.569   1.635   7.662 -1.4448 -0.2251  2.7769
 2961TIP3    H230443   3.690   1.598   7.745  0.9128 -0.0510 -0.3978
 2962TIP3   OH230444   1.093   5.676   0.003 -0.4897 -0.2822  0.0635
 2962TIP3    H130445   1.016   5.732  -0.009  0.2794  0.9103  0.5177
 2962TIP3    H230446   1.099   5.626  -0.078 -2.3053 -1.1427  0.3911
 2963TIP3   OH230447   0.828   1.209   7.704 -0.0780  0.6101  0.1976
 2963TIP3    H130448   0.828   1.114   7.696  1.5339  0.6042 -0.0094
 2963TIP3    H230449   0.875   1.240   7.626 -0.5865  1.5778  0.2602
 2964TIP3   OH230450   1.971   6.252   2.100 -0.3966 -0.3086 -0.0696
 2964TIP3    H130451   1.999   6.300   2.178  0.3585 -0.4751 -0.2237
 2964TIP3    H230452   2.053   6.225   2.058 -0.7834  0.2633 -1.2230
 2965TIP3   OH230453   4.313   2.983   0.085  0.1202 -0.1449 -0.0858
 2965TIP3    H130454   4.303   2.892   0.059 -0.2175  0.0899 -0.7987
 2965TIP3    H230455   4.250   3.031   0.030 -1.6251  0.2235  2.0657
 2966TIP3   OH230456   2.737   4.105   1.214  0.1096 -0.2135  0.2374
 2966TIP3    H130457   2.791   4.122   1.137 -0.6511 -0.6680 -0.4194
 2966TIP3    H230458   2.727   4.009   1.214 -1.8868 -0.0474 -0.5220
 2967TIP3   OH230459   6.233   4.654   1.644  0.1571  0.3546 -0.0023
 2967TIP3    H130460   6.288   4.624   1.717  0.4469 -1.9243 -1.0794
 2967TIP3    H230461   6.150   4.677   1.685  0.0632 -1.5851  0.9911
 2968TIP3   OH230462   0.377   5.118   0.210  0.4919  0.7748 -0.2863
 2968TIP3    H130463   0.301   5.080   0.166  0.3321  0.7288  0.0286
 2968TIP3    H230464   0.439   5.135   0.139  0.0773  1.0740 -0.5836
 2969TIP3   OH230465   1.778   0.214   0.432  0.5748 -0.0627  0.8602
 2969TIP3    H130466   1.841   0.196   0.361 -0.4000 -0.6900  0.1323
 2969TIP3    H230467   1.787   0.140   0.491 -0.4787 -0.9072  0.0060
 2970TIP3   OH230468   5.296   1.316   7.464 -0.1844 -0.1235 -0.2251
 2970TIP3    H130469   5.329   1.251   7.402 -0.4960  0.4026 -0.9620
 2970TIP3    H230470   5.203   1.324   7.444  0.0348  1.2592 -0.8334
 2971TIP3   OH230471   5.341   0.895   1.671 -0.2049  0.0645  0.0425
 2971TIP3    H130472   5.275   0.953   1.633 -1.8806 -1.3030  0.7095
 2971TIP3    H230473   5.386   0.857   1.595  0.4644  1.6921 -0.4019
 2972TIP3   OH230474   2.353   3.730   7.964 -0.2594 -0.0253  0.9017
 2972TIP3    H130475   2.430   3.673   7.961 -0.1119  0.0748  2.2701
 2972TIP3    H230476   2.330   3.744   7.872  1.2483 -0.1945  0.4751
 2973TIP3   OH230477   3.634   5.917   2.059  0.6939 -0.0255 -0.2375
 2973TIP3    H130478   3.622   5.997   2.007  0.5768  0.0771 -0.0495
 2973TIP3    H230479   3.673   5.947   2.141 -1.3899  0.1096  0.7519
 2974TIP3   OH230480   2.610   4.683   1.908 -0.0900 -0.0827 -0.3025
 2974TIP3    H130481   2.675   4.730   1.959  2.9050  0.2332 -4.0103
 2974TIP3    H230482   2.610   4.726   1.822 -2.9842 -2.0334 -1.4644
 2975TIP3   OH230483   4.250   2.582   7.275 -0.1239  0.4870 -0.1058
 2975TIP3    H130484   4.284   2.639   7.205  0.3502  1.4583  0.8852
 2975TIP3    H230485   4.202   2.514   7.228  1.2801  0.3582 -1.4491
 2976TIP3   OH230486   2.359   4.592   1.690  0.5638  0.0534 -0.0144
 2976TIP3    H130487   2.452   4.618   1.688  0.6446 -0.1453  0.6878
 2976TIP3    H230488   2.311   4.673   1.671  0.8646  0.3035  0.2783
 2977TIP3   OH230489   1.279   5.403   8.752 -0.0936  0.3012  0.3265
 2977TIP3    H130490   1.304   5.484   8.708  1.7598 -1.6822 -2.6587
 2977TIP3    H230491   1.192   5.382   8.718 -0.1679  0.5417  0.3686
 2978TIP3   OH230492   4.767   3.260   1.038 -0.1308 -0.7287 -0.9435
 2978TIP3    H130493   4.826   3.187   1.018  0.8294 -0.6030  1.1967
 2978TIP3    H230494   4.686   3.218   1.068  0.7819 -1.0019  1.3105
 2979TIP3   OH230495   3.366   0.226   7.298  0.2085 -0.2758 -0.1832
 2979TIP3    H130496   3.286   0.275   7.312  0.2539  0.1284 -1.2482
 2979TIP3    H230497   3.370   0.213   7.204  2.1944  1.1338 -0.3703
 2980TIP3   OH230498   6.649   2.227   7.416  0.6063  0.3763 -0.2468
 2980TIP3    H130499   6.650   2.244   7.322 -0.6933  1.4564 -0.0989
 2980TIP3    H230500   6.701   2.148   7.427  1.6438  0.8061 -1.7500
 2981TIP3   OH230501   6.066   0.658   1.063 -0.2003  0.1887  0.6331
 2981TIP3    H130502   6.146   0.611   1.087 -0.7351 -0.7135  0.6914
 2981TIP3    H230503   6.022   0.676   1.146 -0.6412 -0.3944  0.5366
 2982TIP3   OH230504   1.354   0.994   1.080 -0.3985 -0.4633 -0.1935
 2982TIP3    H130505   1.431   1.046   1.105 -1.0009  1.5472 -2.1066
 2982TIP3    H230506   1.364   0.911   1.126  1.3160  0.8753  2.0359
 2983TIP3   OH230507   2.913   4.127   2.266  0.2161  0.2851 -0.1201
 2983TIP3    H130508   2.987   4.168   2.311  0.2428  0.7682 -0.5993
 2983TIP3    H230509   2.892   4.187   2.195 -0.4924  0.0391 -0.1266
 2984TIP3   OH230510   5.117   1.238   8.246  0.4096 -0.3309  0.6413
 2984TIP3    H130511   5.195   1.209   8.293  1.0700 -0.5967 -0.5630
 2984TIP3    H230512   5.142   1.233   8.153 -1.0058 -0.3089  0.2365
 2985TIP3   OH230513   4.813   3.877   8.184 -0.3959 -0.2425 -0.2680
 2985TIP3    H130514   4.907   3.868   8.169 -0.2975 -0.2383  0.3344
 2985TIP3    H230515   4.800   3.845   8.273 -0.9579 -0.1926 -0.3310
 2986TIP3   OH230516   3.398   3.625   7.735 -0.0626 -0.2510  0.7624
 2986TIP3    H130517   3.461   3.574   7.684 -0.9762 -1.4942  0.8291
 2986TIP3    H230518   3.316   3.619   7.685 -0.9381 -1.3558  2.2398
 2987TIP3   OH230519   4.514   0.670   7.942 -0.3437 -0.0054  0.2783
 2987TIP3    H130520   4.603   0.703   7.944  0.0885 -1.1418  1.4045
 2987TIP3    H230521   4.472   0.717   7.870  1.1087  0.6581 -0.1664
 2988TIP3   OH230522   5.433   6.359   8.301  0.2079  0.4670  0.6961
 2988TIP3    H130523   5.479   6.289   8.347 -1.3428 -0.1505  1.3973
 2988TIP3    H230524   5.379   6.313   8.236  2.9347  1.3515 -2.4732
 2989TIP3   OH230525   2.278   5.040   1.060  0.4231  0.0220  0.3748
 2989TIP3    H130526   2.334   5.107   1.098 -0.0486 -0.6293  2.3432
 2989TIP3    H230527   2.335   4.990   1.002  0.6215  2.5112 -1.7823
 2990TIP3   OH230528   2.758   4.786   2.128 -0.0518 -0.3196 -0.0759
 2990TIP3    H130529   2.795   4.706   2.167 -0.4949 -0.9087 -0.8340
 2990TIP3    H230530   2.833   4.844   2.118  0.5428 -1.1706 -0.7848
 2991TIP3   OH230531   3.992   2.159   7.192  0.1623  0.0167 -0.0639
 2991TIP3    H130532   3.920   2.162   7.255 -0.0419  0.1704 -0.3070
 2991TIP3    H230533   4.014   2.066   7.185  0.4569  0.0351  0.5448
 2992TIP3   OH230534   0.503   3.637   8.449  0.7158 -0.2485  0.6238
 2992TIP3    H130535   0.476   3.556   8.492  1.7258 -0.7345  0.3778
 2992TIP3    H230536   0.590   3.655   8.484  0.4500  0.8173  0.7821
 2993TIP3   OH230537   6.241   4.214   0.796 -0.0450 -0.1880 -0.4979
 2993TIP3    H130538   6.306   4.209   0.726  1.7613 -3.5329  1.1690
 2993TIP3    H230539   6.291   4.239   0.874 -1.6914  1.6766  0.0699
 2994TIP3   OH230540   3.153   3.657   0.571  0.5176 -0.7640  0.5131
 2994TIP3    H130541   3.115   3.723   0.629 -0.9318  0.8755 -2.1240
 2994TIP3    H230542   3.100   3.579   0.586 -0.4419 -0.0826  0.7473
 2995TIP3   OH230543   5.404   5.635   0.780  0.0247  0.3515 -0.0121
 2995TIP3    H130544   5.459   5.675   0.713  0.3617  1.4947  0.9031
 2995TIP3    H230545   5.341   5.582   0.732  0.6052  0.7115 -1.1919
 2996TIP3   OH230546   4.157   5.252   8.231  0.0117  0.2549  0.0285
 2996TIP3    H130547   4.172   5.170   8.278  2.5122 -0.1732 -1.3818
 2996TIP3    H230548   4.061   5.257   8.223 -0.4649 -0.4869  3.5256
 2997TIP3   OH230549   4.243   2.282   0.583  0.2458  0.2867 -0.0872
 2997TIP3    H130550   4.331   2.246   0.593  0.0939 -0.4236 -1.2041
 2997TIP3    H230551   4.204   2.232   0.512 -0.2147  2.2009 -1.2526
 2998TIP3   OH230552   0.219   1.255   3.074 -0.3502  0.4023 -0.2565
 2998TIP3    H130553   0.234   1.202   2.996  0.5348 -3.2891  2.1413
 2998TIP3    H230554   0.305   1.259   3.117 -1.0553  1.1568  1.1626
 2999TIP3   OH230555   0.710   3.067   7.237 -0.7470  0.1493  0.3873
 2999TIP3    H130556   0.702   2.982   7.280 -2.8542  0.5951  0.9949
 2999TIP3    H230557   0.673   3.053   7.150 -0.1873  0.2311  0.1292
 3000TIP3   OH230558   0.284   3.924   8.674  0.4839  0.0839  0.1601
 3000TIP3    H130559   0.332   3.926   8.592  0.8842 -2.1378  0.2683
 3000TIP3    H230560   0.193   3.907   8.648  0.1907  1.6124  0.0984
 3001TIP3   OH230561   5.095   4.610   1.704 -0.5600 -0.5937  0.5553
 3001TIP3    H130562   5.020   4.638   1.652 -0.8572 -1.1384  0.6772
 3001TIP3    H230563   5.065   4.615   1.794 -0.6662 -1.3906  0.5778
 3002TIP3   OH230564   1.311   0.733   0.375  0.2824 -0.3357 -0.6223
 3002TIP3    H130565   1.242   0.757   0.314 -1.1402  0.3550  1.1540
 3002TIP3    H230566   1.277   0.656   0.421  0.9157 -0.3171 -0.1040
 3003TIP3   OH230567   5.082   6.008   2.062  0.2812  0.4826  0.2037
 3003TIP3    H130568   5.071   6.080   2.000  1.3047 -1.7342 -2.8342
 3003TIP3    H230569   5.175   6.008   2.084  0.4690 -0.3265 -0.4974
 3004TIP3   OH230570   5.606   0.100   1.546 -0.2478  0.1600  0.2276
 3004TIP3    H130571   5.624   0.027   1.487  3.1083  0.0023  1.2289
 3004TIP3    H230572   5.513   0.094   1.565 -0.7387 -1.8404 -2.2790
 3005TIP3   OH230573   4.492   5.864   8.656 -0.1228  0.3161  0.1920
 3005TIP3    H130574   4.423   5.798   8.663 -0.1696  0.4490  1.0571
 3005TIP3    H230575   4.490   5.911   8.740  1.5381 -0.1919  0.5696
 3006TIP3   OH230576   5.384   6.655   1.165  0.1300  0.0801  0.1950
 3006TIP3    H130577   5.333   6.586   1.123 -1.1515  0.4450  1.0931
 3006TIP3    H230578   5.475   6.627   1.156 -0.2211 -0.7047 -1.2430
 3007TIP3   OH230579   6.246   0.821   8.689 -0.2671 -0.1075 -0.5811
 3007TIP3    H130580   6.242   0.796   8.597 -1.5163  1.2808 -0.9507
 3007TIP3    H230581   6.160   0.861   8.707 -0.2628 -0.8324  1.3388
 3008TIP3   OH230582   4.069   2.484   1.713 -0.5006 -0.8104  0.1746
 3008TIP3    H130583   4.153   2.493   1.669 -0.2528 -1.6878  0.4543
 3008TIP3    H230584   4.015   2.432   1.653 -0.3146 -1.6064  0.6822
 3009TIP3   OH230585   4.553   0.519   0.203  0.8114 -0.3560 -0.8229
 3009TIP3    H130586   4.491   0.478   0.143 -0.1884 -1.2074  0.7144
 3009TIP3    H230587   4.597   0.586   0.150 -0.6018 -0.5033 -2.2655
 3010TIP3   OH230588   2.875   3.274   7.582 -0.0515 -0.1070  0.0822
 3010TIP3    H130589   2.816   3.200   7.570  1.1388 -1.0244 -0.3476
 3010TIP3    H230590   2.821   3.351   7.565 -1.5633 -0.7972  1.5190
 3011TIP3   OH230591   3.691   3.269   7.900 -0.1640 -0.7125 -0.1378
 3011TIP3    H130592   3.738   3.212   7.839 -0.1465  0.4708 -1.2925
 3011TIP3    H230593   3.753   3.340   7.918 -1.5297  1.1063 -2.0192
 3012TIP3   OH230594   6.442   1.702   7.855  0.0813 -0.0418 -0.0560
 3012TIP3    H130595   6.383   1.770   7.887  0.4303 -0.7252  2.2397
 3012TIP3    H230596   6.478   1.737   7.774 -1.2931  1.6128  0.0096
 3013TIP3   OH230597   6.093   5.946   0.561 -0.2352 -0.5106 -0.0466
 3013TIP3    H130598   6.095   5.882   0.489 -1.1349  0.3526 -0.8706
 3013TIP3    H230599   6.031   6.013   0.532  0.3918  0.5509  0.9599
 3014TIP3   OH230600   5.909   5.934   0.351  0.0739  0.0068 -0.5853
 3014TIP3    H130601   5.906   6.017   0.304 -0.4803 -1.0838 -2.6070
 3014TIP3    H230602   5.840   5.942   0.417  1.5295  1.9486  0.8126
 3015TIP3   OH230603   2.589   2.622   1.036 -0.1470  0.0655  0.4256
 3015TIP3    H130604   2.592   2.672   1.117  0.8491 -0.4544  0.7240
 3015TIP3    H230605   2.570   2.532   1.064  0.1367 -0.1056  0.0843
 3016TIP3   OH230606   6.402   5.640   0.079  0.1007 -0.9388  0.5746
 3016TIP3    H130607   6.339   5.690   0.131  0.5451  0.8564 -0.5339
 3016TIP3    H230608   6.487   5.679   0.099  0.7163 -2.3906  0.9520
 3017TIP3   OH230609   4.708   2.716   2.620 -0.1153  0.3046  0.4327
 3017TIP3    H130610   4.765   2.790   2.640 -0.0433  0.0542  1.2207
 3017TIP3    H230611   4.763   2.655   2.571 -0.2407  0.8626 -0.4155
 3018TIP3   OH230612   2.998   6.352   8.405  0.3430  0.7989  0.4118
 3018TIP3    H130613   2.929   6.410   8.374  1.5108  1.4963 -0.9604
 3018TIP3    H230614   3.067   6.410   8.437 -0.0146  0.1072  2.6437
 3019TIP3   OH230615   1.859   4.012   7.553  0.0722 -0.4064  0.3068
 3019TIP3    H130616   1.817   4.024   7.638 -0.1437 -1.8517  0.4252
 3019TIP3    H230617   1.945   4.053   7.562 -0.0390 -0.3471  1.1367
 3020TIP3   OH230618   0.782   0.584   1.218  0.7239  0.5183 -0.1750
 3020TIP3    H130619   0.722   0.653   1.245 -0.8542 -0.7526 -0.3258
 3020TIP3    H230620   0.836   0.567   1.295 -2.2409 -1.5247  1.6624
 3021TIP3   OH230621   3.022   2.842   8.232  0.6142 -0.0267  1.2426
 3021TIP3    H130622   3.033   2.747   8.229 -2.3164 -0.4758  1.8724
 3021TIP3    H230623   2.932   2.855   8.261  0.0584  2.9326 -1.2979
 3022TIP3   OH230624   5.779   6.281   6.936 -0.4411 -0.2640  0.1061
 3022TIP3    H130625   5.858   6.287   6.990  0.3292  1.5867 -1.1422
 3022TIP3    H230626   5.790   6.201   6.886  0.1006 -0.6232  0.7841
 3023TIP3   OH230627   5.875   6.526   6.820  0.8282  0.3826  0.0285
 3023TIP3    H130628   5.881   6.592   6.890 -0.6530 -0.5334  1.0715
 3023TIP3    H230629   5.868   6.443   6.866 -3.5633 -0.0611 -0.9450
 3024TIP3   OH230630   6.414   4.023   0.403  0.0967 -0.1518  0.2387
 3024TIP3    H130631   6.496   3.975   0.417  0.0586  0.2609  2.1238
 3024TIP3    H230632   6.407   4.081   0.479 -1.9546 -0.2110  0.1468
 3025TIP3   OH230633   2.513   6.156   8.439  0.1063  0.0554 -0.1262
 3025TIP3    H130634   2.427   6.182   8.473  1.1784  0.9243  2.1594
 3025TIP3    H230635   2.572   6.167   8.514  1.9473 -2.0499 -1.1674
 3026TIP3   OH230636   6.226   5.309   8.755  0.3321  0.2322  0.2882
 3026TIP3    H130637   6.272   5.392   8.748 -2.3452  1.6869 -2.3485
 3026TIP3    H230638   6.279   5.247   8.704  0.4779  1.3433 -0.9675
 3027TIP3   OH230639   6.411   3.610   0.009 -0.4563  0.3518 -0.0581
 3027TIP3    H130640   6.319   3.625   0.031  0.0367  1.2588  1.5669
 3027TIP3    H230641   6.408   3.549  -0.065 -2.3516  0.4109 -0.0939
 3028TIP3   OH230642   5.272   5.556   7.870  0.2370  0.4020  0.0180
 3028TIP3    H130643   5.193   5.512   7.840  0.5041  0.7734 -1.2776
 3028TIP3    H230644   5.283   5.526   7.961 -1.0411 -0.1180  0.0239
 3029TIP3   OH230645   0.916   1.335   2.224  0.3246 -0.2533 -0.5044
 3029TIP3    H130646   1.007   1.323   2.251  0.1730  0.6706  0.5001
 3029TIP3    H230647   0.920   1.346   2.129  1.1350 -1.2908 -0.6051
 3030TIP3   OH230648   6.505   4.732   0.953 -0.1110  0.0980 -0.9285
 3030TIP3    H130649   6.585   4.774   0.986 -0.7496  0.7740 -0.1966
 3030TIP3    H230650   6.438   4.799   0.962 -1.5419 -1.5528  1.8436
 3031TIP3   OH230651   1.310   2.163   1.631  0.1254 -0.3479  0.6582
 3031TIP3    H130652   1.219   2.135   1.644 -0.4729  2.1105  2.6366
 3031TIP3    H230653   1.357   2.129   1.708  0.4487 -0.0029  0.6160
 3032TIP3   OH230654   3.482   0.714   2.144 -0.0355  0.5442 -1.2931
 3032TIP3    H130655   3.508   0.783   2.082 -2.0694  3.3268  0.7209
 3032TIP3    H230656   3.510   0.747   2.229 -0.7634 -1.3535 -0.2703
 3033TIP3   OH230657   6.107   3.366   0.060 -0.5200 -0.6075 -0.4464
 3033TIP3    H130658   6.104   3.359   0.156 -2.7032 -0.7865 -0.4807
 3033TIP3    H230659   6.092   3.459   0.042 -0.6801 -0.6675 -0.6237
 3034TIP3   OH230660   6.724   1.824   8.256 -0.1121 -0.1675 -0.3540
 3034TIP3    H130661   6.637   1.793   8.282 -0.1614  0.8504  0.7636
 3034TIP3    H230662   6.713   1.851   8.164 -1.0885  0.3381 -0.1072
 3035TIP3   OH230663   4.888   4.113   8.932  0.3766 -0.3823  0.2436
 3035TIP3    H130664   4.981   4.118   8.953  0.3631  0.8223  0.0947
 3035TIP3    H230665   4.873   4.185   8.871 -0.6818 -0.4572  0.3914
 3036TIP3   OH230666   5.580   5.719   0.590 -0.3391  0.3423 -0.2401
 3036TIP3    H130667   5.552   5.680   0.507 -0.2915 -0.3718  0.0729
 3036TIP3    H230668   5.647   5.659   0.624 -0.6702  0.3916  0.5219
 3037TIP3   OH230669   2.440   3.631   2.368 -0.2222 -0.0699 -0.7301
 3037TIP3    H130670   2.505   3.620   2.438 -0.9670 -3.0324 -0.3560
 3037TIP3    H230671   2.371   3.569   2.390 -0.5566 -1.0328 -4.0121
 3038TIP3   OH230672   5.155   3.714   8.904 -0.3989 -0.4720 -0.1575
 3038TIP3    H130673   5.089   3.758   8.957  0.0543 -0.3283  0.3051
 3038TIP3    H230674   5.117   3.629   8.883 -0.7431 -0.3758  0.0720
 3039TIP3   OH230675   2.269   0.504   2.380  0.3050  0.3077 -0.5237
 3039TIP3    H130676   2.337   0.564   2.411 -2.2587  2.7376  0.9312
 3039TIP3    H230677   2.240   0.458   2.459  0.0054 -0.4155 -1.0451
 3040TIP3   OH230678   1.044   4.975   0.069  0.2208  0.2764 -0.0002
 3040TIP3    H130679   1.068   5.068   0.065  1.0037  0.1429  1.1057
 3040TIP3    H230680   1.127   4.930   0.084 -0.1023 -0.6441 -0.8762
 3041TIP3   OH230681   3.172   4.856   2.750 -0.4676 -0.2920  0.7812
 3041TIP3    H130682   3.097   4.843   2.807  1.3806 -2.3427  2.9296
 3041TIP3    H230683   3.155   4.941   2.708 -2.3389  0.9599  3.7338
 3042TIP3   OH230684   3.899   2.878   7.949 -0.1582  0.6467 -0.1109
 3042TIP3    H130685   3.893   2.967   7.914 -0.4860  0.8292  0.3940
 3042TIP3    H230686   3.883   2.821   7.874  0.9715  0.9867 -0.6354
 3043TIP3   OH230687   0.656   6.630   0.245  0.0853 -0.9038  0.5155
 3043TIP3    H130688   0.562   6.648   0.256 -0.1666 -1.9775  0.1491
 3043TIP3    H230689   0.668   6.542   0.280  1.0946 -0.5318  1.1733
 3044TIP3   OH230690   2.764   2.561   2.245 -0.0692  0.0018 -0.0683
 3044TIP3    H130691   2.789   2.646   2.282 -0.6768  1.0077 -1.8357
 3044TIP3    H230692   2.742   2.507   2.321 -0.5352  1.7100  1.0718
 3045TIP3   OH230693   4.333   4.907   8.026  0.1275 -0.9730 -0.0339
 3045TIP3    H130694   4.395   4.975   8.001  1.8124 -2.8838 -1.5118
 3045TIP3    H230695   4.259   4.918   7.965 -0.3670  0.4330  0.7794
 3046TIP3   OH230696   4.075   0.511   8.293 -0.4849 -0.1618 -0.4047
 3046TIP3    H130697   4.097   0.428   8.336  2.8661  0.6710 -0.2460
 3046TIP3    H230698   4.119   0.506   8.208 -1.0204  1.0966 -0.7805
 3047TIP3   OH230699   0.965   1.078   0.752 -0.4473 -0.4068  0.2613
 3047TIP3    H130700   0.978   1.142   0.682 -0.7502  0.8206  1.2911
 3047TIP3    H230701   1.011   1.000   0.721  0.9332  0.6557 -0.5363
 3048TIP3   OH230702   3.842   0.907   0.344 -0.3059  1.1314 -0.3295
 3048TIP3    H130703   3.897   0.951   0.409  2.9873  0.8705 -2.7025
 3048TIP3    H230704   3.818   0.824   0.386  1.6069  1.0113  0.6627
 3049TIP3   OH230705   0.802   5.838   0.688 -0.4378  0.0792 -0.0525
 3049TIP3    H130706   0.799   5.891   0.767 -1.7981  0.4347 -0.3167
 3049TIP3    H230707   0.739   5.767   0.704 -1.4225  0.6658 -1.1376
 3050TIP3   OH230708   1.731   2.508   8.641 -0.2437  0.4494  0.1147
 3050TIP3    H130709   1.780   2.539   8.565  0.7096 -0.2895  0.4029
 3050TIP3    H230710   1.640   2.527   8.620 -0.1377 -0.7737 -1.7450
 3051TIP3   OH230711   5.075   2.760   1.931  0.0662  0.0944  0.6417
 3051TIP3    H130712   5.100   2.675   1.967  1.0988 -0.8831 -2.1141
 3051TIP3    H230713   4.982   2.751   1.910  0.4737 -0.8566 -0.8356
 3052TIP3   OH230714   5.262   2.989   7.064  0.3029  0.3967  0.3811
 3052TIP3    H130715   5.178   2.949   7.086 -0.1943  0.9925 -0.3511
 3052TIP3    H230716   5.296   2.936   6.992  0.0239  0.8094 -0.0575
 3053TIP3   OH230717   4.304   1.742   0.031  0.1061 -0.2284 -0.4494
 3053TIP3    H130718   4.388   1.709  -0.002  0.9004 -0.1975  1.3741
 3053TIP3    H230719   4.239   1.680  -0.000  1.2161 -2.0238  0.6294
 3054TIP3   OH230720   0.109   5.428   8.422  0.4205  0.7937 -0.1840
 3054TIP3    H130721   0.095   5.479   8.502 -1.5293 -0.8386  0.5865
 3054TIP3    H230722   0.032   5.372   8.415  2.0843 -1.5158 -1.3857
 3055TIP3   OH230723   3.694   6.197   7.539  0.0393  0.3315 -0.3156
 3055TIP3    H130724   3.731   6.280   7.508 -0.5368  0.9997  0.7265
 3055TIP3    H230725   3.628   6.223   7.604  0.6984 -0.9749  0.9403
 3056TIP3   OH230726   1.074   0.309   6.997 -0.0163  0.2542  0.0434
 3056TIP3    H130727   1.128   0.286   7.072  0.8014 -1.0211 -0.9051
 3056TIP3    H230728   1.126   0.374   6.950  1.2144 -1.6700 -1.3872
 3057TIP3   OH230729   5.711   5.136   1.228 -0.4342 -0.1031 -0.4821
 3057TIP3    H130730   5.632   5.083   1.217 -1.5034  0.9906  1.4041
 3057TIP3    H230731   5.741   5.115   1.317  0.8297  0.2594 -0.8137
 3058TIP3   OH230732   5.257   0.879   2.110  0.2599  0.2413  0.1967
 3058TIP3    H130733   5.255   0.928   2.192 -0.1497  0.4805  0.0430
 3058TIP3    H230734   5.190   0.812   2.120  0.7772 -0.2633  0.3827
 3059TIP3   OH230735   0.730   4.581   8.722  0.3318 -0.1336  0.6208
 3059TIP3    H130736   0.823   4.579   8.745  0.0851  0.3174  1.7500
 3059TIP3    H230737   0.726   4.551   8.631  1.5554 -0.3502  0.6306
 3060TIP3   OH230738   2.014   6.492   2.629 -1.0961 -0.0223  0.2909
 3060TIP3    H130739   2.046   6.544   2.703 -1.6336 -0.5648  0.9143
 3060TIP3    H230740   2.065   6.411   2.633 -1.3484 -0.1809  0.2503
 3061TIP3   OH230741   1.120   1.622   0.070 -0.6760 -0.1858 -0.2648
 3061TIP3    H130742   1.047   1.561   0.066 -0.5674 -0.3933  0.7507
 3061TIP3    H230743   1.085   1.700   0.113  0.0603 -0.8451  1.6060
 3062TIP3   OH230744   1.577   6.108   7.350  0.5600 -0.1704 -0.1730
 3062TIP3    H130745   1.588   6.196   7.315  0.2597  0.1858  0.5970
 3062TIP3    H230746   1.501   6.073   7.304  0.4542  0.1165 -0.2189
 3063TIP3   OH230747   0.041   3.742   1.983  0.3648 -0.0201  0.0696
 3063TIP3    H130748   0.067   3.832   2.004 -1.3616  1.0111 -1.7990
 3063TIP3    H230749  -0.050   3.737   2.012  1.0118 -1.9094  2.0373
 3064TIP3   OH230750   2.641   3.780   8.582  0.1225 -0.6394 -0.0158
 3064TIP3    H130751   2.711   3.723   8.550  0.6583  0.5547 -1.0999
 3064TIP3    H230752   2.684   3.836   8.647 -0.2280 -1.0087  0.5344
 3065TIP3   OH230753   4.297   3.057   7.542  0.0964 -0.9792  0.4994
 3065TIP3    H130754   4.312   3.051   7.637 -0.7814  0.6937  0.7794
 3065TIP3    H230755   4.330   2.974   7.508 -0.0658 -1.8537  2.3345
 3066TIP3   OH230756   6.474   0.165   7.425  0.7285 -0.3293  0.0346
 3066TIP3    H130757   6.474   0.079   7.384 -0.2628 -0.4206  0.1886
 3066TIP3    H230758   6.535   0.217   7.373 -0.5607 -0.4041 -1.6394
 3067TIP3   OH230759   6.700   2.688   0.528 -0.0548 -0.3745 -0.0119
 3067TIP3    H130760   6.727   2.656   0.442  1.4429 -1.0835  0.6914
 3067TIP3    H230761   6.685   2.782   0.515 -1.9061 -0.8054 -1.4856
 3068TIP3   OH230762   4.369   1.173   0.719 -0.4658  0.0280  0.5821
 3068TIP3    H130763   4.443   1.225   0.687  0.7431 -3.1242 -2.4274
 3068TIP3    H230764   4.409   1.104   0.771 -1.4677 -0.7846  0.3068
 3069TIP3   OH230765   0.967   2.370   0.855 -0.1947 -0.0938 -0.0030
 3069TIP3    H130766   0.975   2.331   0.768 -1.9015  1.0446 -0.7279
 3069TIP3    H230767   0.911   2.309   0.903 -0.7807  0.1758 -0.3253
 3070TIP3   OH230768   4.934   0.710   1.491 -0.0062  0.3973  0.3206
 3070TIP3    H130769   4.956   0.737   1.402 -2.0525  1.0538 -0.0470
 3070TIP3    H230770   5.018   0.685   1.530  0.8820 -0.4068 -1.9300
 3071TIP3   OH230771   2.799   0.353   7.052 -0.3564  0.2501  0.4129
 3071TIP3    H130772   2.772   0.416   6.987  0.0846 -1.2190 -1.2758
 3071TIP3    H230773   2.882   0.317   7.019 -0.6269 -1.2604  1.2371
 3072TIP3   OH230774   3.673   1.162   8.831  0.7439  0.2096 -0.2351
 3072TIP3    H130775   3.737   1.233   8.833  0.0835  0.8678 -1.4201
 3072TIP3    H230776   3.720   1.088   8.795  1.4325  0.0366  0.9821
 3073TIP3   OH230777   3.719   6.122   8.701  0.3436 -0.1531 -0.4180
 3073TIP3    H130778   3.785   6.189   8.720  2.0471 -1.3948 -1.6894
 3073TIP3    H230779   3.734   6.100   8.609 -2.4376  0.1065 -1.0275
 3074TIP3   OH230780   6.008   3.241   7.505 -0.2963 -0.6434  0.7048
 3074TIP3    H130781   6.052   3.326   7.498  0.1151 -0.7569  1.7544
 3074TIP3    H230782   5.927   3.253   7.456 -0.4479  0.4998  1.1872
 3075TIP3   OH230783   0.991   3.411   0.412 -0.9290 -0.4494  0.1591
 3075TIP3    H130784   0.913   3.400   0.466 -0.9907 -0.8070  0.0022
 3075TIP3    H230785   1.064   3.393   0.472 -0.8878  1.1598  0.6479
 3076TIP3   OH230786   5.566   4.999   8.009 -0.6824 -0.6684  0.3211
 3076TIP3    H130787   5.652   4.990   7.966 -0.6605 -2.2723  0.6642
 3076TIP3    H230788   5.564   4.928   8.073 -1.4435  0.6202  1.7720
 3077TIP3   OH230789   4.008   3.112   8.525 -0.1475 -0.1042 -0.3397
 3077TIP3    H130790   4.062   3.033   8.529 -1.2438 -0.8275  0.9903
 3077TIP3    H230791   4.018   3.142   8.434  1.5828 -0.8147 -0.4317
 3078TIP3   OH230792   6.409   5.898   6.902 -0.4658 -0.6290 -0.4556
 3078TIP3    H130793   6.322   5.926   6.930 -1.1898  0.2573 -3.2378
 3078TIP3    H230794   6.461   5.977   6.903 -0.0395 -0.9092 -0.0546
 3079TIP3   OH230795   1.850   2.709   8.459 -1.0027  0.0711 -0.1806
 3079TIP3    H130796   1.904   2.750   8.391 -1.1173  0.5527  0.0107
 3079TIP3    H230797   1.884   2.746   8.541 -1.5041  0.2402 -0.0488
 3080TIP3   OH230798   0.884   0.332   0.298  0.4731 -0.1607 -0.2145
 3080TIP3    H130799   0.815   0.266   0.286  0.6709 -0.0961 -2.1473
 3080TIP3    H230800   0.965   0.286   0.277  1.2586 -0.5289  3.0765
 3081TIP3   OH230801   4.771   3.983   1.168 -0.9293 -0.1158 -0.2235
 3081TIP3    H130802   4.744   3.900   1.130 -1.1874  0.9567 -2.6076
 3081TIP3    H230803   4.802   3.961   1.256  0.4083 -2.9378 -1.2848
 3082TIP3   OH230804   4.398   3.368   7.467 -0.3540  0.4247  0.6419
 3082TIP3    H130805   4.438   3.285   7.439 -2.1507 -0.1874 -0.2896
 3082TIP3    H230806   4.416   3.428   7.395 -3.0631 -0.5349 -0.9934
 3083TIP3   OH230807   6.190   3.722   0.983  0.5487  0.0830  0.5265
 3083TIP3    H130808   6.190   3.742   1.077  0.4325  1.3561  0.2638
 3083TIP3    H230809   6.278   3.743   0.953  0.4036  0.2706  0.2285
 3084TIP3   OH230810   3.867   2.759   0.201  1.1001 -0.4112  0.0306
 3084TIP3    H130811   3.919   2.839   0.205 -0.4128  0.6076  0.0367
 3084TIP3    H230812   3.777   2.788   0.216  0.2059 -1.7654 -2.1639
 3085TIP3   OH230813   2.513   0.696   0.109  0.1544 -0.1794  0.0667
 3085TIP3    H130814   2.464   0.681   0.190 -3.2898 -1.1138 -1.9531
 3085TIP3    H230815   2.470   0.772   0.069 -0.0104 -1.2748 -2.0132
 3086TIP3   OH230816   1.502   2.937   2.729  0.2689  0.0020  0.3721
 3086TIP3    H130817   1.504   2.898   2.816 -1.5103  0.5193  0.6777
 3086TIP3    H230818   1.416   2.978   2.723 -0.1984 -1.1764 -2.1405
 3087TIP3   OH230819   6.336   3.185   1.475 -0.3594 -0.3759 -0.2745
 3087TIP3    H130820   6.243   3.168   1.461 -0.5118  0.3320 -0.1413
 3087TIP3    H230821   6.339   3.258   1.537  0.2882 -0.6663  0.0572
 3088TIP3   OH230822   4.216   1.547   7.942  0.1048  0.0130  0.5167
 3088TIP3    H130823   4.204   1.638   7.968 -0.9561 -0.0383  0.2489
 3088TIP3    H230824   4.157   1.535   7.867  0.7021 -0.7197  0.1516
 3089TIP3   OH230825   6.636   0.177   3.179 -0.1638  0.4733 -0.4598
 3089TIP3    H130826   6.545   0.207   3.190 -0.4275  0.3679 -2.0895
 3089TIP3    H230827   6.645   0.162   3.085  1.6085  0.6284 -0.3475
 3090TIP3   OH230828   5.259   1.056   0.127 -0.0328 -0.2561  0.7889
 3090TIP3    H130829   5.169   1.082   0.148  0.6008  2.1207  0.8232
 3090TIP3    H230830   5.249   0.975   0.076 -2.2296  0.3992  0.0565
 3091TIP3   OH230831   5.900   2.237   7.542  0.2897 -0.2932 -0.1173
 3091TIP3    H130832   5.933   2.190   7.465  1.1187  0.4101 -0.2101
 3091TIP3    H230833   5.869   2.320   7.508  1.1843  0.2573  0.3643
 3092TIP3   OH230834   4.404   4.090   0.312  0.3656 -0.4800 -0.2995
 3092TIP3    H130835   4.472   4.075   0.246  0.9463 -0.0671  0.1929
 3092TIP3    H230836   4.452   4.115   0.391 -0.2772 -1.4704  0.4478
 3093TIP3   OH230837   6.357   6.012   8.668  1.0471  0.0134 -0.5907
 3093TIP3    H130838   6.315   5.956   8.733  0.5677  0.0206 -0.8932
 3093TIP3    H230839   6.334   6.101   8.695 -0.7854 -0.0211 -1.8345
 3094TIP3   OH230840   3.918   1.438   1.474 -0.1929  0.2398 -0.1639
 3094TIP3    H130841   4.011   1.418   1.466 -0.0427  0.0263  1.6534
 3094TIP3    H230842   3.905   1.516   1.420  0.8855 -0.1251 -0.9770
 3095TIP3   OH230843   2.001   3.954   1.385  0.4152 -0.2292 -0.3272
 3095TIP3    H130844   2.007   3.978   1.477  0.7268  1.1321 -0.6792
 3095TIP3    H230845   1.986   4.037   1.339 -0.1985 -0.9391 -1.4643
 3096TIP3   OH230846   1.387   3.748   2.935 -0.1101  0.1506 -0.1739
 3096TIP3    H130847   1.406   3.818   2.998 -2.0594 -0.7469  1.4939
 3096TIP3    H230848   1.401   3.789   2.850  1.2607  1.8107  0.7835
 3097TIP3   OH230849   4.389   2.293   8.714  0.2893  0.1602 -0.1628
 3097TIP3    H130850   4.344   2.239   8.650  2.0079 -0.2623 -1.0752
 3097TIP3    H230851   4.452   2.234   8.755  1.4679  1.1884 -0.4387
 3098TIP3   OH230852   6.406   1.581   8.590 -0.1189  0.1571  0.0720
 3098TIP3    H130853   6.437   1.508   8.644  0.0699 -0.3700 -0.7301
 3098TIP3    H230854   6.348   1.630   8.648 -1.6122 -1.5924  0.1556
 3099TIP3   OH230855   2.180   1.387   8.117 -0.2394  0.0896  0.3227
 3099TIP3    H130856   2.199   1.315   8.057 -1.2094 -0.0593  0.1802
 3099TIP3    H230857   2.219   1.360   8.200  2.3473  0.9069 -0.5246
 3100TIP3   OH230858   0.205   3.106   1.065 -0.5958 -0.2514  0.2016
 3100TIP3    H130859   0.112   3.082   1.064 -0.3375 -1.3279 -0.5702
 3100TIP3    H230860   0.243   3.056   0.993  0.4038  0.9677 -0.1518
 3101TIP3   OH230861   2.674   3.340   6.683 -0.7891 -0.1888  0.7135
 3101TIP3    H130862   2.750   3.358   6.628 -1.5042 -3.4571 -1.6642
 3101TIP3    H230863   2.601   3.383   6.638 -0.7595  0.9905  1.7285
 3102TIP3   OH230864   6.640   0.394   1.208 -0.3070  0.8850  1.0213
 3102TIP3    H130865   6.647   0.419   1.301 -0.1208  1.6869  0.8009
 3102TIP3    H230866   6.590   0.465   1.168  0.1701  0.8662  0.3816
 3103TIP3   OH230867   4.149   4.213   2.448 -0.3478  0.0152 -0.3168
 3103TIP3    H130868   4.173   4.193   2.358 -0.2608 -0.7025 -0.1407
 3103TIP3    H230869   4.060   4.248   2.443 -0.2105  0.3143 -0.7103
 3104TIP3   OH230870   6.166   6.203   2.325 -0.1319  0.3022 -0.0189
 3104TIP3    H130871   6.230   6.249   2.379  0.5085 -0.4228 -0.1337
 3104TIP3    H230872   6.091   6.261   2.322 -0.2683  0.2893  1.8259
 3105TIP3   OH230873   2.699   5.607   2.173  0.0430  0.5488  0.0050
 3105TIP3    H130874   2.758   5.660   2.226 -0.0638  0.6345  0.0392
 3105TIP3    H230875   2.745   5.593   2.090  1.7215 -2.3913  1.2583
 3106TIP3   OH230876   1.465   2.102   0.451 -0.2067 -0.3108 -0.0218
 3106TIP3    H130877   1.416   2.039   0.505 -0.5357  0.9620  1.2218
 3106TIP3    H230878   1.461   2.065   0.363 -0.5471 -1.9341  0.6292
 3107TIP3   OH230879   4.158   0.102   2.309  0.0383  0.4139  0.1572
 3107TIP3    H130880   4.202   0.094   2.394  1.0295 -0.7314 -0.4448
 3107TIP3    H230881   4.068   0.123   2.331  0.3922  0.6205  1.4850
 3108TIP3   OH230882   3.663   0.202   0.649 -0.2993 -0.4792 -0.3570
 3108TIP3    H130883   3.697   0.196   0.738 -0.9322  0.9081  0.0210
 3108TIP3    H230884   3.631   0.114   0.628  2.0338 -1.4396 -0.1625
 3109TIP3   OH230885   5.021   3.165   0.545 -0.3444 -0.3016  0.4992
 3109TIP3    H130886   4.936   3.194   0.579 -0.5287  2.2014 -1.7649
 3109TIP3    H230887   5.077   3.242   0.551  0.6727 -0.8450 -1.3101
 3110TIP3   OH230888   0.960   6.409   2.029 -0.4961  0.0324 -0.0150
 3110TIP3    H130889   0.867   6.433   2.022 -0.7372 -0.7583  0.4433
 3110TIP3    H230890   0.970   6.333   1.971 -0.0536  0.3073 -0.3125
 3111TIP3   OH230891   1.451   1.433   0.560  0.1934  0.4552 -0.4142
 3111TIP3    H130892   1.482   1.414   0.471  0.6962  0.1444 -0.1780
 3111TIP3    H230893   1.388   1.363   0.578 -1.1317  1.4344 -1.1245
 3112TIP3   OH230894   6.475   3.234   0.774 -0.2444 -0.0182  0.0259
 3112TIP3    H130895   6.471   3.326   0.797  1.3756  0.7427 -2.3750
 3112TIP3    H230896   6.399   3.220   0.717 -0.5692 -0.2350  0.5012
 3113TIP3   OH230897   0.301   1.145   2.478  0.1050  0.3417 -0.5696
 3113TIP3    H130898   0.320   1.215   2.416  0.5252 -0.4112 -1.3065
 3113TIP3    H230899   0.365   1.157   2.548 -0.3277  1.1550 -0.2957
 3114TIP3   OH230900   2.813   1.233   2.113 -0.1907  0.2157 -0.2710
 3114TIP3    H130901   2.834   1.313   2.066  0.5766  0.0462 -0.2233
 3114TIP3    H230902   2.850   1.246   2.201  0.0699 -0.2541 -0.3101
 3115TIP3   OH230903   4.548   6.306   0.169 -0.6967  0.0890 -0.1391
 3115TIP3    H130904   4.523   6.391   0.205  0.5904  0.2342  0.4678
 3115TIP3    H230905   4.610   6.270   0.233  1.2803  0.1349 -1.9463
 3116TIP3   OH230906   4.409   2.063   8.199  0.2154 -0.4834 -0.2562
 3116TIP3    H130907   4.431   2.112   8.120 -0.5188  2.4056  1.1831
 3116TIP3    H230908   4.323   2.024   8.181  0.1271  0.0112 -0.9217
 3117TIP3   OH230909   4.130   2.797   0.412  0.2151 -0.1624 -0.3051
 3117TIP3    H130910   4.086   2.713   0.419 -1.8044  0.7661 -1.0058
 3117TIP3    H230911   4.106   2.830   0.325  0.9838  1.1149 -0.0635
 3118TIP3   OH230912   6.579   0.028   1.262  0.2155  0.4952  0.2451
 3118TIP3    H130913   6.646  -0.039   1.275 -0.2132  0.2942  1.6185
 3118TIP3    H230914   6.504  -0.003   1.313 -1.5202 -0.0613 -2.4522
 3119TIP3   OH230915   5.675   3.807   2.522 -0.2751  0.4067 -0.6915
 3119TIP3    H130916   5.732   3.879   2.495 -0.4067  0.9424  0.4056
 3119TIP3    H230917   5.589   3.848   2.533 -0.3697  0.0623 -0.1509
 3120TIP3   OH230918   4.444   3.214   8.753  0.4654  0.4115 -0.3923
 3120TIP3    H130919   4.487   3.167   8.825  0.8981 -0.9436 -1.4798
 3120TIP3    H230920   4.365   3.251   8.792 -0.1169 -1.6042  0.4599
 3121TIP3   OH230921   4.334   4.481   2.531  0.1984 -0.3113 -0.1371
 3121TIP3    H130922   4.358   4.460   2.622  0.1493 -0.2663 -0.1140
 3121TIP3    H230923   4.410   4.454   2.480  1.4342  2.2599  0.1910
 3122TIP3   OH230924   3.321   1.488   7.468 -0.1281 -0.5475 -0.2167
 3122TIP3    H130925   3.283   1.442   7.393 -0.4344  1.4274 -1.3659
 3122TIP3    H230926   3.247   1.535   7.507  0.4355  0.2844 -0.1195
 3123TIP3   OH230927   2.059   0.806   1.662 -0.2773 -0.3768  0.0954
 3123TIP3    H130928   2.036   0.732   1.606  0.4484 -1.0074  0.6104
 3123TIP3    H230929   2.089   0.874   1.601 -1.0553 -0.4649 -0.3871
 3124TIP3   OH230930   6.444   5.572   0.610  1.1059 -0.0530  0.2586
 3124TIP3    H130931   6.436   5.519   0.531  2.0164  0.9101 -0.5041
 3124TIP3    H230932   6.385   5.531   0.673 -0.7468  0.0184 -1.3616
 3125TIP3   OH230933   3.071   4.447   7.430 -0.3611 -0.0451 -1.1887
 3125TIP3    H130934   3.109   4.476   7.513 -0.3155 -0.6056 -1.0104
 3125TIP3    H230935   3.004   4.513   7.410 -1.5703 -0.7962  0.1676
 3126TIP3   OH230936   4.317   6.540   7.388  0.0615  0.2650  0.3826
 3126TIP3    H130937   4.235   6.524   7.434 -0.5844  0.0625 -0.7961
 3126TIP3    H230938   4.367   6.596   7.447 -0.6170 -0.1940  1.4310
 3127TIP3   OH230939   1.177   2.648   7.224  0.3963 -0.5836 -0.3669
 3127TIP3    H130940   1.148   2.561   7.252 -1.4398 -0.3507 -1.3338
 3127TIP3    H230941   1.272   2.647   7.236  0.1198 -1.6739  2.4261
 3128TIP3   OH230942   2.550   2.971   0.431 -0.0608 -0.3414  0.3275
 3128TIP3    H130943   2.460   3.005   0.422  0.1721  0.2052 -0.0258
 3128TIP3    H230944   2.540   2.876   0.428 -0.6137 -0.2834  0.0992
 3129TIP3   OH230945   5.289   2.889   8.893  0.2113  0.4912  0.1201
 3129TIP3    H130946   5.348   2.848   8.831 -0.6840  2.3920 -2.1715
 3129TIP3    H230947   5.335   2.968   8.922 -0.3516  0.8820 -0.0338
 3130TIP3   OH230948   3.527   1.449   0.285 -0.4635  0.2911  0.3290
 3130TIP3    H130949   3.614   1.460   0.247 -0.3015 -1.6334 -0.0046
 3130TIP3    H230950   3.543   1.411   0.371 -0.9553  0.7061  0.6078
 3131TIP3   OH230951   1.179   4.958   7.412 -0.0732  0.0184  0.0568
 3131TIP3    H130952   1.250   4.960   7.348  2.0594 -0.9369  2.2596
 3131TIP3    H230953   1.145   5.047   7.413  1.9665  0.8464 -0.1426
 3132TIP3   OH230954   1.641   4.474   1.437  0.1064 -0.1628  0.2814
 3132TIP3    H130955   1.598   4.509   1.360  2.0389 -0.3060 -0.9346
 3132TIP3    H230956   1.580   4.491   1.509 -2.2381 -0.9686 -1.3993
 3133TIP3   OH230957   1.060   3.441   8.820 -0.3910  0.1473 -0.2556
 3133TIP3    H130958   1.002   3.380   8.865 -2.8199  0.3564 -2.8256
 3133TIP3    H230959   1.134   3.388   8.793 -0.2707 -0.5989  1.4109
 3134TIP3   OH230960   1.040   1.241   0.140 -0.2988  0.1071  0.7300
 3134TIP3    H130961   1.094   1.173   0.182  0.0395  0.9659  1.7411
 3134TIP3    H230962   0.963   1.194   0.108 -0.1061 -0.7456  1.4631
 3135TIP3   OH230963   3.000   1.320   2.310  0.1815 -0.2482 -0.0515
 3135TIP3    H130964   3.024   1.366   2.391  0.3478 -0.7797  0.2057
 3135TIP3    H230965   3.027   1.379   2.240 -0.6320  0.5595  0.2832
 3136TIP3   OH230966   2.527   6.690   1.642  0.1025 -0.3872  0.2360
 3136TIP3    H130967   2.479   6.722   1.718  0.6453 -1.8711  1.2613
 3136TIP3    H230968   2.609   6.654   1.679  0.8597 -0.1740 -1.1739
 3137TIP3   OH230969   3.959   6.207   7.640 -0.4830  0.2839 -0.9717
 3137TIP3    H130970   3.865   6.214   7.621 -0.6606  1.2120  0.1183
 3137TIP3    H230971   4.000   6.267   7.578 -0.6970  0.5546 -0.8534
 3138TIP3   OH230972   2.348   6.255   7.897  0.6512  0.4643  0.3190
 3138TIP3    H130973   2.359   6.312   7.973  1.3020 -1.2045  1.5653
 3138TIP3    H230974   2.344   6.166   7.935 -0.5948 -0.3193 -1.4825
 3139TIP3   OH230975   4.623   3.987   7.269 -0.6404  0.1131 -0.0735
 3139TIP3    H130976   4.690   4.011   7.333  0.5373 -1.0949 -0.8128
 3139TIP3    H230977   4.625   3.892   7.267 -3.3094 -0.0522  0.8238
 3140TIP3   OH230978   1.855   3.517   8.356 -0.2476  0.0497  0.2068
 3140TIP3    H130979   1.861   3.422   8.368  0.1792  0.1787  1.1593
 3140TIP3    H230980   1.868   3.530   8.262  1.5127 -0.7113  0.2987
 3141TIP3   OH230981   0.139   1.429   2.485  0.6880 -0.2041  0.3870
 3141TIP3    H130982   0.048   1.451   2.506  0.8215 -1.0117  1.9317
 3141TIP3    H230983   0.165   1.367   2.553  2.0786 -0.7870 -0.6373
 3142TIP3   OH230984   2.524   4.550   0.666  0.3839  0.6591  0.3642
 3142TIP3    H130985   2.617   4.572   0.660 -0.1166  2.6208 -3.0800
 3142TIP3    H230986   2.482   4.603   0.598 -3.3104 -0.1205  1.7659
 3143TIP3   OH230987   2.018   1.784   1.986 -0.0890 -0.4494 -0.0315
 3143TIP3    H130988   1.956   1.736   1.931 -0.0931 -0.2783 -0.1773
 3143TIP3    H230989   2.002   1.751   2.074  0.5159 -1.3573 -0.2498
 3144TIP3   OH230990   4.673   3.774   1.323 -0.4867 -0.0780 -0.2952
 3144TIP3    H130991   4.661   3.683   1.351  0.4014  0.1365  0.8204
 3144TIP3    H230992   4.661   3.771   1.228  3.2513 -2.0981 -0.9093
 3145TIP3   OH230993   1.854   1.317   8.160 -0.3414  0.0073 -0.3746
 3145TIP3    H130994   1.919   1.385   8.144 -1.5113  1.2379 -0.0334
 3145TIP3    H230995   1.880   1.279   8.244  0.6401 -0.3726 -0.8352
 3146TIP3   OH230996   5.032   4.592   8.343  1.0050 -0.2615  0.2046
 3146TIP3    H130997   5.105   4.544   8.303  2.8369  0.7288  2.1721
 3146TIP3    H230998   5.045   4.683   8.317 -0.9514 -0.3507 -1.3417
 3147TIP3   OH230999   4.692   1.193   7.890 -0.0761 -0.1784 -0.2695
 3147TIP3    H131000   4.603   1.169   7.863 -0.6457  1.2858  0.2241
 3147TIP3    H231001   4.700   1.285   7.868  0.6982  0.1537  1.2318
 3148TIP3   OH231002   4.080   4.470   1.189  0.0911 -0.3153  0.2003
 3148TIP3    H131003   4.121   4.451   1.273  0.2539  0.4568  0.2984
 3148TIP3    H231004   3.997   4.423   1.192  1.5836 -3.3147 -0.6499
 3149TIP3   OH231005   3.091   0.054   2.696  0.4472  0.4615  0.3219
 3149TIP3    H131006   3.131  -0.026   2.729  0.2664  0.9341  1.7304
 3149TIP3    H231007   3.126   0.124   2.751  0.0303  1.2672 -0.4011
 3150TIP3   OH231008   2.170   3.439   2.403  0.0214 -0.0607 -0.2168
 3150TIP3    H131009   2.081   3.404   2.415 -0.1074  0.2758 -0.1936
 3150TIP3    H231010   2.195   3.470   2.490  0.1475 -0.1223 -0.2318
 3151TIP3   OH231011   5.930   6.608   1.792  0.1693  1.1313 -0.5245
 3151TIP3    H131012   5.859   6.670   1.806  0.2452  1.3662 -1.1633
 3151TIP3    H231013   5.956   6.581   1.881 -1.8861 -0.3132 -0.2768
 3152TIP3   OH231014   5.729   2.021   8.260 -0.1533  0.1356  0.1391
 3152TIP3    H131015   5.759   2.087   8.323 -0.3478 -1.9118  2.5215
 3152TIP3    H231016   5.643   1.995   8.293  0.3777 -2.0402 -0.0930
 3153TIP3   OH231017   1.637   1.789   1.479  0.3068 -0.0544  0.2059
 3153TIP3    H131018   1.558   1.837   1.454 -0.8143 -1.3671  1.0971
 3153TIP3    H231019   1.661   1.739   1.402  0.4747  0.5998 -0.1739
 3154TIP3   OH231020   3.606   2.506   8.039 -0.0497 -0.6889 -0.3143
 3154TIP3    H131021   3.573   2.591   8.008  1.5187  0.4341  0.8845
 3154TIP3    H231022   3.676   2.484   7.977  2.7079  1.2840  1.8332
 3155TIP3   OH231023   2.092   0.020   1.936 -0.1973  0.7105  0.2034
 3155TIP3    H131024   2.161   0.084   1.955 -1.2162  1.8750  0.1038
 3155TIP3    H231025   2.085  -0.033   2.015  1.4000 -0.0111 -0.1004
 3156TIP3   OH231026   3.932   4.071   1.089 -0.3636  0.1583  0.1416
 3156TIP3    H131027   3.851   4.030   1.119 -0.1761 -0.9392 -0.7719
 3156TIP3    H231028   3.987   4.075   1.168 -1.6419  1.8860  1.0097
 3157TIP3   OH231029   0.970   3.170   8.113 -0.7956 -0.2915 -0.2107
 3157TIP3    H131030   1.009   3.087   8.141  1.2362  1.1335  1.6339
 3157TIP3    H231031   0.980   3.171   8.018  1.8504 -0.9721 -0.0131
 3158TIP3   OH231032   1.852   5.871   0.679  0.1825  0.1002 -0.6330
 3158TIP3    H131033   1.761   5.861   0.707 -0.0234 -0.5444 -1.4776
 3158TIP3    H231034   1.900   5.803   0.727  0.2709  0.5849 -0.0181
 3159TIP3   OH231035   6.376   5.805   2.350  0.2538 -0.5357 -0.0343
 3159TIP3    H131036   6.400   5.888   2.309 -1.9533  1.0082  1.5622
 3159TIP3    H231037   6.325   5.760   2.282 -1.2552  0.8918  0.0852
 3160TIP3   OH231038   6.508   6.736   2.599 -0.2849 -0.1668 -0.0966
 3160TIP3    H131039   6.525   6.721   2.692 -0.1716 -0.9720 -0.2351
 3160TIP3    H231040   6.458   6.817   2.596  0.7802  0.5329  0.5644
 3161TIP3   OH231041   3.423   1.969   1.454  0.1389  0.1735  0.0832
 3161TIP3    H131042   3.485   2.001   1.520 -0.7266  2.1655 -0.0114
 3161TIP3    H231043   3.473   1.970   1.372  0.0637  1.6464  0.0272
 3162TIP3   OH231044   5.902   1.286   2.107  0.4068  0.2541 -0.3455
 3162TIP3    H131045   5.846   1.231   2.162 -1.3743 -0.1165 -2.3906
 3162TIP3    H231046   5.915   1.366   2.158 -0.1597 -0.5408  1.0996
 3163TIP3   OH231047   1.316   5.525   0.748 -0.2400 -0.1115  0.1856
 3163TIP3    H131048   1.268   5.442   0.753  0.5585 -0.6955 -1.1660
 3163TIP3    H231049   1.371   5.516   0.670  1.3618  0.9106  1.1408
 3164TIP3   OH231050   3.221   2.279   0.826  0.1748 -0.0873  0.4604
 3164TIP3    H131051   3.301   2.320   0.793  0.4287 -1.5146 -0.8496
 3164TIP3    H231052   3.165   2.352   0.851  2.1441  0.9520  2.1565
 3165TIP3   OH231053   3.034   1.959   6.536 -0.2915  0.2659  0.0460
 3165TIP3    H131054   2.997   1.932   6.621  0.4742 -1.0912 -0.0162
 3165TIP3    H231055   3.128   1.947   6.547  0.0758  2.5044 -0.1949
 3166TIP3   OH231056   0.919   6.412   1.281  0.2265 -0.5388  0.2592
 3166TIP3    H131057   0.938   6.505   1.273 -0.0665 -0.5760 -1.1411
 3166TIP3    H231058   0.976   6.382   1.352  3.4146 -0.0856 -1.8603
 3167TIP3   OH231059   4.721   1.371   2.150  0.0081  0.1853 -0.1159
 3167TIP3    H131060   4.680   1.440   2.203 -0.3559 -1.1290  1.4007
 3167TIP3    H231061   4.794   1.415   2.107  0.4846  1.2947  1.6770
 3168TIP3   OH231062   1.402   1.099   0.407  0.8140 -0.0385  0.0773
 3168TIP3    H131063   1.491   1.090   0.442  0.4396  0.0616  1.1185
 3168TIP3    H231064   1.362   1.166   0.463  0.4345  0.7616 -1.1094
 3169TIP3   OH231065   1.773   5.716   1.419  0.2884 -0.1974  0.1532
 3169TIP3    H131066   1.802   5.629   1.446  3.7272  0.7450 -0.0412
 3169TIP3    H231067   1.786   5.718   1.324  0.3192  0.5627  0.1638
 3170TIP3   OH231068   3.278   4.713   0.557  0.3300  0.2231 -0.3070
 3170TIP3    H131069   3.289   4.796   0.512 -0.3088  1.4921  1.7265
 3170TIP3    H231070   3.305   4.730   0.647 -0.9699 -1.4257  0.4706
 3171TIP3   OH231071   5.607   6.203   2.016 -0.4906 -0.0865  0.2711
 3171TIP3    H131072   5.609   6.235   1.926 -1.0787 -0.5150  0.0980
 3171TIP3    H231073   5.667   6.261   2.064  0.2961 -0.2423 -0.5088
 3172TIP3   OH231074   5.196   4.245   8.927  0.4872  0.2415  0.0645
 3172TIP3    H131075   5.269   4.242   8.989  0.4178 -0.9773  0.1014
 3172TIP3    H231076   5.237   4.235   8.841  0.3653 -0.5089  0.0901
 3173TIP3   OH231077   5.380   2.543   2.491 -0.1909  0.2177 -0.7224
 3173TIP3    H131078   5.467   2.555   2.530 -0.0324 -1.4987 -0.4792
 3173TIP3    H231079   5.389   2.468   2.433 -1.0447  1.2503 -2.2554
 3174TIP3   OH231080   1.667   1.255   0.984 -0.9746  0.3802 -0.7548
 3174TIP3    H131081   1.746   1.309   0.975 -1.4592  1.6128  1.7189
 3174TIP3    H231082   1.597   1.318   1.000 -1.6376 -0.8788  1.8292
 3175TIP3   OH231083   2.459   5.362   0.875 -0.3429  0.5953 -0.0181
 3175TIP3    H131084   2.538   5.307   0.876 -1.0979 -0.5504  1.7159
 3175TIP3    H231085   2.491   5.450   0.857  0.9130 -0.3465 -3.0187
 3176TIP3   OH231086   2.389   0.741   1.058  0.1779 -0.2644 -0.1007
 3176TIP3    H131087   2.442   0.662   1.050 -1.9553 -1.7840  0.1576
 3176TIP3    H231088   2.447   0.804   1.102  1.9177 -1.6342 -0.3144
 3177TIP3   OH231089   0.611   4.630   8.004 -0.1890 -0.2647  0.2458
 3177TIP3    H131090   0.576   4.685   8.073  2.9401  0.0962  1.6971
 3177TIP3    H231091   0.702   4.659   7.992  0.3671 -2.4314 -1.7812
 3178TIP3   OH231092   0.382   2.511   8.260 -0.9604  0.1822 -0.5790
 3178TIP3    H131093   0.466   2.497   8.216 -1.1285  0.5134 -1.0177
 3178TIP3    H231094   0.318   2.512   8.189 -1.4764 -1.1012 -0.1562
 3179TIP3   OH231095   6.359   3.430   8.058  0.3723 -0.5392 -0.1592
 3179TIP3    H131096   6.323   3.515   8.032  0.2076 -0.3549  0.6497
 3179TIP3    H231097   6.447   3.450   8.090  0.7876 -0.8406 -1.0735
 3180TIP3   OH231098   4.262   0.175   7.659 -0.0234  0.0143 -0.2283
 3180TIP3    H131099   4.306   0.124   7.591  1.3800  1.5686 -0.5620
 3180TIP3    H231100   4.206   0.236   7.612  1.1758  1.2988 -0.0594
 3181TIP3   OH231101   0.984   6.275   8.644  0.4391  0.3190  0.1529
 3181TIP3    H131102   1.040   6.256   8.719  1.4568 -1.2439 -0.9430
 3181TIP3    H231103   0.959   6.189   8.610  0.1792  0.9723 -1.4078
 3182TIP3   OH231104   1.365   0.978   7.785 -0.4947 -0.0988  0.1470
 3182TIP3    H131105   1.451   0.997   7.748 -1.6387 -0.4381 -3.1079
 3182TIP3    H231106   1.336   1.061   7.824  1.5275 -0.1839  1.9662
 3183TIP3   OH231107   0.143   4.551   0.652 -0.4042 -0.5076  0.3949
 3183TIP3    H131108   0.174   4.467   0.687 -1.0084 -0.4007  1.2243
 3183TIP3    H231109   0.212   4.580   0.593 -1.2014 -2.6758 -1.7219
 3184TIP3   OH231110   3.032   0.297   1.051  0.3121 -0.0766  0.3300
 3184TIP3    H131111   3.102   0.303   0.986 -0.6516 -0.2916 -0.7788
 3184TIP3    H231112   3.072   0.255   1.127  1.7081  1.0028  0.2328
 3185TIP3   OH231113   2.833   5.270   1.161  0.2100 -0.5875 -0.1224
 3185TIP3    H131114   2.917   5.290   1.204  0.6675 -1.6293 -0.4974
 3185TIP3    H231115   2.821   5.342   1.099  2.4171 -1.9268 -2.2883
 3186TIP3   OH231116   1.313   0.178   2.768  0.6584 -0.3778 -0.1553
 3186TIP3    H131117   1.335   0.271   2.759  1.4263 -0.2358  2.5032
 3186TIP3    H231118   1.226   0.178   2.810 -0.7589 -0.9484 -2.8532
 3187TIP3   OH231119   2.110   6.325   1.522 -0.2296  0.9219 -0.2004
 3187TIP3    H131120   2.139   6.393   1.583  2.0186  1.7481 -2.0325
 3187TIP3    H231121   2.178   6.258   1.525 -1.7491 -0.6816  0.5819
 3188TIP3   OH231122   4.679   5.979   1.936 -0.1255  0.6494  0.5669
 3188TIP3    H131123   4.719   6.052   1.890  1.4606  0.1325  1.0772
 3188TIP3    H231124   4.590   6.009   1.957 -0.2089  1.6166 -1.0606
 3189TIP3   OH231125   1.277   1.942   0.585  0.1775  0.3720 -1.0073
 3189TIP3    H131126   1.291   1.868   0.644 -2.6747 -0.1902 -0.8977
 3189TIP3    H231127   1.212   1.996   0.630  1.3740  2.4074 -1.5929
 3190TIP3   OH231128   3.599   3.787   1.609 -0.2282  0.8182  0.2803
 3190TIP3    H131129   3.556   3.831   1.682  0.2685 -0.0718  1.1264
 3190TIP3    H231130   3.672   3.845   1.586 -0.4434  1.1464  0.4120
 3191TIP3   OH231131   6.049   2.445   1.490 -0.0275  0.4597 -0.1930
 3191TIP3    H131132   5.982   2.395   1.536 -0.6284 -0.9905 -2.4654
 3191TIP3    H231133   6.075   2.513   1.552 -4.5509  1.9981  0.3654
 3192TIP3   OH231134   6.527   0.990   2.993  0.9698  0.7892 -0.2559
 3192TIP3    H131135   6.500   0.969   2.904  0.0673  0.1627  0.1576
 3192TIP3    H231136   6.602   0.933   3.010  0.4670  0.1270 -0.2363
 3193TIP3   OH231137   6.638   4.492   0.949 -0.2947 -0.3692 -0.7952
 3193TIP3    H131138   6.590   4.574   0.950  1.9522  1.0427 -0.9373
 3193TIP3    H231139   6.684   4.492   0.865  0.4820 -1.3228 -0.3969
 3194TIP3   OH231140   2.667   4.518   0.266  0.6373 -0.5287 -0.2943
 3194TIP3    H131141   2.603   4.577   0.306  0.1376 -0.7094 -0.8059
 3194TIP3    H231142   2.747   4.569   0.260  0.0492  0.3158 -1.2856
 3195TIP3   OH231143   5.470   1.658   0.434 -0.2248 -0.7283  0.1058
 3195TIP3    H131144   5.535   1.728   0.439 -0.8457 -0.1891  1.0973
 3195TIP3    H231145   5.521   1.577   0.438  0.4077 -0.3173  0.7176
 3196TIP3   OH231146   2.219   1.646   0.054 -0.6236 -0.1893  0.2724
 3196TIP3    H131147   2.238   1.632   0.147  1.7001 -0.6202 -0.2055
 3196TIP3    H231148   2.150   1.712   0.053 -0.4347  0.1000  2.2893
 3197TIP3   OH231149   4.151   2.296   8.310  0.0751  0.5025  0.0973
 3197TIP3    H131150   4.135   2.276   8.403 -1.1482 -1.2830 -0.4279
 3197TIP3    H231151   4.244   2.278   8.297  0.2041  0.5163  0.9177
 3198TIP3   OH231152   2.475   4.472   1.997  0.1313 -0.0937 -0.5486
 3198TIP3    H131153   2.521   4.548   1.960 -0.7227 -0.0192 -1.4735
 3198TIP3    H231154   2.533   4.398   1.978  1.0819  0.3273  0.5604
 3199TIP3   OH231155   6.749   0.364   3.399  0.0736 -0.2732 -0.2856
 3199TIP3    H131156   6.746   0.276   3.361 -0.0511 -2.0763  3.4582
 3199TIP3    H231157   6.659   0.395   3.396  0.2403  0.1238 -2.3153
 3200TIP3   OH231158   3.845   5.571   1.178 -0.1293 -0.0177 -0.4810
 3200TIP3    H131159   3.837   5.620   1.260  0.6486 -2.5776  1.2556
 3200TIP3    H231160   3.801   5.626   1.113 -1.9177  1.5629  1.8709
 3201TIP3   OH231161   6.591   5.888   0.798  0.1349  0.0710  0.7570
 3201TIP3    H131162   6.624   5.974   0.773 -0.4539 -0.0657 -0.6527
 3201TIP3    H231163   6.567   5.847   0.714 -0.5097 -1.0758  1.4711
 3202TIP3   OH231164   6.583   4.175   8.505 -0.6775 -0.3171 -0.8295
 3202TIP3    H131165   6.676   4.166   8.526 -0.5474  0.2533 -1.1384
 3202TIP3    H231166   6.562   4.266   8.526 -1.3682 -0.6494 -0.0113
 3203TIP3   OH231167   5.620   1.631   6.670  1.2604 -0.3445  0.6048
 3203TIP3    H131168   5.591   1.540   6.658 -0.1813  0.3385 -1.7523
 3203TIP3    H231169   5.715   1.626   6.659  1.2578 -1.6159  0.9287
 3204TIP3   OH231170   5.799   2.532   2.325 -0.0276  0.0053 -0.2144
 3204TIP3    H131171   5.806   2.463   2.392 -1.1820  1.7865  1.8957
 3204TIP3    H231172   5.861   2.599   2.354 -1.0087  1.0903 -0.5567
 3205TIP3   OH231173   0.931   3.919   8.254  0.0832 -0.2914 -0.7628
 3205TIP3    H131174   1.020   3.940   8.225  0.8424 -0.2469  1.3592
 3205TIP3    H231175   0.888   4.004   8.264  0.5983 -0.1541  0.4307
 3206TIP3   OH231176   4.070   0.487   2.072 -0.2192 -0.3435  0.6089
 3206TIP3    H131177   4.045   0.416   2.012  0.9205 -0.7271  0.5687
 3206TIP3    H231178   4.011   0.476   2.147 -0.1889 -1.2220  0.5188
 3207TIP3   OH231179   1.134   3.042   8.884  0.3521 -0.4911 -0.7597
 3207TIP3    H131180   1.185   3.070   8.808 -0.5926 -0.5813 -1.4508
 3207TIP3    H231181   1.046   3.026   8.849 -0.0799 -0.6129  0.3410
 3208TIP3   OH231182   2.199   2.919   7.909  0.5234 -0.0779  0.1934
 3208TIP3    H131183   2.282   2.872   7.917  1.2508  0.7200 -1.9137
 3208TIP3    H231184   2.211   2.975   7.833 -1.0452  2.0079  1.3728
 3209TIP3   OH231185   4.020   5.936   1.972 -0.0639 -0.6205  0.0712
 3209TIP3    H131186   3.972   5.880   1.911 -1.3386 -0.0959  0.5466
 3209TIP3    H231187   3.969   5.932   2.053  0.9707 -0.4043  0.7494
 3210TIP3   OH231188   3.522   0.687   7.921  0.2010  0.1038 -0.4444
 3210TIP3    H131189   3.480   0.675   7.836 -0.9943  1.3816 -0.0852
 3210TIP3    H231190   3.449   0.693   7.983  0.9303  1.4697  0.3427
 3211TIP3   OH231191   4.966   2.604   2.572  0.1731  0.3918 -0.4367
 3211TIP3    H131192   4.981   2.686   2.618 -0.0531  0.0149  0.3343
 3211TIP3    H231193   4.955   2.539   2.642 -0.9162 -0.0679 -1.0105
 3212TIP3   OH231194   6.447   1.446   1.498  0.3624  0.4065 -0.2786
 3212TIP3    H131195   6.541   1.448   1.510  0.2679  2.0730  0.3189
 3212TIP3    H231196   6.431   1.501   1.421 -0.2518  1.6755  0.7217
 3213TIP3   OH231197   5.762   3.969   2.093 -0.3186 -0.7722  0.1561
 3213TIP3    H131198   5.752   3.911   2.017 -1.9543  1.0331 -1.1173
 3213TIP3    H231199   5.830   4.031   2.067 -1.2032  0.1332 -0.0628
 3214TIP3   OH231200   5.711   4.482   8.387 -0.3690 -0.0952  0.4539
 3214TIP3    H131201   5.745   4.459   8.301  0.5472  0.6741  0.5887
 3214TIP3    H231202   5.682   4.399   8.425 -1.2566 -0.3713 -0.7826
 3215TIP3   OH231203   0.936   0.911   7.939  0.3019  0.5859 -0.1169
 3215TIP3    H131204   0.966   0.960   7.861 -1.8497  0.9305 -0.7944
 3215TIP3    H231205   0.926   0.978   8.006  0.5515  0.5423 -0.0336
 3216TIP3   OH231206   0.962   0.450   1.385  0.5923  0.6613 -0.4726
 3216TIP3    H131207   1.038   0.485   1.338  1.2988 -0.3096 -0.1017
 3216TIP3    H231208   0.936   0.373   1.334 -0.2242  1.0463 -0.6539
 3217TIP3   OH231209   0.233   0.540   7.759 -0.1259  0.5596 -0.3185
 3217TIP3    H131210   0.194   0.551   7.845  0.2885 -0.8826  0.0843
 3217TIP3    H231211   0.234   0.628   7.721 -0.2827  1.2206  1.1516
 3218TIP3   OH231212   4.695   5.217   1.905 -0.7929 -0.0438  0.4070
 3218TIP3    H131213   4.773   5.272   1.912 -1.2600  0.9190 -1.3669
 3218TIP3    H231214   4.651   5.247   1.825 -0.7529 -3.4151 -1.0512
 3219TIP3   OH231215   3.912   6.409   2.962 -0.3751  0.2702  0.5075
 3219TIP3    H131216   3.871   6.412   3.048  0.0986  1.3284  0.7151
 3219TIP3    H231217   3.922   6.315   2.943 -0.8839  0.0268  1.4043
 3220TIP3   OH231218   3.303   3.928   0.928  0.0401  0.3865 -0.3734
 3220TIP3    H131219   3.354   3.930   0.847 -0.7434  2.1693 -0.8922
 3220TIP3    H231220   3.233   3.865   0.911  2.6279 -3.1585  0.8390
 3221TIP3   OH231221   0.613   1.176   1.907 -0.3296 -0.0718  0.5283
 3221TIP3    H131222   0.594   1.090   1.943 -1.2429 -0.1617 -0.1452
 3221TIP3    H231223   0.584   1.237   1.976  0.2812 -0.2869  0.9866
 3222TIP3   OH231224   4.312   4.716   0.315 -0.8566 -0.0200  0.4377
 3222TIP3    H131225   4.343   4.806   0.325 -1.3944  0.2508 -0.2784
 3222TIP3    H231226   4.284   4.691   0.403 -0.9901  0.6186  0.5829
 3223TIP3   OH231227   0.143   5.610   1.455  0.1869 -0.0698 -0.2714
 3223TIP3    H131228   0.064   5.657   1.428 -1.1399 -1.6748  0.6381
 3223TIP3    H231229   0.208   5.632   1.388 -0.4234  2.7653 -0.0488
 3224TIP3   OH231230   3.762   5.021   8.336  0.1571  0.0600  0.1224
 3224TIP3    H131231   3.776   5.064   8.251  0.2950  1.1321  0.6623
 3224TIP3    H231232   3.844   4.976   8.354  0.2737  0.1674 -0.1383
 3225TIP3   OH231233   4.735   0.651   7.548  0.4928  0.1952  0.0849
 3225TIP3    H131234   4.787   0.626   7.472  1.4852  0.8085  0.5435
 3225TIP3    H231235   4.689   0.730   7.520 -0.4959 -0.5390 -0.4366
 3226TIP3   OH231236   5.405   3.332   8.129  0.1389 -0.5560  0.0044
 3226TIP3    H131237   5.496   3.310   8.108  0.4272 -0.2951  0.9549
 3226TIP3    H231238   5.410   3.418   8.171 -0.5542 -0.5205  0.0241
 3227TIP3   OH231239   3.862   1.520   6.926 -0.3691  0.4991 -0.2464
 3227TIP3    H131240   3.860   1.512   7.021  0.9261 -0.9245 -0.2999
 3227TIP3    H231241   3.942   1.570   6.908  0.2835 -0.6614 -0.6403
 3228TIP3   OH231242   4.092   1.877   7.311 -0.6963 -0.1439 -0.0606
 3228TIP3    H131243   4.145   1.932   7.370 -1.6041 -0.6051  1.2179
 3228TIP3    H231244   4.155   1.844   7.246  0.6523 -0.8659  1.5452
 3229TIP3   OH231245   5.768   0.070   7.406  0.7008  0.2960 -0.4096
 3229TIP3    H131246   5.687   0.114   7.381 -1.6349 -3.3558 -0.0311
 3229TIP3    H231247   5.773   0.083   7.501  0.6145  0.6024 -0.4443
 3230TIP3   OH231248   3.430   2.009   0.235  0.3236 -0.2590 -0.2696
 3230TIP3    H131249   3.408   2.057   0.315  1.6574  0.1221 -0.0976
 3230TIP3    H231250   3.478   1.933   0.265 -1.4134 -1.5341 -0.5733
 3231TIP3   OH231251   5.575   1.053   8.607 -0.2333  0.5517 -0.2352
 3231TIP3    H131252   5.629   1.077   8.532 -0.3872 -0.1447 -0.5820
 3231TIP3    H231253   5.487   1.082   8.583 -0.2785  0.3475 -0.3221
 3232TIP3   OH231254   1.919   1.097   0.490  0.4483 -0.0535  0.5084
 3232TIP3    H131255   1.975   1.022   0.509 -0.3815 -0.4045  1.6387
 3232TIP3    H231256   1.958   1.169   0.539  2.3099  0.7755 -1.9839
 3233TIP3   OH231257   2.451   6.435   8.570  0.6264  0.1428 -0.5036
 3233TIP3    H131258   2.502   6.461   8.493  1.7383 -0.0164  0.1577
 3233TIP3    H231259   2.517   6.418   8.637 -0.3324  0.4132  0.5284
 3234TIP3   OH231260   2.390   3.472   7.719 -0.2874  0.1570  0.2018
 3234TIP3    H131261   2.414   3.559   7.751 -0.1453 -0.2023  1.1221
 3234TIP3    H231262   2.295   3.477   7.707 -0.1617  0.7062 -0.6378
 3235TIP3   OH231263   4.765   3.897   2.000 -0.3599 -0.1667  0.2641
 3235TIP3    H131264   4.839   3.957   1.995 -1.6584  1.4667 -0.2956
 3235TIP3    H231265   4.791   3.833   2.066  2.0657 -0.4302 -0.8490
 3236TIP3   OH231266   0.096   0.630   6.998 -0.1811  0.0811  0.4114
 3236TIP3    H131267   0.033   0.575   7.044  0.7680  0.8144  2.7649
 3236TIP3    H231268   0.166   0.570   6.973 -0.6488 -0.3101  0.0228
 3237TIP3   OH231269   6.561   1.183   8.942 -0.1130  0.0825 -0.7281
 3237TIP3    H131270   6.538   1.175   9.035  0.5173  0.2222 -0.5536
 3237TIP3    H231271   6.533   1.100   8.904 -0.5919  0.1178 -0.4595
 3238TIP3   OH231272   3.548   6.596   8.722 -0.1303 -0.6039  0.0985
 3238TIP3    H131273   3.575   6.527   8.661 -0.8045  0.2062 -1.1713
 3238TIP3    H231274   3.531   6.672   8.666 -1.4869 -0.0370  1.2305
 3239TIP3   OH231275   5.981   6.175   8.095  0.3032  0.0630  0.5082
 3239TIP3    H131276   5.994   6.148   8.004 -2.4528 -0.1074  0.0795
 3239TIP3    H231277   5.998   6.096   8.146 -0.7089 -0.5998 -0.1334
 3240TIP3   OH231278   3.221   2.008   0.059  0.5794 -0.0440 -0.1880
 3240TIP3    H131279   3.219   1.916   0.032 -1.0361  0.0475 -0.5021
 3240TIP3    H231280   3.275   2.009   0.138 -2.2147 -1.9218  1.9581
 3241TIP3   OH231281   3.414   1.615   8.664  0.1674 -0.1094  0.1847
 3241TIP3    H131282   3.393   1.709   8.668  0.4543 -0.0020 -0.6042
 3241TIP3    H231283   3.352   1.574   8.723 -0.2191  0.5416  0.2385
 3242TIP3   OH231284   3.245   0.539   2.405 -0.3968 -0.0837 -0.7421
 3242TIP3    H131285   3.220   0.500   2.489  0.8091  0.1218 -0.2765
 3242TIP3    H231286   3.207   0.627   2.408 -1.1541 -0.4020 -0.8154
 3243TIP3   OH231287   3.254   3.530   7.480 -0.4064  0.7206 -0.1998
 3243TIP3    H131288   3.181   3.469   7.474  1.2704 -1.5174  0.5883
 3243TIP3    H231289   3.304   3.514   7.400  0.5090  0.3769  0.4206
 3244TIP3   OH231290   3.117   3.582   1.356  0.4000  0.0718  0.4343
 3244TIP3    H131291   3.202   3.563   1.397 -0.1942 -0.6076  1.3763
 3244TIP3    H231292   3.127   3.550   1.266  1.3791  0.6723  0.3056
 3245TIP3   OH231293   1.888   1.564   8.745 -0.0935  0.2617  0.1826
 3245TIP3    H131294   1.961   1.504   8.732  0.9140  1.4309  0.2826
 3245TIP3    H231295   1.893   1.588   8.838  0.4424  1.6138 -0.1643
 3246TIP3   OH231296   2.684   5.585   7.964 -0.3732 -0.3329 -0.2897
 3246TIP3    H131297   2.724   5.657   7.916 -1.9875  2.3644  2.1312
 3246TIP3    H231298   2.752   5.557   8.026 -0.5929  1.0424  0.6186
 3247TIP3   OH231299   0.126   5.709   7.532 -0.7089  0.0062 -0.0294
 3247TIP3    H131300   0.171   5.794   7.520  0.1935 -0.3130  0.9568
 3247TIP3    H231301   0.070   5.702   7.455 -2.0643  2.2567  0.6459
 3248TIP3   OH231302   2.887   5.657   8.386  0.1191 -0.0942 -0.2090
 3248TIP3    H131303   2.840   5.721   8.333 -0.4275 -0.3487 -0.0373
 3248TIP3    H231304   2.980   5.680   8.375 -0.0974  1.1512  0.4068
 3249TIP3   OH231305   5.125   6.442   6.924 -0.1381 -0.2875 -0.6193
 3249TIP3    H131306   5.178   6.380   6.976  0.9602  0.6152 -0.6351
 3249TIP3    H231307   5.128   6.408   6.835  1.6518  0.5182 -0.9012
 3250TIP3   OH231308   6.424   1.736   2.193 -0.0614 -0.0005 -0.6526
 3250TIP3    H131309   6.505   1.686   2.197 -0.5111 -0.7591 -0.8078
 3250TIP3    H231310   6.355   1.671   2.200 -0.6927  0.3926 -2.5854
 3251TIP3   OH231311   1.049   4.420   8.856 -0.1196 -0.4749  0.0477
 3251TIP3    H131312   1.067   4.510   8.886 -1.6016  0.1089 -0.6793
 3251TIP3    H231313   1.130   4.391   8.816  0.0274  1.0383 -0.8177
 3252TIP3   OH231314   1.057   6.045   7.818  0.3315  0.6088  0.3797
 3252TIP3    H131315   1.063   6.000   7.902 -1.0154  0.1078  0.2303
 3252TIP3    H231316   1.032   6.135   7.841 -2.5298 -0.1312  0.4491
 3253TIP3   OH231317   4.261   5.347   6.932  0.3493 -0.4068 -0.3519
 3253TIP3    H131318   4.180   5.317   6.974  0.9073 -0.0063  1.0814
 3253TIP3    H231319   4.307   5.266   6.911  0.9895 -0.6417  1.7618
 3254TIP3   OH231320   6.641   3.665   6.635 -0.1168 -0.1503  0.2646
 3254TIP3    H131321   6.590   3.591   6.669 -0.6090  0.4626  0.8763
 3254TIP3    H231322   6.608   3.741   6.683  1.4158  0.2586  0.7081
 3255TIP3   OH231323   4.945   4.961   0.906  0.4749  0.2833  0.1149
 3255TIP3    H131324   5.000   4.953   0.828  0.3512  1.7070 -0.1404
 3255TIP3    H231325   4.966   4.883   0.957  3.1020  0.9786  0.2594
 3256TIP3   OH231326   5.268   5.700   3.276  0.5416 -0.2549 -0.1073
 3256TIP3    H131327   5.331   5.755   3.230  2.1078  0.0528  2.2254
 3256TIP3    H231328   5.235   5.640   3.209  0.7621  1.7829 -2.1306
 3257TIP3   OH231329   6.570   4.633   8.811  0.2487  0.3438  0.4512
 3257TIP3    H131330   6.595   4.593   8.894 -0.0915 -0.0665  0.3599
 3257TIP3    H231331   6.597   4.569   8.745 -1.1676 -0.1882  0.3604
 3258TIP3   OH231332   3.707   0.968   1.713 -0.2254  0.2444 -0.1749
 3258TIP3    H131333   3.671   1.032   1.651  0.9881  1.1345 -0.0022
 3258TIP3    H231334   3.670   0.993   1.798 -0.4802  0.1269 -0.2485
 3259TIP3   OH231335   5.397   3.393   2.492 -0.0370  0.8379  0.0617
 3259TIP3    H131336   5.357   3.430   2.413 -0.0188  1.3339  0.2807
 3259TIP3    H231337   5.447   3.465   2.529 -0.0116  0.5938  0.5046
 3260TIP3   OH231338   2.209   5.659   0.321  0.1398  0.2915  0.2175
 3260TIP3    H131339   2.167   5.716   0.256 -0.7616  0.1381  0.6464
 3260TIP3    H231340   2.196   5.705   0.404 -1.1675 -0.8184  0.6576
 3261TIP3   OH231341   5.589   0.144   0.781 -0.7324 -0.0197  0.0051
 3261TIP3    H131342   5.661   0.114   0.725 -1.8440 -1.7678 -0.5555
 3261TIP3    H231343   5.537   0.200   0.723 -0.5545  0.1642  0.0210
 3262TIP3   OH231344   0.367   5.571   1.849  0.6534  0.1101  0.5558
 3262TIP3    H131345   0.369   5.475   1.849 -0.7542  0.0519  0.0016
 3262TIP3    H231346   0.346   5.594   1.939 -1.6195 -0.2353  0.1607
 3263TIP3   OH231347   2.490   3.200   1.779 -0.3249 -0.3553 -0.0452
 3263TIP3    H131348   2.520   3.109   1.782 -1.5235 -0.7651 -0.0382
 3263TIP3    H231349   2.414   3.198   1.721 -0.3635  0.6500 -0.0412
 3264TIP3   OH231350   3.202   1.746   8.911 -0.0592  0.1099 -0.2675
 3264TIP3    H131351   3.296   1.727   8.908 -0.0490 -0.4849  1.8670
 3264TIP3    H231352   3.161   1.660   8.910 -0.4048  0.2079  1.5553
 3265TIP3   OH231353   2.557   1.981   1.816  0.2622 -0.5632  0.1738
 3265TIP3    H131354   2.547   1.888   1.796  1.3640 -0.4698 -0.9811
 3265TIP3    H231355   2.641   1.988   1.861  0.4776 -0.0748 -0.2795
 3266TIP3   OH231356   3.861   1.705   8.506  0.1224 -0.6877 -0.1933
 3266TIP3    H131357   3.854   1.785   8.454 -0.0631 -0.6136 -0.0553
 3266TIP3    H231358   3.891   1.735   8.592 -1.5825 -0.5492  0.3970
 3267TIP3   OH231359   1.153   1.458   1.325 -0.8183  0.6066 -0.1844
 3267TIP3    H131360   1.145   1.420   1.238  0.2154 -0.0982  0.0105
 3267TIP3    H231361   1.064   1.453   1.361 -0.8337 -1.1653 -0.3672
 3268TIP3   OH231362   1.939   5.059   1.187 -0.2527 -0.0137 -0.0011
 3268TIP3    H131363   1.973   5.143   1.217 -0.1026 -0.3561  0.8017
 3268TIP3    H231364   1.948   5.001   1.262 -1.2768 -0.4898 -0.2309
 3269TIP3   OH231365   5.089   6.656   1.306 -0.4173  0.4742 -0.0847
 3269TIP3    H131366   5.065   6.743   1.340 -0.4781 -0.1929  1.6649
 3269TIP3    H231367   5.184   6.658   1.300 -0.2327 -0.0065  1.9907
 3270TIP3   OH231368   0.093   3.248   7.330  0.4767  0.3311 -0.5497
 3270TIP3    H131369   0.096   3.200   7.413  0.2823 -0.6008 -1.0802
 3270TIP3    H231370   0.067   3.337   7.356  1.7507  0.4247  0.5501
 3271TIP3   OH231371   5.014   2.160   2.361  0.1120 -0.0626  0.1167
 3271TIP3    H131372   5.013   2.130   2.451  1.4177  1.3848  0.6624
 3271TIP3    H231373   5.066   2.095   2.314 -1.1209 -1.1694  0.2375
 3272TIP3   OH231374   3.002   3.051   2.096 -0.4163  0.3764  0.4370
 3272TIP3    H131375   3.057   3.013   2.165 -0.5148 -1.1328 -0.2815
 3272TIP3    H231376   2.953   3.120   2.141  0.3512  0.1904  1.6233
 3273TIP3   OH231377   3.257   4.797   7.987  0.1949 -0.4715 -0.2794
 3273TIP3    H131378   3.282   4.741   7.914 -0.2086 -0.5045 -0.3971
 3273TIP3    H231379   3.339   4.833   8.019  0.6609 -2.4328  0.8732
 3274TIP3   OH231380   2.939   0.215   8.150 -0.1097 -0.5425 -0.1066
 3274TIP3    H131381   2.892   0.154   8.092 -0.9208 -0.1746  0.1458
 3274TIP3    H231382   3.022   0.231   8.106  0.1073 -1.8010 -0.2010
 3275TIP3   OH231383   4.078   1.464   7.675 -0.0988 -0.8380 -0.7388
 3275TIP3    H131384   4.117   1.483   7.590 -0.3293  0.9539 -0.4742
 3275TIP3    H231385   4.030   1.544   7.698  1.2304 -0.6800  1.7897
 3276TIP3   OH231386   6.534   3.644   0.507  0.1705 -0.1510  1.0213
 3276TIP3    H131387   6.576   3.692   0.435 -0.3387 -2.2963 -0.8221
 3276TIP3    H231388   6.606   3.595   0.548  0.0466 -1.2393 -0.0005
 3277TIP3   OH231389   1.712   6.433   1.020 -0.1033 -0.0901 -0.3735
 3277TIP3    H131390   1.747   6.367   0.960 -1.0338  0.4384 -1.5469
 3277TIP3    H231391   1.617   6.418   1.020 -0.0265 -0.9832  2.1172
 3278TIP3   OH231392   0.173   4.829   8.784 -0.3443 -0.3958  0.5523
 3278TIP3    H131393   0.203   4.741   8.807 -2.3396 -0.8246  1.8295
 3278TIP3    H231394   0.212   4.847   8.699  2.3739 -1.3464  1.4978
 3279TIP3   OH231395   6.702   2.168   1.843 -0.8515 -0.6591  0.0414
 3279TIP3    H131396   6.626   2.164   1.901 -0.1314  1.5044  1.2771
 3279TIP3    H231397   6.761   2.230   1.886  1.4444 -1.9365 -1.1015
 3280TIP3   OH231398   2.084   0.948   2.544  0.1832 -0.2616  0.0355
 3280TIP3    H131399   2.165   0.966   2.591 -0.0567 -2.0694  1.2511
 3280TIP3    H231400   2.020   1.010   2.581  0.9923  1.2738 -1.0385
 3281TIP3   OH231401   2.596   2.679   0.426  0.5203 -0.3202 -0.0967
 3281TIP3    H131402   2.680   2.707   0.462  1.5937  0.2329 -2.7354
 3281TIP3    H231403   2.621   2.625   0.350 -1.5443 -1.7716  0.1866
 3282TIP3   OH231404   4.299   4.409   0.699 -0.3994 -0.3981 -0.3585
 3282TIP3    H131405   4.324   4.384   0.788  0.6146  0.4002 -0.3972
 3282TIP3    H231406   4.293   4.326   0.652  1.5508 -0.6966 -0.1573
 3283TIP3   OH231407   2.484   5.978   1.975  0.4961 -0.0325 -0.3848
 3283TIP3    H131408   2.484   5.970   1.879 -2.0915  1.1764 -0.5668
 3283TIP3    H231409   2.460   5.891   2.006 -0.1550 -0.0475 -0.9105
 3284TIP3   OH231410   2.094   6.494   0.483  0.7372 -0.0261 -0.2766
 3284TIP3    H131411   2.138   6.426   0.535 -0.7207 -0.4654  0.4400
 3284TIP3    H231412   2.125   6.577   0.520 -1.1665 -0.3057  2.2125
 3285TIP3   OH231413   2.352   4.908   7.730 -0.2457  0.5313  0.0562
 3285TIP3    H131414   2.288   4.959   7.680 -0.5030  1.0639  0.8947
 3285TIP3    H231415   2.436   4.925   7.687 -0.5267  0.6262 -0.4545
 3286TIP3   OH231416   1.570   1.923   7.769 -0.0519  0.1576  0.5329
 3286TIP3    H131417   1.553   1.952   7.680  0.6672 -1.5311 -0.1968
 3286TIP3    H231418   1.618   1.996   7.809 -0.5769  1.0210 -0.3660
 3287TIP3   OH231419   2.418   5.145   1.604 -0.4023 -1.1827  0.1812
 3287TIP3    H131420   2.458   5.189   1.679  0.1839  2.3323 -1.9759
 3287TIP3    H231421   2.479   5.161   1.532 -2.6964 -1.1384 -1.8537
 3288TIP3   OH231422   3.712   4.276   0.083  0.3898  0.4837 -0.0822
 3288TIP3    H131423   3.733   4.354   0.135  2.5441 -0.6709  0.9580
 3288TIP3    H231424   3.673   4.215   0.146 -1.4440  0.7188 -0.9215
 3289TIP3   OH231425   5.015   0.445   8.691 -0.3184  0.6318  0.3005
 3289TIP3    H131426   4.933   0.487   8.716 -0.6070  1.2542 -1.5396
 3289TIP3    H231427   5.005   0.354   8.719 -2.0184  0.4783 -0.6671
 3290TIP3   OH231428   5.952   4.021   1.508 -0.0530  0.2820  0.3471
 3290TIP3    H131429   5.923   4.038   1.418  2.0869 -0.1781 -0.5023
 3290TIP3    H231430   6.039   4.062   1.512  0.0207  0.0018  2.1088
 3291TIP3   OH231431   1.318   2.630   1.366 -0.3449  0.5358  0.1637
 3291TIP3    H131432   1.258   2.703   1.354 -1.0821 -0.0880  0.0445
 3291TIP3    H231433   1.372   2.657   1.441  0.4876  1.9052 -0.8722
 3292TIP3   OH231434   4.814   2.324   1.819  0.1324 -0.6910  0.0351
 3292TIP3    H131435   4.752   2.356   1.885 -0.4567 -1.2490 -0.2320
 3292TIP3    H231436   4.769   2.250   1.778  1.1488 -1.3789  0.1244
 3293TIP3   OH231437   3.735   4.362   2.088 -0.1716  0.6290  0.2925
 3293TIP3    H131438   3.715   4.292   2.150  0.3946 -0.6090 -0.8634
 3293TIP3    H231439   3.766   4.434   2.142 -2.1800  0.5404  1.6375
 3294TIP3   OH231440   6.216   4.680   7.028  0.2460 -0.2484  0.0049
 3294TIP3    H131441   6.172   4.765   7.032  2.1897  0.9164 -1.4066
 3294TIP3    H231442   6.146   4.618   7.007 -1.3482  0.8468  1.7574
 3295TIP3   OH231443   6.004   2.475   2.830  0.2015 -0.5833  0.3028
 3295TIP3    H131444   5.981   2.489   2.922 -0.3913 -0.9860  0.2237
 3295TIP3    H231445   5.949   2.538   2.782  0.7377 -0.1548  0.2413
 3296TIP3   OH231446   0.521   2.892   0.548  0.1658 -0.2648 -0.4730
 3296TIP3    H131447   0.454   2.899   0.479 -0.6728  1.8988  0.4911
 3296TIP3    H231448   0.565   2.977   0.547  0.4685 -0.3769  1.3335
 3297TIP3   OH231449   2.969   2.326   2.291 -0.0818 -0.0351  0.0492
 3297TIP3    H131450   2.988   2.356   2.380 -1.3819 -0.7682  0.6132
 3297TIP3    H231451   2.886   2.278   2.300  0.5855 -1.5176 -1.2626
 3298TIP3   OH231452   2.739   1.890   1.213 -0.1792 -0.1183  0.1081
 3298TIP3    H131453   2.823   1.937   1.218 -0.7746  0.9285  0.4470
 3298TIP3    H231454   2.752   1.828   1.141  0.9790 -0.1611  0.3203
 3299TIP3   OH231455   2.280   0.478   7.057 -0.3086 -0.6720  0.2674
 3299TIP3    H131456   2.248   0.551   7.004 -0.5035 -0.8711  0.1035
 3299TIP3    H231457   2.210   0.413   7.052  0.8577 -1.8922 -1.6401
 3300TIP3   OH231458   3.904   1.656   1.308  0.2868  0.1343  0.1284
 3300TIP3    H131459   3.920   1.743   1.272 -1.0799  0.7431  0.9334
 3300TIP3    H231460   3.902   1.599   1.231 -0.7810  1.1285 -0.6147
 3301TIP3   OH231461   3.388   3.906   7.257 -0.6787 -0.4674 -0.0114
 3301TIP3    H131462   3.363   3.951   7.176 -0.3472  0.5740  0.4376
 3301TIP3    H231463   3.448   3.837   7.230  0.2899  0.5615 -0.5696
 3302TIP3   OH231464   5.726   3.730   0.346  0.3080 -0.2454  0.4066
 3302TIP3    H131465   5.783   3.743   0.422  0.5930 -1.7874  0.4806
 3302TIP3    H231466   5.701   3.638   0.350 -2.4151  0.4369  0.5094
 3303TIP3   OH231467   0.114   4.047   1.824 -0.0190 -0.0312 -0.7577
 3303TIP3    H131468   0.171   4.124   1.821 -0.4571  0.2870 -3.7767
 3303TIP3    H231469   0.075   4.050   1.912  0.1539  3.0574 -0.6673
 3304TIP3   OH231470   4.226   5.687   0.894  0.0001 -0.6340  0.4029
 3304TIP3    H131471   4.204   5.759   0.836 -0.2109  0.9377  2.3321
 3304TIP3    H231472   4.215   5.608   0.840 -0.4150  0.7022 -1.5681
 3305TIP3   OH231473   0.623   4.070   0.481  0.2667 -0.1729 -0.0971
 3305TIP3    H131474   0.713   4.101   0.491 -0.0822  1.3793 -1.3092
 3305TIP3    H231475   0.627   4.005   0.412  0.1012  2.1025 -2.4093
 3306TIP3   OH231476   6.593   3.691   7.437  0.3702 -0.3146 -0.4307
 3306TIP3    H131477   6.575   3.756   7.505  0.8398  0.0413 -0.6464
 3306TIP3    H231478   6.551   3.726   7.358 -1.0418 -1.2019 -0.1243
 3307TIP3   OH231479   1.225   5.790   1.737  0.5141 -0.3423  0.2675
 3307TIP3    H131480   1.218   5.767   1.644 -1.3731 -0.2287  0.3489
 3307TIP3    H231481   1.136   5.783   1.771  0.9148  1.0693  1.7497
 3308TIP3   OH231482   0.354   2.393   0.324  0.0496 -0.1577 -0.4999
 3308TIP3    H131483   0.298   2.317   0.337 -0.4678  0.1403 -0.9037
 3308TIP3    H231484   0.347   2.443   0.405  1.3531 -1.1203  0.2591
 3309TIP3   OH231485   2.792   4.868   0.122 -0.1277  0.4461 -0.2708
 3309TIP3    H131486   2.758   4.847   0.035  1.1203 -0.4835 -0.5612
 3309TIP3    H231487   2.807   4.783   0.163  2.1626  0.7643 -0.3211
 3310TIP3   OH231488   6.306   2.368   2.325 -0.1169 -0.4958 -0.2425
 3310TIP3    H131489   6.269   2.441   2.375 -1.2021 -0.9702 -0.3277
 3310TIP3    H231490   6.399   2.369   2.347 -0.8298 -2.0982  3.7123
 3311TIP3   OH231491   2.602   0.756   2.137 -0.3129  0.1396 -0.1514
 3311TIP3    H131492   2.636   0.701   2.066 -2.0337 -0.7027 -0.3803
 3311TIP3    H231493   2.510   0.728   2.146  0.2161 -0.8691  3.4132
 3312TIP3   OH231494   6.476   6.418   2.744 -0.3319  0.3788  0.1136
 3312TIP3    H131495   6.519   6.473   2.810 -0.3528 -0.3669  0.7657
 3312TIP3    H231496   6.528   6.338   2.742 -1.1736 -0.1868  0.2842
 3313TIP3   OH231497   3.584   4.372   1.816 -0.0470 -0.1659 -0.0223
 3313TIP3    H131498   3.595   4.389   1.909 -0.9150  3.2903 -0.4267
 3313TIP3    H231499   3.645   4.431   1.773 -0.0482 -1.2998 -1.6939
 3314TIP3   OH231500   0.602   4.092   7.967 -0.5902 -0.7846  0.4718
 3314TIP3    H131501   0.604   4.076   7.873 -2.5035 -0.1932  0.2791
 3314TIP3    H231502   0.564   4.180   7.976 -0.0787 -0.6726  1.7766
 3315TIP3   OH231503   6.303   4.323   8.841  0.0452 -0.3221 -0.2534
 3315TIP3    H131504   6.284   4.406   8.885 -0.4366 -0.6612  0.1897
 3315TIP3    H231505   6.299   4.345   8.747  1.9288  0.5904 -0.1675
 3316TIP3   OH231506   2.538   1.703   1.303  0.0453  0.7355  0.0391
 3316TIP3    H131507   2.486   1.741   1.374 -0.7711  0.4249 -0.3777
 3316TIP3    H231508   2.601   1.646   1.348 -0.1792  0.8667  0.5346
 3317TIP3   OH231509   0.110   5.833   0.777  0.0469 -0.2462  0.2971
 3317TIP3    H131510   0.139   5.919   0.809  1.5032 -0.4278 -0.4595
 3317TIP3    H231511   0.020   5.825   0.809  1.0065  0.0209  3.4523
 3318TIP3   OH231512   3.445   2.209   7.394 -0.7642  0.3897 -0.1536
 3318TIP3    H131513   3.446   2.180   7.485 -1.8227 -1.5226 -0.6817
 3318TIP3    H231514   3.517   2.162   7.353 -0.5321  0.9413 -0.3765
 3319TIP3   OH231515   1.478   0.127   0.317 -0.4002 -0.7074 -0.6693
 3319TIP3    H131516   1.483   0.221   0.336 -1.5719 -0.4026 -1.7748
 3319TIP3    H231517   1.478   0.086   0.404  1.5984  0.1910 -0.1799
 3320TIP3   OH231518   1.698   1.790   0.687  0.5888  0.2733  0.3469
 3320TIP3    H131519   1.707   1.705   0.729  1.5240  0.8023  1.2437
 3320TIP3    H231520   1.737   1.852   0.748  2.6210  0.9992 -1.5543
 3321TIP3   OH231521   6.398   0.814   0.446  0.1307 -0.7356 -0.0839
 3321TIP3    H131522   6.461   0.793   0.377 -0.1733  0.7001 -0.8421
 3321TIP3    H231523   6.432   0.895   0.484 -1.1243 -0.0599 -0.3546
 3322TIP3   OH231524   1.268   3.858   2.155 -0.8593 -0.1509 -0.0059
 3322TIP3    H131525   1.211   3.912   2.100 -2.8709  0.3065  2.3801
 3322TIP3    H231526   1.278   3.907   2.236  1.1168 -1.2919  0.5143
 3323TIP3   OH231527   4.258   2.995   8.610 -0.2074  0.2714 -0.0425
 3323TIP3    H131528   4.328   2.939   8.645 -1.8730 -2.8236 -1.3160
 3323TIP3    H231529   4.191   2.995   8.679 -1.5582 -2.0876 -1.2427
 3324TIP3   OH231530   3.927   5.420   8.167 -0.4023  0.2525 -0.2339
 3324TIP3    H131531   3.850   5.465   8.203 -0.5580 -0.8923  0.9446
 3324TIP3    H231532   3.891   5.346   8.119 -0.0683 -0.0139 -0.0811
 3325TIP3   OH231533   4.531   4.134   1.902  0.3800 -0.3262  0.3370
 3325TIP3    H131534   4.455   4.187   1.877 -1.5638 -2.4241  1.4486
 3325TIP3    H231535   4.499   4.044   1.899  2.6251 -1.2336  1.6234
 3326TIP3   OH231536   1.065   1.471   7.200 -0.2533  0.0184 -0.2739
 3326TIP3    H131537   1.006   1.490   7.273  0.1056 -0.5692  0.1771
 3326TIP3    H231538   1.037   1.386   7.167  0.0581 -0.0591 -0.3471
 3327TIP3   OH231539   4.541   3.028   8.584  0.4713  0.1170  0.9018
 3327TIP3    H131540   4.502   3.094   8.641  0.7796 -1.5442  3.1370
 3327TIP3    H231541   4.552   2.951   8.639  1.2824 -1.4381 -1.2851
 3328TIP3   OH231542   6.743   0.770   1.938 -0.6306  0.3310 -0.3231
 3328TIP3    H131543   6.670   0.710   1.926  1.0088 -1.9316  0.3376
 3328TIP3    H231544   6.794   0.762   1.857 -0.1507  0.4971 -0.0388
 3329TIP3   OH231545   3.736   0.832   2.084  0.9395 -0.2870  0.3713
 3329TIP3    H131546   3.822   0.846   2.043  0.3955 -0.2899 -0.8314
 3329TIP3    H231547   3.734   0.893   2.157  1.2964  0.9940 -0.6457
 3330TIP3   OH231548   5.507   5.472   2.262  0.0408 -0.1566 -0.2344
 3330TIP3    H131549   5.539   5.433   2.181  0.4699  0.2373 -0.2560
 3330TIP3    H231550   5.443   5.409   2.295 -0.5626 -0.0609 -1.1724
 3331TIP3   OH231551   3.373   2.244   8.893 -1.1566 -0.4668  0.2237
 3331TIP3    H131552   3.363   2.151   8.877  0.3936 -0.4806 -0.9320
 3331TIP3    H231553   3.451   2.269   8.843 -0.7103  1.1659  1.6308
 3332TIP3   OH231554   4.013   5.341   7.329  0.5286 -0.2670 -0.5509
 3332TIP3    H131555   3.976   5.420   7.368  1.2650  0.5789 -1.5439
 3332TIP3    H231556   4.040   5.288   7.404 -1.1122 -0.1673  0.1637
 3333TIP3   OH231557   2.682   2.761   8.706  0.4111  0.4762  0.5165
 3333TIP3    H131558   2.750   2.736   8.644 -0.7872 -1.1452 -0.2344
 3333TIP3    H231559   2.680   2.857   8.703  0.1372  0.4740 -2.2910
 3334TIP3   OH231560   3.833   1.809   0.098  0.0871  0.1932  0.1501
 3334TIP3    H131561   3.876   1.730   0.064 -0.1916  0.8568 -1.8730
 3334TIP3    H231562   3.765   1.775   0.157  1.0029 -0.9983  0.5618
 3335TIP3   OH231563   4.015   4.718   0.597 -0.4427  0.8261 -0.3792
 3335TIP3    H131564   4.108   4.736   0.588  0.2233 -1.2679  1.3967
 3335TIP3    H231565   3.995   4.658   0.526 -0.6448  1.8335 -1.1946
 3336TIP3   OH231566   2.275   4.368   7.870  0.4480  0.1012 -0.0561
 3336TIP3    H131567   2.237   4.349   7.784 -2.3819  2.6497  0.4448
 3336TIP3    H231568   2.272   4.285   7.917 -1.1107 -0.6225 -1.3538
 3337TIP3   OH231569   1.559   1.400   1.250  0.0839 -0.2970 -0.1429
 3337TIP3    H131570   1.587   1.412   1.159  0.6371 -0.3793  0.0138
 3337TIP3    H231571   1.566   1.305   1.265  1.8433 -0.1051  0.5554
 3338TIP3   OH231572   6.000   4.116   1.027 -0.5112  0.1048  0.1783
 3338TIP3    H131573   5.964   4.038   1.069 -0.3737 -0.3807 -0.5882
 3338TIP3    H231574   6.095   4.102   1.028 -0.4617  0.4261  0.3407
 3339TIP3   OH231575   0.165   3.967   1.253 -0.2307  0.0124 -0.1954
 3339TIP3    H131576   0.234   3.916   1.212 -1.9965 -3.7367  1.0147
 3339TIP3    H231577   0.190   3.971   1.345  0.5135  2.6535 -0.4531
 3340TIP3   OH231578   4.994   2.792   0.614  0.2813  0.2628  0.0401
 3340TIP3    H131579   5.063   2.859   0.620 -0.6866  1.2280  1.0391
 3340TIP3    H231580   4.951   2.810   0.530  1.1125 -0.2118 -0.4899
 3341TIP3   OH231581   3.722   4.270   7.616  0.1234 -0.0894  0.4347
 3341TIP3    H131582   3.786   4.333   7.583 -0.6856  0.7911  0.4926
 3341TIP3    H231583   3.706   4.298   7.706 -0.2169 -0.4104  0.4737
 3342TIP3   OH231584   0.835   2.489   1.835 -0.2220  0.2488 -0.2416
 3342TIP3    H131585   0.854   2.582   1.848  1.5871 -0.2808  1.3550
 3342TIP3    H231586   0.921   2.450   1.818 -0.5862 -1.4710  1.5795
 3343TIP3   OH231587   1.738   1.640   1.289 -0.4515 -0.6602 -0.3958
 3343TIP3    H131588   1.714   1.548   1.280  0.1356 -0.8476 -0.0686
 3343TIP3    H231589   1.823   1.647   1.244 -0.5806 -0.2391 -0.5810
 3344TIP3   OH231590   3.606   0.243   7.490  0.0776 -0.7633 -0.1470
 3344TIP3    H131591   3.532   0.252   7.430 -2.4278 -0.2160  2.7454
 3344TIP3    H231592   3.636   0.333   7.505  1.2303 -0.9642 -1.1265
 3345TIP3   OH231593   2.092   4.040   1.003 -0.6340  0.0302  0.4335
 3345TIP3    H131594   2.071   4.113   1.061 -0.1565  0.7955 -0.3295
 3345TIP3    H231595   2.061   4.068   0.916 -2.1632 -1.4622  0.4387
 3346TIP3   OH231596   4.198   6.376   0.559 -0.5934 -0.5140 -0.2601
 3346TIP3    H131597   4.105   6.353   0.555 -1.6336  2.8579  0.9894
 3346TIP3    H231598   4.210   6.436   0.485  0.6295 -1.0040 -0.4721
 3347TIP3   OH231599   3.976   0.788   1.971 -0.6564  0.1592  0.0083
 3347TIP3    H131600   4.029   0.710   1.985  0.4683  1.0669  1.0958
 3347TIP3    H231601   3.997   0.815   1.881  0.3421  0.2046  0.2421
 3348TIP3   OH231602   4.092   6.171   2.768 -0.1586 -0.0817 -0.1368
 3348TIP3    H131603   4.141   6.252   2.785  1.2550 -0.6728 -1.1645
 3348TIP3    H231604   4.056   6.147   2.853 -0.7066  1.6672  0.1726
 3349TIP3   OH231605   4.559   5.620   0.909  0.1086 -0.5767 -0.1568
 3349TIP3    H131606   4.567   5.573   0.826 -0.3582 -0.4463 -0.2773
 3349TIP3    H231607   4.476   5.667   0.903  0.4373  0.0475  0.0757
 3350TIP3   OH231608   1.979   4.699   1.176 -0.2539  0.3529  0.0014
 3350TIP3    H131609   1.896   4.659   1.202  0.9784 -2.2386  0.2408
 3350TIP3    H231610   1.980   4.692   1.081  0.0718 -0.4537  0.0608
 3351TIP3   OH231611   0.052   1.416   0.841 -0.5074  0.2447  0.7684
 3351TIP3    H131612   0.099   1.440   0.920  0.3500  0.8428  0.0969
 3351TIP3    H231613   0.119   1.379   0.783 -0.8334  1.1569 -0.2288
 3352TIP3   OH231614   0.930   1.179   7.435 -0.7609  0.4438 -0.0716
 3352TIP3    H131615   1.025   1.179   7.420 -1.1020 -0.3504 -2.6099
 3352TIP3    H231616   0.893   1.213   7.354 -2.6959 -0.2296  0.4858
 3353TIP3   OH231617   5.977   4.173   7.825 -0.0890  0.4422 -0.0426
 3353TIP3    H131618   6.063   4.133   7.835  0.1048  1.4384  3.5196
 3353TIP3    H231619   5.926   4.109   7.774  1.8902 -1.5086  0.3093
 3354TIP3   OH231620   3.766   0.097   6.799  0.2838 -0.1609  0.1313
 3354TIP3    H131621   3.720   0.147   6.732 -1.0018  0.2103  1.2484
 3354TIP3    H231622   3.705   0.027   6.823  1.1500 -0.9195  0.1963
 3355TIP3   OH231623   0.993   3.944   2.328 -0.3420 -0.1189 -0.3952
 3355TIP3    H131624   0.936   3.914   2.399 -0.1834  0.4898 -0.0043
 3355TIP3    H231625   1.074   3.971   2.371  0.3290 -1.1405 -0.9656
 3356TIP3   OH231626   6.557   1.439   7.789  0.0380  0.6559  0.1695
 3356TIP3    H131627   6.487   1.375   7.798 -0.6862  1.4023 -0.0503
 3356TIP3    H231628   6.516   1.523   7.809  0.9405  1.0710  0.3288
 3357TIP3   OH231629   2.403   3.424   8.440 -0.5378  0.1173 -0.3144
 3357TIP3    H131630   2.338   3.484   8.476 -0.8021 -0.6964  0.5752
 3357TIP3    H231631   2.409   3.449   8.347 -1.9888  0.3216 -0.3805
 3358TIP3   OH231632   4.758   3.449   8.474  0.2742 -0.7970  0.1993
 3358TIP3    H131633   4.728   3.437   8.564 -0.2131  0.0477  0.1658
 3358TIP3    H231634   4.691   3.505   8.434  1.2785  0.1350 -0.2323
 3359TIP3   OH231635   0.649   2.335   0.364 -0.0332 -0.8461  0.0657
 3359TIP3    H131636   0.688   2.360   0.448 -0.6120 -3.4930  1.2196
 3359TIP3    H231637   0.571   2.391   0.356  1.1082  0.8501  0.2369
 3360TIP3   OH231638   3.391   4.981   2.085 -0.0496 -0.7872 -0.5687
 3360TIP3    H131639   3.309   5.008   2.044  0.0250  0.7380  0.2106
 3360TIP3    H231640   3.459   5.027   2.035  0.1059  0.2736  0.5613
 3361TIP3   OH231641   3.884   0.162   2.396  0.2344 -0.1313  0.5380
 3361TIP3    H131642   3.862   0.249   2.363 -0.3350 -1.1039 -1.8198
 3361TIP3    H231643   3.815   0.143   2.459 -0.1008  0.7757  0.4645
 3362TIP3   OH231644   3.035   0.240   7.816 -0.1136  0.0809  0.0009
 3362TIP3    H131645   3.104   0.256   7.752  0.1923 -1.0927  0.0133
 3362TIP3    H231646   3.077   0.253   7.901  0.4477 -1.7485  0.0505
 3363TIP3   OH231647   1.555   4.151   0.620 -0.7298 -0.1454 -0.5938
 3363TIP3    H131648   1.518   4.227   0.664 -0.9222 -0.8393  0.4785
 3363TIP3    H231649   1.491   4.129   0.552 -2.1084 -1.0610  0.9523
 3364TIP3   OH231650   1.944   1.524   0.855 -0.3270  0.0472  0.0576
 3364TIP3    H131651   1.916   1.588   0.921  0.6074  1.6362 -1.0115
 3364TIP3    H231652   1.871   1.522   0.792 -1.0673 -1.2110  0.9066
 3365TIP3   OH231653   2.833   2.924   7.354 -0.1132 -0.2715 -0.7557
 3365TIP3    H131654   2.911   2.967   7.320 -0.6285  1.3918  0.0565
 3365TIP3    H231655   2.761   2.985   7.337 -0.7777 -0.4827  1.0222
 3366TIP3   OH231656   4.735   1.616   0.520 -0.0800  0.5592 -0.5060
 3366TIP3    H131657   4.778   1.657   0.595 -0.1555 -0.2074 -0.0260
 3366TIP3    H231658   4.798   1.550   0.490 -0.7594 -0.3245 -0.0244
 3367TIP3   OH231659   3.696   4.513   8.202 -0.8743 -0.1236 -0.4361
 3367TIP3    H131660   3.755   4.481   8.134  1.8703  0.7622  1.3405
 3367TIP3    H231661   3.674   4.434   8.252 -1.4896 -0.5137 -1.2989
 3368TIP3   OH231662   3.237   3.544   8.791  0.1644 -0.8307 -0.0722
 3368TIP3    H131663   3.216   3.554   8.884  0.2597 -0.8869 -0.0443
 3368TIP3    H231664   3.329   3.569   8.784 -0.4852  1.7367 -0.5755
 3369TIP3   OH231665   4.331   2.619   7.734  0.0893 -0.6502  0.6620
 3369TIP3    H131666   4.245   2.580   7.723 -0.7980  0.9157  1.6539
 3369TIP3    H231667   4.314   2.702   7.779  2.0301  0.1134  0.0822
 3370TIP3   OH231668   0.833   0.725   0.265 -0.3977 -0.6208 -1.0976
 3370TIP3    H131669   0.765   0.787   0.292 -2.2185 -2.5818 -0.9123
 3370TIP3    H231670   0.809   0.643   0.309  3.2960 -0.9502  0.6913
 3371TIP3   OH231671   3.427   4.144   0.512  0.0502 -0.5759  0.2455
 3371TIP3    H131672   3.412   4.199   0.436 -0.1446  0.1294  0.7825
 3371TIP3    H231673   3.400   4.198   0.587  1.5884 -0.7129  0.9361
 3372TIP3   OH231674   0.958   4.592   1.316  0.3787 -0.2481  0.2812
 3372TIP3    H131675   0.882   4.613   1.369  0.6460  0.8910  0.2319
 3372TIP3    H231676   1.008   4.673   1.312  1.4220 -0.8836  0.0208
 3373TIP3   OH231677   1.679   3.884   7.956 -0.6361  0.6106  0.3881
 3373TIP3    H131678   1.754   3.881   8.016 -1.8283 -1.6007  1.8995
 3373TIP3    H231679   1.703   3.825   7.885 -0.3928  1.0037  0.1380
 3374TIP3   OH231680   2.917   0.092   0.823  0.0043 -0.6557 -1.0007
 3374TIP3    H131681   2.844   0.124   0.877 -1.6753  0.4686 -3.7411
 3374TIP3    H231682   2.939   0.166   0.766  2.3033 -1.4958 -1.2947
 3375TIP3   OH231683   5.994   0.885   7.218 -0.3892 -0.5064  0.2336
 3375TIP3    H131684   6.032   0.968   7.190  1.6852 -1.3496  0.3741
 3375TIP3    H231685   5.996   0.831   7.139  3.2113 -2.0886  1.2141
 3376TIP3   OH231686   3.753   3.693   8.915 -0.5654  0.2138  0.7318
 3376TIP3    H131687   3.719   3.613   8.874  1.4753 -0.1625 -0.4042
 3376TIP3    H231688   3.711   3.764   8.868 -0.6567 -0.2200  0.1430
 3377TIP3   OH231689   2.566   2.332   1.103  0.5895  0.0905 -0.3982
 3377TIP3    H131690   2.654   2.324   1.066  0.3939  1.8793 -1.3910
 3377TIP3    H231691   2.541   2.243   1.125  1.6142 -0.8093 -2.5829
 3378TIP3   OH231692   4.159   3.514   2.527  0.2029  0.0293 -0.3161
 3378TIP3    H131693   4.193   3.537   2.614 -0.7861 -0.2456  0.1624
 3378TIP3    H231694   4.137   3.598   2.487 -1.0969  0.0916  0.4576
 3379TIP3   OH231695   2.330   3.615   1.180 -0.2116 -0.7418 -0.1717
 3379TIP3    H131696   2.380   3.696   1.177 -0.8824 -0.2645 -4.3649
 3379TIP3    H231697   2.239   3.642   1.172 -0.4457 -1.8433 -1.6789
 3380TIP3   OH231698   2.510   6.021   8.196 -0.6356  0.0174  0.0210
 3380TIP3    H131699   2.521   6.069   8.278  0.6577  0.8460 -0.6013
 3380TIP3    H231700   2.418   6.030   8.174 -0.2287  3.6936 -0.8827
 3381TIP3   OH231701   6.743   4.793   1.055 -0.8992 -0.5667 -0.1507
 3381TIP3    H131702   6.795   4.756   1.127 -1.7867 -0.4293  0.5930
 3381TIP3    H231703   6.795   4.778   0.977  1.5183  1.9291  0.8246
 3382TIP3   OH231704   5.285   3.885   2.526 -0.2675 -0.0324  0.9604
 3382TIP3    H131705   5.316   3.846   2.608  3.9462  1.0808  0.1101
 3382TIP3    H231706   5.275   3.979   2.546  1.4860  0.3709  0.1150
 3383TIP3   OH231707   3.999   5.280   8.628  0.5846  0.5796  0.7612
 3383TIP3    H131708   4.003   5.376   8.626 -0.4152  0.6328 -1.7148
 3383TIP3    H231709   3.910   5.260   8.603  1.4987 -1.0189 -1.4436
 3384TIP3   OH231710   5.552   5.661   2.698 -0.1632  0.2047  0.2590
 3384TIP3    H131711   5.546   5.657   2.793 -2.7305  0.2845  0.1709
 3384TIP3    H231712   5.546   5.569   2.670 -3.0627  0.3442  0.1274
 3385TIP3   OH231713   4.256   3.203   1.589 -0.6882 -0.3142 -0.0134
 3385TIP3    H131714   4.297   3.193   1.675  1.5995 -1.4089 -1.1537
 3385TIP3    H231715   4.183   3.140   1.590 -1.2565  0.3292  1.4068
 3386TIP3   OH231716   2.384   0.952   1.938 -0.4516  0.3673 -0.2794
 3386TIP3    H131717   2.465   0.916   1.902  0.5872  2.8474 -0.6278
 3386TIP3    H231718   2.321   0.879   1.935  2.4030 -2.5746  2.5896
 3387TIP3   OH231719   6.107   4.198   0.559 -0.1744 -0.1798  0.0962
 3387TIP3    H131720   6.057   4.118   0.542  0.2497 -0.0723 -1.8298
 3387TIP3    H231721   6.139   4.187   0.649  0.1200 -2.3074 -0.2236
 3388TIP3   OH231722   1.608   1.654   7.124 -0.2474 -0.0312 -0.3805
 3388TIP3    H131723   1.515   1.649   7.144 -0.5643  1.2204 -1.4145
 3388TIP3    H231724   1.618   1.602   7.044  0.2467 -1.4399  0.5526
 3389TIP3   OH231725   5.317   1.067   0.513  0.6011 -0.1462  0.4904
 3389TIP3    H131726   5.281   1.137   0.458 -0.5928  0.6192  2.1440
 3389TIP3    H231727   5.316   0.990   0.457  1.9118  1.1008 -1.3922
 3390TIP3   OH231728   1.669   5.200   8.404  0.3914  0.0747 -0.2045
 3390TIP3    H131729   1.578   5.227   8.389  0.6098  1.4355  0.6650
 3390TIP3    H231730   1.704   5.182   8.317 -0.6225 -0.1993 -0.5748
 3391TIP3   OH231731   1.584   2.817   8.473 -0.1516  0.2614  0.9456
 3391TIP3    H131732   1.670   2.781   8.497  0.1247  0.4858  0.3217
 3391TIP3    H231733   1.530   2.740   8.454  0.2275  0.1448  0.3111
 3392TIP3   OH231734   4.487   2.192   2.031 -0.0542 -0.0749  0.8500
 3392TIP3    H131735   4.394   2.171   2.023 -0.3420  1.2367  0.4964
 3392TIP3    H231736   4.524   2.170   1.946  0.0467 -0.9253  1.1014
 3393TIP3   OH231737   5.969   2.242   0.572 -0.0513 -0.2476  0.1293
 3393TIP3    H131738   6.013   2.317   0.613  0.2624  0.2707 -1.1112
 3393TIP3    H231739   6.034   2.173   0.573  0.9486  0.5726 -1.8682
 3394TIP3   OH231740   4.118   6.587   0.050 -0.3018  0.0301 -0.2286
 3394TIP3    H131741   4.029   6.622   0.045  0.3027  1.4723 -1.4710
 3394TIP3    H231742   4.137   6.558  -0.040  0.6853  0.2629 -0.1008
 3395TIP3   OH231743   2.617   2.670   2.531 -0.3365 -0.2454  0.3188
 3395TIP3    H131744   2.644   2.586   2.494  1.6983 -0.3035  1.7460
 3395TIP3    H231745   2.523   2.674   2.515 -0.1354 -1.7586 -1.7425
 3396TIP3   OH231746   0.782   6.041   8.207 -0.6083 -0.0355  0.5841
 3396TIP3    H131747   0.696   6.007   8.228 -0.1093 -1.3503  0.5704
 3396TIP3    H231748   0.835   6.022   8.285 -0.1127 -0.0051  0.2597
 3397TIP3   OH231749   2.018   1.246   1.932 -0.0590  0.0297  0.1222
 3397TIP3    H131750   2.049   1.237   2.022 -2.0629 -0.7116  0.7967
 3397TIP3    H231751   1.970   1.328   1.931 -0.7051 -0.3427 -0.0472
 3398TIP3   OH231752   2.582   1.379   6.678 -0.3479 -0.6284  0.0026
 3398TIP3    H131753   2.548   1.440   6.613 -1.1524  0.1778  1.1560
 3398TIP3    H231754   2.655   1.335   6.633 -0.2350  0.6232 -1.0964
 3399TIP3   OH231755   5.437   5.197   8.608  0.0490 -0.1605 -0.0055
 3399TIP3    H131756   5.517   5.218   8.656  0.3975 -0.9013 -0.2463
 3399TIP3    H231757   5.366   5.211   8.670  0.5143 -1.4538  0.8393
 3400TIP3   OH231758   1.357   2.337   2.186  0.3380  0.1061  0.0070
 3400TIP3    H131759   1.333   2.427   2.205  0.1082  0.1238 -0.3596
 3400TIP3    H231760   1.285   2.285   2.221  0.3947  0.0725  0.0758
 3401TIP3   OH231761   4.710   1.861   0.044 -0.3731  0.9808  0.9546
 3401TIP3    H131762   4.721   1.831   0.134  0.8004  2.0951  1.2114
 3401TIP3    H231763   4.797   1.852   0.005 -0.2387  2.9020  0.7270
 3402TIP3   OH231764   4.017   5.318   1.892 -0.3304 -0.2527 -0.6506
 3402TIP3    H131765   3.974   5.232   1.894  0.0012 -0.4488 -1.5670
 3402TIP3    H231766   3.970   5.370   1.957  0.0594 -1.3984  0.5824
 3403TIP3   OH231767   0.356   0.537   2.607  0.2389 -0.3076 -0.2390
 3403TIP3    H131768   0.416   0.571   2.675  0.3103 -0.5366 -0.1867
 3403TIP3    H231769   0.291   0.606   2.596  1.7710  0.9619 -1.9192
 3404TIP3   OH231770   5.222   4.504   7.653 -0.2777  0.2297 -0.2149
 3404TIP3    H131771   5.133   4.529   7.628 -0.2740 -0.4729 -0.9855
 3404TIP3    H231772   5.266   4.486   7.570  1.0944  2.1114  0.0373
 3405TIP3   OH231773   3.023   6.244   7.667 -0.2393  0.2705 -0.0692
 3405TIP3    H131774   2.952   6.295   7.708 -0.7676 -0.6937  0.2397
 3405TIP3    H231775   3.038   6.287   7.583 -1.4091  0.3030 -0.2758
 3406TIP3   OH231776   2.655   4.486   1.336  0.2243 -0.3886  0.3519
 3406TIP3    H131777   2.633   4.517   1.248 -0.8099 -2.2259 -0.0770
 3406TIP3    H231778   2.746   4.512   1.348 -0.7195  3.5671  0.4266
 3407TIP3   OH231779   1.432   1.273   6.884  0.4628 -0.1494 -1.1245
 3407TIP3    H131780   1.398   1.300   6.970  1.0187 -1.5563 -0.4338
 3407TIP3    H231781   1.359   1.225   6.844 -0.3072  1.7116 -2.0936
 3408TIP3   OH231782   5.810   1.546   8.927  0.3014  0.1124 -0.1236
 3408TIP3    H131783   5.797   1.492   8.849  0.7337  1.3246 -1.0665
 3408TIP3    H231784   5.722   1.575   8.952 -0.0234 -1.4968  0.7952
 3409TIP3   OH231785   2.328   6.652   0.323 -0.0158 -0.0509 -0.0130
 3409TIP3    H131786   2.245   6.696   0.300  1.8803  3.3456 -1.1354
 3409TIP3    H231787   2.334   6.661   0.418 -0.3957  0.8641 -0.0589
 3410TIP3   OH231788   6.675   1.062   1.821 -0.3847  0.0213  0.2861
 3410TIP3    H131789   6.729   1.069   1.900  1.1653  0.0464 -0.7416
 3410TIP3    H231790   6.721   1.000   1.765 -0.6085  1.1611 -1.2390
 3411TIP3   OH231791   3.932   4.669   1.628 -0.0798  0.2543 -0.3706
 3411TIP3    H131792   3.989   4.615   1.683  1.8859  0.9222 -1.6353
 3411TIP3    H231793   3.968   4.660   1.539 -0.1920  2.9040 -0.7736
 3412TIP3   OH231794   3.984   4.998   8.713  0.3867  0.4203  0.0303
 3412TIP3    H131795   4.068   4.970   8.751  0.6897  0.0354 -0.9059
 3412TIP3    H231796   4.004   5.082   8.670  0.2070  0.5009  0.1007
 3413TIP3   OH231797   5.586   4.789   6.986  0.3137 -0.7657  0.8017
 3413TIP3    H131798   5.669   4.836   6.987  0.3955 -0.7049 -2.0203
 3413TIP3    H231799   5.586   4.740   6.904 -2.1537 -1.3150  1.0387
 3414TIP3   OH231800   0.841   5.087   0.548 -0.6104 -0.1145 -0.2333
 3414TIP3    H131801   0.896   5.114   0.622  0.9296  2.6080 -2.2051
 3414TIP3    H231802   0.788   5.015   0.583  1.0854  0.0398  3.0501
 3415TIP3   OH231803   2.948   6.418   7.937  0.1354 -0.2927  0.3474
 3415TIP3    H131804   3.013   6.486   7.951  0.5808 -0.5330 -0.4359
 3415TIP3    H231805   2.966   6.352   8.004 -0.5937  0.5575  1.3986
 3416TIP3   OH231806   0.815   4.137   1.814 -0.0233  0.3171 -0.5107
 3416TIP3    H131807   0.875   4.146   1.887 -0.6965 -1.1676  0.2665
 3416TIP3    H231808   0.864   4.090   1.747  0.0327  0.0725 -0.2988
 3417TIP3   OH231809   1.825   5.379   0.068  0.5357  0.0879  0.0516
 3417TIP3    H131810   1.784   5.364  -0.017  1.2389 -0.5718 -0.1881
 3417TIP3    H231811   1.916   5.352   0.055  1.1399  1.8355  0.4688
 3418TIP3   OH231812   6.139   3.473   7.422  0.1056 -0.2781 -0.3199
 3418TIP3    H131813   6.234   3.462   7.431  0.1762  0.2980 -0.3337
 3418TIP3    H231814   6.119   3.554   7.467 -0.4045 -0.4522 -0.2187
 3419TIP3   OH231815   2.069   6.726   8.623  0.1070  0.6618 -0.6562
 3419TIP3    H131816   2.038   6.817   8.626  0.3555  0.7512 -0.7330
 3419TIP3    H231817   1.990   6.673   8.628 -0.0127  0.8812 -0.1621
 3420TIP3   OH231818   2.999   3.487   7.963 -0.1496  0.0693 -0.0831
 3420TIP3    H131819   3.059   3.420   7.994 -0.0213  0.6862  1.0544
 3420TIP3    H231820   2.944   3.443   7.898 -0.8010 -1.4236  1.4376
 3421TIP3   OH231821   2.169   1.836   1.729 -0.1925  0.8205 -0.8573
 3421TIP3    H131822   2.183   1.931   1.737  1.4966  0.4861  0.6899
 3421TIP3    H231823   2.158   1.806   1.819  1.3526 -0.7202 -1.1345
 3422TIP3   OH231824   3.204   2.394   0.450  0.0424 -0.2964  0.2997
 3422TIP3    H131825   3.179   2.304   0.428  0.6772 -0.6892  1.1293
 3422TIP3    H231826   3.264   2.420   0.380  0.8055 -0.9650  0.6897
 3423TIP3   OH231827   6.113   1.696   8.157  0.0139  0.2259  0.6227
 3423TIP3    H131828   6.185   1.638   8.132 -0.7208 -0.3766 -0.1562
 3423TIP3    H231829   6.150   1.752   8.225  1.6145  0.8025 -0.6506
 3424TIP3   OH231830   1.374   3.531   1.507 -0.0741  0.8645 -0.0627
 3424TIP3    H131831   1.459   3.550   1.467 -0.7144 -0.9360 -2.4811
 3424TIP3    H231832   1.361   3.437   1.492 -1.4272  0.5543  2.4939
 3425TIP3   OH231833   6.657   3.959   7.285 -0.6487 -0.0377 -0.1992
 3425TIP3    H131834   6.748   3.938   7.307  0.2122  2.7571 -0.7072
 3425TIP3    H231835   6.637   3.905   7.209 -0.4692 -2.8267  1.5964
 3426TIP3   OH231836   4.632   4.721   2.889  0.2849 -0.5897  0.3765
 3426TIP3    H131837   4.623   4.797   2.947  2.5431 -0.1103  0.1629
 3426TIP3    H231838   4.717   4.683   2.911  0.7477 -1.0149 -1.8974
 3427TIP3   OH231839   1.403   4.455   0.109 -0.4509  0.5160  0.0990
 3427TIP3    H131840   1.393   4.380   0.051  0.5606  1.2439 -1.0732
 3427TIP3    H231841   1.384   4.421   0.196 -0.1002 -1.0741 -0.4163
 3428TIP3   OH231842   0.714   3.589   0.416 -0.2279  0.2088  0.0097
 3428TIP3    H131843   0.636   3.586   0.361  0.4569 -0.2325 -0.9489
 3428TIP3    H231844   0.788   3.586   0.355  0.5467  0.2270  0.9190
 3429TIP3   OH231845   3.741   1.971   1.893 -0.0936  0.2542 -0.1483
 3429TIP3    H131846   3.794   1.893   1.914 -2.7148 -2.1940 -1.8047
 3429TIP3    H231847   3.784   2.009   1.817 -0.6937 -1.8794 -1.6683
 3430TIP3   OH231848   3.304   3.310   0.636 -0.6476 -0.2937  0.0999
 3430TIP3    H131849   3.351   3.231   0.610 -0.2407  0.4366 -1.5100
 3430TIP3    H231850   3.297   3.304   0.731  0.3701 -1.7058  0.1104
 3431TIP3   OH231851   0.581   3.622   8.173 -0.4691  0.0848 -0.2681
 3431TIP3    H131852   0.542   3.709   8.163  0.6983  0.6930  0.2470
 3431TIP3    H231853   0.546   3.590   8.256 -2.1456 -0.6446 -1.1992
 3432TIP3   OH231854   5.800   6.641   8.926 -0.0441  0.0805  0.4317
 3432TIP3    H131855   5.865   6.624   8.994  0.7418  1.5199  0.0673
 3432TIP3    H231856   5.721   6.595   8.956  1.0094 -1.4026  1.0501
 3433TIP3   OH231857   2.513   3.253   0.947 -0.6268  0.2915 -0.4164
 3433TIP3    H131858   2.587   3.294   0.902 -1.0542 -0.3788 -1.7736
 3433TIP3    H231859   2.486   3.318   1.012 -1.3444  2.2400 -2.5532
 3434TIP3   OH231860   4.331   4.782   8.479 -0.1455  0.0609 -0.2857
 3434TIP3    H131861   4.414   4.736   8.489  0.1571  0.7385  0.3925
 3434TIP3    H231862   4.307   4.809   8.567 -0.6570  0.6112 -0.5844
 3435TIP3   OH231863   2.546   5.710   2.758 -0.3404 -0.0511 -0.0184
 3435TIP3    H131864   2.454   5.708   2.783 -0.0619  0.9818  1.2296
 3435TIP3    H231865   2.592   5.737   2.838  0.8716  1.0285 -1.0216
 3436TIP3   OH231866   3.472   2.567   1.017  0.4360 -0.2764  0.0458
 3436TIP3    H131867   3.519   2.599   1.094  0.1276 -2.3285  1.1721
 3436TIP3    H231868   3.396   2.625   1.008  0.1906 -0.3068  1.6504
 3437TIP3   OH231869   0.440   4.278   7.026  0.0565  0.2812 -0.1123
 3437TIP3    H131870   0.374   4.216   7.056  0.7948 -0.0563  0.8595
 3437TIP3    H231871   0.399   4.364   7.040  0.0418  0.0998  1.0595
 3438TIP3   OH231872   6.628   2.452   0.685  0.8349 -0.1014 -0.1244
 3438TIP3    H131873   6.710   2.497   0.666  0.4878  0.6256  0.0739
 3438TIP3    H231874   6.651   2.387   0.751  0.8462  1.6097  1.6236
 3439TIP3   OH231875   3.876   2.525   7.901  0.2114  0.5568 -0.1520
 3439TIP3    H131876   3.926   2.588   7.953 -1.1853  2.5839 -1.1023
 3439TIP3    H231877   3.920   2.524   7.816 -0.3605  1.0865 -0.4658
 3440TIP3   OH231878   0.878   3.942   7.921 -0.1384  0.0079 -0.1812
 3440TIP3    H131879   0.914   4.012   7.866  0.2244  0.6042  0.7910
 3440TIP3    H231880   0.835   3.988   7.993 -1.4236 -0.7390 -0.4432
 3441TIP3   OH231881   1.436   3.561   8.803  0.5765  0.2111 -0.3035
 3441TIP3    H131882   1.441   3.601   8.716  2.6648 -0.3686 -0.5277
 3441TIP3    H231883   1.381   3.484   8.791  3.1861 -1.5784 -1.9612
 3442TIP3   OH231884   1.860   5.327   8.118 -0.7901 -0.1405  0.3316
 3442TIP3    H131885   1.866   5.379   8.198  0.1278  0.3395 -0.0420
 3442TIP3    H231886   1.946   5.334   8.078 -0.9447 -1.1723 -0.2171
 3443TIP3   OH231887   1.812   6.728   2.121 -0.5804  0.5419 -0.3589
 3443TIP3    H131888   1.777   6.790   2.185 -0.5230  1.4030 -1.1427
 3443TIP3    H231889   1.907   6.729   2.138 -0.7408 -0.6348  0.7487
 3444TIP3   OH231890   5.851   2.342   2.122  0.0274  0.3032  0.0158
 3444TIP3    H131891   5.911   2.293   2.178  1.0029  0.3577 -0.9713
 3444TIP3    H231892   5.810   2.405   2.182 -0.8250 -1.2779  1.1862
 3445TIP3   OH231893   5.869   5.513   7.011 -0.4871  0.4786 -0.0289
 3445TIP3    H131894   5.835   5.595   7.049  0.1455  2.7804 -3.8169
 3445TIP3    H231895   5.794   5.476   6.964 -0.3510 -0.1820  0.2745
 3446TIP3   OH231896   3.361   0.330   7.669  0.5405  0.4329  0.1988
 3446TIP3    H131897   3.382   0.370   7.584 -2.7942  1.9913 -0.0553
 3446TIP3    H231898   3.274   0.292   7.656  0.6693 -0.8082  2.4968
 3447TIP3   OH231899   5.348   2.562   1.517  0.2227 -0.4870  0.0783
 3447TIP3    H131900   5.428   2.579   1.467  0.1233  0.6306  0.2698
 3447TIP3    H231901   5.277   2.570   1.453 -0.0796  2.9180  0.6659
 3448TIP3   OH231902   2.336   0.238   0.427  0.2351  0.6400  0.0908
 3448TIP3    H131903   2.318   0.318   0.379 -2.4955  0.5084  0.7102
 3448TIP3    H231904   2.266   0.178   0.401  1.3033 -1.0018  0.8173
 3449TIP3   OH231905   3.962   0.396   7.752  0.3505  0.2375  0.1129
 3449TIP3    H131906   3.923   0.423   7.835  0.5343  0.6546  0.0648
 3449TIP3    H231907   4.050   0.435   7.753  0.0650  0.9308 -0.6306
 3450TIP3   OH231908   1.321   6.329   8.740 -0.2561 -0.0690  0.6064
 3450TIP3    H131909   1.370   6.410   8.756 -0.6383 -0.1416  2.3154
 3450TIP3    H231910   1.262   6.321   8.815 -0.0230 -2.0993  0.6242
 3451TIP3   OH231911   4.562   6.149   0.461  0.0399 -1.2419  0.0301
 3451TIP3    H131912   4.527   6.067   0.495 -0.2940 -0.4960  1.5780
 3451TIP3    H231913   4.492   6.183   0.405 -1.1765 -0.5043  1.9004
 3452TIP3   OH231914   2.046   0.378   0.569 -0.1203 -0.2808  0.0720
 3452TIP3    H131915   2.025   0.376   0.476  1.4558 -1.2404 -0.2926
 3452TIP3    H231916   1.961   0.379   0.613 -0.8968  0.8997 -1.3616
 3453TIP3   OH231917   5.455   1.982   2.125 -0.2704 -0.1703 -0.1543
 3453TIP3    H131918   5.487   2.045   2.061  2.4384 -0.4279  0.8163
 3453TIP3    H231919   5.492   1.898   2.098 -2.4026 -1.0744 -0.4498
 3454TIP3   OH231920   0.571   6.211   1.283 -0.2345  0.3017 -0.1640
 3454TIP3    H131921   0.511   6.136   1.289  1.4068 -1.1195 -0.6736
 3454TIP3    H231922   0.624   6.192   1.205  0.9618  1.4400  0.3509
 3455TIP3   OH231923   0.987   4.005   1.617 -0.0713 -0.3954  0.3710
 3455TIP3    H131924   1.019   3.953   1.691  1.4364  1.5349  1.1407
 3455TIP3    H231925   1.057   3.999   1.552 -0.6970 -0.7720 -0.2840
 3456TIP3   OH231926   1.824   2.383   1.272 -0.5487 -0.0146 -0.2429
 3456TIP3    H131927   1.738   2.384   1.313 -0.9147 -1.6262 -0.8777
 3456TIP3    H231928   1.886   2.393   1.344 -1.2408  0.9577  0.2416
 3457TIP3   OH231929   4.699   1.202   1.099 -0.5062 -0.0327 -0.2030
 3457TIP3    H131930   4.611   1.166   1.087 -0.6740  0.6482 -1.0832
 3457TIP3    H231931   4.700   1.283   1.048  0.4021  0.3491  0.3831
 3458TIP3   OH231932   0.055   3.498   7.435  0.3366  0.2869 -0.3050
 3458TIP3    H131933  -0.016   3.562   7.441  0.6742  0.9498 -2.5199
 3458TIP3    H231934   0.135   3.550   7.441  0.6140 -0.0920 -0.6671
 3459TIP3   OH231935   2.909   2.835   7.954 -0.5543  0.3748  0.3962
 3459TIP3    H131936   2.892   2.794   8.039  1.1727  1.1514  1.1666
 3459TIP3    H231937   2.840   2.901   7.946 -0.0969  1.0573  1.7458
 3460TIP3   OH231938   0.084   5.019   8.021 -0.1800  0.4457 -0.2218
 3460TIP3    H131939   0.125   4.933   8.020 -1.3042 -0.1111 -1.2969
 3460TIP3    H231940   0.145   5.074   8.071  0.9044 -0.7850 -0.1266
 3461TIP3   OH231941   3.559   6.655   6.869 -0.1136  0.4443  0.2523
 3461TIP3    H131942   3.582   6.566   6.895  0.5625  0.6579  0.3921
 3461TIP3    H231943   3.485   6.678   6.924  1.1124  0.7849  1.8176
 3462TIP3   OH231944   2.040   2.869   8.661  0.1687 -0.5234  0.0857
 3462TIP3    H131945   1.985   2.937   8.700 -0.7962 -0.4464 -1.2931
 3462TIP3    H231946   2.101   2.917   8.604  1.6557 -0.6171  1.5335
 3463TIP3   OH231947   0.182   5.844   2.448  0.1331  0.2362  0.3359
 3463TIP3    H131948   0.207   5.767   2.398 -1.1259 -1.9335  2.8049
 3463TIP3    H231949   0.265   5.892   2.462  0.6889  0.3007 -2.5864
 3464TIP3   OH231950   0.211   2.753   0.824 -0.8230  0.1286  0.5593
 3464TIP3    H131951   0.197   2.662   0.800 -1.2533  0.1835  0.5937
 3464TIP3    H231952   0.265   2.750   0.903 -0.6116 -0.0886  0.4045
 3465TIP3   OH231953   4.888   4.745   1.569  0.2231 -0.6198  0.1754
 3465TIP3    H131954   4.905   4.717   1.479  0.3934  0.9838 -0.3191
 3465TIP3    H231955   4.803   4.705   1.590 -0.2324 -0.3409 -1.0087
 3466TIP3   OH231956   1.364   5.609   1.369  0.0714 -0.4142 -0.0859
 3466TIP3    H131957   1.360   5.554   1.447  0.1273 -0.4997 -0.1429
 3466TIP3    H231958   1.452   5.595   1.334 -0.4518 -1.5732 -1.0171
 3467TIP3   OH231959   2.789   1.814   8.097 -0.0230  0.0383 -0.0481
 3467TIP3    H131960   2.865   1.761   8.073 -1.1061 -1.0288 -1.3040
 3467TIP3    H231961   2.801   1.832   8.190  0.0192 -3.1475  0.6795
 3468TIP3   OH231962   0.277   3.484   2.270  0.4015 -0.0622  0.1490
 3468TIP3    H131963   0.194   3.438   2.256  0.3123  0.5378 -1.6586
 3468TIP3    H231964   0.250   3.569   2.305  0.3174 -0.1845  0.3837
 3469TIP3   OH231965   3.713   5.367   7.276  0.1483  0.3531 -0.6840
 3469TIP3    H131966   3.675   5.282   7.255 -1.6393  1.3864 -1.9267
 3469TIP3    H231967   3.806   5.358   7.254 -0.3007 -0.8365 -2.2440
 3470TIP3   OH231968   2.257   3.222   8.933 -0.2343 -0.4106  0.6956
 3470TIP3    H131969   2.203   3.263   8.866 -0.3815 -1.4807  0.1406
 3470TIP3    H231970   2.268   3.289   9.000  3.5161  2.3606 -2.2490
 3471TIP3   OH231971   3.973   4.891   8.075 -0.0672  0.0048 -0.1896
 3471TIP3    H131972   3.896   4.835   8.080  0.3430 -0.5450  0.0560
 3471TIP3    H231973   4.026   4.866   8.151  0.5557  0.0752 -0.5973
 3472TIP3   OH231974   4.968   2.578   8.428  0.0190 -0.0301 -0.0893
 3472TIP3    H131975   4.920   2.653   8.462 -0.4807 -0.0055 -0.8265
 3472TIP3    H231976   4.955   2.509   8.493  0.7211  0.5926  0.7345
 3473TIP3   OH231977   1.275   6.615   1.045  0.2903  0.7209  0.1555
 3473TIP3    H131978   1.279   6.587   0.954 -0.7351  1.2873 -0.0706
 3473TIP3    H231979   1.200   6.568   1.082  0.9408  0.1841  0.8268
 3474TIP3   OH231980   5.991   4.466   7.313 -0.5177  0.0220  0.3828
 3474TIP3    H131981   5.959   4.430   7.395 -2.6045 -1.7972 -1.0874
 3474TIP3    H231982   6.012   4.389   7.260 -0.1417  1.1098 -1.1199
 3475TIP3   OH231983   6.258   4.094   1.094 -0.2343 -0.0335 -0.2114
 3475TIP3    H131984   6.264   4.046   1.177  0.8315 -0.9963 -0.8075
 3475TIP3    H231985   6.345   4.133   1.083 -0.5762  0.6626 -0.5611
 3476TIP3   OH231986   3.985   5.890   3.098  0.1492  0.6429 -0.6320
 3476TIP3    H131987   4.025   5.807   3.071  2.3434  0.5091  2.4267
 3476TIP3    H231988   3.892   5.870   3.107 -0.1553 -0.1741 -4.1082
 3477TIP3   OH231989   2.220   5.058   2.375  0.4151  0.3135 -0.0355
 3477TIP3    H131990   2.254   4.974   2.344 -0.3147 -0.2927  0.7330
 3477TIP3    H231991   2.297   5.107   2.402  0.9371  0.2651 -1.3263
 3478TIP3   OH231992   3.742   4.481   1.625  0.1019 -0.1770 -0.2782
 3478TIP3    H131993   3.784   4.421   1.564 -0.9376  1.0197 -2.2854
 3478TIP3    H231994   3.808   4.549   1.641  0.1726 -0.1737 -0.5711
 3479TIP3   OH231995   2.388   5.715   1.999 -0.4985 -0.0851  0.0070
 3479TIP3    H131996   2.431   5.699   1.915 -1.8292  1.8197 -1.1276
 3479TIP3    H231997   2.295   5.718   1.979 -1.1275 -2.3346  2.0876
 3480TIP3   OH231998   2.789   0.764   7.355 -0.5798  0.0048  0.3672
 3480TIP3    H131999   2.789   0.755   7.450 -0.0875  0.3771  0.4065
 3480TIP3    H232000   2.743   0.847   7.339 -2.6541 -1.1182  0.1516
 3481TIP3   OH232001   0.330   4.611   8.872  0.2414 -0.0635  0.3524
 3481TIP3    H132002   0.413   4.568   8.851  1.7053  2.8177 -0.2546
 3481TIP3    H232003   0.350   4.668   8.945 -0.8300  1.6745 -0.6424
 3482TIP3   OH232004   4.578   1.502   8.160 -0.0195  0.4411  0.2258
 3482TIP3    H132005   4.624   1.569   8.211 -1.8400  2.4922 -0.6306
 3482TIP3    H232006   4.619   1.507   8.073  0.9114 -0.7529  0.5702
 3483TIP3   OH232007   6.510   5.818   1.603  0.3160 -0.3875 -0.1553
 3483TIP3    H132008   6.569   5.888   1.630  1.1026 -0.6978 -1.0180
 3483TIP3    H232009   6.514   5.754   1.674  1.8281 -0.8847 -0.6557
 3484TIP3   OH232010   2.784   4.497   0.628  0.1347 -0.1754  0.3800
 3484TIP3    H132011   2.853   4.563   0.640 -2.0629  1.9716  2.3276
 3484TIP3    H232012   2.813   4.446   0.552  3.0322  1.6254  0.1023
 3485TIP3   OH232013   0.778   6.708   7.794 -0.9310  0.2541  0.3420
 3485TIP3    H132014   0.824   6.755   7.725 -1.6020 -0.0870 -0.3493
 3485TIP3    H232015   0.685   6.716   7.771 -1.0455 -2.1878 -0.3642
 3486TIP3   OH232016   2.215   5.085   8.567  0.2236  0.6019 -0.3588
 3486TIP3    H132017   2.260   5.044   8.493  2.4608  0.8262  0.7692
 3486TIP3    H232018   2.244   5.035   8.643 -2.4579  0.0219  0.3547
 3487TIP3   OH232019   3.129   0.666   0.369 -0.4270 -0.1177 -0.3931
 3487TIP3    H132020   3.103   0.680   0.460 -2.0240 -1.1115 -0.6404
 3487TIP3    H232021   3.065   0.602   0.336 -0.2730  0.6798 -2.3899
 3488TIP3   OH232022   6.576   5.030   1.896  0.4490  0.1494  0.4509
 3488TIP3    H132023   6.511   5.080   1.846 -0.1496  0.0243  1.0890
 3488TIP3    H232024   6.550   5.042   1.987  0.7252 -0.7324  0.6537
 3489TIP3   OH232025   5.213   4.138   2.535 -0.2741  0.2558  0.9318
 3489TIP3    H132026   5.175   4.195   2.468  2.3613 -0.2494 -1.1418
 3489TIP3    H232027   5.174   4.169   2.617 -1.9533  2.3737 -0.5442
 3490TIP3   OH232028   2.044   6.246   8.069  0.0146 -0.2346  0.6963
 3490TIP3    H132029   2.046   6.216   8.160  0.8457 -0.6839  0.5316
 3490TIP3    H232030   1.987   6.183   8.025  0.6125 -0.7552  0.6512
 3491TIP3   OH232031   4.563   1.647   8.910  0.0241  0.7267  0.1779
 3491TIP3    H132032   4.596   1.736   8.927  0.7845  0.6561 -0.8830
 3491TIP3    H232033   4.624   1.610   8.846  0.2277 -0.8900  1.2474
 3492TIP3   OH232034   0.351   3.419   1.669  0.1322  0.0673 -0.1222
 3492TIP3    H132035   0.320   3.446   1.582  1.1778  0.6991 -0.3177
 3492TIP3    H232036   0.360   3.324   1.662 -2.0624 -0.2139  0.0664
 3493TIP3   OH232037   5.854   6.650   2.098  0.2733  0.2067  0.1116
 3493TIP3    H132038   5.817   6.707   2.031 -0.8285 -0.6815 -0.0693
 3493TIP3    H232039   5.934   6.694   2.125 -0.1467  1.4404 -0.5627
 3494TIP3   OH232040   3.714   0.504   7.990 -0.3577 -0.3747 -0.0506
 3494TIP3    H132041   3.689   0.429   7.936 -0.8406  0.8605 -1.6326
 3494TIP3    H232042   3.640   0.565   7.982  0.7880  1.0414 -0.3261
 3495TIP3   OH232043   5.603   5.110   2.278 -0.0504  0.1043 -0.0054
 3495TIP3    H132044   5.668   5.045   2.306  1.5029  0.8619 -1.6703
 3495TIP3    H232045   5.529   5.059   2.248  0.9846 -0.9135 -0.9019
 3496TIP3   OH232046   4.633   0.551   8.881 -0.0943  0.3904  0.2143
 3496TIP3    H132047   4.676   0.622   8.835  2.5821 -1.3351 -0.1651
 3496TIP3    H232048   4.553   0.535   8.832  0.6852  1.2509 -1.4039
 3497TIP3   OH232049   1.353   3.828   7.161  0.3208 -0.4297  0.0546
 3497TIP3    H132050   1.405   3.748   7.169  1.5373  0.4173  1.0804
 3497TIP3    H232051   1.301   3.815   7.081  1.4655 -1.6854 -0.5304
 3498TIP3   OH232052   5.773   5.415   8.016 -0.7131 -0.1825 -0.1442
 3498TIP3    H132053   5.750   5.457   7.933 -0.4731  1.2115  0.4633
 3498TIP3    H232054   5.838   5.348   7.992 -0.8842 -0.0080 -1.1145
 3499TIP3   OH232055   6.305   1.922   8.913 -0.0428 -0.3889  0.6189
 3499TIP3    H132056   6.219   1.947   8.879  0.2324  0.4327  0.5087
 3499TIP3    H232057   6.296   1.829   8.934 -1.2023 -0.1297  1.3645
 3500TIP3   OH232058   5.843   5.548   8.824 -0.3651 -0.7226  0.5150
 3500TIP3    H132059   5.775   5.481   8.812 -0.5847 -0.4066 -0.0368
 3500TIP3    H232060   5.880   5.529   8.910 -0.4610 -1.5258  0.3893
 3501TIP3   OH232061   6.541   5.884   1.210 -0.2583 -0.0227 -0.0076
 3501TIP3    H132062   6.619   5.936   1.189  0.1533 -0.4905  0.3361
 3501TIP3    H232063   6.488   5.888   1.130 -0.2052  0.8672 -0.0059
 3502TIP3   OH232064   0.257   3.173   8.053 -0.1028  0.6128 -0.3257
 3502TIP3    H132065   0.238   3.267   8.047 -0.0999  0.7713  1.5072
 3502TIP3    H232066   0.201   3.142   8.124  0.1420 -0.7197 -0.6819
 3503TIP3   OH232067   1.990   2.253   8.236 -0.7315  0.4338 -0.1190
 3503TIP3    H132068   1.986   2.342   8.203  0.8834  0.4198 -0.4432
 3503TIP3    H232069   2.025   2.262   8.324  0.9611  0.0536 -0.7095
 3504TIP3   OH232070   6.142   2.798   1.282  0.0632  0.1638 -0.4190
 3504TIP3    H132071   6.055   2.838   1.290 -0.1575 -0.4609  0.5531
 3504TIP3    H232072   6.202   2.872   1.268 -0.3298  0.8661  1.3412
 3505TIP3   OH232073   4.840   1.012   0.675  0.2857  0.6016 -0.3627
 3505TIP3    H132074   4.759   1.016   0.623 -0.0139  2.1171  0.1924
 3505TIP3    H232075   4.901   0.965   0.619 -1.0299 -0.8192 -0.6981
 3506TIP3   OH232076   1.437   5.948   0.613 -0.2981 -0.1911 -0.6055
 3506TIP3    H132077   1.475   5.872   0.658  0.2159 -0.2434 -1.1330
 3506TIP3    H232078   1.370   5.910   0.556 -0.9198 -0.1287  0.0576
 3507TIP3   OH232079   2.969   0.538   1.922  0.0062  0.4440  0.3919
 3507TIP3    H132080   3.016   0.601   1.976 -1.0525  0.1349  1.7337
 3507TIP3    H232081   3.028   0.520   1.849  1.1351  1.4988  1.0045
 3508TIP3   OH232082   3.160   4.864   1.613  0.2699  0.3793  0.0957
 3508TIP3    H132083   3.167   4.796   1.545 -0.5173  1.1954 -0.8218
 3508TIP3    H232084   3.250   4.897   1.622  0.4442  0.0330 -0.3034
 3509TIP3   OH232085   0.712   6.084   0.420 -0.0458 -0.6516 -0.0352
 3509TIP3    H132086   0.748   6.046   0.340 -1.7085 -2.7105  0.1297
 3509TIP3    H232087   0.654   6.017   0.455 -0.2862  0.6661  2.2900
 3510TIP3   OH232088   1.945   2.038   7.819 -0.0945 -0.4548  0.7441
 3510TIP3    H132089   2.017   2.031   7.882  0.1001 -0.3102  0.5426
 3510TIP3    H232090   1.970   2.112   7.763 -0.1358 -0.7426  0.3377
 3511TIP3   OH232091   0.659   5.379   8.080 -0.0039  0.0549  0.4886
 3511TIP3    H132092   0.630   5.429   8.156  1.6288  0.4644  0.8766
 3511TIP3    H232093   0.600   5.405   8.009 -0.8472  0.5014  1.3396
 3512TIP3   OH232094   1.905   0.319   1.386 -0.2818  0.1008  0.2023
 3512TIP3    H132095   1.868   0.250   1.440  1.7641  1.3892  3.5246
 3512TIP3    H232096   1.886   0.291   1.296 -1.4225 -3.6273  1.4083
 3513TIP3   OH232097   4.280   0.986   0.523  0.5697 -0.0229 -0.2294
 3513TIP3    H132098   4.297   1.054   0.588  0.7309 -1.3148  1.1668
 3513TIP3    H232099   4.224   0.923   0.569  0.3848 -0.7988 -1.4740
 3514TIP3   OH232100   4.275   6.383   1.175  0.6380  0.2202  0.0017
 3514TIP3    H132101   4.188   6.343   1.185  0.4590  0.6438  0.1525
 3514TIP3    H232102   4.258   6.467   1.133  1.2215 -0.7656 -2.3233
 3515TIP3   OH232103   2.773   1.186   8.146  0.1428 -0.5515 -0.1779
 3515TIP3    H132104   2.832   1.250   8.105  0.6284 -2.0406 -1.9327
 3515TIP3    H232105   2.831   1.113   8.170 -0.4870 -0.5978  1.2840
 3516TIP3   OH232106   1.378   5.572   1.888 -0.1347  0.4711 -0.5167
 3516TIP3    H132107   1.328   5.624   1.825 -1.2488  0.3210  0.2306
 3516TIP3    H232108   1.333   5.583   1.971  0.1567 -0.9193 -0.1381
 3517TIP3   OH232109   5.546   1.687   6.913 -0.1306 -0.0822 -0.1506
 3517TIP3    H132110   5.569   1.613   6.969  2.5584  1.3348  0.7761
 3517TIP3    H232111   5.600   1.675   6.835  0.1177  0.7344 -0.1115
 3518TIP3   OH232112   1.095   0.210   0.002 -0.1981 -0.5606  0.1747
 3518TIP3    H132113   1.021   0.246  -0.046 -0.6400  0.9866  1.9219
 3518TIP3    H232114   1.061   0.129   0.040 -0.8121 -0.1851  0.4405
 3519TIP3   OH232115   2.144   2.173   0.301  0.1683 -0.3997 -0.1776
 3519TIP3    H132116   2.060   2.180   0.257  0.6992  1.1771 -1.0218
 3519TIP3    H232117   2.127   2.208   0.389  0.1008  0.6961 -0.6076
 3520TIP3   OH232118   5.904   2.940   7.648  0.0050 -0.8396  0.5392
 3520TIP3    H132119   5.937   2.979   7.568 -0.3288  3.9511  2.4299
 3520TIP3    H232120   5.978   2.890   7.683  1.2407 -0.2363 -1.0802
 3521TIP3   OH232121   1.532   4.718   7.515 -0.1727  0.0128 -0.3723
 3521TIP3    H132122   1.590   4.794   7.505  1.0463 -0.8799 -0.2929
 3521TIP3    H232123   1.452   4.744   7.469  0.2061  1.3477 -0.3395
 3522TIP3   OH232124   3.876   6.013   8.909  0.3386 -0.2183  0.2826
 3522TIP3    H132125   3.813   6.050   8.848  2.5476 -0.4842 -2.3453
 3522TIP3    H232126   3.825   5.952   8.962 -2.3305  2.5023  1.1164
 3523TIP3   OH232127   5.285   5.218   0.689  0.3570 -0.3026 -0.0417
 3523TIP3    H132128   5.242   5.147   0.642 -0.8624 -0.3025  1.0232
 3523TIP3    H232129   5.345   5.174   0.750 -0.0361 -0.4137  0.2714
 3524TIP3   OH232130   3.169   2.134   1.592 -0.0762 -0.2741 -0.4057
 3524TIP3    H132131   3.244   2.168   1.641  0.4161  0.1476 -1.4297
 3524TIP3    H232132   3.185   2.161   1.502 -0.7842 -1.3463 -0.8720
 3525TIP3   OH232133   6.144   4.290   1.871  0.1505  0.2136  0.2671
 3525TIP3    H132134   6.222   4.305   1.817  0.1504  2.5880  0.8265
 3525TIP3    H232135   6.073   4.330   1.821 -0.9835 -2.6749 -0.6618
 3526TIP3   OH232136   6.590   0.858   0.228  0.3735 -0.3999 -0.1870
 3526TIP3    H132137   6.640   0.805   0.166 -0.4893  0.0706 -1.3134
 3526TIP3    H232138   6.650   0.927   0.256  0.3585  0.1904 -1.5616
 3527TIP3   OH232139   3.506   5.416   0.768 -0.0542 -0.1579 -0.1979
 3527TIP3    H132140   3.532   5.373   0.686 -0.1637 -0.2148 -0.2030
 3527TIP3    H232141   3.567   5.383   0.833 -0.0029 -0.1563 -0.2450
 3528TIP3   OH232142   4.388   6.029   1.011  0.4149 -0.9099 -1.0155
 3528TIP3    H132143   4.325   6.026   1.083 -0.0053  1.4233 -1.2312
 3528TIP3    H232144   4.420   6.119   1.010  1.5057 -1.2622 -2.8431
 3529TIP3   OH232145   4.777   5.928   0.312  0.3128 -0.2325 -0.6669
 3529TIP3    H132146   4.850   5.875   0.282  1.3907  0.1689  1.0674
 3529TIP3    H232147   4.753   5.890   0.397  0.7078  1.6301  0.3315
 3530TIP3   OH232148   2.308   2.315   7.687  0.3263  0.3297 -0.5541
 3530TIP3    H132149   2.229   2.367   7.706 -0.8399 -0.3279 -3.2112
 3530TIP3    H232150   2.351   2.306   7.772 -2.0056  1.4341  0.8493
 3531TIP3   OH232151   0.560   4.251   8.634 -0.0939 -0.4326 -0.1444
 3531TIP3    H132152   0.555   4.171   8.686 -0.9027  0.1335  0.6620
 3531TIP3    H232153   0.653   4.262   8.616  0.0506 -1.4165 -0.0546
 3532TIP3   OH232154   0.566   6.608   0.882  0.2812 -0.1347 -0.6828
 3532TIP3    H132155   0.614   6.545   0.828  0.2439  0.2761 -1.2086
 3532TIP3    H232156   0.476   6.576   0.883 -0.0305  0.6022 -2.0642
 3533TIP3   OH232157   1.548   1.116   0.779  0.1213  0.3110  0.4918
 3533TIP3    H132158   1.453   1.101   0.783  0.3215 -1.8670 -0.9203
 3533TIP3    H232159   1.570   1.151   0.865 -1.6698 -1.1469  1.6342
 3534TIP3   OH232160   5.740   4.853   1.700  0.2447 -0.2408  0.1514
 3534TIP3    H132161   5.724   4.894   1.784  2.2856  0.0833  0.4327
 3534TIP3    H232162   5.666   4.793   1.688 -1.3765  1.5046  0.9697
 3535TIP3   OH232163   5.403   0.449   2.106 -0.6264 -0.2538 -0.2038
 3535TIP3    H132164   5.475   0.393   2.134  0.6810  2.0594  1.2947
 3535TIP3    H232165   5.343   0.450   2.181 -1.0718 -0.2952 -0.5521
 3536TIP3   OH232166   5.140   5.322   8.033  0.2392  0.2997  0.4761
 3536TIP3    H132167   5.175   5.395   8.085  1.1816  2.0728 -2.4407
 3536TIP3    H232168   5.212   5.259   8.030  0.5413  0.6451  0.4456
 3537TIP3   OH232169   3.596   3.229   1.532  0.3170  0.2893 -0.4358
 3537TIP3    H132170   3.511   3.254   1.567  0.7015 -1.1203  1.7155
 3537TIP3    H232171   3.577   3.152   1.478 -0.1604  1.9801 -2.8477
 3538TIP3   OH232172   3.254   0.986   6.793 -0.1725  0.0625  0.1723
 3538TIP3    H132173   3.232   0.910   6.847  0.7321 -0.4936 -0.2284
 3538TIP3    H232174   3.344   0.972   6.766 -0.0421  1.2067 -0.0492
 3539TIP3   OH232175   2.714   2.553   6.728 -0.2841 -0.2398 -0.1450
 3539TIP3    H132176   2.699   2.466   6.763  1.4570 -0.3993  0.2873
 3539TIP3    H232177   2.767   2.539   6.649  0.1346  0.4153  0.0053
 3540TIP3   OH232178   3.351   5.253   7.078 -0.4085 -0.2896 -0.2838
 3540TIP3    H132179   3.418   5.193   7.047  1.6086  1.4214  0.5583
 3540TIP3    H232180   3.303   5.203   7.144  0.2560 -1.4210 -0.6267
 3541TIP3   OH232181   1.649   4.566   2.057  0.1728 -0.2213  0.1547
 3541TIP3    H132182   1.682   4.601   1.974  1.0894  0.9484  0.9702
 3541TIP3    H232183   1.711   4.598   2.123 -1.8844  1.0180  1.6206
 3542TIP3   OH232184   5.375   2.317   3.062  0.2821  0.6968 -0.0655
 3542TIP3    H132185   5.424   2.236   3.047 -0.2859  0.5154 -1.0097
 3542TIP3    H232186   5.332   2.303   3.146  0.9932  0.4376  0.2716
 3543TIP3   OH232187   4.632   2.580   8.706  0.8581 -0.3215  0.0068
 3543TIP3    H132188   4.662   2.636   8.634 -0.3100  0.0687 -0.2102
 3543TIP3    H232189   4.628   2.492   8.669  1.6648 -0.3770  0.0336
 3544TIP3   OH232190   2.849   6.381   1.689 -0.3559 -0.5381  0.0599
 3544TIP3    H132191   2.796   6.435   1.748  1.5078  0.5101  0.8471
 3544TIP3    H232192   2.913   6.442   1.652 -0.0394 -1.6496 -1.3048
 3545TIP3   OH232193   6.540   3.952   1.454  0.3067 -0.2736  0.4941
 3545TIP3    H132194   6.582   3.866   1.459  0.1791 -0.4035 -0.4380
 3545TIP3    H232195   6.605   4.008   1.413 -0.1978 -0.3390 -0.4332
 3546TIP3   OH232196   1.424   2.931   0.781 -0.1157  0.1575  0.0936
 3546TIP3    H132197   1.481   2.949   0.855  1.0497 -0.1388 -0.7074
 3546TIP3    H232198   1.337   2.921   0.820  0.3861  0.4782  1.3531
 3547TIP3   OH232199   0.223   5.155   1.779 -0.1710  0.6467 -0.0443
 3547TIP3    H132200   0.154   5.221   1.779 -1.6740 -0.8693  0.6577
 3547TIP3    H232201   0.208   5.104   1.700 -1.4095 -1.1859  1.2978
 3548TIP3   OH232202   2.672   6.699   8.138 -0.4224  0.2437 -0.2646
 3548TIP3    H132203   2.733   6.718   8.066 -0.8753  0.8472 -0.4965
 3548TIP3    H232204   2.646   6.785   8.171  0.5822 -0.0249  1.3209
 3549TIP3   OH232205   6.481   2.881   0.036  0.2948  0.1617 -0.0267
 3549TIP3    H132206   6.421   2.829  -0.016  0.0731 -0.0794  0.4681
 3549TIP3    H232207   6.497   2.960  -0.017  0.2933 -0.2050 -0.5766
 3550TIP3   OH232208   1.063   0.512   0.778 -0.3881  0.8394 -0.5112
 3550TIP3    H132209   1.108   0.430   0.797 -1.0588  0.6543  0.3115
 3550TIP3    H232210   0.983   0.509   0.830 -1.3335  1.1966 -1.8934
 3551TIP3   OH232211   4.653   0.684   1.548  0.4488 -0.0696 -0.3429
 3551TIP3    H132212   4.723   0.678   1.483 -0.3167 -0.9657 -1.1093
 3551TIP3    H232213   4.699   0.682   1.632  1.3265 -1.3859 -0.8097
 3552TIP3   OH232214   3.389   3.411   1.405 -0.3092  0.1539  0.3217
 3552TIP3    H132215   3.450   3.477   1.372 -1.6638  0.8516 -0.9037
 3552TIP3    H232216   3.386   3.425   1.500  3.1391 -1.4210  0.7883
 3553TIP3   OH232217   2.842   4.802   1.470 -0.1487 -0.3328  0.4475
 3553TIP3    H132218   2.776   4.870   1.454  0.5976  0.0786 -1.0854
 3553TIP3    H232219   2.873   4.778   1.383  0.5458 -1.7144  1.0463
 3554TIP3   OH232220   4.671   4.158   1.659 -0.0794  0.1441 -0.6155
 3554TIP3    H132221   4.763   4.132   1.655  0.0176  0.0956  1.1996
 3554TIP3    H232222   4.647   4.149   1.751 -0.9988  3.1829 -0.4332
 3555TIP3   OH232223   1.582   3.615   1.866  0.0744 -0.1191 -0.2103
 3555TIP3    H132224   1.591   3.688   1.927 -1.6000 -1.2739  1.5461
 3555TIP3    H232225   1.524   3.648   1.797 -0.0363  0.4689  0.1560
 3556TIP3   OH232226   6.437   4.207   0.602 -0.4375  0.2663 -0.9142
 3556TIP3    H132227   6.506   4.151   0.639 -0.4208  0.9857  0.1905
 3556TIP3    H232228   6.484   4.267   0.544  0.0694  1.4770  0.6718
 3557TIP3   OH232229   3.638   6.379   1.728 -0.9586  0.1327  0.3212
 3557TIP3    H132230   3.638   6.380   1.632 -1.9820  0.8227  0.3230
 3557TIP3    H232231   3.685   6.298   1.750 -0.9256 -0.1655 -0.7596
 3558TIP3   OH232232   4.852   1.897   0.996  0.2866  0.0655  0.2020
 3558TIP3    H132233   4.923   1.859   1.048 -0.7586 -0.1611  1.4923
 3558TIP3    H232234   4.897   1.950   0.930  1.6681 -0.4959  0.6581
 3559TIP3   OH232235   4.268   3.630   0.168 -0.2255  0.1032  0.2766
 3559TIP3    H132236   4.284   3.580   0.248  2.5010 -0.8039 -0.7270
 3559TIP3    H232237   4.308   3.715   0.184  1.1825 -0.3963 -0.3799
 3560TIP3   OH232238   6.028   5.459   0.503  0.3532 -0.2001  0.3232
 3560TIP3    H132239   6.007   5.489   0.592 -0.4992 -0.8552  0.3570
 3560TIP3    H232240   5.999   5.368   0.501 -0.3677  0.0263 -0.8667
 3561TIP3   OH232241   1.763   2.280   0.353 -0.2127 -0.3865  0.0215
 3561TIP3    H132242   1.684   2.333   0.359 -0.3232 -0.5615  0.0931
 3561TIP3    H232243   1.799   2.280   0.441 -0.7284 -1.2290  0.2421
 3562TIP3   OH232244   0.935   4.567   2.875 -0.0398 -0.3516 -0.1595
 3562TIP3    H132245   0.936   4.546   2.968 -1.4081  1.5334  0.3469
 3562TIP3    H232246   1.026   4.588   2.854  0.1448  0.0752  0.9907
 3563TIP3   OH232247   5.017   2.473   1.454 -0.4334  0.3641  0.7851
 3563TIP3    H132248   4.952   2.544   1.447  0.4284  1.0588 -0.5399
 3563TIP3    H232249   5.086   2.497   1.392  0.4582 -1.0455  1.1831
 3564TIP3   OH232250   2.578   6.518   7.908 -0.0714  0.3746  0.4719
 3564TIP3    H132251   2.608   6.591   7.963  0.8388  0.0135  0.4780
 3564TIP3    H232252   2.608   6.440   7.953  3.6379  0.0868 -2.0243
 3565TIP3   OH232253   3.249   0.078   3.201  0.7584 -0.0549 -0.2496
 3565TIP3    H132254   3.221   0.169   3.189 -0.4334 -0.0743  1.8364
 3565TIP3    H232255   3.184   0.026   3.154 -0.0047  0.1015  0.6047
 3566TIP3   OH232256   3.614   1.325   6.743 -0.2279 -0.1658 -0.3907
 3566TIP3    H132257   3.648   1.381   6.674  1.2081 -0.3271  0.1558
 3566TIP3    H232258   3.595   1.242   6.699  0.5835 -0.2356 -0.6230
 3567TIP3   OH232259   3.186   0.159   0.019  0.4087  0.2513 -0.3609
 3567TIP3    H132260   3.263   0.104   0.006  0.9819  1.2333 -1.2964
 3567TIP3    H232261   3.220   0.249   0.019 -0.5566  0.6370  0.6959
 3568TIP3   OH232262   3.087   5.407   0.659  0.4238 -0.1755 -0.1652
 3568TIP3    H132263   3.159   5.467   0.679  1.8557 -1.5983 -0.8082
 3568TIP3    H232264   3.008   5.460   0.666  1.6047  1.6728 -0.3372
 3569TIP3   OH232265   3.648   0.440   1.429  0.5281  0.0340 -0.1550
 3569TIP3    H132266   3.572   0.499   1.436 -0.3160 -0.7794 -1.9118
 3569TIP3    H232267   3.646   0.390   1.510 -0.7236  0.1463 -0.0910
 3570TIP3   OH232268   4.211   5.108   8.910 -0.3005 -0.3516 -0.3842
 3570TIP3    H132269   4.273   5.078   8.977  1.2644  0.3104 -1.4693
 3570TIP3    H232270   4.202   5.202   8.926 -1.6849 -0.5782  0.2583
 3571TIP3   OH232271   4.762   2.368   2.463 -0.0117  0.2384 -0.3153
 3571TIP3    H132272   4.797   2.377   2.551 -1.2420 -0.1895  0.2358
 3571TIP3    H232273   4.837   2.386   2.406  0.0640  4.0171  0.7091
 3572TIP3   OH232274   6.052   4.343   1.217  0.7961  0.2245  0.0805
 3572TIP3    H132275   5.965   4.331   1.256  2.1372 -0.6833  3.0917
 3572TIP3    H232276   6.052   4.284   1.141 -1.0098 -0.1772  0.3292
 3573TIP3   OH232277   2.614   1.433   8.111 -0.2422 -0.2380 -0.2752
 3573TIP3    H132278   2.650   1.345   8.105 -1.5943 -0.7932 -0.7255
 3573TIP3    H232279   2.563   1.433   8.191  0.4751  0.4377  0.1976
 3574TIP3   OH232280   0.530   5.245   1.308 -0.5190 -0.2544  0.0824
 3574TIP3    H132281   0.470   5.275   1.239  0.6748 -0.3514 -1.0444
 3574TIP3    H232282   0.481   5.177   1.354 -2.5019  1.9092  1.3623
 3575TIP3   OH232283   1.129   6.038   0.392  0.1748 -0.1813 -0.2555
 3575TIP3    H132284   1.164   6.005   0.475  0.4159  0.4587 -0.0950
 3575TIP3    H232285   1.094   5.961   0.348 -0.0543 -0.5130  0.4912
 3576TIP3   OH232286   3.099   0.756   2.013 -0.0801 -0.1373 -0.3341
 3576TIP3    H132287   3.134   0.781   2.098 -0.1373 -0.4008 -0.2346
 3576TIP3    H232288   3.081   0.839   1.969  2.1381  0.0623 -0.9985
 3577TIP3   OH232289   3.283   5.560   0.848  0.5146 -0.2260  0.1168
 3577TIP3    H132290   3.255   5.503   0.919  1.5614  0.0459  0.7757
 3577TIP3    H232291   3.344   5.506   0.797 -0.2734 -0.4387 -0.6132
 3578TIP3   OH232292   4.057   3.658   0.770 -0.2911 -0.3802 -0.3921
 3578TIP3    H132293   4.106   3.661   0.852  1.1428 -0.3302 -1.2114
 3578TIP3    H232294   4.014   3.743   0.764  2.2643  0.9707 -1.2062
 3579TIP3   OH232295   0.206   4.510   2.014  0.0613 -0.2920  0.4281
 3579TIP3    H132296   0.210   4.564   1.935  0.6640 -0.7973  0.1099
 3579TIP3    H232297   0.281   4.451   2.008 -0.0963 -0.5923  1.1947
 3580TIP3   OH232298   4.120   6.412   8.487  0.5439 -0.4598  0.6252
 3580TIP3    H132299   4.065   6.470   8.541  0.0982 -0.0349 -0.2685
 3580TIP3    H232300   4.180   6.371   8.550 -0.9575 -1.1478  1.6717
 3581TIP3   OH232301   4.682   0.893   7.021  0.0417  0.5056 -0.4025
 3581TIP3    H132302   4.738   0.915   7.096  2.1678  1.7003 -2.2123
 3581TIP3    H232303   4.612   0.957   7.024 -0.8949 -0.5004  1.4425
 3582TIP3   OH232304   3.998   2.334   8.844  0.0903  0.6828 -0.3547
 3582TIP3    H132305   3.966   2.279   8.916 -2.3672  1.9405 -0.3563
 3582TIP3    H232306   3.940   2.411   8.845  2.6005  2.7384 -1.1003
 3583TIP3   OH232307   0.395   4.599   1.613  0.1302  0.1402 -0.4788
 3583TIP3    H132308   0.423   4.612   1.522  1.6064 -0.8302 -0.2064
 3583TIP3    H232309   0.416   4.507   1.631 -0.0330  0.3502  0.8754
 3584TIP3   OH232310   5.652   3.621   2.192  1.0021  0.1139  0.0698
 3584TIP3    H132311   5.629   3.677   2.266  2.8574  1.8613 -0.6032
 3584TIP3    H232312   5.731   3.575   2.220  0.1914 -1.3283  0.1395
 3585TIP3   OH232313   3.812   1.813   2.343  0.5101 -0.0700 -0.4294
 3585TIP3    H132314   3.879   1.876   2.316  0.6734  0.3413  0.8602
 3585TIP3    H232315   3.842   1.781   2.428 -0.9395  0.1481  0.1959
 3586TIP3   OH232316   4.683   2.536   1.949 -0.2731 -0.3928 -0.6400
 3586TIP3    H132317   4.593   2.507   1.963 -1.1528  1.9484 -0.9760
 3586TIP3    H232318   4.721   2.537   2.037 -0.6154 -1.2345 -0.4694
 3587TIP3   OH232319   5.869   1.174   0.964 -0.2274  0.3721 -0.0158
 3587TIP3    H132320   5.867   1.263   1.000  0.6607 -0.3460  1.9467
 3587TIP3    H232321   5.910   1.184   0.878  1.2079  1.6734  0.7688
 3588TIP3   OH232322   4.166   3.475   7.228  0.4009  0.0075  0.0281
 3588TIP3    H132323   4.110   3.409   7.186 -0.7860  1.5775 -1.0074
 3588TIP3    H232324   4.255   3.451   7.203  0.2242 -2.3278  1.3662
 3589TIP3   OH232325   5.444   6.534   7.997  0.6744  0.0715 -0.3640
 3589TIP3    H132326   5.428   6.581   8.079  0.6682 -1.5689  0.6291
 3589TIP3    H232327   5.539   6.541   7.984  0.9070 -0.9766  0.6521
 3590TIP3   OH232328   5.331   2.350   1.065 -0.1527 -0.0957  0.5313
 3590TIP3    H132329   5.257   2.402   1.035  0.6147  1.0726  0.6152
 3590TIP3    H232330   5.293   2.264   1.084 -1.2420  0.0712 -0.7062
 3591TIP3   OH232331   5.313   5.895   2.183  0.4359  0.2713 -0.1877
 3591TIP3    H132332   5.315   5.829   2.252  1.2083  0.5589  0.0713
 3591TIP3    H232333   5.393   5.947   2.196  1.2715 -0.4647 -2.0702
 3592TIP3   OH232334   1.178   1.646   3.082 -0.3122 -0.1540 -0.2163
 3592TIP3    H132335   1.197   1.560   3.119  1.5037 -0.1933 -1.0871
 3592TIP3    H232336   1.232   1.706   3.133 -0.2664  0.2176 -0.6935
 3593TIP3   OH232337   0.478   6.622   3.074  0.1684 -0.7311 -0.2504
 3593TIP3    H132338   0.424   6.630   3.153  1.3130 -1.8387  0.6834
 3593TIP3    H232339   0.422   6.656   3.004 -0.8194  0.4376  1.0371
 3594TIP3   OH232340   5.898   2.210   8.720 -0.2027 -0.1590  0.0632
 3594TIP3    H132341   5.887   2.303   8.697 -0.7460 -0.5122 -1.2030
 3594TIP3    H232342   5.880   2.207   8.814 -2.4802  0.6904 -0.2780
 3595TIP3   OH232343   3.665   3.971   8.802 -0.1383  0.0104 -0.3453
 3595TIP3    H132344   3.644   4.064   8.816  2.7579  0.9034 -1.1767
 3595TIP3    H232345   3.609   3.944   8.730 -0.8578  1.1867 -0.2505
 3596TIP3   OH232346   5.908   3.916   6.918 -0.0366  0.0024  0.4800
 3596TIP3    H132347   5.991   3.960   6.937  1.1231 -1.0140 -1.8183
 3596TIP3    H232348   5.861   3.978   6.862  0.0116 -0.1887  0.2260
 3597TIP3   OH232349   0.090   0.887   7.147  0.1329 -1.2743 -0.4638
 3597TIP3    H132350   0.179   0.917   7.166 -0.4197 -0.5224  0.9654
 3597TIP3    H232351   0.104   0.804   7.100  1.5962 -1.9295  0.9997
 3598TIP3   OH232352   3.302   4.965   8.854  0.7079 -0.3434  0.2366
 3598TIP3    H132353   3.388   4.925   8.861  0.8757  0.1895  1.5010
 3598TIP3    H232354   3.241   4.897   8.883  0.8415 -0.2463  0.7547
 3599TIP3   OH232355   4.708   2.725   8.497  0.1301  0.1886  1.1072
 3599TIP3    H132356   4.739   2.800   8.447 -1.4574  1.2428  1.6243
 3599TIP3    H232357   4.673   2.665   8.430 -0.4635  0.8416  0.8204
 3600TIP3   OH232358   1.791   5.807   0.018 -0.4910 -0.5795 -0.1869
 3600TIP3    H132359   1.719   5.847   0.067 -2.7540 -3.6402 -0.7164
 3600TIP3    H232360   1.771   5.827  -0.074  1.1601  1.2008 -0.2097
 3601TIP3   OH232361   6.183   2.228   2.008  0.4262 -0.4845 -0.2216
 3601TIP3    H132362   6.227   2.248   2.091 -0.2454  0.3967 -0.0693
 3601TIP3    H232363   6.242   2.262   1.941  0.4127 -0.1210 -0.0520
 3602TIP3   OH232364   2.641   0.245   8.135 -0.4129  0.3978 -0.1214
 3602TIP3    H132365   2.594   0.328   8.128 -1.0429 -0.0415 -1.6770
 3602TIP3    H232366   2.713   0.254   8.073  1.0121  0.6826  1.5124
 3603TIP3   OH232367   3.468   4.755   1.216 -0.2918 -0.7600  0.1932
 3603TIP3    H132368   3.412   4.784   1.288 -0.3593 -0.6842  0.1084
 3603TIP3    H232369   3.557   4.761   1.252 -0.3112 -0.5267  0.2006
 3604TIP3   OH232370   5.086   6.344   7.976  0.4249  0.0187  0.3483
 3604TIP3    H132371   5.081   6.312   8.066  0.5639  2.2735  1.2190
 3604TIP3    H232372   5.179   6.336   7.953  0.4383 -0.2797  0.5029
 3605TIP3   OH232373   4.316   3.683   2.006  0.1584 -0.2589  0.0654
 3605TIP3    H132374   4.359   3.732   1.936  0.3014 -1.4071 -0.6863
 3605TIP3    H232375   4.307   3.745   2.077  1.3770  0.5380 -0.4395
 3606TIP3   OH232376   5.950   0.202   7.268 -0.0827  0.8518 -0.5206
 3606TIP3    H132377   5.902   0.140   7.322 -0.5868  0.9575 -0.8489
 3606TIP3    H232378   5.885   0.241   7.211  0.4047  0.9227 -1.0423
 3607TIP3   OH232379   3.712   1.254   7.942  0.6503  0.0911  0.2555
 3607TIP3    H132380   3.710   1.160   7.959  1.4687 -0.1320 -0.7439
 3607TIP3    H232381   3.683   1.263   7.851  1.8957  0.6574 -0.1070
 3608TIP3   OH232382   5.339   6.139   1.897  0.0893  0.3985 -0.6126
 3608TIP3    H132383   5.408   6.166   1.957  0.1859  1.0083 -0.9970
 3608TIP3    H232384   5.275   6.210   1.901 -0.3400  0.0127 -0.5444
 3609TIP3   OH232385   2.282   2.267   1.153  0.2329 -0.3665 -0.2439
 3609TIP3    H132386   2.370   2.258   1.116  0.5559  2.8448 -0.5382
 3609TIP3    H232387   2.295   2.256   1.247  0.6079 -1.6260 -0.4238
 3610TIP3   OH232388   2.438   2.392   2.273 -0.1137  0.2086 -0.6750
 3610TIP3    H132389   2.462   2.307   2.234 -1.1841 -0.1858 -0.5078
 3610TIP3    H232390   2.519   2.423   2.312  0.4505 -0.4442 -1.2848
 3611TIP3   OH232391   5.096   4.570   0.021 -0.3684 -0.6653 -0.6079
 3611TIP3    H132392   5.061   4.659   0.024  1.7860  0.2390  2.0908
 3611TIP3    H232393   5.161   4.572  -0.050  0.8521  0.4830  0.4906
 3612TIP3   OH232394   1.642   6.237   7.824  0.5678  0.3257 -0.3484
 3612TIP3    H132395   1.610   6.221   7.913 -0.0940 -0.2699 -0.6797
 3612TIP3    H232396   1.729   6.198   7.822 -0.0822 -1.1767 -0.4408
 3613TIP3   OH232397   4.373   6.710   2.190 -0.3076  0.2902 -0.5389
 3613TIP3    H132398   4.367   6.619   2.217  0.9141  0.4206  0.3100
 3613TIP3    H232399   4.285   6.745   2.201 -0.4052 -0.3405  0.8615
 3614TIP3   OH232400   6.280   2.919   6.954  0.6983  0.2670  1.2830
 3614TIP3    H132401   6.279   2.943   6.861  1.5885 -1.1400  0.8846
 3614TIP3    H232402   6.279   3.003   7.000  0.0318  0.9884  0.0115
 3615TIP3   OH232403   1.579   0.491   1.501 -0.1627 -0.0172  0.1235
 3615TIP3    H132404   1.573   0.466   1.593  1.6414  0.6388  0.4585
 3615TIP3    H232405   1.576   0.408   1.454  0.2192 -0.4652  0.8623
 3616TIP3   OH232406   5.336   6.499   2.867 -0.5556 -0.0238 -0.5687
 3616TIP3    H132407   5.305   6.557   2.796 -0.1138 -0.8511 -1.4628
 3616TIP3    H232408   5.413   6.456   2.830  0.5432  0.5669  0.9391
 3617TIP3   OH232409   5.959   1.534   2.208  0.3054 -0.1005 -0.4504
 3617TIP3    H132410   6.050   1.513   2.230  0.2080 -0.4449 -0.3643
 3617TIP3    H232411   5.963   1.571   2.120  0.3579 -1.5340 -1.0709
 3618TIP3   OH232412   1.292   6.084   0.837  0.4959 -0.1651 -0.7413
 3618TIP3    H132413   1.280   6.012   0.899  0.2981 -0.4433 -1.0986
 3618TIP3    H232414   1.374   6.065   0.793  0.8983  0.3018 -0.2162
 3619TIP3   OH232415   0.129   5.979   8.351 -0.1184 -0.3986  0.0244
 3619TIP3    H132416   0.172   5.895   8.338 -0.2710 -0.2466 -1.6720
 3619TIP3    H232417   0.090   6.000   8.266 -0.6335  1.0773  0.5860
 3620TIP3   OH232418   5.661   5.383   0.169  0.1236 -0.0192 -0.4245
 3620TIP3    H132419   5.744   5.395   0.122  0.5164 -0.1915  0.2107
 3620TIP3    H232420   5.637   5.292   0.151  0.6040 -0.2820  0.2121
 3621TIP3   OH232421   0.993   5.850   2.026 -0.5021  0.1117 -0.0968
 3621TIP3    H132422   1.079   5.854   2.068 -0.6159 -0.8461  0.2599
 3621TIP3    H232423   0.943   5.921   2.068  0.0270  0.5012 -0.1144
 3622TIP3   OH232424   0.503   0.358   7.672  0.5275 -0.0457 -0.5549
 3622TIP3    H132425   0.418   0.388   7.639  0.1418 -1.1646 -0.6110
 3622TIP3    H232426   0.492   0.264   7.686  1.0252  0.1668  1.6868
 3623TIP3   OH232427   5.880   5.798   2.144  0.5875 -0.1497  1.0597
 3623TIP3    H132428   5.794   5.825   2.176  0.4327  0.4699  0.1707
 3623TIP3    H232429   5.919   5.751   2.217 -1.1686 -1.9582  0.9378
 3624TIP3   OH232430   1.197   2.901   7.770 -0.9614  0.2672  0.0736
 3624TIP3    H132431   1.184   2.904   7.675  0.0889  1.1820 -0.0673
 3624TIP3    H232432   1.265   2.835   7.783  0.3157  1.5306 -0.0158
 3625TIP3   OH232433   1.542   6.157   8.086 -0.1256 -0.7102  0.5502
 3625TIP3    H132434   1.520   6.210   8.162  1.1885  0.9136 -0.1475
 3625TIP3    H232435   1.615   6.102   8.116 -0.1111 -0.6290  0.6624
 3626TIP3   OH232436   1.431   5.006   8.094  0.4067  0.0661  0.4046
 3626TIP3    H132437   1.384   4.950   8.154 -0.5658  1.1343  0.6779
 3626TIP3    H232438   1.392   4.989   8.008 -0.4817  0.9265  0.6254
 3627TIP3   OH232439   3.658   0.054   2.195  0.5758  0.2737 -0.9512
 3627TIP3    H132440   3.639   0.144   2.167  2.3069  0.1400 -2.7488
 3627TIP3    H232441   3.646   0.056   2.290 -0.0286  2.2386 -1.0141
 3628TIP3   OH232442   6.439   2.717   6.810  0.2983 -0.2930 -0.0598
 3628TIP3    H132443   6.381   2.752   6.877  0.0309 -0.7125 -0.0695
 3628TIP3    H232444   6.527   2.740   6.839  0.0841  1.4303 -0.6529
 3629TIP3   OH232445   1.732   2.903   2.246  0.4658  0.6439  0.0185
 3629TIP3    H132446   1.732   2.854   2.328  2.3522 -0.7999 -0.7799
 3629TIP3    H232447   1.719   2.994   2.273  2.4350  0.4058  2.0852
 3630TIP3   OH232448   5.948   1.154   0.093  0.7124  0.1883 -0.4988
 3630TIP3    H132449   5.857   1.179   0.110  0.2557 -1.2629 -0.6648
 3630TIP3    H232450   5.969   1.193   0.009  0.6241  1.4626  0.0513
 3631TIP3   OH232451   1.976   1.726   8.009  0.4807 -0.5503 -0.2634
 3631TIP3    H132452   1.981   1.667   7.935 -0.3466 -0.7839 -0.1386
 3631TIP3    H232453   1.884   1.751   8.015  0.9826  1.7456 -1.0774
 3632TIP3   OH232454   4.890   0.241   2.186  0.3756  0.0036 -0.4564
 3632TIP3    H132455   4.961   0.270   2.243  1.1893 -0.1422 -1.3597
 3632TIP3    H232456   4.909   0.148   2.171  0.3293  0.1004 -1.1572
 3633TIP3   OH232457   2.545   1.879   7.537 -0.2187  0.3711  0.2891
 3633TIP3    H132458   2.462   1.845   7.503 -0.3609 -0.4116  1.3525
 3633TIP3    H232459   2.562   1.826   7.615  2.5199 -1.2020 -1.2037
 3634TIP3   OH232460   5.244   1.269   8.000  0.1271 -0.4238 -0.4699
 3634TIP3    H132461   5.328   1.313   7.993 -0.6418  1.4618  1.2053
 3634TIP3    H232462   5.191   1.306   7.929  0.0845 -0.0628 -0.2526
 3635TIP3   OH232463   1.652   2.889   1.387 -0.1908 -0.2483  0.1170
 3635TIP3    H132464   1.635   2.981   1.370  1.3558  0.0485  0.0424
 3635TIP3    H232465   1.734   2.871   1.341 -0.9201 -1.8937 -0.6239
 3636TIP3   OH232466   0.134   3.821   1.706 -0.4897 -0.0124  0.0494
 3636TIP3    H132467   0.112   3.907   1.740 -0.4963 -0.6905  1.8804
 3636TIP3    H232468   0.068   3.762   1.744 -1.5797 -0.6182 -2.5812
 3637TIP3   OH232469   4.911   1.181   0.884 -0.5165  0.2875 -0.2128
 3637TIP3    H132470   4.849   1.251   0.904 -2.9947 -2.1156  1.3018
 3637TIP3    H232471   4.877   1.141   0.804  0.7249  0.6316 -0.9288
 3638TIP3   OH232472   3.334   3.906   8.856 -0.3080 -0.1427 -0.4821
 3638TIP3    H132473   3.320   3.998   8.880 -0.1378  0.0691 -1.1515
 3638TIP3    H232474   3.406   3.877   8.912 -0.2199  0.2014 -0.4162
 3639TIP3   OH232475   6.201   0.283   7.463  0.0278  0.1703 -0.0851
 3639TIP3    H132476   6.279   0.238   7.430  0.3115  0.2632  0.4619
 3639TIP3    H232477   6.131   0.257   7.402  0.4578  0.0011 -0.5111
 3640TIP3   OH232478   6.262   3.388   1.244  0.3803 -0.0817  0.0661
 3640TIP3    H132479   6.211   3.330   1.300 -2.5902  1.7465 -0.5013
 3640TIP3    H232480   6.320   3.435   1.304 -1.1624  0.2604  1.3581
 3641TIP3   OH232481   0.742   6.559   2.606 -0.6826  0.5956  0.1074
 3641TIP3    H132482   0.728   6.615   2.683 -1.7696 -0.6431  0.8459
 3641TIP3    H232483   0.819   6.506   2.628  0.3194  1.7198 -0.5735
 3642TIP3   OH232484   5.279   4.354   8.442 -0.0045  0.1200 -0.2222
 3642TIP3    H132485   5.308   4.296   8.372 -1.4632 -0.3424 -0.4852
 3642TIP3    H232486   5.198   4.313   8.474 -0.1051  1.0730  0.7863
 3643TIP3   OH232487   4.955   1.110   2.131  0.5376 -0.3440  0.0708
 3643TIP3    H132488   4.951   1.205   2.116 -0.1455 -0.5734 -1.3589
 3643TIP3    H232489   5.027   1.099   2.192  0.3796  1.1386  0.5789
 3644TIP3   OH232490   0.089   0.387   1.949 -0.3009  0.1990 -0.0072
 3644TIP3    H132491   0.044   0.421   2.027  0.1627  0.2199  0.2531
 3644TIP3    H232492   0.143   0.460   1.919 -0.1646  0.0558 -0.1083
 3645TIP3   OH232493   2.990   6.632   7.320  0.0908  0.1220  0.1245
 3645TIP3    H132494   3.024   6.721   7.315  0.1111  0.0887 -0.3986
 3645TIP3    H232495   2.901   6.638   7.283 -0.4731  0.2020  1.4287
 3646TIP3   OH232496   4.508   4.959   2.430 -0.4425  0.0653  0.2784
 3646TIP3    H132497   4.587   4.942   2.378  0.5351 -0.0099  1.7361
 3646TIP3    H232498   4.528   5.040   2.478 -1.6517  0.5882 -0.0625
 3647TIP3   OH232499   6.031   2.134   2.991 -0.3705  0.2645  0.6110
 3647TIP3    H132500   6.001   2.092   2.911  2.5055  0.0856 -0.4915
 3647TIP3    H232501   6.078   2.066   3.039 -1.1689  0.6385  2.0091
 3648TIP3   OH232502   5.996   5.561   8.605  0.9688 -0.2398  0.3085
 3648TIP3    H132503   5.950   5.631   8.558  1.4853  0.0890  0.2781
 3648TIP3    H232504   5.941   5.543   8.681  1.1596  0.6765  0.6757
 3649TIP3   OH232505   4.066   3.484   8.137 -0.0540 -0.3122 -0.1473
 3649TIP3    H132506   4.000   3.456   8.074  0.6039 -0.9502 -0.5719
 3649TIP3    H232507   4.143   3.504   8.084 -0.1665  1.3146  0.2520
 3650TIP3   OH232508   3.034   4.988   0.165  0.0753 -0.4712 -0.0628
 3650TIP3    H132509   2.944   4.956   0.163 -0.0032 -0.3636  1.2539
 3650TIP3    H232510   3.087   4.912   0.143 -0.1951 -1.2144  1.6953
 3651TIP3   OH232511   0.205   4.317   0.146 -0.4054  0.1226 -0.4545
 3651TIP3    H132512   0.145   4.387   0.118 -0.9388 -0.1722 -0.0577
 3651TIP3    H232513   0.276   4.320   0.082  1.5142  3.4510  1.5561
 3652TIP3   OH232514   2.465   2.120   2.179  0.2011 -0.0627 -0.5245
 3652TIP3    H132515   2.546   2.098   2.225  0.2575  0.6338 -0.2854
 3652TIP3    H232516   2.459   2.054   2.110  1.7895  0.7689 -1.5311
 3653TIP3   OH232517   0.297   1.031   2.866 -0.4273  0.3415 -0.6533
 3653TIP3    H132518   0.367   0.991   2.918 -1.8897 -0.9025  0.4610
 3653TIP3    H232519   0.341   1.096   2.812  1.5422 -0.2248  0.1895
 3654TIP3   OH232520   3.065   3.711   8.643 -0.3277  0.1098  0.2331
 3654TIP3    H132521   3.134   3.666   8.692 -0.0861  1.0804  0.7995
 3654TIP3    H232522   2.992   3.648   8.642  0.0416 -0.3478  0.9042
 3655TIP3   OH232523   5.216   5.331   7.023  0.4544 -0.0862 -0.2045
 3655TIP3    H132524   5.195   5.250   7.068 -0.5945  0.7096  0.7828
 3655TIP3    H232525   5.131   5.367   6.996  0.6660  1.9107  1.5854
 3656TIP3   OH232526   6.705   0.959   7.754  0.4883  0.1366 -0.0963
 3656TIP3    H132527   6.675   1.045   7.724 -0.0577  0.0347  0.1462
 3656TIP3    H232528   6.696   0.963   7.850 -1.1943 -0.7840 -0.1776
 3657TIP3   OH232529   5.702   3.671   8.758 -0.0389  0.2035  0.0854
 3657TIP3    H132530   5.745   3.631   8.834 -0.3844 -0.3458 -0.0002
 3657TIP3    H232531   5.613   3.691   8.789  0.3443  1.5953  0.3518
 3658TIP3   OH232532   1.335   1.797   7.319 -0.4642 -0.5609 -0.4114
 3658TIP3    H132533   1.293   1.873   7.279 -1.6694 -1.1013 -0.2231
 3658TIP3    H232534   1.273   1.726   7.304  0.7901 -1.5948 -0.8775
 3659TIP3   OH232535   6.086   5.400   1.413  0.4190 -0.1607 -0.1636
 3659TIP3    H132536   6.082   5.308   1.438 -0.0668 -0.3695 -0.9785
 3659TIP3    H232537   5.994   5.428   1.410  0.4648 -0.0996 -1.5137
 3660TIP3   OH232538   6.092   4.974   0.381  0.0573  0.1938  0.4809
 3660TIP3    H132539   6.175   4.939   0.348  0.5378  2.6554 -1.2153
 3660TIP3    H232540   6.026   4.916   0.344  0.8902 -0.1171 -0.6018
 3661TIP3   OH232541   2.690   5.940   0.681 -0.2744  0.0804  0.1866
 3661TIP3    H132542   2.735   6.006   0.629  0.0207 -0.5330 -0.3460
 3661TIP3    H232543   2.716   5.958   0.772 -1.1998  1.4750  0.2086
 3662TIP3   OH232544   4.897   1.130   7.652 -0.1456  0.1734  0.0637
 3662TIP3    H132545   4.901   1.101   7.743  1.6429  1.2222  0.3627
 3662TIP3    H232546   4.807   1.162   7.641 -0.4425 -0.1357  1.3954
 3663TIP3   OH232547   2.126   6.470   7.901 -0.0142 -0.2865  0.6241
 3663TIP3    H132548   2.057   6.449   7.837 -1.1417  0.8945  1.4028
 3663TIP3    H232549   2.133   6.391   7.954  1.4870 -1.5957 -1.3659
 3664TIP3   OH232550   5.428   6.509   8.816  0.5820 -0.2231 -0.2852
 3664TIP3    H132551   5.472   6.505   8.731  0.6909 -1.3984 -0.1881
 3664TIP3    H232552   5.461   6.433   8.864 -2.5636 -2.0513 -0.7162
 3665TIP3   OH232553   4.690   2.506   0.912 -0.1452 -0.1498  0.5026
 3665TIP3    H132554   4.696   2.597   0.883  0.1986 -0.1667  0.5145
 3665TIP3    H232555   4.745   2.502   0.990 -0.5337 -0.2595  0.7723
 3666TIP3   OH232556   6.013   3.696   7.563  0.0025 -0.0479 -0.0256
 3666TIP3    H132557   6.071   3.772   7.553 -0.9328  0.9325  1.5433
 3666TIP3    H232558   5.929   3.727   7.529 -0.3006 -0.4912  0.3235
 3667TIP3   OH232559   0.433   6.514   6.924  0.9539  0.0127 -0.2796
 3667TIP3    H132560   0.405   6.605   6.934  2.0278  0.1450  2.5690
 3667TIP3    H232561   0.373   6.477   6.860  0.5109  2.7046 -1.5772
 3668TIP3   OH232562   6.576   1.454   8.381  0.2503  0.1351 -0.4813
 3668TIP3    H132563   6.566   1.500   8.464  1.5498 -3.1363  1.6916
 3668TIP3    H232564   6.669   1.461   8.360  0.3084 -0.7654 -0.5649
 3669TIP3   OH232565   4.301   1.189   7.472 -0.2618 -0.0138  0.0855
 3669TIP3    H132566   4.393   1.170   7.453 -1.1496 -2.2088 -2.6001
 3669TIP3    H232567   4.258   1.190   7.387 -2.8917  0.1632  1.3144
 3670TIP3   OH232568   3.066   5.311   1.794  0.3778  0.2298  0.4739
 3670TIP3    H132569   3.004   5.309   1.721  0.6926  0.2190  0.2056
 3670TIP3    H232570   3.012   5.294   1.872  0.3263 -1.6972  0.0543
 3671TIP3   OH232571   4.860   3.324   7.847  0.2294  0.1681 -0.4599
 3671TIP3    H132572   4.777   3.281   7.828 -0.4424  1.3015 -0.2134
 3671TIP3    H232573   4.842   3.417   7.832  1.4557  0.4250 -0.3981
 3672TIP3   OH232574   6.177   0.630   6.837 -0.5714 -0.0525 -0.0267
 3672TIP3    H132575   6.166   0.535   6.834  1.2797 -0.3331  0.7100
 3672TIP3    H232576   6.268   0.644   6.812 -1.6322  1.8166 -3.5451
 3673TIP3   OH232577   1.599   3.203   1.846 -0.5088 -0.0458  0.6513
 3673TIP3    H132578   1.631   3.116   1.869  0.4877  0.0536 -0.3041
 3673TIP3    H232579   1.642   3.262   1.907  1.7107  0.1576 -0.9841
 3674TIP3   OH232580   2.887   4.954   2.425 -0.1970  0.3543  0.7907
 3674TIP3    H132581   2.968   4.965   2.474 -0.2805  2.1186  0.5781
 3674TIP3    H232582   2.914   4.917   2.341  0.2795  0.1499  1.0302
 3675TIP3   OH232583   3.568   2.157   1.630  0.0100 -0.2633 -0.9537
 3675TIP3    H132584   3.534   2.229   1.576 -0.3683 -1.2712 -2.1060
 3675TIP3    H232585   3.660   2.150   1.605  0.4355  0.7226  0.2155
 3676TIP3   OH232586   1.369   5.681   8.269 -0.0614 -0.1014  0.6074
 3676TIP3    H132587   1.398   5.762   8.311 -0.0833  0.6933 -0.8323
 3676TIP3    H232588   1.428   5.613   8.303  1.4748  0.9271  0.1143
 3677TIP3   OH232589   6.721   1.873   0.506 -0.2140  0.4193  0.4615
 3677TIP3    H132590   6.689   1.861   0.596  1.5419 -2.0442  0.8559
 3677TIP3    H232591   6.815   1.857   0.512 -0.0705  0.1383 -1.8353
 3678TIP3   OH232592   0.238   0.204   1.788  0.2259  0.0793  0.5200
 3678TIP3    H132593   0.295   0.177   1.860 -0.8176 -0.2100  1.2626
 3678TIP3    H232594   0.163   0.245   1.831 -0.8719 -0.9618 -0.3362
 3679TIP3   OH232595   4.110   2.411   7.118  0.0938 -0.4552 -0.1265
 3679TIP3    H132596   4.090   2.323   7.149  2.0244 -0.8427  0.1524
 3679TIP3    H232597   4.045   2.428   7.049 -0.4864 -1.9736  0.0206
 3680TIP3   OH232598   1.479   1.160   8.036 -0.0505 -0.6292 -0.2314
 3680TIP3    H132599   1.391   1.176   8.071  0.1286 -1.2984  0.5398
 3680TIP3    H232600   1.475   1.070   8.003  0.0583 -0.3204 -1.1031
 3681TIP3   OH232601   2.241   2.813   2.456  0.2123  0.3366 -0.5368
 3681TIP3    H132602   2.322   2.859   2.479 -0.3171  0.3196  1.6055
 3681TIP3    H232603   2.261   2.721   2.475 -0.7272  0.5015  1.5674
 3682TIP3   OH232604   6.385   6.354   2.415 -0.4840  0.4910  0.5929
 3682TIP3    H132605   6.472   6.315   2.415  0.0243  1.5623  0.6642
 3682TIP3    H232606   6.375   6.389   2.504 -1.5573 -0.8083  1.0000
 3683TIP3   OH232607   0.647   2.880   8.761  0.5442  0.0771 -0.1372
 3683TIP3    H132608   0.671   2.888   8.853  0.6893 -0.1428 -0.1556
 3683TIP3    H232609   0.606   2.964   8.739  1.7671  0.6667 -0.2483
 3684TIP3   OH232610   2.864   6.068   0.358 -0.1059  0.2918  0.2022
 3684TIP3    H132611   2.928   6.092   0.291 -0.9662 -1.0465 -1.1438
 3684TIP3    H232612   2.782   6.058   0.310 -0.9849  0.3771  1.6422
 3685TIP3   OH232613   4.863   3.496   1.199 -0.8366 -0.8043 -0.3479
 3685TIP3    H132614   4.887   3.569   1.141 -1.0948  0.3702  0.9540
 3685TIP3    H232615   4.826   3.430   1.140 -0.8788  0.2401 -1.5494
 3686TIP3   OH232616   0.218   1.063   8.539  0.0569 -0.2371  0.4736
 3686TIP3    H132617   0.265   0.992   8.583  2.0152  1.7119  1.7508
 3686TIP3    H232618   0.235   1.048   8.446  2.0589 -0.4238  0.8208
 3687TIP3   OH232619   4.832   1.186   8.154  0.2039  0.5013 -0.5802
 3687TIP3    H132620   4.925   1.202   8.146 -0.1480  2.2701 -1.5915
 3687TIP3    H232621   4.798   1.190   8.064 -0.5820 -2.1716 -0.4875
 3688TIP3   OH232622   1.720   5.423   1.767 -0.0469  0.5246 -0.0299
 3688TIP3    H132623   1.766   5.483   1.709 -0.8789  0.5624 -0.6771
 3688TIP3    H232624   1.726   5.338   1.722 -2.3828  0.9033 -1.2501
 3689TIP3   OH232625   6.214   5.356   1.703 -0.0898  0.4582  0.1409
 3689TIP3    H132626   6.137   5.351   1.646 -0.4775 -0.9518  0.7306
 3689TIP3    H232627   6.205   5.440   1.748 -1.3540  0.2823  0.2660
 3690TIP3   OH232628   3.534   1.412   8.078 -0.0432  0.1174  0.4892
 3690TIP3    H132629   3.461   1.415   8.016  0.6359  0.7516 -0.3068
 3690TIP3    H232630   3.603   1.364   8.033  0.0271 -0.5317  1.2602
 3691TIP3   OH232631   6.143   4.565   8.429  0.4977  0.4441 -0.1063
 3691TIP3    H132632   6.083   4.559   8.504  0.7256 -1.7711 -0.0242
 3691TIP3    H232633   6.228   4.585   8.469  0.6933 -1.1018  0.3054
 3692TIP3   OH232634   1.961   2.619   7.032 -0.1154 -0.1120  0.5724
 3692TIP3    H132635   2.054   2.602   7.047 -0.6942 -3.9332  0.6828
 3692TIP3    H232636   1.957   2.656   6.944  1.4471 -1.2027 -0.0090
 3693TIP3   OH232637   5.064   4.515   8.047 -0.1309  0.0597  0.0037
 3693TIP3    H132638   5.104   4.434   8.078  0.5826 -0.4748 -2.1121
 3693TIP3    H232639   5.127   4.583   8.068 -0.4278 -0.0154  1.1889
 3694TIP3   OH232640   1.629   3.302   7.703  0.2685 -0.2022  0.3765
 3694TIP3    H132641   1.668   3.389   7.714  0.4931 -0.5057  2.2428
 3694TIP3    H232642   1.703   3.244   7.686  0.5455 -0.5376  2.4696
 3695TIP3   OH232643   3.188   2.224   2.517 -0.2427  0.4724 -0.1096
 3695TIP3    H132644   3.224   2.230   2.606 -2.5234 -1.8789  1.1010
 3695TIP3    H232645   3.148   2.309   2.502 -1.2264  0.4205  1.8465
 3696TIP3   OH232646   0.591   0.443   0.751 -0.0109 -0.0906  0.1584
 3696TIP3    H132647   0.596   0.390   0.671 -1.9895  1.7163 -1.2956
 3696TIP3    H232648   0.665   0.503   0.744 -0.7251  0.7110 -0.8862
 3697TIP3   OH232649   4.576   6.291   8.294  0.1804 -0.0405 -0.4236
 3697TIP3    H132650   4.596   6.368   8.347  0.3124 -0.5552  0.2812
 3697TIP3    H232651   4.510   6.244   8.345  2.6626 -2.2789  0.9607
 3698TIP3   OH232652   3.899   1.483   8.046  0.4021  0.0211 -0.3757
 3698TIP3    H132653   3.855   1.398   8.042  0.9475 -0.3839  1.3916
 3698TIP3    H232654   3.856   1.529   8.118 -0.2056  1.4716 -1.5991
 3699TIP3   OH232655   2.070   6.350   2.351  0.1183  0.8740  0.0185
 3699TIP3    H132656   2.124   6.385   2.422 -0.0749 -0.5505  0.9012
 3699TIP3    H232657   1.995   6.311   2.395  0.5337 -1.0210 -0.8759
 3700TIP3   OH232658   5.263   6.694   2.710 -0.0240 -0.0895  0.2926
 3700TIP3    H132659   5.203   6.767   2.698  0.5233  0.6698  1.8566
 3700TIP3    H232660   5.337   6.714   2.652 -1.1213 -0.9402 -1.5024
 3701TIP3   OH232661   1.092   0.804   0.178  0.3923 -0.5903 -0.2473
 3701TIP3    H132662   1.007   0.785   0.218  0.3956  0.5504  0.3537
 3701TIP3    H232663   1.072   0.842   0.093  0.2720  0.0809  0.0732
 3702TIP3   OH232664   3.322   1.948   7.214 -0.3230  0.2438  0.7532
 3702TIP3    H132665   3.337   1.908   7.128 -2.6562 -0.1223  0.4334
 3702TIP3    H232666   3.401   1.998   7.232  0.0512  0.7192 -1.8355
 3703TIP3   OH232667   0.317   2.133   2.297 -0.0914 -0.0509 -0.0245
 3703TIP3    H132668   0.399   2.158   2.254 -0.2020 -0.9062 -0.7593
 3703TIP3    H232669   0.343   2.071   2.364 -0.0361  0.4751  0.4515
 3704TIP3   OH232670   1.176   5.938   8.367  0.4113 -0.1120  0.2325
 3704TIP3    H132671   1.113   5.995   8.409 -0.6520 -0.7823 -0.4097
 3704TIP3    H232672   1.158   5.851   8.404 -0.7067 -0.7632 -1.7127
 3705TIP3   OH232673   0.552   1.913   8.442 -0.1965  0.1311  0.8138
 3705TIP3    H132674   0.480   1.896   8.503  0.7030 -0.2790  1.7912
 3705TIP3    H232675   0.625   1.860   8.475  0.7257  0.9579  0.1753
 3706TIP3   OH232676   1.158   5.499   1.147 -0.1779 -0.6050 -0.7273
 3706TIP3    H132677   1.222   5.569   1.136  0.1212 -1.0232 -1.7140
 3706TIP3    H232678   1.156   5.454   1.063 -0.0347 -2.0657  0.0134
 3707TIP3   OH232679   2.375   4.169   0.787 -0.1635 -0.2088  0.1661
 3707TIP3    H132680   2.443   4.187   0.721  0.5203 -0.8686  0.6724
 3707TIP3    H232681   2.398   4.225   0.860  1.0028 -1.8121  1.0971
 3708TIP3   OH232682   5.507   6.292   0.043  0.0050  0.5859  0.1556
 3708TIP3    H132683   5.432   6.235   0.058  0.5134 -0.0064  0.5253
 3708TIP3    H232684   5.573   6.234   0.004  0.5280  0.9127  0.5365
 3709TIP3   OH232685   2.127   1.807   0.366  0.3523  0.1984 -0.6761
 3709TIP3    H132686   2.157   1.877   0.424 -0.3383  0.7377 -0.9597
 3709TIP3    H232687   2.032   1.805   0.377  0.4931 -1.7939  0.5356
 3710TIP3   OH232688   0.172   2.298   1.944  0.6854 -0.1184 -0.1743
 3710TIP3    H132689   0.178   2.256   2.029  1.7697  0.2312 -0.0639
 3710TIP3    H232690   0.173   2.392   1.963  0.3414 -0.0338 -0.5423
 3711TIP3   OH232691   4.091   0.947   8.136  0.6619 -0.1958  0.0390
 3711TIP3    H132692   4.099   1.042   8.138  2.3858 -0.2770 -0.9728
 3711TIP3    H232693   4.179   0.915   8.153  0.3699 -1.5803 -0.8444
 3712TIP3   OH232694   6.216   5.825   8.840 -0.1300  0.6954  0.1673
 3712TIP3    H132695   6.243   5.772   8.914  0.0455 -0.3882 -0.6572
 3712TIP3    H232696   6.130   5.860   8.865 -0.1306  0.2339  0.8147
 3713TIP3   OH232697   6.382   5.509   1.948  1.4622 -0.3875  0.6379
 3713TIP3    H132698   6.461   5.547   1.912  1.5710 -1.6864 -0.5934
 3713TIP3    H232699   6.382   5.418   1.916 -1.6915  0.1688 -1.4379
 3714TIP3   OH232700   6.268   0.580   0.333  0.3990  0.5667  0.0708
 3714TIP3    H132701   6.197   0.625   0.286  0.0345  0.2658  0.3331
 3714TIP3    H232702   6.286   0.636   0.408  0.8070  0.9162 -0.2802
 3715TIP3   OH232703   2.289   4.734   2.664 -0.4998 -0.4224 -0.4006
 3715TIP3    H132704   2.229   4.757   2.593  0.4474 -1.7007 -1.6722
 3715TIP3    H232705   2.353   4.805   2.665  1.0342 -1.6679 -2.6941
 3716TIP3   OH232706   5.498   3.810   1.844  0.0545  0.0350 -0.2804
 3716TIP3    H132707   5.508   3.861   1.764  0.7497 -0.0234 -0.2370
 3716TIP3    H232708   5.587   3.792   1.873 -0.1836 -0.6931  0.0328
 3717TIP3   OH232709   3.281   4.838   2.339 -0.0460  0.2915 -0.1460
 3717TIP3    H132710   3.323   4.765   2.293 -1.9595 -1.7200  1.0597
 3717TIP3    H232711   3.349   4.874   2.395  0.1637 -3.0493  2.0006
 3718TIP3   OH232712   1.028   4.339   0.222 -0.0984  0.4372 -0.3156
 3718TIP3    H132713   1.076   4.372   0.146 -1.9359  0.5324 -1.4911
 3718TIP3    H232714   1.091   4.282   0.267  2.3532  3.4768  0.4306
 3719TIP3   OH232715   3.389   1.685   1.252 -0.0620  0.1803  0.0915
 3719TIP3    H132716   3.452   1.756   1.261  0.9947 -0.8083  0.8010
 3719TIP3    H232717   3.320   1.705   1.315 -0.5582  1.3325 -0.7716
 3720TIP3   OH232718   0.334   5.424   1.549 -0.0194 -0.5615 -0.1948
 3720TIP3    H132719   0.419   5.447   1.511 -0.1151  0.2682  0.0589
 3720TIP3    H232720   0.278   5.499   1.528 -0.2918 -0.4476  0.8827
 3721TIP3   OH232721   3.787   3.563   1.049 -0.2293 -0.1628  0.0672
 3721TIP3    H132722   3.700   3.596   1.026 -0.9766 -2.7867 -1.2921
 3721TIP3    H232723   3.793   3.478   1.004  2.7613 -0.4052  0.7209
 3722TIP3   OH232724   0.404   6.116   1.623 -0.3889  0.0633 -0.2501
 3722TIP3    H132725   0.344   6.049   1.593  0.9967 -1.5652  0.4334
 3722TIP3    H232726   0.478   6.112   1.562  0.3236 -0.0258  0.5892
 3723TIP3   OH232727   4.568   0.173   7.627 -0.3714  0.2708 -0.3872
 3723TIP3    H132728   4.517   0.151   7.549 -0.9922 -1.6692  0.4988
 3723TIP3    H232729   4.656   0.191   7.594 -0.2321 -2.0110 -1.4416
 3724TIP3   OH232730   5.377   4.218   1.638 -0.5421  0.4129  0.3126
 3724TIP3    H132731   5.405   4.193   1.726 -1.0857  0.1277  0.4056
 3724TIP3    H232732   5.348   4.309   1.647 -0.5733  0.3912  0.4272
 3725TIP3   OH232733   0.436   4.361   0.856  0.2509 -0.0733 -0.4088
 3725TIP3    H132734   0.418   4.287   0.798  0.8132 -0.5519  0.0048
 3725TIP3    H232735   0.448   4.321   0.942  0.0779  0.5580 -0.0827
 3726TIP3   OH232736   0.626   4.581   1.930 -0.1418 -0.4262  0.2639
 3726TIP3    H132737   0.635   4.499   1.882 -0.2575 -1.1878  1.4999
 3726TIP3    H232738   0.572   4.636   1.873  0.6888 -0.8664 -0.9774
 3727TIP3   OH232739   1.167   3.361   7.916  0.2932  0.1212  0.1998
 3727TIP3    H132740   1.086   3.375   7.867  1.0097  0.7609 -0.8328
 3727TIP3    H232741   1.163   3.270   7.945 -0.2608 -0.1944 -0.8453
 3728TIP3   OH232742   4.050   4.614   0.212 -0.2163 -0.3847  0.4366
 3728TIP3    H132743   4.135   4.658   0.212 -0.2897 -0.2029  1.4909
 3728TIP3    H232744   3.997   4.665   0.152 -0.3529  1.1390  1.7767
 3729TIP3   OH232745   4.136   6.135   8.355 -0.2186 -0.6148 -0.1880
 3729TIP3    H132746   4.218   6.119   8.402 -0.9859  0.8464  1.7694
 3729TIP3    H232747   4.161   6.188   8.280  0.7911 -1.3774 -0.4137
 3730TIP3   OH232748   2.608   2.386   7.206  0.3890  0.4114  0.4975
 3730TIP3    H132749   2.515   2.366   7.205  0.5917 -0.5675 -0.0238
 3730TIP3    H232750   2.623   2.433   7.124  0.9911 -2.7464 -1.3924
 3731TIP3   OH232751   0.312   3.153   1.465 -0.6232  0.0410 -0.0685
 3731TIP3    H132752   0.381   3.092   1.440  0.1376  0.0416  1.8528
 3731TIP3    H232753   0.288   3.198   1.384  0.1846 -1.4010 -1.1440
 3732TIP3   OH232754   5.798   0.604   8.558  0.1266  0.4710 -0.5690
 3732TIP3    H132755   5.708   0.618   8.585  0.3261 -0.7969  0.8855
 3732TIP3    H232756   5.836   0.691   8.551 -0.9396  0.9650 -0.2282
 3733TIP3   OH232757   3.799   3.744   7.948 -0.0119  0.2065  0.4352
 3733TIP3    H132758   3.825   3.782   8.032 -1.5933  0.7371  0.7184
 3733TIP3    H232759   3.703   3.741   7.952 -0.1982  1.3196 -1.8074
 3734TIP3   OH232760   6.385   1.641   1.326 -0.0623 -0.8381 -0.4942
 3734TIP3    H132761   6.299   1.662   1.290 -1.2129 -1.1754  1.8988
 3734TIP3    H232762   6.412   1.720   1.373 -0.1998 -1.5194  0.7786
 3735TIP3   OH232763   3.837   5.497   2.062  0.3483 -0.5087 -0.2336
 3735TIP3    H132764   3.803   5.538   1.983  1.5177 -1.2802 -1.1620
 3735TIP3    H232765   3.860   5.570   2.119  1.1486  0.1171 -1.3260
 3736TIP3   OH232766   4.546   6.584   1.948  0.2495  0.3207  0.0666
 3736TIP3    H132767   4.547   6.662   1.893  0.4175  1.2466  1.3357
 3736TIP3    H232768   4.456   6.551   1.942 -0.1193  1.2361  0.3502
 3737TIP3   OH232769   5.773   1.443   8.667 -0.1279 -0.1043  0.0856
 3737TIP3    H132770   5.680   1.419   8.675  0.1934 -1.0733  1.0818
 3737TIP3    H232771   5.788   1.448   8.572 -1.8789  2.8972 -0.1645
 3738TIP3   OH232772   2.460   1.740   1.051 -0.0578  0.0847 -0.0312
 3738TIP3    H132773   2.494   1.728   1.139 -0.0749 -0.4539 -0.0978
 3738TIP3    H232774   2.528   1.789   1.005  0.9124 -1.4641 -0.3305
 3739TIP3   OH232775   6.501   0.584   2.024 -0.0558 -0.4525 -1.0873
 3739TIP3    H132776   6.514   0.523   2.097  1.7509  0.3968 -0.6539
 3739TIP3    H232777   6.469   0.529   1.952  0.8548 -1.8050 -0.4942
 3740TIP3   OH232778   6.120   5.740   1.554 -0.5787  0.2166  0.0472
 3740TIP3    H132779   6.184   5.791   1.504 -0.4540 -0.1572 -0.1777
 3740TIP3    H232780   6.037   5.756   1.511 -0.1510 -1.9398 -1.7730
 3741TIP3   OH232781   1.725   4.044   0.235 -0.2582  0.2519 -0.3896
 3741TIP3    H132782   1.642   3.999   0.217 -0.7030 -0.1339  2.1206
 3741TIP3    H232783   1.774   3.982   0.290  0.9937  1.1237 -0.4767
 3742TIP3   OH232784   0.080   0.005   8.832 -0.3939 -1.2664  0.2687
 3742TIP3    H132785   0.037   0.029   8.914 -0.1922 -0.6878  0.2065
 3742TIP3    H232786   0.173   0.023   8.848 -0.3880 -0.9080 -0.1762
 3743TIP3   OH232787   3.734   3.476   2.064 -0.0769 -0.1151  0.2205
 3743TIP3    H132788   3.785   3.556   2.052 -0.7321  0.2234 -0.3110
 3743TIP3    H232789   3.742   3.457   2.158  0.9169  0.0008  0.1727
 3744TIP3   OH232790   4.757   5.979   8.788  0.3854  0.1372 -0.1536
 3744TIP3    H132791   4.795   6.042   8.849  1.6203 -1.3539  0.6859
 3744TIP3    H232792   4.725   5.908   8.844  2.1926 -1.6142 -1.2115
 3745TIP3   OH232793   5.822   6.715   0.938  0.5744  0.0625  0.1656
 3745TIP3    H132794   5.777   6.795   0.965  0.3987 -0.0771  0.2962
 3745TIP3    H232795   5.763   6.676   0.873  0.8039  0.1934 -0.1239
 3746TIP3   OH232796   2.627   4.146   8.199 -0.5461 -0.3593  0.0883
 3746TIP3    H132797   2.605   4.095   8.277 -1.1451 -0.4312 -0.1222
 3746TIP3    H232798   2.551   4.201   8.183  0.4958  1.4208  0.9336
 3747TIP3   OH232799   1.292   0.416   8.736 -0.3729 -0.1431  0.0064
 3747TIP3    H132800   1.236   0.433   8.660 -0.5616 -1.4420 -0.1721
 3747TIP3    H232801   1.235   0.430   8.811 -0.3067  0.7188 -0.0911
 3748TIP3   OH232802   2.366   1.135   0.915 -0.5166 -0.1220  0.6348
 3748TIP3    H132803   2.398   1.049   0.887 -1.2267 -0.5839  1.1904
 3748TIP3    H232804   2.272   1.121   0.931 -0.4711  0.5400  1.5388
 3749TIP3   OH232805   0.407   4.674   0.772 -0.2997 -0.1975 -0.0328
 3749TIP3    H132806   0.482   4.669   0.831  0.6524 -0.6515 -1.2266
 3749TIP3    H232807   0.397   4.584   0.739 -1.9123 -0.3286  0.7300
 3750TIP3   OH232808   0.199   5.979   7.483 -0.7402 -0.4780  0.3038
 3750TIP3    H132809   0.160   6.053   7.530 -2.6742 -1.0831 -0.2551
 3750TIP3    H232810   0.196   6.005   7.391 -2.4458 -1.5966 -0.0204
 3751TIP3   OH232811   4.946   1.786   8.873 -0.3690 -0.1126 -0.0160
 3751TIP3    H132812   5.037   1.780   8.846 -0.0359 -0.5127  1.1129
 3751TIP3    H232813   4.896   1.775   8.793  0.5758  0.6450 -0.7333
 3752TIP3   OH232814   3.530   3.876   0.773  0.4025 -0.0939  0.1575
 3752TIP3    H132815   3.594   3.946   0.764 -0.6426  0.8907  0.0595
 3752TIP3    H232816   3.561   3.808   0.714  0.7563  0.8389 -0.7760
 3753TIP3   OH232817   2.836   3.408   8.418  0.4002 -0.0322  0.3828
 3753TIP3    H132818   2.827   3.469   8.345 -0.1504  0.8054  1.1318
 3753TIP3    H232819   2.927   3.417   8.447  0.4784  0.0006  0.1273
 3754TIP3   OH232820   5.126   3.154   0.152 -0.4280 -0.8583 -0.3106
 3754TIP3    H132821   5.220   3.138   0.147 -0.4532 -1.2869  0.3719
 3754TIP3    H232822   5.086   3.067   0.145 -0.5776 -1.2338  3.2449
 3755TIP3   OH232823   1.071   4.703   8.730 -0.4398 -0.3453 -0.2462
 3755TIP3    H132824   1.138   4.748   8.782 -0.8589 -0.2777  0.2483
 3755TIP3    H232825   1.113   4.688   8.646  0.4633 -1.0014  0.3000
 3756TIP3   OH232826   4.077   0.657   8.892  0.0443 -0.5172 -0.2703
 3756TIP3    H132827   4.019   0.638   8.819  0.5507 -2.0807 -0.3249
 3756TIP3    H232828   4.163   0.673   8.852  0.1371 -0.5282 -0.0819
 3757TIP3   OH232829   3.909   5.886   2.223  0.4726 -0.2896  0.5440
 3757TIP3    H132830   3.932   5.794   2.217  0.8004 -0.2275  0.8164
 3757TIP3    H232831   3.868   5.896   2.309  2.3534  0.2121  1.4491
 3758TIP3   OH232832   5.517   0.229   2.698  0.4498 -0.0856  0.1107
 3758TIP3    H132833   5.542   0.239   2.790 -2.2938 -0.1066  0.9460
 3758TIP3    H232834   5.495   0.318   2.669  0.2604 -0.2269 -0.1848
 3759TIP3   OH232835   1.758   5.478   8.742 -0.3911 -0.2166 -0.2443
 3759TIP3    H132836   1.749   5.547   8.677 -0.0937  0.5945  0.5550
 3759TIP3    H232837   1.809   5.409   8.698 -0.5549  0.1371 -0.9927
 3760TIP3   OH232838   0.426   3.899   0.210  0.5238 -0.4602  0.0914
 3760TIP3    H132839   0.466   3.986   0.203  0.7087 -0.3720  1.7764
 3760TIP3    H232840   0.353   3.902   0.149  1.5305  0.2716 -1.1451
 3761TIP3   OH232841   5.012   6.531   2.582 -0.2497 -0.4848  0.7227
 3761TIP3    H132842   5.031   6.624   2.570 -0.0826 -0.0817  3.4574
 3761TIP3    H232843   4.932   6.516   2.531 -0.0832  1.0602 -0.0515
 3762TIP3   OH232844   6.484   4.044   1.767  0.0964 -0.1286 -0.1960
 3762TIP3    H132845   6.543   4.099   1.715  1.5343 -1.3149  0.1000
 3762TIP3    H232846   6.442   3.986   1.703  0.5780 -0.4363 -0.2437
 3763TIP3   OH232847   6.720   4.072   0.108  0.6289 -0.1811  0.0496
 3763TIP3    H132848   6.645   4.130   0.099  1.7931  1.4643  0.5078
 3763TIP3    H232849   6.777   4.095   0.034  1.4264 -0.2145  0.6361
 3764TIP3   OH232850   0.072   2.953   0.700  0.8274 -0.3916 -0.5145
 3764TIP3    H132851   0.010   2.946   0.773 -0.0593  0.1582 -1.1900
 3764TIP3    H232852   0.129   2.877   0.710 -0.5223 -1.4423 -0.3665
 3765TIP3   OH232853   6.432   5.182   1.711 -0.1620 -0.9951  0.0559
 3765TIP3    H132854   6.389   5.267   1.703  2.3844  0.2930 -1.0040
 3765TIP3    H232855   6.363   5.118   1.689 -2.2162  0.6999  1.2057
 3766TIP3   OH232856   4.956   3.374   0.808 -0.5774 -0.3369  0.5029
 3766TIP3    H132857   4.949   3.317   0.884  0.3792  0.4587  1.2040
 3766TIP3    H232858   5.049   3.375   0.786 -0.7412  0.0395 -0.2174
 3767TIP3   OH232859   3.768   1.493   0.802  0.0328  0.3851 -0.1456
 3767TIP3    H132860   3.859   1.485   0.830 -0.4216  0.2862  1.4241
 3767TIP3    H232861   3.744   1.406   0.771 -0.9341 -1.1707  4.2002
 3768TIP3   OH232862   4.737   2.706   8.932 -0.1094 -0.0657  0.2165
 3768TIP3    H132863   4.805   2.766   8.900  0.4377  0.0344  1.4955
 3768TIP3    H232864   4.707   2.660   8.854  0.5899  0.7364 -0.5523
 3769TIP3   OH232865   2.085   3.828   0.198  0.5905  0.4023 -0.0362
 3769TIP3    H132866   2.095   3.892   0.128 -3.1385  2.6948  1.2572
 3769TIP3    H232867   2.166   3.836   0.249  1.9086  1.0921 -2.1062
 3770TIP3   OH232868   1.185   3.998   0.802 -0.0540  0.0459  0.2162
 3770TIP3    H132869   1.115   3.981   0.866  0.1718 -2.1685 -0.0700
 3770TIP3    H232870   1.141   4.043   0.730 -0.8705  0.0486  0.7044
 3771TIP3   OH232871   5.323   1.172   8.708 -0.3597 -0.0303  0.5579
 3771TIP3    H132872   5.308   1.170   8.614 -0.2896  0.1774  0.5413
 3771TIP3    H232873   5.235   1.177   8.746 -0.3568  1.2546  0.4609
 3772TIP3   OH232874   2.228   3.085   1.703  0.7258  0.1789  0.1459
 3772TIP3    H132875   2.180   3.029   1.642  1.0785 -0.1712  0.1912
 3772TIP3    H232876   2.224   3.172   1.663 -0.7328  0.3466  0.5942
 3773TIP3   OH232877   6.443   2.441   7.787 -0.6430  0.0958  0.7261
 3773TIP3    H132878   6.448   2.415   7.695  0.7175 -0.6564  0.9801
 3773TIP3    H232879   6.456   2.360   7.836  0.5794  0.7578  1.5601
 3774TIP3   OH232880   4.450   4.480   1.769 -0.1008  0.0335 -0.1820
 3774TIP3    H132881   4.459   4.436   1.685 -0.7967  0.3250 -0.4163
 3774TIP3    H232882   4.406   4.563   1.749  1.9721  1.2889  0.1255
 3775TIP3   OH232883   2.256   6.421   0.873 -0.3805  0.1127  0.4630
 3775TIP3    H132884   2.203   6.344   0.895 -0.4515  0.4306  1.4935
 3775TIP3    H232885   2.343   6.386   0.857 -0.7462 -0.3470 -0.6229
 3776TIP3   OH232886   0.235   4.781   7.928 -0.1633 -0.1579  0.0574
 3776TIP3    H132887   0.200   4.747   7.845 -1.1302  0.3232  0.2608
 3776TIP3    H232888   0.296   4.849   7.901  0.9297 -1.2470 -0.3132
 3777TIP3   OH232889   2.356   2.879   7.560  0.0791 -0.0554  0.5661
 3777TIP3    H132890   2.310   2.795   7.571 -0.2420  0.0633  0.1463
 3777TIP3    H232891   2.430   2.873   7.620 -1.2807  0.3493  2.3679
 3778TIP3   OH232892   1.176   5.805   1.446 -0.2447 -0.3755 -0.1090
 3778TIP3    H132893   1.238   5.874   1.468  0.7754 -1.6269  1.0771
 3778TIP3    H232894   1.227   5.742   1.395 -0.4696 -1.4887  1.0023
 3779TIP3   OH232895   2.252   4.292   6.952 -0.3897  0.1566  0.1735
 3779TIP3    H132896   2.243   4.203   6.917  0.4917  0.8982 -2.1269
 3779TIP3    H232897   2.322   4.331   6.899  1.0925  1.4121  2.8648
 3780TIP3   OH232898   1.655   4.922   7.112 -0.6049  0.1928 -0.4114
 3780TIP3    H132899   1.680   4.830   7.110 -0.7111  0.1457  0.2055
 3780TIP3    H232900   1.738   4.969   7.122 -0.6499  0.0964  0.4878
 3781TIP3   OH232901   5.376   5.884   8.286 -0.0187 -0.0727 -0.0397
 3781TIP3    H132902   5.294   5.838   8.304  0.7390 -0.9481  1.3309
 3781TIP3    H232903   5.389   5.941   8.361 -0.5445  1.9110 -1.3635
 3782TIP3   OH232904   2.394   0.629   1.409  0.7380  0.5312 -0.2514
 3782TIP3    H132905   2.324   0.622   1.474  1.0534 -0.5285  0.0027
 3782TIP3    H232906   2.359   0.686   1.341 -1.4235 -2.0195 -1.4535
 3783TIP3   OH232907   4.376   5.860   1.950 -0.4851 -0.1849 -0.0034
 3783TIP3    H132908   4.395   5.927   2.016 -0.0932  0.4237 -0.7201
 3783TIP3    H232909   4.345   5.909   1.874 -1.7748 -0.9458  0.0072
 3784TIP3   OH232910   6.209   4.370   2.451 -0.2001  0.2145 -0.2211
 3784TIP3    H132911   6.259   4.449   2.470 -0.8751  0.7100 -0.4793
 3784TIP3    H232912   6.210   4.364   2.355  1.3764 -1.0962 -0.1790
 3785TIP3   OH232913   5.101   5.653   0.671  0.1086  0.1378  0.1798
 3785TIP3    H132914   5.008   5.671   0.683  0.1275 -0.6811  1.8620
 3785TIP3    H232915   5.117   5.574   0.721  1.4727 -0.4706 -1.1374
 3786TIP3   OH232916   1.387   5.634   1.004  0.0063 -0.1784  0.6256
 3786TIP3    H132917   1.477   5.601   1.002  1.2112  2.7809 -0.7368
 3786TIP3    H232918   1.357   5.627   0.914 -0.6684 -0.0589  0.8395
 3787TIP3   OH232919   0.584   0.938   7.838 -0.0608  0.3795  0.6158
 3787TIP3    H132920   0.624   1.021   7.866 -0.2353  1.2721 -1.5604
 3787TIP3    H232921   0.657   0.887   7.804 -0.3058  0.7469 -0.4961
 3788TIP3   OH232922   6.023   5.996   2.440  0.1171 -0.0094 -0.2877
 3788TIP3    H132923   6.073   6.069   2.407 -0.7964  0.2412 -1.1673
 3788TIP3    H232924   5.939   6.000   2.393 -0.5278 -0.7177  0.7375
 3789TIP3   OH232925   1.200   4.440   1.277  0.2932 -0.1885 -0.0213
 3789TIP3    H132926   1.131   4.506   1.276  0.5217  0.0563  0.4607
 3789TIP3    H232927   1.182   4.387   1.199  1.1461  1.4964 -1.4426
 3790TIP3   OH232928   0.718   0.729   1.548 -0.2288  0.0927  0.2946
 3790TIP3    H132929   0.639   0.715   1.600 -1.4389  1.1418 -1.1741
 3790TIP3    H232930   0.686   0.743   1.459  1.6773 -0.1668 -0.4818
 3791TIP3   OH232931   2.181   1.036   8.281 -0.1409 -0.7934 -0.4815
 3791TIP3    H132932   2.134   1.012   8.201  1.9471  1.5298 -2.6152
 3791TIP3    H232933   2.230   0.958   8.305 -0.4680 -1.4294 -1.7951
 3792TIP3   OH232934   6.491   4.203   0.071  0.1408  0.0169 -0.1708
 3792TIP3    H132935   6.420   4.141   0.090 -1.2772  1.4027 -0.7403
 3792TIP3    H232936   6.474   4.231  -0.019  2.6182 -1.1163 -1.1149
 3793TIP3   OH232937   2.348   1.978   0.240 -0.3319  0.1015  0.2849
 3793TIP3    H132938   2.352   1.983   0.144  1.0449  0.1957  0.3348
 3793TIP3    H232939   2.279   2.040   0.263 -0.1368  0.6753 -0.6052
 3794TIP3   OH232940   2.690   3.633   2.204  0.1672  0.2209  0.0004
 3794TIP3    H132941   2.753   3.564   2.227  0.0809  0.2946  0.4683
 3794TIP3    H232942   2.612   3.611   2.255  0.1190  0.6370  0.1033
 3795TIP3   OH232943   4.741   3.015   2.844  0.0402 -0.6301  0.3780
 3795TIP3    H132944   4.738   3.071   2.766  0.9967 -3.4739 -1.8859
 3795TIP3    H232945   4.835   3.004   2.861 -0.1295 -1.4746  0.7845
 3796TIP3   OH232946   2.440   5.982   1.294 -0.1208 -0.0016  0.3735
 3796TIP3    H132947   2.525   5.982   1.337 -0.8861  0.7170  1.9635
 3796TIP3    H232948   2.416   5.889   1.288  1.2906 -0.3139 -1.2577
 3797TIP3   OH232949   0.077   3.141   7.068  0.0108 -0.3509 -0.4738
 3797TIP3    H132950   0.142   3.075   7.042  1.5909  1.2601 -0.8160
 3797TIP3    H232951   0.091   3.152   7.162 -3.5840 -3.8947  0.7907
 3798TIP3   OH232952   0.777   5.532   7.335 -0.3035  0.4187  0.1092
 3798TIP3    H132953   0.827   5.458   7.300 -1.4118  0.5783 -1.9080
 3798TIP3    H232954   0.830   5.609   7.314  0.4954  0.3032  1.5629
 3799TIP3   OH232955   1.596   3.318   8.178  0.4459  0.3464  0.1340
 3799TIP3    H132956   1.564   3.319   8.088  2.6268 -0.1891 -0.7142
 3799TIP3    H232957   1.676   3.370   8.175  1.7015 -1.4142  1.2662
 3800TIP3   OH232958   0.025   0.734   0.561 -0.6360 -0.3002 -0.2565
 3800TIP3    H132959   0.046   0.792   0.634 -0.9074  0.0075 -0.4253
 3800TIP3    H232960  -0.070   0.727   0.562 -0.6344 -0.3686 -0.5263
 3801TIP3   OH232961   2.837   1.655   2.286  0.2328  0.1616 -0.1628
 3801TIP3    H132962   2.821   1.582   2.345  1.3350 -0.2942 -0.4171
 3801TIP3    H232963   2.753   1.669   2.242  0.0853 -1.1147 -0.3085
 3802TIP3   OH232964   0.855   2.488   8.656 -0.4101  0.4878 -0.1401
 3802TIP3    H132965   0.816   2.483   8.744  1.2899 -1.8912  0.5793
 3802TIP3    H232966   0.803   2.427   8.604  0.3975 -0.3640  0.0267
 3803TIP3   OH232967   5.228   3.829   0.745 -0.6483 -0.3686 -0.2772
 3803TIP3    H132968   5.274   3.846   0.663 -1.0600 -0.9264 -0.6356
 3803TIP3    H232969   5.234   3.911   0.794 -0.9686  0.1877 -1.1453
 3804TIP3   OH232970   1.068   5.294   1.826  0.9791  0.2288 -0.5161
 3804TIP3    H132971   1.145   5.240   1.810  0.4478 -0.8762  0.4874
 3804TIP3    H232972   1.033   5.313   1.739  1.0353 -1.2977 -0.9037
 3805TIP3   OH232973   3.496   5.111   8.260 -0.2283  0.0343  0.9693
 3805TIP3    H132974   3.573   5.054   8.267 -0.5379 -0.2619  2.0753
 3805TIP3    H232975   3.439   5.067   8.196 -0.1093 -0.4732  1.2127
 3806TIP3   OH232976   1.451   6.375   1.027 -0.0667 -0.3317  0.2879
 3806TIP3    H132977   1.467   6.290   1.068  0.0769 -0.3643  0.1635
 3806TIP3    H232978   1.399   6.423   1.092 -0.9599 -0.8512 -0.0242
 3807TIP3   OH232979   0.117   2.903   6.929  0.1617  0.1751  0.4813
 3807TIP3    H132980   0.181   2.842   6.891  0.3812  1.2483 -0.9715
 3807TIP3    H232981   0.038   2.851   6.940  0.4529 -0.4683 -0.3628
 3808TIP3   OH232982   4.102   2.068   1.807 -0.7141  0.1172 -0.0389
 3808TIP3    H132983   4.105   1.973   1.794 -1.1657  0.2062 -0.9173
 3808TIP3    H232984   4.166   2.086   1.875 -0.1453 -0.7474 -0.3421
 3809TIP3   OH232985   4.112   1.200   7.277  0.6197 -0.2935 -0.4961
 3809TIP3    H132986   4.162   1.167   7.202 -0.4663 -0.5778 -1.1174
 3809TIP3    H232987   4.065   1.275   7.243  1.5552  0.7353  0.4132
 3810TIP3   OH232988   6.328   2.768   8.786  0.2435  0.2566 -0.1577
 3810TIP3    H132989   6.261   2.709   8.821  0.3109  0.0372 -0.3968
 3810TIP3    H232990   6.285   2.813   8.713  0.9753 -1.4601 -1.7410
 3811TIP3   OH232991   1.131   5.223   0.120 -0.8066  0.2575 -0.2342
 3811TIP3    H132992   1.082   5.260   0.194 -0.0804 -2.9348  2.0578
 3811TIP3    H232993   1.220   5.256   0.132 -0.8712  0.4385 -0.2368
 3812TIP3   OH232994   3.026   1.448   1.012 -0.3470 -0.6062 -0.2541
 3812TIP3    H132995   2.954   1.386   1.007 -2.1513  1.4410 -1.3947
 3812TIP3    H232996   3.100   1.396   1.045 -1.5404 -3.4506 -1.6907
 3813TIP3   OH232997   1.169   1.289   2.252  0.4058  0.0021  0.2091
 3813TIP3    H132998   1.242   1.351   2.259  1.0167 -0.5970 -0.5515
 3813TIP3    H232999   1.199   1.212   2.301  0.9636 -0.8254 -1.3434
 3814TIP3   OH233000   3.433   5.795   0.862 -0.7457  0.0090 -0.2378
 3814TIP3    H133001   3.368   5.850   0.905 -3.0709 -0.6812 -2.5681
 3814TIP3    H233002   3.393   5.708   0.859  0.4672 -0.5457 -1.3899
 3815TIP3   OH233003   0.404   1.837   8.687  0.2752  0.7635  0.3800
 3815TIP3    H133004   0.417   1.747   8.655  0.2885  1.3485 -1.3224
 3815TIP3    H233005   0.309   1.850   8.685  0.3262  1.0779 -0.2444
 3816TIP3   OH233006   4.606   0.012   8.119  0.5612  0.1038  0.6065
 3816TIP3    H133007   4.531  -0.005   8.176  0.5874  0.1964  0.6690
 3816TIP3    H233008   4.567   0.041   8.037  0.4952 -0.8877  0.2779
 3817TIP3   OH233009   1.484   2.760   1.575  0.2349  0.3656  0.0404
 3817TIP3    H133010   1.530   2.806   1.505 -0.2830  1.5603  0.4736
 3817TIP3    H233011   1.437   2.828   1.623 -2.1009 -0.7948 -0.4452
 3818TIP3   OH233012   2.607   6.226   1.759 -0.1507 -0.0194  0.4772
 3818TIP3    H133013   2.620   6.316   1.727 -0.5541  0.0170  0.4099
 3818TIP3    H233014   2.630   6.231   1.852 -1.9460  0.5912  0.9239
 3819TIP3   OH233015   2.078   5.646   1.315  0.5356  0.1755 -0.0369
 3819TIP3    H133016   2.101   5.582   1.383 -2.1058  0.0681  0.8948
 3819TIP3    H233017   1.989   5.623   1.289  0.0138  2.5947 -0.7089
 3820TIP3   OH233018   1.159   5.799   2.294 -0.1729 -0.3591  0.2007
 3820TIP3    H133019   1.164   5.707   2.318  1.7029 -0.0276  1.3060
 3820TIP3    H233020   1.114   5.841   2.368  1.6990  0.0193  1.1778
 3821TIP3   OH233021   3.456   2.876   7.353  0.7698  0.0609 -0.1644
 3821TIP3    H133022   3.448   2.880   7.258  0.5753  1.8736 -0.1053
 3821TIP3    H233023   3.542   2.916   7.372  0.6351  0.0797  0.4397
 3822TIP3   OH233024   5.418   2.797   0.224  0.1532 -0.1627  0.8535
 3822TIP3    H133025   5.332   2.764   0.250 -0.4636 -0.0948 -0.9218
 3822TIP3    H233026   5.403   2.889   0.201  0.1606 -0.6819 -1.5296
 3823TIP3   OH233027   4.304   1.203   8.818 -0.3336 -0.0607 -0.7712
 3823TIP3    H133028   4.298   1.298   8.806 -0.0896  0.0753  0.1075
 3823TIP3    H233029   4.371   1.192   8.886 -0.5696 -0.8475 -0.6619
 3824TIP3   OH233030   0.068   3.084   6.730 -0.2077 -0.2775 -0.3471
 3824TIP3    H133031   0.148   3.135   6.742 -0.5611  0.1161  0.4001
 3824TIP3    H233032   0.074   3.015   6.796 -0.5074 -0.2102 -0.2484
 3825TIP3   OH233033   5.276   2.120   2.623  0.0296  0.3298 -0.0581
 3825TIP3    H133034   5.343   2.053   2.612 -0.3382 -0.4415  1.8342
 3825TIP3    H233035   5.204   2.074   2.666 -0.6468  1.7154  0.3543
 3826TIP3   OH233036   0.805   1.940   1.450  0.1066 -0.2930 -0.0527
 3826TIP3    H133037   0.897   1.955   1.428 -0.7144  1.7000 -2.4767
 3826TIP3    H233038   0.775   1.876   1.385 -0.6950  0.5595 -0.5307
 3827TIP3   OH233039   0.327   6.262   0.137 -0.3671  0.2506  0.0721
 3827TIP3    H133040   0.338   6.357   0.143 -0.8475  0.2857  0.4059
 3827TIP3    H233041   0.233   6.248   0.141 -0.2308 -0.4230  3.2559
 3828TIP3   OH233042   3.245   3.875   7.672  0.1860  0.1161  0.2544
 3828TIP3    H133043   3.232   3.970   7.679  0.1885  0.0209  1.9495
 3828TIP3    H233044   3.236   3.843   7.762 -0.0338 -1.5297 -0.3261
 3829TIP3   OH233045   0.298   5.362   8.249  0.3911 -0.1412 -0.0562
 3829TIP3    H133046   0.239   5.402   8.312 -0.3122  0.2579 -0.9398
 3829TIP3    H233047   0.386   5.389   8.276  0.0647  0.4212  0.4589
 3830TIP3   OH233048   2.649   6.167   2.721 -0.2769  0.3518 -0.2146
 3830TIP3    H133049   2.665   6.223   2.646 -1.0465  0.2093 -0.5009
 3830TIP3    H233050   2.555   6.149   2.717 -0.2882  0.1770  0.6653
 3831TIP3   OH233051   0.317   5.338   0.665 -0.6606  0.1324 -0.1125
 3831TIP3    H133052   0.287   5.311   0.578  1.4735  1.1404 -1.2372
 3831TIP3    H233053   0.351   5.258   0.704 -2.3199 -0.4867  0.1667
 3832TIP3   OH233054   0.006   1.646   7.511 -0.1953 -0.4805 -0.1138
 3832TIP3    H133055   0.046   1.711   7.569 -0.4593 -0.5828  0.1858
 3832TIP3    H233056   0.079   1.609   7.462 -0.1469  0.7778 -1.0362
 3833TIP3   OH233057   1.813   0.552   8.296 -0.1696 -0.4153 -0.1604
 3833TIP3    H133058   1.864   0.473   8.316 -0.4090 -0.0001  2.4104
 3833TIP3    H233059   1.878   0.622   8.288 -0.1417 -0.3582  0.5177
 3834TIP3   OH233060   6.493   0.993   2.024 -0.1705 -0.4197  0.0778
 3834TIP3    H133061   6.484   0.961   1.934 -0.4981 -0.1305  0.0061
 3834TIP3    H233062   6.586   1.009   2.035 -0.2878  0.8549 -0.6669
 3835TIP3   OH233063   1.392   4.486   2.628  0.2378 -0.2488 -0.3575
 3835TIP3    H133064   1.312   4.468   2.579 -1.1558  1.3799  1.1900
 3835TIP3    H233065   1.417   4.401   2.664  0.5598 -1.2207 -2.6968
 3836TIP3   OH233066   3.407   3.070   1.333  0.7883  0.7581  0.0643
 3836TIP3    H133067   3.366   3.145   1.377 -0.3441  0.1928  0.0118
 3836TIP3    H233068   3.406   3.093   1.240  0.7988  0.8379  0.0838
 3837TIP3   OH233069   3.040   3.088   6.500  0.1322  0.3431 -0.1647
 3837TIP3    H133070   3.075   3.003   6.474  3.0873  1.4372 -0.1641
 3837TIP3    H233071   3.047   3.089   6.595 -2.3700 -0.3137  0.0973
 3838TIP3   OH233072   1.786   4.550   0.894  0.2994 -0.1787 -0.0360
 3838TIP3    H133073   1.727   4.481   0.925  1.4773 -0.3536  2.0025
 3838TIP3    H233074   1.731   4.628   0.888 -0.3198 -0.4954  1.1354
 3839TIP3   OH233075   0.677   4.674   0.478 -0.0490 -0.1927  0.3348
 3839TIP3    H133076   0.615   4.624   0.424  2.3241 -0.5936 -2.2302
 3839TIP3    H233077   0.721   4.608   0.531  1.0099 -0.5023 -0.8833
 3840TIP3   OH233078   2.027   5.872   8.505  0.0055 -0.3787  0.1670
 3840TIP3    H133079   2.073   5.802   8.552 -1.0732 -0.5100  1.0964
 3840TIP3    H233080   2.022   5.944   8.567 -0.5824 -0.1855 -0.0964
 3841TIP3   OH233081   2.951   1.228   0.456 -0.1423  0.1700  0.0846
 3841TIP3    H133082   3.036   1.238   0.413 -0.8388 -0.1881 -1.4883
 3841TIP3    H233083   2.953   1.289   0.529  1.1094  0.8706 -0.4968
 3842TIP3   OH233084   1.415   2.744   7.798  0.0558  0.2744 -0.0621
 3842TIP3    H133085   1.412   2.690   7.718  0.6139 -0.8770  0.6601
 3842TIP3    H233086   1.504   2.781   7.798  0.7408 -1.2608  0.9523
 3843TIP3   OH233087   4.455   0.872   2.638 -0.3576  0.0023  0.5522
 3843TIP3    H133088   4.435   0.922   2.559 -1.5556  0.1617  0.9463
 3843TIP3    H233089   4.536   0.912   2.671 -1.2863  1.7419  0.8616
 3844TIP3   OH233090   2.409   0.925   1.498  0.0594  1.1368  0.1255
 3844TIP3    H133091   2.408   0.993   1.566  1.6904  0.6570  0.6751
 3844TIP3    H233092   2.407   0.843   1.547  2.1566  0.7756 -0.3404
 3845TIP3   OH233093   4.688   3.135   7.507 -0.0006 -0.2566  0.0458
 3845TIP3    H133094   4.629   3.196   7.552  1.5617  0.7425  0.8569
 3845TIP3    H233095   4.654   3.130   7.418  0.0060  2.1571 -0.1703
 3846TIP3   OH233096   5.738   1.979   0.365  0.4083 -0.6176 -0.4910
 3846TIP3    H133097   5.649   1.959   0.337  0.1083 -0.0559  0.0392
 3846TIP3    H233098   5.731   2.064   0.407  1.7829  1.1355 -3.4651
 3847TIP3   OH233099   3.980   5.262   7.590 -0.1824 -0.2845 -0.2001
 3847TIP3    H133100   4.075   5.253   7.590 -0.0950  0.5334  0.4367
 3847TIP3    H233101   3.947   5.174   7.609  0.5148 -0.0923  2.2307
 3848TIP3   OH233102   3.086   3.481   1.911 -0.9831 -0.5148 -0.6769
 3848TIP3    H133103   3.119   3.561   1.950 -1.9323 -0.7440  0.6529
 3848TIP3    H233104   3.086   3.498   1.817 -0.9007  0.9246 -0.4295
 3849TIP3   OH233105   3.508   5.628   2.190 -0.0747 -0.0198 -0.2835
 3849TIP3    H133106   3.556   5.685   2.129  0.6117 -0.0761  0.1857
 3849TIP3    H233107   3.543   5.652   2.276 -1.1400  0.1595  0.1060
 3850TIP3   OH233108   3.923   4.922   1.679  0.0072 -0.4788  0.1082
 3850TIP3    H133109   3.845   4.948   1.630 -0.6091 -2.0988  0.1633
 3850TIP3    H233110   3.915   4.827   1.688  1.7559 -0.6237  0.5336
 3851TIP3   OH233111   3.481   0.068   8.280 -0.1567  0.3140  0.8556
 3851TIP3    H133112   3.524   0.085   8.196 -1.5396 -2.7832 -0.6814
 3851TIP3    H233113   3.417   0.139   8.290 -2.5420 -1.0004 -2.7390
 3852TIP3   OH233114   5.819   4.024   7.640  0.0658  0.2668 -0.0025
 3852TIP3    H133115   5.754   3.981   7.696 -1.5577  0.7617 -1.4338
 3852TIP3    H233116   5.788   4.009   7.551  0.5735  2.5923 -0.6345
 3853TIP3   OH233117   5.075   6.053   8.796  0.5402  0.0374  0.9415
 3853TIP3    H133118   5.067   5.958   8.794 -1.3298  0.1597 -0.2569
 3853TIP3    H233119   5.016   6.080   8.867  0.1352  0.3316  0.5039
 3854TIP3   OH233120   2.871   4.233   8.590  0.6569 -0.0570 -0.5665
 3854TIP3    H133121   2.779   4.231   8.617  0.8873 -1.3386  0.2541
 3854TIP3    H233122   2.882   4.153   8.538  1.9231 -1.5025  1.7390
 3855TIP3   OH233123   4.534   5.287   1.040 -0.4724 -0.1018  0.2414
 3855TIP3    H133124   4.618   5.314   1.004  0.2551 -1.2413  1.0063
 3855TIP3    H233125   4.478   5.274   0.963  0.6569 -1.2436 -0.4395
 3856TIP3   OH233126   3.971   6.617   8.636  0.1380 -0.2158  0.8258
 3856TIP3    H133127   4.047   6.645   8.688 -0.3674 -1.7955  2.5325
 3856TIP3    H233128   3.896   6.657   8.680 -0.4297 -2.6223  2.2566
 3857TIP3   OH233129   1.836   1.997   7.522 -0.2755 -0.3168  0.2465
 3857TIP3    H133130   1.757   1.971   7.570 -1.2772 -0.1627 -1.2283
 3857TIP3    H233131   1.846   1.929   7.455  1.5515 -0.9661  1.1317
 3858TIP3   OH233132   5.741   4.552   1.001  0.2880 -0.0317  0.7219
 3858TIP3    H133133   5.742   4.457   1.013 -1.4665 -0.1233  0.4086
 3858TIP3    H233134   5.789   4.567   0.920 -0.9209 -0.8345 -0.1667
 3859TIP3   OH233135   5.045   1.770   1.227  0.0557 -0.1108  0.0509
 3859TIP3    H133136   4.980   1.751   1.295 -0.9051  0.3118 -0.7118
 3859TIP3    H233137   5.071   1.860   1.242 -0.4063  0.0918 -0.3196
 3860TIP3   OH233138   3.153   0.514   7.766  0.5705 -0.8115 -0.1130
 3860TIP3    H133139   3.207   0.517   7.686  1.9024  1.2544  0.7711
 3860TIP3    H233140   3.215   0.530   7.837 -0.8769 -0.7205  1.1730
 3861TIP3   OH233141   5.202   1.482   1.769 -0.0479 -0.2289 -0.2956
 3861TIP3    H133142   5.162   1.399   1.795 -0.6350 -0.1099 -0.7963
 3861TIP3    H233143   5.261   1.504   1.841  1.1746 -1.7820 -0.7677
 3862TIP3   OH233144   1.640   2.310   2.578 -0.5148 -0.0752  0.0259
 3862TIP3    H133145   1.667   2.221   2.601 -1.0000 -0.2752 -0.1804
 3862TIP3    H233146   1.545   2.305   2.568 -0.5695  0.5135  0.2201
 3863TIP3   OH233147   4.968   0.985   7.949 -0.2691  0.3452 -0.2230
 3863TIP3    H133148   4.951   0.973   8.043  1.3747 -2.3844 -0.1595
 3863TIP3    H233149   5.063   0.993   7.943 -0.3414  0.3081 -1.6783
 3864TIP3   OH233150   5.350   1.585   7.203  0.1218 -0.0886 -0.3415
 3864TIP3    H133151   5.313   1.497   7.207  0.0959 -0.2076 -2.2138
 3864TIP3    H233152   5.313   1.623   7.123  0.5701  1.4247  0.1372
 3865TIP3   OH233153   6.458   5.868   7.754  0.3579 -0.3172 -0.4443
 3865TIP3    H133154   6.430   5.817   7.678 -1.3001  1.9503 -1.5013
 3865TIP3    H233155   6.545   5.900   7.729  0.2019 -0.3275 -1.0401
 3866TIP3   OH233156   6.115   6.636   2.497 -0.1347 -0.0806 -0.1241
 3866TIP3    H133157   6.165   6.574   2.549 -2.3264 -1.5008  0.4221
 3866TIP3    H233158   6.127   6.720   2.543  2.4622 -0.1068 -0.5969
 3867TIP3   OH233159   4.059   2.803   8.293  0.0348 -0.5646  0.1597
 3867TIP3    H133160   4.059   2.722   8.345  0.4891 -0.8408 -0.2641
 3867TIP3    H233161   4.074   2.774   8.203 -0.2735 -0.0458 -0.0622
 3868TIP3   OH233162   0.987   5.309   1.572 -0.5705  0.5093  0.6106
 3868TIP3    H133163   0.922   5.305   1.502 -0.0755  0.1783  0.1555
 3868TIP3    H233164   1.069   5.332   1.527 -0.2897  0.5107  1.1121
 3869TIP3   OH233165   6.531   0.387   2.244  0.0952 -0.1155 -0.0146
 3869TIP3    H133166   6.440   0.398   2.271  0.0854  0.6127 -0.3081
 3869TIP3    H233167   6.532   0.309   2.190 -0.1326 -0.8143  0.9617
 3870TIP3   OH233168   4.325   3.209   8.171  0.0411  0.1429 -0.2682
 3870TIP3    H133169   4.255   3.192   8.234  0.9414  0.4411  0.8484
 3870TIP3    H233170   4.405   3.184   8.217  0.6533 -0.7262 -1.7122
 3871TIP3   OH233171   6.033   6.633   7.816  1.0168  0.0875  0.2325
 3871TIP3    H133172   6.028   6.692   7.741  0.3048  1.0632  1.0209
 3871TIP3    H233173   6.105   6.667   7.869  0.8673  0.0051  0.4920
 3872TIP3   OH233174   5.889   4.672   8.339 -0.3803 -0.8022  0.3115
 3872TIP3    H133175   5.823   4.605   8.355  0.9720 -1.8112  2.0368
 3872TIP3    H233176   5.972   4.626   8.346  0.5549  0.6644 -0.5806
 3873TIP3   OH233177   1.910   5.974   2.320 -0.4093  0.3668  0.3385
 3873TIP3    H133178   1.891   6.046   2.380  1.8971  1.9529 -0.7046
 3873TIP3    H233179   1.873   6.001   2.236  1.2360  0.8436 -0.2824
 3874TIP3   OH233180   5.161   1.642   6.962  0.2025 -0.4018  0.1255
 3874TIP3    H133181   5.221   1.672   6.894 -2.1954 -1.1426 -2.4708
 3874TIP3    H233182   5.121   1.722   6.996 -0.1121 -0.1166 -0.8760
 3875TIP3   OH233183   2.767   1.367   1.116 -0.1142 -0.2130 -0.1152
 3875TIP3    H133184   2.833   1.405   1.173  1.8838 -0.6947 -1.9397
 3875TIP3    H233185   2.772   1.420   1.036 -0.5199 -1.4453 -0.9947
 3876TIP3   OH233186   3.053   5.344   1.335  0.7742  0.1492 -0.0882
 3876TIP3    H133187   3.126   5.370   1.392  0.0153  0.4564  0.7826
 3876TIP3    H233188   3.071   5.253   1.312 -0.8550 -1.4970  4.0470
 3877TIP3   OH233189   3.487   1.715   0.012  0.6670 -0.4320 -0.1749
 3877TIP3    H133190   3.504   1.623  -0.009  1.5451 -0.3554  0.1353
 3877TIP3    H233191   3.511   1.723   0.104  0.9525  0.1898 -0.3008
 3878TIP3   OH233192   6.514   0.935   8.607 -0.7203 -1.0814  0.4326
 3878TIP3    H133193   6.505   0.951   8.701 -0.0767  1.0035  0.1880
 3878TIP3    H233194   6.429   0.957   8.570 -0.9095 -1.7007  0.4882
 3879TIP3   OH233195   2.778   5.585   1.908  0.5993 -0.2292  0.1458
 3879TIP3    H133196   2.806   5.512   1.854 -0.1120 -0.4650  0.0869
 3879TIP3    H233197   2.709   5.628   1.857 -0.4079 -0.7341  1.0528
 3880TIP3   OH233198   4.918   2.689   0.888 -0.7579 -0.0314 -0.1485
 3880TIP3    H133199   4.933   2.693   0.794 -0.4290 -0.8614 -0.1394
 3880TIP3    H233200   4.977   2.756   0.925 -0.9535  0.3551 -0.5301
 3881TIP3   OH233201   4.834   2.033   1.335  0.6070  0.0419  0.4936
 3881TIP3    H133202   4.806   2.077   1.415  1.5537  0.4649  0.6011
 3881TIP3    H233203   4.773   2.064   1.268  0.0977  0.0406  0.9533
 3882TIP3   OH233204   5.005   1.080   8.494  0.1944  0.4013  0.4298
 3882TIP3    H133205   5.009   1.141   8.421 -0.1453  0.4058  0.4123
 3882TIP3    H233206   4.918   1.093   8.532 -0.1792 -0.6140 -0.0418
 3883TIP3   OH233207   1.206   6.690   1.436 -0.3823  0.4936 -0.1672
 3883TIP3    H133208   1.280   6.720   1.488  0.0001 -1.7085  0.6297
 3883TIP3    H233209   1.205   6.750   1.361  1.6493  1.1203  0.2368
 3884TIP3   OH233210   5.678   6.714   6.685  0.0665  0.2005  0.1513
 3884TIP3    H133211   5.734   6.636   6.684  0.9996  0.6560  3.3746
 3884TIP3    H233212   5.597   6.684   6.725 -0.6066  0.3527 -1.0671
 3885TIP3   OH233213   2.609   1.248   1.367 -0.3503 -0.0336 -0.3078
 3885TIP3    H133214   2.671   1.225   1.298 -0.3036 -1.2446  0.1226
 3885TIP3    H233215   2.535   1.286   1.321  0.1420  0.1822 -0.9321
 3886TIP3   OH233216   6.492   4.324   1.391  0.3849 -0.6724  0.0389
 3886TIP3    H133217   6.540   4.260   1.339  2.2935  0.1679  0.6998
 3886TIP3    H233218   6.502   4.407   1.344 -1.4558 -0.6692 -0.4342
 3887TIP3   OH233219   2.640   0.447   2.389  0.2644  0.3727  0.5107
 3887TIP3    H133220   2.637   0.402   2.473  0.2939 -1.2591 -0.3003
 3887TIP3    H233221   2.583   0.394   2.332  1.0116  0.8495 -0.7384
 3888TIP3   OH233222   3.117   5.726   2.324  0.1702  0.3065  0.0227
 3888TIP3    H133223   3.183   5.782   2.282 -0.3643  1.4281  0.6505
 3888TIP3    H233224   3.149   5.716   2.413  0.4042 -0.6423 -0.1577
 3889TIP3   OH233225   1.259   2.050   2.457 -0.2271 -0.5225 -0.4350
 3889TIP3    H133226   1.331   2.063   2.518  0.4434  1.4129 -1.5518
 3889TIP3    H233227   1.292   1.984   2.395  0.3712 -0.0919 -0.5862
 3890TIP3   OH233228   4.473   0.158   8.943  0.3132 -0.2357  0.0098
 3890TIP3    H133229   4.418   0.206   8.882 -0.7151 -2.8293 -1.2640
 3890TIP3    H233230   4.562   0.174   8.913 -0.0420  0.4391 -0.7108
 3891TIP3   OH233231   5.044   5.414   7.795  0.1753  0.8714  0.0172
 3891TIP3    H133232   4.982   5.345   7.770  0.2994  0.7018  0.1712
 3891TIP3    H233233   5.054   5.403   7.889  0.9078  0.5072 -0.0972
 3892TIP3   OH233234   0.136   5.708   1.110 -0.3073  0.1282 -0.3248
 3892TIP3    H133235   0.072   5.638   1.099  0.3210 -0.5214  0.0444
 3892TIP3    H233236   0.219   5.662   1.125  0.3054  0.9545 -1.1297
 3893TIP3   OH233237   4.425   6.101   8.427  0.2317  0.0101  0.8799
 3893TIP3    H133238   4.413   6.010   8.402  0.9700 -0.5154  2.3257
 3893TIP3    H233239   4.446   6.098   8.520 -1.8994  1.8108  1.5146
 3894TIP3   OH233240   5.751   4.867   1.999  0.2286 -0.1726 -0.1085
 3894TIP3    H133241   5.828   4.810   2.001 -0.0196 -0.4976  0.3429
 3894TIP3    H233242   5.679   4.811   2.028  0.2067  0.7067  1.6773
 3895TIP3   OH233243   6.276   6.503   2.213 -0.1560 -0.1974 -0.5044
 3895TIP3    H133244   6.295   6.591   2.245 -2.1166  0.0826  0.0294
 3895TIP3    H233245   6.308   6.445   2.282  0.6906  0.0918 -0.6337
 3896TIP3   OH233246   5.326   5.843   1.689 -0.0899 -0.5691  0.1518
 3896TIP3    H133247   5.244   5.854   1.737 -1.3173  0.9041 -2.0743
 3896TIP3    H233248   5.315   5.760   1.642 -1.1587  0.4281 -1.4907
 3897TIP3   OH233249   0.985   2.190   8.934 -0.8846  0.2481  0.5391
 3897TIP3    H133250   0.987   2.193   8.839  0.3903 -3.2209  0.3154
 3897TIP3    H233251   0.939   2.109   8.955  0.2513  0.1123  2.8345
 3898TIP3   OH233252   3.822   0.739   8.217 -0.2218 -0.4993  0.6450
 3898TIP3    H133253   3.869   0.821   8.228  0.2115  0.0729 -3.5355
 3898TIP3    H233254   3.732   0.765   8.197 -0.3424 -1.0712  0.4103
 3899TIP3   OH233255   5.503   2.104   0.796 -0.4717 -0.2420  0.0512
 3899TIP3    H133256   5.590   2.117   0.833 -0.1564 -1.5443 -0.1761
 3899TIP3    H233257   5.513   2.124   0.703 -0.0430 -1.7509 -0.2549
 3900TIP3   OH233258   4.277   0.821   2.859 -0.3600 -0.4725 -0.2678
 3900TIP3    H133259   4.205   0.883   2.865 -0.3507 -0.3685 -1.0740
 3900TIP3    H233260   4.337   0.859   2.794  1.5166  0.4978  1.8900
 3901TIP3   OH233261   5.579   0.045   2.469  0.0132  0.4870  0.0415
 3901TIP3    H133262   5.666   0.078   2.445  0.7541 -0.5431  1.1829
 3901TIP3    H233263   5.560   0.086   2.553  1.3343 -2.4116  1.9316
 3902TIP3   OH233264   5.328   1.059   1.329 -0.3367  0.1958  0.1185
 3902TIP3    H133265   5.306   1.116   1.255  1.2718  0.1913 -0.3951
 3902TIP3    H233266   5.382   0.989   1.291 -1.3178 -1.0512  0.9391
 3903TIP3   OH233267   4.331   4.349   7.826  0.2354 -0.4316  0.0758
 3903TIP3    H133268   4.266   4.359   7.756  0.4827 -1.0832 -0.2608
 3903TIP3    H233269   4.336   4.255   7.840  1.1403 -0.3980  0.0579
 3904TIP3   OH233270   4.342   2.528   2.050  0.6748 -0.8859  0.6830
 3904TIP3    H133271   4.388   2.463   2.103 -0.5326 -1.5204  0.9994
 3904TIP3    H233272   4.302   2.477   1.979  0.3350 -0.3813  0.5075
 3905TIP3   OH233273   3.307   4.530   8.110  0.5613 -0.5180 -0.0391
 3905TIP3    H133274   3.240   4.464   8.123 -1.3854  1.1384 -0.9180
 3905TIP3    H233275   3.262   4.601   8.063  3.0669  0.4773 -1.1684
 3906TIP3   OH233276   4.557   5.473   8.464  0.5502 -0.2384  0.0946
 3906TIP3    H133277   4.502   5.479   8.542  0.1576 -0.4948 -0.1633
 3906TIP3    H233278   4.626   5.411   8.488 -0.3989 -1.4731 -0.2513
 3907TIP3   OH233279   4.042   3.711   7.228  0.6945 -0.3924 -0.0278
 3907TIP3    H133280   4.099   3.635   7.217  0.5561 -0.8591  1.9962
 3907TIP3    H233281   4.063   3.743   7.316 -0.4516  0.8946 -0.1971
 3908TIP3   OH233282   6.201   0.168   8.080  0.0417 -0.3516  0.0924
 3908TIP3    H133283   6.231   0.086   8.121 -1.8533 -1.2282 -0.1494
 3908TIP3    H233284   6.105   0.164   8.086 -0.2851  0.2595 -2.9007
 3909TIP3   OH233285   4.912   4.217   1.347  0.6067 -0.0857  0.2859
 3909TIP3    H133286   4.927   4.213   1.441 -0.1910  1.5921  0.5370
 3909TIP3    H233287   4.889   4.128   1.322  0.3688 -0.4742  1.7762
 3910TIP3   OH233288   2.561   4.271   0.614  0.2461 -0.4892 -0.2911
 3910TIP3    H133289   2.649   4.255   0.579  0.0306  0.6586 -1.4061
 3910TIP3    H233290   2.557   4.365   0.627 -0.9410 -0.4808 -0.5813
 3911TIP3   OH233291   2.233   0.530   1.686  0.1648  0.5355 -0.8826
 3911TIP3    H133292   2.221   0.607   1.741  2.1809  1.2003 -1.2870
 3911TIP3    H233293   2.152   0.524   1.635  0.1088  2.6412 -1.1346
 3912TIP3   OH233294   3.118   6.174   8.584 -0.5840 -0.2271 -0.0066
 3912TIP3    H133295   3.056   6.230   8.539 -2.6408 -0.9645  1.7472
 3912TIP3    H233296   3.083   6.086   8.575  1.0274 -0.8926 -0.2043
 3913TIP3   OH233297   1.237   3.222   7.144  0.6041  0.1105 -0.8383
 3913TIP3    H133298   1.233   3.198   7.052  0.3916  1.7878 -1.2962
 3913TIP3    H233299   1.156   3.188   7.181 -0.3734  1.3263 -1.7820
 3914TIP3   OH233300   5.958   3.701   0.860 -0.3874  0.1549 -0.0513
 3914TIP3    H133301   6.038   3.735   0.901  0.9904 -3.1858  0.3922
 3914TIP3    H233302   5.911   3.658   0.932 -2.2580  1.3818 -0.4706
 3915TIP3   OH233303   5.945   4.941   8.130 -0.2019 -0.0725 -0.4232
 3915TIP3    H133304   5.860   4.945   8.173 -0.6412  1.3234 -1.3330
 3915TIP3    H233305   6.000   5.001   8.180  0.0739 -0.5080 -0.2010
 3916TIP3   OH233306   5.718   6.595   7.991 -0.3921 -0.2734  0.3306
 3916TIP3    H133307   5.794   6.654   8.001 -0.2453 -0.5963  1.2497
 3916TIP3    H233308   5.737   6.544   7.913 -0.7622  1.2414 -0.7966
 3917TIP3   OH233309   2.521   3.638   2.621  0.1393  0.4197  0.7548
 3917TIP3    H133310   2.450   3.700   2.610 -0.6524 -0.6187 -0.1264
 3917TIP3    H233311   2.513   3.608   2.712 -0.0149  0.9322  0.9131
 3918TIP3   OH233312   1.437   3.833   1.427  0.0474 -0.0565  0.0090
 3918TIP3    H133313   1.495   3.762   1.398 -1.0492 -0.9721  0.0028
 3918TIP3    H233314   1.407   3.874   1.346  1.3750  1.0097  0.0325
 3919TIP3   OH233315   6.045   5.859   8.025  0.0100  0.9339  0.3741
 3919TIP3    H133316   5.979   5.816   7.971  0.6899 -0.2951  0.4982
 3919TIP3    H233317   6.127   5.815   8.004  0.3787  0.7472  2.0103
 3920TIP3   OH233318   5.001   0.764   7.637  0.3405  0.1259  0.0642
 3920TIP3    H133319   4.984   0.699   7.569  0.1007  1.0776 -0.8275
 3920TIP3    H233320   5.048   0.834   7.591  0.7271  0.5127  1.0264
 3921TIP3   OH233321   4.675   2.276   0.753 -0.0683  0.0359  0.5532
 3921TIP3    H133322   4.694   2.348   0.813 -0.6683  0.1048  0.6620
 3921TIP3    H233323   4.756   2.265   0.703 -0.2066  1.2967  0.0026
 3922TIP3   OH233324   1.888   3.069   8.804  0.1992  0.5820 -0.3130
 3922TIP3    H133325   1.796   3.090   8.792  0.2618 -0.0549 -2.2805
 3922TIP3    H233326   1.913   3.112   8.886 -1.5447  1.6964 -0.3354
 3923TIP3   OH233327   0.357   1.067   8.267  0.9970  0.3808  0.1721
 3923TIP3    H133328   0.342   1.009   8.193 -1.7558  0.4028  0.5863
 3923TIP3    H233329   0.353   1.155   8.230 -0.1679  0.3858  0.2646
 3924TIP3   OH233330   6.461   4.728   7.147  0.3777  0.3140  0.1104
 3924TIP3    H133331   6.502   4.814   7.140  0.1987  0.3265 -1.0180
 3924TIP3    H233332   6.395   4.727   7.078  0.2397 -0.6534  0.2358
 3925TIP3   OH233333   2.696   3.458   7.577 -0.3744 -0.2885 -0.3977
 3925TIP3    H133334   2.665   3.443   7.667 -0.4509  0.2779 -0.3223
 3925TIP3    H233335   2.733   3.546   7.580  0.9943 -0.8270 -0.5550
 3926TIP3   OH233336   3.502   0.145   0.069 -0.3807  0.1966  0.2907
 3926TIP3    H133337   3.588   0.145   0.029 -0.1399  2.2474  0.7059
 3926TIP3    H233338   3.505   0.073   0.132  1.0210  0.2224  0.2837
 3927TIP3   OH233339   5.255   3.083   1.412  0.1215 -0.5435  0.5880
 3927TIP3    H133340   5.288   3.169   1.439  1.2280 -0.4939 -0.8179
 3927TIP3    H233341   5.186   3.103   1.348  0.7773 -0.6682 -0.1866
 3928TIP3   OH233342   6.442   6.463   8.612 -0.0008  0.3857 -0.0258
 3928TIP3    H133343   6.376   6.397   8.633  0.9324 -0.5156  0.1446
 3928TIP3    H233344   6.519   6.413   8.586  1.1210  1.3618  1.2539
 3929TIP3   OH233345   6.132   3.805   7.090  0.1383  0.0074  0.4160
 3929TIP3    H133346   6.224   3.799   7.067 -0.1614  0.5664 -1.0092
 3929TIP3    H233347   6.106   3.893   7.064 -1.1666 -0.6558 -0.6225
 3930TIP3   OH233348   0.654   1.722   1.318  0.4854  0.0786 -0.0067
 3930TIP3    H133349   0.607   1.648   1.280  0.4193  0.8600 -1.5668
 3930TIP3    H233350   0.596   1.755   1.387 -0.9301  0.5038 -1.3326
 3931TIP3   OH233351   5.015   4.762   0.263  0.1899 -0.3254 -0.1143
 3931TIP3    H133352   5.108   4.774   0.284  0.0794 -0.4788  0.4626
 3931TIP3    H233353   4.969   4.790   0.341 -0.2437 -0.4923 -0.3092
 3932TIP3   OH233354   0.560   5.974   8.364 -0.0651  0.3607 -0.2299
 3932TIP3    H133355   0.615   5.948   8.438  0.8246  0.9292 -0.6730
 3932TIP3    H233356   0.498   6.037   8.402 -0.9589 -0.8764  0.4365
 3933TIP3   OH233357   4.003   6.386   0.209  0.5756 -0.2550  0.1105
 3933TIP3    H133358   4.030   6.452   0.145 -0.4466 -0.8132 -0.9324
 3933TIP3    H233359   3.998   6.433   0.292  1.8080  0.5138 -0.2193
 3934TIP3   OH233360   2.040   4.376   2.264 -0.0044  0.1624  0.3753
 3934TIP3    H133361   2.092   4.327   2.328  0.2797 -1.2243 -0.8601
 3934TIP3    H233362   2.106   4.413   2.204 -0.3472 -0.2433 -0.2620
 3935TIP3   OH233363   1.381   5.235   1.432 -0.4195 -0.0195  0.1057
 3935TIP3    H133364   1.298   5.253   1.387 -0.1166 -0.9745 -0.8934
 3935TIP3    H233365   1.393   5.310   1.490 -1.4883  0.6313 -0.4622
 3936TIP3   OH233366   0.169   4.291   7.556  0.5382 -0.3315  0.5749
 3936TIP3    H133367   0.201   4.315   7.469  2.6719  0.0890  1.4164
 3936TIP3    H233368   0.231   4.331   7.616 -2.8428  2.6110  2.5660
 3937TIP3   OH233369   1.187   3.587   2.730 -0.2483 -0.0031 -0.8962
 3937TIP3    H133370   1.207   3.680   2.721 -0.4893  0.1410  0.0264
 3937TIP3    H233371   1.267   3.543   2.701  0.2556  0.5146 -0.3067
 3938TIP3   OH233372   2.051   4.491   0.898 -0.2902 -0.2281 -0.3529
 3938TIP3    H133373   2.082   4.403   0.879  0.4369  0.2068 -1.2560
 3938TIP3    H233374   1.959   4.480   0.921 -0.2616 -1.1900 -0.6795
 3939TIP3   OH233375   0.980   1.368   1.075 -0.1750  0.4685  0.5689
 3939TIP3    H133376   1.022   1.400   0.995 -0.8587  0.9893  0.4004
 3939TIP3    H233377   0.985   1.273   1.070 -1.6164  0.4198 -0.9008
 3940TIP3   OH233378   1.358   3.602   1.234 -0.0476 -0.9490  0.0425
 3940TIP3    H133379   1.449   3.632   1.239  0.3597 -1.8988 -1.0981
 3940TIP3    H233380   1.327   3.603   1.325  0.6500  0.7021  0.2882
 3941TIP3   OH233381   6.210   2.118   8.649 -0.1704 -0.1804  0.0908
 3941TIP3    H133382   6.119   2.146   8.662 -0.4752 -1.1984  0.3241
 3941TIP3    H233383   6.260   2.165   8.716 -0.7582 -0.6542  0.8867
 3942TIP3   OH233384   1.225   1.794   2.860 -0.3767 -0.3148 -0.0397
 3942TIP3    H133385   1.192   1.879   2.891 -0.6575 -0.5888  0.4344
 3942TIP3    H233386   1.203   1.733   2.931  0.5952 -0.6253  0.0140
 3943TIP3   OH233387   4.417   1.287   1.577 -0.1327  0.3000 -0.7590
 3943TIP3    H133388   4.488   1.244   1.624 -0.1398 -0.2668 -1.2486
 3943TIP3    H233389   4.448   1.293   1.486 -0.8547 -0.2831 -1.0535
 3944TIP3   OH233390   5.635   3.823   8.389 -0.5418  0.7104 -0.3194
 3944TIP3    H133391   5.644   3.886   8.317  3.7969 -0.6535 -1.2601
 3944TIP3    H233392   5.569   3.862   8.446 -0.8476  4.1740 -2.7136
 3945TIP3   OH233393   3.291   3.025   1.696  0.2403  0.1868  0.4927
 3945TIP3    H133394   3.221   2.994   1.754 -0.6378  0.6375 -0.2859
 3945TIP3    H233395   3.246   3.082   1.633  1.1797 -0.1541 -0.5247
 3946TIP3   OH233396   3.068   4.268   2.435  0.0588 -0.4585 -0.6216
 3946TIP3    H133397   3.026   4.223   2.509 -0.8029  2.4387  0.8258
 3946TIP3    H233398   3.138   4.319   2.475 -0.5991  1.3998 -1.7066
 3947TIP3   OH233399   3.586   4.979   0.909 -0.2468  0.3324  0.0926
 3947TIP3    H133400   3.675   4.944   0.903 -0.2056  0.6601 -1.4404
 3947TIP3    H233401   3.598   5.074   0.908 -0.6680  0.3968 -1.6133
 3948TIP3   OH233402   4.151   4.119   8.058 -0.0538  0.0900  0.6232
 3948TIP3    H133403   4.234   4.120   8.012 -0.2884 -1.2717  0.1396
 3948TIP3    H233404   4.094   4.177   8.007  0.4478  0.6576  0.6983
 3949TIP3   OH233405   6.042   5.779   7.714 -0.1546 -0.1650  0.1959
 3949TIP3    H133406   6.028   5.733   7.632 -0.8188 -0.2305  0.3440
 3949TIP3    H233407   5.977   5.849   7.714 -0.5873 -0.5578  0.9555
 3950TIP3   OH233408   2.194   3.161   1.989 -0.1433  0.4374 -0.3036
 3950TIP3    H133409   2.249   3.108   2.047  0.9600  1.0767 -0.7281
 3950TIP3    H233410   2.200   3.117   1.904 -1.1916 -0.1077 -0.1002
 3951TIP3   OH233411   0.425   5.581   2.180 -0.2162  0.1008  0.2354
 3951TIP3    H133412   0.441   5.534   2.262  0.1033 -1.0188 -0.4381
 3951TIP3    H233413   0.480   5.658   2.185  0.2615 -0.2696  0.8268
 3952TIP3   OH233414   0.061   1.456   7.720  0.4648 -0.2458 -0.3040
 3952TIP3    H133415   0.081   1.496   7.635  0.9352  2.7742  1.0888
 3952TIP3    H233416  -0.032   1.472   7.732  0.7951  1.2647  0.5735
 3953TIP3   OH233417   2.974   1.892   7.762  0.2441 -0.3029  0.4430
 3953TIP3    H133418   3.059   1.855   7.739  0.1665  1.0313 -2.5824
 3953TIP3    H233419   2.992   1.953   7.833  1.2111 -2.2795  1.9775
 3954TIP3   OH233420   0.564   2.258   2.502 -0.6779 -0.1679 -0.0899
 3954TIP3    H133421   0.518   2.174   2.510 -1.7121  0.2996 -0.8860
 3954TIP3    H233422   0.632   2.254   2.569  1.8458 -3.2057 -2.5426
 3955TIP3   OH233423   5.614   4.504   1.358 -0.6756 -0.5945 -0.1553
 3955TIP3    H133424   5.521   4.482   1.355 -0.5262 -1.4607  0.7729
 3955TIP3    H233425   5.617   4.597   1.337 -2.0260  0.0551  2.0676
 3956TIP3   OH233426   6.014   2.979   8.071 -0.6712  0.5092  0.6335
 3956TIP3    H133427   5.940   2.919   8.076 -0.6452  0.2927 -0.9812
 3956TIP3    H233428   5.994   3.035   7.996  0.4320  0.9652  0.6683
 3957TIP3   OH233429   3.167   1.089   7.871  0.4401 -0.1370  1.0011
 3957TIP3    H133430   3.210   1.153   7.816 -0.1319 -0.9417 -0.4310
 3957TIP3    H233431   3.074   1.112   7.868 -0.2850 -2.6786 -2.0732
 3958TIP3   OH233432   4.945   5.193   1.632 -0.4182 -0.1518  0.2445
 3958TIP3    H133433   4.926   5.257   1.564 -0.6140 -1.2530 -0.7732
 3958TIP3    H233434   4.975   5.245   1.707 -3.3209  1.3856  0.5115
 3959TIP3   OH233435   3.933   4.259   8.307 -0.3254 -0.3347 -0.6065
 3959TIP3    H133436   3.993   4.326   8.341  1.3261 -1.7744 -0.5354
 3959TIP3    H233437   3.943   4.264   8.212  0.1283 -0.7511 -0.5843
 3960TIP3   OH233438   6.578   3.244   1.355 -0.4533  0.2774  0.1280
 3960TIP3    H133439   6.529   3.248   1.437 -0.5170  1.8232  0.0404
 3960TIP3    H233440   6.661   3.203   1.378 -1.0915 -0.7728  0.6252
 3961TIP3   OH233441   4.640   2.946   2.309 -0.3566  0.0632 -0.0429
 3961TIP3    H133442   4.724   2.961   2.352 -0.7086 -0.2013  0.7506
 3961TIP3    H233443   4.576   2.987   2.367 -0.9373 -1.1339  0.1820
 3962TIP3   OH233444   1.520   6.583   8.640 -0.4782  0.2262 -0.3261
 3962TIP3    H133445   1.522   6.628   8.724  1.8937 -0.9809  0.3461
 3962TIP3    H233446   1.541   6.652   8.576 -0.2003  0.7218  0.2885
 3963TIP3   OH233447   3.044   0.144   7.272  0.1009  0.5498  0.0647
 3963TIP3    H133448   3.061   0.236   7.252  0.2517  0.1951 -1.5459
 3963TIP3    H233449   3.070   0.096   7.193 -1.3757 -0.7433  0.3033
 3964TIP3   OH233450   5.200   3.697   8.444  0.2866  0.5867 -0.4811
 3964TIP3    H133451   5.113   3.680   8.408  0.2818 -1.6977  0.4505
 3964TIP3    H233452   5.188   3.769   8.505 -0.6062  1.3944 -1.5785
 3965TIP3   OH233453   3.767   2.817   0.687 -0.1404  0.2158 -0.4702
 3965TIP3    H133454   3.757   2.880   0.759  1.2256  1.1317 -1.0373
 3965TIP3    H233455   3.803   2.869   0.615  0.0477 -1.0255 -1.2970
 3966TIP3   OH233456   1.512   5.183   8.654 -1.1274  0.0454 -0.1301
 3966TIP3    H133457   1.520   5.153   8.563 -0.1584  1.7034 -0.6436
 3966TIP3    H233458   1.495   5.277   8.646 -0.9145  0.2316  1.4153
 3967TIP3   OH233459   4.276   5.388   2.870 -0.2848 -0.2995 -0.8524
 3967TIP3    H133460   4.342   5.332   2.830  2.2950  0.3424  2.1253
 3967TIP3    H233461   4.224   5.329   2.924 -0.2789 -0.4009 -0.9577
 3968TIP3   OH233462   1.073   2.052   0.408 -0.3207 -0.3025  0.1195
 3968TIP3    H133463   1.151   2.021   0.453 -0.9334  1.9464  2.9695
 3968TIP3    H233464   1.104   2.126   0.355 -0.3250 -0.2354  0.2118
 3969TIP3   OH233465   1.706   0.843   1.682 -0.0368 -0.5626  0.0472
 3969TIP3    H133466   1.681   0.800   1.764  0.7156  0.9567  1.1295
 3969TIP3    H233467   1.801   0.851   1.688  0.0938 -0.9477 -1.2632
 3970TIP3   OH233468   2.927   6.420   0.542 -0.2748 -0.1362  0.2494
 3970TIP3    H133469   2.925   6.342   0.598 -0.0727  1.0577  2.0078
 3970TIP3    H233470   2.871   6.483   0.588 -0.0387  0.9185 -0.8705
 3971TIP3   OH233471   5.398   2.291   0.037  0.3207  0.1060  0.6579
 3971TIP3    H133472   5.346   2.365   0.004 -0.2015 -0.7119 -0.4595
 3971TIP3    H233473   5.462   2.331   0.096 -0.3515  1.3707  0.5829
 3972TIP3   OH233474   6.152   2.738   7.410 -0.6244 -0.3341 -0.4952
 3972TIP3    H133475   6.210   2.738   7.333  0.2926 -0.4751  0.1818
 3972TIP3    H233476   6.089   2.808   7.392  0.2154  0.3427 -0.9056
 3973TIP3   OH233477   0.865   2.792   7.989  0.2180 -0.1256 -0.3054
 3973TIP3    H133478   0.847   2.704   7.956 -1.5851  0.3271 -0.6002
 3973TIP3    H233479   0.882   2.844   7.911  0.9083 -0.1047 -0.1527
 3974TIP3   OH233480   6.275   2.802   2.677 -0.4920  0.6517  0.6770
 3974TIP3    H133481   6.220   2.844   2.743  0.1878 -0.8944  2.3476
 3974TIP3    H233482   6.363   2.835   2.695 -0.0008 -1.1035  1.8097
 3975TIP3   OH233483   5.385   0.005   0.561  0.0281  0.3112 -0.1233
 3975TIP3    H133484   5.386  -0.090   0.570 -1.4925  0.4261  1.6604
 3975TIP3    H233485   5.350   0.020   0.473 -3.4283 -0.7943  0.9324
 3976TIP3   OH233486   1.540   5.202   0.574 -0.6070 -0.2022  0.3266
 3976TIP3    H133487   1.594   5.199   0.495 -0.1819  0.3456  0.5968
 3976TIP3    H233488   1.469   5.262   0.553 -0.5981 -0.2022  0.2976
 3977TIP3   OH233489   4.648   0.299   8.738 -0.0745 -0.1327 -0.1586
 3977TIP3    H133490   4.587   0.343   8.680  0.7913 -0.3436 -1.2643
 3977TIP3    H233491   4.683   0.369   8.794  0.0355  0.3033 -0.7639
 3978TIP3   OH233492   5.928   3.842   7.859  0.5227 -0.0888 -0.1330
 3978TIP3    H133493   5.975   3.765   7.891 -0.3143 -0.9414 -0.8987
 3978TIP3    H233494   5.910   3.894   7.938 -1.0268 -1.8784  0.7624
 3979TIP3   OH233495   3.379   4.421   2.144 -0.4998  0.0149  0.4392
 3979TIP3    H133496   3.365   4.515   2.131  1.9305  0.2793 -0.8041
 3979TIP3    H233497   3.410   4.413   2.234 -1.2231  0.3201  0.7215
 3980TIP3   OH233498   2.896   0.764   0.943 -0.1982 -0.4683  0.3799
 3980TIP3    H133499   2.985   0.800   0.939  0.0318 -0.8390  1.7830
 3980TIP3    H233500   2.839   0.841   0.933  0.1977 -0.4532 -2.7707
 3981TIP3   OH233501   0.320   2.430   7.777  0.0810 -0.1576  1.0409
 3981TIP3    H133502   0.348   2.506   7.828 -0.2190 -0.2812  1.3968
 3981TIP3    H233503   0.306   2.362   7.843 -1.8524  0.1243  0.9694
 3982TIP3   OH233504   2.015   4.828   0.226  0.7615 -0.1180 -0.0597
 3982TIP3    H133505   2.004   4.880   0.305  0.8771 -0.2931  0.0726
 3982TIP3    H233506   1.956   4.868   0.162 -0.6730 -1.0655  0.6398
 3983TIP3   OH233507   4.145   4.982   7.335  0.0662  0.8087 -0.0176
 3983TIP3    H133508   4.214   4.959   7.273  0.0689 -0.3752  0.4127
 3983TIP3    H233509   4.189   5.036   7.401  0.2983  1.1249 -0.4244
 3984TIP3   OH233510   3.774   0.560   1.964  0.1846  0.2825  0.0816
 3984TIP3    H133511   3.784   0.653   1.945 -1.0024  0.3342 -0.4253
 3984TIP3    H233512   3.715   0.557   2.040 -0.0360 -0.0511 -0.0984
 3985TIP3   OH233513   1.592   2.300   2.049 -0.1287 -0.1778  0.0798
 3985TIP3    H133514   1.626   2.385   2.077 -2.4263  2.9482 -5.1570
 3985TIP3    H233515   1.505   2.294   2.087 -0.1242  0.0284  0.1212
 3986TIP3   OH233516   3.139   1.007   8.786 -0.4752 -0.7929  0.2851
 3986TIP3    H133517   3.135   1.057   8.867  0.3203 -0.5249  0.1710
 3986TIP3    H233518   3.232   1.006   8.763 -0.7500 -0.3419 -0.9473
 3987TIP3   OH233519   1.981   4.465   7.920 -0.0759  0.6939 -0.1739
 3987TIP3    H133520   2.060   4.428   7.882 -0.1217  0.8215 -0.3940
 3987TIP3    H233521   2.004   4.483   8.011  0.3796  1.4327 -0.4290
 3988TIP3   OH233522   6.174   5.849   2.578  0.5345  0.0920 -0.1238
 3988TIP3    H133523   6.117   5.912   2.533 -0.3306 -1.7341 -1.6772
 3988TIP3    H233524   6.256   5.851   2.528 -0.2238 -1.5021 -1.5229
 3989TIP3   OH233525   0.234   1.857   0.534  0.4350 -0.2961  0.0002
 3989TIP3    H133526   0.255   1.777   0.582  1.7120  0.3293  0.5410
 3989TIP3    H233527   0.297   1.922   0.565 -0.4414  0.8870 -0.5579
 3990TIP3   OH233528   4.230   0.491   6.873  0.7302 -0.0444  0.3162
 3990TIP3    H133529   4.257   0.419   6.930  0.7605  0.4342  0.9200
 3990TIP3    H233530   4.188   0.449   6.798 -2.5441 -0.6600  2.2906
 3991TIP3   OH233531   0.551   3.040   1.360  0.3308  0.3211  0.0458
 3991TIP3    H133532   0.584   3.128   1.341 -0.0746  0.3481 -0.5665
 3991TIP3    H233533   0.609   2.982   1.310  0.6790  0.2279  0.5532
 3992TIP3   OH233534   0.791   3.823   8.914 -0.1469 -0.7365  0.3608
 3992TIP3    H133535   0.801   3.860   9.002 -1.2471  1.0544 -0.2125
 3992TIP3    H233536   0.874   3.780   8.896  0.2536 -0.7648  2.1045
 3993TIP3   OH233537   4.758   3.656   7.513  0.1668  0.3324 -0.4210
 3993TIP3    H133538   4.762   3.561   7.512 -1.7924  0.2048  0.2066
 3993TIP3    H233539   4.705   3.679   7.437 -0.0735  0.8620 -0.1011
 3994TIP3   OH233540   0.923   2.318   2.133  0.0393  0.5239 -0.0965
 3994TIP3    H133541   0.931   2.382   2.203  1.9377 -0.2476  0.4557
 3994TIP3    H233542   0.912   2.234   2.178 -1.5823  0.3097 -0.7988
 3995TIP3   OH233543   1.573   0.807   0.251  0.3579 -0.2677  0.9293
 3995TIP3    H133544   1.605   0.897   0.248 -0.7046  0.1060 -0.6219
 3995TIP3    H233545   1.501   0.810   0.314 -0.8272  0.4139 -0.4052
 3996TIP3   OH233546   6.052   5.965   8.626  0.0437  0.0922 -0.2133
 3996TIP3    H133547   6.115   5.895   8.608  0.0951 -0.1807  0.9232
 3996TIP3    H233548   5.994   5.927   8.693 -0.9597  0.5507 -0.8105
 3997TIP3   OH233549   0.155   5.410   6.944  0.3077  0.1291  0.1939
 3997TIP3    H133550   0.085   5.402   6.879 -1.9481  1.5034  2.3067
 3997TIP3    H233551   0.121   5.365   7.022  1.8898  0.6190  1.2118
 3998TIP3   OH233552   0.355   5.650   8.699  0.3034 -0.0982  0.2417
 3998TIP3    H133553   0.274   5.683   8.738  1.1113  2.1487  0.1404
 3998TIP3    H233554   0.337   5.644   8.605 -0.4284 -1.8569  0.4486
 3999TIP3   OH233555   0.344   5.582   1.273  0.5351  0.0297 -0.8535
 3999TIP3    H133556   0.340   5.493   1.239 -1.5868 -0.4731  0.5736
 3999TIP3    H233557   0.432   5.589   1.312  1.6676 -0.5337 -3.1282
 4000TIP3   OH233558   5.816   3.657   8.512  0.4781 -0.1191  0.4352
 4000TIP3    H133559   5.756   3.702   8.452 -1.2897 -3.9997 -1.0284
 4000TIP3    H233560   5.778   3.673   8.599  0.8905  2.4195  0.2350
 4001TIP3   OH233561   5.534   3.918   0.281  0.2209 -0.2582 -0.0582
 4001TIP3    H133562   5.582   3.850   0.328  1.7958  1.2358  0.5856
 4001TIP3    H233563   5.584   3.998   0.296 -2.6624  1.4915  0.9307
 4002TIP3   OH233564   2.245   6.469   2.189 -0.2038  0.2590  0.3615
 4002TIP3    H133565   2.241   6.398   2.125  0.3661  0.4777  0.0708
 4002TIP3    H233566   2.205   6.434   2.268 -1.9449  0.3482 -0.4423
 4003TIP3   OH233567   5.786   0.799   8.063 -0.2190 -0.1100  0.0354
 4003TIP3    H133568   5.865   0.758   8.099  0.4419  0.5882 -0.6027
 4003TIP3    H233569   5.817   0.877   8.018 -1.3550  0.5614  0.3749
 4004TIP3   OH233570   3.523   0.541   7.350 -0.2280  0.0635  0.3571
 4004TIP3    H133571   3.610   0.579   7.344  0.5245 -1.5410  0.4910
 4004TIP3    H233572   3.514   0.488   7.271 -1.1179  0.2855  0.3036
 4005TIP3   OH233573   5.704   6.702   3.137  0.4382  0.5425  0.5953
 4005TIP3    H133574   5.758   6.762   3.085  0.1696  2.8780  2.8308
 4005TIP3    H233575   5.614   6.718   3.106  0.3908  1.1893  1.0405
 4006TIP3   OH233576   5.854   0.091   8.536 -0.4162 -0.3553  0.1507
 4006TIP3    H133577   5.925   0.142   8.499 -0.3868 -1.1360 -0.9203
 4006TIP3    H233578   5.788   0.155   8.561 -0.4430  0.2063 -1.2916
 4007TIP3   OH233579   5.585   6.109   0.284  0.1805  0.3484 -0.5215
 4007TIP3    H133580   5.656   6.061   0.327 -0.4962  0.4931  0.7993
 4007TIP3    H233581   5.590   6.081   0.192 -0.4884 -2.6664  0.2407
 4008TIP3   OH233582   3.510   0.070   8.547  0.1205 -0.0012 -0.0681
 4008TIP3    H133583   3.514   0.106   8.458 -1.2201  0.3645 -0.0093
 4008TIP3    H233584   3.459   0.135   8.596  1.1845 -0.0018  1.0829
 4009TIP3   OH233585   3.957   3.994   0.327  0.0592 -0.0715 -0.5888
 4009TIP3    H133586   3.981   3.912   0.371 -0.5516 -0.5055 -1.0462
 4009TIP3    H233587   3.916   3.966   0.245 -1.5205  0.6349 -0.0832
 4010TIP3   OH233588   0.742   6.658   8.407 -0.1036 -0.2814  0.2140
 4010TIP3    H133589   0.732   6.708   8.488  0.3489 -1.9428  1.3540
 4010TIP3    H233590   0.739   6.567   8.435  1.7282 -0.9157 -1.4102
 4011TIP3   OH233591   2.776   3.412   0.997  0.2601 -0.0513 -0.6054
 4011TIP3    H133592   2.751   3.446   0.911 -0.8646  0.8588  0.0594
 4011TIP3    H233593   2.860   3.454   1.016  0.7888 -0.6885 -1.4921
 4012TIP3   OH233594   2.671   5.122   2.707  0.3666 -0.1157  0.2518
 4012TIP3    H133595   2.618   5.197   2.734 -0.8811 -1.4097  1.5533
 4012TIP3    H233596   2.748   5.161   2.666 -0.9318  1.8482 -0.4610
 4013TIP3   OH233597   6.432   6.478   0.997  0.2240 -0.4900 -0.0042
 4013TIP3    H133598   6.513   6.427   0.994  0.0462 -0.7624 -0.2962
 4013TIP3    H233599   6.443   6.545   0.930  0.7492  0.3122  0.8610
 4014TIP3   OH233600   0.615   2.062   8.747  0.1408  0.2709  0.3740
 4014TIP3    H133601   0.616   1.986   8.690 -1.6736 -0.1112  0.7622
 4014TIP3    H233602   0.570   2.129   8.696  1.8233  1.1578 -0.0058
 4015TIP3   OH233603   5.075   1.832   1.593  0.5044 -0.4825  0.4627
 4015TIP3    H133604   5.112   1.919   1.576  0.4343 -1.1080 -4.3867
 4015TIP3    H233605   4.991   1.850   1.636 -0.1603  2.0647 -1.5851
 4016TIP3   OH233606   0.584   2.244   0.855  0.0678 -0.2395 -0.5695
 4016TIP3    H133607   0.609   2.336   0.864  0.0632  0.0213 -2.7896
 4016TIP3    H233608   0.505   2.235   0.908 -0.4998  1.2826 -1.1216
 4017TIP3   OH233609   6.258   3.323   2.073 -0.3196  0.0393  0.0915
 4017TIP3    H133610   6.213   3.328   2.157  1.0312  0.3506  0.8344
 4017TIP3    H233611   6.258   3.413   2.040  0.0221  0.0941  0.2398
 4018TIP3   OH233612   2.937   3.292   1.386 -1.0868 -0.0124 -0.0532
 4018TIP3    H133613   3.022   3.274   1.347 -0.3070 -0.0156  1.5594
 4018TIP3    H233614   2.874   3.270   1.317  0.2130  0.5551 -1.4841
 4019TIP3   OH233615   4.548   3.970   0.608 -0.3454 -0.4513 -0.8893
 4019TIP3    H133616   4.636   3.979   0.571 -0.4035  0.5660 -0.8147
 4019TIP3    H233617   4.513   3.889   0.569  0.0348 -0.0341 -2.1454
 4020TIP3   OH233618   1.541   3.613   8.123  0.5728  0.6881 -0.4217
 4020TIP3    H133619   1.479   3.543   8.144 -0.0466  1.2288 -0.4244
 4020TIP3    H233620   1.540   3.618   8.027  0.9998  0.3636 -0.4461
 4021TIP3   OH233621   5.844   3.529   8.073 -0.3244 -0.0690 -0.5659
 4021TIP3    H133622   5.775   3.501   8.013  0.4278  0.9823 -1.9699
 4021TIP3    H233623   5.813   3.611   8.111 -0.7475 -0.6704  0.4487
 4022TIP3   OH233624   6.026   1.640   0.316 -0.2016  0.3132 -0.6237
 4022TIP3    H133625   6.083   1.586   0.370  1.2213  0.2839 -2.0854
 4022TIP3    H233626   5.942   1.593   0.315  0.1884 -0.4371  0.3191
 4023TIP3   OH233627   6.281   4.952   1.658  0.0244  0.9412 -0.0234
 4023TIP3    H133628   6.245   4.975   1.744  3.0399  2.2946  1.0110
 4023TIP3    H233629   6.330   4.871   1.673  0.2315  0.9582 -0.5810
 4024TIP3   OH233630   3.344   5.771   1.903  0.1368  0.3137 -0.4373
 4024TIP3    H133631   3.297   5.705   1.852  0.9632 -1.1403  0.6316
 4024TIP3    H233632   3.277   5.835   1.928 -0.5668  0.2142 -1.9629
 4025TIP3   OH233633   0.352   4.525   0.464 -0.1855 -0.3564  0.3639
 4025TIP3    H133634   0.347   4.458   0.397 -0.7010  0.1909 -0.1612
 4025TIP3    H233635   0.325   4.606   0.419 -0.5798  0.0087  1.2321
 4026TIP3   OH233636   1.674   3.646   0.844 -0.3067  0.8367  0.5710
 4026TIP3    H133637   1.626   3.710   0.793  0.9459  1.5085  0.2016
 4026TIP3    H233638   1.749   3.622   0.789  1.3173  1.8882  2.1867
 4027TIP3   OH233639   5.631   1.390   1.066  0.1574 -0.5158  0.4594
 4027TIP3    H133640   5.691   1.371   1.138  1.5064 -1.4491 -0.8636
 4027TIP3    H233641   5.685   1.433   1.001 -1.7016  3.3894  1.2021
 4028TIP3   OH233642   4.660   0.664   6.859 -0.3987  0.4782 -0.0649
 4028TIP3    H133643   4.675   0.737   6.918 -1.7137 -0.1851  1.1380
 4028TIP3    H233644   4.697   0.693   6.775 -1.5123  2.8113  0.1766
 4029TIP3   OH233645   1.697   6.504   7.783  0.4034 -0.2531  0.4489
 4029TIP3    H133646   1.625   6.441   7.784  0.2980 -0.1394  1.2802
 4029TIP3    H233647   1.655   6.589   7.796  0.6808 -0.1873  0.9431
 4030TIP3   OH233648   6.040   6.234   1.936  0.4987  0.2176  0.1444
 4030TIP3    H133649   6.020   6.219   1.843  1.6866 -1.2418  0.0788
 4030TIP3    H233650   6.071   6.324   1.939  0.7719  0.1786 -0.9393
 4031TIP3   OH233651   3.285   1.368   0.194  0.0723 -0.2701  0.3006
 4031TIP3    H133652   3.211   1.411   0.236  0.6359 -0.8807  2.0171
 4031TIP3    H233653   3.362   1.415   0.227  0.4931  0.4236 -1.5353
 4032TIP3   OH233654   3.747   6.121   1.737 -0.3240  0.2756  0.3343
 4032TIP3    H133655   3.838   6.137   1.712 -0.6047  0.7567 -0.3795
 4032TIP3    H233656   3.746   6.029   1.766  0.3729  0.2529  0.2871
 4033TIP3   OH233657   1.530   1.041   8.563 -0.4731 -0.4355 -0.3033
 4033TIP3    H133658   1.531   1.137   8.556 -1.6041 -0.2829  1.1265
 4033TIP3    H233659   1.438   1.017   8.557 -0.2769 -1.3549  0.1732
 4034TIP3   OH233660   1.589   2.629   1.910 -0.2700  0.1122  0.5568
 4034TIP3    H133661   1.500   2.597   1.924 -0.0199 -1.4438 -1.0363
 4034TIP3    H233662   1.628   2.630   1.997 -1.7037  0.3897  1.2179
 4035TIP3   OH233663   3.855   5.031   0.955  0.1240 -0.0794 -0.2533
 4035TIP3    H133664   3.861   4.962   0.888  0.8713 -0.4298  0.1630
 4035TIP3    H233665   3.941   5.074   0.952 -0.2989  0.7663 -0.4302
 4036TIP3   OH233666   4.301   2.295   7.749  0.2767 -0.2520  0.6387
 4036TIP3    H133667   4.298   2.304   7.653 -0.6929  1.1816  0.7699
 4036TIP3    H233668   4.217   2.255   7.772  1.2981 -2.4557  0.7703
 4037TIP3   OH233669   1.819   2.174   1.044 -0.1257 -0.2698 -0.1967
 4037TIP3    H133670   1.906   2.148   1.074 -0.7031 -2.1546 -0.0681
 4037TIP3    H233671   1.806   2.262   1.081  1.4144 -0.2579  0.3744
 4038TIP3   OH233672   5.599   2.912   0.404  0.5499 -0.5165 -0.3238
 4038TIP3    H133673   5.650   2.830   0.402 -0.1605 -0.9707 -1.6458
 4038TIP3    H233674   5.518   2.890   0.357 -0.9562  0.1501  1.8110
 4039TIP3   OH233675   6.009   1.428   7.654  0.5263  0.7156 -0.4402
 4039TIP3    H133676   6.006   1.333   7.664 -2.0819  0.7763  0.0881
 4039TIP3    H233677   6.022   1.461   7.743  0.0557  0.8654 -0.4246
 4040TIP3   OH233678   0.347   5.320   1.138  0.0998  0.3690  0.5973
 4040TIP3    H133679   0.342   5.362   1.053 -0.6595  1.1526  1.0107
 4040TIP3    H233680   0.302   5.236   1.125 -0.9051  0.9069  0.4551
 4041TIP3   OH233681   6.053   2.742   0.126  0.3995  0.8670 -0.0630
 4041TIP3    H133682   6.082   2.770   0.213 -0.9464  1.6660  0.1439
 4041TIP3    H233683   6.107   2.793   0.066  2.5796 -0.9421  0.2268
 4042TIP3   OH233684   3.277   1.483   1.618  0.5419  0.2016  0.1318
 4042TIP3    H133685   3.313   1.571   1.625 -0.8445  0.7689  0.3702
 4042TIP3    H233686   3.349   1.426   1.644  0.8962  1.3662  1.9182
 4043TIP3   OH233687   0.661   3.822   6.689  0.0113 -0.6210  0.2276
 4043TIP3    H133688   0.670   3.761   6.761  0.1701 -3.9765 -2.3844
 4043TIP3    H233689   0.572   3.855   6.696  0.8090  1.2560  3.3080
 4044TIP3   OH233690   4.562   4.855   1.391  0.5737 -0.3687 -0.6879
 4044TIP3    H133691   4.564   4.904   1.309 -0.8177  1.6695  0.4042
 4044TIP3    H233692   4.651   4.824   1.403  1.7157  2.4590 -1.1769
 4045TIP3   OH233693   1.780   4.571   1.804  0.1976  0.3173  0.1269
 4045TIP3    H133694   1.814   4.572   1.714  0.9388 -0.1721  0.3900
 4045TIP3    H233695   1.838   4.511   1.850 -1.7288 -1.5503  0.3118
 4046TIP3   OH233696   5.511   2.912   1.673 -0.1985 -0.2230 -0.2758
 4046TIP3    H133697   5.565   2.957   1.737  0.6647 -1.7026  0.0894
 4046TIP3    H233698   5.442   2.871   1.724 -0.1482 -0.4952 -0.4242
 4047TIP3   OH233699   6.284   2.740   8.389 -0.1425 -0.3691  0.2759
 4047TIP3    H133700   6.245   2.654   8.406 -0.6281 -0.7525 -2.3517
 4047TIP3    H233701   6.377   2.722   8.379 -0.1878 -0.5521  0.1539
 4048TIP3   OH233702   2.290   3.258   7.994 -0.0532  0.1373 -0.7300
 4048TIP3    H133703   2.288   3.351   8.019 -1.5549  0.1891 -0.9519
 4048TIP3    H233704   2.378   3.229   8.017  0.0622  1.3212  0.4681
 4049TIP3   OH233705   3.037   4.043   8.893  0.3184 -0.0695 -0.6907
 4049TIP3    H133706   3.061   4.013   8.981 -0.4811  0.6732 -0.2080
 4049TIP3    H233707   3.114   4.022   8.839  0.7905 -0.5883  0.1657
 4050TIP3   OH233708   6.384   4.581   2.469 -0.0735 -0.5881 -0.0366
 4050TIP3    H133709   6.444   4.640   2.514  1.0160 -1.5496 -0.1754
 4050TIP3    H233710   6.403   4.593   2.376 -2.0459  1.1068 -0.2920
 4051TIP3   OH233711   4.658   1.399   0.014  0.4642  0.2464 -0.1944
 4051TIP3    H133712   4.622   1.487   0.026 -1.9717 -0.6144 -0.6721
 4051TIP3    H233713   4.587   1.340   0.039  1.4852 -1.6003 -1.4142
 4052TIP3   OH233714   0.693   2.685   7.028 -0.6624 -0.0246 -0.2765
 4052TIP3    H133715   0.786   2.666   7.014 -1.0749 -1.1063 -1.8149
 4052TIP3    H233716   0.677   2.664   7.120  0.7363  0.8000  0.1913
 4053TIP3   OH233717   2.225   0.265   2.162 -0.1653  0.0927 -0.3186
 4053TIP3    H133718   2.215   0.284   2.069 -0.6939 -1.3042 -0.5728
 4053TIP3    H233719   2.318   0.243   2.172 -0.1164  0.2056 -0.5211
 4054TIP3   OH233720   2.933   5.290   2.068  0.3911  0.4610 -0.9408
 4054TIP3    H133721   2.959   5.380   2.086  1.6729 -0.0413 -0.1647
 4054TIP3    H233722   2.900   5.257   2.152 -1.0631  0.5012 -1.4608
 4055TIP3   OH233723   0.394   0.846   8.435  0.3690 -0.1073 -0.2425
 4055TIP3    H133724   0.429   0.778   8.378  1.4725  0.1238  0.1315
 4055TIP3    H233725   0.403   0.927   8.383  1.0851  0.0569  0.1187
 4056TIP3   OH233726   2.483   0.689   7.043  0.1216 -0.1295  0.5033
 4056TIP3    H133727   2.422   0.617   7.060 -1.0309  1.2137  2.4741
 4056TIP3    H233728   2.569   0.647   7.039 -0.7464 -1.9101 -1.1422
 4057TIP3   OH233729   2.567   4.736   7.909  0.0545  0.8854  0.0002
 4057TIP3    H133730   2.478   4.710   7.884  0.5996  0.4593 -1.5690
 4057TIP3    H233731   2.577   4.825   7.874  1.2074 -0.1252 -2.4532
 4058TIP3   OH233732   0.987   5.939   2.486  0.2178 -0.1836  0.4758
 4058TIP3    H133733   0.892   5.943   2.481  0.3185  1.3928 -1.5222
 4058TIP3    H233734   1.008   5.969   2.575 -1.1317 -0.9152  1.0637
 4059TIP3   OH233735   5.468   3.605   0.389 -0.4013 -0.2467 -0.3132
 4059TIP3    H133736   5.456   3.609   0.484 -0.6917 -1.4278 -0.2783
 4059TIP3    H233737   5.386   3.641   0.354 -0.3251  0.1223 -0.1201
 4060TIP3   OH233738   2.687   4.735   2.438  0.4750  0.6008  0.4637
 4060TIP3    H133739   2.611   4.751   2.495 -0.3036  1.6447 -0.8045
 4060TIP3    H233740   2.743   4.812   2.451  0.7362  0.4077  0.4893
 4061TIP3   OH233741   5.390   5.324   1.027 -0.2228 -0.1569  0.5267
 4061TIP3    H133742   5.423   5.297   0.942  0.5189  0.9617  0.4336
 4061TIP3    H233743   5.377   5.419   1.019 -1.6702 -0.2729  1.1695
 4062TIP3   OH233744   2.782   6.543   8.334  0.0617 -0.0074 -0.0589
 4062TIP3    H133745   2.719   6.578   8.396  1.1033  1.5115  0.1833
 4062TIP3    H233746   2.768   6.593   8.253 -0.3874 -1.0566 -0.6544
 4063TIP3   OH233747   4.001   2.829   7.103 -0.1126 -0.0245 -0.0523
 4063TIP3    H133748   4.063   2.846   7.174  0.1926 -3.8423  0.8133
 4063TIP3    H233749   4.054   2.788   7.034 -0.9941  0.5031 -1.0714
 4064TIP3   OH233750   4.210   0.768   6.881 -0.0833 -0.4517 -0.0982
 4064TIP3    H133751   4.223   0.793   6.973  0.2034 -1.1274  0.0538
 4064TIP3    H233752   4.235   0.675   6.878  0.1136 -0.3795 -0.9020
 4065TIP3   OH233753   4.979   2.224   1.553 -0.1115  0.4014  0.2885
 4065TIP3    H133754   4.987   2.306   1.504  1.3803  0.3151  0.3404
 4065TIP3    H233755   5.032   2.239   1.632 -2.7356  0.6917  2.1586
 4066TIP3   OH233756   4.333   2.728   0.598 -1.0249 -0.4058 -0.0406
 4066TIP3    H133757   4.293   2.718   0.685 -1.6057  0.3266 -0.2133
 4066TIP3    H233758   4.258   2.738   0.539 -0.6478 -1.1881 -0.6769
 4067TIP3   OH233759   0.965   4.956   8.758 -0.0284  0.1403  0.2764
 4067TIP3    H133760   1.003   4.966   8.845  0.0418  0.0273  0.2585
 4067TIP3    H233761   0.962   4.862   8.743  2.3180  0.1642 -0.8539
 4068TIP3   OH233762   0.145   5.234   7.782  0.1626 -0.4561 -0.0213
 4068TIP3    H133763   0.167   5.224   7.875 -2.3470  1.5931  0.9167
 4068TIP3    H233764   0.210   5.180   7.737  1.3370 -1.7532  2.9003
 4069TIP3   OH233765   2.216   4.536   0.339 -0.3244  0.9110  0.7862
 4069TIP3    H133766   2.269   4.485   0.401  1.6469  0.8716 -0.8190
 4069TIP3    H233767   2.128   4.535   0.377  0.7300  0.8042  3.5042
 4070TIP3   OH233768   5.180   1.211   1.533 -0.0492  0.2819 -0.5306
 4070TIP3    H133769   5.270   1.232   1.559  0.0134 -1.3857  0.7923
 4070TIP3    H233770   5.190   1.150   1.460 -0.0292 -1.1667  0.6430
 4071TIP3   OH233771   1.187   3.967   8.211  0.1516  0.8077 -0.3372
 4071TIP3    H133772   1.196   3.879   8.172  1.3103  1.0114 -0.5694
 4071TIP3    H233773   1.253   4.020   8.165 -0.5354  1.8087 -0.1964
 4072TIP3   OH233774   2.834   1.541   7.889  0.2453  0.2671 -0.3035
 4072TIP3    H133775   2.768   1.520   7.955  0.1233 -0.3210 -0.6072
 4072TIP3    H233776   2.895   1.599   7.934  0.4155 -0.4938  0.4686
 4073TIP3   OH233777   4.114   5.041   7.881  0.5149 -0.4484  0.1696
 4073TIP3    H133778   4.050   5.004   7.942  0.3025 -1.7479 -0.8117
 4073TIP3    H233779   4.107   5.136   7.893 -1.1643 -0.5991  0.5124
 4074TIP3   OH233780   6.267   2.051   2.395  0.3986 -0.3163 -0.3810
 4074TIP3    H133781   6.262   2.004   2.478 -2.6505 -0.1102 -0.3314
 4074TIP3    H233782   6.275   2.143   2.418  1.3900 -0.4043 -0.3655
 4075TIP3   OH233783   2.491   2.038   8.337  0.3073 -0.3170 -0.3605
 4075TIP3    H133784   2.540   1.993   8.268 -0.0539 -1.4230  0.0813
 4075TIP3    H233785   2.521   2.129   8.332  2.3183 -0.9145 -0.1988
 4076TIP3   OH233786   4.328   4.445   1.017  0.0572  0.0816 -0.5792
 4076TIP3    H133787   4.344   4.353   0.997 -1.2668  0.0657 -1.7793
 4076TIP3    H233788   4.256   4.443   1.080 -0.0673  0.2814 -0.7140
 4077TIP3   OH233789   3.977   3.107   8.127  0.1108 -0.8856 -0.0634
 4077TIP3    H133790   3.924   3.028   8.130 -1.7202  0.2989  0.0182
 4077TIP3    H233791   3.976   3.134   8.035 -0.2835 -0.3090  0.1046
 4078TIP3   OH233792   2.429   4.559   0.063  0.1229 -0.7947 -0.2452
 4078TIP3    H133793   2.459   4.532  -0.024  0.8311  1.6204 -0.8263
 4078TIP3    H233794   2.509   4.562   0.116 -0.2548 -1.9017  0.4290
 4079TIP3   OH233795   2.367   4.464   2.356  0.0321 -0.3192 -0.4421
 4079TIP3    H133796   2.311   4.389   2.335 -0.7756  0.6498 -1.9007
 4079TIP3    H233797   2.350   4.527   2.286  0.9011  1.1159  0.5929
 4080TIP3   OH233798   4.799   0.935   1.023  0.0502 -0.5875  0.1716
 4080TIP3    H133799   4.845   1.009   0.984  0.0933 -1.3548 -1.3156
 4080TIP3    H233800   4.856   0.860   1.006 -0.9047 -1.2669 -0.1051
 4081TIP3   OH233801   0.215   2.523   7.498  0.1408  0.0753  0.0306
 4081TIP3    H133802   0.252   2.458   7.558 -2.1542 -1.0913  0.3173
 4081TIP3    H233803   0.274   2.524   7.423  2.6473  0.9758  1.8991
 4082TIP3   OH233804   6.237   6.277   8.699 -0.0370  0.1750  0.2231
 4082TIP3    H133805   6.142   6.268   8.710 -0.1543  1.5511  0.5250
 4082TIP3    H233806   6.270   6.290   8.788  0.5917 -1.4055  0.2484
 4083TIP3   OH233807   1.691   2.926   1.977  0.2372 -0.5322 -0.0997
 4083TIP3    H133808   1.747   2.870   1.923  0.2868  0.2827 -0.9217
 4083TIP3    H233809   1.718   2.908   2.067  2.7736  0.8341 -0.5138
 4084TIP3   OH233810   5.073   1.071   7.231  0.0981  0.1181  0.4718
 4084TIP3    H133811   5.072   0.980   7.202 -1.3512  0.2906 -0.0854
 4084TIP3    H233812   5.118   1.119   7.161 -1.2199  0.1602 -0.3859
 4085TIP3   OH233813   2.003   0.549   1.502 -0.0365 -0.1949 -0.0520
 4085TIP3    H133814   1.974   0.466   1.464  2.1025 -1.4016  0.7618
 4085TIP3    H233815   2.010   0.609   1.427 -0.9220 -0.9599 -0.7644
 4086TIP3   OH233816   3.841   2.379   1.529  0.0896  0.0188  0.1143
 4086TIP3    H133817   3.781   2.416   1.594 -0.5914 -1.0891  0.1453
 4086TIP3    H233818   3.817   2.423   1.447  0.6129  1.0489  0.4918
 4087TIP3   OH233819   6.336   2.856   1.681  0.3582 -0.2285  0.1329
 4087TIP3    H133820   6.242   2.848   1.661  0.2101 -1.3161  1.1135
 4087TIP3    H233821   6.378   2.793   1.624  0.5061  0.2463 -0.2926
 4088TIP3   OH233822   3.731   2.893   6.979 -0.5879 -0.9886 -1.0567
 4088TIP3    H133823   3.717   2.877   6.885 -0.5895 -0.5091 -1.1393
 4088TIP3    H233824   3.825   2.909   6.987 -0.7402  0.0047 -1.1373
 4089TIP3   OH233825   2.452   5.381   8.049  0.4279 -0.0608 -0.1964
 4089TIP3    H133826   2.390   5.360   7.979 -0.8520  0.5322  0.7084
 4089TIP3    H233827   2.529   5.416   8.004 -0.3888  0.3606 -1.3058
 4090TIP3   OH233828   2.382   0.152   7.805 -0.5162  0.3148  0.3536
 4090TIP3    H133829   2.379   0.081   7.741  1.3744  1.1874 -0.7978
 4090TIP3    H233830   2.393   0.109   7.889  0.6745 -0.7713 -0.3361
 4091TIP3   OH233831   6.582   3.618   1.438 -0.0955  0.1035  0.5338
 4091TIP3    H133832   6.658   3.566   1.464  1.1191  1.2370 -0.5747
 4091TIP3    H233833   6.566   3.592   1.347 -2.3710 -1.6067  1.3309
 4092TIP3   OH233834   5.238   5.528   1.783  0.5100 -0.3201  0.8714
 4092TIP3    H133835   5.290   5.448   1.789 -0.7347 -1.1380  1.1241
 4092TIP3    H233836   5.254   5.561   1.694  0.8528 -0.9883  0.6820
 4093TIP3   OH233837   3.302   2.125   8.105  0.1081  0.8162  0.1133
 4093TIP3    H133838   3.305   2.064   8.178  1.2474 -0.6418 -1.0894
 4093TIP3    H233839   3.388   2.168   8.105 -0.4350  1.9526  0.5275
 4094TIP3   OH233840   1.935   1.250   8.415  0.2052  0.1431  0.1965
 4094TIP3    H133841   2.023   1.238   8.452 -0.1403  1.6714  1.6406
 4094TIP3    H233842   1.889   1.169   8.437  0.6457  0.1720  1.3402
 4095TIP3   OH233843   6.457   4.899   8.397  0.2582  0.0161 -0.4127
 4095TIP3    H133844   6.413   4.980   8.423  0.8183  0.0302  0.5248
 4095TIP3    H233845   6.434   4.888   8.304 -0.0732  1.0777 -0.4704
 4096TIP3   OH233846   2.057   2.863   0.821 -0.1519  0.0505 -0.3109
 4096TIP3    H133847   2.121   2.882   0.752  0.9053 -0.0502  0.6015
 4096TIP3    H233848   2.075   2.928   0.888 -0.9929 -0.0171 -0.0191
 4097TIP3   OH233849   3.799   0.156   0.902 -0.2099  0.5416  0.8636
 4097TIP3    H133850   3.776   0.245   0.928 -1.4123 -0.1516  2.2979
 4097TIP3    H233851   3.893   0.151   0.917  0.1974  2.0290 -0.7679
 4098TIP3   OH233852   4.961   3.829   0.106  0.4881 -0.0835  0.1278
 4098TIP3    H133853   4.889   3.794   0.159  1.3861 -0.8417  0.8867
 4098TIP3    H233854   4.922   3.844   0.020 -0.6143 -0.3113  0.5668
 4099TIP3   OH233855   2.171   5.178   0.533  0.1152  0.2615 -0.1451
 4099TIP3    H133856   2.107   5.238   0.495  0.5758  1.8465  1.4548
 4099TIP3    H233857   2.119   5.125   0.594  0.0816  0.5902  0.1152
 4100TIP3   OH233858   6.184   1.485   0.457 -0.2965  0.2576  0.0808
 4100TIP3    H133859   6.213   1.494   0.548 -0.2444  0.1514  0.0746
 4100TIP3    H233860   6.201   1.393   0.435 -0.3311  0.2772 -0.0286
 4101TIP3   OH233861   5.106   2.317   1.789  0.5721 -0.0243  0.1487
 4101TIP3    H133862   5.024   2.352   1.823 -0.0497 -1.4775  0.2273
 4101TIP3    H233863   5.170   2.386   1.805 -0.4602  0.8108  0.8414
 4102TIP3   OH233864   4.524   4.422   8.507  0.6962  0.3752  0.3125
 4102TIP3    H133865   4.575   4.388   8.580  1.3033  1.0383  0.1982
 4102TIP3    H233866   4.434   4.395   8.527  1.1988 -1.7593 -0.0376
 4103TIP3   OH233867   1.732   0.073   2.658  0.2784 -0.5427 -0.4306
 4103TIP3    H133868   1.798   0.019   2.702  0.6342 -0.2296 -0.5757
 4103TIP3    H233869   1.743   0.160   2.696  0.2044 -0.4036 -0.7257
 4104TIP3   OH233870   6.397   0.502   8.071  0.1083 -0.4584  0.2843
 4104TIP3    H133871   6.441   0.417   8.067  2.1019  0.5503 -0.9701
 4104TIP3    H233872   6.430   0.543   8.151  0.0294 -0.4380  0.3057
 4105TIP3   OH233873   3.213   0.792   1.577 -0.1009 -0.4243 -0.2379
 4105TIP3    H133874   3.270   0.812   1.651 -0.3493  2.8435 -0.7795
 4105TIP3    H233875   3.125   0.806   1.610 -0.2094  1.1089 -1.0933
 4106TIP3   OH233876   3.458   1.956   7.882  0.3459 -0.1492  0.0590
 4106TIP3    H133877   3.461   1.995   7.795 -0.2092  1.6386  0.7895
 4106TIP3    H233878   3.377   1.988   7.920 -0.4917 -2.6298  0.5045
 4107TIP3   OH233879   3.153   3.047   0.031  0.0061  0.2419  0.4502
 4107TIP3    H133880   3.236   3.094   0.037 -0.1703  0.4096  1.8727
 4107TIP3    H233881   3.121   3.043   0.121 -0.7553 -1.2126  0.1469
 4108TIP3   OH233882   0.864   3.838   2.551  0.2946  0.0595  0.5597
 4108TIP3    H133883   0.854   3.746   2.526  0.2577  0.1312  0.3111
 4108TIP3    H233884   0.867   3.837   2.646 -0.5503 -0.1131  0.5895
 4109TIP3   OH233885   5.445   0.392   0.729 -0.1653  0.0506 -0.0101
 4109TIP3    H133886   5.432   0.484   0.707  1.2456  0.3784  0.4493
 4109TIP3    H233887   5.430   0.387   0.823  0.5776 -0.0348  0.1047
 4110TIP3   OH233888   3.896   2.015   0.513 -0.0933 -0.3942 -0.1662
 4110TIP3    H133889   3.806   2.043   0.496  0.1187  0.6988  0.3997
 4110TIP3    H233890   3.946   2.048   0.439 -0.3774 -2.3270 -1.2603
 4111TIP3   OH233891   0.686   6.091   2.554  0.2346 -0.3673  0.1589
 4111TIP3    H133892   0.679   6.080   2.459  0.7070  0.2767  0.0445
 4111TIP3    H233893   0.643   6.013   2.590 -0.1256 -0.5201 -0.5770
 4112TIP3   OH233894   5.767   4.534   1.581  0.1393 -0.3461  0.1654
 4112TIP3    H133895   5.773   4.539   1.486  1.7085 -1.4989  0.1512
 4112TIP3    H233896   5.683   4.573   1.602 -0.1831  0.0540 -1.6818
 4113TIP3   OH233897   5.148   2.974   1.751  0.6737  0.2804  0.5151
 4113TIP3    H133898   5.235   2.939   1.775  0.4747 -1.7719 -1.4081
 4113TIP3    H233899   5.091   2.897   1.752 -0.9068  1.4147  0.6709
 4114TIP3   OH233900   6.497   0.226   8.482  0.0443 -0.1584  0.2143
 4114TIP3    H133901   6.427   0.244   8.546  0.3596 -0.9523  0.7937
 4114TIP3    H233902   6.552   0.160   8.525  0.4826 -0.4080 -0.7227
 4115TIP3   OH233903   3.450   1.280   8.688  0.2138 -0.1890  0.1564
 4115TIP3    H133904   3.478   1.359   8.642  1.2005 -0.2283  0.6630
 4115TIP3    H233905   3.527   1.252   8.737 -0.4637 -0.8165  0.8963
 4116TIP3   OH233906   1.237   6.431   8.251  0.3239  0.0563  0.4727
 4116TIP3    H133907   1.275   6.391   8.330  1.1927  1.9299  1.0757
 4116TIP3    H233908   1.285   6.514   8.242  0.2929 -0.1346 -2.0829
 4117TIP3   OH233909   4.560   1.006   0.838 -0.4787  0.0812 -0.9310
 4117TIP3    H133910   4.581   0.929   0.785 -2.2224 -0.7512 -0.4573
 4117TIP3    H233911   4.632   1.012   0.901  1.1107  0.5032 -2.6790
 4118TIP3   OH233912   2.362   4.179   0.267 -0.1467  0.0302  0.3029
 4118TIP3    H133913   2.452   4.201   0.246  0.5110 -1.0569  1.7842
 4118TIP3    H233914   2.338   4.239   0.338 -0.2245 -0.3439  0.5988
 4119TIP3   OH233915   6.050   0.757   8.170  0.9622 -0.0365 -0.1281
 4119TIP3    H133916   6.126   0.779   8.116  1.6507 -0.6086  0.5986
 4119TIP3    H233917   6.030   0.839   8.217  1.3702  0.0118 -0.0342
 4120TIP3   OH233918   0.906   2.912   7.751  0.1033 -0.0358 -0.1596
 4120TIP3    H133919   0.997   2.905   7.780  0.3903  3.3237  0.0645
 4120TIP3    H233920   0.912   2.916   7.655 -0.0020 -1.3609 -0.2438
 4121TIP3   OH233921   0.878   2.634   1.570  0.8691  0.1977 -0.0497
 4121TIP3    H133922   0.971   2.614   1.580  1.0001  1.1853  0.9742
 4121TIP3    H233923   0.837   2.600   1.650  0.6739  1.4935  0.4263
 4122TIP3   OH233924   4.517   5.440   1.817 -0.0131  0.2602 -0.2410
 4122TIP3    H133925   4.444   5.419   1.875  1.2680 -0.0676  1.3521
 4122TIP3    H233926   4.512   5.375   1.747 -0.0535 -1.1301  0.9899
 4123TIP3   OH233927   4.791   2.193   2.206  0.0788  0.0321 -0.0080
 4123TIP3    H133928   4.870   2.205   2.259 -0.4695 -1.6319  1.2847
 4123TIP3    H233929   4.722   2.235   2.257  0.1951  2.1535 -1.4961
 4124TIP3   OH233930   6.195   4.165   1.508 -0.4592  0.0017  0.6135
 4124TIP3    H133931   6.158   4.241   1.463  0.1195  0.4324  0.8468
 4124TIP3    H233932   6.217   4.198   1.595 -1.6635 -0.8458  1.2616
 4125TIP3   OH233933   0.022   6.032   0.320 -0.4555  1.7962 -0.0939
 4125TIP3    H133934   0.115   6.013   0.311 -0.8324 -0.6995  0.6120
 4125TIP3    H233935   0.016   6.082   0.402  0.2731  2.0030 -0.1624
 4126TIP3   OH233936   1.743   2.870   7.812  0.2972  0.1554 -0.3756
 4126TIP3    H133937   1.776   2.914   7.891  2.4806  0.0139 -1.1270
 4126TIP3    H233938   1.724   2.941   7.751 -3.3845  0.4059  0.8673
 4127TIP3   OH233939   5.754   1.988   8.722 -0.2020  0.2859  0.2079
 4127TIP3    H133940   5.802   2.068   8.699  1.6669 -0.9286 -0.3280
 4127TIP3    H233941   5.747   1.940   8.639 -1.7552  0.1019  0.4233
 4128TIP3   OH233942   3.451   1.304   7.685  0.6370 -0.4150 -0.2213
 4128TIP3    H133943   3.504   1.383   7.669  0.3832  0.0253  1.0087
 4128TIP3    H233944   3.390   1.301   7.611  0.0634  1.0538  0.1549
 4129TIP3   OH233945   0.769   3.751   8.537  0.2054  0.4934  0.3032
 4129TIP3    H133946   0.813   3.720   8.458  0.6295 -1.8747  1.3556
 4129TIP3    H233947   0.745   3.842   8.518  1.5849  0.4613 -1.9642
 4130TIP3   OH233948   2.619   4.403   2.272 -0.0471 -0.4395 -0.2215
 4130TIP3    H133949   2.540   4.441   2.312 -0.3086 -0.1750 -0.9524
 4130TIP3    H233950   2.586   4.329   2.221 -0.3342  1.3916 -2.9599
 4131TIP3   OH233951   5.558   2.507   8.695  0.2271  0.1932  0.0828
 4131TIP3    H133952   5.596   2.549   8.618  0.8661 -1.3611 -0.5017
 4131TIP3    H233953   5.631   2.498   8.756 -0.3870  1.8741  1.1078
 4132TIP3   OH233954   2.210   4.683   0.650  0.3971 -0.5554  0.1490
 4132TIP3    H133955   2.161   4.604   0.674  1.7637 -1.2652  0.7484
 4132TIP3    H233956   2.145   4.741   0.611 -1.1643 -0.9134  2.0796
 4133TIP3   OH233957   1.494   2.623   1.008 -0.0666  0.1522 -0.3818
 4133TIP3    H133958   1.460   2.619   0.918  0.7893 -0.0531 -0.7062
 4133TIP3    H233959   1.503   2.716   1.026  1.4122  0.1894 -1.1660
 4134TIP3   OH233960   5.080   5.439   2.167  0.0526  0.4531 -0.3191
 4134TIP3    H133961   5.030   5.477   2.239 -0.4651  0.3411 -0.6175
 4134TIP3    H233962   5.111   5.514   2.116 -1.0085  0.4873 -0.9353
 4135TIP3   OH233963   1.206   1.335   1.958  0.4289 -0.0565  0.0173
 4135TIP3    H133964   1.191   1.300   2.046  1.3835 -1.2103 -0.2444
 4135TIP3    H233965   1.291   1.378   1.963  0.9416 -0.9685 -0.5553
 4136TIP3   OH233966   5.554   1.672   7.714  0.1546  0.2802  0.1404
 4136TIP3    H133967   5.490   1.636   7.652  0.2078  0.1321  0.1709
 4136TIP3    H233968   5.597   1.743   7.666 -1.2689  1.5844  0.7036
 4137TIP3   OH233969   0.129   5.855   7.874  0.0298  0.5208  0.6753
 4137TIP3    H133970   0.086   5.819   7.796  0.8173  0.2986  0.3354
 4137TIP3    H233971   0.144   5.779   7.930 -1.9030  0.8764  1.7422
 4138TIP3   OH233972   1.918   6.616   8.833 -0.4511 -0.2751 -0.0337
 4138TIP3    H133973   2.009   6.585   8.837 -0.0228  0.6084 -1.7937
 4138TIP3    H233974   1.899   6.644   8.923  2.2548  2.6989 -0.1792
 4139TIP3   OH233975   2.745   0.080   7.089 -0.3962  0.3025 -0.0034
 4139TIP3    H133976   2.664   0.085   7.139 -0.6394 -0.8445 -0.2609
 4139TIP3    H233977   2.764   0.170   7.064 -0.4631  0.8560  1.8293
 4140TIP3   OH233978   2.703   4.812   1.066 -0.0341 -0.0266 -0.3250
 4140TIP3    H133979   2.656   4.858   0.997 -1.8418 -1.3195 -0.0149
 4140TIP3    H233980   2.668   4.723   1.064  2.8254 -1.2429 -0.4128
 4141TIP3   OH233981   0.560   1.125   0.067  0.4875  0.1909  0.0108
 4141TIP3    H133982   0.508   1.205   0.080  0.2827 -0.0409  0.6585
 4141TIP3    H233983   0.506   1.055   0.104  0.6967 -0.2447 -0.4890
 4142TIP3   OH233984   0.193   5.078   8.514 -0.3284  0.1715 -0.0330
 4142TIP3    H133985   0.266   5.084   8.452  0.3614  0.2960  0.7729
 4142TIP3    H233986   0.133   5.014   8.474 -0.2771  0.8193 -1.1947
 4143TIP3   OH233987   4.845   3.104   8.623 -0.6186  0.3225 -0.0166
 4143TIP3    H133988   4.909   3.121   8.554 -0.9289  2.6481  0.1817
 4143TIP3    H233989   4.770   3.067   8.577 -0.5804  1.2443 -0.8652
 4144TIP3   OH233990   2.633   5.261   1.430  0.0774 -0.2027  0.0903
 4144TIP3    H133991   2.675   5.319   1.366 -1.7580 -0.3342 -1.3042
 4144TIP3    H233992   2.670   5.287   1.514  0.1764  2.1935 -0.6272
 4145TIP3   OH233993   6.656   4.899   0.402 -0.2886 -0.4332  0.1908
 4145TIP3    H133994   6.745   4.926   0.424 -0.4713 -0.0991  0.5272
 4145TIP3    H233995   6.656   4.804   0.412  0.1418 -0.4773 -0.2170
 4146TIP3   OH233996   5.920   1.435   0.957  0.5445 -0.0795 -0.0925
 4146TIP3    H133997   5.950   1.439   0.866  0.4934  0.2895 -0.0951
 4146TIP3    H233998   5.965   1.508   1.000  0.7384 -0.3856  0.2311
 4147TIP3   OH233999   6.674   5.739   2.563  0.2268 -0.0277  0.5854
 4147TIP3    H134000   6.623   5.816   2.588 -1.5257 -0.5061 -1.2442
 4147TIP3    H234001   6.743   5.773   2.506 -1.7955  0.0898 -1.9641
 4148TIP3   OH234002   2.771   5.855   8.233  0.0317 -0.3590 -0.0041
 4148TIP3    H134003   2.738   5.891   8.150  0.2387  0.9417  0.4459
 4148TIP3    H234004   2.696   5.861   8.293 -0.5805 -2.6742 -0.4371
 4149TIP3   OH234005   4.639   5.482   2.353  0.1538 -0.0206 -0.2305
 4149TIP3    H134006   4.594   5.479   2.437 -0.9727  0.0749 -0.7975
 4149TIP3    H234007   4.731   5.496   2.374 -0.3860  2.1948  0.9353
 4150TIP3   OH234008   1.286   6.283   1.827  0.0159 -0.1297  1.0023
 4150TIP3    H134009   1.352   6.216   1.846 -0.8609 -0.8918  1.4516
 4150TIP3    H234010   1.203   6.235   1.826 -0.4489  0.6526 -0.4534
 4151TIP3   OH234011   4.122   1.602   0.319 -0.2767  0.1458 -0.4180
 4151TIP3    H134012   4.110   1.591   0.224 -2.0419  3.7359 -0.7910
 4151TIP3    H234013   4.046   1.559   0.358 -0.9134  0.8074 -0.8902
 4152TIP3   OH234014   0.834   0.484   1.626  0.4983 -0.8130  0.2521
 4152TIP3    H134015   0.875   0.438   1.553 -0.6593  0.4006 -1.2277
 4152TIP3    H234016   0.794   0.562   1.586 -1.4799 -0.8863  1.9015
 4153TIP3   OH234017   1.605   0.984   7.668 -0.1555  0.1769 -0.4530
 4153TIP3    H134018   1.602   0.967   7.574 -1.2520 -0.2377 -0.3569
 4153TIP3    H234019   1.698   0.982   7.690  0.1092  0.2678 -1.5244
 4154TIP3   OH234020   1.968   5.758   7.933 -0.2273 -0.2725 -0.3336
 4154TIP3    H134021   1.958   5.689   7.998 -1.9675  0.2312  0.0112
 4154TIP3    H234022   1.948   5.717   7.849  0.5541 -0.5895 -0.3672
 4155TIP3   OH234023   5.528   1.400   0.443 -0.0175 -1.0733  0.8608
 4155TIP3    H134024   5.500   1.338   0.375  0.0505 -0.5383  0.3435
 4155TIP3    H234025   5.461   1.394   0.511 -1.3090  0.0739 -0.2870
 4156TIP3   OH234026   3.150   5.995   1.679  0.0572  0.0576 -0.2628
 4156TIP3    H134027   3.159   6.063   1.612 -1.7577  0.7193  0.1265
 4156TIP3    H234028   3.158   5.913   1.630 -0.4311  0.5388 -1.1783
 4157TIP3   OH234029   1.419   4.364   6.970 -0.3957  0.0840 -0.2850
 4157TIP3    H134030   1.459   4.388   6.886  1.0373 -2.4284 -0.4007
 4157TIP3    H234031   1.432   4.270   6.977 -3.6836 -0.4055  1.1399
 4158TIP3   OH234032   0.230   5.949   1.479 -0.8049  0.3218  0.1643
 4158TIP3    H134033   0.164   5.883   1.501 -0.2887  0.3288  1.9302
 4158TIP3    H234034   0.180   6.030   1.468 -1.1493  0.2832  1.2705
 4159TIP3   OH234035   1.272   3.486   0.096 -0.6006  0.3155 -0.0691
 4159TIP3    H134036   1.265   3.437   0.014  1.1361 -0.9936  0.5071
 4159TIP3    H234037   1.272   3.577   0.069  0.3862 -0.0917 -1.5938
 4160TIP3   OH234038   5.566   3.605   2.659 -0.0432  0.6637 -0.0949
 4160TIP3    H134039   5.617   3.615   2.739  0.0300 -0.8074  0.0655
 4160TIP3    H234040   5.600   3.672   2.600  1.6680  0.0944  0.2056
 4161TIP3   OH234041   3.835   5.309   6.969 -0.2583 -0.3821 -0.0773
 4161TIP3    H134042   3.768   5.240   6.963 -0.8144  0.1339  0.0484
 4161TIP3    H234043   3.873   5.313   6.882 -1.2754  0.1753 -0.5128
 4162TIP3   OH234044   3.650   4.399   0.459  0.1215  0.0530 -0.1834
 4162TIP3    H134045   3.707   4.323   0.457  1.5896  1.1166 -1.1777
 4162TIP3    H234046   3.633   4.415   0.552  0.8176 -0.7450  0.0895
 4163TIP3   OH234047   2.473   0.729   7.729 -0.1060  0.7585 -0.1716
 4163TIP3    H134048   2.488   0.799   7.665 -2.1950  1.6487  0.2054
 4163TIP3    H234049   2.415   0.668   7.685  1.0953 -0.3767 -0.2284
 4164TIP3   OH234050   1.616   5.868   8.744 -0.1429  0.6954 -0.2500
 4164TIP3    H134051   1.653   5.875   8.656  0.2107  0.6333 -0.1057
 4164TIP3    H234052   1.558   5.792   8.740  0.4463  0.2380 -0.2233
 4165TIP3   OH234053   2.955   6.136   0.612 -0.0032 -0.0962  0.3376
 4165TIP3    H134054   2.936   6.095   0.528 -0.5354  0.0433  0.3882
 4165TIP3    H234055   3.051   6.140   0.616  0.2872  5.2446 -2.9184
 4166TIP3   OH234056   5.373   0.052   8.924 -0.1868  0.4052  0.6321
 4166TIP3    H134057   5.371  -0.041   8.900  0.3676  0.8725 -1.4125
 4166TIP3    H234058   5.289   0.067   8.967 -0.7472 -0.8092  0.0229
 4167TIP3   OH234059   0.625   2.762   7.612 -0.1583  0.0844 -0.4174
 4167TIP3    H134060   0.624   2.709   7.692 -0.8659  0.8069  0.0728
 4167TIP3    H234061   0.624   2.699   7.541  1.0644 -0.5888  0.1330
 4168TIP3   OH234062   0.093   0.278   8.274 -0.0875  0.1938 -0.1940
 4168TIP3    H134063   0.093   0.368   8.240 -2.1220  0.8769  1.3813
 4168TIP3    H234064   0.113   0.288   8.367 -1.9098 -0.7891  0.3406
 4169TIP3   OH234065   2.096   3.841   7.643 -0.9544  0.4342  0.2993
 4169TIP3    H134066   2.105   3.935   7.627  0.9952  0.1641 -0.4285
 4169TIP3    H234067   2.076   3.835   7.736 -2.9404  1.6198  0.0008
 4170TIP3   OH234068   4.877   4.212   8.173  0.3086 -0.4402 -0.3494
 4170TIP3    H134069   4.921   4.177   8.251  1.2173 -0.6095 -0.9346
 4170TIP3    H234070   4.812   4.273   8.209  1.4767  0.3576  0.5222
 4171TIP3   OH234071   2.702   1.029   0.831 -0.8807  0.4200 -0.5302
 4171TIP3    H134072   2.631   1.090   0.810 -1.4169 -0.1037 -0.2555
 4171TIP3    H234073   2.676   0.947   0.789 -0.4751  0.1999 -0.3539
 4172TIP3   OH234074   1.376   6.128   2.375  0.0423 -0.2013 -0.3877
 4172TIP3    H134075   1.469   6.107   2.365 -0.4753 -1.9927 -2.2770
 4172TIP3    H234076   1.358   6.115   2.468  1.4927 -0.6965 -0.1522
 4173TIP3   OH234077   1.082   2.000   1.748  0.3822  0.3236 -0.6417
 4173TIP3    H134078   1.056   2.044   1.829  1.3573 -0.3916  0.0814
 4173TIP3    H234079   0.999   1.975   1.707 -0.1498 -0.9812  1.0835
 4174TIP3   OH234080   5.720   1.812   8.509 -0.1759  0.0473 -0.3119
 4174TIP3    H134081   5.647   1.831   8.450 -0.0244 -2.0978 -1.2794
 4174TIP3    H234082   5.793   1.789   8.451 -0.0530 -2.2376  0.6706
 4175TIP3   OH234083   1.559   4.324   7.913 -0.1898 -0.1862  0.3204
 4175TIP3    H134084   1.556   4.419   7.901 -0.7434  0.0087  1.8135
 4175TIP3    H234085   1.650   4.301   7.892 -0.3711  0.4573 -1.3234
 4176TIP3   OH234086   2.119   5.339   8.936 -0.1464  0.4280  0.3241
 4176TIP3    H134087   2.166   5.416   8.967  1.5967 -0.8308  0.9387
 4176TIP3    H234088   2.109   5.353   8.842  0.6544  1.1512  0.3444
 4177TIP3   OH234089   1.389   3.189   0.663 -0.4677  0.0310 -0.4342
 4177TIP3    H134090   1.351   3.202   0.576  0.1859  0.3018 -0.6784
 4177TIP3    H234091   1.413   3.096   0.665  0.0063  0.1435 -0.7416
 4178TIP3   OH234092   1.907   1.545   7.793  0.4538  0.2083  0.2088
 4178TIP3    H134093   1.829   1.595   7.770 -1.5615 -1.9540  1.8659
 4178TIP3    H234094   1.891   1.458   7.757  2.0092 -0.3465  0.7893
 4179TIP3   OH234095   2.023   0.897   8.090 -0.1944  0.0172  0.2851
 4179TIP3    H134096   2.096   0.844   8.058  0.9452  2.1755 -0.9687
 4179TIP3    H234097   1.983   0.933   8.011 -4.1828 -2.7978  0.7168
 4180TIP3   OH234098   5.324   5.578   1.526  0.1391  0.4638 -0.2362
 4180TIP3    H134099   5.313   5.618   1.440 -1.5395  1.2459  0.3057
 4180TIP3    H234100   5.317   5.484   1.509 -0.9429  0.6427 -0.8656
 4181TIP3   OH234101   1.672   2.566   2.687  0.2563  0.3429 -0.3218
 4181TIP3    H134102   1.647   2.482   2.648 -1.6798  1.4615 -1.6975
 4181TIP3    H234103   1.649   2.557   2.780 -0.2382 -0.5594 -0.5193
 4182TIP3   OH234104   2.229   5.355   2.244  0.7076  0.5000  0.5999
 4182TIP3    H134105   2.237   5.385   2.334  0.2500  1.8748  0.2098
 4182TIP3    H234106   2.296   5.405   2.196 -1.0366  2.0887 -0.3238
 4183TIP3   OH234107   0.780   2.040   2.145 -0.3857 -0.4466 -0.8461
 4183TIP3    H134108   0.716   1.997   2.202 -1.5668  0.2339 -1.6119
 4183TIP3    H234109   0.737   2.042   2.059 -0.1124  1.6385 -0.9805
 4184TIP3   OH234110   2.457   6.291   1.136 -0.0222 -0.2520  0.7050
 4184TIP3    H134111   2.418   6.271   1.050 -1.8149 -0.8956  1.6068
 4184TIP3    H234112   2.520   6.221   1.151  1.9888  1.0864 -1.0194
 4185TIP3   OH234113   2.065   0.453   7.649  0.1848  0.1348 -0.0147
 4185TIP3    H134114   2.065   0.367   7.689  1.8270  0.2100  0.1907
 4185TIP3    H234115   1.972   0.474   7.638 -0.2571 -1.0057  1.3054
 4186TIP3   OH234116   0.183   1.184   1.971  0.3539  0.2591  0.2590
 4186TIP3    H134117   0.251   1.165   2.036 -0.2085 -0.2550  0.7040
 4186TIP3    H234118   0.134   1.258   2.008  1.6316  1.7230 -0.7995
 4187TIP3   OH234119   4.556   2.182   7.243 -0.0491  0.0512  0.1027
 4187TIP3    H134120   4.540   2.253   7.305 -1.5990  0.6321 -0.8879
 4187TIP3    H234121   4.585   2.227   7.163  1.2779 -0.6321  0.1787
 4188TIP3   OH234122   2.819   4.221   8.931 -0.3676 -0.8052  0.0297
 4188TIP3    H134123   2.888   4.163   8.900 -0.6496 -0.8704 -0.4881
 4188TIP3    H234124   2.828   4.300   8.877 -1.7742 -1.4802 -1.2641
 4189TIP3   OH234125   4.505   3.895   8.374  0.3030 -0.3466  0.4443
 4189TIP3    H134126   4.466   3.982   8.370  0.1161 -0.4581 -0.2923
 4189TIP3    H234127   4.546   3.891   8.460  1.8358  1.1470 -0.1581
 4190TIP3   OH234128   6.183   0.332   0.200  0.5114  0.4139 -0.2279
 4190TIP3    H134129   6.271   0.309   0.229  1.8089  1.2266 -3.1947
 4190TIP3    H234130   6.184   0.428   0.193  0.6588  0.3045 -3.4923
 4191TIP3   OH234131   6.199   0.498   2.017 -0.9034  0.3105 -0.2858
 4191TIP3    H134132   6.188   0.420   1.963  2.1895 -0.5969  0.2184
 4191TIP3    H234133   6.277   0.541   1.982  0.9573 -0.0560  3.0048
 4192TIP3   OH234134   6.400   2.838   1.055 -0.1005 -0.4165  0.5578
 4192TIP3    H134135   6.482   2.884   1.039  0.9113 -1.8178  1.4657
 4192TIP3    H234136   6.358   2.886   1.126 -1.2122  1.6353 -1.3555
 4193TIP3   OH234137   4.382   5.361   7.928 -0.2268  0.1297  0.0293
 4193TIP3    H134138   4.404   5.370   8.021  0.6847 -1.0730 -0.0525
 4193TIP3    H234139   4.286   5.356   7.926 -0.1931 -1.8777  1.1238
 4194TIP3   OH234140   4.053   4.904   0.034 -0.0054  0.0137  0.8784
 4194TIP3    H134141   4.101   4.987   0.028 -1.3678  0.8204  0.6900
 4194TIP3    H234142   4.118   4.837   0.012  0.7556  1.1388 -0.4628
 4195TIP3   OH234143   2.857   2.803   6.963  0.1788 -0.1055 -0.0496
 4195TIP3    H134144   2.914   2.727   6.950  1.7253  1.0455 -0.2169
 4195TIP3    H234145   2.913   2.868   7.005 -0.3378  1.9004 -2.3026
 4196TIP3   OH234146   4.033   5.926   0.592 -0.2367 -0.3367 -0.7094
 4196TIP3    H134147   4.046   5.971   0.675  0.8295  2.0651 -2.0618
 4196TIP3    H234148   4.103   5.859   0.590  1.2031  1.1025 -0.5898
 4197TIP3   OH234149   3.849   1.441   8.450  0.1629  0.5806  0.1319
 4197TIP3    H134150   3.870   1.532   8.429  2.6506  0.2575  0.8862
 4197TIP3    H234151   3.926   1.409   8.497 -1.0456 -1.6494  0.7303
 4198TIP3   OH234152   0.885   4.810   0.383  0.3164  0.4578  0.0982
 4198TIP3    H134153   0.811   4.763   0.421  0.0852  0.8966  0.1988
 4198TIP3    H234154   0.866   4.812   0.289  0.7141 -0.3229 -0.0016
 4199TIP3   OH234155   1.118   1.647   2.104  0.2104  0.2366  0.1584
 4199TIP3    H134156   1.056   1.712   2.138 -0.7142  0.2969 -1.5648
 4199TIP3    H234157   1.062   1.576   2.072  1.1183 -0.3573 -0.1221
 4200TIP3   OH234158   1.714   6.279   7.563 -0.3085  0.3043 -0.2022
 4200TIP3    H134159   1.676   6.273   7.651  2.1691 -2.1593  0.8470
 4200TIP3    H234160   1.674   6.208   7.514 -0.3038  0.5042 -0.4978
 4201TIP3   OH234161   1.077   2.905   8.164 -0.2818 -0.0574 -0.1327
 4201TIP3    H134162   1.004   2.848   8.141 -0.3368 -0.1499  0.2613
 4201TIP3    H234163   1.153   2.863   8.124 -0.1608 -0.9758  0.9981
 4202TIP3   OH234164   0.727   2.116   8.354  0.3700  0.3355 -0.2396
 4202TIP3    H134165   0.660   2.073   8.406  2.4456  0.6632  2.9934
 4202TIP3    H234166   0.694   2.206   8.343 -0.8072 -0.1567 -0.9436
 4203TIP3   OH234167   2.182   5.058   7.247 -0.1844 -0.2903  0.8023
 4203TIP3    H134168   2.228   5.128   7.201 -0.2391  1.2956  3.0133
 4203TIP3    H234169   2.191   4.982   7.189  0.2523  1.3893 -1.4979
 4204TIP3   OH234170   1.324   0.047   0.104  0.3364  0.3844 -0.7029
 4204TIP3    H134171   1.330  -0.040   0.144  0.4994  1.2619  1.2714
 4204TIP3    H234172   1.374   0.104   0.163 -1.0379  2.0897 -1.1202
 4205TIP3   OH234173   2.569   5.961   0.360 -0.6543 -0.5726  0.1049
 4205TIP3    H134174   2.539   5.896   0.423  2.1566 -1.8564  0.2678
 4205TIP3    H234175   2.611   5.910   0.290  1.2041  0.9792 -0.0181
 4206TIP3   OH234176   1.461   3.846   0.386  0.0093  0.7718 -0.2291
 4206TIP3    H134177   1.411   3.784   0.438  1.1095  1.1472  1.3681
 4206TIP3    H234178   1.472   3.803   0.301 -0.3206 -0.6660  0.4237
 4207TIP3   OH234179   0.656   4.359   1.792 -0.0934 -0.0978 -0.0481
 4207TIP3    H134180   0.606   4.366   1.711 -0.1370  1.9592  0.1070
 4207TIP3    H234181   0.700   4.274   1.785 -1.7689 -0.9411 -1.2195
 4208TIP3   OH234182   3.842   2.859   1.539 -0.4802 -0.3540 -0.4062
 4208TIP3    H134183   3.894   2.803   1.597  0.4122  0.4392 -0.4069
 4208TIP3    H234184   3.764   2.880   1.590  0.0949 -0.0094  0.3586
 4209TIP3   OH234185   6.443   2.008   2.203  1.1142 -0.5320 -0.2174
 4209TIP3    H134186   6.451   1.912   2.206 -0.9911 -0.8438 -2.0469
 4209TIP3    H234187   6.371   2.028   2.262  1.6074 -0.0454  0.2251
 4210TIP3   OH234188   5.147   4.293   0.347 -0.3020  0.3395 -0.7106
 4210TIP3    H134189   5.116   4.205   0.324  1.2657 -0.2549 -0.6728
 4210TIP3    H234190   5.080   4.352   0.312 -2.5026 -0.9152  1.1107
 4211TIP3   OH234191   2.346   1.323   8.338  0.0398 -0.2736 -0.1847
 4211TIP3    H134192   2.390   1.365   8.412  1.2911  0.9284 -1.5574
 4211TIP3    H234193   2.395   1.243   8.323  0.5756  0.1191 -0.5224
 4212TIP3   OH234194   3.704   4.737   8.041  0.2946 -0.1024  0.3161
 4212TIP3    H134195   3.713   4.681   7.965  0.2476 -0.6016  0.6723
 4212TIP3    H234196   3.723   4.680   8.116 -1.2402 -0.0153  0.7944
 4213TIP3   OH234197   4.577   6.340   1.698 -0.2983  0.0320 -0.2912
 4213TIP3    H134198   4.533   6.318   1.616 -0.0805 -0.4748 -0.2701
 4213TIP3    H234199   4.611   6.429   1.684  0.7989 -0.5145 -1.1895
 4214TIP3   OH234200   5.877   3.694   0.605  0.0850 -0.6103  0.4719
 4214TIP3    H134201   5.894   3.600   0.599  2.3216 -0.5413  3.2517
 4214TIP3    H234202   5.914   3.719   0.690  0.4728  2.9739 -0.5813
 4215TIP3   OH234203   5.508   5.014   0.597  0.0067 -0.0145  0.1758
 4215TIP3    H134204   5.480   5.010   0.505  0.4443 -1.8829  0.0907
 4215TIP3    H234205   5.603   5.029   0.592 -0.1301  1.0161  0.3706
 4216TIP3   OH234206   3.689   4.045   1.478 -0.0790  0.1888 -0.0128
 4216TIP3    H134207   3.746   3.976   1.446  0.1801  0.3105  0.1798
 4216TIP3    H234208   3.734   4.126   1.455  0.9997  0.2880  2.1681
 4217TIP3   OH234209   5.927   6.658   1.181  0.2190 -0.6195 -0.1526
 4217TIP3    H134210   5.929   6.567   1.211  0.6741 -1.0753 -1.4813
 4217TIP3    H234211   5.897   6.653   1.090  0.8472  0.4977 -0.4405
 4218TIP3   OH234212   3.494   0.561   8.575 -0.2780  0.1485 -0.1687
 4218TIP3    H134213   3.405   0.546   8.606  0.5719  0.6830  2.8513
 4218TIP3    H234214   3.518   0.646   8.613  1.4328  0.1381 -1.1546
 4219TIP3   OH234215   5.194   2.728   2.432  0.2399 -0.0756 -0.2440
 4219TIP3    H134216   5.146   2.696   2.508 -1.1480 -0.7312 -1.3610
 4219TIP3    H234217   5.279   2.684   2.437  0.9609  1.3940  1.9722
 4220TIP3   OH234218   4.817   0.291   1.829  0.1786 -0.2694  0.0342
 4220TIP3    H134219   4.784   0.201   1.828 -1.1401  0.1868  0.1135
 4220TIP3    H234220   4.834   0.309   1.921  2.6224 -1.1454 -0.1624
 4221TIP3   OH234221   2.019   3.618   1.414  0.2568 -0.2643 -0.1474
 4221TIP3    H134222   1.988   3.673   1.486 -0.2753  0.5621 -0.9818
 4221TIP3    H234223   2.047   3.537   1.457  2.5137  1.1742  1.3081
 4222TIP3   OH234224   4.581   0.525   1.270 -0.1711 -0.1720 -0.2782
 4222TIP3    H134225   4.596   0.620   1.276  1.7834 -0.4002 -1.0295
 4222TIP3    H234226   4.548   0.501   1.356 -1.5951  1.3143 -0.3509
 4223TIP3   OH234227   4.517   6.380   8.865 -0.0368  0.2427  0.0210
 4223TIP3    H134228   4.466   6.457   8.889  0.1346 -0.1526  1.7601
 4223TIP3    H234229   4.518   6.326   8.944  1.5931 -0.5823 -0.5186
 4224TIP3   OH234230   3.738   1.337   7.096  0.6049  0.3078  0.0822
 4224TIP3    H134231   3.790   1.258   7.086  0.9371  0.6878 -1.6656
 4224TIP3    H234232   3.660   1.310   7.143  0.8493 -1.0030 -0.2431
 4225TIP3   OH234233   6.012   4.283   0.047 -0.4012  0.1627 -0.0249
 4225TIP3    H134234   5.948   4.345   0.083 -0.5667  0.7774 -1.3239
 4225TIP3    H234235   6.084   4.283   0.110 -0.7690  1.0474  0.4095
 4226TIP3   OH234236   4.279   3.862   2.202 -0.2058  0.0993  0.3121
 4226TIP3    H134237   4.225   3.938   2.182 -0.6226 -0.2323  0.1657
 4226TIP3    H234238   4.219   3.799   2.241  0.1996 -0.0384  0.7169
 4227TIP3   OH234239   0.324   4.890   2.487 -0.3591  0.4553  0.2186
 4227TIP3    H134240   0.328   4.974   2.534  1.9510 -0.7974  2.5124
 4227TIP3    H234241   0.302   4.826   2.554 -2.0688 -0.8418 -1.4889
 4228TIP3   OH234242   4.992   1.542   8.509  1.0039 -0.4884  0.1694
 4228TIP3    H134243   4.951   1.478   8.567 -0.4295 -0.5363 -0.8512
 4228TIP3    H234244   4.954   1.626   8.536  2.0132 -0.1997  0.7447
 4229TIP3   OH234245   0.800   4.554   0.143 -0.4533  0.1933  0.0695
 4229TIP3    H134246   0.813   4.630   0.086  0.5886 -2.2061 -3.2193
 4229TIP3    H234247   0.888   4.531   0.171 -0.6954 -0.1623  0.5297
 4230TIP3   OH234248   1.713   1.951   1.203  0.3981 -0.3507  0.1720
 4230TIP3    H134249   1.750   2.026   1.157 -1.9283 -0.7125 -2.5525
 4230TIP3    H234250   1.657   1.990   1.271 -0.4233  0.4466 -0.9150
 4231TIP3   OH234251   0.228   2.199   0.479  0.5947 -0.3369 -0.3984
 4231TIP3    H134252   0.252   2.118   0.523  1.0669 -0.0698 -0.1588
 4231TIP3    H234253   0.280   2.267   0.522  1.9329 -0.2078 -2.0934
 4232TIP3   OH234254   4.608   4.230   7.140  0.4347  0.3146  0.2183
 4232TIP3    H134255   4.577   4.150   7.182 -3.4147  1.7814  0.6087
 4232TIP3    H234256   4.544   4.296   7.165  1.9520  2.9382 -2.2309
 4233TIP3   OH234257   6.359   6.089   1.846 -0.5935 -0.0558 -0.1496
 4233TIP3    H134258   6.303   6.158   1.813 -0.5018 -0.9870 -2.4009
 4233TIP3    H234259   6.448   6.115   1.821 -0.5178 -0.7694 -0.6680
 4234TIP3   OH234260   3.836   3.117   8.852 -0.3060 -0.3684  0.2140
 4234TIP3    H134261   3.791   3.101   8.935 -0.8904 -0.8384 -0.1824
 4234TIP3    H234262   3.815   3.041   8.798 -1.4586  0.7602 -1.0152
 4235TIP3   OH234263   4.086   5.488   1.050 -0.3757 -0.2200 -0.4780
 4235TIP3    H134264   4.003   5.519   1.086  0.0099  0.8380 -0.4682
 4235TIP3    H234265   4.122   5.564   1.004  0.7469 -0.5648 -0.1855
 4236TIP3   OH234266   0.430   0.609   0.227  0.5220  0.1236 -0.8898
 4236TIP3    H134267   0.344   0.615   0.270  0.7925  0.1790 -0.3515
 4236TIP3    H234268   0.493   0.621   0.298  1.0037  3.1038 -1.7208
 4237TIP3   OH234269   1.109   1.628   2.433  0.4134 -0.1073  0.4597
 4237TIP3    H134270   1.153   1.600   2.353 -0.2366  0.3028 -0.0535
 4237TIP3    H234271   1.173   1.682   2.479  0.4381  0.5027 -0.2906
 4238TIP3   OH234272   0.260   1.351   8.277 -0.1963  0.1026 -0.1917
 4238TIP3    H134273   0.189   1.290   8.258 -1.1605  1.3629 -0.7949
 4238TIP3    H234274   0.216   1.435   8.293  1.1277  0.8371 -0.2438
 4239TIP3   OH234275   0.358   2.305   1.322 -0.5393 -0.8433  0.0510
 4239TIP3    H134276   0.406   2.222   1.333  2.6428  0.9221  0.7702
 4239TIP3    H234277   0.300   2.309   1.398  0.4688 -1.6709  0.8982
 4240TIP3   OH234278   3.244   1.312   1.110 -0.1009  0.8789 -0.0557
 4240TIP3    H134279   3.276   1.245   1.170 -1.7262  0.2892  0.1992
 4240TIP3    H234280   3.306   1.311   1.037 -0.3817 -1.3114 -0.3319
 4241TIP3   OH234281   3.924   0.683   0.956 -0.1323 -0.0860 -0.6491
 4241TIP3    H134282   4.017   0.668   0.943  0.1030  1.4916 -0.9790
 4241TIP3    H234283   3.915   0.702   1.050  0.1279  1.1660 -0.8525
 4242TIP3   OH234284   6.355   5.696   8.303 -0.6530  0.1707 -0.7174
 4242TIP3    H134285   6.352   5.789   8.327 -1.3310 -0.0530  0.1191
 4242TIP3    H234286   6.312   5.652   8.376  3.0792 -1.2226  0.8981
 4243TIP3   OH234287   5.990   2.035   2.201 -0.4087 -0.2313 -0.2244
 4243TIP3    H134288   6.072   1.996   2.230 -0.4350 -0.8567 -0.9448
 4243TIP3    H234289   5.982   2.008   2.109 -0.6843  1.0606 -0.6044
 4244TIP3   OH234290   1.419   0.426   8.382  0.6318 -0.1123  0.8297
 4244TIP3    H134291   1.508   0.458   8.368  0.3728  0.5599  0.6667
 4244TIP3    H234292   1.394   0.461   8.468  0.0619  0.8100  0.3045
 4245TIP3   OH234293   2.951   4.734   2.917 -0.0916  0.0494  0.6596
 4245TIP3    H134294   2.935   4.674   2.844 -0.7587 -0.8608  1.5289
 4245TIP3    H234295   2.882   4.800   2.909 -0.1028  0.0120  0.4233
 4246TIP3   OH234296   3.938   2.992   0.553  0.0372  0.4728  0.0428
 4246TIP3    H134297   3.906   3.059   0.493  1.9511  1.3630 -0.0596
 4246TIP3    H234298   4.008   2.947   0.505 -0.8794 -1.3219  0.2806
 4247TIP3   OH234299   1.390   2.356   0.496 -0.4022  0.0020  0.0248
 4247TIP3    H134300   1.437   2.398   0.424 -1.7721  0.4063 -0.6518
 4247TIP3    H234301   1.403   2.262   0.481 -0.4998  0.0868 -0.6365
 4248TIP3   OH234302   6.544   1.986   1.178 -0.5056  0.2861  0.2909
 4248TIP3    H134303   6.455   2.009   1.151 -0.8315  2.3710  2.7346
 4248TIP3    H234304   6.575   2.064   1.224  1.4634 -1.4457  2.0998
 4249TIP3   OH234305   6.265   0.882   8.013  0.3448 -0.0409  0.9583
 4249TIP3    H134306   6.294   0.965   8.052  0.0196  0.0183  1.0747
 4249TIP3    H234307   6.335   0.858   7.952 -0.3269  1.1760 -0.3316
 4250TIP3   OH234308   3.659   5.180   7.638  0.4971 -0.7329  0.1803
 4250TIP3    H134309   3.670   5.249   7.703  1.0136 -3.0137  2.6776
 4250TIP3    H234310   3.739   5.127   7.644  0.0334 -1.7122 -1.4613
 4251TIP3   OH234311   5.389   4.678   8.819 -0.0155  0.0424  0.0853
 4251TIP3    H134312   5.337   4.650   8.743  0.5585  1.6111 -0.9554
 4251TIP3    H234313   5.477   4.645   8.802  0.1907  0.6751 -0.1310
 4252TIP3   OH234314   2.956   1.916   0.623 -0.4579  0.1657  0.0543
 4252TIP3    H134315   2.887   1.909   0.557 -0.4125 -0.6583  0.0827
 4252TIP3    H234316   2.996   1.829   0.625 -1.2876 -0.2209  2.0716
 4253TIP3   OH234317   6.339   3.285   6.763 -0.6404 -0.1179  0.0670
 4253TIP3    H134318   6.386   3.239   6.693  0.2940 -0.1141  0.6670
 4253TIP3    H234319   6.393   3.363   6.779 -1.0146  0.0354  0.5762
 4254TIP3   OH234320   1.998   5.478   2.166  0.3467 -0.5752  0.1112
 4254TIP3    H134321   1.982   5.564   2.205  0.0895  0.1947 -1.5768
 4254TIP3    H234322   2.085   5.453   2.198  0.2957  0.1731  0.8668
 4255TIP3   OH234323   0.575   4.944   8.060 -0.1265  0.7902  0.1562
 4255TIP3    H134324   0.538   4.979   7.978 -1.2570  0.9545  0.7117
 4255TIP3    H234325   0.661   4.987   8.067 -0.5210  1.7085 -0.3390
 4256TIP3   OH234326   5.429   3.637   8.289  0.2550 -0.4413 -0.2631
 4256TIP3    H134327   5.363   3.683   8.341  0.0688 -3.3242  2.3112
 4256TIP3    H234328   5.511   3.684   8.307 -0.4373  0.8517 -0.3986
 4257TIP3   OH234329   5.683   3.102   1.803 -0.1865  0.4153  0.4434
 4257TIP3    H134330   5.765   3.060   1.780  0.6076  2.8507 -1.6016
 4257TIP3    H234331   5.663   3.159   1.730 -3.0345  0.9583  1.4749
 4258TIP3   OH234332   6.208   6.392   0.011 -0.3237  0.5643 -0.0468
 4258TIP3    H134333   6.276   6.459   0.022 -0.1172  0.4034 -0.3224
 4258TIP3    H234334   6.247   6.312   0.048 -0.7072  0.6731  0.6174
 4259TIP3   OH234335   4.996   4.191   1.585  0.4810 -0.0131  0.2739
 4259TIP3    H134336   4.997   4.101   1.617 -0.6871 -0.2447 -0.2733
 4259TIP3    H234337   4.996   4.244   1.664  1.6513 -0.4653  0.6006
 4260TIP3   OH234338   5.122   2.332   7.594  0.0670 -0.0514 -0.3425
 4260TIP3    H134339   5.081   2.293   7.671  0.8278  1.3297  0.8112
 4260TIP3    H234340   5.048   2.366   7.543 -0.3709  0.5586  0.6624
 4261TIP3   OH234341   0.064   5.646   8.761  0.0924 -0.4389  0.0290
 4261TIP3    H134342   0.022   5.575   8.712  0.6334 -0.3815 -0.5323
 4261TIP3    H234343   0.002   5.719   8.753  0.8366  0.0460 -1.8934
 4262TIP3   OH234344   1.333   0.830   1.324  0.8115  0.3833 -0.0876
 4262TIP3    H134345   1.414   0.786   1.352  1.1961  0.4456 -1.0344
 4262TIP3    H234346   1.327   0.908   1.379  0.4698 -0.5003  1.1692
 4263TIP3   OH234347   6.595   0.493   8.526  0.0475 -0.4779  0.0212
 4263TIP3    H134348   6.515   0.440   8.519 -0.3951  0.0103  1.1271
 4263TIP3    H234349   6.663   0.431   8.552 -0.5369 -0.4908  1.6557
 4264TIP3   OH234350   1.543   5.981   0.033  0.4231 -0.0854  0.1687
 4264TIP3    H134351   1.559   5.965  -0.060 -2.5954 -0.5478 -0.3593
 4264TIP3    H234352   1.460   5.938   0.051  0.0496  1.4745  2.6543
 4265TIP3   OH234353   1.707   2.446   0.977 -0.3232  0.1711 -0.1186
 4265TIP3    H134354   1.652   2.513   1.017  0.7175  0.9669  0.0275
 4265TIP3    H234355   1.645   2.382   0.942 -1.3075  0.4787  0.9825
 4266TIP3   OH234356   3.604   1.116   0.746  0.4577 -0.6518 -0.1109
 4266TIP3    H134357   3.562   1.082   0.825  1.9548 -1.5690  0.3216
 4266TIP3    H234358   3.637   1.039   0.701  2.8254  0.0642  0.2580
 4267TIP3   OH234359   2.735   0.473   8.609  0.2836  0.4207  0.3189
 4267TIP3    H134360   2.664   0.411   8.622  1.0734 -0.2979  1.3904
 4267TIP3    H234361   2.787   0.468   8.689  2.5439 -0.4000 -1.0965
 4268TIP3   OH234362   1.529   5.594   8.872 -0.0669  1.0315  0.2667
 4268TIP3    H134363   1.613   5.555   8.848 -0.2073  0.0187  1.3229
 4268TIP3    H234364   1.487   5.614   8.788  2.0714  3.6116 -0.3202
 4269TIP3   OH234365   0.181   3.301   1.968 -0.1361  0.5220  0.4772
 4269TIP3    H134366   0.215   3.235   1.907 -2.0304  0.0772 -0.1894
 4269TIP3    H234367   0.166   3.253   2.049  0.3808  0.6111  0.6261
 4270TIP3   OH234368   0.180   6.733   0.671  0.4051  0.3676  0.0361
 4270TIP3    H134369   0.220   6.792   0.734  1.0543  0.6552 -0.6253
 4270TIP3    H234370   0.226   6.650   0.683 -0.4666 -0.0199  0.9240
 4271TIP3   OH234371   5.805   1.438   0.290 -0.1716  0.4417 -0.0817
 4271TIP3    H134372   5.726   1.438   0.344  0.1746  1.5925  0.4648
 4271TIP3    H234373   5.773   1.453   0.201 -0.7215 -1.1833 -0.1836
 4272TIP3   OH234374   0.513   5.722   7.450  0.1094  0.2040 -0.1359
 4272TIP3    H134375   0.586   5.779   7.427 -0.1659  0.7165  0.2342
 4272TIP3    H234376   0.449   5.735   7.380  1.2361 -1.9045 -1.6665
 4273TIP3   OH234377   4.955   1.267   0.143 -0.0499  0.4801  0.5555
 4273TIP3    H134378   4.977   1.338   0.203  0.3604  0.4855  0.4019
 4273TIP3    H234379   5.025   1.268   0.078  1.0742 -1.3581  1.6685
 4274TIP3   OH234380   1.175   4.692   2.819 -0.3528 -0.0334 -0.1741
 4274TIP3    H134381   1.164   4.786   2.809  1.6895  0.3008  0.2487
 4274TIP3    H234382   1.270   4.678   2.812 -0.6786 -2.1704 -1.1464
 4275TIP3   OH234383   2.361   2.541   2.506  0.3719  0.0096  0.2400
 4275TIP3    H134384   2.318   2.514   2.587  0.9737  0.9593  0.9001
 4275TIP3    H234385   2.367   2.461   2.454  0.4839 -0.7332  1.3599
 4276TIP3   OH234386   2.105   3.570   8.066 -0.2718 -0.4515 -0.1789
 4276TIP3    H134387   2.130   3.636   8.000  1.0737 -1.4291 -0.6807
 4276TIP3    H234388   2.012   3.554   8.048 -0.5788  1.1176 -0.1933
 4277TIP3   OH234389   0.919   5.937   1.402 -0.0082 -0.0688  0.5588
 4277TIP3    H134390   1.009   5.907   1.415  0.1222 -0.5872 -1.2297
 4277TIP3    H234391   0.886   5.884   1.330 -1.5355  0.5710  0.7412
 4278TIP3   OH234392   6.074   0.201   0.441  0.3905 -0.5699 -0.1659
 4278TIP3    H134393   5.991   0.205   0.394 -0.1573 -2.8627  0.4574
 4278TIP3    H234394   6.140   0.217   0.374 -0.4949 -0.5536 -1.0654
 4279TIP3   OH234395   4.858   6.523   1.258 -0.0477  0.0698 -0.9684
 4279TIP3    H134396   4.861   6.501   1.165  1.2056  2.5976 -1.6255
 4279TIP3    H234397   4.942   6.565   1.275 -0.4897  0.1981  1.1870
 4280TIP3   OH234398   4.278   6.558   7.956  0.5409  0.1641 -0.6704
 4280TIP3    H134399   4.314   6.575   8.043 -1.3832  1.8040 -0.1251
 4280TIP3    H234400   4.188   6.531   7.972  0.0987  0.6560 -2.1520
 4281TIP3   OH234401   3.407   3.747   1.431 -0.2455  0.3845  0.5910
 4281TIP3    H134402   3.467   3.775   1.500 -0.4935  0.4330  0.7880
 4281TIP3    H234403   3.463   3.701   1.368  0.0315  0.6146  0.6674
 4282TIP3   OH234404   2.799   4.971   2.900 -0.2459 -0.2330  0.4870
 4282TIP3    H134405   2.768   5.026   2.828 -0.0502  0.7701  1.1617
 4282TIP3    H234406   2.883   5.009   2.925  0.6790 -1.8025 -0.0820
 4283TIP3   OH234407   1.614   5.734   0.687 -0.1675 -0.0785  0.1974
 4283TIP3    H134408   1.642   5.690   0.768  2.2752  0.1884 -0.4244
 4283TIP3    H234409   1.608   5.664   0.622  0.2800  0.0147  0.0491
 4284TIP3   OH234410   0.572   6.715   8.797 -0.3651  0.0806  0.3935
 4284TIP3    H134411   0.527   6.637   8.765 -0.1463  0.6738 -1.5421
 4284TIP3    H234412   0.665   6.692   8.793 -0.1610  0.9675 -2.0392
 4285TIP3   OH234413   0.332   4.024   1.438  0.0099 -0.1803 -0.8206
 4285TIP3    H134414   0.423   4.041   1.413  0.4531  0.8872  1.2605
 4285TIP3    H234415   0.330   3.931   1.458  0.3209 -0.4680 -2.0608
 4286TIP3   OH234416   2.140   1.829   1.225 -0.6971  0.2357  0.4222
 4286TIP3    H134417   2.170   1.907   1.177 -0.0288 -0.9853 -1.2332
 4286TIP3    H234418   2.207   1.816   1.292 -1.1762  1.4507  1.1807
 4287TIP3   OH234419   4.084   3.003   1.499 -0.5078 -0.1772 -0.3312
 4287TIP3    H134420   4.080   2.952   1.418 -1.9632  2.2770 -1.9440
 4287TIP3    H234421   4.005   2.977   1.547 -0.5154 -0.4379 -0.4800
 4288TIP3   OH234422   3.947   0.958   0.975  0.1351 -0.1023  0.1642
 4288TIP3    H134423   3.936   0.891   1.042 -0.1653  0.1236  0.3435
 4288TIP3    H234424   3.933   0.912   0.892 -0.1716 -0.2431  0.2916
 4289TIP3   OH234425   4.433   1.838   7.256 -0.1761 -0.6448  0.2529
 4289TIP3    H134426   4.505   1.837   7.193 -0.0401 -1.9251  0.3881
 4289TIP3    H234427   4.354   1.829   7.202 -0.1971  0.1832  0.1425
 4290TIP3   OH234428   2.359   3.677   6.883 -0.0615 -0.7821  0.1405
 4290TIP3    H134429   2.355   3.706   6.974 -0.7842 -1.5688  0.3705
 4290TIP3    H234430   2.293   3.730   6.838 -0.0958 -0.7892  0.1829
 4291TIP3   OH234431   5.315   6.376   0.316 -0.2729 -0.1715 -0.2994
 4291TIP3    H134432   5.304   6.303   0.376 -0.9038  0.3481  0.2183
 4291TIP3    H234433   5.350   6.336   0.236  1.3273 -0.7673  0.6515
 4292TIP3   OH234434   0.837   4.057   0.954 -0.4270 -0.3749 -0.0608
 4292TIP3    H134435   0.922   4.076   0.994  0.0396 -1.9803 -0.1916
 4292TIP3    H234436   0.857   4.043   0.861 -0.8436 -0.6650 -0.1069
 4293TIP3   OH234437   4.228   5.746   0.606  0.6190 -0.3676  0.0926
 4293TIP3    H134438   4.271   5.665   0.635 -0.0890 -0.3881  1.1408
 4293TIP3    H234439   4.292   5.815   0.625  1.5622 -0.7369 -1.5731
 4294TIP3   OH234440   3.878   5.513   7.623  0.1579 -0.9192  0.4065
 4294TIP3    H134441   3.876   5.541   7.532  1.0412 -0.7722  0.4284
 4294TIP3    H234442   3.899   5.419   7.619  3.4417 -0.3119  0.5248
 4295TIP3   OH234443   0.486   5.021   2.968  0.7819  0.3888  0.5070
 4295TIP3    H134444   0.484   4.940   3.018 -0.0743 -0.3431 -0.6687
 4295TIP3    H234445   0.548   5.077   3.015  1.1078 -0.8028  1.5356
 4296TIP3   OH234446   5.953   3.960   0.469  0.0058 -0.1555 -0.0578
 4296TIP3    H134447   5.953   3.882   0.524  2.3422  1.1729  2.0408
 4296TIP3    H234448   5.879   4.012   0.501  0.9773  0.3229  1.5166
 4297TIP3   OH234449   5.157   3.241   7.133  0.2949  0.5854  0.1032
 4297TIP3    H134450   5.157   3.148   7.109 -0.1993  0.0287  2.0550
 4297TIP3    H234451   5.198   3.285   7.059  2.2129 -1.3886 -0.0938
 4298TIP3   OH234452   6.711   0.850   7.381  0.4212 -0.4112  0.1094
 4298TIP3    H134453   6.772   0.851   7.307 -0.5527 -0.5376 -0.7007
 4298TIP3    H234454   6.727   0.766   7.424  2.5974  0.5712  1.4449
 4299TIP3   OH234455   6.581   4.732   1.931 -0.0173 -0.3783 -0.0221
 4299TIP3    H134456   6.589   4.772   2.018  0.2369  0.3428 -0.3676
 4299TIP3    H234457   6.613   4.799   1.871  0.9325 -1.3018 -0.5886
 4300TIP3   OH234458   6.210   2.129   0.620  0.2064  0.3636  0.5543
 4300TIP3    H134459   6.282   2.138   0.682 -0.5777  0.9345  1.4142
 4300TIP3    H234460   6.235   2.057   0.563  1.0444 -0.0304  1.4069
 4301TIP3   OH234461   1.700   1.676   8.298 -0.5267  0.4752 -0.2082
 4301TIP3    H134462   1.750   1.694   8.218  0.2652  1.2096  0.4237
 4301TIP3    H234463   1.716   1.752   8.354  1.2298 -1.1882  1.7623
 4302TIP3   OH234464   1.360   6.599   2.479  0.8558 -0.4548 -0.1876
 4302TIP3    H134465   1.397   6.685   2.500  3.4397 -1.5153  0.0093
 4302TIP3    H234466   1.373   6.547   2.558  0.8033 -1.4597 -0.8142
 4303TIP3   OH234467   4.547   1.460   2.609  0.3155 -0.9846 -0.0747
 4303TIP3    H134468   4.626   1.510   2.630  0.4290 -0.8091 -0.9044
 4303TIP3    H234469   4.484   1.526   2.579  0.1010 -1.2184 -0.1410
 4304TIP3   OH234470   3.542   5.640   1.627 -0.2223  0.9085  0.2180
 4304TIP3    H134471   3.485   5.568   1.652  1.3404 -0.8421 -0.9330
 4304TIP3    H234472   3.581   5.670   1.709 -0.1502 -0.2548  0.6313
 4305TIP3   OH234473   1.932   4.552   0.248 -0.2851  0.0845 -0.1018
 4305TIP3    H134474   1.872   4.554   0.322  1.1818  0.8213  1.1360
 4305TIP3    H234475   1.963   4.642   0.238  0.8194 -0.3083 -0.4934
 4306TIP3   OH234476   1.872   1.107   2.984  0.1384 -0.3898  0.1976
 4306TIP3    H134477   1.931   1.183   2.978 -1.4659  0.9624  0.8828
 4306TIP3    H234478   1.787   1.144   3.007 -1.2995 -2.1633 -1.8842
 4307TIP3   OH234479   0.636   3.474   7.763  0.5403 -0.4419  0.2602
 4307TIP3    H134480   0.577   3.476   7.839 -2.0820 -0.5320 -1.6328
 4307TIP3    H234481   0.695   3.547   7.777  0.2628 -0.5671  2.4716
 4308TIP3   OH234482   2.347   4.431   1.237 -0.0547 -0.1563  0.5073
 4308TIP3    H134483   2.419   4.436   1.301  0.5532  1.0472 -0.2172
 4308TIP3    H234484   2.347   4.517   1.195  1.9245 -1.9062 -3.6519
 4309TIP3   OH234485   2.813   5.698   0.652  0.0965 -0.3711 -0.3999
 4309TIP3    H134486   2.772   5.784   0.652 -0.0726 -0.4400  0.7532
 4309TIP3    H234487   2.900   5.713   0.689  0.6436 -0.4472 -1.6141
 4310TIP3   OH234488   2.965   2.041   1.255 -0.1053 -0.2202  0.2085
 4310TIP3    H134489   2.968   2.129   1.216 -0.1302 -0.2556  0.1265
 4310TIP3    H234490   3.051   2.029   1.293 -0.6645  0.5584  1.7985
 4311TIP3   OH234491   5.358   1.708   1.194  0.1177 -0.2053  0.2840
 4311TIP3    H134492   5.386   1.723   1.284  1.3028 -0.3691 -0.0371
 4311TIP3    H234493   5.266   1.683   1.201  0.5424 -1.5506  1.5738
 4312TIP3   OH234494   4.950   4.838   8.851 -0.8727 -0.2846 -1.3970
 4312TIP3    H134495   4.953   4.871   8.761 -1.0354 -0.5426 -1.4974
 4312TIP3    H234496   4.857   4.822   8.868 -0.8850  0.1234 -1.0492
 4313TIP3   OH234497   4.972   3.583   0.320  0.4543 -0.2129  0.3789
 4313TIP3    H134498   4.898   3.583   0.260 -0.2443  1.3557  1.1733
 4313TIP3    H234499   4.935   3.553   0.403  0.8748 -0.1518  0.5917
 4314TIP3   OH234500   4.103   1.629   6.823  0.5835  1.1146  0.3869
 4314TIP3    H134501   4.142   1.562   6.879  0.4561  0.9552  0.2856
 4314TIP3    H234502   4.177   1.678   6.789  0.5898  2.5627  2.3413
 4315TIP3   OH234503   0.406   3.343   7.196 -0.0467  0.4214 -0.0907
 4315TIP3    H134504   0.434   3.265   7.149  2.4960  1.3117 -0.1794
 4315TIP3    H234505   0.353   3.310   7.268  1.7254 -1.4787  0.4149
 4316TIP3   OH234506   4.522   3.426   0.197  0.3888 -0.1893  0.3156
 4316TIP3    H134507   4.502   3.339   0.161 -1.2941 -0.1141  0.9998
 4316TIP3    H234508   4.490   3.423   0.287  0.0541  1.2272  0.2632
 4317TIP3   OH234509   3.272   0.835   1.294  0.1209  0.3330  0.0344
 4317TIP3    H134510   3.222   0.909   1.260 -2.2000 -0.3427  1.6973
 4317TIP3    H234511   3.266   0.843   1.389  1.5852 -0.8585  0.2619
 4318TIP3   OH234512   3.026   5.513   8.834 -0.0822 -0.0858  0.2844
 4318TIP3    H134513   2.951   5.502   8.893  0.6870 -2.3759  0.9335
 4318TIP3    H234514   2.992   5.491   8.748 -0.3822 -0.1238  0.4080
 4319TIP3   OH234515   2.220   5.678   8.588 -0.1892  0.1892 -0.1203
 4319TIP3    H134516   2.203   5.585   8.574 -2.4655  0.8206 -2.3084
 4319TIP3    H234517   2.265   5.707   8.508  1.8627  0.7160  1.1720
 4320TIP3   OH234518   2.534   5.352   2.715 -0.5133  0.2562  0.4012
 4320TIP3    H134519   2.446   5.380   2.740 -0.8170  2.2311 -2.3536
 4320TIP3    H234520   2.534   5.356   2.619  1.7297 -2.5430  0.1413
 4321TIP3   OH234521   5.614   1.008   8.182 -0.4112  0.3587  0.6384
 4321TIP3    H134522   5.679   0.940   8.163 -0.5383 -0.1356  1.8791
 4321TIP3    H234523   5.532   0.961   8.195 -0.9246  0.9361 -0.3577
 4322TIP3   OH234524   3.948   2.803   8.789  0.1064  0.4026 -0.2314
 4322TIP3    H134525   3.870   2.827   8.739 -0.5458 -0.4242  0.3462
 4322TIP3    H234526   3.925   2.719   8.829  1.4047  0.0153 -0.2672
 4323TIP3   OH234527   5.218   4.855   8.493  0.0996  0.1255  0.2024
 4323TIP3    H134528   5.225   4.761   8.506  0.0344 -0.0491 -0.8991
 4323TIP3    H234529   5.161   4.864   8.417  2.5303  0.9081 -1.6686
 4324TIP3   OH234530   5.793   5.045   2.502 -0.1567 -0.1946 -0.0827
 4324TIP3    H134531   5.822   5.095   2.578 -2.5774  0.4967  0.4490
 4324TIP3    H234532   5.847   4.966   2.503  0.3725  0.1510  1.9170
 4325TIP3   OH234533   3.950   6.707   7.939 -0.1965  0.1249 -0.1662
 4325TIP3    H134534   4.001   6.716   7.858 -1.2080  0.2979 -0.8052
 4325TIP3    H234535   3.989   6.769   8.000  0.9800 -0.4544 -0.2997
 4326TIP3   OH234536   2.792   2.465   7.407  0.0326  0.5456  0.0001
 4326TIP3    H134537   2.794   2.398   7.475  0.9012 -0.2533 -0.7749
 4326TIP3    H234538   2.761   2.418   7.329  0.6913  1.0195 -0.5584
 4327TIP3   OH234539   3.006   5.665   8.052  0.4251  0.8369  0.1877
 4327TIP3    H134540   3.082   5.708   8.092 -0.4533  1.0593  1.7010
 4327TIP3    H234541   2.962   5.735   8.004 -0.2109  1.3264  1.4481
 4328TIP3   OH234542   0.668   2.941   6.995 -0.1399 -0.3144 -0.0486
 4328TIP3    H134543   0.760   2.928   7.016 -0.6059 -0.4927  2.1303
 4328TIP3    H234544   0.635   2.854   6.974  0.0157 -0.3608 -0.1005
 4329TIP3   OH234545   3.726   4.469   3.024  0.3369 -0.5968 -0.0313
 4329TIP3    H134546   3.649   4.503   2.980 -0.3791 -1.1286  0.7914
 4329TIP3    H234547   3.757   4.398   2.968 -0.0960 -0.7408 -0.0880
 4330TIP3   OH234548   3.936   5.613   0.271 -0.7551  0.2852 -0.0572
 4330TIP3    H134549   3.905   5.642   0.357  1.0790  4.5509 -0.5926
 4330TIP3    H234550   4.022   5.576   0.288 -0.4905  0.9113 -0.0274
 4331TIP3   OH234551   5.425   6.675   3.074  0.3009  0.3427  0.2693
 4331TIP3    H134552   5.348   6.729   3.056 -1.9658 -1.6000  3.1033
 4331TIP3    H234553   5.414   6.597   3.020 -0.1899 -0.2665  1.2153
 4332TIP3   OH234554   0.897   5.216   0.849 -0.3322 -0.4459 -0.2175
 4332TIP3    H134555   0.948   5.138   0.870  1.0146  0.5229  0.2232
 4332TIP3    H234556   0.952   5.264   0.787 -0.4247  0.8942  0.6965
 4333TIP3   OH234557   1.031   4.498   7.242 -0.1551  0.2621  0.1796
 4333TIP3    H134558   1.091   4.457   7.304 -0.9728 -0.5110  0.4833
 4333TIP3    H234559   1.029   4.438   7.167  0.3505  0.8816 -0.3452
 4334TIP3   OH234560   0.702   3.618   1.540  0.7001  0.0216  0.1337
 4334TIP3    H134561   0.780   3.572   1.572  0.6075 -0.4180 -0.2698
 4334TIP3    H234562   0.646   3.626   1.618  0.6491 -0.6872  0.1758
 4335TIP3   OH234563   4.861   0.109   1.255 -0.2116 -0.0638  0.1415
 4335TIP3    H134564   4.823   0.196   1.240  1.0608  0.5777  0.5122
 4335TIP3    H234565   4.920   0.121   1.330 -0.7452 -1.4822  0.8404
 4336TIP3   OH234566   0.381   1.433   2.853  0.3125 -0.0989  0.1117
 4336TIP3    H134567   0.312   1.498   2.864  0.6413  0.7082 -2.0088
 4336TIP3    H234568   0.383   1.386   2.936 -2.6294 -0.0252  0.3374
 4337TIP3   OH234569   2.762   2.241   0.953 -0.4643 -0.2392  0.0782
 4337TIP3    H134570   2.836   2.282   0.909 -0.9962 -0.5058 -1.0825
 4337TIP3    H234571   2.765   2.149   0.927 -0.6233 -0.4686  0.8350
 4338TIP3   OH234572   0.471   1.420   8.119 -0.7821  0.3163 -0.0042
 4338TIP3    H134573   0.494   1.461   8.203 -0.0561 -1.0791  0.5017
 4338TIP3    H234574   0.383   1.384   8.134 -1.2475  1.2751 -0.3194
 4339TIP3   OH234575   1.251   2.541   2.321 -0.0673 -0.5908  0.0126
 4339TIP3    H134576   1.240   2.574   2.410  0.1014  3.5218 -1.2451
 4339TIP3    H234577   1.169   2.495   2.302 -0.5974 -0.5084  1.9144
 4340TIP3   OH234578   6.039   6.191   1.669 -0.0772 -0.0840  1.0747
 4340TIP3    H134579   6.104   6.174   1.601 -1.3744  0.3025 -0.3242
 4340TIP3    H234580   6.001   6.105   1.688 -1.3408  0.0796 -0.4616
 4341TIP3   OH234581   2.155   6.374   0.249 -0.0259  0.8919  0.5529
 4341TIP3    H134582   2.114   6.292   0.276 -0.5285  1.0278  0.1942
 4341TIP3    H234583   2.136   6.434   0.321  1.5034  0.3472  1.4811
 4342TIP3   OH234584   6.470   3.291   1.100 -0.5088 -0.1754 -0.0845
 4342TIP3    H134585   6.387   3.333   1.121 -1.8085 -2.0726 -1.2065
 4342TIP3    H234586   6.503   3.260   1.185  1.2811  4.1678  1.0757
 4343TIP3   OH234587   3.114   2.530   0.907  0.1672 -0.3010 -1.0497
 4343TIP3    H134588   3.154   2.595   0.965 -0.6192  0.1821 -1.0306
 4343TIP3    H234589   3.033   2.505   0.951  0.5463 -1.4339 -0.9821
 4344TIP3   OH234590   1.316   3.768   7.686  0.4019  0.2248  0.0291
 4344TIP3    H134591   1.234   3.796   7.645  0.2693 -0.5998 -0.2920
 4344TIP3    H234592   1.333   3.834   7.752 -1.2290 -0.2796  1.0167
 4345TIP3   OH234593   2.821   3.844   0.471  0.4923 -0.0251 -0.7490
 4345TIP3    H134594   2.856   3.860   0.383  0.2286  1.1846 -0.6576
 4345TIP3    H234595   2.770   3.763   0.463  0.3034  0.1792 -1.7631
 4346TIP3   OH234596   0.360   2.526   6.926  0.3769 -0.3607 -0.2185
 4346TIP3    H134597   0.378   2.620   6.920  0.1715 -0.3110 -0.0679
 4346TIP3    H234598   0.421   2.495   6.993 -2.3768  0.4397  2.9537
 4347TIP3   OH234599   6.351   6.051   1.014  0.2918  0.4106  0.0640
 4347TIP3    H134600   6.265   6.023   0.983  0.4152 -0.3445  0.3797
 4347TIP3    H234601   6.413   6.012   0.953  0.3783  1.9568 -0.8920
 4348TIP3   OH234602   0.103   6.093   2.009 -0.3990 -0.2243 -0.1651
 4348TIP3    H134603   0.102   6.002   1.979 -0.1758 -0.9593  1.9212
 4348TIP3    H234604   0.042   6.094   2.083  2.0384  0.5170  1.9521
 4349TIP3   OH234605   2.197   3.537   2.646  0.6549 -0.3589  0.4017
 4349TIP3    H134606   2.220   3.630   2.644  1.5690 -0.5484  1.1278
 4349TIP3    H234607   2.145   3.527   2.726  0.5371 -0.4680  0.3118
 4350TIP3   OH234608   1.281   5.953   2.103 -0.6018  0.7446  0.2841
 4350TIP3    H134609   1.263   5.892   2.175 -0.3808  0.9619  0.5225
 4350TIP3    H234610   1.367   5.990   2.123  0.1384 -0.2676 -0.8242
 4351TIP3   OH234611   3.752   4.646   7.789  0.4574  0.3771  0.3047
 4351TIP3    H134612   3.828   4.587   7.790 -1.8917 -2.9524 -0.4179
 4351TIP3    H234613   3.770   4.707   7.718  1.5908 -1.7120 -1.3086
 4352TIP3   OH234614   0.623   3.326   1.332 -0.2446  0.0790  0.2699
 4352TIP3    H134615   0.712   3.350   1.355 -0.0647 -0.3142  0.0034
 4352TIP3    H234616   0.569   3.400   1.361  0.2006  0.4454  0.1676
 4353TIP3   OH234617   5.560   5.172   0.056  0.0018  0.1404  0.7384
 4353TIP3    H134618   5.626   5.115   0.018 -2.0970 -1.1876 -1.2075
 4353TIP3    H234619   5.519   5.120   0.126 -1.7185 -0.7504 -0.8443
 4354TIP3   OH234620   1.584   2.489   6.957 -0.2006 -0.4816  0.1111
 4354TIP3    H134621   1.602   2.582   6.945  0.5387 -0.6452 -0.0905
 4354TIP3    H234622   1.489   2.483   6.960 -0.2394  0.5351  2.2034
 4355TIP3   OH234623   3.078   0.297   2.013  0.0413  0.5179  0.1147
 4355TIP3    H134624   3.046   0.386   2.001  2.2235  1.6577  1.9255
 4355TIP3    H234625   3.028   0.264   2.088  1.5569  1.5918  1.7003
 4356TIP3   OH234626   0.180   3.044   8.373 -0.4635 -0.2059  0.0647
 4356TIP3    H134627   0.121   3.024   8.446  0.6077 -0.2876  0.9323
 4356TIP3    H234628   0.123   3.082   8.306 -1.3880  0.4977  1.2017
 4357TIP3   OH234629   4.821   4.918   1.963 -0.7664  0.0607 -0.0680
 4357TIP3    H134630   4.764   4.843   1.945  1.2444 -2.4803  3.1145
 4357TIP3    H234631   4.873   4.928   1.883 -1.0776 -2.0270 -0.5899
 4358TIP3   OH234632   6.479   6.354   0.016 -0.1219 -0.3565  0.1212
 4358TIP3    H134633   6.528   6.273   0.032  2.6105  1.1256 -0.0359
 4358TIP3    H234634   6.547   6.421   0.004 -2.2444  1.9588  0.1385
 4359TIP3   OH234635   1.033   2.818   7.531 -0.4801  0.0948  0.0143
 4359TIP3    H134636   1.111   2.763   7.527 -0.7193 -0.2064 -0.7147
 4359TIP3    H234637   1.036   2.868   7.449 -1.6680 -0.7754 -0.5793
 4360TIP3   OH234638   2.321   2.078   1.485 -0.1174 -0.0243 -0.6776
 4360TIP3    H134639   2.384   2.124   1.540 -0.0481 -1.6559  0.6901
 4360TIP3    H234640   2.235   2.098   1.523 -0.0702 -1.1539  0.0604
 4361TIP3   OH234641   3.533   4.330   0.997 -0.3178  0.0170 -0.3758
 4361TIP3    H134642   3.485   4.410   1.017 -0.7936 -1.0065  3.6198
 4361TIP3    H234643   3.464   4.264   0.983  0.0201 -0.2458 -0.8158
 4362TIP3   OH234644   3.719   0.114   0.308  0.1059 -0.1274 -0.1040
 4362TIP3    H134645   3.686   0.198   0.278  1.0795  1.0701  1.8975
 4362TIP3    H234646   3.771   0.136   0.386 -0.4140 -2.6924  1.0610
 4363TIP3   OH234647   0.205   1.106   0.531 -1.0267 -0.5122  0.6620
 4363TIP3    H134648   0.195   1.199   0.555 -2.1887 -1.1511  2.9744
 4363TIP3    H234649   0.245   1.066   0.609 -0.7859 -2.0040 -0.1985
 4364TIP3   OH234650   0.941   5.767   1.045 -0.3856  0.3709 -0.0488
 4364TIP3    H134651   0.969   5.708   0.975 -2.0801 -1.3592  0.6572
 4364TIP3    H234652   1.023   5.802   1.080  0.5701 -0.0242 -1.7802
 4365TIP3   OH234653   1.652   1.253   2.995  0.6899 -0.0212 -0.4764
 4365TIP3    H134654   1.588   1.197   2.951  0.7019  0.5737 -1.2757
 4365TIP3    H234655   1.606   1.337   3.005  1.0006  0.1121 -0.1530
 4366TIP3   OH234656   1.143   6.530   0.089  0.1451 -0.4004 -0.1869
 4366TIP3    H134657   1.225   6.534   0.139 -0.3041  2.4547  0.4749
 4366TIP3    H234658   1.107   6.618   0.095 -2.5075 -1.3211 -1.3127
 4367TIP3   OH234659   5.065   0.704   8.752  0.4670  0.0879 -0.1832
 4367TIP3    H134660   5.001   0.695   8.823  2.1677 -0.1788  1.3836
 4367TIP3    H234661   5.069   0.617   8.712 -1.6413  0.6123 -1.7184
 4368TIP3   OH234662   1.704   4.077   1.064  0.0385  0.0209 -0.3146
 4368TIP3    H134663   1.726   4.047   0.976 -0.2500 -1.5164  0.0922
 4368TIP3    H234664   1.748   4.015   1.122  0.2247  1.0114  0.6342
 4369TIP3   OH234665   5.022   6.141   1.472  0.4760 -0.3762 -0.2266
 4369TIP3    H134666   4.992   6.176   1.388  0.1458  1.3725  0.5741
 4369TIP3    H234667   4.981   6.055   1.477  0.9909 -0.7932 -2.1039
 4370TIP3   OH234668   6.299   1.083   1.161  0.0347  0.2278 -0.6293
 4370TIP3    H134669   6.294   1.174   1.130 -0.6970  1.1805  2.0509
 4370TIP3    H234670   6.393   1.063   1.161  0.3917  1.7057  0.5857
 4371TIP3   OH234671   0.452   5.748   0.184  0.0581 -0.1077  0.6162
 4371TIP3    H134672   0.458   5.817   0.250 -0.6633 -0.3156  0.9177
 4371TIP3    H234673   0.377   5.774   0.130  0.7802  0.1789 -0.2731
 4372TIP3   OH234674   2.196   5.309   0.811 -0.8188 -0.2973  0.8428
 4372TIP3    H134675   2.274   5.302   0.867 -0.6666 -2.0632  0.4736
 4372TIP3    H234676   2.135   5.243   0.846 -1.7367  0.3509  0.4945
 4373TIP3   OH234677   6.473   4.280   0.982  0.0930 -0.3351  0.2938
 4373TIP3    H134678   6.541   4.338   0.947 -0.9775  0.9036  0.1898
 4373TIP3    H234679   6.519   4.199   1.001  1.3049 -0.0596 -1.2115
 4374TIP3   OH234680   1.590   5.656   2.281 -0.3098  0.1824 -0.2305
 4374TIP3    H134681   1.503   5.649   2.243 -0.4779  0.7429  0.0513
 4374TIP3    H234682   1.630   5.570   2.264 -0.0116  0.7182 -2.5853
 4375TIP3   OH234683   5.488   0.760   2.771  0.2436 -0.0989 -0.4236
 4375TIP3    H134684   5.430   0.787   2.699 -0.6360  0.2867  0.4140
 4375TIP3    H234685   5.562   0.821   2.765  0.5380 -0.5353 -1.4444
 4376TIP3   OH234686   4.564   1.118   7.370 -0.2772  0.3420 -0.3006
 4376TIP3    H134687   4.621   1.189   7.398  0.0826 -0.5798  1.4477
 4376TIP3    H234688   4.574   1.116   7.274  2.4032  0.4330 -0.1201
 4377TIP3   OH234689   1.380   4.099   0.965 -0.0874 -0.2953 -0.0187
 4377TIP3    H134690   1.317   4.092   0.893  2.2322  0.0690 -2.2389
 4377TIP3    H234691   1.433   4.176   0.943  0.2965  0.2249  2.4833
 4378TIP3   OH234692   3.730   3.978   7.610  0.2264  0.8579 -0.4000
 4378TIP3    H134693   3.642   3.953   7.638  0.1472  1.4903 -0.0696
 4378TIP3    H234694   3.729   4.074   7.609  0.8555  0.8696 -0.5701
 4379TIP3   OH234695   3.317   5.580   1.230 -0.2964 -0.1502  0.1199
 4379TIP3    H134696   3.271   5.517   1.175 -0.6512  0.5012 -0.3422
 4379TIP3    H234697   3.401   5.594   1.186 -0.7568  0.7040 -0.5119
 4380TIP3   OH234698   3.156   5.147   0.752  1.0127  0.3195 -0.0511
 4380TIP3    H134699   3.126   5.155   0.843  1.3977  2.5019 -0.0601
 4380TIP3    H234700   3.114   5.219   0.706 -0.3038 -1.5634 -2.0069
 4381TIP3   OH234701   2.431   1.487   8.727  0.1953 -0.4702 -0.1657
 4381TIP3    H134702   2.495   1.453   8.790 -0.4192 -1.4614 -0.0522
 4381TIP3    H234703   2.451   1.441   8.646 -1.6346 -2.4105  0.3739
 4382TIP3   OH234704   5.082   1.886   6.740  0.3096 -0.3065  0.8336
 4382TIP3    H134705   5.112   1.952   6.802  3.6062  1.6762 -2.4168
 4382TIP3    H234706   5.144   1.813   6.751 -0.5521 -0.9671  1.4024
 4383TIP3   OH234707   2.645   2.173   0.176  0.6795 -0.3579  0.1555
 4383TIP3    H134708   2.633   2.128   0.259 -0.2221 -0.2859  0.0742
 4383TIP3    H234709   2.646   2.266   0.199  1.9774 -0.3697  0.2546
 4384TIP3   OH234710   4.829   0.164   0.717  0.9882 -0.1262  0.2474
 4384TIP3    H134711   4.878   0.132   0.792  0.2170  0.5091  1.0455
 4384TIP3    H234712   4.760   0.219   0.755  2.1502  2.3534 -1.0226
 4385TIP3   OH234713   5.149   3.968   7.536 -0.3284  0.1178  0.5938
 4385TIP3    H134714   5.130   3.881   7.500 -2.5593  0.3848  0.9750
 4385TIP3    H234715   5.234   3.991   7.499  0.2897 -2.1775  0.4226
 4386TIP3   OH234716   0.789   5.292   2.619  0.3209  0.1282 -0.5082
 4386TIP3    H134717   0.722   5.244   2.570  1.0403  0.7462 -2.1663
 4386TIP3    H234718   0.871   5.270   2.576  1.5140 -1.8608  2.4333
 4387TIP3   OH234719   2.748   0.629   7.000 -0.4975 -0.2210  0.1896
 4387TIP3    H134720   2.804   0.615   6.924  0.7790 -1.1386  1.2623
 4387TIP3    H234721   2.737   0.724   7.004 -2.6410 -0.2263 -2.5203
 4388TIP3   OH234722   5.882   6.356   0.351  0.6472  0.1706  0.2961
 4388TIP3    H134723   5.942   6.425   0.324  2.1097 -1.3566 -0.5735
 4388TIP3    H234724   5.901   6.284   0.291 -0.5310 -1.1271  1.4236
 4389TIP3   OH234725   1.212   0.021   8.589 -0.1297  0.2140  0.1209
 4389TIP3    H134726   1.253   0.065   8.664 -3.4287  1.8520  1.1439
 4389TIP3    H234727   1.190  -0.067   8.621 -0.4261  0.4913  0.6926
 4390TIP3   OH234728   2.912   2.510   6.508  0.0955  0.5757 -0.4668
 4390TIP3    H134729   2.895   2.419   6.487 -1.7981  0.6913  0.4221
 4390TIP3    H234730   3.007   2.520   6.496  0.8846 -2.2507  2.2217
 4391TIP3   OH234731   6.083   6.196   7.844  0.1022 -0.5382  0.3394
 4391TIP3    H134732   6.167   6.244   7.849  0.9120 -1.8996  0.2652
 4391TIP3    H234733   6.098   6.128   7.779 -2.4302  1.7032 -2.9007
 4392TIP3   OH234734   0.661   3.217   0.281  0.2652  0.0013 -0.5394
 4392TIP3    H134735   0.571   3.202   0.252  0.2431 -0.3685 -0.2922
 4392TIP3    H234736   0.683   3.304   0.249 -0.9984  1.1004  1.3964
 4393TIP3   OH234737   3.465   4.034   1.678  0.1924  0.0071  1.7446
 4393TIP3    H134738   3.533   4.033   1.610  0.5024 -0.5219  2.0511
 4393TIP3    H234739   3.452   4.126   1.698  0.4926  0.1373  1.3562
 4394TIP3   OH234740   2.854   0.246   8.432  0.0214 -0.2497 -0.5035
 4394TIP3    H134741   2.829   0.234   8.340 -0.9331 -0.8698 -0.1775
 4394TIP3    H234742   2.862   0.341   8.442 -3.6002  0.1847 -0.3339
 4395TIP3   OH234743   0.523   2.288   1.589  0.3014 -0.0073 -0.3253
 4395TIP3    H134744   0.548   2.372   1.627 -0.5823  0.4892 -0.8275
 4395TIP3    H234745   0.446   2.261   1.639  0.0160 -0.0600 -0.7881
 4396TIP3   OH234746   0.686   5.194   1.699  0.3576 -0.0396 -0.0335
 4396TIP3    H134747   0.755   5.228   1.757 -0.1163 -1.0305  1.1730
 4396TIP3    H234748   0.693   5.246   1.619  1.6686  0.7343  0.5554
 4397TIP3   OH234749   6.175   4.416   8.173  0.1793 -0.1032  0.2210
 4397TIP3    H134750   6.155   4.457   8.257 -0.0969 -1.2677  0.7464
 4397TIP3    H234751   6.138   4.475   8.107 -1.2240 -0.0699  1.0022
 4398TIP3   OH234752   3.667   6.068   1.007  0.3798  0.4054  0.0883
 4398TIP3    H134753   3.665   5.976   0.981 -0.4794  0.7157 -1.0069
 4398TIP3    H234754   3.751   6.078   1.052  0.7019 -0.8015 -0.2063
 4399TIP3   OH234755   2.203   1.074   7.713 -0.3972 -0.2848  0.3287
 4399TIP3    H134756   2.287   1.058   7.669 -1.0674 -2.5059 -0.2232
 4399TIP3    H234757   2.141   1.089   7.643 -0.4300  2.0164  0.7510
 4400TIP3   OH234758   0.356   1.700   0.724  0.2963  0.0399 -1.0104
 4400TIP3    H134759   0.405   1.771   0.766  0.1652 -0.3420 -0.1864
 4400TIP3    H234760   0.341   1.637   0.794  1.8112 -1.5869 -2.0438
 4401TIP3   OH234761   1.480   2.418   7.636 -0.2952  0.6740  0.3071
 4401TIP3    H134762   1.473   2.348   7.701 -0.0098  0.6246  0.2873
 4401TIP3    H234763   1.460   2.376   7.553 -0.0543  0.5983  0.2860
 4402TIP3   OH234764   3.756   3.843   1.849  0.0562 -0.1172 -0.0700
 4402TIP3    H134765   3.812   3.773   1.882  1.5885  1.1322  0.1127
 4402TIP3    H234766   3.746   3.903   1.923 -1.8001 -0.4417 -0.0134
 4403TIP3   OH234767   2.473   4.646   0.387 -0.7080  0.2424 -0.0323
 4403TIP3    H134768   2.481   4.741   0.378 -0.5371  0.3327  0.9696
 4403TIP3    H234769   2.393   4.624   0.340 -1.0901  0.9703  0.2653
 4404TIP3   OH234770   0.627   1.919   2.367  0.8632  0.6197 -0.0792
 4404TIP3    H134771   0.581   1.961   2.440 -2.0402 -0.2294 -1.2544
 4404TIP3    H234772   0.621   1.825   2.386 -1.4473  0.2528 -2.0545
 4405TIP3   OH234773   2.280   4.501   7.334  0.4726  0.3342  0.0031
 4405TIP3    H134774   2.190   4.518   7.307  0.7743  0.0148 -1.2775
 4405TIP3    H234775   2.280   4.410   7.363  1.2111 -1.2949 -4.2869
 4406TIP3   OH234776   2.703   1.818   0.494 -0.4721  0.4362  0.4399
 4406TIP3    H134777   2.655   1.901   0.500 -2.0663 -0.3755 -0.5027
 4406TIP3    H234778   2.637   1.751   0.513  0.4706 -0.6812 -0.1543
 4407TIP3   OH234779   5.566   2.259   7.566 -0.5006 -0.2567 -0.2569
 4407TIP3    H134780   5.578   2.189   7.630  0.0921 -0.3892 -0.5112
 4407TIP3    H234781   5.583   2.218   7.482 -1.5545 -0.1495 -0.5400
 4408TIP3   OH234782   2.551   2.025   0.419 -0.0032 -0.7661 -0.5311
 4408TIP3    H134783   2.515   2.082   0.487 -0.5518 -0.9501 -0.6677
 4408TIP3    H234784   2.476   1.980   0.382  0.3093 -0.7919 -1.1531
 4409TIP3   OH234785   4.398   0.952   8.936  0.1584 -0.2667 -0.3148
 4409TIP3    H134786   4.438   0.886   8.993 -0.8647 -2.7002 -2.2247
 4409TIP3    H234787   4.314   0.972   8.977  1.0897  1.0568  1.0510
 4410TIP3   OH234788   2.885   2.254   8.825 -0.0756  0.0093 -0.2995
 4410TIP3    H134789   2.947   2.307   8.875 -0.4300 -1.3951  1.7736
 4410TIP3    H234790   2.801   2.268   8.868 -0.9116  0.6614 -2.0911
 4411TIP3   OH234791   5.622   6.578   1.871 -0.5668  0.7460 -0.0409
 4411TIP3    H134792   5.644   6.491   1.904  0.6188  0.6851 -0.9253
 4411TIP3    H234793   5.529   6.572   1.847  0.0226 -1.0402 -2.2732
 4412TIP3   OH234794   0.657   3.426   0.618  1.0319  0.3723 -0.2262
 4412TIP3    H134795   0.573   3.465   0.643  1.1962  0.2102  0.6059
 4412TIP3    H234796   0.688   3.480   0.546 -0.9910 -1.0710 -2.3534
 4413TIP3   OH234797   4.507   6.645   2.482 -0.2274  0.4879  0.6690
 4413TIP3    H134798   4.475   6.560   2.512  0.9566  0.2587  1.3415
 4413TIP3    H234799   4.490   6.705   2.555  0.9076  0.3446  1.0716
 4414TIP3   OH234800   2.470   6.412   1.381  0.0139  0.4287 -0.2109
 4414TIP3    H134801   2.551   6.448   1.418  0.0147  2.4878 -2.0473
 4414TIP3    H234802   2.499   6.355   1.310 -0.1286 -0.6254  0.5394
 4415TIP3   OH234803   1.481   3.258   7.917  0.1386  0.1739 -0.5095
 4415TIP3    H134804   1.528   3.279   7.836 -2.5239  0.4430 -2.1036
 4415TIP3    H234805   1.389   3.265   7.893 -0.7535 -0.4334  2.4118
 4416TIP3   OH234806   6.706   3.057   2.582  0.2566  0.3509  0.2029
 4416TIP3    H134807   6.775   3.004   2.620  0.0545 -0.2330 -0.2449
 4416TIP3    H234808   6.626   3.025   2.623 -0.0524 -0.7604 -1.1918
 4417TIP3   OH234809   4.108   0.001   0.454  0.1676 -0.3907 -0.0330
 4417TIP3    H134810   4.132  -0.072   0.397  1.3790 -0.0031 -0.0483
 4417TIP3    H234811   4.192   0.039   0.481 -0.3798 -0.4100  1.8204
 4418TIP3   OH234812   0.760   3.579   2.575 -0.3400 -0.8792  0.0957
 4418TIP3    H134813   0.797   3.552   2.659 -0.5813  1.4730  1.0342
 4418TIP3    H234814   0.665   3.575   2.588 -0.4272  1.7362  0.8288
 4419TIP3   OH234815   4.550   5.557   7.755  0.5646  0.7600  0.3068
 4419TIP3    H134816   4.505   5.490   7.806  1.3547  0.5929  0.8084
 4419TIP3    H234817   4.521   5.640   7.795  0.9088  0.6429  0.8178
 4420TIP3   OH234818   5.232   1.246   6.813 -0.0159  0.6902  0.4047
 4420TIP3    H134819   5.198   1.173   6.864  0.3410  0.2881  0.0871
 4420TIP3    H234820   5.313   1.272   6.858 -0.6624  1.5645  1.0914
 4421TIP3   OH234821   6.590   5.689   7.919 -0.5711  0.1286  0.4833
 4421TIP3    H134822   6.535   5.741   7.861  0.2888  0.6388  0.1014
 4421TIP3    H234823   6.596   5.742   7.999  1.1712  1.1866 -0.2837
 4422TIP3   OH234824   5.949   0.096   8.095  0.1775  0.2980  0.0723
 4422TIP3    H134825   5.857   0.101   8.120  0.2418  1.8313  0.0955
 4422TIP3    H234826   5.973   0.005   8.111 -0.9410  0.2097  1.4939
 4423TIP3   OH234827   4.938   5.297   0.455 -0.1425 -0.1258  0.3234
 4423TIP3    H134828   4.998   5.240   0.408  0.8260  0.1460  1.1959
 4423TIP3    H234829   4.946   5.270   0.547 -2.0888 -0.7461  0.3586
 4424TIP3   OH234830   6.155   3.079   6.734 -0.1577 -0.3395  1.0322
 4424TIP3    H134831   6.197   3.159   6.765  1.8151 -0.7873 -0.2860
 4424TIP3    H234832   6.082   3.065   6.795 -0.4863  2.3430  1.3884
 4425TIP3   OH234833   5.201   0.287   0.624  0.3980 -0.0417 -0.2307
 4425TIP3    H134834   5.287   0.322   0.647 -0.0543  0.4483  0.8226
 4425TIP3    H234835   5.209   0.192   0.634  1.2940 -0.1674 -1.8814
 4426TIP3   OH234836   4.566   4.146   1.175  0.6658 -0.1269 -0.0637
 4426TIP3    H134837   4.561   4.138   1.080 -0.3610 -0.6885  0.0181
 4426TIP3    H234838   4.633   4.082   1.200 -0.2896 -1.2682 -0.2892
 4427TIP3   OH234839   2.341   1.611   7.240 -0.2987 -0.1654 -0.0364
 4427TIP3    H134840   2.288   1.647   7.311 -0.8604  3.4648 -2.0499
 4427TIP3    H234841   2.278   1.574   7.179 -0.4559  1.8439 -1.2023
 4428TIP3   OH234842   1.415   5.038   8.879  0.4230  0.2379  0.0224
 4428TIP3    H134843   1.377   5.077   8.800 -2.5403  0.4680  1.4036
 4428TIP3    H234844   1.471   5.107   8.915 -1.0542  1.5257 -0.0334
 4429TIP3   OH234845   4.947   3.177   1.309  0.1813 -0.0090 -0.7038
 4429TIP3    H134846   4.855   3.166   1.286 -0.2712 -0.8131  1.2741
 4429TIP3    H234847   4.985   3.090   1.295  0.2890 -0.0535 -0.1626
 4430TIP3   OH234848   6.475   1.653   0.493 -0.3235  0.4329  0.1424
 4430TIP3    H134849   6.516   1.567   0.507 -0.5377  0.2466 -0.3491
 4430TIP3    H234850   6.524   1.712   0.549 -2.5664 -0.6241  3.5051
 4431TIP3   OH234851   5.515   2.855   8.697  0.0887  0.4389 -0.0718
 4431TIP3    H134852   5.550   2.784   8.643  0.0572  0.8698 -0.6664
 4431TIP3    H234853   5.524   2.933   8.643 -1.5696  0.6129 -0.1757
 4432TIP3   OH234854   4.636   4.773   7.878 -0.1128  0.1542  0.3882
 4432TIP3    H134855   4.698   4.799   7.946 -0.9654  1.0786  0.8351
 4432TIP3    H234856   4.690   4.730   7.811  0.7476 -0.7676  1.6222
 4433TIP3   OH234857   6.718   3.198   0.299  0.1376 -0.3650  0.2118
 4433TIP3    H134858   6.647   3.161   0.350 -0.1367  2.2446  1.8836
 4433TIP3    H234859   6.798   3.171   0.345  0.0323 -0.2799  0.4438
 4434TIP3   OH234860   5.249   0.172   2.135  0.1274 -0.5291 -0.3826
 4434TIP3    H134861   5.178   0.199   2.193 -0.1450 -0.0335 -0.9379
 4434TIP3    H234862   5.283   0.091   2.174  0.2799  0.0526  0.7472
 4435TIP3   OH234863   0.046   4.565   0.192  0.0143  0.5611 -0.0648
 4435TIP3    H134864  -0.033   4.542   0.143  0.5020  0.8519 -1.0024
 4435TIP3    H234865   0.014   4.585   0.280 -0.7542 -0.9764  0.0362
 4436TIP3   OH234866   3.064   0.965   0.551  0.3296 -0.1444 -0.2608
 4436TIP3    H134867   3.106   1.046   0.580  0.2750 -0.7761  1.7694
 4436TIP3    H234868   2.970   0.985   0.551  0.3399 -0.0974 -0.1340
 4437TIP3   OH234869   4.076   2.284   0.838 -0.3916  0.3651  0.0767
 4437TIP3    H134870   4.135   2.290   0.763  0.6816 -0.0142  0.8633
 4437TIP3    H234871   4.103   2.205   0.884 -2.8541 -0.9569 -0.6070
 4438TIP3   OH234872   6.336   0.574   8.780 -0.1406  0.8080 -0.4504
 4438TIP3    H134873   6.336   0.494   8.727 -1.2416  0.4603  0.0411
 4438TIP3    H234874   6.315   0.644   8.718  0.1259  0.6248 -0.7527
 4439TIP3   OH234875   3.868   6.385   8.749  0.6136  0.0927 -0.2273
 4439TIP3    H134876   3.958   6.400   8.778  0.7113 -1.2460  0.2013
 4439TIP3    H234877   3.822   6.354   8.827  0.3123 -1.2977 -0.9346
 4440TIP3   OH234878   4.203   0.351   7.477  0.4996  0.9738  0.3884
 4440TIP3    H134879   4.124   0.369   7.425  1.3859  0.0018 -1.3999
 4440TIP3    H234880   4.252   0.433   7.474  0.2487  1.1209  0.2147
 4441TIP3   OH234881   3.277   0.519   8.733  0.6756  0.2139  1.2867
 4441TIP3    H134882   3.323   0.478   8.806 -0.9020 -0.9170  1.6906
 4441TIP3    H234883   3.208   0.571   8.774 -0.9569 -1.3447  0.6045
 4442TIP3   OH234884   5.342   4.390   7.052  0.2067 -0.5738 -0.4936
 4442TIP3    H134885   5.249   4.396   7.031  0.1858 -0.2670 -0.3216
 4442TIP3    H234886   5.385   4.382   6.968 -0.0035 -1.1364 -0.5556
 4443TIP3   OH234887   0.230   1.738   0.265  0.4868 -0.1465 -0.8629
 4443TIP3    H134888   0.236   1.801   0.337 -0.1984 -0.0850 -0.8537
 4443TIP3    H234889   0.219   1.793   0.187 -0.0142 -0.2546 -0.8667
 4444TIP3   OH234890   3.116   3.737   8.321 -0.1538  0.3865  0.1119
 4444TIP3    H134891   3.068   3.656   8.303  0.2396  0.2186 -0.2080
 4444TIP3    H234892   3.049   3.806   8.319 -0.3782  0.1599 -0.3598
 4445TIP3   OH234893   1.944   0.652   0.813  0.0040 -0.2274  0.4984
 4445TIP3    H134894   2.038   0.666   0.804 -0.5847  3.2326 -1.8119
 4445TIP3    H234895   1.914   0.627   0.726 -1.4062 -0.2083  0.9465
 4446TIP3   OH234896   5.454   2.088   8.077  0.3263  0.0677 -0.2594
 4446TIP3    H134897   5.440   2.161   8.017 -1.5729 -0.3016 -0.3222
 4446TIP3    H234898   5.388   2.099   8.145  0.6380 -1.0542  0.2587
 4447TIP3   OH234899   1.344   4.737   1.751 -0.2522  0.2454  0.3733
 4447TIP3    H134900   1.281   4.675   1.788 -1.2944  1.5893  0.9565
 4447TIP3    H234901   1.363   4.798   1.823 -0.2938  1.3788 -0.5384
 4448TIP3   OH234902   0.014   6.286   7.446 -0.6603  0.4647 -0.5184
 4448TIP3    H134903  -0.035   6.348   7.499 -1.1046 -1.2408  1.1761
 4448TIP3    H234904  -0.035   6.204   7.453  1.0225 -0.6234 -0.9582
 4449TIP3   OH234905   4.830   2.134   8.871  0.0737  0.0660  0.4766
 4449TIP3    H134906   4.784   2.184   8.938 -0.3740  0.4626 -0.1214
 4449TIP3    H234907   4.920   2.128   8.904  0.0113  0.8084  0.8087
 4450TIP3   OH234908   0.719   5.741   8.440 -0.0476  0.1682 -0.0808
 4450TIP3    H134909   0.784   5.798   8.482 -0.5678  0.1493  0.7746
 4450TIP3    H234910   0.757   5.654   8.447  1.5638  0.5316 -2.9274
 4451TIP3   OH234911   5.838   0.850   1.866 -0.2931  0.4243  0.0282
 4451TIP3    H134912   5.915   0.897   1.834 -1.7816  1.6737 -1.9706
 4451TIP3    H234913   5.869   0.803   1.943  3.0022 -0.8579 -1.8762
 4452TIP3   OH234914   0.403   2.581   1.886  0.2074 -0.0631  0.3845
 4452TIP3    H134915   0.356   2.645   1.940 -0.3459 -0.7888  0.7768
 4452TIP3    H234916   0.473   2.548   1.943  2.0019  1.8483 -0.5562
 4453TIP3   OH234917   1.999   0.826   7.814  0.4718 -0.4558 -0.0826
 4453TIP3    H134918   1.954   0.890   7.759 -0.0167 -2.3332 -1.9691
 4453TIP3    H234919   2.087   0.861   7.825  0.2939  0.4073 -1.3035
 4454TIP3   OH234920   1.063   1.336   8.588  0.1104  0.2097  0.6341
 4454TIP3    H134921   1.062   1.279   8.511  1.7259  0.9502  0.0184
 4454TIP3    H234922   1.053   1.277   8.662  1.6838 -0.9045  0.0077
 4455TIP3   OH234923   1.290   4.394   8.755  0.6157  0.6457 -0.1027
 4455TIP3    H134924   1.281   4.421   8.663  0.6831  0.9340 -0.0275
 4455TIP3    H234925   1.319   4.303   8.750  2.2468  1.1574 -0.3925
 4456TIP3   OH234926   5.387   2.065   8.579  0.2747  0.3394 -0.4983
 4456TIP3    H134927   5.379   2.160   8.582 -0.3195  0.2803 -0.1957
 4456TIP3    H234928   5.297   2.033   8.576  0.4797 -0.1960 -1.2639
 4457TIP3   OH234929   4.536   6.692   0.742  0.0844 -0.0186  0.1450
 4457TIP3    H134930   4.566   6.695   0.833 -0.2152 -0.7470  0.2705
 4457TIP3    H234931   4.502   6.604   0.731 -1.3512  0.5574 -0.2075
 4458TIP3   OH234932   4.211   3.852   8.929 -0.2712  0.1383  0.5624
 4458TIP3    H134933   4.192   3.774   8.981  1.1521 -0.6474 -0.0533
 4458TIP3    H234934   4.217   3.821   8.839  0.5726  0.8951  0.3404
 4459TIP3   OH234935   5.146   2.785   0.325  0.4679  0.1845 -0.6266
 4459TIP3    H134936   5.096   2.843   0.267  2.0609  1.5239 -0.7496
 4459TIP3    H234937   5.165   2.840   0.401  1.1733 -0.4969 -0.3062
 4460TIP3   OH234938   0.496   0.254   8.265 -0.2250  0.2020 -0.4202
 4460TIP3    H134939   0.457   0.308   8.196 -0.2286  1.4457  0.5198
 4460TIP3    H234940   0.515   0.171   8.222 -1.2287  0.5704 -1.6344
 4461TIP3   OH234941   3.645   3.182   8.219  0.0436 -0.2347 -0.3668
 4461TIP3    H134942   3.665   3.153   8.130  0.5772  0.8690 -0.6258
 4461TIP3    H234943   3.635   3.277   8.212 -0.8318 -0.2353  0.5891
 4462TIP3   OH234944   0.823   0.659   3.080  0.1463 -0.8034 -0.3193
 4462TIP3    H134945   0.834   0.750   3.106  1.6421 -0.9441 -0.3699
 4462TIP3    H234946   0.729   0.643   3.086  0.1539 -0.1442  2.5952
 4463TIP3   OH234947   6.741   4.856   8.449  0.5164 -0.1255 -0.4739
 4463TIP3    H134948   6.649   4.870   8.423  0.5887 -0.8585 -1.1601
 4463TIP3    H234949   6.740   4.771   8.493  1.0083 -0.5300 -1.2380
 4464TIP3   OH234950   4.600   4.703   8.817  0.6870 -0.6371 -0.4900
 4464TIP3    H134951   4.533   4.639   8.842 -0.0072 -0.3084 -1.4445
 4464TIP3    H234952   4.649   4.720   8.898  1.1640 -2.6812 -0.3139
 4465TIP3   OH234953   0.316   6.111   2.219 -0.8275  0.0643  0.3812
 4465TIP3    H134954   0.262   6.179   2.259 -0.9181  1.0791 -1.3496
 4465TIP3    H234955   0.262   6.077   2.147 -0.3053 -1.0223  0.4757
 4466TIP3   OH234956   1.437   6.490   0.454  0.0677  0.1487  0.1990
 4466TIP3    H134957   1.380   6.414   0.471 -2.0551  1.5496 -0.3073
 4466TIP3    H234958   1.481   6.506   0.538 -1.6856  0.0986  1.1769
 4467TIP3   OH234959   5.291   3.669   8.067 -0.2871 -0.6756 -0.0554
 4467TIP3    H134960   5.351   3.674   8.141 -0.1622  1.0040 -0.2312
 4467TIP3    H234961   5.342   3.702   7.993 -1.3630  0.6743 -0.2312
 4468TIP3   OH234962   6.649   5.691   1.389  0.2855  0.3548  0.6062
 4468TIP3    H134963   6.604   5.730   1.464  1.3090  1.4050  0.7112
 4468TIP3    H234964   6.640   5.757   1.320 -1.2947 -0.9206 -0.4548
 4469TIP3   OH234965   5.802   6.345   2.155  0.2762  0.2037 -0.7685
 4469TIP3    H134966   5.874   6.285   2.137  0.2935  0.4362 -1.4969
 4469TIP3    H234967   5.833   6.430   2.123 -0.4132  0.2623 -1.2908
 4470TIP3   OH234968   2.947   5.540   1.541 -0.6755 -0.6556  0.1191
 4470TIP3    H134969   2.983   5.484   1.473  1.3257 -0.8183  1.2304
 4470TIP3    H234970   2.871   5.492   1.575 -0.8809 -1.1848 -1.0546
 4471TIP3   OH234971   2.250   6.242   8.333 -0.6853  0.0915 -0.1204
 4471TIP3    H134972   2.199   6.282   8.402 -0.1804  0.6007 -0.0371
 4471TIP3    H234973   2.198   6.166   8.305 -0.7331 -0.3212  1.0441
 4472TIP3   OH234974   6.634   4.963   8.863  0.2444 -0.2910  0.1016
 4472TIP3    H134975   6.683   4.886   8.835  2.7027  0.5988  1.6509
 4472TIP3    H234976   6.636   5.022   8.787  1.4867 -0.3319  0.0955
 4473TIP3   OH234977   6.155   4.764   8.179 -0.3738  0.1837  0.4032
 4473TIP3    H134978   6.070   4.807   8.167 -0.1766  0.2852 -0.7534
 4473TIP3    H234979   6.141   4.704   8.252 -1.5397 -0.0260  0.0368
 4474TIP3   OH234980   5.269   1.295   7.176 -0.1077 -0.0498 -0.3124
 4474TIP3    H134981   5.305   1.221   7.224 -0.4026  0.5264  0.8370
 4474TIP3    H234982   5.316   1.294   7.092  0.5113 -1.0068  0.0244
 4475TIP3   OH234983   4.169   2.771   0.843  0.0747  0.5074 -0.0917
 4475TIP3    H134984   4.211   2.703   0.895 -0.2452 -0.3819 -0.9823
 4475TIP3    H234985   4.083   2.783   0.883 -0.1925 -0.2146 -0.4374
 4476TIP3   OH234986   0.040   1.186   8.280 -1.0429 -0.6694  0.2098
 4476TIP3    H134987   0.032   1.206   8.373  1.3892 -0.6243  0.4839
 4476TIP3    H234988   0.054   1.092   8.277 -1.0562 -0.6617 -0.0977
 4477TIP3   OH234989   3.456   6.220   1.088  0.1299 -0.4627 -0.8182
 4477TIP3    H134990   3.518   6.162   1.045  0.5484 -0.6733  0.0488
 4477TIP3    H234991   3.507   6.262   1.158 -1.0393 -1.8333  0.9707
 4478TIP3   OH234992   6.658   4.079   0.717  0.1687  0.4615  0.1718
 4478TIP3    H134993   6.672   4.024   0.640 -0.1399  2.1398 -1.1470
 4478TIP3    H234994   6.736   4.135   0.720 -0.8998  2.0316 -0.3752
 4479TIP3   OH234995   0.507   3.566   2.637 -0.3968  0.0729  0.4000
 4479TIP3    H134996   0.442   3.636   2.633 -1.0160 -0.5497 -1.0489
 4479TIP3    H234997   0.456   3.485   2.637  0.3465 -0.4090  0.4669
 4480TIP3   OH234998   0.713   2.061   1.893 -0.4917 -0.0161 -0.0259
 4480TIP3    H134999   0.630   2.106   1.873 -1.3078 -1.1646  0.6752
 4480TIP3    H235000   0.707   1.978   1.846  1.1496  0.6971 -1.5804
 4481TIP3   OH235001   3.692   6.294   2.399 -0.6067  0.5995 -0.2027
 4481TIP3    H135002   3.643   6.376   2.401 -0.2392  0.8336  2.1380
 4481TIP3    H235003   3.744   6.299   2.318 -1.6797  1.9806 -0.8480
 4482TIP3   OH235004   4.364   4.688   7.023 -0.2522  0.1626 -0.7630
 4482TIP3    H135005   4.350   4.751   7.093  0.2560 -0.0219 -0.4913
 4482TIP3    H235006   4.290   4.628   7.029  0.3255 -0.4632  0.2823
 4483TIP3   OH235007   4.056   5.047   0.679 -0.4661 -0.0945 -0.0310
 4483TIP3    H135008   4.135   4.995   0.691 -0.1817 -0.4858 -2.8663
 4483TIP3    H235009   4.088   5.133   0.650 -1.0465 -0.1950 -1.0017
 4484TIP3   OH235010   4.912   3.030   1.022 -0.6589 -0.3301 -0.4195
 4484TIP3    H135011   4.971   2.989   0.959  0.0146 -0.4970  0.2943
 4484TIP3    H235012   4.930   2.984   1.104 -1.0936  0.2717  0.0212
 4485TIP3   OH235013   2.317   3.064   0.295 -0.0536 -0.9998  0.0742
 4485TIP3    H135014   2.336   3.030   0.208 -0.3455 -2.4324  0.5384
 4485TIP3    H235015   2.225   3.039   0.311 -0.4511  0.4697  0.2494
 4486TIP3   OH235016   2.388   5.853   7.830  0.1941  0.0804  0.2351
 4486TIP3    H135017   2.316   5.895   7.782 -1.1622 -2.5516 -0.1716
 4486TIP3    H235018   2.443   5.815   7.762  0.0699 -0.8467  0.6388
 4487TIP3   OH235019   5.948   6.514   8.696 -0.1405  0.4690  0.1412
 4487TIP3    H135020   5.902   6.565   8.763 -0.7328  0.5436 -0.3105
 4487TIP3    H235021   5.965   6.430   8.737  0.5975  0.9330  0.8024
 4488TIP3   OH235022   4.595   6.398   7.804  0.0158  0.0411  0.3924
 4488TIP3    H135023   4.591   6.490   7.776 -1.2466  0.0920  0.6500
 4488TIP3    H235024   4.662   6.397   7.872  2.8616 -0.0101 -2.2131
 4489TIP3   OH235025   5.557   2.108   1.705  0.5971 -0.4221 -0.0746
 4489TIP3    H135026   5.511   2.035   1.747  2.5401 -2.5993 -1.5286
 4489TIP3    H235027   5.580   2.076   1.618  0.8096  2.2730 -1.1073
 4490TIP3   OH235028   3.945   1.772   0.929 -0.6913 -0.5150 -0.3590
 4490TIP3    H135029   3.944   1.843   0.865 -0.8161  0.7840  1.0348
 4490TIP3    H235030   3.943   1.816   1.014  0.4549 -2.1601  0.5726
 4491TIP3   OH235031   0.271   5.231   8.015  0.2343  0.0353  0.4698
 4491TIP3    H135032   0.293   5.276   8.096  1.8953 -0.9308  0.5954
 4491TIP3    H235033   0.319   5.278   7.947  0.4355 -0.3536  0.3360
 4492TIP3   OH235034   5.723   1.436   1.554 -0.7446 -0.4044  0.4341
 4492TIP3    H135035   5.652   1.376   1.530  0.3508 -1.0764 -1.3416
 4492TIP3    H235036   5.785   1.381   1.602 -0.9715 -0.0464  1.1413
 4493TIP3   OH235037   5.137   5.678   2.036 -0.1274  0.0800 -0.1168
 4493TIP3    H135038   5.172   5.676   1.947  0.9936 -0.1971  0.3137
 4493TIP3    H235039   5.135   5.771   2.058  0.8528  0.0653  0.0460
 4494TIP3   OH235040   6.093   1.166   8.471  0.4611  0.1832  0.3869
 4494TIP3    H135041   6.008   1.175   8.513 -0.1759  1.4914 -1.0667
 4494TIP3    H235042   6.113   1.254   8.439  2.0888 -0.2301  0.1918
 4495TIP3   OH235043   2.277   1.769   8.351 -0.0040  0.0602  0.4556
 4495TIP3    H135044   2.371   1.749   8.354 -0.4304 -3.9706 -2.9501
 4495TIP3    H235045   2.236   1.699   8.402 -1.2399 -0.1529 -0.7786
 4496TIP3   OH235046   4.549   2.963   8.006 -0.2911 -0.3779 -0.4901
 4496TIP3    H135047   4.531   3.047   7.965  2.5903  0.5096 -0.1373
 4496TIP3    H235048   4.587   2.909   7.936 -0.1874 -0.6705 -0.2140
 4497TIP3   OH235049   1.517   1.544   6.872  0.4677  0.0278 -0.5688
 4497TIP3    H135050   1.434   1.592   6.874  0.8042  0.6469  1.8530
 4497TIP3    H235051   1.491   1.452   6.879 -0.0174  0.2002 -0.0613
 4498TIP3   OH235052   2.121   2.192   0.818 -0.1775  0.2028  0.5462
 4498TIP3    H135053   2.140   2.153   0.732 -1.0006  2.4892 -0.7470
 4498TIP3    H235054   2.172   2.273   0.820 -3.1297  2.2296  0.4437
 4499TIP3   OH235055   5.883   0.409   1.296 -0.7111  0.2272 -0.0992
 4499TIP3    H135056   5.933   0.331   1.275 -1.1907 -0.4135  1.0820
 4499TIP3    H235057   5.801   0.376   1.334 -0.5899  1.3039  1.1558
 4500TIP3   OH235058   5.431   1.955   0.289 -0.2893 -0.2012 -0.0519
 4500TIP3    H135059   5.413   1.926   0.199 -0.9033 -0.1002  0.0323
 4500TIP3    H235060   5.401   2.046   0.291 -1.7998 -0.6817  0.6931
 4501TIP3   OH235061   0.932   2.970   0.527 -0.3255  0.2085  0.1583
 4501TIP3    H135062   1.019   2.990   0.494 -0.0549  0.8693  1.2218
 4501TIP3    H235063   0.930   3.008   0.615 -1.1536 -1.1719  0.7649
 4502TIP3   OH235064   5.790   2.513   8.864  0.0866 -0.3084  0.1135
 4502TIP3    H135065   5.856   2.469   8.917  1.6337 -0.1094 -1.5911
 4502TIP3    H235066   5.772   2.595   8.912  2.4615  0.5265 -0.2847
 4503TIP3   OH235067   6.366   4.108   7.365 -0.0837 -0.0409  0.0126
 4503TIP3    H135068   6.326   4.146   7.287 -1.1664  0.6818  0.8794
 4503TIP3    H235069   6.306   4.131   7.436 -0.1468 -2.3198  0.7847
 4504TIP3   OH235070   4.594   3.275   7.931  0.0274 -0.6063 -0.2598
 4504TIP3    H135071   4.581   3.315   8.017  0.3232  0.8470 -0.8492
 4504TIP3    H235072   4.533   3.321   7.874  0.1037 -1.2885 -0.9021
 4505TIP3   OH235073   3.875   5.599   1.718  0.2410 -0.5460 -0.1373
 4505TIP3    H135074   3.947   5.626   1.661 -1.2898  1.5958 -1.2090
 4505TIP3    H235075   3.844   5.517   1.680  0.5920 -0.2414 -1.1187
 4506TIP3   OH235076   1.454   4.866   3.047  0.0273  0.3507 -0.0560
 4506TIP3    H135077   1.522   4.933   3.043 -0.2269  0.5887 -0.5434
 4506TIP3    H235078   1.472   4.810   2.972  0.3729 -0.2632  0.4780
 4507TIP3   OH235079   6.512   3.311   7.166 -0.4146 -0.4179 -0.2592
 4507TIP3    H135080   6.445   3.365   7.125  0.7469  1.1172 -0.1971
 4507TIP3    H235081   6.545   3.255   7.095 -0.7820 -0.1995 -0.6046
 4508TIP3   OH235082   2.300   3.172   0.769 -0.1282  0.0008  0.4723
 4508TIP3    H135083   2.379   3.183   0.822  0.8894  0.5056 -1.0738
 4508TIP3    H235084   2.301   3.247   0.710 -0.2876 -1.3901 -1.3877
 4509TIP3   OH235085   0.830   4.013   0.182 -0.5600 -0.3415  0.2397
 4509TIP3    H135086   0.797   4.094   0.143 -0.7394 -1.4516 -2.1074
 4509TIP3    H235087   0.922   4.030   0.201 -0.7142  0.5448  0.2185
 4510TIP3   OH235088   5.942   4.685   1.421  0.7907 -0.0550  0.0285
 4510TIP3    H135089   5.935   4.659   1.513 -0.4429  1.5355  0.4446
 4510TIP3    H235090   6.010   4.752   1.420 -0.1346  0.9171  0.0655
 4511TIP3   OH235091   2.713   3.054   8.797 -0.4237  0.2801  0.4650
 4511TIP3    H135092   2.794   3.103   8.784 -0.0679  0.3488  2.6000
 4511TIP3    H235093   2.645   3.121   8.807 -0.0002  0.4192  2.9864
 4512TIP3   OH235094   3.201   2.893   2.275 -0.8820  0.5371  0.2547
 4512TIP3    H135095   3.242   2.809   2.299  1.8288  1.1657 -1.6163
 4512TIP3    H235096   3.149   2.917   2.351  0.4161 -1.5594  1.9321
 4513TIP3   OH235097   5.927   4.899   1.118  0.5805 -0.3753 -0.1188
 4513TIP3    H135098   5.986   4.961   1.161 -0.1539  0.8401 -0.7950
 4513TIP3    H235099   5.975   4.816   1.117  1.2017 -0.0843  1.6945
 4514TIP3   OH235100   1.271   2.632   7.522 -0.2389  0.0844 -1.0306
 4514TIP3    H135101   1.249   2.539   7.536 -1.3519  0.6359  1.4412
 4514TIP3    H235102   1.326   2.632   7.443 -1.7719 -2.4431 -2.2290
 4515TIP3   OH235103   3.875   0.938   0.632 -0.1657  0.2866 -0.4102
 4515TIP3    H135104   3.847   0.847   0.629 -0.3411  0.3195  0.1729
 4515TIP3    H235105   3.970   0.934   0.638 -0.0815  0.1655 -1.5135
 4516TIP3   OH235106   1.121   1.756   1.013 -0.4483 -0.1475 -0.2242
 4516TIP3    H135107   1.115   1.834   1.068  0.2967  1.2284 -1.9574
 4516TIP3    H235108   1.058   1.695   1.050 -2.2221  1.8816  0.2866
 4517TIP3   OH235109   1.384   5.469   1.598  0.3045 -0.8702  0.5961
 4517TIP3    H135110   1.444   5.541   1.619 -0.5124  0.5046 -1.4284
 4517TIP3    H235111   1.387   5.412   1.675  0.0204  1.9939  2.9400
 4518TIP3   OH235112   1.220   3.130   8.623  0.3111  0.4550 -0.0696
 4518TIP3    H135113   1.142   3.152   8.572 -0.4039  0.0912  0.8428
 4518TIP3    H235114   1.262   3.058   8.574  0.7478  1.4400 -1.1950
 4519TIP3   OH235115   2.070   2.619   0.349  0.3414  0.1119 -0.2765
 4519TIP3    H135116   2.152   2.571   0.359 -0.3857 -1.3097 -0.7688
 4519TIP3    H235117   2.076   2.660   0.262 -0.1517 -1.4667 -1.0951
 4520TIP3   OH235118   0.641   1.256   2.224 -0.1925 -0.0631  0.1083
 4520TIP3    H135119   0.735   1.264   2.241  0.1097 -0.7424 -1.1648
 4520TIP3    H235120   0.600   1.307   2.294  1.2183  3.6899 -1.5521
 4521TIP3   OH235121   6.061   3.323   1.875 -0.2519  0.0194 -0.1285
 4521TIP3    H135122   6.058   3.415   1.901  1.2193  0.2115 -0.5358
 4521TIP3    H235123   6.128   3.285   1.931 -1.1607 -0.9341  0.3428
 4522TIP3   OH235124   5.906   2.093   1.193 -0.3782 -0.5745 -0.2085
 4522TIP3    H135125   5.963   2.155   1.147 -0.5098 -1.9041 -2.3110
 4522TIP3    H235126   5.818   2.119   1.168 -0.4862 -0.8960 -0.1668
 4523TIP3   OH235127   0.044   0.763   6.732  0.1568  0.0196 -0.3548
 4523TIP3    H135128   0.110   0.804   6.675  1.0125 -1.9156 -0.8585
 4523TIP3    H235129   0.083   0.766   6.819 -0.1923  1.0345 -0.2159
 4524TIP3   OH235130   0.515   2.548   1.445 -0.4320 -0.1750 -0.0534
 4524TIP3    H135131   0.445   2.585   1.498 -0.4715 -0.4517  0.0897
 4524TIP3    H235132   0.470   2.491   1.382 -0.4235  0.5186 -0.6967
 4525TIP3   OH235133   2.479   4.684   8.352  0.2422 -0.3311 -0.2090
 4525TIP3    H135134   2.562   4.689   8.400 -0.1600  1.0740  0.3757
 4525TIP3    H235135   2.451   4.593   8.362  0.8688 -0.4034  1.0237
 4526TIP3   OH235136   4.999   1.368   7.125  0.3192  0.1061  0.3783
 4526TIP3    H135137   5.004   1.463   7.141  0.6010 -0.0908  1.6035
 4526TIP3    H235138   5.073   1.332   7.174  0.1215 -0.7590  0.0470
 4527TIP3   OH235139   4.435   0.557   2.702 -0.2193 -0.1286  0.2467
 4527TIP3    H135140   4.443   0.559   2.798  0.7958 -1.2122  0.2114
 4527TIP3    H235141   4.418   0.648   2.678 -0.9739  0.0866  1.4901
 4528TIP3   OH235142   2.865   5.527   2.451 -0.6567  0.4911 -0.0217
 4528TIP3    H135143   2.837   5.619   2.455  1.0774  1.0785 -0.6287
 4528TIP3    H235144   2.902   5.509   2.538  2.6599  1.6754 -1.0335
 4529TIP3   OH235145   6.021   2.272   2.324  0.6063 -0.4632 -0.2188
 4529TIP3    H135146   6.102   2.324   2.324 -0.1128  0.7372 -1.2509
 4529TIP3    H235147   6.051   2.182   2.314  1.8505 -0.1249  0.2105
 4530TIP3   OH235148   1.298   0.203   7.128  0.1880  0.7026 -0.4947
 4530TIP3    H135149   1.336   0.181   7.043  1.0853 -1.1810  0.3424
 4530TIP3    H235150   1.365   0.255   7.172 -0.4951  2.1439 -1.1195
 4531TIP3   OH235151   3.678   1.021   8.169 -0.3517 -0.0626  0.2467
 4531TIP3    H135152   3.659   1.032   8.076 -1.8548  0.1524  0.5499
 4531TIP3    H235153   3.597   0.987   8.206  0.2394 -0.1816  1.4787
 4532TIP3   OH235154   6.540   6.409   0.745 -0.4372  0.5047 -0.5800
 4532TIP3    H135155   6.460   6.358   0.761 -0.4927  0.8524  0.3251
 4532TIP3    H235156   6.511   6.500   0.748  0.1044  0.6567  0.4910
 4533TIP3   OH235157   2.505   1.057   8.087 -0.1854 -0.0616 -0.1518
 4533TIP3    H135158   2.430   1.089   8.138  0.4482  1.2236 -0.0101
 4533TIP3    H235159   2.531   0.977   8.134 -2.4380 -1.4957 -1.1333
 4534TIP3   OH235160   6.124   6.463   6.836 -0.5127  0.4666 -0.1264
 4534TIP3    H135161   6.037   6.495   6.810 -0.2021 -0.2581 -2.2748
 4534TIP3    H235162   6.150   6.404   6.765 -0.1856 -3.0163  2.5937
 4535TIP3   OH235163   2.918   6.706   1.976  0.5808  0.3842  1.1252
 4535TIP3    H135164   2.982   6.757   1.926 -1.7587  2.9787  0.5381
 4535TIP3    H235165   2.924   6.741   2.065 -0.1290  0.7925  1.0202
 4536TIP3   OH235166   2.933   1.771   1.893  0.0471 -0.2793 -0.1852
 4536TIP3    H135167   2.973   1.812   1.817  0.2934  0.7695  0.4925
 4536TIP3    H235168   2.890   1.842   1.940  0.6468 -0.7270  1.1177
 4537TIP3   OH235169   3.069   3.152   0.256  0.2085 -0.5738 -0.0479
 4537TIP3    H135170   3.049   3.208   0.331  0.0567  0.4262 -0.8096
 4537TIP3    H235171   2.985   3.138   0.214  0.1772 -1.7730  0.3841
 4538TIP3   OH235172   2.412   1.519   1.534 -0.0869 -0.1445 -0.5349
 4538TIP3    H135173   2.344   1.562   1.482  1.2814  1.0330 -1.4158
 4538TIP3    H235174   2.479   1.495   1.470 -0.6779 -3.5622 -0.1036
 4539TIP3   OH235175   4.585   1.498   1.144 -0.6632  0.3393 -0.2231
 4539TIP3    H135176   4.586   1.573   1.204  0.0126 -1.4106  2.0934
 4539TIP3    H235177   4.495   1.494   1.112 -0.3823  3.0157 -1.7251
 4540TIP3   OH235178   5.746   2.246   2.842  0.4391  0.2651 -0.5867
 4540TIP3    H135179   5.683   2.181   2.872 -1.4647  2.4791  0.5535
 4540TIP3    H235180   5.820   2.195   2.810 -0.6397 -2.4152  0.8686
 4541TIP3   OH235181   4.662   4.355   8.269  0.2406 -0.0841  0.6402
 4541TIP3    H135182   4.649   4.354   8.364  0.6766 -2.7846  0.7664
 4541TIP3    H235183   4.575   4.337   8.233  0.4328 -1.2140  0.6826
 4542TIP3   OH235184   4.766   3.871   8.841 -0.0137 -0.2167  0.0725
 4542TIP3    H135185   4.803   3.960   8.844 -0.9237  0.2808 -2.1606
 4542TIP3    H235186   4.672   3.884   8.846 -0.3368 -0.7908 -2.9318
 4543TIP3   OH235187   3.316   5.481   7.607  0.2671  0.0777  0.6041
 4543TIP3    H135188   3.261   5.448   7.536 -0.5026  0.9555  0.7680
 4543TIP3    H235189   3.405   5.458   7.582 -0.0174  0.1310 -0.5107
 4544TIP3   OH235190   5.143   6.349   1.894 -0.2953  0.4036  0.6222
 4544TIP3    H135191   5.097   6.291   1.833  2.4361  0.8476 -2.1254
 4544TIP3    H235192   5.092   6.430   1.893 -0.3655  0.3840 -1.1082
 4545TIP3   OH235193   0.201   0.365   7.509 -0.0830 -0.3191  0.4042
 4545TIP3    H135194   0.270   0.416   7.466 -0.8515  0.7473  0.3884
 4545TIP3    H235195   0.199   0.398   7.599  0.2419 -1.2091  0.7448
 4546TIP3   OH235196   5.654   1.818   7.496 -0.3531  0.3752 -0.4231
 4546TIP3    H135197   5.676   1.911   7.505  0.7134  0.1805 -0.8395
 4546TIP3    H235198   5.601   1.815   7.416  0.3210  0.5335 -0.8923
 4547TIP3   OH235199   5.276   6.572   1.657  0.1802  0.2503 -0.3156
 4547TIP3    H135200   5.345   6.595   1.595  1.3001 -0.2060  0.7351
 4547TIP3    H235201   5.236   6.493   1.619  0.7395  0.0786 -0.5633
 4548TIP3   OH235202   1.534   4.964   7.726 -0.1369 -0.4064 -0.2887
 4548TIP3    H135203   1.468   4.909   7.768  0.4978 -1.5035 -0.6959
 4548TIP3    H235204   1.494   5.051   7.723 -1.4270 -0.9754 -0.2082
 4549TIP3   OH235205   5.965   5.384   7.820 -0.5442  0.2134 -0.6237
 4549TIP3    H135206   6.014   5.441   7.761  0.6524 -0.6503 -0.5199
 4549TIP3    H235207   6.004   5.297   7.807 -1.3913 -0.3168  0.2042
 4550TIP3   OH235208   4.894   1.299   1.567 -0.1484  0.0436 -0.0209
 4550TIP3    H135209   4.869   1.372   1.511  0.6910 -0.5751 -1.2688
 4550TIP3    H235210   4.965   1.255   1.519  0.4036 -0.6966  1.4026
 4551TIP3   OH235211   5.104   5.109   0.285  0.4007  0.0935 -0.3511
 4551TIP3    H135212   5.142   5.053   0.352  0.9233  0.3354 -0.4430
 4551TIP3    H235213   5.113   5.059   0.204  0.8169  0.2899 -0.4245
 4552TIP3   OH235214   1.187   0.334   1.217 -0.2178  0.2082  0.3602
 4552TIP3    H135215   1.145   0.378   1.143 -2.5710 -0.4389  1.2389
 4552TIP3    H235216   1.252   0.397   1.249  0.1219  0.9124 -1.5643
 4553TIP3   OH235217   1.334   3.271   0.912 -0.2238 -0.1530 -0.5063
 4553TIP3    H135218   1.322   3.366   0.909  2.2092  0.2120 -1.5576
 4553TIP3    H235219   1.343   3.246   0.820 -0.2244 -1.3063 -0.2037
 4554TIP3   OH235220   3.457   1.357   0.916  0.4255  0.2268  0.4763
 4554TIP3    H135221   3.495   1.309   0.841  1.3983  1.8463 -0.1129
 4554TIP3    H235222   3.532   1.382   0.968  0.0050  1.7301  0.3879
 4555TIP3   OH235223   4.302   2.944   8.332  0.2551 -0.4585  0.1728
 4555TIP3    H135224   4.210   2.917   8.336 -0.1098  0.7663  0.7514
 4555TIP3    H235225   4.321   2.975   8.421  0.3353  1.9851 -0.6185
 4556TIP3   OH235226   4.802   0.248   7.515 -0.5744 -0.2871 -0.2714
 4556TIP3    H135227   4.810   0.232   7.421 -1.3379 -0.6669 -0.2830
 4556TIP3    H235228   4.881   0.297   7.538 -0.1071 -0.6794 -0.9993
 4557TIP3   OH235229   5.210   6.099   2.806 -0.3693  0.0749  0.0727
 4557TIP3    H135230   5.293   6.140   2.781  0.5111 -0.6901  1.5967
 4557TIP3    H235231   5.144   6.167   2.791  0.5207  0.7145 -1.1189
 4558TIP3   OH235232   1.068   1.576   7.481 -0.0011 -0.0423  0.1798
 4558TIP3    H135233   1.159   1.605   7.483  0.5516 -1.4968 -1.6923
 4558TIP3    H235234   1.065   1.503   7.543  0.5328 -1.0664 -0.9767
 4559TIP3   OH235235   3.344   6.524   2.222 -0.2837 -0.5027 -0.0890
 4559TIP3    H135236   3.356   6.441   2.176 -1.8784 -1.6983  1.5306
 4559TIP3    H235237   3.419   6.529   2.281  0.2129 -0.3940 -0.7100
 4560TIP3   OH235238   2.611   0.751   8.700  0.1247  0.0685  0.0982
 4560TIP3    H135239   2.526   0.713   8.720 -0.3756  1.2220  0.2678
 4560TIP3    H235240   2.666   0.677   8.675 -1.3037 -0.5574 -1.3795
 4561TIP3   OH235241   3.353   3.603   0.388 -0.0960 -0.2032  0.4465
 4561TIP3    H135242   3.277   3.640   0.432 -0.6282 -2.4987  1.5666
 4561TIP3    H235243   3.318   3.539   0.327  0.9022 -0.6686  0.3366
 4562TIP3   OH235244   1.283   6.250   1.283 -0.0572  0.9592 -1.0603
 4562TIP3    H135245   1.355   6.210   1.234 -0.4028 -3.0212  1.1964
 4562TIP3    H235246   1.325   6.311   1.343  1.6916 -1.4810  0.4187
 4563TIP3   OH235247   0.747   5.537   0.174  0.5922  0.1622  0.5701
 4563TIP3    H135248   0.773   5.619   0.133 -2.1969  1.0240  0.2959
 4563TIP3    H235249   0.660   5.518   0.138  0.0333 -1.5231  2.5596
 4564TIP3   OH235250   6.671   2.041   0.800  0.4061 -0.3640  0.0174
 4564TIP3    H135251   6.763   2.066   0.810  0.3528 -0.5788  1.2276
 4564TIP3    H235252   6.671   1.945   0.809 -0.0742 -0.2588  1.4869
 4565TIP3   OH235253   2.751   6.662   7.534  0.0761 -0.1680  0.3087
 4565TIP3    H135254   2.752   6.617   7.450 -1.6657  0.4996 -0.0980
 4565TIP3    H235255   2.674   6.629   7.579 -1.6012  2.6437 -0.2149
 4566TIP3   OH235256   3.408   1.057   0.372  0.2410 -0.3957 -0.6542
 4566TIP3    H135257   3.454   1.092   0.295 -1.3765 -0.8331 -1.8927
 4566TIP3    H235258   3.324   1.027   0.337 -1.2063  0.8091  1.5678
 4567TIP3   OH235259   1.144   6.551   7.965 -0.6618 -0.1441 -0.2690
 4567TIP3    H135260   1.176   6.575   8.052 -0.8070  2.4058 -0.8550
 4567TIP3    H235261   1.208   6.487   7.934  0.5694  0.4516  0.9063
 4568TIP3   OH235262   2.827   2.241   8.575  0.3660  0.1067 -0.3765
 4568TIP3    H135263   2.885   2.165   8.572  0.6039  0.3173 -1.2138
 4568TIP3    H235264   2.829   2.269   8.667  1.4827  0.0280 -0.3663
 4569TIP3   OH235265   5.671   3.441   7.857 -0.0977  0.1772 -0.0425
 4569TIP3    H135266   5.703   3.397   7.778 -0.1476 -0.5268  0.3162
 4569TIP3    H235267   5.679   3.534   7.838 -1.6849  0.0541 -1.5429
 4570TIP3   OH235268   1.258   2.045   0.949  0.3398 -0.0990 -0.3514
 4570TIP3    H135269   1.239   2.116   1.011  0.0867 -1.4685  1.2191
 4570TIP3    H235270   1.202   2.062   0.874 -1.0090  0.4270  0.7349
 4571TIP3   OH235271   2.097   4.226   0.759  0.0261 -0.1980 -0.3103
 4571TIP3    H135272   2.042   4.164   0.712 -1.2527  0.3108  0.4734
 4571TIP3    H235273   2.181   4.182   0.769 -0.0410 -0.7600 -2.0456
 4572TIP3   OH235274   5.746   5.704   7.918 -0.0327 -0.2749  0.1063
 4572TIP3    H135275   5.687   5.672   7.986 -0.1026 -0.9557 -0.2733
 4572TIP3    H235276   5.717   5.661   7.838 -1.1015  1.8604 -0.7438
 4573TIP3   OH235277   1.229   5.004   2.550 -0.2359  0.4651 -0.7309
 4573TIP3    H135278   1.314   5.031   2.583  0.3917 -1.4794 -0.6003
 4573TIP3    H235279   1.181   4.974   2.628  0.8884 -3.1971 -1.2367
 4574TIP3   OH235280   6.732   4.014   7.902  0.4704  0.1294 -0.0112
 4574TIP3    H135281   6.771   3.959   7.970 -0.2881  1.0333  1.1659
 4574TIP3    H235282   6.805   4.069   7.871  0.7831 -0.1900  0.1514
 4575TIP3   OH235283   1.005   2.838   1.091  0.3913 -0.2591 -0.4957
 4575TIP3    H135284   1.062   2.852   1.015 -1.4603 -0.8645 -2.0651
 4575TIP3    H235285   0.992   2.743   1.094  2.4171 -0.6059  2.1849
 4576TIP3   OH235286   1.883   2.671   1.154 -0.1582  0.3651  0.4160
 4576TIP3    H135287   1.806   2.659   1.209  0.6191 -0.7820  1.2835
 4576TIP3    H235288   1.879   2.599   1.091 -0.5346  1.1221 -0.4479
 4577TIP3   OH235289   6.217   0.440   7.698  0.3144  0.4016 -0.5758
 4577TIP3    H135290   6.284   0.383   7.662 -1.1579 -0.6596 -1.7763
 4577TIP3    H235291   6.170   0.384   7.761 -1.8261 -0.1786 -2.5443
 4578TIP3   OH235292   1.620   3.435   2.130 -0.1795  0.3616 -0.0242
 4578TIP3    H135293   1.691   3.498   2.117  0.2494  0.2447  1.5218
 4578TIP3    H235294   1.542   3.489   2.142 -0.3068  0.5009 -1.3827
 4579TIP3   OH235295   3.079   0.107   1.815  0.3573 -0.0928 -0.0714
 4579TIP3    H135296   3.080   0.186   1.870  1.0403  0.0348 -0.2585
 4579TIP3    H235297   3.171   0.090   1.795  0.2162 -0.9634 -0.0090
 4580TIP3   OH235298   5.116   4.992   0.035 -0.2240 -0.0241  0.0382
 4580TIP3    H135299   5.065   4.924  -0.008  1.4817 -1.8044  0.6966
 4580TIP3    H235300   5.195   5.000  -0.019  0.6874 -0.3299  1.2852
 4581TIP3   OH235301   1.980   2.772   2.519  0.0827 -0.0892 -0.0954
 4581TIP3    H135302   1.948   2.687   2.490 -0.7132  0.4106 -0.7313
 4581TIP3    H235303   2.061   2.785   2.470 -0.7541  0.3208 -1.4062
 4582TIP3   OH235304   2.556   5.419   8.882  0.4538  0.1132  0.3159
 4582TIP3    H135305   2.521   5.337   8.846  0.1657  0.5145 -0.3494
 4582TIP3    H235306   2.535   5.485   8.815 -1.7828  1.2638  2.0113
 4583TIP3   OH235307   2.174   6.295   1.241  0.1170  0.2410  0.1157
 4583TIP3    H135308   2.264   6.317   1.218  0.3297 -1.1107 -0.4819
 4583TIP3    H235309   2.160   6.336   1.325  1.2946  0.5011  0.2068
 4584TIP3   OH235310   5.961   5.477   0.107  0.3925  0.2396 -0.2539
 4584TIP3    H135311   5.934   5.520   0.189  0.2323  0.6479 -0.5194
 4584TIP3    H235312   6.025   5.411   0.135 -1.4224 -1.2884  0.4874
 4585TIP3   OH235313   4.400   4.411   2.796  0.1921  0.0698  0.5783
 4585TIP3    H135314   4.401   4.318   2.817 -0.9980 -0.0736  0.0577
 4585TIP3    H235315   4.428   4.455   2.876 -0.5081 -0.6673  1.2389
 4586TIP3   OH235316   5.104   5.101   1.989 -0.2467  0.4867 -0.0898
 4586TIP3    H135317   5.087   5.103   1.894 -2.6621 -1.1214  0.2102
 4586TIP3    H235318   5.056   5.177   2.023 -0.3274  0.4088 -0.0313
 4587TIP3   OH235319   5.862   0.855   8.498  1.0282  0.3704  0.4358
 4587TIP3    H135320   5.890   0.885   8.585 -0.5356  1.9942  0.4623
 4587TIP3    H235321   5.883   0.928   8.440 -0.2757  0.3842 -0.0556
 4588TIP3   OH235322   5.819   2.172   0.787 -0.2662  0.5469  0.4108
 4588TIP3    H135323   5.867   2.161   0.705  1.1707  0.1175  1.2690
 4588TIP3    H235324   5.778   2.257   0.780  0.6888  0.9658 -0.3425
 4589TIP3   OH235325   0.064   1.191   8.847 -0.7517 -0.4441  0.1570
 4589TIP3    H135326   0.077   1.097   8.846 -1.8600 -0.6104 -0.9953
 4589TIP3    H235327  -0.014   1.203   8.903 -1.8133 -0.4190 -1.2779
 4590TIP3   OH235328   1.669   2.759   2.480 -0.4634  0.1221 -0.3130
 4590TIP3    H135329   1.684   2.673   2.520 -0.2293 -0.7567 -2.1688
 4590TIP3    H235330   1.581   2.784   2.508 -0.2264 -0.3388  0.8938
 4591TIP3   OH235331   0.564   3.331   6.904  0.3279  0.3417 -0.1971
 4591TIP3    H135332   0.648   3.310   6.864  0.9785 -2.2418  2.2055
 4591TIP3    H235333   0.583   3.335   6.998 -2.2504 -0.4517  0.4198
 4592TIP3   OH235334   3.624   0.339   7.777  0.5490 -0.4368 -0.3395
 4592TIP3    H135335   3.543   0.332   7.726  0.4760  0.2922 -0.3271
 4592TIP3    H235336   3.680   0.269   7.742  1.3916  1.4409 -3.0429
 4593TIP3   OH235337   6.620   6.240   8.007  0.0452 -0.0656 -0.7451
 4593TIP3    H135338   6.557   6.171   8.027 -1.9465  1.4919 -1.3967
 4593TIP3    H235339   6.607   6.306   8.075  1.6534 -0.0890 -0.3597
 4594TIP3   OH235340   2.403   4.733   7.423 -0.1437 -0.5428  0.4337
 4594TIP3    H135341   2.488   4.698   7.396 -0.3889 -1.2870  0.6155
 4594TIP3    H235342   2.341   4.661   7.409 -0.3518 -0.8645  2.6418
 4595TIP3   OH235343   5.987   6.293   8.843 -0.5608  0.5269  0.0223
 4595TIP3    H135344   5.947   6.212   8.873  0.5401  0.1875  0.6293
 4595TIP3    H235345   6.058   6.310   8.905  2.7826 -0.9659 -3.0088
 4596TIP3   OH235346   5.896   2.696   8.108 -0.1316  0.2932 -0.1670
 4596TIP3    H135347   5.881   2.604   8.089  0.5160  0.1174  0.1507
 4596TIP3    H235348   5.893   2.739   8.022  0.1594 -0.1120 -0.3812
 4597TIP3   OH235349   5.291   0.423   2.354 -0.5415  0.6849 -0.1117
 4597TIP3    H135350   5.351   0.440   2.427  1.1834 -0.6192 -1.1539
 4597TIP3    H235351   5.228   0.360   2.390  0.3919 -0.0772  0.2091
 4598TIP3   OH235352   3.116   3.580   2.198  0.2633 -0.5040  0.2511
 4598TIP3    H135353   3.155   3.493   2.202  0.5220 -0.4123 -0.2309
 4598TIP3    H235354   3.189   3.638   2.177 -0.1100 -0.3138 -0.5361
 4599TIP3   OH235355   3.131   2.468   1.627  0.0091 -0.2471 -0.2308
 4599TIP3    H135356   3.098   2.409   1.694 -0.1077 -0.4758 -0.4867
 4599TIP3    H235357   3.184   2.531   1.675 -0.9863  0.2688  0.2160
 4600TIP3   OH235358   0.576   5.214   8.654 -0.6850 -0.0913  0.6211
 4600TIP3    H135359   0.637   5.284   8.679  0.0571 -0.5924  0.2300
 4600TIP3    H235360   0.575   5.217   8.559  0.4580 -1.5493  0.5453
 4601TIP3   OH235361   3.346   5.118   8.578 -0.4200  0.0256 -0.7034
 4601TIP3    H135362   3.360   5.052   8.646 -1.7008 -0.1925 -0.6200
 4601TIP3    H235363   3.333   5.068   8.498 -0.6736  0.1976 -0.7741
 4602TIP3   OH235364   1.299   4.827   6.815 -0.4045 -0.3350  0.2915
 4602TIP3    H135365   1.225   4.887   6.804 -0.6190 -0.6845 -0.1671
 4602TIP3    H235366   1.260   4.746   6.847 -0.1562 -0.3590  0.5439
 4603TIP3   OH235367   5.340   3.888   0.100 -0.4074 -0.3906 -0.3968
 4603TIP3    H135368   5.302   3.801   0.115 -0.3778 -0.3038  0.2239
 4603TIP3    H235369   5.405   3.899   0.170 -2.5741  1.3636  1.5292
 4604TIP3   OH235370   4.670   6.692   7.298  0.0315  0.4741 -0.1664
 4604TIP3    H135371   4.731   6.657   7.362 -1.9685  0.3698  1.8382
 4604TIP3    H235372   4.719   6.759   7.251  1.9360 -0.3085  0.6236
 4605TIP3   OH235373   5.404   4.982   0.995 -0.0557  0.6479 -0.6096
 4605TIP3    H135374   5.416   4.892   0.966 -2.1672  0.4628 -1.0556
 4605TIP3    H235375   5.418   4.979   1.090  1.5238  0.2144 -0.8274
 4606TIP3   OH235376   3.026   0.711   2.639  0.0810 -0.4239 -0.6133
 4606TIP3    H135377   3.072   0.628   2.657 -1.0603 -1.3447 -1.7217
 4606TIP3    H235378   3.054   0.770   2.709  2.5813 -1.0657 -0.9745
 4607TIP3   OH235379   4.396   5.697   1.724  0.0828  0.0784  0.9823
 4607TIP3    H135380   4.452   5.620   1.732  1.0232  0.7010  0.5825
 4607TIP3    H235381   4.389   5.731   1.813 -0.3461 -0.4754  1.1613
 4608TIP3   OH235382   0.055   6.504   1.803 -0.5345  0.2450  0.0678
 4608TIP3    H135383   0.122   6.438   1.821 -2.3203 -1.6728  0.0358
 4608TIP3    H235384   0.016   6.477   1.720 -1.9047  0.8114  0.4965
 4609TIP3   OH235385   3.620   3.822   8.258 -0.6460 -0.4386 -0.6551
 4609TIP3    H135386   3.583   3.854   8.176 -2.6582 -0.0036  0.3593
 4609TIP3    H235387   3.569   3.866   8.326  0.0340 -1.8397  0.8282
 4610TIP3   OH235388   1.359   2.612   0.333  0.5796 -0.3225 -0.3640
 4610TIP3    H135389   1.269   2.587   0.308  0.8339 -1.4531 -0.2342
 4610TIP3    H235390   1.347   2.681   0.398 -0.1317  1.3233 -2.1725
 4611TIP3   OH235391   6.273   3.044   0.649 -0.0081  0.6248  0.2129
 4611TIP3    H135392   6.187   3.075   0.619 -0.2615 -0.6562 -0.4495
 4611TIP3    H235393   6.253   2.988   0.725 -0.0756 -1.7604 -1.4470
 4612TIP3   OH235394   3.208   1.943   1.293  0.0770  0.3615 -0.0929
 4612TIP3    H135395   3.287   1.970   1.339 -0.4375  0.4513  0.7561
 4612TIP3    H235396   3.240   1.889   1.221  0.8798 -0.1845  0.6467
 4613TIP3   OH235397   2.627   5.679   0.321  0.1442 -0.4337  0.3710
 4613TIP3    H135398   2.544   5.633   0.330 -0.7373  0.7789 -1.1409
 4613TIP3    H235399   2.690   5.622   0.366 -1.2536 -2.0322  0.4350
 4614TIP3   OH235400   3.274   3.443   8.268  0.0144  0.4251 -0.1878
 4614TIP3    H135401   3.342   3.402   8.322  1.1047  2.2704 -0.0791
 4614TIP3    H235402   3.214   3.483   8.331 -0.1928  0.2989 -0.3056
 4615TIP3   OH235403   2.015   5.706   0.824 -0.6922 -0.3027 -0.1129
 4615TIP3    H135404   2.047   5.652   0.896  0.5207 -1.3419 -1.3733
 4615TIP3    H235405   2.070   5.785   0.826 -0.5465 -0.4084 -0.0105
 4616TIP3   OH235406   3.508   0.829   6.670  0.0967 -0.6207 -0.1514
 4616TIP3    H135407   3.601   0.804   6.675  0.2920  0.2454  0.9689
 4616TIP3    H235408   3.462   0.761   6.719  0.6696  1.2367  3.2611
 4617TIP3   OH235409   6.690   5.687   7.313 -0.4377 -0.3762 -0.5239
 4617TIP3    H135410   6.707   5.738   7.234 -0.9490  0.3810 -0.1540
 4617TIP3    H235411   6.644   5.609   7.282 -1.4221  0.3353 -0.8808
 4618TIP3   OH235412   2.633   6.025   6.843 -0.1550  0.9127  0.5855
 4618TIP3    H135413   2.635   5.975   6.761 -0.5533  0.9369  0.5593
 4618TIP3    H235414   2.691   6.100   6.826 -0.4142  1.0397  0.2454
 4619TIP3   OH235415   6.722   0.565   7.463 -0.2047  0.1884  0.3889
 4619TIP3    H135416   6.780   0.524   7.399 -0.7842  0.6785 -0.4746
 4619TIP3    H235417   6.701   0.496   7.525  1.6877  0.1182  1.0129
 4620TIP3   OH235418   2.618   2.713   8.108 -0.4386 -0.3113  0.0230
 4620TIP3    H135419   2.690   2.653   8.089 -2.0255 -2.1506 -0.6166
 4620TIP3    H235420   2.649   2.767   8.180  1.3770 -1.3624  0.0855
 4621TIP3   OH235421   0.505   1.496   2.153 -0.0514  0.1933  0.8062
 4621TIP3    H135422   0.593   1.531   2.167 -0.2987  0.3573  2.0270
 4621TIP3    H235423   0.510   1.405   2.183  1.1981 -1.8226 -4.3463
 4622TIP3   OH235424   6.097   0.685   8.466  0.1933 -0.1860 -0.8407
 4622TIP3    H135425   6.011   0.726   8.468  0.1832 -0.2228 -0.3621
 4622TIP3    H235426   6.149   0.742   8.409  0.4663  1.1167  0.6214
 4623TIP3   OH235427   1.883   5.167   0.679  0.1548  0.3335  0.0075
 4623TIP3    H135428   1.876   5.133   0.769  0.9686 -1.2785 -0.5016
 4623TIP3    H235429   1.906   5.260   0.691 -1.7664  0.7000  1.4458
 4624TIP3   OH235430   5.475   3.726   7.856 -0.1569  0.1899  0.6683
 4624TIP3    H135431   5.553   3.728   7.801 -1.2032 -3.1137 -1.2484
 4624TIP3    H235432   5.423   3.801   7.827  1.5306  1.4593  0.8067
 4625TIP3   OH235433   1.751   3.618   0.425 -0.1159 -0.5329  0.0168
 4625TIP3    H135434   1.721   3.586   0.340  0.4455 -0.7539 -0.1035
 4625TIP3    H235435   1.684   3.590   0.487 -0.4608 -0.4813 -0.3366
 4626TIP3   OH235436   6.058   1.652   1.988 -0.1217 -0.5272  0.4474
 4626TIP3    H135437   6.084   1.744   1.984 -0.2813 -0.5303 -1.6070
 4626TIP3    H235438   6.140   1.603   1.980  0.0051 -0.5990  1.9229
 4627TIP3   OH235439   3.939   5.920   1.018  0.2968  0.2393 -0.5354
 4627TIP3    H135440   3.963   5.889   1.106  0.7277  0.0927 -0.7029
 4627TIP3    H235441   3.867   5.863   0.992  0.8105 -0.3574 -0.6708
 4628TIP3   OH235442   6.737   1.428   1.879 -0.2936 -0.5017  0.4023
 4628TIP3    H135443   6.833   1.430   1.886  0.1371  2.5575 -3.1725
 4628TIP3    H235444   6.711   1.520   1.893 -2.2113 -0.5079 -2.4261
 4629TIP3   OH235445   3.209   2.326   7.909  0.1292  0.4708 -0.1294
 4629TIP3    H135446   3.201   2.234   7.935  0.9183  0.6670  0.8861
 4629TIP3    H235447   3.258   2.367   7.981  1.3100  1.3294 -1.3729
 4630TIP3   OH235448   1.937   4.622   2.157 -0.2540 -0.7538 -0.1265
 4630TIP3    H135449   2.004   4.647   2.094  0.3431 -0.4121  0.6347
 4630TIP3    H235450   1.969   4.541   2.196 -0.2447 -0.5529  0.2887
 4631TIP3   OH235451   4.607   6.725   1.225  0.3085 -0.7715  0.2991
 4631TIP3    H135452   4.556   6.783   1.282  0.9167  1.3064 -1.1450
 4631TIP3    H235453   4.697   6.733   1.258  0.3826 -0.9727  0.1439
 4632TIP3   OH235454   3.963   3.493   0.036  0.0102 -0.1343  0.1354
 4632TIP3    H135455   3.962   3.575  -0.013  1.8154 -0.3471 -0.3452
 4632TIP3    H235456   3.959   3.425  -0.032 -0.7684 -0.4517  0.4874
 4633TIP3   OH235457   0.561   0.608   8.941  0.1298 -0.0984 -0.5017
 4633TIP3    H135458   0.648   0.569   8.935 -0.9761 -2.8048 -0.5231
 4633TIP3    H235459   0.539   0.602   9.033  0.7142  2.5702 -0.1055
 4634TIP3   OH235460   1.409   6.514   1.293  0.1876 -0.1858  0.5245
 4634TIP3    H135461   1.421   6.607   1.273 -0.9291 -0.1578 -0.1025
 4634TIP3    H235462   1.333   6.511   1.352  1.0706 -0.5994  1.6780
 4635TIP3   OH235463   2.453   0.695   2.431 -0.3286 -0.0077 -0.4942
 4635TIP3    H135464   2.488   0.692   2.520 -0.0662 -1.1154 -0.6203
 4635TIP3    H235465   2.527   0.670   2.376 -0.9944 -1.2521 -0.8556
 4636TIP3   OH235466   6.102   6.292   2.813  0.0497 -0.1378 -0.0910
 4636TIP3    H135467   6.011   6.273   2.792 -0.4412 -0.1536  1.8239
 4636TIP3    H235468   6.125   6.227   2.879  1.6531 -0.5141 -0.9858
 4637TIP3   OH235469   6.070   2.877   1.614  0.2116 -0.8361 -0.5337
 4637TIP3    H135470   6.003   2.881   1.682  1.3056  2.2317  0.5581
 4637TIP3    H235471   6.032   2.925   1.540  0.2232 -1.4334 -0.9381
 4638TIP3   OH235472   5.798   0.856   1.449 -0.5173 -0.7457 -0.3828
 4638TIP3    H135473   5.749   0.922   1.498  1.3011 -0.3055  0.9697
 4638TIP3    H235474   5.806   0.891   1.361 -0.0391  0.6369  0.1788
 4639TIP3   OH235475   3.712   6.282   0.034  0.5486 -0.4868  0.0352
 4639TIP3    H135476   3.731   6.323   0.118  0.2731  0.4915 -0.3636
 4639TIP3    H235477   3.627   6.240   0.047  0.1568  0.2809  0.0531
 4640TIP3   OH235478   0.901   1.122   8.112 -0.0644  0.5269 -0.0176
 4640TIP3    H135479   0.891   1.216   8.099 -2.2901  0.3373 -0.0750
 4640TIP3    H235480   0.836   1.100   8.179 -0.4641 -1.1504 -0.9058
 4641TIP3   OH235481   5.703   1.554   7.920  0.2904 -0.3789 -0.2915
 4641TIP3    H135482   5.646   1.606   7.864  0.5991  0.4315  0.1308
 4641TIP3    H235483   5.732   1.615   7.989 -1.1049 -1.6356  1.5191
 4642TIP3   OH235484   1.418   3.050   2.297  0.2013 -0.4318 -0.1141
 4642TIP3    H135485   1.437   3.092   2.381 -1.2724  1.7004 -0.7510
 4642TIP3    H235486   1.501   3.051   2.250  0.3297  1.4803  0.0758
 4643TIP3   OH235487   1.602   1.266   7.749 -0.1767 -0.4760  0.3521
 4643TIP3    H135488   1.587   1.176   7.719 -1.1427  0.1838 -1.3282
 4643TIP3    H235489   1.514   1.301   7.764  0.2374 -0.3296  2.8048
 4644TIP3   OH235490   3.921   3.142   7.830  0.5617  0.3596 -0.3484
 4644TIP3    H135491   3.955   3.122   7.742  2.4314  0.6016  0.2778
 4644TIP3    H235492   3.973   3.217   7.859 -1.1602  1.3392  0.3484
 4645TIP3   OH235493   0.913   1.452   8.312 -0.1488  0.1153  0.2679
 4645TIP3    H135494   0.922   1.547   8.317  1.0827 -0.0456  2.2879
 4645TIP3    H235495   0.872   1.427   8.395 -0.8884 -1.1043 -0.4242
 4646TIP3   OH235496   1.258   3.136   1.133 -0.6259  0.1608 -0.2863
 4646TIP3    H135497   1.322   3.136   1.205 -3.6290 -3.1526  2.8064
 4646TIP3    H235498   1.301   3.185   1.063  2.6669  3.6220  3.5954
 4647TIP3   OH235499   5.180   1.815   1.955  0.5038 -0.1784 -0.4147
 4647TIP3    H135500   5.095   1.786   1.920  0.6960 -0.2321 -0.8487
 4647TIP3    H235501   5.180   1.910   1.940  0.4767 -0.1640 -0.3213
 4648TIP3   OH235502   1.974   4.436   0.562 -0.6613  0.2131  0.8425
 4648TIP3    H135503   1.942   4.349   0.588 -0.9364  0.1058  0.1801
 4648TIP3    H235504   1.900   4.475   0.516  0.9358 -1.1597 -3.3464
 4649TIP3   OH235505   0.931   6.677   1.839  0.1724  0.0939 -0.2280
 4649TIP3    H135506   0.981   6.614   1.788  1.0182  1.4301 -1.1087
 4649TIP3    H235507   0.995   6.740   1.870 -0.4448 -0.2033  1.8340
 4650TIP3   OH235508   2.221   4.268   8.714 -0.2294 -0.2093 -0.5165
 4650TIP3    H135509   2.307   4.242   8.745  0.1063  1.5472  0.1385
 4650TIP3    H235510   2.188   4.328   8.781 -2.4101 -1.6050 -0.2538
 4651TIP3   OH235511   0.995   3.153   7.243  0.2024 -0.1665  0.1536
 4651TIP3    H135512   1.035   3.067   7.259  0.1247 -0.1811  0.2726
 4651TIP3    H235513   0.902   3.134   7.230  0.3941 -0.2577 -1.2375
 4652TIP3   OH235514   0.411   1.477   0.604  0.0879  0.6362 -0.0552
 4652TIP3    H135515   0.496   1.433   0.612 -1.4307 -2.5511 -0.0724
 4652TIP3    H235516   0.431   1.570   0.620  3.4775 -0.0175  0.3152
 4653TIP3   OH235517   0.538   1.548   8.374  0.5169  0.1017  0.3060
 4653TIP3    H135518   0.608   1.498   8.415 -0.5435 -2.2543 -0.5759
 4653TIP3    H235519   0.470   1.554   8.442  1.1917  1.7008  0.8953
 4654TIP3   OH235520   3.147   1.911   8.003 -0.8968 -0.1709 -0.5890
 4654TIP3    H135521   3.201   1.927   8.080  0.2485 -1.1818 -1.1408
 4654TIP3    H235522   3.101   1.994   7.988  0.4391  0.7094 -0.0308
 4655TIP3   OH235523   6.313   1.655   0.261 -0.0085 -0.1745  0.1419
 4655TIP3    H135524   6.387   1.670   0.320 -1.4758  0.1129  2.0212
 4655TIP3    H235525   6.257   1.595   0.309 -1.5910  0.6021 -0.6584
 4656TIP3   OH235526   3.493   0.105   1.055 -0.4400  0.0781 -0.4539
 4656TIP3    H135527   3.561   0.043   1.030 -1.3842 -1.3158  0.3048
 4656TIP3    H235528   3.530   0.152   1.130 -0.8581 -1.7610  0.9599
 4657TIP3   OH235529   0.809   3.138   7.874  0.0031 -0.4041  0.5875
 4657TIP3    H135530   0.743   3.109   7.937 -1.7361 -1.5590 -1.6013
 4657TIP3    H235531   0.846   3.057   7.839 -0.5911  0.0873 -1.3186
 4658TIP3   OH235532   0.817   0.399   2.955  0.2477 -0.2143 -0.0828
 4658TIP3    H135533   0.854   0.469   3.008 -2.6985 -1.0248  3.3938
 4658TIP3    H235534   0.858   0.319   2.988  1.3620 -0.4752 -1.9545
 4659TIP3   OH235535   4.964   6.674   1.587  0.0376 -0.4099  0.2834
 4659TIP3    H135536   5.037   6.617   1.564  0.3897  0.0882  0.1496
 4659TIP3    H235537   5.001   6.738   1.648 -0.4857 -0.6681  0.8741
 4660TIP3   OH235538   4.961   5.241   7.383  0.3379 -0.2405  0.1819
 4660TIP3    H135539   5.009   5.194   7.315 -0.3448  0.8960 -1.1258
 4660TIP3    H235540   4.889   5.284   7.337  0.3053  1.2184  1.4932
 4661TIP3   OH235541   5.129   0.549   0.567 -0.7319 -0.2584 -0.1238
 4661TIP3    H135542   5.134   0.456   0.542  0.9719  0.1697 -1.5196
 4661TIP3    H235543   5.047   0.579   0.529 -0.6351 -0.8755 -0.8523
 4662TIP3   OH235544   6.545   1.421   0.706  0.4975 -0.4279  0.1191
 4662TIP3    H135545   6.638   1.432   0.723  1.2238 -0.1961 -3.3793
 4662TIP3    H235546   6.503   1.490   0.757  1.7162 -2.5804  4.5089
 4663TIP3   OH235547   6.019   4.964   8.790 -0.3341 -0.4375  0.0160
 4663TIP3    H135548   6.102   4.982   8.745  0.7018 -0.6125  1.7724
 4663TIP3    H235549   5.984   5.051   8.810 -0.2353 -0.3604 -0.1398
 4664TIP3   OH235550   3.406   0.690   7.664  0.0185  0.1498  0.2161
 4664TIP3    H135551   3.348   0.636   7.611 -2.0179  2.1361  0.2878
 4664TIP3    H235552   3.492   0.678   7.625 -0.3821 -2.8586  0.0557
 4665TIP3   OH235553   3.678   5.836   7.180  0.4907 -0.7821 -0.1600
 4665TIP3    H135554   3.688   5.771   7.111  1.5622  0.2993 -1.0762
 4665TIP3    H235555   3.730   5.911   7.150  0.3378  0.0184  1.4550
 4666TIP3   OH235556   3.897   1.844   6.855 -0.0464  0.6168  0.5842
 4666TIP3    H135557   3.977   1.817   6.809  0.0807  1.8144  0.0801
 4666TIP3    H235558   3.827   1.796   6.811  0.1549  1.2251 -0.4327
 4667TIP3   OH235559   0.430   1.873   7.999 -0.0503  0.1978 -0.6858
 4667TIP3    H135560   0.509   1.832   7.963 -0.5208 -0.0499 -1.4580
 4667TIP3    H235561   0.367   1.801   8.006  0.3469 -0.0061  1.6852
 4668TIP3   OH235562   3.566   1.881   1.241 -0.1171  0.3769  0.0661
 4668TIP3    H135563   3.605   1.811   1.189  0.5250 -1.1931  2.4759
 4668TIP3    H235564   3.639   1.918   1.290 -0.9582  0.4437  1.3156
 4669TIP3   OH235565   1.960   3.512   0.688  0.3357 -0.5993 -0.9663
 4669TIP3    H135566   1.969   3.437   0.630  0.3725 -1.1886 -0.2018
 4669TIP3    H235567   1.993   3.586   0.636  1.6968 -1.3352 -1.2034
 4670TIP3   OH235568   5.771   2.586   1.670  0.1106  0.6672 -0.4836
 4670TIP3    H135569   5.797   2.495   1.682 -0.1836  0.4687 -1.2803
 4670TIP3    H235570   5.705   2.601   1.737  0.8761  0.5987  0.2951
 4671TIP3   OH235571   5.923   6.255   2.613  0.1707 -0.1905  0.5442
 4671TIP3    H135572   5.967   6.297   2.539 -2.0170 -1.2357 -1.4988
 4671TIP3    H235573   5.830   6.259   2.591 -0.5389 -1.0993  3.0004
 4672TIP3   OH235574   0.968   5.337   2.403  0.5361  0.0370 -0.4862
 4672TIP3    H135575   1.008   5.317   2.488 -0.0943  1.3695  0.1540
 4672TIP3    H235576   0.979   5.257   2.352 -1.0596 -1.6363  1.5885
 4673TIP3   OH235577   5.823   5.268   1.645 -0.4646 -1.0758 -0.2527
 4673TIP3    H135578   5.892   5.211   1.612  0.5747 -0.3142  0.5169
 4673TIP3    H235579   5.838   5.271   1.740 -1.0643 -0.2611 -0.1726
 4674TIP3   OH235580   1.664   5.264   1.095  0.2726  0.7316 -0.0556
 4674TIP3    H135581   1.644   5.202   1.166  0.3498  1.6687  0.8016
 4674TIP3    H235582   1.626   5.223   1.017  1.1458 -0.8564  0.3056
 4675TIP3   OH235583   1.966   3.345   7.779  0.0276 -0.1037 -0.0204
 4675TIP3    H135584   2.000   3.308   7.697  1.3998  0.1477  0.4198
 4675TIP3    H235585   1.916   3.422   7.752 -0.3697 -0.5822 -0.6909
 4676TIP3   OH235586   3.812   4.700   2.067  0.0502  0.0810 -0.2079
 4676TIP3    H135587   3.840   4.627   2.123 -1.9150 -1.6665 -1.3458
 4676TIP3    H235588   3.778   4.765   2.127 -0.1262 -0.8691  0.7573
 4677TIP3   OH235589   0.152   1.824   7.673 -0.1944 -0.5543  0.7383
 4677TIP3    H135590   0.245   1.813   7.694 -0.1627 -0.7954  0.4824
 4677TIP3    H235591   0.118   1.880   7.742  0.2106 -0.2155  0.6682
 4678TIP3   OH235592   3.133   4.138   7.709  0.0438  0.0544  0.5452
 4678TIP3    H135593   3.076   4.130   7.786 -0.5813  1.7407  0.3220
 4678TIP3    H235594   3.072   4.153   7.637  0.7182  0.8407  0.1271
 4679TIP3   OH235595   5.069   5.505   0.269 -0.1020 -0.7254  0.0394
 4679TIP3    H135596   5.091   5.450   0.344  0.1193  0.7287  1.0837
 4679TIP3    H235597   5.101   5.592   0.293  0.9077 -0.4172 -2.1764
 4680TIP3   OH235598   2.404   4.690   6.772 -0.3423 -0.5371 -0.6616
 4680TIP3    H135599   2.330   4.678   6.714 -1.7134 -1.7501  1.2299
 4680TIP3    H235600   2.422   4.603   6.808  1.6396 -0.1649 -0.6351
 4681TIP3   OH235601   2.306   4.325   0.494  0.4026 -0.5589 -0.0390
 4681TIP3    H135602   2.231   4.312   0.553 -0.4282 -0.1917 -0.9901
 4681TIP3    H235603   2.382   4.323   0.552 -0.3798 -0.4078  1.0281
 4682TIP3   OH235604   6.315   0.832   1.378  0.3455 -0.1835 -0.6025
 4682TIP3    H135605   6.284   0.785   1.455 -1.0646 -0.0321 -1.0435
 4682TIP3    H235606   6.353   0.913   1.413 -0.6185  0.0613 -0.0740
 4683TIP3   OH235607   5.134   6.274   8.631  0.1355  0.5695 -0.0605
 4683TIP3    H135608   5.102   6.201   8.684  0.5753 -0.4573 -1.1951
 4683TIP3    H235609   5.140   6.347   8.693 -3.4104  0.5933  0.4848
 4684TIP3   OH235610   2.488   2.983   1.002  0.1369 -0.0413 -0.5538
 4684TIP3    H135611   2.482   3.079   0.993  1.0376  0.2469  1.3215
 4684TIP3    H235612   2.580   2.967   1.023  0.4007 -1.5341 -2.6147
 4685TIP3   OH235613   6.338   1.111   8.154 -0.4225  0.4886  0.0478
 4685TIP3    H135614   6.269   1.176   8.167 -0.2397  0.3886  1.6291
 4685TIP3    H235615   6.394   1.118   8.231 -0.3126 -1.4506  0.1988
 4686TIP3   OH235616   2.241   1.185   7.946 -0.1215  0.1749 -0.3213
 4686TIP3    H135617   2.235   1.171   7.851  0.2608  1.2736 -0.5278
 4686TIP3    H235618   2.230   1.098   7.984  0.5570 -0.4147 -1.4164
 4687TIP3   OH235619   0.603   3.528   7.135  0.2850 -0.2055 -0.3124
 4687TIP3    H135620   0.659   3.558   7.207  0.8087  1.9621 -1.5581
 4687TIP3    H235621   0.528   3.488   7.180  0.0030  2.1232  1.5424
 4688TIP3   OH235622   6.055   0.989   1.990 -0.1429  0.3618  0.2839
 4688TIP3    H135623   6.016   1.040   2.061 -1.9881  0.7561 -0.9709
 4688TIP3    H235624   6.127   1.044   1.958 -0.6148  1.1145  0.4929
 4689TIP3   OH235625   2.837   1.562   0.488 -0.3239 -0.5284  0.1516
 4689TIP3    H135626   2.829   1.592   0.397 -0.7037 -0.3753  0.2349
 4689TIP3    H235627   2.749   1.567   0.523 -0.1554 -0.4628  0.5718
 4690TIP3   OH235628   0.137   2.835   7.252 -0.0226 -0.4804  0.3894
 4690TIP3    H135629   0.124   2.822   7.158  0.0280  2.1461 -0.0642
 4690TIP3    H235630   0.187   2.759   7.281  2.0464 -0.2498 -2.2190
 4691TIP3   OH235631   0.359   5.624   6.940 -0.0209 -0.0366  0.3938
 4691TIP3    H135632   0.410   5.583   7.011 -0.1200 -0.3547  0.2850
 4691TIP3    H235633   0.287   5.562   6.924  0.3647 -0.2938 -0.4257
 4692TIP3   OH235634   1.958   2.545   2.347 -0.0347 -0.0046 -0.0064
 4692TIP3    H135635   1.999   2.458   2.351 -0.5732 -0.3716 -1.8104
 4692TIP3    H235636   2.013   2.595   2.286 -0.3131  0.6070  0.2347
 4693TIP3   OH235637   2.961   0.995   1.971  0.0162  0.1028  0.1026
 4693TIP3    H135638   2.971   0.971   2.063  0.7178 -0.7282 -0.1787
 4693TIP3    H235639   2.987   1.087   1.968  1.3237 -0.2304  0.5254
 4694TIP3   OH235640   2.138   5.806   0.537 -0.1702  0.5784  0.1903
 4694TIP3    H135641   2.134   5.733   0.599  1.0384  1.5436  1.4587
 4694TIP3    H235642   2.085   5.875   0.576 -0.9838  0.5410 -0.8114
 4695TIP3   OH235643   5.664   4.852   8.209 -0.5392  0.4916 -0.1895
 4695TIP3    H135644   5.625   4.770   8.176  0.1377  0.1820 -0.2248
 4695TIP3    H235645   5.741   4.824   8.258 -0.7311  1.0616  0.4436
 4696TIP3   OH235646   4.222   3.139   7.154  0.4204 -0.6842  0.4900
 4696TIP3    H135647   4.282   3.207   7.122  0.4325 -0.0648  1.7908
 4696TIP3    H235648   4.212   3.080   7.079  1.3535  0.0932 -0.2823
 4697TIP3   OH235649   3.404   5.199   7.534  0.6807 -0.6300  0.1792
 4697TIP3    H135650   3.343   5.172   7.603  0.6822 -1.4094 -0.1163
 4697TIP3    H235651   3.491   5.188   7.572  0.7103 -1.7261 -0.1556
 4698TIP3   OH235652   1.912   3.820   0.987  0.3443  1.0653 -0.0548
 4698TIP3    H135653   1.914   3.746   1.047 -2.8882  1.1255  0.3300
 4698TIP3    H235654   1.995   3.865   1.001  1.8874 -1.7503  0.5748
 4699TIP3   OH235655   3.634   5.287   1.593  0.7686  0.0367 -0.2512
 4699TIP3    H135656   3.576   5.306   1.667  1.3819  0.1044  0.2245
 4699TIP3    H235657   3.721   5.312   1.624  0.7357  2.4568 -1.8793
 4700TIP3   OH235658   3.681   5.534   8.270  0.2857  0.0859  0.2179
 4700TIP3    H135659   3.645   5.471   8.332 -0.5994 -0.1220 -0.4837
 4700TIP3    H235660   3.676   5.618   8.315 -1.8261  0.1913 -0.0914
 4701TIP3   OH235661   3.187   3.609   2.624 -0.1807  0.3427  0.4188
 4701TIP3    H135662   3.143   3.528   2.598  1.0087 -0.1359 -0.1868
 4701TIP3    H235663   3.251   3.582   2.690 -0.0781  0.8656  0.5389
 4702TIP3   OH235664   3.346   2.686   2.370 -0.3770  0.1727 -0.5090
 4702TIP3    H135665   3.433   2.697   2.333  0.1795  0.4401  0.7932
 4702TIP3    H235666   3.335   2.592   2.378  0.3548  0.1517  0.5113
 4703TIP3   OH235667   6.724   2.658   1.242 -0.4644 -0.2165 -0.1298
 4703TIP3    H135668   6.690   2.746   1.259  1.7824  0.7951 -0.5143
 4703TIP3    H235669   6.715   2.647   1.148 -1.2622 -0.6681 -0.0146
 4704TIP3   OH235670   4.030   5.617   8.944  0.1788  0.0882 -0.1395
 4704TIP3    H135671   4.003   5.640   9.033 -0.7766  3.7065 -1.1878
 4704TIP3    H235672   3.967   5.662   8.888  1.4168 -1.1593 -2.6888
 4705TIP3   OH235673   2.317   0.103   1.070 -0.1647  0.8276  0.4161
 4705TIP3    H135674   2.332   0.021   1.116  0.7674  0.6226 -0.2229
 4705TIP3    H235675   2.303   0.167   1.140 -1.7061  0.0039  0.9026
 4706TIP3   OH235676   0.885   5.834   7.662 -0.1216 -0.8219  0.0100
 4706TIP3    H135677   0.944   5.800   7.595 -0.3879  2.1727 -1.9824
 4706TIP3    H235678   0.938   5.897   7.711 -0.4339 -1.6506  1.4734
 4707TIP3   OH235679   0.859   0.480   6.728 -0.3993  0.6722 -0.2301
 4707TIP3    H135680   0.807   0.519   6.658  1.9120  2.3293 -1.1446
 4707TIP3    H235681   0.880   0.553   6.786 -0.3007 -0.2498  0.9553
 4708TIP3   OH235682   2.370   4.435   8.412 -0.2484  0.6733  0.7028
 4708TIP3    H135683   2.365   4.435   8.316 -0.3404 -0.7418  0.6861
 4708TIP3    H235684   2.281   4.459   8.440 -0.2187  1.1055  0.4387
 4709TIP3   OH235685   5.025   1.101   1.247  0.4204  0.4108 -0.0490
 4709TIP3    H135686   5.058   1.061   1.166  1.9953  0.8862  0.3204
 4709TIP3    H235687   5.055   1.192   1.243  0.4996  0.4468  1.0434
 4710TIP3   OH235688   5.724   2.095   7.988 -0.4934  0.1665  0.0073
 4710TIP3    H135689   5.634   2.127   7.993 -1.5907 -2.7059  0.7383
 4710TIP3    H235690   5.750   2.081   8.079 -0.2297 -1.2733 -0.2666
 4711TIP3   OH235691   1.045   1.143   7.069  0.5652 -0.2996 -0.1365
 4711TIP3    H135692   1.103   1.082   7.114 -1.5748 -1.5677  1.0787
 4711TIP3    H235693   1.016   1.095   6.991  0.2747 -0.1502 -0.1235
 4712TIP3   OH235694   3.757   1.773   0.440 -0.0388  0.7072  0.2589
 4712TIP3    H135695   3.708   1.741   0.516  1.4827 -2.8176 -0.0315
 4712TIP3    H235696   3.835   1.813   0.478  0.7628 -1.1200  0.6466
 4713TIP3   OH235697   3.313   3.507   2.401 -0.0464 -0.6390  0.3915
 4713TIP3    H135698   3.277   3.579   2.452 -0.0967 -1.5196  1.6475
 4713TIP3    H235699   3.393   3.482   2.447 -0.2894 -1.6992  0.2692
 4714TIP3   OH235700   0.586   5.218   0.443  0.2730  0.2953 -0.0374
 4714TIP3    H135701   0.524   5.182   0.379 -0.0271  1.3454 -0.3569
 4714TIP3    H235702   0.653   5.150   0.452 -0.7783 -0.7500  0.1233
 4715TIP3   OH235703   4.424   2.171   7.957  0.0200 -0.3771  0.5967
 4715TIP3    H135704   4.420   2.240   7.890  1.7421  0.2404  1.0765
 4715TIP3    H235705   4.345   2.119   7.942 -0.2652  0.4600 -1.1291
 4716TIP3   OH235706   2.888   3.144   7.824 -0.1901 -0.4598 -0.6327
 4716TIP3    H135707   2.919   3.187   7.745 -2.3331  3.7275  0.5341
 4716TIP3    H235708   2.965   3.140   7.881  0.5051  0.0893 -1.5122
 4717TIP3   OH235709   6.598   5.908   8.091  0.4277 -0.1814 -0.3320
 4717TIP3    H135710   6.518   5.949   8.057  1.1913  0.7340 -1.0799
 4717TIP3    H235711   6.584   5.905   8.186 -0.9785 -1.1226 -0.5260
 4718TIP3   OH235712   5.813   5.141   0.479 -0.2844  0.6446 -0.0321
 4718TIP3    H135713   5.846   5.163   0.566 -0.4371  1.2510 -0.1277
 4718TIP3    H235714   5.820   5.045   0.475  0.9430  0.6999  0.1636
 4719TIP3   OH235715   0.825   4.707   2.075  0.4562 -0.1351  0.6640
 4719TIP3    H135716   0.754   4.654   2.038  0.0984  0.2563  0.7886
 4719TIP3    H235717   0.785   4.791   2.095  0.3445 -0.6458  2.9248
 4720TIP3   OH235718   4.029   5.021   1.921 -0.4434  0.1826  0.2993
 4720TIP3    H135719   3.976   5.014   1.841  0.0310  0.0672 -0.0040
 4720TIP3    H235720   3.967   5.003   1.992 -0.7367 -0.2944 -0.0764
 4721TIP3   OH235721   4.526   1.264   1.867 -0.2096 -0.0728  0.3814
 4721TIP3    H135722   4.501   1.356   1.863  1.0884  0.2687 -1.1675
 4721TIP3    H235723   4.445   1.216   1.847 -0.7174  0.7641  0.3894
 4722TIP3   OH235724   4.487   5.113   7.921 -0.0842  0.2091  0.0696
 4722TIP3    H135725   4.550   5.122   7.992  0.6262  1.3693 -0.6673
 4722TIP3    H235726   4.447   5.199   7.913 -0.7872 -0.1449 -0.3653
 4723TIP3   OH235727   0.567   4.425   8.934  0.2831 -0.2935  0.1862
 4723TIP3    H135728   0.623   4.474   8.874  0.1067  0.1861  0.4143
 4723TIP3    H235729   0.626   4.400   9.006  0.2661 -0.0346  0.2887
 4724TIP3   OH235730   4.452   2.817   8.733 -0.2053  0.1493 -0.0799
 4724TIP3    H135731   4.508   2.741   8.749 -0.5240 -1.1646 -4.0296
 4724TIP3    H235732   4.367   2.792   8.769  0.0241 -0.8424 -0.1955
 4725TIP3   OH235733   3.986   2.815   1.035  0.2736  0.3140  0.1672
 4725TIP3    H135734   3.928   2.753   0.990  1.4349  0.2552 -1.3348
 4725TIP3    H235735   3.969   2.800   1.128 -0.8612 -0.9043 -0.1959
 4726TIP3   OH235736   5.349   0.142   1.688  0.2743  0.4069  0.2520
 4726TIP3    H135737   5.374   0.116   1.777  1.6421  0.2958 -0.1306
 4726TIP3    H235738   5.264   0.102   1.674 -0.5812  1.5068  1.9651
 4727TIP3   OH235739   0.255   3.339   0.051  0.1556  0.0912 -0.5331
 4727TIP3    H135740   0.324   3.359   0.116 -1.8825 -0.9016  2.1158
 4727TIP3    H235741   0.185   3.400   0.072 -1.3214 -1.5602 -0.4995
 4728TIP3   OH235742   0.749   3.267   7.409 -0.4414 -0.6003 -0.4945
 4728TIP3    H135743   0.719   3.211   7.337  1.5733 -0.8019 -1.2333
 4728TIP3    H235744   0.749   3.355   7.373 -2.7072 -0.1852  0.3785
 4729TIP3   OH235745   4.523   5.172   7.452 -0.1262  0.1493 -0.0121
 4729TIP3    H135746   4.593   5.234   7.429  0.1606  0.0449  0.5626
 4729TIP3    H235747   4.473   5.162   7.371  0.0924  0.7860 -0.2371
 4730TIP3   OH235748   4.222   5.737   2.560 -0.4369  0.1744 -0.1765
 4730TIP3    H135749   4.144   5.686   2.539  0.3407 -1.3710  0.5240
 4730TIP3    H235750   4.221   5.744   2.655  0.7558 -0.6790 -0.0875
 4731TIP3   OH235751   5.609   1.057   7.718  0.2118  0.4156  0.1741
 4731TIP3    H135752   5.527   1.063   7.766 -1.2779  0.0976 -2.2070
 4731TIP3    H235753   5.613   0.966   7.688  2.2643 -0.0243  1.5342
 4732TIP3   OH235754   5.701   3.322   2.354  0.3181  0.2963  0.7167
 4732TIP3    H135755   5.745   3.277   2.426 -0.5702 -1.2802  0.3148
 4732TIP3    H235756   5.752   3.403   2.342 -0.6498  1.6389  4.3763
 4733TIP3   OH235757   3.749   5.566   7.080  0.1281 -0.0751 -0.1028
 4733TIP3    H135758   3.746   5.481   7.036 -0.8891 -0.8713  1.4346
 4733TIP3    H235759   3.840   5.594   7.071  0.3700 -1.1085 -1.0351
 4734TIP3   OH235760   3.175   1.011   0.264  0.5242  0.5448  0.0044
 4734TIP3    H135761   3.156   1.005   0.357 -0.2892 -0.0485 -0.1890
 4734TIP3    H235762   3.112   0.952   0.222 -0.6523  2.5111 -1.1179
 4735TIP3   OH235763   6.037   3.388   0.746 -0.0410 -0.2160 -0.7795
 4735TIP3    H135764   6.073   3.467   0.706  1.6831 -0.7812 -0.4329
 4735TIP3    H235765   6.059   3.396   0.839 -3.3420  0.7239  0.0625
 4736TIP3   OH235766   5.657   2.517   7.599  0.1916 -0.4575 -0.4136
 4736TIP3    H135767   5.690   2.526   7.510  0.7007 -0.5257 -0.2310
 4736TIP3    H235768   5.659   2.423   7.616 -0.3772 -0.4939 -0.5039
 4737TIP3   OH235769   5.273   0.969   8.226  0.1101  0.1945 -0.0236
 4737TIP3    H135770   5.257   0.935   8.138 -1.6421 -0.1806  0.4050
 4737TIP3    H235771   5.230   0.906   8.284  1.2617  0.4236  1.1205
 4738TIP3   OH235772   1.382   3.602   2.200 -0.0648 -0.7473  0.3224
 4738TIP3    H135773   1.345   3.691   2.202 -0.2295 -0.7429 -1.3429
 4738TIP3    H235774   1.309   3.545   2.223 -1.5103 -0.8050 -3.6649
 4739TIP3   OH235775   1.427   4.328   8.131 -0.5893 -0.4688  0.0831
 4739TIP3    H135776   1.463   4.327   8.042 -0.1757 -1.3857  0.2466
 4739TIP3    H235777   1.385   4.413   8.139 -0.5248 -0.3270 -0.9515
 4740TIP3   OH235778   5.724   5.938   2.777 -0.2629 -0.2326  0.0582
 4740TIP3    H135779   5.682   6.023   2.789 -1.9909 -1.0133 -0.1742
 4740TIP3    H235780   5.693   5.885   2.850 -0.1126 -0.9985 -0.4231
 4741TIP3   OH235781   5.470   1.231   1.729  0.9449  0.3196 -1.0739
 4741TIP3    H135782   5.425   1.237   1.813  0.5783 -1.3438 -1.1199
 4741TIP3    H235783   5.556   1.195   1.750  1.0778  0.4761 -1.3414
 4742TIP3   OH235784   5.623   4.559   7.389  0.2727 -0.0285 -0.4031
 4742TIP3    H135785   5.693   4.600   7.338 -1.0231  0.0259 -2.2372
 4742TIP3    H235786   5.542   4.589   7.347 -0.9502  0.7575  2.2656
 4743TIP3   OH235787   6.130   3.901   7.386 -0.1853  0.2285 -0.0605
 4743TIP3    H135788   6.153   3.826   7.332 -1.2428 -0.1602  0.0230
 4743TIP3    H235789   6.212   3.951   7.392  0.0810  0.0436 -1.6280
 4744TIP3   OH235790   6.181   2.428   7.359 -0.6468  0.2833 -0.2744
 4744TIP3    H135791   6.262   2.478   7.351  0.0403 -0.6237  0.7899
 4744TIP3    H235792   6.194   2.351   7.303 -1.4203  0.8936 -1.3433
 4745TIP3   OH235793   2.795   5.080   7.245  0.2008  0.4263  0.8509
 4745TIP3    H135794   2.795   5.001   7.300 -1.8076  0.0020  0.3129
 4745TIP3    H235795   2.741   5.057   7.170  4.3278  0.3082 -2.4384
 4746TIP3   OH235796   3.812   2.812   8.194 -0.0660 -0.2060 -0.1540
 4746TIP3    H135797   3.854   2.826   8.109  1.6590 -1.1092  0.5105
 4746TIP3    H235798   3.884   2.791   8.253 -1.3193 -0.3456  1.3741
 4747TIP3   OH235799   1.872   5.882   1.705 -0.0965  0.7758 -0.5462
 4747TIP3    H135800   1.927   5.926   1.769  2.8477 -1.5246 -1.2735
 4747TIP3    H235801   1.900   5.917   1.621 -0.6452  0.4939 -0.8543
 4748TIP3   OH235802   4.360   0.744   1.764  0.0076 -0.2199  0.1817
 4748TIP3    H135803   4.268   0.721   1.748 -0.3250  1.2301 -0.1856
 4748TIP3    H235804   4.387   0.789   1.684  1.3734 -1.5300 -0.1299
 4749TIP3   OH235805   3.145   3.730   7.891 -0.8102  0.0158 -0.0790
 4749TIP3    H135806   3.224   3.710   7.941  0.0335  1.3605 -0.8073
 4749TIP3    H235807   3.080   3.666   7.921  0.5398 -1.0968  0.5603
 4750TIP3   OH235808   3.470   1.171   8.401  0.0891 -0.5488  0.5857
 4750TIP3    H135809   3.447   1.097   8.458  1.1138 -1.0050  0.4247
 4750TIP3    H235810   3.557   1.198   8.432  0.9666 -1.2326 -1.1883
 4751TIP3   OH235811   3.247   5.949   1.010 -0.4253 -0.0023  0.0830
 4751TIP3    H135812   3.176   5.990   0.961 -1.1639 -0.2886  0.8934
 4751TIP3    H235813   3.290   6.021   1.056  0.4886  0.3158 -1.2307
 4752TIP3   OH235814   4.668   4.696   1.982 -0.3184 -0.1521 -0.4756
 4752TIP3    H135815   4.581   4.727   1.957 -0.8991 -0.7467  0.7398
 4752TIP3    H235816   4.657   4.601   1.991  0.6284 -0.3181 -0.9442
 4753TIP3   OH235817   0.712   5.445   8.729 -0.1862  0.2965 -0.2160
 4753TIP3    H135818   0.688   5.536   8.746  0.0075 -0.0510  2.3685
 4753TIP3    H235819   0.807   5.445   8.727 -0.0604 -0.0880  2.1211
 4754TIP3   OH235820   1.875   1.491   1.904  0.0262 -0.6062 -0.1896
 4754TIP3    H135821   1.794   1.538   1.923 -0.2964 -0.8418 -0.9588
 4754TIP3    H235822   1.919   1.544   1.838  0.0375 -0.9744 -0.4808
 4755TIP3   OH235823   2.741   0.252   0.983 -0.1304  0.3831 -0.2074
 4755TIP3    H135824   2.696   0.204   1.053  0.6247  0.3249  0.2460
 4755TIP3    H235825   2.829   0.268   1.017  0.3684  0.0243 -1.2903
 4756TIP3   OH235826   3.476   5.452   8.701  0.3878  0.5581  0.2785
 4756TIP3    H135827   3.439   5.392   8.766  1.1281 -0.0051  0.1842
 4756TIP3    H235828   3.539   5.399   8.652 -0.6946  0.7675 -1.4139
 4757TIP3   OH235829   2.447   5.884   0.811 -0.6979  0.3694 -0.4857
 4757TIP3    H135830   2.482   5.943   0.878  0.0089  1.3073 -1.6504
 4757TIP3    H235831   2.509   5.889   0.739 -2.2637  0.6714 -1.8907
 4758TIP3   OH235832   2.797   0.651   2.341  0.2010 -0.2569 -0.6188
 4758TIP3    H135833   2.748   0.694   2.271 -1.4039  2.1835  1.7469
 4758TIP3    H235834   2.742   0.577   2.366 -1.5602  1.4092  0.8066
 4759TIP3   OH235835   2.184   5.759   1.653  0.2627 -0.1770 -0.5562
 4759TIP3    H135836   2.129   5.795   1.583 -1.1186 -1.0462  0.0506
 4759TIP3    H235837   2.185   5.665   1.637  2.0325 -0.1427 -0.8503
 4760TIP3   OH235838   3.244   5.810   8.142  0.0637  0.4644  0.2719
 4760TIP3    H135839   3.285   5.767   8.217 -0.2965 -0.1204  0.1362
 4760TIP3    H235840   3.180   5.869   8.180  1.2250  1.6402  0.5063
 4761TIP3   OH235841   0.250   1.469   2.016 -0.3070 -0.3750  0.3831
 4761TIP3    H135842   0.181   1.448   2.078 -0.1554  0.8191  0.9778
 4761TIP3    H235843   0.313   1.520   2.066 -0.4106  1.0341 -0.8517
 4762TIP3   OH235844   6.067   0.193   1.875 -0.1994  0.4380 -0.1946
 4762TIP3    H135845   5.971   0.197   1.875 -0.2175  0.7277 -1.9902
 4762TIP3    H235846   6.089   0.156   1.789  1.2432 -1.9269  1.0809
 4763TIP3   OH235847   5.607   2.524   1.429  0.7664 -0.7599 -0.5158
 4763TIP3    H135848   5.586   2.435   1.455  0.6008 -1.0608 -1.6160
 4763TIP3    H235849   5.659   2.559   1.501 -1.5721 -0.7352  1.3046
 4764TIP3   OH235850   2.692   0.211   8.865  0.1136  0.8589  0.5144
 4764TIP3    H135851   2.778   0.190   8.902 -0.1513  1.5111  1.5587
 4764TIP3    H235852   2.648   0.261   8.934 -0.9646  0.8631 -0.1504
 4765TIP3   OH235853   2.402   6.716   0.050 -0.0186  0.4287  0.1769
 4765TIP3    H135854   2.349   6.702  -0.028 -0.6011 -1.0949  0.8162
 4765TIP3    H235855   2.362   6.661   0.117  0.4641  1.6917  1.5759
 4766TIP3   OH235856   6.022   4.096   2.481 -0.0299  0.4689 -0.5614
 4766TIP3    H135857   5.996   4.175   2.529 -1.6902 -1.9238  2.9125
 4766TIP3    H235858   5.941   4.066   2.439 -0.0056 -0.5632  0.0887
 4767TIP3   OH235859   0.495   5.869   0.466  0.9419 -0.1738  0.6545
 4767TIP3    H135860   0.480   5.914   0.550  2.0720 -2.5137  2.2350
 4767TIP3    H235861   0.565   5.806   0.485  0.9575 -1.0708 -1.9759
 4768TIP3   OH235862   6.558   6.125   6.890  0.8627  0.6292 -0.4834
 4768TIP3    H135863   6.644   6.099   6.922  1.7393  2.8218 -0.8271
 4768TIP3    H235864   6.546   6.214   6.923 -0.4845  1.0319 -1.9007
 4769TIP3   OH235865   4.063   0.644   8.021 -0.2484 -0.4120 -0.4477
 4769TIP3    H135866   4.156   0.648   8.043 -0.2805 -0.4550 -0.3025
 4769TIP3    H235867   4.028   0.728   8.049  0.0333  0.2014 -1.8504
 4770TIP3   OH235868   5.287   5.680   7.165 -0.1717 -0.4500 -0.1653
 4770TIP3    H135869   5.329   5.595   7.151  0.7110 -0.1121  0.3086
 4770TIP3    H235870   5.198   5.659   7.192 -0.1725 -1.2068 -0.7090
 4771TIP3   OH235871   5.323   4.169   7.458 -0.3378 -0.0952 -0.0968
 4771TIP3    H135872   5.317   4.117   7.377 -1.7317 -0.5054  0.2273
 4771TIP3    H235873   5.306   4.259   7.429  0.4308 -0.0462 -0.4261
 4772TIP3   OH235874   6.250   6.488   7.076  0.3130  0.4183 -0.3981
 4772TIP3    H135875   6.345   6.482   7.062  0.5154  1.2982  0.4905
 4772TIP3    H235876   6.212   6.480   6.988  0.9944 -2.9952 -0.5345
 4773TIP3   OH235877   4.288   4.774   0.017 -0.3423 -0.3555  0.3970
 4773TIP3    H135878   4.349   4.747  -0.052 -0.0795  0.6056  0.2387
 4773TIP3    H235879   4.345   4.808   0.086 -0.6944  1.3396 -0.0885
 4774TIP3   OH235880   4.188   5.623   1.568  0.2536  0.2117 -0.5180
 4774TIP3    H135881   4.277   5.621   1.604  1.1526  1.8399 -2.5014
 4774TIP3    H235882   4.178   5.711   1.533 -1.6934 -0.3515 -1.4955
 4775TIP3   OH235883   1.253   4.011   8.481 -0.8636 -0.1279  0.3963
 4775TIP3    H135884   1.246   3.985   8.389 -0.2800  1.0750 -0.0007
 4775TIP3    H235885   1.162   4.018   8.510 -1.0834  0.4226 -0.3725
 4776TIP3   OH235886   3.272   2.705   2.025  0.4472  0.0794  0.4348
 4776TIP3    H135887   3.198   2.658   2.064 -0.5071  1.4947  0.3702
 4776TIP3    H235888   3.307   2.759   2.096  0.1303  0.9462 -0.0517
 4777TIP3   OH235889   3.917   5.842   2.613 -0.0129 -0.0793  0.0660
 4777TIP3    H135890   3.849   5.818   2.675 -1.6492  0.7017 -1.3142
 4777TIP3    H235891   3.965   5.761   2.596 -1.0644 -0.8117  0.5323
 4778TIP3   OH235892   5.337   2.747   2.150 -0.2478  0.5629  0.0607
 4778TIP3    H135893   5.411   2.685   2.146 -0.6686 -0.0885  1.4695
 4778TIP3    H235894   5.260   2.691   2.165 -0.7829  1.3467  0.2955
 4779TIP3   OH235895   5.285   4.589   8.580  0.3064 -0.1344  0.5320
 4779TIP3    H135896   5.239   4.530   8.520  0.5576 -2.7702  2.7698
 4779TIP3    H235897   5.374   4.594   8.545  0.1997 -0.8644  0.1345
 4780TIP3   OH235898   0.588   1.225   8.520  0.1945 -0.1873 -0.0538
 4780TIP3    H135899   0.492   1.235   8.518 -0.0017 -1.6741  0.4018
 4780TIP3    H235900   0.602   1.145   8.570  1.5951 -1.0348 -1.6847
 4781TIP3   OH235901   5.469   4.499   0.705 -0.0046  0.8803  1.1313
 4781TIP3    H135902   5.549   4.463   0.668 -0.4026  1.5116 -0.4349
 4781TIP3    H235903   5.465   4.589   0.673 -1.8363  0.5535  0.2628
 4782TIP3   OH235904   2.108   3.608   2.927  0.1823  0.0338  0.1780
 4782TIP3    H135905   2.106   3.701   2.951  0.5881 -0.0381  0.4993
 4782TIP3    H235906   2.019   3.577   2.944 -0.3613  0.6839 -1.2562
 4783TIP3   OH235907   0.400   2.950   1.818  0.0138 -0.3332 -0.6718
 4783TIP3    H135908   0.463   2.961   1.747  2.1652 -1.5754  0.9255
 4783TIP3    H235909   0.445   2.983   1.895 -1.2073 -1.4749  0.5807
 4784TIP3   OH235910   2.132   5.268   8.038  0.1161 -0.0207 -0.0164
 4784TIP3    H135911   2.168   5.292   7.953 -0.2278 -0.6783 -0.3559
 4784TIP3    H235912   2.170   5.182   8.057  1.3993  0.7658  1.2205
 4785TIP3   OH235913   0.128   4.490   8.725  0.0589 -0.0810 -0.5626
 4785TIP3    H135914   0.191   4.440   8.673  0.8348 -0.7397  0.9516
 4785TIP3    H235915   0.178   4.518   8.802 -0.7876  1.7149 -0.6112
 4786TIP3   OH235916   3.552   0.045   1.491  0.1728 -0.4667 -0.4209
 4786TIP3    H135917   3.569   0.114   1.427  0.6372 -1.3822 -1.3103
 4786TIP3    H235918   3.595  -0.032   1.454  0.8795 -0.9019  1.2414
 4787TIP3   OH235919   2.462   1.387   2.224 -0.4083 -0.0640 -0.3602
 4787TIP3    H135920   2.459   1.292   2.236 -1.5692  0.1460  1.5238
 4787TIP3    H235921   2.370   1.413   2.222 -0.1219  1.2008  1.1411
 4788TIP3   OH235922   6.307   0.910   1.683 -0.0168 -0.1091 -0.5346
 4788TIP3    H135923   6.234   0.871   1.732  1.4163 -0.8441  1.0937
 4788TIP3    H235924   6.296   1.005   1.695 -0.0417 -0.2580  0.7013
 4789TIP3   OH235925   5.372   5.912   0.410 -0.0313  0.3686 -0.4244
 4789TIP3    H135926   5.324   5.993   0.424 -0.6556 -0.1989  0.8348
 4789TIP3    H235927   5.464   5.938   0.409 -0.2233  1.0781  0.0312
 4790TIP3   OH235928   1.031   0.060   0.790  0.0258  0.4843  0.1039
 4790TIP3    H135929   0.994  -0.018   0.747  0.6587  0.2064  0.0445
 4790TIP3    H235930   0.964   0.088   0.852 -0.0098 -0.4056  0.4809
 4791TIP3   OH235931   2.598   0.155   1.207 -0.1300 -0.3638  0.5565
 4791TIP3    H135932   2.553   0.117   1.282 -0.4733 -0.1217  0.4742
 4791TIP3    H235933   2.604   0.248   1.227  0.3435 -0.3957  0.5713
 4792TIP3   OH235934   5.001   3.452   7.249  0.2623  0.0659 -0.1914
 4792TIP3    H135935   5.060   3.381   7.222 -0.1977 -0.3113 -0.2264
 4792TIP3    H235936   4.922   3.438   7.197 -1.0943 -1.3581  2.0408
 4793TIP3   OH235937   0.076   3.834   8.487  0.2357  0.1424  0.0666
 4793TIP3    H135938   0.117   3.826   8.401 -0.6429  1.6337 -0.5199
 4793TIP3    H235939  -0.016   3.855   8.468  0.1250  0.9208  1.3647
 4794TIP3   OH235940   2.078   4.727   2.498 -0.4002 -0.4530 -0.5076
 4794TIP3    H135941   2.037   4.667   2.436 -1.6375 -1.0656  0.8490
 4794TIP3    H235942   2.060   4.688   2.584  0.6575  0.7361  0.2823
 4795TIP3   OH235943   2.609   5.084   0.089  0.1305  0.3929  0.0115
 4795TIP3    H135944   2.679   5.034   0.132  2.4497  1.6731 -2.0425
 4795TIP3    H235945   2.531   5.064   0.141  1.7610 -1.9538  1.8070
 4796TIP3   OH235946   4.620   1.873   2.252 -0.5244 -0.0679  0.7465
 4796TIP3    H135947   4.540   1.908   2.212 -0.1640 -0.6232 -0.5268
 4796TIP3    H235948   4.637   1.930   2.327 -1.9915  0.1850  0.9100
 4797TIP3   OH235949   1.597   4.297   1.959 -0.5697  0.4250 -0.1601
 4797TIP3    H135950   1.673   4.300   2.017  0.1684 -0.1149 -1.0699
 4797TIP3    H235951   1.584   4.387   1.931  0.9547  0.2718 -1.5060
 4798TIP3   OH235952   2.525   2.666   7.693 -0.2539 -0.0585  0.1554
 4798TIP3    H135953   2.567   2.593   7.740  1.2000 -0.0328 -1.0195
 4798TIP3    H235954   2.484   2.718   7.762  1.8170 -0.0101  1.4565
 4799TIP3   OH235955   1.100   2.588   0.267  0.0921 -0.5377  0.2831
 4799TIP3    H135956   1.022   2.537   0.248 -0.9916  1.2526 -0.2730
 4799TIP3    H235957   1.078   2.638   0.345  0.7565 -0.1355  0.2218
 4800TIP3   OH235958   2.607   5.528   8.317 -0.2193  0.5830 -0.6414
 4800TIP3    H135959   2.664   5.531   8.241  1.9239  1.7280  0.9131
 4800TIP3    H235960   2.608   5.618   8.352 -2.5999  0.5371 -0.2410
 4801TIP3   OH235961   5.626   5.863   1.204  0.1499  0.3612  0.1887
 4801TIP3    H135962   5.618   5.850   1.109 -1.6367  1.4727  0.1416
 4801TIP3    H235963   5.661   5.951   1.213  1.9669 -0.3653  0.5865
 4802TIP3   OH235964   4.269   3.241   0.479  0.1566 -0.0899 -0.2755
 4802TIP3    H135965   4.218   3.238   0.397 -0.8975  0.9386  0.3067
 4802TIP3    H235966   4.243   3.162   0.526 -0.9133  0.3961 -0.0077
 4803TIP3   OH235967   6.053   2.121   0.157 -0.2797  0.0206  0.0108
 4803TIP3    H135968   6.029   2.068   0.233 -0.0472 -1.4865 -0.9260
 4803TIP3    H235969   6.043   2.062   0.082  0.7524  1.0750 -1.0022
 4804TIP3   OH235970   0.501   4.382   8.038  0.5480 -0.2192  0.4276
 4804TIP3    H135971   0.557   4.453   8.069  0.4959 -0.7910  1.9225
 4804TIP3    H235972   0.448   4.421   7.969  0.7130  1.1086  1.0249
 4805TIP3   OH235973   2.629   6.181   8.718  0.4688  0.6116  0.0760
 4805TIP3    H135974   2.719   6.209   8.704  0.3975  0.6110 -0.4078
 4805TIP3    H235975   2.592   6.248   8.775  0.1097  1.9098 -1.5894
 4806TIP3   OH235976   4.890   1.804   6.570 -0.2899 -0.2421  0.5668
 4806TIP3    H135977   4.901   1.865   6.497  1.4484 -1.9638 -0.7379
 4806TIP3    H235978   4.960   1.826   6.631  1.3552 -1.7990 -0.6478
 4807TIP3   OH235979   5.919   2.172   8.435 -0.5967  0.0851  0.2426
 4807TIP3    H135980   5.960   2.249   8.397 -0.6442 -0.6046 -1.2605
 4807TIP3    H235981   5.914   2.191   8.529  2.1160  0.6627  0.3328
 4808TIP3   OH235982   1.692   2.489   2.358  0.3652  0.1899 -0.7869
 4808TIP3    H135983   1.652   2.434   2.426 -1.3490  0.0110 -1.8818
 4808TIP3    H235984   1.785   2.491   2.380 -0.0275 -0.4885  1.1175
 4809TIP3   OH235985   3.818   3.619   1.671  0.2550 -0.2975 -0.3320
 4809TIP3    H135986   3.900   3.663   1.647  0.9139 -0.0217  2.1227
 4809TIP3    H235987   3.765   3.688   1.712 -0.8205 -0.6978 -1.0079
 4810TIP3   OH235988   0.477   0.194   8.679  0.1232 -0.1757 -0.4944
 4810TIP3    H135989   0.501   0.115   8.728 -0.2280  0.0672  0.0716
 4810TIP3    H235990   0.473   0.263   8.745  1.7854  0.6277 -1.1699
 4811TIP3   OH235991   0.855   1.524   2.436 -0.5979  0.0553  0.1162
 4811TIP3    H135992   0.941   1.566   2.435  0.0477 -1.2053 -0.3129
 4811TIP3    H235993   0.852   1.475   2.353 -1.7312  0.0731  0.1318
 4812TIP3   OH235994   0.419   3.023   6.964  0.2012 -0.1714  0.1434
 4812TIP3    H135995   0.513   3.005   6.970  0.5986  1.4937 -0.3746
 4812TIP3    H235996   0.392   3.039   7.054  0.8659  1.2531  0.1129
 4813TIP3   OH235997   4.122   2.441   8.621 -0.0311  0.6841 -0.3186
 4813TIP3    H135998   4.070   2.412   8.696  0.1553  0.0315 -0.4330
 4813TIP3    H235999   4.211   2.445   8.654  0.4015 -1.6276 -0.9941
 4814TIP3   OH236000   1.646   0.259   2.181 -0.5321 -0.4766  0.2783
 4814TIP3    H136001   1.705   0.203   2.231 -1.3424 -1.5437  0.0846
 4814TIP3    H236002   1.687   0.268   2.095 -0.0494 -0.1820  0.5384
 4815TIP3   OH236003   5.672   6.480   0.150  0.5478 -0.3202 -0.6318
 4815TIP3    H136004   5.693   6.472   0.243 -1.5982 -0.1993 -0.1050
 4815TIP3    H236005   5.607   6.413   0.133 -0.6620  1.0220 -1.5305
 4816TIP3   OH236006   0.204   1.814   2.271 -0.3754  0.1574 -0.0057
 4816TIP3    H136007   0.193   1.837   2.363  0.2296  3.4970 -0.6349
 4816TIP3    H236008   0.286   1.764   2.268 -1.1855 -1.3302  1.3858
 4817TIP3   OH236009   4.734   3.600   0.170 -0.0957  0.5588 -0.0619
 4817TIP3    H136010   4.670   3.536   0.199  0.3253 -0.3311 -1.0305
 4817TIP3    H236011   4.692   3.646   0.097 -0.4335  1.4760  0.6889
 4818TIP3   OH236012   3.657   2.907   1.187 -0.0709  0.1220 -0.1654
 4818TIP3    H136013   3.738   2.857   1.176  0.2052  0.3749  0.6488
 4818TIP3    H236014   3.595   2.845   1.227 -0.5893 -0.3441 -1.6222
 4819TIP3   OH236015   5.330   2.777   1.858 -0.5228  0.0210  0.1517
 4819TIP3    H136016   5.300   2.776   1.949 -1.6418 -1.5364 -0.1777
 4819TIP3    H236017   5.271   2.716   1.813  1.8498 -1.5780 -1.0098
 4820TIP3   OH236018   0.326   2.863   7.501 -0.4901  0.1401  0.4934
 4820TIP3    H136019   0.295   2.787   7.549  0.1031 -0.9635 -0.8041
 4820TIP3    H236020   0.392   2.903   7.558 -0.9317 -0.2195  1.2565
 4821TIP3   OH236021   6.299   0.258   7.185  0.0305  0.2773  0.1563
 4821TIP3    H136022   6.357   0.182   7.188  1.2824  0.8787 -3.4667
 4821TIP3    H236023   6.357   0.334   7.192 -0.5580  0.8742 -0.9920
 4822TIP3   OH236024   4.940   0.171   8.758 -0.9387  0.1627  0.4809
 4822TIP3    H136025   5.002   0.156   8.829  0.9220  0.2876 -1.0443
 4822TIP3    H236026   4.862   0.122   8.784  0.0566 -0.6488  2.0998
 4823TIP3   OH236027   5.627   2.673   8.494  0.5526  0.2725 -0.0661
 4823TIP3    H136028   5.546   2.671   8.442 -0.8817  0.3093  2.0470
 4823TIP3    H236029   5.687   2.725   8.442 -1.5868  2.3462 -0.6446
 4824TIP3   OH236030   5.489   0.996   1.928  0.0718 -0.4331 -0.3420
 4824TIP3    H136031   5.546   1.022   1.855  0.4099 -1.4488 -0.4573
 4824TIP3    H236032   5.518   1.051   2.001 -0.0989  0.4192 -0.8892
 4825TIP3   OH236033   4.025   3.336   6.993 -0.3956 -1.2154  0.2203
 4825TIP3    H136034   4.092   3.278   7.029 -0.5341 -1.8277 -0.4899
 4825TIP3    H236035   4.074   3.412   6.960 -0.0258 -1.7319 -0.4413
 4826TIP3   OH236036   5.252   4.427   2.977 -0.1409 -0.1982 -0.1356
 4826TIP3    H136037   5.196   4.391   2.908  0.2700 -0.0006 -0.5872
 4826TIP3    H236038   5.192   4.473   3.036 -0.3420  1.3710 -1.4676
 4827TIP3   OH236039   1.619   5.312   7.138  0.0822 -0.4480 -0.3892
 4827TIP3    H136040   1.537   5.291   7.184 -0.1126  0.9636 -0.0301
 4827TIP3    H236041   1.590   5.355   7.057  0.4593  1.1179  0.2843
 4828TIP3   OH236042   6.325   5.172   2.781  0.0947 -0.4182  0.3226
 4828TIP3    H136043   6.262   5.229   2.823  1.6517  0.0855  2.0749
 4828TIP3    H236044   6.372   5.228   2.720 -0.2437 -0.5052 -0.0280
 4829TIP3   OH236045   2.258   0.537   7.887  0.1076  0.3832  1.1149
 4829TIP3    H136046   2.204   0.530   7.809 -0.3630 -0.5340  1.5115
 4829TIP3    H236047   2.340   0.494   7.864  0.2160  0.7020  0.9083
 4830TIP3   OH236048   5.561   3.930   0.671  0.0647 -0.5426 -0.0861
 4830TIP3    H136049   5.517   3.888   0.744 -0.4551  0.4876  0.2202
 4830TIP3    H236050   5.490   3.965   0.617  0.4718 -0.2898 -0.4670
 4831TIP3   OH236051   4.148   1.306   0.109 -0.3789 -0.3149  0.6552
 4831TIP3    H136052   4.122   1.239   0.046 -2.0003 -0.5680  1.5358
 4831TIP3    H236053   4.118   1.388   0.071 -0.5566 -0.3660  0.6847
 4832TIP3   OH236054   4.517   2.491   7.276 -0.0548 -0.1039  0.3308
 4832TIP3    H136055   4.476   2.568   7.237  0.0421 -0.4220 -0.4255
 4832TIP3    H236056   4.590   2.526   7.326 -0.7764  0.4014  1.0595
 4833TIP3   OH236057   4.050   1.833   1.713  0.7986 -0.0690 -0.3958
 4833TIP3    H136058   4.095   1.755   1.747  2.0951  0.2107 -1.3805
 4833TIP3    H236059   3.974   1.798   1.667  0.1236 -0.5798  1.0613
 4834TIP3   OH236060   0.134   3.838   8.035  0.7270 -0.6009  0.1020
 4834TIP3    H136061   0.126   3.758   8.088  2.1018 -0.4539  0.5527
 4834TIP3    H236062   0.227   3.845   8.016  0.6687  1.0822  0.3403
 4835TIP3   OH236063   4.856   3.791   8.570 -0.5683 -0.3473  0.0717
 4835TIP3    H136064   4.833   3.776   8.662 -0.7037 -0.6512 -0.0091
 4835TIP3    H236065   4.885   3.705   8.538 -1.8402 -0.5782 -0.5428
 4836TIP3   OH236066   0.427   2.123   0.112  0.0360  0.2261  0.2265
 4836TIP3    H136067   0.333   2.140   0.115  0.4071  2.4663  1.6364
 4836TIP3    H236068   0.464   2.200   0.069  1.3290  0.0395  0.9539
 4837TIP3   OH236069   6.292   3.218   0.433  0.3547 -0.5206  0.7164
 4837TIP3    H136070   6.247   3.302   0.419 -0.9859 -1.6007 -2.6310
 4837TIP3    H236071   6.229   3.166   0.483  0.1402 -0.3103  0.6696
 4838TIP3   OH236072   4.837   6.443   7.926 -0.3621 -0.4052  0.1126
 4838TIP3    H136073   4.923   6.401   7.936 -0.4024 -0.9079 -1.4321
 4838TIP3    H236074   4.839   6.516   7.988  0.6964 -1.1594  1.0080
 4839TIP3   OH236075   1.282   3.302   2.590  0.4592  0.2691  0.0188
 4839TIP3    H136076   1.268   3.232   2.653 -1.8616 -0.1678 -0.8989
 4839TIP3    H236077   1.364   3.278   2.546  0.3021 -1.2461  0.4985
 4840TIP3   OH236078   5.907   5.892   1.436 -0.5039  0.5603 -0.2171
 4840TIP3    H136079   5.865   5.926   1.357  1.5826  2.7143 -0.5126
 4840TIP3    H236080   5.877   5.950   1.506 -1.1197 -0.3847  0.3251
 4841TIP3   OH236081   3.725   2.048   7.740 -0.0151  0.2929  0.2529
 4841TIP3    H136082   3.737   2.079   7.829  2.7255  1.6961 -0.4864
 4841TIP3    H236083   3.770   1.964   7.738  1.1619  0.9140 -0.1092
 4842TIP3   OH236084   4.636   4.620   6.979  0.2378  0.8488  0.0759
 4842TIP3    H136085   4.555   4.670   6.971  0.2740  0.9641  0.4021
 4842TIP3    H236086   4.703   4.686   6.995  0.4857  0.8008 -0.7628
 4843TIP3   OH236087   5.885   4.744   8.851 -0.5765 -0.2411 -0.2164
 4843TIP3    H136088   5.811   4.759   8.910  0.5927 -0.6670  1.3858
 4843TIP3    H236089   5.927   4.830   8.842 -0.5144 -0.2621 -0.1207
 4844TIP3   OH236090   6.556   3.361   7.686  0.1879  0.1532 -0.4099
 4844TIP3    H136091   6.531   3.447   7.720  0.9375  0.6275 -1.0173
 4844TIP3    H236092   6.648   3.351   7.709  0.1128 -0.4760 -0.3688
 4845TIP3   OH236093   3.515   2.902   1.543 -1.0286 -0.4524  0.1257
 4845TIP3    H136094   3.466   2.953   1.478  0.4750  1.3576  0.3548
 4845TIP3    H236095   3.479   2.929   1.627 -0.4618 -0.0142  0.2308
 4846TIP3   OH236096   4.808   4.443   6.881 -0.2406 -0.3900 -0.0531
 4846TIP3    H136097   4.866   4.511   6.845 -0.1597  0.6827  1.9728
 4846TIP3    H236098   4.729   4.491   6.907 -0.5267 -1.2297  0.6419
 4847TIP3   OH236099   1.922   4.891   1.412 -0.1729 -0.1101  0.2017
 4847TIP3    H136100   1.916   4.807   1.368 -0.1435 -0.4573  0.8524
 4847TIP3    H236101   1.888   4.875   1.500 -2.7167  1.1443 -0.4506
 4848TIP3   OH236102   5.921   2.220   7.841  0.3206 -0.2176 -0.1743
 4848TIP3    H136103   5.883   2.240   7.755  0.8910  3.0189  0.2308
 4848TIP3    H236104   5.846   2.200   7.896 -0.2595  0.1258 -0.8234
 4849TIP3   OH236105   6.235   0.516   1.220 -0.3340 -0.4598 -0.1471
 4849TIP3    H136106   6.286   0.435   1.231  0.8680  0.1477 -1.0048
 4849TIP3    H236107   6.221   0.548   1.309  1.2697 -0.3710  0.1029
 4850TIP3   OH236108   6.022   3.344   7.023  0.2672 -0.0293  0.3297
 4850TIP3    H136109   6.015   3.403   7.097  2.2344  0.4811  0.1710
 4850TIP3    H236110   5.939   3.296   7.022 -0.0986  0.4846  2.3737
 4851TIP3   OH236111   1.834   4.199   0.600 -0.4911  0.8236  0.3114
 4851TIP3    H136112   1.740   4.217   0.603 -0.1854  2.5444  1.3414
 4851TIP3    H236113   1.852   4.153   0.682 -0.4869  0.1941 -0.0420
 4852TIP3   OH236114   2.637   1.689   7.712 -0.0487 -0.3101 -0.0724
 4852TIP3    H136115   2.619   1.717   7.802  1.3689  0.0038  0.1302
 4852TIP3    H236116   2.720   1.643   7.717  0.8064  0.9762 -1.4396
 4853TIP3   OH236117   5.244   4.860   1.226  0.8516  0.2435 -0.3525
 4853TIP3    H136118   5.195   4.914   1.288  0.6285  0.9875 -1.1428
 4853TIP3    H236119   5.335   4.886   1.238  0.5999  2.1947 -1.9451
 4854TIP3   OH236120   5.540   1.054   8.879  0.1512  0.1885  0.4124
 4854TIP3    H136121   5.451   1.080   8.857  1.3120  3.2292 -1.3472
 4854TIP3    H236122   5.584   1.045   8.794  1.5814 -1.0703  1.2321
 4855TIP3   OH236123   6.088   0.114   1.610  0.4670  0.0336 -0.2534
 4855TIP3    H136124   6.172   0.153   1.583  1.7680 -2.0604  0.5690
 4855TIP3    H236125   6.042   0.097   1.527 -0.2119  3.2257 -0.6565
 4856TIP3   OH236126   1.710   2.669   8.932 -0.3665  0.4298 -0.6290
 4856TIP3    H136127   1.636   2.702   8.881 -1.6471  0.4369  1.1365
 4856TIP3    H236128   1.674   2.655   9.020  1.8843  0.9601  0.4398
 4857TIP3   OH236129   2.034   0.539   2.010 -0.2682 -0.3450  0.0299
 4857TIP3    H136130   2.112   0.485   1.999  0.4956  0.6796  0.2943
 4857TIP3    H236131   1.996   0.510   2.094 -0.5290 -1.2566 -0.3863
 4858TIP3   OH236132   0.285   6.229   7.235 -0.0268  0.1276  0.2011
 4858TIP3    H136133   0.237   6.158   7.193  0.1410  0.0860  0.0783
 4858TIP3    H236134   0.251   6.231   7.324  0.3691 -0.4940  0.3809
 4859TIP3   OH236135   6.549   2.245   0.506  0.6670 -0.7412 -0.0353
 4859TIP3    H136136   6.534   2.263   0.599  0.5901 -0.0278 -0.1761
 4859TIP3    H236137   6.644   2.237   0.498  0.5781 -2.8669  0.4447
 4860TIP3   OH236138   1.378   1.548   1.806 -0.8412  0.1821  0.1790
 4860TIP3    H136139   1.322   1.478   1.773  1.0713 -0.6693 -1.4298
 4860TIP3    H236140   1.426   1.508   1.879 -0.1599 -0.0283 -0.3773
 4861TIP3   OH236141   4.937   2.482   8.175 -0.6822 -0.3888  0.0326
 4861TIP3    H136142   4.873   2.540   8.133  0.8505  0.3112 -1.4502
 4861TIP3    H236143   4.972   2.534   8.248  0.2441  0.3624 -0.9187
 4862TIP3   OH236144   5.210   3.473   0.207  0.0239  0.3417 -0.2588
 4862TIP3    H136145   5.139   3.427   0.162  0.0204 -0.4370  0.5290
 4862TIP3    H236146   5.168   3.550   0.245 -0.1961  0.4113 -0.6381
 4863TIP3   OH236147   3.175   6.086   0.776 -0.2071  0.1362 -0.5005
 4863TIP3    H136148   3.238   6.158   0.772 -0.2204  0.0963 -3.1252
 4863TIP3    H236149   3.214   6.017   0.722  0.8053 -2.8281  3.4706
 4864TIP3   OH236150   2.241   5.556   7.116  0.3817 -0.4546  0.7988
 4864TIP3    H136151   2.201   5.484   7.067  0.9532 -1.3027  1.5450
 4864TIP3    H236152   2.335   5.546   7.102  0.4123  1.5913 -1.0365
 4865TIP3   OH236153   5.491   3.315   1.380 -0.5199  0.0244  0.1361
 4865TIP3    H136154   5.458   3.344   1.295  1.9580 -0.7425 -1.2045
 4865TIP3    H236155   5.420   3.334   1.442 -2.1085  1.3261 -1.9543
 4866TIP3   OH236156   2.084   1.655   8.482 -0.3628  0.5576 -0.0056
 4866TIP3    H136157   2.043   1.631   8.398  0.4150  0.6037 -0.4089
 4866TIP3    H236158   2.043   1.596   8.546  0.4815 -0.9085 -0.7511
 4867TIP3   OH236159   1.418   5.284   8.084 -0.1370  0.0988  0.0879
 4867TIP3    H136160   1.403   5.190   8.091 -1.3128  0.3208  0.9377
 4867TIP3    H236161   1.502   5.292   8.038 -0.4765 -1.3325 -0.8316
 4868TIP3   OH236162   6.158   4.820   0.031  0.3115  0.0924 -0.0544
 4868TIP3    H136163   6.168   4.912   0.056  1.0973  0.3759 -1.3337
 4868TIP3    H236164   6.092   4.821  -0.039  1.5553 -0.0840 -1.2621
 4869TIP3   OH236165   4.995   1.953   0.318  0.3043  0.1140 -0.0277
 4869TIP3    H136166   4.929   1.884   0.328  1.1475 -0.6408  0.4359
 4869TIP3    H236167   5.060   1.934   0.385  0.3600  1.6072  0.3930
 4870TIP3   OH236168   3.386   4.106   8.241 -0.4491  0.3268  0.8721
 4870TIP3    H136169   3.366   4.171   8.174 -1.8266  1.2473  2.1020
 4870TIP3    H236170   3.359   4.022   8.203 -0.7116  0.7654  0.0856
 4871TIP3   OH236171   5.044   2.828   2.211  0.6230  0.7264 -0.2130
 4871TIP3    H136172   5.087   2.811   2.127  0.0726  0.7130 -0.4955
 4871TIP3    H236173   5.098   2.782   2.275 -1.0292 -2.6098 -0.9668
 4872TIP3   OH236174   6.711   0.860   0.979  0.2218  0.2453 -0.1771
 4872TIP3    H136175   6.793   0.905   0.958 -0.1748  0.5088 -1.1784
 4872TIP3    H236176   6.670   0.916   1.045  0.5322  0.4590 -0.1627
 4873TIP3   OH236177   3.601   2.808   0.254 -0.3887 -0.3174 -0.6491
 4873TIP3    H136178   3.528   2.867   0.235  0.6468  1.6723  1.1363
 4873TIP3    H236179   3.561   2.735   0.301 -1.1788  1.2053  1.1768
 4874TIP3   OH236180   4.443   3.969   8.630  0.4745  0.0622  0.1669
 4874TIP3    H136181   4.471   3.888   8.674  3.6073 -0.1188 -1.8723
 4874TIP3    H236182   4.349   3.957   8.616  0.5963 -2.6487  1.1159
 4875TIP3   OH236183   6.620   6.505   7.919 -0.8814 -0.1376 -0.5073
 4875TIP3    H136184   6.529   6.516   7.892 -0.4798 -1.2493 -2.5128
 4875TIP3    H236185   6.630   6.411   7.933 -0.1778  0.0389  0.2658
 4876TIP3   OH236186   3.117   2.398   8.868 -0.6135  0.2823 -0.0732
 4876TIP3    H136187   3.127   2.474   8.925  0.5114  0.7868 -0.9028
 4876TIP3    H236188   3.192   2.342   8.890 -0.9810 -0.2016 -0.0456
 4877TIP3   OH236189   1.409   6.558   1.839  0.1593  0.3869 -0.2688
 4877TIP3    H136190   1.367   6.472   1.830 -1.5717  1.2306 -0.7544
 4877TIP3    H236191   1.397   6.599   1.753  1.9660  0.7131 -0.3960
 4878TIP3   OH236192   3.918   5.934   7.551  0.5099  0.0754 -0.0955
 4878TIP3    H136193   3.935   5.909   7.460  1.7421  2.2049 -0.5275
 4878TIP3    H236194   3.874   6.019   7.544 -0.4495 -0.2708  1.3075
 4879TIP3   OH236195   6.473   2.047   0.325  0.2667  0.0084 -0.7274
 4879TIP3    H136196   6.414   1.990   0.373  0.4131  0.0041 -0.5517
 4879TIP3    H236197   6.505   2.109   0.391  1.7140 -0.9875 -0.4480
 4880TIP3   OH236198   4.124   5.087   1.464 -0.0197 -0.3833 -0.2993
 4880TIP3    H136199   4.097   5.178   1.477 -0.0100 -0.2941 -0.8752
 4880TIP3    H236200   4.077   5.038   1.531 -2.2216 -0.3414 -1.7025
 4881TIP3   OH236201   1.119   5.074   2.058  0.4429  0.2579 -0.2437
 4881TIP3    H136202   1.029   5.081   2.025  0.3752 -0.9906 -0.3890
 4881TIP3    H236203   1.110   5.070   2.153  0.2692 -0.6511 -0.2901
 4882TIP3   OH236204   1.096   1.363   6.881 -0.0400  0.3240  0.0462
 4882TIP3    H136205   1.111   1.324   6.967 -0.7120 -0.9935 -0.4148
 4882TIP3    H236206   1.043   1.299   6.834  0.4973  0.9162 -1.4369
 4883TIP3   OH236207   4.366   2.145   1.118 -0.0031  0.5581 -0.1400
 4883TIP3    H136208   4.452   2.153   1.077  1.3047 -1.5490  1.9636
 4883TIP3    H236209   4.314   2.094   1.055  1.0066 -0.0605 -0.4858
 4884TIP3   OH236210   3.180   2.608   7.465  0.0860 -0.7826 -0.6889
 4884TIP3    H136211   3.257   2.638   7.515  0.0547 -1.5259 -0.1768
 4884TIP3    H236212   3.106   2.627   7.522  0.1483 -2.7874  0.1476
 4885TIP3   OH236213   5.665   5.738   0.010  1.0242  0.2679 -0.0571
 4885TIP3    H136214   5.689   5.829  -0.004  0.6160  0.4218  0.2138
 4885TIP3    H236215   5.749   5.692   0.016  1.2243  0.5287 -0.7767
 4886TIP3   OH236216   2.986   6.316   0.989 -0.4402  0.2158  0.5188
 4886TIP3    H136217   3.078   6.298   1.007 -0.5038 -2.2870 -1.1851
 4886TIP3    H236218   2.986   6.401   0.945  1.0437  0.2918  0.6323
 4887TIP3   OH236219   5.005   2.892   1.265 -0.2198  0.6794  0.2042
 4887TIP3    H136220   5.100   2.896   1.276 -0.3406  0.2862  1.6158
 4887TIP3    H236221   4.977   2.824   1.326 -1.0640 -1.8035 -2.7011
 4888TIP3   OH236222   5.340   3.569   1.885  0.4426 -0.1330 -0.6596
 4888TIP3    H136223   5.408   3.626   1.849  1.8847 -1.5530 -0.3230
 4888TIP3    H236224   5.327   3.602   1.974  1.2048 -0.2391 -0.4957
 4889TIP3   OH236225   3.376   0.406   8.948  1.2144  1.0673  0.0146
 4889TIP3    H136226   3.370   0.463   9.025 -1.1643 -0.4530  1.0742
 4889TIP3    H236227   3.424   0.329   8.980  0.6818  0.6634 -0.1328
 4890TIP3   OH236228   0.571   1.103   1.410 -0.3456 -0.0151  0.6040
 4890TIP3    H136229   0.523   1.186   1.410 -0.6323 -0.1553 -0.4809
 4890TIP3    H236230   0.646   1.119   1.352  0.4696 -0.0516  1.6293
 4891TIP3   OH236231   0.488   2.116   0.385  0.3084  0.1068  0.5915
 4891TIP3    H136232   0.566   2.171   0.393  0.1517  0.2759  0.9962
 4891TIP3    H236233   0.458   2.130   0.296  1.7648 -1.3583 -0.1972
 4892TIP3   OH236234   5.419   3.067   0.225 -0.1242 -0.4155  0.2390
 4892TIP3    H136235   5.498   3.045   0.176  0.1749 -0.6932  0.8377
 4892TIP3    H236236   5.422   3.163   0.234  0.0654 -0.4121  0.1323
 4893TIP3   OH236237   4.600   5.859   1.135  0.3266  0.2861 -0.4930
 4893TIP3    H136238   4.511   5.877   1.104 -0.0059 -0.3619  0.0566
 4893TIP3    H236239   4.590   5.785   1.195  0.9633  1.3882  1.0354
 4894TIP3   OH236240   2.580   2.730   2.025 -0.4081 -0.1950  0.4383
 4894TIP3    H136241   2.530   2.707   2.104 -0.2937  1.0889  0.9107
 4894TIP3    H236242   2.557   2.663   1.961  0.4481 -2.0055  1.9326
 4895TIP3   OH236243   0.523   3.067   2.050  0.1269 -0.2856  0.0615
 4895TIP3    H136244   0.552   3.010   2.122  1.2175 -0.7696 -0.7420
 4895TIP3    H236245   0.604   3.091   2.004 -0.4695  0.7372 -0.4835
 4896TIP3   OH236246   6.379   6.613   7.713  0.1844  0.8536 -0.7251
 4896TIP3    H136247   6.337   6.685   7.759  1.6919  0.1969  1.8836
 4896TIP3    H236248   6.451   6.654   7.665  1.1862  1.1571  0.9374
 4897TIP3   OH236249   4.536   5.069   1.209  0.4076  0.8462  0.6212
 4897TIP3    H136250   4.544   5.140   1.145 -0.7277  0.8034  0.4098
 4897TIP3    H236251   4.462   5.095   1.264 -1.1099 -0.9091 -0.4542
 4898TIP3   OH236252   0.391   5.829   8.180  0.1651 -0.9834 -0.0113
 4898TIP3    H136253   0.446   5.883   8.237  1.7887 -1.4540 -1.0616
 4898TIP3    H236254   0.431   5.837   8.093 -2.2904 -0.2082 -1.1516
 4899TIP3   OH236255   6.683   0.719   8.921  0.5153 -0.0804 -0.6180
 4899TIP3    H136256   6.590   0.728   8.938  0.8389  0.1835  1.2452
 4899TIP3    H236257   6.699   0.625   8.919  0.7761 -0.2450  3.0798
 4900TIP3   OH236258   6.343   0.064   1.067  0.0568  0.6574  0.3692
 4900TIP3    H136259   6.380   0.001   1.004 -0.0480  1.6351 -0.7056
 4900TIP3    H236260   6.249   0.066   1.046  0.0795  1.2530  0.3138
 4901TIP3   OH236261   5.231   1.748   7.407  0.6108  0.4398 -0.0862
 4901TIP3    H136262   5.194   1.712   7.327  0.3180  0.6754 -0.0565
 4901TIP3    H236263   5.248   1.840   7.387 -2.5145  1.4242  1.1007
 4902TIP3   OH236264   1.601   3.081   2.998 -0.0138  0.3775  0.4567
 4902TIP3    H136265   1.545   3.139   2.947 -0.7572 -0.4443  0.3137
 4902TIP3    H236266   1.549   3.002   3.010  0.1117  0.5426  2.5298
 4903TIP3   OH236267   1.058   5.272   8.021 -0.0440  0.0250  0.2216
 4903TIP3    H136268   0.995   5.289   7.952 -1.3383 -1.7595  0.8929
 4903TIP3    H236269   1.117   5.206   7.985 -0.8043 -1.0120  0.8096
 4904TIP3   OH236270   4.256   3.492   0.397 -0.4257  0.1862  0.2622
 4904TIP3    H136271   4.170   3.505   0.437 -0.4715  0.0823  0.1985
 4904TIP3    H236272   4.290   3.413   0.440 -1.2996 -1.0854 -1.2801
 4905TIP3   OH236273   1.237   6.526   2.042 -0.1893 -0.2893  0.1808
 4905TIP3    H136274   1.284   6.551   1.962  0.0104  0.8010  0.6289
 4905TIP3    H236275   1.160   6.479   2.010 -1.0263  1.6213 -0.7433
 4906TIP3   OH236276   1.490   6.083   0.280 -0.6852 -0.3212  0.5092
 4906TIP3    H136277   1.421   6.019   0.293 -0.3348 -0.4180  2.0049
 4906TIP3    H236278   1.538   6.051   0.203 -0.8297 -1.5688  0.9259
 4907TIP3   OH236279   3.530   0.774   8.253 -0.4973 -0.4363  0.1104
 4907TIP3    H136280   3.443   0.735   8.259 -0.5497 -0.1419  1.4123
 4907TIP3    H236281   3.546   0.812   8.339  0.3562  0.7164 -0.5321
 4908TIP3   OH236282   4.045   0.049   7.385  0.4879 -0.1425 -0.6080
 4908TIP3    H136283   3.991   0.091   7.319  0.1528  1.6818  0.7508
 4908TIP3    H236284   4.132   0.043   7.344 -0.2692 -1.5045 -2.1486
 4909TIP3   OH236285   5.086   1.351   7.750  0.0852  0.1212 -0.3081
 4909TIP3    H136286   5.156   1.383   7.693  0.6222 -0.1645  0.1764
 4909TIP3    H236287   5.043   1.282   7.698  1.4515 -1.1119  0.1210
 4910TIP3   OH236288   5.521   6.644   7.456 -0.1894  0.4203  0.1220
 4910TIP3    H136289   5.595   6.646   7.516 -0.8371  1.7024  0.9247
 4910TIP3    H236290   5.535   6.719   7.398  0.6722 -1.0663 -1.6875
 4911TIP3   OH236291   2.933   4.546   1.350  0.0312 -0.0568 -0.6263
 4911TIP3    H136292   2.932   4.512   1.260  1.1902 -0.1431 -0.6184
 4911TIP3    H236293   3.001   4.496   1.395  0.1162  0.6283  0.0388
 4912TIP3   OH236294   2.968   3.786   1.476  0.1241  0.2315  0.4509
 4912TIP3    H136295   3.044   3.831   1.513  0.4452 -0.5564  0.7542
 4912TIP3    H236296   3.005   3.714   1.426 -0.3825  0.4129 -0.2001
 4913TIP3   OH236297   5.323   0.845   0.352  0.1754 -0.2236 -0.0427
 4913TIP3    H136298   5.309   0.834   0.258  0.5296  0.3656 -0.1657
 4913TIP3    H236299   5.403   0.796   0.370 -0.6973 -1.6325  0.2454
 4914TIP3   OH236300   6.744   1.171   0.919 -0.4718 -0.4134 -0.0690
 4914TIP3    H136301   6.741   1.257   0.877  1.4713 -0.2148  0.0726
 4914TIP3    H236302   6.653   1.147   0.931 -1.0841  1.7101  0.0505
 4915TIP3   OH236303   3.680   6.366   0.899  0.1578 -0.0805  0.0707
 4915TIP3    H136304   3.702   6.282   0.859  2.2013  0.5792 -0.3141
 4915TIP3    H236305   3.713   6.359   0.989  1.8909  0.8500 -0.4485
 4916TIP3   OH236306   6.177   6.746   1.313  0.3054  0.7048  0.1939
 4916TIP3    H136307   6.237   6.675   1.338 -0.0677  0.9323  1.8984
 4916TIP3    H236308   6.093   6.718   1.349 -1.0455 -0.2979 -3.3699
 4917TIP3   OH236309   5.973   6.276   7.150 -0.3985 -0.1453  0.3858
 4917TIP3    H136310   6.032   6.349   7.170  1.1147 -1.4552  0.8664
 4917TIP3    H236311   6.030   6.200   7.144 -1.6460 -0.9674 -2.3497
 4918TIP3   OH236312   2.014   0.811   2.106  0.0622  0.1228  0.6434
 4918TIP3    H136313   1.975   0.876   2.048  1.3519  0.9645  0.6785
 4918TIP3    H236314   1.967   0.730   2.086 -2.4710  1.3061  1.5445
 4919TIP3   OH236315   5.300   1.283   1.957 -0.4692  0.3303 -0.0420
 4919TIP3    H136316   5.227   1.226   1.934 -0.7243  0.5521  0.2152
 4919TIP3    H236317   5.301   1.284   2.053  1.2500 -1.4562  0.0231
 4920TIP3   OH236318   0.181   2.143   0.766 -0.3198 -0.3136  0.0623
 4920TIP3    H136319   0.269   2.126   0.732 -0.3397 -0.5319  0.1196
 4920TIP3    H236320   0.184   2.233   0.797  0.3791 -0.8295  1.5877
 4921TIP3   OH236321   4.211   1.964   8.005 -0.1547  0.3397  0.2246
 4921TIP3    H136322   4.149   1.945   7.935 -0.9956  2.6962  0.2526
 4921TIP3    H236323   4.170   1.927   8.084 -0.3387 -0.2176 -0.1235
 4922TIP3   OH236324   1.615   2.268   0.076 -0.0457  0.0778 -0.3968
 4922TIP3    H136325   1.703   2.232   0.084  0.0858  0.4451 -0.1997
 4922TIP3    H236326   1.613   2.343   0.135 -0.6052 -0.1413 -0.1244
 4923TIP3   OH236327   3.826   4.027   7.873  0.2281  0.2761 -0.3107
 4923TIP3    H136328   3.829   3.936   7.842 -1.2525 -0.1366  0.6546
 4923TIP3    H236329   3.739   4.057   7.848  0.7730  1.5188 -0.7841
 4924TIP3   OH236330   0.656   5.081   6.991  0.3433  0.3006  0.6190
 4924TIP3    H136331   0.702   4.997   6.983 -1.2039 -0.4790 -0.5392
 4924TIP3    H236332   0.670   5.125   6.907 -0.8285  0.1219  0.3065
 4925TIP3   OH236333   0.501   2.158   8.173 -0.1858  0.3467  0.3384
 4925TIP3    H136334   0.546   2.104   8.238  0.8393  2.6191  1.6409
 4925TIP3    H236335   0.538   2.131   8.089  0.8800 -0.4066  1.0219
 4926TIP3   OH236336   3.228   2.898   8.619 -0.0763  1.0380  0.4275
 4926TIP3    H136337   3.178   2.960   8.672 -2.5262  0.4865 -1.0823
 4926TIP3    H236338   3.205   2.920   8.528  2.8813  1.0542 -0.4151
 4927TIP3   OH236339   5.347   3.573   0.795  0.0095  0.5776 -0.2011
 4927TIP3    H136340   5.419   3.602   0.739 -0.4326  1.5678 -0.2714
 4927TIP3    H236341   5.280   3.640   0.785 -0.3640  0.4011  0.9742
 4928TIP3   OH236342   0.948   0.450   2.349  0.2797  0.2176  0.2919
 4928TIP3    H136343   0.937   0.376   2.409  0.3034  0.8566  1.0951
 4928TIP3    H236344   1.031   0.433   2.305 -0.3208 -0.8892 -0.4908
 4929TIP3   OH236345   6.743   2.595   1.818  0.3821  0.2621 -0.2819
 4929TIP3    H136346   6.749   2.528   1.750 -2.1435  0.5596 -0.9251
 4929TIP3    H236347   6.804   2.663   1.791 -2.2219  1.5213 -3.7502
 4930TIP3   OH236348   3.403   2.819   8.909  0.2718  0.3532  0.2766
 4930TIP3    H136349   3.401   2.898   8.854 -0.5453  0.9867  1.1764
 4930TIP3    H236350   3.369   2.849   8.994 -1.7789 -1.3410  0.1381
 4931TIP3   OH236351   3.315   1.867   2.506 -0.1743 -0.2054  0.1450
 4931TIP3    H136352   3.265   1.851   2.586  0.9761  0.9454  1.1467
 4931TIP3    H236353   3.343   1.780   2.477 -0.3853 -0.6158  1.1479
 4932TIP3   OH236354   1.980   1.332   0.250  0.9296  0.1761 -0.3023
 4932TIP3    H136355   1.999   1.255   0.197 -0.4915  0.0473 -0.6356
 4932TIP3    H236356   2.029   1.318   0.331  0.3892 -1.2578 -0.2086
 4933TIP3   OH236357   4.811   5.043   8.313  0.0298  0.1339  0.4982
 4933TIP3    H136358   4.724   5.046   8.353 -1.6747  1.0976 -2.8736
 4933TIP3    H236359   4.850   5.129   8.332 -0.2336  0.1151  1.1129
 4934TIP3   OH236360   4.001   4.260   7.866 -0.4121  0.5931  0.0301
 4934TIP3    H136361   3.976   4.319   7.795 -0.7270  2.7976  1.8496
 4934TIP3    H236362   3.933   4.192   7.865 -1.6125  1.7522 -0.4712
 4935TIP3   OH236363   4.387   1.203   8.052  0.5276  0.3254 -0.0657
 4935TIP3    H136364   4.419   1.250   7.975  0.1846  1.3934  0.4247
 4935TIP3    H236365   4.311   1.254   8.081  0.3384 -0.3620  0.6740
 4936TIP3   OH236366   3.321   0.660   0.181 -0.5978 -0.3085 -0.0936
 4936TIP3    H136367   3.270   0.657   0.262 -1.3349  0.3234 -0.5093
 4936TIP3    H236368   3.372   0.741   0.188  2.4372 -2.1859  1.4803
 4937TIP3   OH236369   1.477   4.139   1.211 -0.0168  0.0192  0.3429
 4937TIP3    H136370   1.433   4.109   1.132  0.3480 -1.4333  0.6571
 4937TIP3    H236371   1.570   4.128   1.193  0.0771 -0.1614  0.8927
 4938TIP3   OH236372   2.092   3.194   8.466 -0.1760  0.0049 -0.2702
 4938TIP3    H136373   2.002   3.193   8.433 -0.2548 -0.6251 -0.0489
 4938TIP3    H236374   2.147   3.178   8.389 -0.2578  0.2287 -0.3772
 4939TIP3   OH236375   6.457   2.591   0.287  0.0136 -0.0694  0.5866
 4939TIP3    H136376   6.497   2.524   0.342  0.5665  0.9465  1.4833
 4939TIP3    H236377   6.499   2.673   0.316 -0.4914  0.6338 -0.5987
 4940TIP3   OH236378   1.281   5.881   0.122 -0.5883  0.3668  0.0949
 4940TIP3    H136379   1.311   5.859   0.210 -1.0102  1.6394  0.5754
 4940TIP3    H236380   1.204   5.826   0.108 -0.3757 -0.0127  0.4269
 4941TIP3   OH236381   4.928   1.505   1.110  0.3742 -0.3683  0.0283
 4941TIP3    H136382   4.841   1.506   1.071  0.7536 -1.8975 -0.9305
 4941TIP3    H236383   4.946   1.597   1.131 -1.6195 -0.0675  0.6342
 4942TIP3   OH236384   0.478   0.481   1.579 -0.5342  0.2860 -0.2046
 4942TIP3    H136385   0.442   0.530   1.505 -0.2383  1.1416  0.2068
 4942TIP3    H236386   0.509   0.399   1.540 -0.3183  0.7496 -1.0460
 4943TIP3   OH236387   2.332   4.631   7.824 -0.2669 -0.6590 -0.6665
 4943TIP3    H136388   2.283   4.632   7.742 -0.8266 -0.5544 -0.3367
 4943TIP3    H236389   2.316   4.545   7.861 -0.1358 -0.6540 -0.5966
 4944TIP3   OH236390   0.970   2.108   7.309  0.1146 -0.2166  0.0596
 4944TIP3    H136391   0.933   2.120   7.221 -0.2356  1.9899  0.4423
 4944TIP3    H236392   0.895   2.083   7.363 -0.2891  1.3768  0.2741
 4945TIP3   OH236393   3.555   1.284   1.707 -0.4227 -0.5194 -0.1247
 4945TIP3    H136394   3.500   1.340   1.761  1.5947  0.9850  0.5169
 4945TIP3    H236395   3.583   1.213   1.766  0.0672 -0.0583  0.2091
 4946TIP3   OH236396   0.607   6.724   7.141  0.1351 -0.2802 -0.5171
 4946TIP3    H136397   0.553   6.756   7.213 -0.4396 -2.5454  0.1365
 4946TIP3    H236398   0.599   6.791   7.073 -0.6381  1.1150  0.9041
 4947TIP3   OH236399   2.035   4.408   8.244  0.3223  0.4326 -0.8014
 4947TIP3    H136400   1.941   4.422   8.232  0.4981  1.1500 -1.3548
 4947TIP3    H236401   2.061   4.473   8.309  0.3546 -0.0920 -0.2727
 4948TIP3   OH236402   4.556   4.462   2.044  0.0982  0.2070 -0.5015
 4948TIP3    H136403   4.512   4.464   1.960 -0.2344  1.4504 -0.3122
 4948TIP3    H236404   4.508   4.395   2.094 -1.2061  1.1118 -0.5028
 4949TIP3   OH236405   5.830   0.735   8.873 -0.1273  0.5255  0.3008
 4949TIP3    H136406   5.782   0.760   8.953 -0.8191 -3.8127  1.5014
 4949TIP3    H236407   5.772   0.762   8.802 -1.1427  1.4222  1.4127
 4950TIP3   OH236408   1.276   6.272   0.342 -0.2382 -0.7355  0.3492
 4950TIP3    H136409   1.230   6.188   0.351  0.0110 -0.7574  1.6211
 4950TIP3    H236410   1.368   6.248   0.331 -0.3199 -0.6493 -0.6117
 4951TIP3   OH236411   3.565   3.405   0.731  0.3333 -0.1437 -0.5160
 4951TIP3    H136412   3.486   3.413   0.783 -0.1756  1.1175 -1.4460
 4951TIP3    H236413   3.545   3.337   0.667  0.4571 -0.6850  0.0051
 4952TIP3   OH236414   5.962   6.690   7.034  0.3468 -0.7330 -0.1925
 4952TIP3    H136415   6.045   6.711   6.992 -0.3058 -0.2371 -1.3024
 4952TIP3    H236416   5.985   6.660   7.122  1.6500 -0.1465 -0.3219
 4953TIP3   OH236417   4.995   3.812   0.593 -0.4536 -0.1802  0.3843
 4953TIP3    H136418   5.034   3.833   0.678 -0.4470 -0.9247  0.5652
 4953TIP3    H236419   4.980   3.718   0.595 -1.7196 -0.0004  0.0867
 4954TIP3   OH236420   2.553   6.385   8.870  0.3932 -0.1783  0.5967
 4954TIP3    H136421   2.568   6.469   8.825  0.4422 -0.4142  0.1717
 4954TIP3    H236422   2.503   6.409   8.948 -0.9363  0.0915 -0.2980
 4955TIP3   OH236423   4.556   2.449   7.834  0.2729  0.0206 -0.0812
 4955TIP3    H136424   4.461   2.438   7.828  0.1419 -0.9012  2.4408
 4955TIP3    H236425   4.591   2.395   7.763 -1.0785 -0.0315 -0.7257
 4956TIP3   OH236426   1.486   6.474   7.345 -0.5978  0.5122 -0.0086
 4956TIP3    H136427   1.543   6.433   7.280 -1.2973 -1.2317  0.4233
 4956TIP3    H236428   1.429   6.532   7.294 -0.8565 -0.5157 -0.9113
 4957TIP3   OH236429   3.420   4.720   2.148  0.2518  0.0610 -0.6553
 4957TIP3    H136430   3.492   4.675   2.103  1.6353 -0.6270  1.9986
 4957TIP3    H236431   3.431   4.812   2.125  1.7977 -0.0844 -0.6477
 4958TIP3   OH236432   0.398   6.490   8.628  0.3734  0.8062 -0.2914
 4958TIP3    H136433   0.338   6.502   8.554  0.2955  3.4734  0.1267
 4958TIP3    H236434   0.452   6.415   8.602  0.9741  2.1797 -3.5063
 4959TIP3   OH236435   5.555   5.545   7.175 -0.2098  0.1437  0.1354
 4959TIP3    H136436   5.589   5.476   7.119 -0.0682 -0.5467  1.0472
 4959TIP3    H236437   5.633   5.582   7.217 -0.3355  0.5046  0.0607
 4960TIP3   OH236438   3.985   1.014   1.790  0.0138 -0.0361 -0.4677
 4960TIP3    H136439   3.899   0.998   1.754 -0.7922  2.4845  0.0916
 4960TIP3    H236440   3.969   1.057   1.875  1.8106 -0.4884  0.1665
 4961TIP3   OH236441   5.599   0.532   8.194 -0.6331 -0.2451 -0.6636
 4961TIP3    H136442   5.546   0.610   8.179 -1.3443 -0.9342 -1.9482
 4961TIP3    H236443   5.688   0.565   8.208 -0.8575  0.7715 -1.5468
 4962TIP3   OH236444   3.143   3.218   1.218  0.2156 -0.5098 -0.2828
 4962TIP3    H136445   3.238   3.226   1.222  0.2765  0.2704 -2.1974
 4962TIP3    H236446   3.118   3.269   1.141 -1.4975 -2.7633 -1.3194
 4963TIP3   OH236447   3.634   1.638   7.137 -0.2924  0.2237 -0.1350
 4963TIP3    H136448   3.573   1.680   7.075  0.0425  0.6076 -0.2084
 4963TIP3    H236449   3.587   1.637   7.220 -0.0014  1.4752  0.0559
 4964TIP3   OH236450   4.943   3.171   8.060 -0.0915 -0.8017  0.5411
 4964TIP3    H136451   4.868   3.195   8.114 -0.6829 -1.0430 -0.1621
 4964TIP3    H236452   4.938   3.228   7.984 -1.1644 -2.6464 -0.8503
 4965TIP3   OH236453   2.062   2.847   8.322  0.5803 -0.2099  0.3736
 4965TIP3    H136454   2.074   2.905   8.247  0.6897  0.5246  0.9384
 4965TIP3    H236455   2.131   2.874   8.384  0.4518 -0.7523  0.7631
 4966TIP3   OH236456   3.356   5.362   7.916 -0.3917  0.7807  0.2749
 4966TIP3    H136457   3.437   5.380   7.964 -0.1629 -0.5201  0.4124
 4966TIP3    H236458   3.345   5.267   7.923 -2.1133  0.9795  0.5414
 4967TIP3   OH236459   1.320   3.471   8.126 -1.1817 -0.1519  0.1103
 4967TIP3    H136460   1.299   3.398   8.068  0.8741 -0.7210  0.0170
 4967TIP3    H236461   1.281   3.547   8.084 -2.2846 -0.9911 -0.4442
 4968TIP3   OH236462   6.187   0.758   0.009 -0.2453 -0.3580 -0.2103
 4968TIP3    H136463   6.143   0.696   0.067 -0.7130  0.3231  0.1743
 4968TIP3    H236464   6.239   0.703  -0.050 -0.5761 -1.1051  0.1827
 4969TIP3   OH236465   3.526   5.898   8.862 -0.0944 -0.2380 -0.3696
 4969TIP3    H136466   3.512   5.990   8.837 -0.5817  0.2379  1.5102
 4969TIP3    H236467   3.450   5.875   8.914  1.6501 -0.5359  2.2174
 4970TIP3   OH236468   3.861   3.225   0.375  0.5615  0.0607  0.1180
 4970TIP3    H136469   3.770   3.252   0.381  0.0073 -1.2370 -1.6178
 4970TIP3    H236470   3.883   3.237   0.282  1.5098 -1.5351  0.0940
 4971TIP3   OH236471   2.119   2.682   2.161  0.2549  0.3157  0.5027
 4971TIP3    H136472   2.067   2.698   2.083 -0.6506  0.7971  1.1837
 4971TIP3    H236473   2.208   2.667   2.128 -0.0112  0.9870 -0.5821
 4972TIP3   OH236474   1.486   2.272   0.884 -0.0124  0.1781  0.7891
 4972TIP3    H136475   1.465   2.271   0.978  1.4653  1.5556  1.1725
 4972TIP3    H236476   1.471   2.181   0.856 -1.2170 -0.0908  2.1631
 4973TIP3   OH236477   2.002   0.328   0.289 -0.1469  0.4146 -0.4375
 4973TIP3    H136478   2.081   0.379   0.268 -0.1495  0.7244  0.2905
 4973TIP3    H236479   1.936   0.361   0.229  0.0065  0.8607 -0.3620
 4974TIP3   OH236480   6.173   3.988   7.726  0.2728 -0.0460  0.3784
 4974TIP3    H136481   6.249   3.933   7.709 -0.2267 -0.9386  0.9386
 4974TIP3    H236482   6.100   3.927   7.732 -0.4566  0.7717  0.1015
 4975TIP3   OH236483   0.870   1.794   7.199  0.4407  0.3248 -0.3898
 4975TIP3    H136484   0.844   1.726   7.137  0.1534 -0.8311  0.9605
 4975TIP3    H236485   0.853   1.756   7.285  0.4294  2.0493  0.4053
 4976TIP3   OH236486   4.070   2.692   7.464  0.2004 -0.5877 -0.7670
 4976TIP3    H136487   4.125   2.626   7.421 -1.5780 -1.2044 -2.2404
 4976TIP3    H236488   4.085   2.772   7.414 -0.7431 -0.9408 -1.6578
 4977TIP3   OH236489   0.096   0.406   0.284  0.0650 -0.1012  0.4644
 4977TIP3    H136490   0.120   0.495   0.310 -0.7612  0.5198 -0.7676
 4977TIP3    H236491   0.002   0.410   0.269 -0.1941 -1.5093  1.5452
 4978TIP3   OH236492   2.022   4.204   1.205 -0.0308  0.3318  0.4077
 4978TIP3    H136493   1.932   4.237   1.213  0.4372  1.3566  1.9527
 4978TIP3    H236494   2.072   4.256   1.267  1.2053 -1.8206  1.3307
 4979TIP3   OH236495   6.046   1.246   8.786  0.5034  0.5917 -0.6023
 4979TIP3    H136496   5.993   1.307   8.735  0.9603  1.4905 -0.0266
 4979TIP3    H236497   6.122   1.298   8.814  0.8412 -0.2059  0.0026
 4980TIP3   OH236498   3.839   5.149   0.318 -0.5307 -0.4091  0.1094
 4980TIP3    H136499   3.811   5.130   0.408 -0.9800  0.7723  0.2398
 4980TIP3    H236500   3.934   5.159   0.323 -0.4854 -0.9578  0.3366
 4981TIP3   OH236501   3.780   0.283   1.949  0.2463  0.3286  0.5399
 4981TIP3    H136502   3.766   0.378   1.945 -1.2680  0.1396  0.8064
 4981TIP3    H236503   3.873   0.272   1.930  0.0144  1.7066 -1.7987
 4982TIP3   OH236504   2.560   1.335   8.536  0.1833 -0.3391 -0.2423
 4982TIP3    H136505   2.580   1.254   8.490  0.8486  0.7190 -1.9250
 4982TIP3    H236506   2.638   1.389   8.523 -0.8081  1.1057 -0.4309
 4983TIP3   OH236507   2.379   6.183   7.607  0.5722 -0.4019  0.0567
 4983TIP3    H136508   2.369   6.206   7.699  0.7234 -0.0792 -0.0067
 4983TIP3    H236509   2.292   6.153   7.580  0.2693  0.4795  0.0312
 4984TIP3   OH236510   6.215   0.929   8.362 -0.4426 -0.3074  0.0692
 4984TIP3    H136511   6.212   1.013   8.407  1.0198  0.2466 -0.7857
 4984TIP3    H236512   6.182   0.947   8.274 -0.6124 -0.7409  0.0400
 4985TIP3   OH236513   0.090   1.012   2.685 -0.0931  0.6516 -0.2059
 4985TIP3    H136514   0.162   1.028   2.746 -0.7702  0.4329  0.6843
 4985TIP3    H236515   0.043   1.095   2.681  0.4644  0.9264 -1.1409
 4986TIP3   OH236516   6.149   2.560   7.624 -0.2569  0.0268 -0.1810
 4986TIP3    H136517   6.138   2.641   7.573  0.9497  0.1805 -0.2150
 4986TIP3    H236518   6.154   2.491   7.559 -0.5339  0.0118 -0.1864
 4987TIP3   OH236519   0.119   3.604   0.998 -0.3893 -0.3367  0.1184
 4987TIP3    H136520   0.044   3.546   0.986 -0.5292 -0.5550  1.8464
 4987TIP3    H236521   0.104   3.647   1.082  0.1765  1.5433 -0.6902
 4988TIP3   OH236522   4.170   1.226   0.373 -0.0344  0.9699 -0.1409
 4988TIP3    H136523   4.158   1.232   0.278 -0.9119 -1.6311 -0.2791
 4988TIP3    H236524   4.091   1.265   0.410 -1.4247 -1.1694 -0.6523
 4989TIP3   OH236525   2.079   6.670   2.165 -0.0041  0.0665 -0.4000
 4989TIP3    H136526   2.113   6.724   2.237  0.4364  0.4466 -0.8839
 4989TIP3    H236527   2.134   6.592   2.167  1.3164  0.9206 -1.5293
 4990TIP3   OH236528   0.800   1.711   7.464  0.7088  0.0588  0.0748
 4990TIP3    H136529   0.767   1.754   7.543  1.0248 -1.0216  0.8236
 4990TIP3    H236530   0.875   1.660   7.494 -0.3481 -1.9452 -0.4918
 4991TIP3   OH236531   0.873   4.716   8.006 -0.3525  0.1256 -0.0950
 4991TIP3    H136532   0.886   4.802   7.966 -0.2877 -0.0754 -0.5074
 4991TIP3    H236533   0.956   4.671   7.993  1.7475  1.8417  4.8691
 4992TIP3   OH236534   4.223   3.729   8.671 -0.1800  0.8567  0.2646
 4992TIP3    H136535   4.301   3.682   8.643 -1.0209 -0.7384  0.4267
 4992TIP3    H236536   4.151   3.686   8.624 -1.2061  0.5939  1.9876
 4993TIP3   OH236537   0.691   5.807   1.284 -0.0490 -0.1528 -0.8864
 4993TIP3    H136538   0.612   5.801   1.231 -0.7567 -0.0707  0.1192
 4993TIP3    H236539   0.672   5.753   1.361 -0.3724  2.2105  0.8411
 4994TIP3   OH236540   0.018   6.680   8.075  0.2513  0.1293 -0.3821
 4994TIP3    H136541   0.102   6.673   8.029 -0.4530  2.3864 -2.2330
 4994TIP3    H236542  -0.028   6.599   8.054  2.0473 -1.3542  1.0226
 4995TIP3   OH236543   3.627   0.216   1.265  0.2574  0.7761  0.0612
 4995TIP3    H136544   3.634   0.291   1.324  1.4657 -0.1716  1.1958
 4995TIP3    H236545   3.714   0.176   1.267 -0.4058 -0.7754 -0.3615
 4996TIP3   OH236546   2.255   0.610   8.164  1.1201 -0.1080 -0.3147
 4996TIP3    H136547   2.203   0.535   8.134 -0.9416  1.3748 -0.6850
 4996TIP3    H236548   2.261   0.667   8.088  2.3876  0.2736  0.0490
 4997TIP3   OH236549   6.306   4.414   7.794 -0.0410  0.3479  0.2707
 4997TIP3    H136550   6.338   4.432   7.882 -0.9029  0.5259  0.5606
 4997TIP3    H236551   6.230   4.471   7.783  0.3668  0.7192 -0.7902
 4998TIP3   OH236552   3.247   0.436   0.882 -0.1768  0.0847 -0.2492
 4998TIP3    H136553   3.236   0.528   0.905 -1.2215  0.1843 -1.0606
 4998TIP3    H236554   3.338   0.416   0.903 -0.0668  1.1770  0.3492
 4999TIP3   OH236555   4.932   3.145   1.696  0.1161 -0.3012 -0.3525
 4999TIP3    H136556   5.010   3.098   1.727 -0.2987 -1.0381 -0.3976
 4999TIP3    H236557   4.966   3.208   1.633  0.6509 -0.8583 -0.6394
 5000TIP3   OH236558   4.519   3.061   1.602 -0.3396 -0.6753 -0.1982
 5000TIP3    H136559   4.433   3.080   1.564  0.3868 -0.5231 -1.8442
 5000TIP3    H236560   4.507   2.979   1.650 -1.2291 -1.0330 -1.0078
 5001TIP3   OH236561   4.513   4.361   0.258 -0.5199 -0.1086  0.2109
 5001TIP3    H136562   4.499   4.292   0.194 -1.8127 -0.1171  0.4768
 5001TIP3    H236563   4.426   4.393   0.279 -0.0430  0.6457  1.1470
 5002TIP3   OH236564   4.419   3.380   7.762  0.1236  0.0262 -0.5303
 5002TIP3    H136565   4.440   3.473   7.756 -1.8338  0.5382 -0.0857
 5002TIP3    H236566   4.389   3.357   7.674  0.5252 -0.1779 -0.6165
 5003TIP3   OH236567   1.382   3.394   1.914 -0.6701 -0.1496 -0.3499
 5003TIP3    H136568   1.417   3.308   1.891  0.5592  0.6230 -1.5621
 5003TIP3    H236569   1.458   3.452   1.915 -1.2975  0.7303  1.6480
 5004TIP3   OH236570   0.903   1.196   1.945 -0.0819 -0.1308  0.5542
 5004TIP3    H136571   0.916   1.118   1.999  0.0224 -0.2169  0.4059
 5004TIP3    H236572   0.811   1.191   1.918 -0.4685  0.5198  1.6692
 5005TIP3   OH236573   2.433   5.231   8.715  0.1790 -0.6917  0.4198
 5005TIP3    H136574   2.345   5.241   8.752 -0.3215 -3.7732  0.3608
 5005TIP3    H236575   2.463   5.147   8.749  3.4361  0.5776  0.9720
 5006TIP3   OH236576   4.746   4.869   8.104 -0.2772 -0.1506 -0.3523
 5006TIP3    H136577   4.756   4.783   8.144 -0.3330 -0.8161 -1.7470
 5006TIP3    H236578   4.753   4.930   8.178 -0.5677 -1.3467  0.6981
 5007TIP3   OH236579   4.396   6.618   1.514 -0.0531  0.1706  0.0717
 5007TIP3    H136580   4.490   6.606   1.529 -0.2983 -0.2077  1.4130
 5007TIP3    H236581   4.367   6.534   1.477  0.2830  0.6033 -1.2398
 5008TIP3   OH236582   2.000   1.569   8.236  0.1555  0.0848  0.4989
 5008TIP3    H136583   2.063   1.512   8.191 -0.1417 -0.1509  0.3751
 5008TIP3    H236584   1.981   1.639   8.173 -1.1274 -0.8596 -0.2074
 5009TIP3   OH236585   1.825   6.482   1.285 -0.2714  0.1740 -0.4744
 5009TIP3    H136586   1.758   6.485   1.217  0.1159  0.7874 -0.8304
 5009TIP3    H236587   1.837   6.388   1.302 -0.0658 -0.0150 -1.5584
 5010TIP3   OH236588   3.709   4.608   8.481  0.0794 -0.4990 -0.0804
 5010TIP3    H136589   3.626   4.615   8.527 -0.6713 -0.0360 -1.4427
 5010TIP3    H236590   3.769   4.666   8.528 -0.3343 -0.9221  0.9734
 5011TIP3   OH236591   2.210   2.081   7.555  0.5219  0.6818  0.6248
 5011TIP3    H136592   2.281   2.137   7.585  0.2624  0.9580  0.7214
 5011TIP3    H236593   2.134   2.109   7.605  0.0893  1.1398 -0.2682
 5012TIP3   OH236594   0.520   2.392   7.170  0.5287 -0.1429  0.5622
 5012TIP3    H136595   0.599   2.362   7.125  1.0833  0.3549  1.1853
 5012TIP3    H236596   0.507   2.328   7.240  1.1908  0.5398  1.3258
 5013TIP3   OH236597   0.189   4.945   0.456 -0.6741  0.1806 -0.2700
 5013TIP3    H136598   0.222   4.951   0.545 -0.3956  0.4890 -0.3896
 5013TIP3    H236599   0.241   4.875   0.416 -2.9788 -2.2425  0.7235
 5014TIP3   OH236600   4.068   0.888   2.334 -0.0178 -0.1038 -0.3534
 5014TIP3    H136601   3.974   0.871   2.343 -0.4759  2.4546  0.3316
 5014TIP3    H236602   4.106   0.855   2.416 -0.4107 -0.4055 -0.2899
 5015TIP3   OH236603   6.100   6.478   2.010 -0.3183  0.3228 -0.0532
 5015TIP3    H136604   6.154   6.462   2.087  0.5924  2.0507 -0.2604
 5015TIP3    H236605   6.091   6.574   2.007 -1.0510  0.2412 -1.6104
 5016TIP3   OH236606   1.738   1.514   7.427 -0.4799 -0.2931  0.8046
 5016TIP3    H136607   1.746   1.560   7.510 -0.6004  0.3852  0.4498
 5016TIP3    H236608   1.745   1.582   7.361  0.3341 -0.9127  0.2331
 5017TIP3   OH236609   2.077   1.389   2.435  0.1033  0.4044  0.0593
 5017TIP3    H136610   2.124   1.466   2.468  3.4723 -0.8625 -1.3663
 5017TIP3    H236611   2.063   1.335   2.513  1.3175  0.7244  0.5225
 5018TIP3   OH236612   3.607   6.644   0.223  0.2867  0.2179 -0.1215
 5018TIP3    H136613   3.522   6.639   0.267  0.0665  0.9519 -0.4536
 5018TIP3    H236614   3.650   6.719   0.264  1.2827 -0.8647  0.9052
 5019TIP3   OH236615   1.414   2.793   2.520 -0.0315  0.1413 -0.5255
 5019TIP3    H136616   1.425   2.829   2.608  1.0877 -0.2849 -0.4663
 5019TIP3    H236617   1.343   2.729   2.529  0.5532 -0.4256  0.2574
 5020TIP3   OH236618   1.592   5.499   1.253  0.4716 -0.3517 -0.1262
 5020TIP3    H136619   1.572   5.422   1.200 -1.1479 -0.4251  0.5491
 5020TIP3    H236620   1.652   5.551   1.199 -1.4735 -0.1883 -2.2677
 5021TIP3   OH236621   4.529   2.395   2.198  0.0178  0.4220 -0.2208
 5021TIP3    H136622   4.526   2.308   2.157  1.7729 -0.7483  1.9202
 5021TIP3    H236623   4.528   2.377   2.292 -0.8566  2.8261  0.2904
 5022TIP3   OH236624   3.723   6.531   8.191  0.2697 -0.6028 -0.1229
 5022TIP3    H136625   3.651   6.481   8.154 -0.4915  0.6916 -0.4832
 5022TIP3    H236626   3.782   6.466   8.229 -0.7289 -1.7297 -0.4656
 5023TIP3   OH236627   3.945   2.128   0.091 -0.4802 -0.1431 -0.1076
 5023TIP3    H136628   3.867   2.126   0.147  0.5011 -0.3015  1.3331
 5023TIP3    H236629   3.965   2.036   0.074  0.5970 -0.2339  1.3784
 5024TIP3   OH236630   6.535   1.819   7.622  0.3307 -0.1204 -0.8271
 5024TIP3    H136631   6.474   1.810   7.549 -1.6514  0.2282  0.6730
 5024TIP3    H236632   6.602   1.752   7.607 -0.1676 -0.2277 -2.7802
 5025TIP3   OH236633   5.641   6.525   1.138  0.4742 -0.0762  0.2632
 5025TIP3    H136634   5.617   6.469   1.064  0.8452  1.6391 -1.2264
 5025TIP3    H236635   5.726   6.491   1.167  0.1002 -1.0690  0.2391
 5026TIP3   OH236636   0.317   1.602   1.435  0.0121  0.2103 -0.0698
 5026TIP3    H136637   0.266   1.649   1.500 -2.3710 -1.4358 -0.5991
 5026TIP3    H236638   0.363   1.670   1.386 -1.2270  1.7487  0.8367
 5027TIP3   OH236639   1.395   0.748   0.826  0.4165  0.6187  0.0543
 5027TIP3    H136640   1.474   0.694   0.820  1.0969  1.4179  1.3107
 5027TIP3    H236641   1.403   0.810   0.754  0.1174 -0.3125 -0.7974
 5028TIP3   OH236642   4.900   0.921   1.686 -0.1287 -0.0975  0.3741
 5028TIP3    H136643   4.855   0.994   1.643  2.2601  1.4789  0.3499
 5028TIP3    H236644   4.896   0.850   1.623 -0.5915  0.7142 -0.5464
 5029TIP3   OH236645   2.895   0.552   1.117  0.0117  0.2462 -0.1923
 5029TIP3    H136646   2.921   0.469   1.078  0.8248  0.1740  0.4787
 5029TIP3    H236647   2.888   0.612   1.043  1.2030  0.0326 -0.4969
 5030TIP3   OH236648   4.608   4.778   0.802  0.3025 -0.3478 -0.1002
 5030TIP3    H136649   4.664   4.708   0.835 -0.2794 -0.6620  0.2240
 5030TIP3    H236650   4.520   4.754   0.829 -0.0994 -0.2358 -1.2474
 5031TIP3   OH236651   2.013   3.538   0.387  0.6605  0.0720  0.4269
 5031TIP3    H136652   1.920   3.557   0.401  0.5368 -1.2511  1.5485
 5031TIP3    H236653   2.019   3.518   0.293 -0.6032 -1.8710  0.7029
 5032TIP3   OH236654   4.631   0.496   0.470 -0.2761  0.3494  0.1690
 5032TIP3    H136655   4.578   0.446   0.533 -1.1977  1.6506  0.4727
 5032TIP3    H236656   4.579   0.496   0.390 -0.8143  1.7065  0.4926
 5033TIP3   OH236657   3.048   5.538   7.387 -0.3623  0.4748 -0.5477
 5033TIP3    H136658   2.966   5.547   7.435 -1.1700  0.5423 -1.9013
 5033TIP3    H236659   3.037   5.458   7.335  0.4443  0.4688 -0.7245
 5034TIP3   OH236660   5.128   3.718   1.189  0.9249 -0.2299  0.0280
 5034TIP3    H136661   5.146   3.801   1.234  0.6211  0.0576 -0.3798
 5034TIP3    H236662   5.206   3.665   1.205  1.4946  0.4481 -0.4344
 5035TIP3   OH236663   3.302   4.185   1.387  0.9493 -0.3593  0.8000
 5035TIP3    H136664   3.301   4.129   1.309 -0.5914 -1.2667  1.4280
 5035TIP3    H236665   3.389   4.224   1.387  0.9961 -0.3040 -1.3967
 5036TIP3   OH236666   6.043   5.764   2.852 -0.0265  0.1650  0.2394
 5036TIP3    H136667   6.051   5.859   2.839 -1.0161  0.2270 -0.0533
 5036TIP3    H236668   5.960   5.755   2.900 -0.3602 -0.5986 -0.4648
 5037TIP3   OH236669   3.026   5.856   3.114 -0.1518  0.3752  0.1459
 5037TIP3    H136670   2.932   5.873   3.116 -0.0888  0.6990  0.4055
 5037TIP3    H236671   3.037   5.791   3.044 -0.8027 -1.0871  1.3439
 5038TIP3   OH236672   5.329   3.539   1.267  0.4775 -0.1965 -0.4754
 5038TIP3    H136673   5.389   3.587   1.210  0.1988  0.6941 -0.0457
 5038TIP3    H236674   5.346   3.574   1.355  1.3219 -1.9686  0.1068
 5039TIP3   OH236675   3.554   1.474   1.187  0.2889  0.5329 -0.3797
 5039TIP3    H136676   3.558   1.423   1.268  0.9865 -0.3183 -0.9314
 5039TIP3    H236677   3.488   1.541   1.204  0.1817  0.1587  0.7710
 5040TIP3   OH236678   3.167   0.608   1.143 -0.0605  0.6747 -0.5140
 5040TIP3    H136679   3.072   0.606   1.131 -0.0738 -0.8482 -0.3873
 5040TIP3    H236680   3.181   0.674   1.210 -1.1153  0.3950  0.0139
 5041TIP3   OH236681   3.011   3.169   2.406  0.3306  0.4068 -0.4317
 5041TIP3    H136682   3.000   3.076   2.423 -0.7767  0.2027 -2.0490
 5041TIP3    H236683   2.931   3.195   2.361  1.2826  1.7789 -1.4192
 5042TIP3   OH236684   2.689   0.424   1.646 -0.2722 -0.3854 -0.2283
 5042TIP3    H136685   2.764   0.398   1.593  2.5334  1.4754  2.4833
 5042TIP3    H236686   2.676   0.351   1.706 -1.0931 -0.9442 -1.0475
 5043TIP3   OH236687   5.645   4.077   7.960 -0.1252 -0.1942 -0.0379
 5043TIP3    H136688   5.699   4.151   7.933 -0.7050 -0.7171 -2.9921
 5043TIP3    H236689   5.557   4.099   7.930 -0.1694 -2.3427 -1.8165
 5044TIP3   OH236690   4.768   3.136   0.654  0.6742  0.1064 -0.3283
 5044TIP3    H136691   4.694   3.115   0.598  1.0392 -0.3371 -0.6487
 5044TIP3    H236692   4.740   3.215   0.701 -0.4199 -0.6535  0.3415
 5045TIP3   OH236693   2.840   1.223   2.905 -0.3776 -0.7767  1.1382
 5045TIP3    H136694   2.745   1.222   2.893 -0.4240 -0.7023  1.4720
 5045TIP3    H236695   2.865   1.313   2.888 -0.3731 -0.7902  1.0764
 5046TIP3   OH236696   6.085   1.225   1.394 -0.0827 -0.2676 -0.4605
 5046TIP3    H136697   6.060   1.150   1.339 -1.5023 -1.0303  1.1648
 5046TIP3    H236698   6.062   1.301   1.341 -1.1876 -0.9729 -1.0387
 5047TIP3   OH236699   0.917   6.233   0.238  0.5955  0.0666 -0.7038
 5047TIP3    H136700   0.841   6.183   0.206  0.5614  0.7611 -1.7536
 5047TIP3    H236701   0.981   6.166   0.262 -0.5454 -0.5500  0.7550
 5048TIP3   OH236702   2.139   4.139   2.022 -0.1406 -0.2563  0.2957
 5048TIP3    H136703   2.116   4.047   2.011 -1.5683  0.0890  0.1475
 5048TIP3    H236704   2.234   4.140   2.028 -0.0285 -1.6245 -0.8525
 5049TIP3   OH236705   0.954   5.011   1.608  0.2717 -0.4554 -0.1995
 5049TIP3    H136706   0.883   4.991   1.668  0.9742 -0.2194  0.7356
 5049TIP3    H236707   0.943   5.104   1.588 -0.3789 -0.6928 -1.0269
 5050TIP3   OH236708   6.090   2.134   0.878  0.6941 -0.1087  0.1213
 5050TIP3    H136709   6.044   2.217   0.865  1.0482 -0.0968 -1.1860
 5050TIP3    H236710   6.142   2.123   0.798  2.0671 -0.6939  1.0621
 5051TIP3   OH236711   1.831   2.809   2.751 -0.5526  0.3124 -0.0911
 5051TIP3    H136712   1.910   2.798   2.698  0.7240 -0.5559  1.8419
 5051TIP3    H236713   1.777   2.732   2.730 -1.0137  1.0265 -1.5899
 5052TIP3   OH236714   2.885   5.041   8.321  0.1938  0.0665  0.1964
 5052TIP3    H136715   2.919   5.127   8.293  0.5961  0.3674  1.5523
 5052TIP3    H236716   2.845   5.005   8.242  0.1034  1.4594 -0.4327
 5053TIP3   OH236717   6.599   2.868   0.285  0.0374  0.4181 -0.7720
 5053TIP3    H136718   6.534   2.870   0.215 -0.8562  2.3578  0.0049
 5053TIP3    H236719   6.567   2.932   0.349  1.7326  0.0244  0.5718
 5054TIP3   OH236720   4.292   2.565   6.809 -0.1905  0.1220  0.2149
 5054TIP3    H136721   4.269   2.529   6.724 -1.7475 -1.9045  1.4046
 5054TIP3    H236722   4.346   2.498   6.850 -0.5956  0.4479  1.3284
 5055TIP3   OH236723   0.207   2.077   1.733 -0.2094 -0.2887 -0.0021
 5055TIP3    H136724   0.202   2.008   1.799  0.5973 -1.0987 -0.7674
 5055TIP3    H236725   0.145   2.143   1.764  0.1091 -0.6664  1.5301
 5056TIP3   OH236726   2.619   0.618   7.943  0.0801 -0.6855  0.4414
 5056TIP3    H136727   2.574   0.677   7.882 -1.5956 -0.9878  1.3231
 5056TIP3    H236728   2.710   0.617   7.913 -0.1798  1.1175 -0.5221
 5057TIP3   OH236729   5.730   4.377   0.711 -0.2608  0.4974  0.0180
 5057TIP3    H136730   5.791   4.430   0.659  0.2039  0.1844  0.2349
 5057TIP3    H236731   5.783   4.341   0.782  0.2060 -2.6571 -1.7092
 5058TIP3   OH236732   3.297   1.132   2.053  0.1822  0.0357  0.0535
 5058TIP3    H136733   3.235   1.181   1.998  0.1354 -2.2006 -2.0637
 5058TIP3    H236734   3.242   1.077   2.108  0.2607 -0.4224 -0.3237
 5059TIP3   OH236735   4.347   0.164   0.285 -0.0344 -0.1598  0.7129
 5059TIP3    H136736   4.276   0.143   0.224 -0.0462 -0.4478  0.8211
 5059TIP3    H236737   4.427   0.154   0.234 -0.0947  0.6404  0.4615
 5060TIP3   OH236738   4.803   1.537   6.641 -0.2473  0.6962 -0.1695
 5060TIP3    H136739   4.881   1.519   6.693  0.0393  1.2023 -0.4063
 5060TIP3    H236740   4.815   1.628   6.613 -1.4322  1.1384  0.6750
 5061TIP3   OH236741   0.741   1.284   1.653 -0.5748  0.6331 -0.1614
 5061TIP3    H136742   0.790   1.206   1.627 -2.2501  0.0416 -1.6361
 5061TIP3    H236743   0.688   1.255   1.727 -1.8310  0.1006 -1.2390
 5062TIP3   OH236744   0.196   2.938   2.631  0.5024 -0.4918  0.0477
 5062TIP3    H136745   0.208   2.893   2.715  0.9574 -0.1614  0.1616
 5062TIP3    H236746   0.266   3.004   2.629 -0.2086  0.2742 -0.0768
 5063TIP3   OH236747   2.201   1.234   1.336  0.1428 -0.4873 -0.2768
 5063TIP3    H136748   2.281   1.270   1.295 -0.0649 -1.2872 -1.4439
 5063TIP3    H236749   2.140   1.308   1.338  0.9569  0.1864  0.8022
 5064TIP3   OH236750   6.667   1.095   7.174 -0.6910 -0.5722 -0.2417
 5064TIP3    H136751   6.716   1.013   7.172 -0.8457 -0.7245  0.9694
 5064TIP3    H236752   6.601   1.081   7.242 -1.0286  0.3765 -0.3645
 5065TIP3   OH236753   4.138   4.582   2.964  0.4305 -0.0464 -1.1533
 5065TIP3    H136754   4.213   4.526   2.986 -0.1181  0.4618  2.8147
 5065TIP3    H236755   4.177   4.667   2.943  1.0537 -0.5183 -1.9408
 5066TIP3   OH236756   3.687   1.696   1.081  0.1303 -0.1918  0.2382
 5066TIP3    H136757   3.678   1.615   1.130  0.0071  0.8978  2.1070
 5066TIP3    H236758   3.767   1.684   1.030  0.3636 -1.3126  0.8427
 5067TIP3   OH236759   6.597   3.566   8.048 -0.0060  0.0342  0.1750
 5067TIP3    H136760   6.588   3.661   8.046 -0.3320 -0.0024 -0.3657
 5067TIP3    H236761   6.688   3.551   8.070  0.3560  0.4878 -0.9322
 5068TIP3   OH236762   2.926   2.233   0.399 -0.3955  0.2737 -0.7171
 5068TIP3    H136763   2.992   2.209   0.464  0.8433  2.1786 -1.1951
 5068TIP3    H236764   2.899   2.150   0.360 -0.7421 -0.8547  1.7889
 5069TIP3   OH236765   3.702   0.998   2.981  0.6080  0.2858  0.2571
 5069TIP3    H136766   3.725   0.906   2.988  0.9379  0.4613  2.1684
 5069TIP3    H236767   3.622   1.007   3.032  0.3978  0.9992 -0.1835
 5070TIP3   OH236768   3.587   2.152   8.446 -0.3813  0.2017 -0.0761
 5070TIP3    H136769   3.534   2.227   8.420  1.5901  1.7654  0.1661
 5070TIP3    H236770   3.613   2.171   8.536  1.5792  0.1327 -0.5800
 5071TIP3   OH236771   6.276   4.561   7.327  0.2769 -0.0599  0.4780
 5071TIP3    H136772   6.185   4.532   7.322  0.7965 -1.6277 -0.3327
 5071TIP3    H236773   6.289   4.615   7.249  0.5279 -1.3145 -0.3621
 5072TIP3   OH236774   5.798   1.702   1.573  0.0787 -0.1331 -0.1735
 5072TIP3    H136775   5.766   1.612   1.575  0.2543 -0.2123 -0.7180
 5072TIP3    H236776   5.828   1.719   1.662  0.2144 -0.6716 -0.1147
 5073TIP3   OH236777   3.210   3.901   2.567  0.1984  0.0943  0.3036
 5073TIP3    H136778   3.282   3.911   2.505  0.9326  3.4853  1.4815
 5073TIP3    H236779   3.233   3.824   2.618  2.7604  0.7456  0.2559
 5074TIP3   OH236780   4.730   3.555   7.769 -0.2307 -0.3951 -0.5362
 5074TIP3    H136781   4.762   3.614   7.700  0.5968  0.6455  0.6829
 5074TIP3    H236782   4.639   3.581   7.783 -0.1627 -0.0624 -0.6917
 5075TIP3   OH236783   1.307   3.288   8.822 -0.4062  0.3246  0.4288
 5075TIP3    H136784   1.307   3.233   8.744  0.4484  0.0558  0.6121
 5075TIP3    H236785   1.373   3.249   8.880 -0.1077  1.2709  0.7501
 5076TIP3   OH236786   0.333   0.064   0.009  0.1905 -0.8803  0.2398
 5076TIP3    H136787   0.415   0.037  -0.032 -0.0966 -0.0884 -0.9174
 5076TIP3    H236788   0.335   0.160   0.005 -1.5862 -0.8681 -1.4770
 5077TIP3   OH236789   6.031   3.716   8.363  0.2267 -0.7344  0.6551
 5077TIP3    H136790   6.073   3.635   8.335  0.8835 -1.1148  2.5605
 5077TIP3    H236791   5.967   3.688   8.428 -0.6956  0.1474  0.1533
 5078TIP3   OH236792   4.376   0.864   7.786  0.1323  0.0906  0.3824
 5078TIP3    H136793   4.370   0.930   7.855  0.4891  0.2586  0.2588
 5078TIP3    H236794   4.435   0.904   7.721 -0.6160  0.1585 -0.2635
 5079TIP3   OH236795   3.929   3.271   7.294  0.2595 -0.5847 -0.0171
 5079TIP3    H136796   3.905   3.202   7.232 -0.2087  0.3206 -0.8755
 5079TIP3    H236797   3.852   3.279   7.351  0.1647 -0.5142 -0.1542
 5080TIP3   OH236798   0.967   6.622   0.600  0.8192  0.4085  0.4315
 5080TIP3    H136799   0.944   6.529   0.598 -1.2137  0.8092 -3.1965
 5080TIP3    H236800   1.039   6.631   0.538 -1.1701  1.5947 -1.8491
 5081TIP3   OH236801   0.880   2.656   0.746  0.6436  0.3130  0.3371
 5081TIP3    H136802   0.801   2.706   0.764  0.3302  0.2247 -0.7314
 5081TIP3    H236803   0.917   2.638   0.832  0.2539  1.5574  0.7861
 5082TIP3   OH236804   2.978   2.772   0.268 -0.4864  0.1461 -0.1146
 5082TIP3    H136805   2.902   2.794   0.214 -0.8342 -1.0863 -0.1400
 5082TIP3    H236806   3.053   2.783   0.209 -0.6653  0.9379 -0.2099
 5083TIP3   OH236807   4.274   3.136   7.838 -0.1423  0.1871 -0.1200
 5083TIP3    H136808   4.298   3.172   7.923 -2.7328  2.4278 -0.1840
 5083TIP3    H236809   4.282   3.211   7.778 -1.5720 -0.4442 -1.1594
 5084TIP3   OH236810   5.324   6.737   7.825  0.0508  0.2063 -0.4855
 5084TIP3    H136811   5.365   6.661   7.866  0.8287  0.6787 -0.3716
 5084TIP3    H236812   5.388   6.807   7.835 -0.5632  0.8202 -0.7948
 5085TIP3   OH236813   1.153   2.441   7.803 -0.1100  0.2251  0.0854
 5085TIP3    H136814   1.186   2.504   7.867 -0.5258 -1.0632  1.6470
 5085TIP3    H236815   1.135   2.362   7.854 -0.0777 -1.0119 -1.7088
 5086TIP3   OH236816   1.391   1.016   1.499 -0.3331  0.3249 -0.2197
 5086TIP3    H136817   1.330   1.091   1.500 -0.2825  0.3649 -0.0739
 5086TIP3    H236818   1.475   1.054   1.475 -0.2997  0.3216 -0.1098
 5087TIP3   OH236819   0.577   0.833   1.785 -0.8035  0.2951 -0.1109
 5087TIP3    H136820   0.600   0.897   1.852 -0.7464  1.1069 -0.8786
 5087TIP3    H236821   0.615   0.750   1.816 -0.7935  0.6487  0.8484
 5088TIP3   OH236822   5.936   3.920   1.217  0.1962  0.1248 -0.0862
 5088TIP3    H136823   5.993   3.843   1.218  1.2280  0.7462  3.2840
 5088TIP3    H236824   5.848   3.885   1.205  0.5930 -1.6987  1.7307
 5089TIP3   OH236825   3.340   4.178   8.876  0.4831  0.4698  0.0186
 5089TIP3    H136826   3.293   4.241   8.821  0.3902  0.4446  0.0695
 5089TIP3    H236827   3.430   4.182   8.844 -0.0474 -1.6150 -2.0848
 5090TIP3   OH236828   5.128   5.713   1.295 -0.3019  0.4099  0.1012
 5090TIP3    H136829   5.220   5.735   1.282 -0.4510  1.5837  0.9118
 5090TIP3    H236830   5.081   5.767   1.231 -0.5909  1.7576  1.3984
 5091TIP3   OH236831   2.452   2.409   0.592  0.2534  0.8111 -0.1571
 5091TIP3    H136832   2.455   2.425   0.686  1.3711 -1.9659  0.3575
 5091TIP3    H236833   2.543   2.415   0.564  0.0454  0.6718 -0.8835
 5092TIP3   OH236834   6.086   1.688   0.008 -0.8476  0.0622  0.1635
 5092TIP3    H136835   6.089   1.671   0.102  0.2091 -0.3562  0.0667
 5092TIP3    H236836   6.017   1.629  -0.024 -1.6480  0.6627  0.7525
 5093TIP3   OH236837   3.620   0.266   1.630 -0.0807  0.2617  0.3164
 5093TIP3    H136838   3.578   0.180   1.618 -0.4531  0.2259  1.6422
 5093TIP3    H236839   3.714   0.246   1.632 -0.1679 -0.1334  0.7105
 5094TIP3   OH236840   0.562   5.462   8.318 -0.1872 -0.0649  0.3058
 5094TIP3    H136841   0.624   5.390   8.334  0.1942 -0.1805 -1.4612
 5094TIP3    H236842   0.555   5.506   8.403  0.1708 -1.7086  1.2441
 5095TIP3   OH236843   1.310   0.874   1.721 -0.3250 -0.5314 -0.2067
 5095TIP3    H136844   1.261   0.814   1.665 -2.0511  2.6710 -2.4013
 5095TIP3    H236845   1.375   0.915   1.663  0.3066  0.2890  1.0169
 5096TIP3   OH236846   6.491   1.752   8.376  0.1770 -0.2063 -0.1936
 5096TIP3    H136847   6.418   1.813   8.392 -0.3678 -1.3874  2.5125
 5096TIP3    H236848   6.476   1.681   8.439  2.8146 -1.2889 -0.6789
 5097TIP3   OH236849   1.410   5.922   1.568 -0.5497 -0.0723 -0.0974
 5097TIP3    H136850   1.385   5.866   1.641 -1.0363  1.1018  0.6842
 5097TIP3    H236851   1.473   5.984   1.605  1.4205 -1.1909 -1.3729
 5098TIP3   OH236852   3.942   0.395   7.299 -0.4104 -0.2085 -0.6628
 5098TIP3    H136853   4.000   0.363   7.229  0.3251  1.1162 -0.6960
 5098TIP3    H236854   3.901   0.473   7.262  0.4303  0.8529  0.5695
 5099TIP3   OH236855   0.317   2.052   1.033 -0.8960 -0.5111 -0.2253
 5099TIP3    H136856   0.347   2.143   1.031 -0.3025 -0.5605  2.3482
 5099TIP3    H236857   0.221   2.058   1.032 -0.8596  0.1038 -0.5357
 5100TIP3   OH236858   5.426   4.718   0.153  0.9240  0.2465  0.4137
 5100TIP3    H136859   5.338   4.703   0.188  0.5560  0.4106 -0.4308
 5100TIP3    H236860   5.418   4.702   0.059  2.0609 -0.8643  0.4816
 5101TIP3   OH236861   2.812   4.933   8.101 -1.0880  0.0963  0.4326
 5101TIP3    H136862   2.883   4.928   8.036  1.5378  0.7764  3.0489
 5101TIP3    H236863   2.738   4.892   8.057  0.4995  0.4885 -2.9737
 5102TIP3   OH236864   0.703   1.044   0.753  0.5681 -0.4725 -0.4328
 5102TIP3    H136865   0.790   1.083   0.759  1.3388 -2.3462  2.0264
 5102TIP3    H236866   0.719   0.949   0.757 -1.6470 -0.8526  2.6461
 5103TIP3   OH236867   0.791   0.604   0.640 -0.0248  0.1497 -0.1857
 5103TIP3    H136868   0.848   0.532   0.611 -0.7779  0.1471 -1.6915
 5103TIP3    H236869   0.847   0.682   0.636  0.9612 -0.3413  1.9540
 5104TIP3   OH236870   2.451   1.324   1.730 -0.2720  0.3155 -0.4925
 5104TIP3    H136871   2.510   1.341   1.803 -1.5385  0.8279  0.4612
 5104TIP3    H236872   2.478   1.385   1.662  0.8029 -0.0286 -0.3930
 5105TIP3   OH236873   4.384   4.718   7.734  0.2863  0.2723  0.8316
 5105TIP3    H136874   4.456   4.765   7.774  0.7558 -0.0658  0.3965
 5105TIP3    H236875   4.334   4.683   7.808  0.1957  1.0480  1.1479
 5106TIP3   OH236876   4.436   6.425   0.739 -0.3740  0.7517  0.4296
 5106TIP3    H136877   4.374   6.424   0.666  0.4356  0.0478 -0.2660
 5106TIP3    H236878   4.409   6.352   0.795  0.7009 -0.5121 -0.6483
 5107TIP3   OH236879   6.535   5.254   0.044  0.4265 -0.7965 -0.2363
 5107TIP3    H136880   6.572   5.199  -0.025  1.5422 -1.4885  0.8550
 5107TIP3    H236881   6.606   5.315   0.067 -0.1495 -0.1509 -0.1420
 5108TIP3   OH236882   1.656   5.342   7.943  0.3446 -0.8685 -0.2199
 5108TIP3    H136883   1.730   5.342   8.003 -0.5816  1.6394  1.1090
 5108TIP3    H236884   1.675   5.412   7.880 -0.0927 -1.4064 -0.9724
 5109TIP3   OH236885   5.574   2.595   2.205 -0.2790  0.4142 -0.2658
 5109TIP3    H136886   5.642   2.553   2.258 -0.8763 -0.3310 -0.0598
 5109TIP3    H236887   5.584   2.688   2.222  2.2045  0.5497 -2.0507
 5110TIP3   OH236888   3.906   4.735   8.665 -0.1502  0.5587 -0.4085
 5110TIP3    H136889   3.885   4.816   8.711  0.7833  1.0672 -0.8587
 5110TIP3    H236890   3.968   4.689   8.722  0.0507  0.6076 -0.5859
 5111TIP3   OH236891   5.445   6.016   0.973 -0.2909 -0.6372 -0.7206
 5111TIP3    H136892   5.489   5.935   0.947 -1.7842 -1.6755 -0.1292
 5111TIP3    H236893   5.488   6.040   1.055  1.0594 -0.0618 -1.5541
 5112TIP3   OH236894   4.011   2.450   1.998  0.8048  0.4899  0.0162
 5112TIP3    H136895   4.051   2.378   2.046  1.6362  1.1570  0.3417
 5112TIP3    H236896   4.056   2.450   1.913 -2.0765 -2.0237 -1.7118
 5113TIP3   OH236897   3.244   0.579   8.029  0.0383 -0.9397  0.3235
 5113TIP3    H136898   3.253   0.668   7.997  1.6651 -1.2313 -0.1475
 5113TIP3    H236899   3.233   0.588   8.124  2.3601 -0.2591  0.5974
 5114TIP3   OH236900   0.825   2.467   7.996  0.4934  0.4911 -0.2940
 5114TIP3    H136901   0.881   2.512   8.059  1.3205 -0.3064 -0.4315
 5114TIP3    H236902   0.884   2.407   7.950 -0.5502 -0.6863 -0.1505
 5115TIP3   OH236903   0.485   4.162   0.170 -0.2200  0.6452 -0.9300
 5115TIP3    H136904   0.405   4.204   0.201 -0.0122  0.4641 -0.1076
 5115TIP3    H236905   0.540   4.235   0.140 -1.4439  0.6322 -3.4179
 5116TIP3   OH236906   6.216   5.314   2.424 -0.9016  0.1084 -0.0517
 5116TIP3    H136907   6.146   5.350   2.478 -1.0471 -1.5384  0.9270
 5116TIP3    H236908   6.294   5.319   2.479 -0.8280 -0.5713 -0.0758
 5117TIP3   OH236909   4.250   0.788   8.462 -0.2638 -0.0186 -0.7715
 5117TIP3    H136910   4.230   0.829   8.378 -2.4604 -1.4703 -1.0363
 5117TIP3    H236911   4.311   0.717   8.440  1.1134  1.1126 -0.7401
 5118TIP3   OH236912   5.747   6.229   7.771 -0.5606  0.0237  0.1267
 5118TIP3    H136913   5.724   6.273   7.689  0.2214  0.6936  0.2501
 5118TIP3    H236914   5.786   6.146   7.744 -1.2248 -0.2089 -0.1389
 5119TIP3   OH236915   3.028   4.836   2.225 -0.1426 -0.7866  0.1709
 5119TIP3    H136916   3.043   4.742   2.210 -0.9177 -1.0338  0.8714
 5119TIP3    H236917   3.114   4.871   2.248 -0.0453 -1.5571  1.0518
 5120TIP3   OH236918   3.799   6.291   7.867 -0.2478  0.0043 -0.3460
 5120TIP3    H136919   3.855   6.275   7.791 -0.8844  0.5648 -0.9506
 5120TIP3    H236920   3.722   6.335   7.831  0.0973  1.6412  0.8216
 5121TIP3   OH236921   3.051   5.670   7.758 -0.3475  0.1707 -0.6260
 5121TIP3    H136922   3.061   5.765   7.751 -2.0871  0.4546  0.3247
 5121TIP3    H236923   2.957   5.655   7.758 -0.1095 -1.6472 -1.5908
 5122TIP3   OH236924   3.473   3.834   7.519 -0.0001 -0.0843 -0.0953
 5122TIP3    H136925   3.395   3.821   7.572 -1.3426 -1.2282 -2.1781
 5122TIP3    H236926   3.441   3.882   7.442  1.4256 -0.2258 -0.8058
 5123TIP3   OH236927   0.304   2.886   0.335  0.7034  0.3848  0.7738
 5123TIP3    H136928   0.304   2.801   0.380  2.3974 -0.1917 -0.2410
 5123TIP3    H236929   0.326   2.866   0.244  0.8324  1.8748  0.4435
 5124TIP3   OH236930   4.874   1.984   1.757  0.0598 -0.0027  0.1395
 5124TIP3    H136931   4.888   2.051   1.690 -1.3364 -0.4337 -0.6303
 5124TIP3    H236932   4.805   2.019   1.812 -1.6790 -1.3166 -1.0844
 5125TIP3   OH236933   1.008   4.772   2.370 -0.3388 -0.3122 -0.1354
 5125TIP3    H136934   1.103   4.774   2.359 -0.3322 -1.2937 -0.3804
 5125TIP3    H236935   0.992   4.690   2.417 -1.0292  0.0725  0.3089
 5126TIP3   OH236936   3.326   3.615   8.069 -0.1551 -0.2852 -0.5674
 5126TIP3    H136937   3.371   3.561   8.004 -0.2606  0.5540 -1.3569
 5126TIP3    H236938   3.317   3.558   8.145 -0.3254 -1.3982 -1.3995
 5127TIP3   OH236939   3.904   1.491   0.478 -0.7959 -0.3565 -0.2018
 5127TIP3    H136940   3.928   1.420   0.538 -1.0838 -1.2978 -1.1631
 5127TIP3    H236941   3.838   1.542   0.527  0.0374 -0.2278  0.8259
 5128TIP3   OH236942   5.176   5.030   8.139 -0.5775  0.3453  0.3367
 5128TIP3    H136943   5.194   5.089   8.212 -1.1408 -2.4192  2.9114
 5128TIP3    H236944   5.257   5.030   8.088  0.4558  1.1291  1.8964
 5129TIP3   OH236945   4.763   3.183   2.611 -0.4829  0.0569 -0.3897
 5129TIP3    H136946   4.842   3.144   2.574  0.4509  1.3962  0.1397
 5129TIP3    H236947   4.759   3.270   2.573 -0.8761  0.5479  0.7410
 5130TIP3   OH236948   2.215   1.109   6.979  0.3912  0.2564  0.3435
 5130TIP3    H136949   2.232   1.095   7.073  1.9633 -1.6123 -0.1373
 5130TIP3    H236950   2.178   1.026   6.949  1.3469  0.2785 -0.9728
 5131TIP3   OH236951   1.281   1.257   1.479  0.0619  0.0594  0.3198
 5131TIP3    H136952   1.241   1.324   1.425  0.3066 -0.4838 -0.5563
 5131TIP3    H236953   1.215   1.237   1.546 -0.5432  0.2164 -0.2206
 5132TIP3   OH236954   5.202   4.745   0.789 -0.1687 -0.1656  0.0626
 5132TIP3    H136955   5.138   4.679   0.763 -0.5183  0.3353 -0.3763
 5132TIP3    H236956   5.222   4.725   0.880  0.3021 -1.3318 -0.2834
 5133TIP3   OH236957   1.889   5.368   0.992 -0.1746 -0.4183 -0.3888
 5133TIP3    H136958   1.810   5.331   1.031 -0.7940  0.0744 -1.1316
 5133TIP3    H236959   1.950   5.295   0.984 -0.8642 -0.9753 -0.5595
 5134TIP3   OH236960   1.925   1.853   0.117  0.4215  0.3255  0.4356
 5134TIP3    H136961   1.901   1.918   0.183  1.3069  0.7301  0.3745
 5134TIP3    H236962   1.842   1.813   0.091 -0.3609  2.5385 -0.6994
 5135TIP3   OH236963   2.019   2.774   6.791 -0.4760 -0.1706  0.3010
 5135TIP3    H136964   2.103   2.813   6.817 -0.3348  1.1455 -1.8703
 5135TIP3    H236965   2.036   2.734   6.706 -1.6216 -1.5818  0.6898
 5136TIP3   OH236966   6.574   5.317   2.217  0.5014  0.5528 -0.3289
 5136TIP3    H136967   6.594   5.225   2.198  0.7436  0.6199 -0.4094
 5136TIP3    H236968   6.482   5.327   2.194  0.2979  0.1713  0.2886
 5137TIP3   OH236969   5.823   4.438   8.131 -1.1059 -0.2907 -0.0402
 5137TIP3    H136970   5.843   4.478   8.047 -1.0992  0.1917  0.1891
 5137TIP3    H236971   5.856   4.348   8.124 -1.7743 -0.4910 -0.8158
 5138TIP3   OH236972   0.587   4.818   8.775  0.0368 -0.0279 -0.2844
 5138TIP3    H136973   0.646   4.743   8.773  0.2882  0.1699 -0.2627
 5138TIP3    H236974   0.581   4.846   8.683 -0.5403 -0.4522 -0.3795
 5139TIP3   OH236975   3.304   1.445   7.864 -0.1850 -0.5221  0.4878
 5139TIP3    H136976   3.250   1.490   7.800 -1.1708 -2.5316 -0.1858
 5139TIP3    H236977   3.361   1.388   7.812  0.7558 -0.3625  1.3052
 5140TIP3   OH236978   6.050   1.883   1.035  0.2940  0.3489 -0.4033
 5140TIP3    H136979   6.065   1.970   0.997 -1.1263  0.6557 -0.3301
 5140TIP3    H236980   5.965   1.891   1.078 -0.3457 -1.3731 -1.2595
 5141TIP3   OH236981   2.026   0.768   1.276  0.1158  0.6569  0.1576
 5141TIP3    H136982   1.945   0.775   1.227  0.4967  0.4507 -0.5206
 5141TIP3    H236983   2.061   0.857   1.279  1.3299  0.3480 -2.1468
 5142TIP3   OH236984   2.849   2.596   1.995 -0.1620 -0.8749 -0.0092
 5142TIP3    H136985   2.812   2.575   2.081 -1.0047 -2.4031 -0.6926
 5142TIP3    H236986   2.826   2.687   1.980  0.1501 -0.5405  1.4568
 5143TIP3   OH236987   0.938   3.308   1.875 -0.0142  0.2747  0.3707
 5143TIP3    H136988   0.955   3.352   1.792 -1.4401  0.6091  0.2329
 5143TIP3    H236989   0.913   3.378   1.935 -0.1343 -0.1021  0.7675
 5144TIP3   OH236990   1.916   5.096   7.955 -0.2481  0.0797  0.4906
 5144TIP3    H136991   1.858   5.148   8.011  1.9314  1.1935  1.8867
 5144TIP3    H236992   1.946   5.158   7.888 -0.8148 -0.5465 -0.3618
 5145TIP3   OH236993   5.304   0.468   7.874  0.6056  0.0046 -0.1849
 5145TIP3    H136994   5.295   0.563   7.860  1.7396  0.5361  2.1411
 5145TIP3    H236995   5.263   0.453   7.960 -1.5106 -2.0572 -1.4389
 5146TIP3   OH236996   5.967   1.026   8.185 -0.7817 -0.3194  0.0339
 5146TIP3    H136997   5.934   1.071   8.107  0.8942  0.6490 -0.1551
 5146TIP3    H236998   6.007   1.094   8.238  3.3684 -1.5972 -1.0413
 5147TIP3   OH236999   6.202   0.838   0.894  0.6117 -0.1684  0.1870
 5147TIP3    H137000   6.137   0.896   0.854  0.3791  0.2261  1.1117
 5147TIP3    H237001   6.150   0.775   0.944  0.9450  0.2917  1.1210
 5148TIP3   OH237002   4.493   2.098   2.717  0.2856 -0.0207 -0.0413
 5148TIP3    H137003   4.421   2.080   2.777 -0.0074  2.4891  0.4950
 5148TIP3    H237004   4.548   2.020   2.720 -1.2441 -1.1023  1.2570
 5149TIP3   OH237005   5.796   3.263   1.077 -0.2510 -0.3616  0.1988
 5149TIP3    H137006   5.888   3.244   1.058  0.0552  1.3767 -0.1734
 5149TIP3    H237007   5.765   3.184   1.121  1.6896 -0.6175  1.2351
 5150TIP3   OH237008   0.617   2.433   2.007  0.1886 -0.8316 -0.6241
 5150TIP3    H137009   0.679   2.449   1.936 -0.0329  0.0199 -0.6348
 5150TIP3    H237010   0.665   2.454   2.087 -0.2602  0.4600 -0.6680
 5151TIP3   OH237011   4.905   4.844   2.641 -0.5519 -0.0406 -0.0768
 5151TIP3    H137012   4.980   4.882   2.594  0.7327 -0.2576  1.6968
 5151TIP3    H237013   4.924   4.750   2.644 -1.5663 -0.2863 -0.7031
 5152TIP3   OH237014   0.630   5.118   2.455 -0.2535  0.1191  0.1794
 5152TIP3    H137015   0.650   5.079   2.370  0.7544 -1.3731  1.0611
 5152TIP3    H237016   0.535   5.109   2.464 -1.1033  3.9531 -2.4712
 5153TIP3   OH237017   0.399   3.185   7.444 -0.4180  0.4535 -0.7872
 5153TIP3    H137018   0.471   3.204   7.503  0.9590  0.0127 -2.2326
 5153TIP3    H237019   0.320   3.194   7.497  0.7843 -1.0280  1.3945
 5154TIP3   OH237020   1.569   1.990   2.064 -0.1151  0.0029 -0.1850
 5154TIP3    H137021   1.564   1.970   2.157  0.6198  1.9692  0.3350
 5154TIP3    H237022   1.614   2.074   2.060  0.5127 -0.3674 -2.3721
 5155TIP3   OH237023   1.308   2.067   7.497 -0.1875 -0.3235  0.0895
 5155TIP3    H137024   1.251   2.055   7.421 -0.7927 -2.6909  0.8182
 5155TIP3    H237025   1.390   2.101   7.461 -1.4249  1.4707 -1.1998
 5156TIP3   OH237026   5.437   4.752   0.649 -0.3148 -0.1093  0.2406
 5156TIP3    H137027   5.474   4.840   0.656 -0.4278  0.1538 -1.8746
 5156TIP3    H237028   5.348   4.761   0.682  0.0203  0.2903  1.0772
 5157TIP3   OH237029   2.453   6.220   0.870  0.0538 -0.4677  0.1172
 5157TIP3    H137030   2.547   6.237   0.878 -0.2379  1.0867  0.5636
 5157TIP3    H237031   2.444   6.170   0.789  1.1279  0.4653 -0.5990
 5158TIP3   OH237032   1.698   4.505   7.557 -0.2877 -0.1235 -0.6715
 5158TIP3    H137033   1.778   4.547   7.525  0.6773 -2.1922 -1.2033
 5158TIP3    H237034   1.633   4.575   7.561  1.5510  1.6563 -0.1659
 5159TIP3   OH237035   2.634   2.544   1.823 -0.2667  0.0392  0.3707
 5159TIP3    H137036   2.644   2.608   1.753 -1.7466  0.1523  0.2363
 5159TIP3    H237037   2.717   2.547   1.870  0.4056  0.6299 -0.8116
 5160TIP3   OH237038   1.695   5.549   0.896  0.0413  0.4332 -0.0859
 5160TIP3    H137039   1.774   5.497   0.907 -0.3874 -0.5352 -1.3444
 5160TIP3    H237040   1.625   5.485   0.885 -0.1534  1.0786 -4.3436
 5161TIP3   OH237041   5.194   4.911   7.551  0.3620  0.4935 -0.2966
 5161TIP3    H137042   5.262   4.865   7.599 -0.4283  1.0643  1.4600
 5161TIP3    H237043   5.149   4.843   7.502  1.6888  0.0078 -0.8958
 5162TIP3   OH237044   1.748   0.327   1.936 -0.3004 -0.0601 -0.2521
 5162TIP3    H137045   1.795   0.282   1.867  2.3508 -1.2147  2.1107
 5162TIP3    H237046   1.760   0.420   1.918 -1.0671 -0.2895 -2.1421
 5163TIP3   OH237047   6.721   4.614   8.555 -0.2320 -0.0841 -0.0081
 5163TIP3    H137048   6.650   4.550   8.548  0.7320 -1.1741 -0.0557
 5163TIP3    H237049   6.782   4.576   8.619  0.5355  0.6060 -0.3126
 5164TIP3   OH237050   4.444   3.388   1.206 -0.1297  0.2123  0.0150
 5164TIP3    H137051   4.424   3.412   1.115  0.5186 -1.0724 -0.4931
 5164TIP3    H237052   4.432   3.293   1.209 -0.5969  0.2879  1.4107
 5165TIP3   OH237053   4.482   4.664   2.237 -0.0550  0.0454 -0.7111
 5165TIP3    H137054   4.516   4.613   2.163  1.9717 -0.8973  0.7760
 5165TIP3    H237055   4.505   4.613   2.314  1.0012  2.6115  0.8035
 5166TIP3   OH237056   3.205   0.271   8.070 -0.6589  0.3109  0.4538
 5166TIP3    H137057   3.270   0.208   8.039 -0.9488 -0.3847  1.2448
 5166TIP3    H237058   3.253   0.354   8.075  0.3809 -0.3377  1.7353
 5167TIP3   OH237059   0.469   4.681   3.094 -0.0034  0.0346 -0.9126
 5167TIP3    H137060   0.472   4.593   3.057  0.3614 -0.1405 -0.4810
 5167TIP3    H237061   0.559   4.713   3.086  0.7759 -0.9818  2.0803
 5168TIP3   OH237062   6.227   1.428   2.585 -0.2160  0.1663 -0.2548
 5168TIP3    H137063   6.246   1.521   2.590 -1.8045  0.6963 -2.6427
 5168TIP3    H237064   6.305   1.389   2.545  0.6715  0.3176  1.2328
 5169TIP3   OH237065   3.112   1.591   7.683  0.2076 -0.6088 -0.3600
 5169TIP3    H137066   3.072   1.631   7.606  0.1177  1.7798  0.8342
 5169TIP3    H237067   3.039   1.563   7.737  0.2709 -2.3560 -1.0838
 5170TIP3   OH237068   4.005   4.294   1.682  0.2004  0.0265  0.2276
 5170TIP3    H137069   3.999   4.366   1.746  1.2044  1.5587 -1.3296
 5170TIP3    H237070   3.934   4.235   1.707 -0.8591  1.6841  1.4198
 5171TIP3   OH237071   0.672   5.175   8.356 -0.0892 -0.2565 -0.2211
 5171TIP3    H137072   0.678   5.086   8.390  2.4614 -0.7822 -1.7572
 5171TIP3    H237073   0.710   5.170   8.269  0.3090  2.3722 -0.2759
 5172TIP3   OH237074   3.093   1.885   8.612  0.0622 -0.5291  0.0678
 5172TIP3    H137075   3.138   1.963   8.644  1.0224 -0.1375 -2.0690
 5172TIP3    H237076   3.162   1.831   8.574 -0.7587 -1.8508  0.3819
 5173TIP3   OH237077   2.910   6.184   8.105  0.1300  0.5095 -0.0257
 5173TIP3    H137078   2.994   6.182   8.150 -0.0081 -1.8655  0.2446
 5173TIP3    H237079   2.907   6.102   8.055 -1.4284  1.1956 -1.1721
 5174TIP3   OH237080   4.478   1.217   2.650 -0.0641  0.5139 -0.0860
 5174TIP3    H137081   4.451   1.224   2.742  0.0774  1.3273 -0.1082
 5174TIP3    H237082   4.506   1.305   2.626  1.0423  0.0418 -0.5633
 5175TIP3   OH237083   5.523   3.452   8.652 -0.3236 -0.4006  0.0930
 5175TIP3    H137084   5.557   3.540   8.635  1.0483 -0.7789  0.7430
 5175TIP3    H237085   5.468   3.461   8.730  0.1049 -0.1858  0.3703
 5176TIP3   OH237086   2.724   4.014   8.455  0.1467 -0.3499  0.3709
 5176TIP3    H137087   2.784   3.963   8.509  2.3668  1.9813  0.2809
 5176TIP3    H237088   2.659   4.048   8.516  0.6686 -0.4909  1.0088
 5177TIP3   OH237089   1.618   2.159   1.747  0.0854 -0.2207 -0.1764
 5177TIP3    H137090   1.541   2.106   1.727  0.1971 -0.6748  0.5490
 5177TIP3    H237091   1.604   2.188   1.838  1.7826 -2.1534  0.7815
 5178TIP3   OH237092   3.150   0.208   7.558 -0.2855 -0.1385  0.4517
 5178TIP3    H137093   3.070   0.163   7.583 -0.3873 -1.4055 -1.8301
 5178TIP3    H237094   3.176   0.166   7.476  2.1029  1.0004  0.5357
 5179TIP3   OH237095   6.002   6.627   7.296  0.1702 -0.0127 -0.4059
 5179TIP3    H137096   5.909   6.628   7.318 -0.0985 -1.5787 -1.2674
 5179TIP3    H237097   6.041   6.696   7.350 -1.3422  0.0904  0.6115
 5180TIP3   OH237098   1.761   2.879   0.159  0.3535 -0.4884  0.3257
 5180TIP3    H137099   1.766   2.816   0.087 -0.1913 -1.5251  1.1680
 5180TIP3    H237100   1.684   2.932   0.139 -0.0394 -1.0406  0.3489
 5181TIP3   OH237101   6.079   0.003   2.180 -0.0890 -0.2630 -0.2565
 5181TIP3    H137102   6.158  -0.015   2.231  0.7180  0.3291 -1.2693
 5181TIP3    H237103   6.041   0.080   2.222  0.5540  0.2029 -0.5203
 5182TIP3   OH237104   4.815   1.731   1.367 -0.0919  0.9531 -0.0394
 5182TIP3    H137105   4.741   1.716   1.426  0.4505  0.6886  0.5876
 5182TIP3    H237106   4.836   1.824   1.378  1.3962  0.4643  1.8893
 5183TIP3   OH237107   2.656   1.883   0.118  0.8210 -0.2171 -0.7823
 5183TIP3    H137108   2.624   1.967   0.151 -0.9913 -1.2408  0.2387
 5183TIP3    H237109   2.580   1.845   0.072  2.0922 -0.5983 -2.7029
 5184TIP3   OH237110   4.289   2.349   1.850  0.6461 -0.5834  0.1327
 5184TIP3    H137111   4.338   2.359   1.768  0.2461 -0.7038 -0.1222
 5184TIP3    H237112   4.214   2.295   1.827  0.1399 -0.0181  0.4154
 5185TIP3   OH237113   5.483   4.314   8.179  0.4081  0.6511 -0.0337
 5185TIP3    H137114   5.389   4.315   8.158 -0.0525 -0.6250  1.6522
 5185TIP3    H237115   5.526   4.351   8.102 -1.4417  0.7998 -1.0543
 5186TIP3   OH237116   3.884   0.186   8.635  0.2336  0.2882 -0.0394
 5186TIP3    H137117   3.824   0.258   8.658  0.6432 -0.0693  2.4486
 5186TIP3    H237118   3.971   0.221   8.654  0.3325 -1.4900  3.6140
 5187TIP3   OH237119   4.473   3.102   2.875 -0.4027  0.4397 -0.3534
 5187TIP3    H137120   4.562   3.074   2.895  0.4712  1.7787 -2.0407
 5187TIP3    H237121   4.450   3.164   2.944  0.0715  0.2911 -0.0622
 5188TIP3   OH237122   3.822   2.468   0.201  0.0650 -0.2375 -0.0585
 5188TIP3    H137123   3.751   2.469   0.265 -0.6878 -0.4052 -0.8667
 5188TIP3    H237124   3.854   2.559   0.199  0.7130 -0.4142  1.1924
 5189TIP3   OH237125   1.926   5.626   1.672  0.9315  0.1912 -0.2344
 5189TIP3    H137126   1.988   5.612   1.744 -0.5161  0.7221  1.1612
 5189TIP3    H237127   1.896   5.716   1.682 -1.8299 -0.7192  0.6106
 5190TIP3   OH237128   1.149   1.190   8.835 -0.4446  0.4012  0.0127
 5190TIP3    H137129   1.220   1.147   8.882 -2.0708 -2.2225  0.2766
 5190TIP3    H237130   1.101   1.239   8.902 -0.9135 -0.7429  0.5396
 5191TIP3   OH237131   6.155   3.669   7.934 -0.1586 -0.2547  0.9109
 5191TIP3    H137132   6.208   3.747   7.950 -1.7231  0.8828  0.8300
 5191TIP3    H237133   6.188   3.633   7.852  1.9581 -0.9015  1.9990
 5192TIP3   OH237134   3.052   0.740   2.360  0.5999 -0.4129  0.1564
 5192TIP3    H137135   2.958   0.740   2.342  0.3415  1.5849  1.1846
 5192TIP3    H237136   3.059   0.759   2.453  2.0137  1.4782 -0.2739
 5193TIP3   OH237137   3.761   2.364   1.818  0.2942 -0.2236 -0.4633
 5193TIP3    H137138   3.848   2.343   1.853  0.2434 -0.2221 -0.3354
 5193TIP3    H237139   3.704   2.297   1.856 -0.0639  0.7631  0.8072
 5194TIP3   OH237140   0.945   5.624   7.866 -0.2755 -0.0151  0.3318
 5194TIP3    H137141   0.974   5.570   7.792 -0.6292 -0.9497  0.8695
 5194TIP3    H237142   0.899   5.698   7.824  0.8289  0.2654 -0.4320
 5195TIP3   OH237143   2.233   4.749   0.054 -0.1667  0.7259 -0.2172
 5195TIP3    H137144   2.168   4.756   0.124 -1.5501 -1.4155 -1.1937
 5195TIP3    H237145   2.294   4.683   0.084 -0.6397 -0.0408 -0.9020
 5196TIP3   OH237146   4.148   2.639   1.248  0.1600 -0.2309  0.5361
 5196TIP3    H137147   4.176   2.592   1.169 -1.1496  1.3481 -0.9385
 5196TIP3    H237148   4.076   2.586   1.283 -1.9137  0.9417 -1.6121
 5197TIP3   OH237149   0.980   1.818   2.270  0.0635  0.2818  0.1874
 5197TIP3    H137150   1.007   1.826   2.362  1.2170  1.3189 -0.2128
 5197TIP3    H237151   0.922   1.893   2.256 -1.1472 -0.5970  0.3986
 5198TIP3   OH237152   1.321   1.270   7.679 -0.5590  0.7239 -0.8351
 5198TIP3    H137153   1.249   1.226   7.634 -0.8872  2.4725 -2.1352
 5198TIP3    H237154   1.293   1.361   7.685  0.2601  0.8876  1.3984
 5199TIP3   OH237155   3.088   0.275   0.439  0.2918 -0.6302 -0.1166
 5199TIP3    H137156   3.182   0.288   0.422  0.3181  0.2247  0.5948
 5199TIP3    H237157   3.080   0.284   0.534 -0.5311 -0.5718 -0.1881
 5200TIP3   OH237158   2.815   5.532   7.594  0.0179 -0.5869  0.3509
 5200TIP3    H137159   2.755   5.461   7.619  1.4180 -1.8151  0.3606
 5200TIP3    H237160   2.765   5.585   7.532 -1.5462 -0.7635  1.4204
 5201TIP3   OH237161   4.461   4.668   8.107 -0.5355  0.6532 -0.1895
 5201TIP3    H137162   4.419   4.747   8.075 -2.0277 -0.3851 -0.9171
 5201TIP3    H237163   4.537   4.656   8.050 -0.4581  1.3867 -0.2502
 5202TIP3   OH237164   1.362   2.970   1.687  0.8643 -0.1029 -0.2788
 5202TIP3    H137165   1.333   3.060   1.668  0.4011 -0.1586  0.1236
 5202TIP3    H237166   1.379   2.970   1.782 -1.7901 -1.1176  0.2954
 5203TIP3   OH237167   3.330   5.893   2.246  0.5662  0.5701 -0.0795
 5203TIP3    H137168   3.396   5.954   2.279 -0.4578  1.5322  0.2611
 5203TIP3    H237169   3.353   5.880   2.154  3.2390 -1.8546  0.7728
 5204TIP3   OH237170   0.504   3.675   1.725 -0.1944 -0.1247  0.0247
 5204TIP3    H137171   0.468   3.744   1.781 -1.1471 -0.9995  0.5163
 5204TIP3    H237172   0.445   3.601   1.736 -0.1011 -0.5143 -1.7397
 5205TIP3   OH237173   3.401   4.129   2.229 -0.1258 -0.0584 -0.0440
 5205TIP3    H137174   3.334   4.197   2.224  0.2015  0.1980 -1.7260
 5205TIP3    H237175   3.483   4.177   2.246 -0.0530 -0.1268 -0.1937
 5206TIP3   OH237176   2.502   2.064   1.208  0.0687 -0.3190  0.0048
 5206TIP3    H137177   2.567   1.995   1.192  0.0272 -0.5822  0.9246
 5206TIP3    H237178   2.479   2.053   1.300  0.5309  1.3355  0.3392
 5207TIP3   OH237179   3.071   2.944   0.621  0.0111  0.7689 -0.2240
 5207TIP3    H137180   2.984   2.981   0.634 -0.4118  0.2679 -1.5205
 5207TIP3    H237181   3.071   2.864   0.672  0.5210  1.8755  1.6192
 5208TIP3   OH237182   3.373   1.038   8.631  0.0406 -0.7957  0.0673
 5208TIP3    H137183   3.398   1.123   8.669  0.0254 -1.2942  1.2288
 5208TIP3    H237184   3.431   0.975   8.672  0.0299 -1.3662 -0.7674
 5209TIP3   OH237185   5.370   2.483   7.564  0.2252 -0.9426 -0.9501
 5209TIP3    H137186   5.441   2.419   7.559 -0.1873 -1.4569 -0.4113
 5209TIP3    H237187   5.291   2.430   7.569 -0.0992 -0.3929 -0.0627
 5210TIP3   OH237188   6.562   4.328   0.397  0.2821  0.2827 -0.2496
 5210TIP3    H137189   6.503   4.343   0.324 -0.4097 -1.5519 -0.1436
 5210TIP3    H237190   6.640   4.288   0.357  0.1365 -0.1924 -0.0737
 5211TIP3   OH237191   4.103   0.806   0.639 -0.2166 -0.3350 -0.3089
 5211TIP3    H137192   4.113   0.729   0.584  0.3071  0.7612 -1.8331
 5211TIP3    H237193   4.128   0.777   0.727 -0.2754 -1.9365 -0.8021
 5212TIP3   OH237194   6.047   2.129   6.690 -0.1543 -0.2338 -0.1262
 5212TIP3    H137195   6.117   2.065   6.705 -0.3043 -0.6674 -1.2422
 5212TIP3    H237196   5.972   2.076   6.661 -0.5417  0.3680 -0.2302
 5213TIP3   OH237197   2.991   5.086   1.530 -0.0482  0.2989 -0.0077
 5213TIP3    H137198   2.923   5.150   1.549  0.3087  0.2789  1.4813
 5213TIP3    H237199   3.071   5.123   1.568  0.1476 -1.0359  0.9869
 5214TIP3   OH237200   4.778   0.018   1.882  0.3130 -0.0175 -0.4854
 5214TIP3    H137201   4.832   0.023   1.961 -1.7718  2.3124  0.9649
 5214TIP3    H237202   4.735  -0.067   1.887  1.5180 -0.6224 -0.0758
 5215TIP3   OH237203   2.143   1.960   8.918  0.4269  0.2243 -0.4675
 5215TIP3    H137204   2.138   1.942   9.011  0.4472  0.7863 -0.3510
 5215TIP3    H237205   2.051   1.959   8.889  0.5034 -1.3637 -0.7379
 5216TIP3   OH237206   4.984   0.746   0.953 -0.2068  0.0339  0.4873
 5216TIP3    H137207   4.916   0.719   0.891  1.4724  0.7724 -1.8093
 5216TIP3    H237208   5.055   0.683   0.939  0.5436  0.7255  1.0894
 5217TIP3   OH237209   4.241   3.473   1.618 -0.4021 -0.2742  0.5876
 5217TIP3    H137210   4.327   3.511   1.638 -0.7838  1.6141 -1.0918
 5217TIP3    H237211   4.262   3.388   1.578  0.8958  1.1114 -1.9633
 5218TIP3   OH237212   2.119   1.440   8.812 -0.0422  0.5457 -0.2754
 5218TIP3    H137213   2.071   1.470   8.889  0.5886  2.4704 -0.5773
 5218TIP3    H237214   2.202   1.488   8.816 -0.0777  0.8242 -2.2428
 5219TIP3   OH237215   0.684   4.158   1.192 -0.6832  0.2493 -0.1191
 5219TIP3    H137216   0.751   4.215   1.230 -0.4764 -0.1704  0.1460
 5219TIP3    H237217   0.709   4.148   1.101 -1.0712  1.1032 -0.3305
 5220TIP3   OH237218   4.444   1.945   0.717  0.8183 -0.2330 -0.4485
 5220TIP3    H137219   4.349   1.933   0.717  0.8210 -0.2621 -0.8636
 5220TIP3    H237220   4.459   2.020   0.659  0.8653  1.3589  1.5178
 5221TIP3   OH237221   2.336   4.830   2.242  0.0203  0.0566 -0.1274
 5221TIP3    H137222   2.413   4.787   2.206  0.0921 -1.2375  1.4690
 5221TIP3    H237223   2.265   4.808   2.181  0.7821  0.8519 -1.3410
 5222TIP3   OH237224   0.442   2.164   1.859  0.3056  0.4085  0.5160
 5222TIP3    H137225   0.387   2.097   1.819  1.3471 -1.0530  1.4297
 5222TIP3    H237226   0.381   2.221   1.905 -0.6126  0.1999 -0.3970
 5223TIP3   OH237227   1.651   4.067   7.722  0.7293 -0.5628 -0.1789
 5223TIP3    H137228   1.647   3.985   7.771  1.1863  0.1483  1.0807
 5223TIP3    H237229   1.704   4.125   7.776  0.9855  0.3525 -1.3764
 5224TIP3   OH237230   1.213   0.246   0.784  0.5653 -0.1103  0.3681
 5224TIP3    H137231   1.286   0.218   0.839  0.1039 -0.5815  0.7455
 5224TIP3    H237232   1.158   0.168   0.775  1.3200 -0.4627 -1.9001
 5225TIP3   OH237233   3.082   1.060   6.584  0.0417  0.4479  0.3101
 5225TIP3    H137234   3.081   1.156   6.581  1.5877  0.4816 -2.6501
 5225TIP3    H237235   3.147   1.039   6.651  0.2214  1.5040  0.4828
 5226TIP3   OH237236   2.599   2.760   1.290 -0.4840  0.2239 -0.0344
 5226TIP3    H137237   2.595   2.839   1.343  0.3401 -0.3217  0.8705
 5226TIP3    H237238   2.513   2.719   1.303 -0.5985  0.5332  0.1900
 5227TIP3   OH237239   3.680   6.593   2.714 -0.2211 -0.3003  0.6084
 5227TIP3    H137240   3.589   6.571   2.692  0.3111 -0.2803 -1.8739
 5227TIP3    H237241   3.694   6.680   2.676  1.0659 -0.6553  0.2228
 5228TIP3   OH237242   0.581   2.413   8.105 -0.3719 -0.8560  0.1047
 5228TIP3    H137243   0.657   2.397   8.048  1.5041  0.9102  1.9725
 5228TIP3    H237244   0.538   2.327   8.111  0.7742 -1.6499 -1.9286
 5229TIP3   OH237245   3.712   5.279   0.915 -0.8197 -0.3076  0.1693
 5229TIP3    H137246   3.785   5.308   0.860 -0.6870  0.1381  0.5694
 5229TIP3    H237247   3.754   5.230   0.986 -0.9809 -0.7958 -0.0702
 5230TIP3   OH237248   0.520   1.490   1.193 -0.1340 -0.9584  0.4208
 5230TIP3    H137249   0.532   1.507   1.099 -3.4394  0.0961  0.0455
 5230TIP3    H237250   0.482   1.402   1.196 -0.5852 -0.7561  0.6968
 5231TIP3   OH237251   0.505   4.907   8.474 -0.3211 -0.8172  0.3126
 5231TIP3    H137252   0.450   4.830   8.460 -0.0177 -0.9026 -0.4200
 5231TIP3    H237253   0.467   4.974   8.417 -0.7233 -0.3436  1.1150
 5232TIP3   OH237254   3.785   5.740   2.829 -0.0794 -0.0589  0.1212
 5232TIP3    H137255   3.736   5.659   2.840  1.9520 -1.2827  0.6898
 5232TIP3    H237256   3.726   5.808   2.861 -0.9639 -1.5834  1.9272
 5233TIP3   OH237257   4.913   4.495   7.614  0.1599 -0.2619  0.1697
 5233TIP3    H137258   4.832   4.443   7.617 -0.2620  0.4392  1.8498
 5233TIP3    H237259   4.959   4.462   7.537 -1.1162 -1.5848 -0.0800
 5234TIP3   OH237260   1.759   3.153   0.608  0.1550  0.3390  0.4523
 5234TIP3    H137261   1.842   3.200   0.599  0.0310  0.9139  1.9647
 5234TIP3    H237262   1.783   3.061   0.604  0.5191  0.4829 -1.6528
 5235TIP3   OH237263   2.847   5.844   2.205 -0.7725 -0.3933 -0.1482
 5235TIP3    H137264   2.934   5.808   2.218 -0.5661 -0.5314 -1.6655
 5235TIP3    H237265   2.857   5.938   2.222 -0.3960 -0.4576 -0.0056
 5236TIP3   OH237266   6.069   0.262   7.828 -0.0182  0.0604 -0.4067
 5236TIP3    H137267   6.053   0.226   7.916  1.1039 -0.7321 -0.5010
 5236TIP3    H237268   5.988   0.309   7.806  0.2982  1.7675  1.7466
 5237TIP3   OH237269   5.521   6.456   8.549  0.1091 -0.2386 -0.5441
 5237TIP3    H137270   5.583   6.496   8.488  0.1758 -0.8457 -0.8758
 5237TIP3    H237271   5.444   6.436   8.496 -1.1411  2.1662  0.2040
 5238TIP3   OH237272   2.096   5.557   1.021  0.2030 -0.2434  0.0823
 5238TIP3    H137273   2.046   5.476   1.013  1.7253 -1.3433  1.1248
 5238TIP3    H237274   2.175   5.532   1.069  0.9381  1.7744  0.0279
 5239TIP3   OH237275   2.821   3.322   0.124 -0.5321  0.2636 -0.1304
 5239TIP3    H137276   2.741   3.370   0.103 -1.1820 -1.3489 -1.5469
 5239TIP3    H237277   2.858   3.298   0.039  0.5575 -0.4966  0.5278
 5240TIP3   OH237278   1.053   0.751   8.198  0.1404 -0.2799 -0.1149
 5240TIP3    H137279   1.024   0.791   8.280  0.5927 -0.5142  0.1657
 5240TIP3    H237280   0.989   0.780   8.133 -0.7465 -0.8451  0.4859
 5241TIP3   OH237281   6.585   6.583   2.951  0.2493 -0.2277  0.0565
 5241TIP3    H137282   6.497   6.619   2.950 -0.2437 -1.4022 -0.0382
 5241TIP3    H237283   6.642   6.659   2.964 -0.7652  0.5441  0.0789
 5242TIP3   OH237284   3.872   1.680   7.833  0.1408  0.6877 -0.0233
 5242TIP3    H137285   3.786   1.722   7.836 -0.4822 -0.5180 -0.0675
 5242TIP3    H237286   3.879   1.635   7.918  0.2970 -0.0066 -0.3976
 5243TIP3   OH237287   3.350   2.058   2.958  0.1906  0.1411 -0.0410
 5243TIP3    H137288   3.418   2.039   3.024 -0.2274  1.6368  0.8555
 5243TIP3    H237289   3.283   1.991   2.974  1.0183 -0.7953 -0.3435
 5244TIP3   OH237290   1.101   1.043   1.210  0.3253  0.0955 -0.4712
 5244TIP3    H137291   1.186   1.043   1.166  0.7115 -0.5386  0.2291
 5244TIP3    H237292   1.074   0.951   1.210 -1.1064  0.4768 -2.0331
 5245TIP3   OH237293   6.601   0.708   7.707  0.1942  0.3595  0.8850
 5245TIP3    H137294   6.609   0.803   7.711  0.0761  0.4352 -0.4671
 5245TIP3    H237295   6.521   0.689   7.757 -0.6860  1.1212 -0.1882
 5246TIP3   OH237296   5.528   1.803   8.059  0.0246  0.2671 -0.2290
 5246TIP3    H137297   5.515   1.898   8.057  2.6747  0.7650  1.4533
 5246TIP3    H237298   5.601   1.790   8.118 -1.7777 -3.0530  1.5659
 5247TIP3   OH237299   0.355   0.945   7.159 -0.4502 -0.4309 -0.5470
 5247TIP3    H137300   0.445   0.978   7.166 -0.8863  1.1545 -1.6992
 5247TIP3    H237301   0.354   0.866   7.212  2.1179 -1.5423 -1.9727
 5248TIP3   OH237302   0.632   4.373   0.245  0.3067  0.1042  0.0859
 5248TIP3    H137303   0.665   4.448   0.195 -0.4414  1.2515  1.2272
 5248TIP3    H237304   0.695   4.363   0.317  0.6472 -0.6687 -0.3072
 5249TIP3   OH237305   3.887   4.492   2.267  0.0490 -0.1154 -0.3981
 5249TIP3    H137306   3.977   4.522   2.285  0.4505 -1.3089 -0.3154
 5249TIP3    H237307   3.884   4.403   2.303 -0.9883 -0.3148 -0.9368
 5250TIP3   OH237308   4.424   0.647   3.007  0.6720 -0.1019  0.0200
 5250TIP3    H137309   4.367   0.721   2.985  0.5163 -0.3599 -0.4456
 5250TIP3    H237310   4.397   0.621   3.095 -0.6404 -0.8796 -0.5799
 5251TIP3   OH237311   2.287   3.424   0.153  0.3303  0.0170  0.0343
 5251TIP3    H137312   2.361   3.481   0.130  0.2870 -0.3693 -1.1248
 5251TIP3    H237313   2.210   3.472   0.124  0.2544 -0.3860 -0.4293
 5252TIP3   OH237314   4.310   3.382   2.335  0.0178 -0.3125  0.0722
 5252TIP3    H137315   4.399   3.409   2.360 -0.0998 -0.8084  1.0603
 5252TIP3    H237316   4.253   3.440   2.385 -0.3295  2.7975 -3.4860
 5253TIP3   OH237317   2.971   5.876   8.908 -0.3188  0.3724  0.0389
 5253TIP3    H137318   2.925   5.835   8.835  1.3424  0.3132 -1.0392
 5253TIP3    H237319   2.902   5.904   8.967 -1.7083  0.0462 -1.3500
 5254TIP3   OH237320   3.172   2.149   8.688 -0.6122 -0.1150  0.3460
 5254TIP3    H137321   3.216   2.233   8.695  0.1441 -0.5335  0.7796
 5254TIP3    H237322   3.105   2.151   8.757 -2.2973  1.0909 -1.2462
 5255TIP3   OH237323   3.344   2.576   0.605  0.8197  0.3276  0.4647
 5255TIP3    H137324   3.292   2.510   0.559  0.5392 -0.7789  2.2564
 5255TIP3    H237325   3.387   2.528   0.676 -0.5266  2.2451  2.7590
 5256TIP3   OH237326   5.508   3.873   7.155  0.5986  0.5645  0.0512
 5256TIP3    H137327   5.431   3.920   7.188  0.8050  0.5469  0.5682
 5256TIP3    H237328   5.473   3.812   7.090  0.0408 -0.1878  1.0362
 5257TIP3   OH237329   1.152   3.380   0.623 -0.1969  0.1558  0.3440
 5257TIP3    H137330   1.227   3.379   0.682  0.4660  0.9740 -0.4362
 5257TIP3    H237331   1.078   3.402   0.678  0.4875  1.3965  0.8116
 5258TIP3   OH237332   3.408   3.730   8.404  0.9225  0.0185  0.0020
 5258TIP3    H137333   3.324   3.721   8.360  0.3752  1.2358  0.7170
 5258TIP3    H237334   3.471   3.742   8.334  0.9866 -3.5226 -0.7198
 5259TIP3   OH237335   4.227   0.014   1.656  0.5532 -0.4440  0.6935
 5259TIP3    H137336   4.274  -0.043   1.596 -0.2157 -1.3451  0.9225
 5259TIP3    H237337   4.197   0.087   1.602 -0.6659 -1.5452 -0.1885
 5260TIP3   OH237338   1.804   4.668   7.838  0.0452  0.3906  0.5049
 5260TIP3    H137339   1.820   4.672   7.744  0.9985 -0.3461  0.6193
 5260TIP3    H237340   1.857   4.594   7.868  2.0000  2.2860  2.0437
 5261TIP3   OH237341   1.885   5.235   7.646  0.1884 -0.0539 -0.4040
 5261TIP3    H137342   1.856   5.146   7.668  2.7534 -1.3210 -1.7166
 5261TIP3    H237343   1.828   5.261   7.573 -1.9023  0.2765  1.2423
 5262TIP3   OH237344   5.093   1.957   0.863 -0.4208  0.2515 -0.1401
 5262TIP3    H137345   5.158   1.989   0.925 -0.4079  1.1854 -0.6173
 5262TIP3    H237346   5.111   1.863   0.856 -0.9156 -0.0319  1.8265
 5263TIP3   OH237347   3.050   1.634   7.428 -0.5128 -0.2816  0.0823
 5263TIP3    H137348   2.964   1.607   7.396 -0.9621  1.6737 -0.5431
 5263TIP3    H237349   3.040   1.728   7.446  1.1506 -0.2774  1.2063
 5264TIP3   OH237350   0.278   4.751   8.454 -0.7446  0.0108 -0.2639
 5264TIP3    H137351   0.309   4.747   8.364 -1.1251 -3.4062 -0.3729
 5264TIP3    H237352   0.184   4.734   8.449 -0.9504  0.7185  0.7443
 5265TIP3   OH237353   3.652   4.163   8.127  0.2591  0.5316  0.0822
 5265TIP3    H137354   3.675   4.209   8.208 -0.4930 -1.2429  1.3661
 5265TIP3    H237355   3.558   4.149   8.133  0.4524 -1.1177 -0.2642
 5266TIP3   OH237356   0.211   0.158   0.367  0.0584  0.5056  0.1810
 5266TIP3    H137357   0.243   0.167   0.457 -1.6029  1.2535  0.7354
 5266TIP3    H237358   0.169   0.242   0.348  0.9535  0.6003 -1.5456
 5267TIP3   OH237359   0.465   1.243   2.685 -0.4084 -0.0445 -0.2416
 5267TIP3    H137360   0.542   1.217   2.736 -1.8537 -0.8767  1.6480
 5267TIP3    H237361   0.436   1.325   2.725 -0.5511  0.2238 -0.8829
 5268TIP3   OH237362   2.066   2.753   1.367  0.1988  0.2392  0.2246
 5268TIP3    H137363   2.025   2.705   1.295 -0.6630 -1.1625  1.6089
 5268TIP3    H237364   2.027   2.717   1.446  1.7230  1.1573  1.4586
 5269TIP3   OH237365   5.965   2.063   1.458  0.3364  0.8103  0.0694
 5269TIP3    H137366   6.060   2.076   1.457  0.2123  2.0924 -2.3845
 5269TIP3    H237367   5.936   2.091   1.371 -2.2507  0.0207  0.5963
 5270TIP3   OH237368   5.378   5.606   0.115 -0.0912 -0.5113  0.8301
 5270TIP3    H137369   5.473   5.608   0.106 -0.1085 -0.4180  0.6505
 5270TIP3    H237370   5.362   5.615   0.209  0.0712 -0.3089  0.8399
 5271TIP3   OH237371   3.380   1.524   8.342  0.1949 -0.3943  0.4583
 5271TIP3    H137372   3.440   1.493   8.410 -2.1922 -3.3526  1.4296
 5271TIP3    H237373   3.409   1.480   8.262  1.3332  0.9358  0.0954
 5272TIP3   OH237374   2.761   6.536   0.320 -0.3618  0.3457  0.0084
 5272TIP3    H137375   2.834   6.548   0.380 -0.6294  0.7044  0.2676
 5272TIP3    H237376   2.742   6.623   0.287  0.3727  0.0304 -1.3187
 5273TIP3   OH237377   6.718   1.171   8.531  0.3494 -0.0174  0.7942
 5273TIP3    H137378   6.671   1.088   8.538  0.7121 -0.1085  2.3260
 5273TIP3    H237379   6.801   1.156   8.576  0.9794  0.7945 -0.0489
 5274TIP3   OH237380   1.685   4.919   8.049 -0.2346 -0.0395  0.1405
 5274TIP3    H137381   1.599   4.947   8.077 -0.3466  0.8948 -1.0410
 5274TIP3    H237382   1.717   4.862   8.119 -1.5919  0.0102  0.8153
 5275TIP3   OH237383   3.414   0.595   1.482  0.6160  0.5809  1.0025
 5275TIP3    H137384   3.332   0.644   1.485  1.0003  1.5561 -1.3623
 5275TIP3    H237385   3.388   0.503   1.473 -0.2261  0.8687  0.4348
 5276TIP3   OH237386   1.562   6.172   1.577 -0.0707  0.8181  0.1165
 5276TIP3    H137387   1.607   6.110   1.521  1.9003  1.1973  1.1666
 5276TIP3    H237388   1.632   6.226   1.614 -1.6591  3.5965 -0.6237
 5277TIP3   OH237389   3.274   2.320   7.184 -0.2780 -0.0145 -0.1978
 5277TIP3    H137390   3.228   2.251   7.137 -0.0749 -0.7140  0.5948
 5277TIP3    H237391   3.348   2.275   7.227 -0.3427  0.6204  0.6157
 5278TIP3   OH237392   2.029   6.027   2.620  0.2988  0.0776  0.8334
 5278TIP3    H137393   2.114   6.071   2.613  0.0544  0.6941  1.5190
 5278TIP3    H237394   1.965   6.098   2.612 -0.1014 -0.1120  2.0248
 5279TIP3   OH237395   5.590   0.497   2.869 -0.8420  0.0954 -0.6623
 5279TIP3    H137396   5.568   0.581   2.830  0.0053  0.5240 -0.2398
 5279TIP3    H237397   5.521   0.482   2.933  1.0264  2.4415  2.1785
 5280TIP3   OH237398   1.111   3.790   0.115  0.2133 -0.5465  0.3751
 5280TIP3    H137399   1.090   3.756   0.028 -1.2754  1.3743 -0.0895
 5280TIP3    H237400   1.090   3.718   0.175  0.4563 -1.6098 -0.7843
 5281TIP3   OH237401   1.949   1.392   2.189 -0.5833 -0.0775 -0.1087
 5281TIP3    H137402   1.998   1.410   2.269 -0.0364  0.3558 -0.5334
 5281TIP3    H237403   1.908   1.475   2.166 -0.6335 -0.1651 -0.3444
 5282TIP3   OH237404   4.352   4.346   7.409 -0.1934  0.0935 -0.1907
 5282TIP3    H137405   4.299   4.355   7.488  1.2508 -0.2687  0.8593
 5282TIP3    H237406   4.391   4.433   7.397 -0.2133  0.0777 -0.3708
 5283TIP3   OH237407   2.963   4.453   7.796 -0.3470 -0.0201 -0.0348
 5283TIP3    H137408   3.037   4.487   7.745  0.1225 -1.2586 -0.2189
 5283TIP3    H237409   2.953   4.515   7.868  0.4153  0.5544 -0.4116
 5284TIP3   OH237410   1.144   5.358   8.301 -0.4287  0.1917 -0.6141
 5284TIP3    H137411   1.159   5.395   8.214 -0.7757  0.2581 -0.6451
 5284TIP3    H237412   1.106   5.272   8.284 -0.5911  0.2461 -0.5284
 5285TIP3   OH237413   0.309   6.480   0.869 -0.3035 -0.2285  0.4260
 5285TIP3    H137414   0.217   6.462   0.852 -0.3354 -0.2131  0.5762
 5285TIP3    H237415   0.317   6.478   0.965 -0.3647  0.7891  0.4623
 5286TIP3   OH237416   0.774   3.116   1.963  0.3967 -0.7179  0.1123
 5286TIP3    H137417   0.833   3.043   1.983  0.9647 -0.0667  0.8563
 5286TIP3    H237418   0.832   3.188   1.938  0.0312  0.3030  2.0123
 5287TIP3   OH237419   5.261   3.921   1.938  0.1919  0.1769 -0.1015
 5287TIP3    H137420   5.308   3.997   1.969  1.8015 -0.6996 -0.2985
 5287TIP3    H237421   5.329   3.859   1.912 -1.0685 -1.0794 -0.5582
 5288TIP3   OH237422   2.843   1.388   0.143  0.4049 -0.6789 -0.4308
 5288TIP3    H137423   2.905   1.397   0.070  1.1372 -1.0047  0.1313
 5288TIP3    H237424   2.838   1.476   0.181 -1.1200 -0.1617 -1.7523
 5289TIP3   OH237425   3.808   5.033   1.220 -0.1146 -0.3780 -0.0680
 5289TIP3    H137426   3.833   5.024   1.128 -1.2208  0.3198 -0.4632
 5289TIP3    H237427   3.794   5.127   1.231 -0.9232 -0.5644  0.5598
 5290TIP3   OH237428   0.700   4.952   1.325  0.4028 -0.6382  0.4234
 5290TIP3    H137429   0.771   4.901   1.364 -0.2495 -1.2991  0.7545
 5290TIP3    H237430   0.625   4.936   1.382  0.3915  1.3918  1.0581
 5291TIP3   OH237431   3.483   3.761   8.674  0.5252  0.4643  0.1228
 5291TIP3    H137432   3.424   3.821   8.719 -0.8018 -0.1568 -0.6938
 5291TIP3    H237433   3.451   3.760   8.584  2.8706  1.4013 -0.7936
 5292TIP3   OH237434   6.021   0.494   0.585 -0.1388 -1.0683  0.3490
 5292TIP3    H137435   6.071   0.575   0.574 -0.7073 -0.7754 -0.0741
 5292TIP3    H237436   6.087   0.425   0.578 -0.1097 -0.8603 -3.1526
 5293TIP3   OH237437   2.253   5.284   7.786  0.1106  0.1470  0.0354
 5293TIP3    H137438   2.276   5.229   7.712  0.8030 -0.8249  0.9325
 5293TIP3    H237439   2.189   5.346   7.752 -2.4105 -2.5532 -0.5779
 5294TIP3   OH237440   3.784   1.405   0.203  0.0846 -0.1681 -0.0776
 5294TIP3    H137441   3.828   1.387   0.286  0.3965  1.3983  0.1396
 5294TIP3    H237442   3.853   1.440   0.147 -0.3424 -0.2042 -0.6305
 5295TIP3   OH237443   1.790   1.028   8.457 -0.2050  0.0130 -0.1401
 5295TIP3    H137444   1.838   0.994   8.532  1.0802 -2.0276 -1.7761
 5295TIP3    H237445   1.698   1.021   8.482  0.2080  0.0606  1.4800
 5296TIP3   OH237446   2.813   1.863   6.434  0.7130  0.1923 -0.3843
 5296TIP3    H137447   2.897   1.898   6.463  0.6200  0.4432 -0.4176
 5296TIP3    H237448   2.748   1.904   6.492  0.7353 -1.1088  0.6193
 5297TIP3   OH237449   1.456   4.359   0.765 -0.2047  0.5861 -0.2796
 5297TIP3    H137450   1.400   4.436   0.757  0.9358  1.5937  0.9193
 5297TIP3    H237451   1.499   4.369   0.850  2.3567  0.2977 -1.4558
 5298TIP3   OH237452   4.090   0.614   1.779 -0.1231 -0.1055  0.3026
 5298TIP3    H137453   4.151   0.552   1.818  1.1143  0.5628 -0.5082
 5298TIP3    H237454   4.022   0.559   1.739  1.4305 -1.0036 -1.1977
 5299TIP3   OH237455   5.201   2.539   1.269 -0.0745 -0.7594  0.1118
 5299TIP3    H137456   5.180   2.483   1.195 -1.9540  0.6204 -0.4843
 5299TIP3    H237457   5.220   2.625   1.230  0.1580 -0.3114  1.1511
 5300TIP3   OH237458   2.049   5.916   1.461  0.0793 -0.3701  0.0565
 5300TIP3    H137459   2.118   5.966   1.417  3.3086 -2.7969  1.9391
 5300TIP3    H237460   2.039   5.837   1.408  0.6953 -1.2208  1.1652
 5301TIP3   OH237461   1.614   4.836   0.173  0.2289  0.7470 -0.2521
 5301TIP3    H137462   1.640   4.906   0.113 -1.6082  0.9746 -0.8297
 5301TIP3    H237463   1.612   4.757   0.119  0.9207  0.4940  0.0791
 5302TIP3   OH237464   0.584   6.688   2.800 -0.1351 -0.1766 -0.1257
 5302TIP3    H137465   0.494   6.716   2.818 -0.8655 -1.3290 -1.7302
 5302TIP3    H237466   0.580   6.592   2.800  0.8203 -0.2465 -1.4173
 5303TIP3   OH237467   1.813   6.259   1.755 -0.1935  0.6344 -0.0732
 5303TIP3    H137468   1.786   6.199   1.825  0.1719  0.0720 -0.4056
 5303TIP3    H237469   1.899   6.228   1.728 -0.4161  0.7073 -0.9176
 5304TIP3   OH237470   1.790   0.689   1.029  0.0079 -0.1168  0.0233
 5304TIP3    H137471   1.853   0.690   0.957  2.1900 -0.3786  1.8272
 5304TIP3    H237472   1.797   0.600   1.066 -0.9253  0.0648  0.6939
 5305TIP3   OH237473   3.207   0.752   0.879  0.8017  0.7973  0.0715
 5305TIP3    H137474   3.289   0.776   0.836  1.2159  0.9010  0.9152
 5305TIP3    H237475   3.231   0.735   0.970 -0.0921  0.7154  0.3012
 5306TIP3   OH237476   4.058   0.244   1.912 -0.3471 -0.0911 -0.4475
 5306TIP3    H137477   4.099   0.273   1.831 -0.1591  0.2747 -0.2219
 5306TIP3    H237478   4.098   0.159   1.930 -0.5855 -0.2971 -0.8793
 5307TIP3   OH237479   5.280   2.981   7.341  0.4973  0.7093 -0.2503
 5307TIP3    H137480   5.272   2.991   7.246  0.8304  2.6564 -0.1143
 5307TIP3    H237481   5.278   2.887   7.355 -0.4948  0.4072 -2.0999
 5308TIP3   OH237482   1.811   3.593   1.672  0.4818 -0.2982 -0.9680
 5308TIP3    H137483   1.732   3.574   1.723  0.7761 -0.9909 -0.7636
 5308TIP3    H237484   1.856   3.660   1.723  1.7372 -2.3040  0.7464
 5309TIP3   OH237485   3.255   6.497   8.613  0.0246  0.5058  0.5368
 5309TIP3    H137486   3.173   6.546   8.609  1.2285  2.5681 -0.5383
 5309TIP3    H237487   3.300   6.518   8.531  1.5491 -0.7615  0.9881
 5310TIP3   OH237488   5.500   1.814   8.743 -0.2493  0.1407 -0.6949
 5310TIP3    H137489   5.509   1.910   8.742 -1.5032  0.2652 -1.9916
 5310TIP3    H237490   5.561   1.784   8.676  1.7551 -0.1960  1.1383
 5311TIP3   OH237491   5.234   0.745   0.034  0.0935 -0.0908 -0.5527
 5311TIP3    H137492   5.324   0.715   0.022 -0.3580 -2.0754  0.5631
 5311TIP3    H237493   5.192   0.730  -0.050  0.5492 -0.0754 -0.7891
 5312TIP3   OH237494   3.456   1.138   1.252 -0.4146  0.2948  0.0786
 5312TIP3    H137495   3.427   1.132   1.343 -0.7017  0.6932  0.0151
 5312TIP3    H237496   3.546   1.168   1.258  0.2721 -1.6392  0.3067
 5313TIP3   OH237497   6.742   2.126   8.776  0.6327 -0.2466 -0.0024
 5313TIP3    H137498   6.785   2.204   8.741 -1.9307  1.3249  0.1088
 5313TIP3    H237499   6.725   2.072   8.699 -1.9029  1.6275 -0.8994
 5314TIP3   OH237500   5.742   1.296   1.291 -0.1323 -0.7839 -0.6394
 5314TIP3    H137501   5.810   1.230   1.302 -0.0094 -0.6017 -0.2804
 5314TIP3    H237502   5.688   1.287   1.370  0.3369  0.0633 -0.2029
 5315TIP3   OH237503   3.133   3.233   8.591 -0.3865 -0.3347 -0.1086
 5315TIP3    H137504   3.222   3.226   8.556 -0.0756 -0.1026  0.6332
 5315TIP3    H237505   3.081   3.178   8.532 -0.2305  1.4800 -2.0917
 5316TIP3   OH237506   3.643   3.459   8.197  0.3988  0.0780 -0.6408
 5316TIP3    H137507   3.699   3.533   8.220  1.3693 -0.1004 -2.3296
 5316TIP3    H237508   3.592   3.490   8.122 -2.7303  0.6617  1.4901
 5317TIP3   OH237509   1.112   1.265   1.708 -0.1337  0.1499 -0.0549
 5317TIP3    H137510   1.041   1.204   1.731  0.5236 -0.9625 -0.8502
 5317TIP3    H237511   1.143   1.299   1.792  0.3326 -1.6094  0.5280
 5318TIP3   OH237512   4.651   4.383   7.757 -0.2696  0.2708 -0.1187
 5318TIP3    H137513   4.566   4.407   7.796  0.4625  1.0216  1.0767
 5318TIP3    H237514   4.681   4.309   7.810  0.2837  0.6603  0.1127
 5319TIP3   OH237515   3.857   6.474   1.910  0.4304 -0.2075 -0.5299
 5319TIP3    H137516   3.889   6.562   1.892 -1.9592  0.8980  0.3198
 5319TIP3    H237517   3.782   6.463   1.851 -0.2194 -1.0745  0.4292
 5320TIP3   OH237518   4.731   2.566   8.019  0.2630 -0.0665  1.0240
 5320TIP3    H137519   4.642   2.544   7.989  0.2553 -1.3856  1.9517
 5320TIP3    H237520   4.780   2.579   7.938  0.3567 -4.0267  0.2597
 5321TIP3   OH237521   5.102   0.152   0.039  0.1326 -0.3025  0.1499
 5321TIP3    H137522   5.123   0.244   0.050  0.5821 -0.4917  0.9217
 5321TIP3    H237523   5.046   0.130   0.114 -2.4366  0.0399 -1.5105
 5322TIP3   OH237524   4.186   1.012   1.617  0.4565  0.4410 -0.1949
 5322TIP3    H137525   4.138   1.027   1.698  1.0273  0.3892  0.1545
 5322TIP3    H237526   4.118   1.003   1.550 -0.1326 -1.6511  0.6015
 5323TIP3   OH237527   2.506   3.538   8.701  0.1735 -0.6332  0.0477
 5323TIP3    H137528   2.423   3.524   8.655  0.4819  0.2223 -0.8076
 5323TIP3    H237529   2.514   3.633   8.708 -0.3526 -0.6987  2.8461
 5324TIP3   OH237530   4.068   6.707   7.656  0.5942 -0.1006  0.2764
 5324TIP3    H137531   4.065   6.762   7.578  0.1685 -1.2053 -0.4980
 5324TIP3    H237532   4.156   6.671   7.657  0.5873 -0.1176  0.2905
 5325TIP3   OH237533   3.432   6.259   2.155 -0.4125 -0.1768  0.3903
 5325TIP3    H137534   3.501   6.228   2.097 -0.1525 -0.3233  0.7773
 5325TIP3    H237535   3.351   6.237   2.109 -0.2379 -1.5260  0.6858
 5326TIP3   OH237536   0.892   3.571   2.344 -0.0751 -0.2820 -0.0739
 5326TIP3    H137537   0.973   3.522   2.357  0.2031  0.7442  2.9622
 5326TIP3    H237538   0.846   3.564   2.429 -1.1797  2.5590 -0.3420
 5327TIP3   OH237539   0.432   4.831   0.074  0.1479  0.2480 -0.5345
 5327TIP3    H137540   0.463   4.917   0.101  0.0043 -0.6935  3.2910
 5327TIP3    H237541   0.499   4.798   0.014  2.5592  1.3441  1.3687
 5328TIP3   OH237542   4.193   0.976   0.204 -0.0806  0.1547  0.1269
 5328TIP3    H137543   4.212   1.002   0.293  0.8778 -0.4523  0.1099
 5328TIP3    H237544   4.158   0.887   0.211 -3.8820  1.4564  0.2438
 5329TIP3   OH237545   5.435   3.338   0.261 -0.2605  0.1912 -0.0969
 5329TIP3    H137546   5.485   3.420   0.259 -2.0494  1.3156 -0.5075
 5329TIP3    H237547   5.350   3.361   0.224 -0.1813 -2.3240 -2.1000
 5330TIP3   OH237548   3.231   4.240   1.982 -0.5176 -0.0805  0.3923
 5330TIP3    H137549   3.272   4.323   2.006 -0.2421  0.3395 -1.3487
 5330TIP3    H237550   3.139   4.252   2.004 -0.3073  0.2908  1.1004
 5331TIP3   OH237551   4.634   3.412   8.734 -0.2638  0.5351 -0.1974
 5331TIP3    H137552   4.593   3.327   8.719  0.5908 -0.0875  0.8929
 5331TIP3    H237553   4.574   3.459   8.791 -0.6211  0.5855 -0.6068
 5332TIP3   OH237554   6.259   2.340   2.716  0.3764 -0.1293  0.0246
 5332TIP3    H137555   6.283   2.420   2.670  1.1109  0.0470  0.6808
 5332TIP3    H237556   6.165   2.347   2.732  0.3323  0.3270 -0.4370
 5333TIP3   OH237557   4.344   1.524   0.468  0.1715  0.2788 -0.5846
 5333TIP3    H137558   4.267   1.566   0.428 -0.8158 -1.8827 -1.1271
 5333TIP3    H237559   4.368   1.455   0.406 -0.0348 -1.7593  1.4722
 5334TIP3   OH237560   5.201   3.440   8.540  0.1613 -0.4288 -0.3148
 5334TIP3    H137561   5.232   3.525   8.508  0.6793 -1.0490 -1.5236
 5334TIP3    H237562   5.166   3.397   8.462 -0.1990 -1.2886  0.3103
 5335TIP3   OH237563   4.813   1.306   1.844 -0.6768 -0.1914  0.8485
 5335TIP3    H137564   4.718   1.314   1.853 -0.8357 -0.9167  0.0045
 5335TIP3    H237565   4.830   1.322   1.751 -0.1925 -1.8361  0.6205
 5336TIP3   OH237566   3.168   6.075   2.376  0.1250 -0.3683  0.4866
 5336TIP3    H137567   3.164   6.124   2.294  2.2923 -0.4774  0.2614
 5336TIP3    H237568   3.224   5.999   2.355 -0.8272 -1.4115  1.5820
 5337TIP3   OH237569   0.863   3.591   7.627 -0.4043 -0.5459 -0.7911
 5337TIP3    H137570   0.816   3.628   7.553 -0.2966 -2.4463 -1.8707
 5337TIP3    H237571   0.941   3.645   7.636 -1.3410  0.8666 -0.8182
 5338TIP3   OH237572   1.366   1.618   7.555 -0.2425 -0.5424 -0.0586
 5338TIP3    H137573   1.363   1.713   7.543 -0.0170 -0.7401 -2.0281
 5338TIP3    H237574   1.392   1.606   7.646 -0.4998  1.2774  0.2923
 5339TIP3   OH237575   6.057   1.366   6.595  0.1610  0.0566 -0.2498
 5339TIP3    H137576   6.125   1.298   6.598 -0.2240 -0.4481 -2.0876
 5339TIP3    H237577   6.107   1.448   6.587  0.6059 -0.0136  1.3630
 5340TIP3   OH237578   2.006   1.995   0.559  0.0917 -0.0193  0.3985
 5340TIP3    H137579   1.963   1.935   0.620 -0.3219 -0.3754 -0.2312
 5340TIP3    H237580   1.940   2.012   0.492  0.1288  1.3094  0.6655
 5341TIP3   OH237581   1.695   0.213   8.929 -0.1072  0.8971 -0.2445
 5341TIP3    H137582   1.673   0.187   8.839 -1.0382  1.0180 -0.0568
 5341TIP3    H237583   1.751   0.143   8.961  0.6124  1.0751 -1.0697
 5342TIP3   OH237584   1.165   3.927   6.795 -0.7710 -0.3297 -0.0905
 5342TIP3    H137585   1.211   3.850   6.827 -1.5935 -0.9989 -0.4603
 5342TIP3    H237586   1.093   3.891   6.742 -0.1399  0.6925 -1.7297
 5343TIP3   OH237587   3.712   2.246   8.669  0.5416  0.0857 -1.1299
 5343TIP3    H137588   3.706   2.262   8.763 -1.9729  0.4026 -1.2774
 5343TIP3    H237589   3.729   2.332   8.631 -0.8883  0.4017 -1.0990
 5344TIP3   OH237590   5.818   1.326   8.039  0.2441  0.2895 -0.4814
 5344TIP3    H137591   5.817   1.362   8.128  1.6078  0.7533 -0.6391
 5344TIP3    H237592   5.784   1.397   7.985 -1.1529 -0.1985 -0.2820
 5345TIP3   OH237593   2.588   0.242   0.314 -0.4787  0.5924  0.3034
 5345TIP3    H137594   2.518   0.220   0.375 -0.5536  0.9504  0.3468
 5345TIP3    H237595   2.648   0.296   0.364  0.3295 -0.4840  0.5437
 5346TIP3   OH237596   5.950   0.484   8.815  0.5257  0.1893 -0.4326
 5346TIP3    H137597   6.045   0.475   8.827  0.6651  1.3662 -0.5740
 5346TIP3    H237598   5.930   0.571   8.849 -1.1293 -1.3676  3.0724
 5347TIP3   OH237599   2.578   4.127   8.640  0.2290  0.0555 -0.7233
 5347TIP3    H137600   2.552   4.214   8.609 -0.8508 -0.0122 -0.0648
 5347TIP3    H237601   2.552   4.126   8.732 -0.1806 -1.1113 -0.8324
 5348TIP3   OH237602   5.315   1.772   6.782  0.0788 -0.1279  0.3211
 5348TIP3    H137603   5.364   1.749   6.703 -0.5751  1.3743 -0.5579
 5348TIP3    H237604   5.379   1.768   6.852  1.2905  1.0319 -0.6764
 5349TIP3   OH237605   0.368   3.861   1.878  0.3562 -0.2879  0.6207
 5349TIP3    H137606   0.425   3.938   1.877 -0.6155  0.5871  3.2346
 5349TIP3    H237607   0.292   3.887   1.826 -0.6387  1.2161  2.6475
 5350TIP3   OH237608   1.031   1.808   0.238 -0.7095  0.1235 -0.3208
 5350TIP3    H137609   1.041   1.767   0.324  1.8678  0.8193 -0.2089
 5350TIP3    H237610   1.003   1.897   0.256  1.6464  0.8715  0.0142
 5351TIP3   OH237611   4.099   4.449   8.389 -0.1010 -0.2350 -0.2568
 5351TIP3    H137612   4.183   4.466   8.347 -1.0653 -1.9845 -3.1196
 5351TIP3    H237613   4.055   4.534   8.388 -0.0698 -0.1768 -2.9037
 5352TIP3   OH237614   3.462   4.680   8.282 -0.5998  0.8638 -0.5795
 5352TIP3    H137615   3.551   4.648   8.264 -1.0177 -1.7918  1.4619
 5352TIP3    H237616   3.406   4.629   8.223 -1.1654 -1.7063  1.9364
 5353TIP3   OH237617   0.761   3.118   8.416  0.0058  0.6579  0.0392
 5353TIP3    H137618   0.828   3.051   8.409 -1.8266 -1.4954  1.6590
 5353TIP3    H237619   0.764   3.146   8.508 -0.1856  1.8042 -0.2873
 5354TIP3   OH237620   1.046   0.269   1.750 -0.1448  0.3438  0.3932
 5354TIP3    H137621   1.071   0.203   1.814  0.7651  1.2223  0.9825
 5354TIP3    H237622   0.952   0.278   1.760 -0.0678  0.1969  1.3534
 5355TIP3   OH237623   6.597   1.234   2.253  0.5356 -0.3260  0.1595
 5355TIP3    H137624   6.566   1.144   2.261 -0.9883 -0.0872 -2.0327
 5355TIP3    H237625   6.532   1.277   2.196  0.6695  2.4359  1.8887
 5356TIP3   OH237626   1.642   5.516   0.522 -0.1512 -0.0980 -0.3895
 5356TIP3    H137627   1.579   5.446   0.508  0.4259 -0.6544 -0.2813
 5356TIP3    H237628   1.662   5.548   0.434 -0.4597 -0.0365 -0.4357
 5357TIP3   OH237629   1.076   0.557   7.723  0.4209  0.4540 -0.4630
 5357TIP3    H137630   1.031   0.523   7.801 -0.1586  0.4295 -0.8070
 5357TIP3    H237631   1.153   0.601   7.758 -1.5934  3.5421  0.4894
 5358TIP3   OH237632   3.579   1.657   1.818 -0.8025 -0.2936  0.4821
 5358TIP3    H137633   3.606   1.637   1.728 -0.8056 -2.2399  0.8716
 5358TIP3    H237634   3.604   1.748   1.830 -0.6407 -0.0266 -1.4297
 5359TIP3   OH237635   2.647   0.939   1.868  0.2600 -0.7226  0.4605
 5359TIP3    H137636   2.741   0.922   1.863  0.8808  1.8612  1.6379
 5359TIP3    H237637   2.640   1.018   1.922 -2.6299 -1.0894  0.7688
 5360TIP3   OH237638   3.582   5.994   2.832 -0.0600  0.5606  0.0727
 5360TIP3    H137639   3.622   6.063   2.884 -2.8909  2.4627 -0.0551
 5360TIP3    H237640   3.603   6.017   2.741 -0.6648  1.0798  0.0548
 5361TIP3   OH237641   4.191   0.290   8.446  0.1496  0.6779  0.8658
 5361TIP3    H137642   4.178   0.289   8.541 -0.5654 -0.8360  0.7682
 5361TIP3    H237643   4.172   0.201   8.418  2.4616  0.5434 -0.4396
 5362TIP3   OH237644   5.197   3.520   6.880  0.0091 -0.5889 -0.2115
 5362TIP3    H137645   5.253   3.443   6.891  1.4898  0.4292 -0.3902
 5362TIP3    H237646   5.134   3.494   6.812  1.5044 -1.1246 -1.4587
 5363TIP3   OH237647   4.943   3.767   0.999  0.4014 -0.2337  0.9826
 5363TIP3    H137648   5.001   3.741   1.070  4.0589 -0.4357 -1.7593
 5363TIP3    H237649   4.969   3.857   0.979  0.6699 -0.7082 -1.0390
 5364TIP3   OH237650   1.296   4.205   0.053  0.4570 -0.3490 -0.0226
 5364TIP3    H137651   1.226   4.191  -0.011 -0.5289  0.8161  0.7499
 5364TIP3    H237652   1.356   4.132   0.040 -0.9585 -1.4324 -0.6401
 5365TIP3   OH237653   4.679   0.288   8.190  0.5626 -0.2959  0.2654
 5365TIP3    H137654   4.592   0.313   8.221  0.6659 -0.1653  0.4496
 5365TIP3    H237655   4.671   0.195   8.167  0.2773 -0.1899 -0.0648
 5366TIP3   OH237656   0.826   3.650   0.969  0.1727  0.4399  0.2732
 5366TIP3    H137657   0.907   3.699   0.951  0.0093  0.7358  0.3382
 5366TIP3    H237658   0.854   3.558   0.972  0.2339  0.3537 -1.4743
 5367TIP3   OH237659   0.394   2.040   0.650 -0.2019  0.2397  0.1994
 5367TIP3    H137660   0.437   2.003   0.727  0.3592 -0.4293 -0.4261
 5367TIP3    H237661   0.465   2.059   0.589 -0.5568  1.5999  0.1833
 5368TIP3   OH237662   2.145   0.208   1.634 -0.0731  0.0439 -0.1902
 5368TIP3    H137663   2.203   0.266   1.584  1.0631  0.2599  1.3025
 5368TIP3    H237664   2.127   0.135   1.575  1.8749 -0.1071 -0.6510
 5369TIP3   OH237665   6.184   2.954   8.550  0.3749 -0.1144  0.2550
 5369TIP3    H137666   6.228   2.889   8.496 -0.6728  0.3671 -1.2223
 5369TIP3    H237667   6.126   3.001   8.490  0.4120  1.5733  1.4550
 5370TIP3   OH237668   2.076   6.695   7.672  0.2946  0.9585 -0.0040
 5370TIP3    H137669   2.044   6.728   7.756 -1.6307 -0.2633 -0.1927
 5370TIP3    H237670   2.035   6.752   7.607  1.4631  1.6513 -0.1519
 5371TIP3   OH237671   3.823   1.779   1.547  0.1888  0.4260  0.2922
 5371TIP3    H137672   3.781   1.860   1.519 -0.1698  1.0621  2.5137
 5371TIP3    H237673   3.852   1.738   1.466 -1.6126  1.6674 -1.0651
 5372TIP3   OH237674   4.580   4.006   2.790  0.3776 -0.4296  0.1235
 5372TIP3    H137675   4.636   3.934   2.761  0.3561 -0.1896 -0.5294
 5372TIP3    H237676   4.621   4.084   2.752 -0.4226 -0.2571 -0.4098
 5373TIP3   OH237677   2.826   6.644   0.643 -0.1751  0.0751 -0.0095
 5373TIP3    H137678   2.852   6.686   0.561  2.2326 -2.1620 -0.5059
 5373TIP3    H237679   2.871   6.695   0.711  1.0824 -0.4202 -0.4390
 5374TIP3   OH237680   3.764   0.698   3.019  0.4638  0.4946  0.1149
 5374TIP3    H137681   3.731   0.697   2.930  0.9916  0.6067 -0.0825
 5374TIP3    H237682   3.802   0.612   3.032  1.0158  0.7191 -0.0056
 5375TIP3   OH237683   3.921   6.132   3.015  0.6354  0.1430 -0.1162
 5375TIP3    H137684   3.851   6.138   3.080 -0.0943  0.8843 -0.9173
 5375TIP3    H237685   3.956   6.044   3.024  0.5117  0.2083  1.2140
 5376TIP3   OH237686   6.540   2.842   1.872  0.4262 -0.0387  0.0017
 5376TIP3    H137687   6.470   2.867   1.812  1.4367  1.3038 -0.6842
 5376TIP3    H237688   6.578   2.925   1.901 -0.3852 -0.6246  3.0110
 5377TIP3   OH237689   2.047   0.906   0.116 -0.3543  0.3033 -0.2018
 5377TIP3    H137690   2.042   0.976   0.051 -2.3628  0.9178  0.5312
 5377TIP3    H237691   2.103   0.941   0.185  0.3016  0.3623 -0.7531
 5378TIP3   OH237692   0.139   2.913   2.366 -0.6524  0.3457 -0.3351
 5378TIP3    H137693   0.174   2.917   2.455 -1.3162  0.2889 -0.0672
 5378TIP3    H237694   0.174   2.831   2.330  0.3378  0.8071 -0.4397
 5379TIP3   OH237695   0.506   4.779   2.304 -0.0578 -0.0121  0.4358
 5379TIP3    H137696   0.565   4.752   2.375 -0.1752  0.4560  0.7138
 5379TIP3    H237697   0.431   4.818   2.349  0.4724  1.5378  0.0271
 5380TIP3   OH237698   4.162   2.498   0.427  0.4146  0.0094  0.0221
 5380TIP3    H137699   4.160   2.444   0.349  0.3852 -0.6039  0.4419
 5380TIP3    H237700   4.184   2.438   0.498 -1.2973  0.1942  0.7703
 5381TIP3   OH237701   2.852   2.696   0.510 -0.2169  0.1615  0.0011
 5381TIP3    H137702   2.923   2.661   0.564  1.1238  2.9036  0.2121
 5381TIP3    H237703   2.894   2.723   0.429 -1.0401  1.4579 -0.0401
 5382TIP3   OH237704   0.795   1.120   1.276 -0.4450  0.6131  0.6886
 5382TIP3    H137705   0.815   1.209   1.246 -0.3488 -0.2707 -2.2257
 5382TIP3    H237706   0.880   1.076   1.279 -0.6064  0.3189  0.9663
 5383TIP3   OH237707   0.513   3.725   8.873 -0.1788 -0.5011 -0.5950
 5383TIP3    H137708   0.487   3.753   8.961 -0.0191 -0.9345 -0.4055
 5383TIP3    H237709   0.608   3.739   8.871 -0.2102 -0.3143 -0.7648
 5384TIP3   OH237710   4.302   3.524   0.711  0.5747 -0.3258  0.1502
 5384TIP3    H137711   4.218   3.570   0.713  1.6641  1.8337 -0.2818
 5384TIP3    H237712   4.285   3.446   0.659 -1.0415  0.3504 -0.4033
 5385TIP3   OH237713   4.347   0.532   1.951 -0.2305 -0.1609  0.4391
 5385TIP3    H137714   4.423   0.477   1.932 -0.4352 -0.7489  1.2787
 5385TIP3    H237715   4.353   0.604   1.888  0.8404 -0.3752  0.2827
 5386TIP3   OH237716   3.868   2.110   1.673  0.1819 -0.3758 -0.5922
 5386TIP3    H137717   3.937   2.082   1.733 -0.7432  1.0289  1.2078
 5386TIP3    H237718   3.907   2.183   1.625  0.3083 -0.2949 -0.3679
 5387TIP3   OH237719   4.101   5.016   1.208  0.4176  0.3986 -0.0260
 5387TIP3    H137720   4.006   5.004   1.209  0.4509  0.1635  0.4234
 5387TIP3    H237721   4.125   5.023   1.300  0.9418 -0.3615 -0.1013
 5388TIP3   OH237722   1.752   4.571   0.445 -0.2803  0.3204  0.0349
 5388TIP3    H137723   1.668   4.540   0.410 -0.1414  2.5093 -2.5704
 5388TIP3    H237724   1.729   4.630   0.516 -0.9130  0.1486 -0.0273
 5389TIP3   OH237725   5.722   4.936   0.929 -0.3564  0.0048  0.0881
 5389TIP3    H137726   5.779   4.916   1.003 -0.0706  0.0839 -0.1064
 5389TIP3    H237727   5.634   4.934   0.965 -0.1940  0.4565  0.5196
 5390TIP3   OH237728   5.276   4.603   6.722  0.4904 -0.0724 -0.3198
 5390TIP3    H137729   5.365   4.610   6.688  1.7770 -3.1363  1.9613
 5390TIP3    H237730   5.282   4.641   6.810 -1.0730  1.6409 -0.8923
 5391TIP3   OH237731   1.156   4.330   7.397  0.7507 -0.2271  0.4708
 5391TIP3    H137732   1.110   4.365   7.473  1.6027 -0.9043  1.3248
 5391TIP3    H237733   1.174   4.239   7.420  1.7979 -0.1996 -0.1853
 5392TIP3   OH237734   6.177   6.514   1.131 -0.0107  0.1333  0.3446
 5392TIP3    H137735   6.262   6.512   1.087 -0.2156 -1.2231 -0.0339
 5392TIP3    H237736   6.156   6.607   1.138  2.2212  0.6042  1.8600
 5393TIP3   OH237737   4.445   1.019   1.147  0.0050  0.4020  0.8698
 5393TIP3    H137738   4.442   1.015   1.243 -2.3020 -1.5484  0.8254
 5393TIP3    H237739   4.493   0.940   1.122 -0.8290  0.0265  0.4255
 5394TIP3   OH237740   0.452   5.313   1.842  0.3317 -0.0923 -0.1486
 5394TIP3    H137741   0.383   5.265   1.796 -0.4851  0.1765  0.7773
 5394TIP3    H237742   0.533   5.285   1.799 -0.3559 -0.3063 -1.3390
 5395TIP3   OH237743   3.271   3.887   8.145  0.2309 -0.2883  0.3794
 5395TIP3    H137744   3.201   3.841   8.191  1.2675 -1.3626  0.9378
 5395TIP3    H237745   3.297   3.827   8.076  2.0756 -0.9069  1.5482
 5396TIP3   OH237746   3.161   6.577   0.173 -0.3413  0.2396  0.9019
 5396TIP3    H137747   3.069   6.597   0.153 -0.5567  0.6145  2.1505
 5396TIP3    H237748   3.157   6.494   0.221  0.3581 -1.8562 -2.3726
 5397TIP3   OH237749   2.279   2.162   8.711 -0.5944 -0.3454  0.2254
 5397TIP3    H137750   2.191   2.183   8.679 -0.3038 -0.3419 -0.6042
 5397TIP3    H237751   2.320   2.247   8.725 -0.6465 -0.3465  0.3798
 5398TIP3   OH237752   0.233   1.622   1.017 -0.1753  0.3796 -0.2324
 5398TIP3    H137753   0.302   1.555   1.013 -0.2814  0.2757 -0.3417
 5398TIP3    H237754   0.272   1.694   1.067  0.7123  1.1617 -1.9594
 5399TIP3   OH237755   6.645   6.494   7.633  0.2902 -0.2541  0.4175
 5399TIP3    H137756   6.561   6.480   7.677  0.7083  0.6935  1.6024
 5399TIP3    H237757   6.682   6.571   7.678  1.2127  0.1236 -0.9422
 5400TIP3   OH237758   1.575   2.129   8.715  0.8150  0.5721 -0.4010
 5400TIP3    H137759   1.602   2.064   8.779 -0.8710  2.6035  2.5916
 5400TIP3    H237760   1.657   2.167   8.684  1.7612 -1.8679 -1.1833
 5401TIP3   OH237761   1.181   0.545   6.851  0.2287 -0.2589  0.0490
 5401TIP3    H137762   1.192   0.626   6.900  1.5838  1.4376 -2.8026
 5401TIP3    H237763   1.090   0.545   6.823  0.3853  0.6467 -0.4874
 5402TIP3   OH237764   5.761   3.840   7.156  0.7572  0.2462 -0.1534
 5402TIP3    H137765   5.803   3.916   7.196 -0.6833  0.5810  0.7900
 5402TIP3    H237766   5.667   3.857   7.165  0.3680 -0.4189 -2.2739
 5403TIP3   OH237767   2.871   5.317   0.223 -0.0127 -0.0855  0.4410
 5403TIP3    H137768   2.829   5.366   0.152 -1.3285 -1.8231 -0.0698
 5403TIP3    H237769   2.875   5.378   0.296 -2.4597  0.5376  0.1340
 5404TIP3   OH237770   6.155   2.886   0.880  0.6167 -0.3808 -0.0351
 5404TIP3    H137771   6.240   2.872   0.920  1.5316 -0.5917 -1.9365
 5404TIP3    H237772   6.134   2.802   0.839 -0.5412 -0.3488  0.4578
 5405TIP3   OH237773   2.363   3.671   1.506  0.0173 -0.0459 -0.0877
 5405TIP3    H137774   2.377   3.670   1.411  0.5222 -0.1922 -0.0171
 5405TIP3    H237775   2.366   3.764   1.530 -0.7026  0.0379 -0.2909
 5406TIP3   OH237776   5.735   3.106   2.166  0.0588 -0.3878 -0.1371
 5406TIP3    H137777   5.717   3.193   2.203  0.2012 -0.1438 -0.6320
 5406TIP3    H237778   5.796   3.123   2.095 -1.1408 -0.7137 -1.2738
 5407TIP3   OH237779   4.725   1.174   8.538 -0.3952  0.1321  0.2661
 5407TIP3    H137780   4.692   1.215   8.458 -0.9344  0.9964  0.9146
 5407TIP3    H237781   4.647   1.142   8.583  0.0257 -1.7916 -0.2925
 5408TIP3   OH237782   3.654   0.469   8.940 -0.6946 -0.0443 -0.2278
 5408TIP3    H137783   3.608   0.458   9.023  0.1349 -0.8284  0.1426
 5408TIP3    H237784   3.745   0.450   8.960 -0.4429 -0.0082 -1.2731
 5409TIP3   OH237785   0.682   1.026   2.551  0.3456  0.3100  0.0385
 5409TIP3    H137786   0.709   1.088   2.619  1.7654  0.2852 -0.4664
 5409TIP3    H237787   0.734   1.052   2.474  0.4381 -1.0741 -0.3809
 5410TIP3   OH237788   3.547   5.974   0.229  0.1207  0.8536  0.3759
 5410TIP3    H137789   3.595   6.039   0.279  1.0144  1.7648 -1.5616
 5410TIP3    H237790   3.492   6.025   0.170  0.4505 -0.1365 -0.8295
 5411TIP3   OH237791   5.404   4.262   8.740  0.3379  0.2309 -0.4920
 5411TIP3    H137792   5.480   4.290   8.690  2.9926 -0.6122  2.7331
 5411TIP3    H237793   5.421   4.170   8.761 -0.9021  0.3847  1.4491
 5412TIP3   OH237794   4.290   2.335   7.448 -0.0996  0.1449 -0.2183
 5412TIP3    H137795   4.328   2.401   7.390  0.9132  1.5911  1.9538
 5412TIP3    H237796   4.195   2.347   7.440 -0.0074 -0.1010 -1.9604
 5413TIP3   OH237797   0.767   4.515   0.670  0.2035  0.4106  0.3628
 5413TIP3    H137798   0.819   4.549   0.743  0.6200  0.2873  0.1299
 5413TIP3    H237799   0.696   4.467   0.711  1.9335 -2.0136  0.7254
 5414TIP3   OH237800   1.361   0.109   6.872 -0.1914  0.0980 -0.2048
 5414TIP3    H137801   1.334   0.088   6.783  0.0207 -3.3791  0.4061
 5414TIP3    H237802   1.385   0.025   6.910  0.6328  1.5779  2.8701
 5415TIP3   OH237803   5.800   5.699   8.437  0.0135 -0.1311 -0.1911
 5415TIP3    H137804   5.724   5.692   8.379 -1.2282  1.6323  1.1168
 5415TIP3    H237805   5.767   5.745   8.514  2.5302  1.1141  0.2383
 5416TIP3   OH237806   5.407   3.686   1.499  0.2948  0.2689  0.6139
 5416TIP3    H137807   5.411   3.766   1.551  1.5966 -0.2010  1.2859
 5416TIP3    H237808   5.482   3.634   1.529  0.3386 -0.5676 -0.8452
 5417TIP3   OH237809   0.431   6.645   2.473  0.7811 -0.3033 -0.0831
 5417TIP3    H137810   0.389   6.612   2.552  0.3164  0.5566  0.0404
 5417TIP3    H237811   0.494   6.711   2.504 -0.3437  1.0054 -0.4859
 5418TIP3   OH237812   3.919   5.603   7.354  0.3064  0.4853 -0.0268
 5418TIP3    H137813   3.844   5.595   7.294 -0.4315  1.6670  0.6902
 5418TIP3    H237814   3.945   5.695   7.346  1.4879  0.1593 -0.0176
 5419TIP3   OH237815   3.977   3.312   8.322  0.3299 -0.2073  0.7487
 5419TIP3    H137816   3.957   3.249   8.253 -1.2793  1.2603 -0.2418
 5419TIP3    H237817   4.000   3.392   8.275  2.0581  0.0486  1.9589
 5420TIP3   OH237818   2.874   3.472   0.361 -0.2622  0.1813 -0.0139
 5420TIP3    H137819   2.941   3.422   0.409 -1.3499 -0.6196  0.7237
 5420TIP3    H237820   2.869   3.431   0.275  1.9231  1.8180 -1.0175
 5421TIP3   OH237821   6.569   3.433   6.797 -0.2729  0.4189 -0.1407
 5421TIP3    H137822   6.595   3.348   6.833 -1.4160  0.1324  0.0465
 5421TIP3    H237823   6.559   3.490   6.873 -0.6651  0.3866 -0.1656
 5422TIP3   OH237824   4.871   3.980   1.733 -0.4232 -0.1436 -0.0171
 5422TIP3    H137825   4.920   3.991   1.815 -0.0771 -0.1105 -0.2241
 5422TIP3    H237826   4.811   3.908   1.750  1.3622 -1.8452 -0.4961
 5423TIP3   OH237827   3.660   2.435   0.388 -0.6697  0.1914 -0.0585
 5423TIP3    H137828   3.650   2.345   0.418  1.4139 -0.1804 -0.3291
 5423TIP3    H237829   3.573   2.461   0.358 -1.1720 -1.9361 -0.5725
 5424TIP3   OH237830   0.482   1.772   2.131 -0.2145  0.3252 -0.3312
 5424TIP3    H137831   0.485   1.680   2.105  1.4739  1.0393 -3.0425
 5424TIP3    H237832   0.559   1.784   2.186 -0.2364  0.2163 -0.2761
 5425TIP3   OH237833   0.413   0.740   2.781 -0.0691  0.0987 -0.5184
 5425TIP3    H137834   0.406   0.800   2.707  0.1006  0.0876 -0.5441
 5425TIP3    H237835   0.442   0.795   2.854  0.2327  0.0207 -0.5791
 5426TIP3   OH237836   0.333   0.814   8.949 -0.2129 -0.3358 -0.4586
 5426TIP3    H137837   0.299   0.733   8.912 -0.8145 -0.0832 -0.4702
 5426TIP3    H237838   0.423   0.793   8.974 -0.0999 -0.7733 -1.1990
 5427TIP3   OH237839   1.762   1.146   1.419 -0.1655 -0.2458 -0.3064
 5427TIP3    H137840   1.735   1.070   1.469 -0.3573 -0.0129 -0.0533
 5427TIP3    H237841   1.809   1.201   1.481 -0.4297  0.0569 -0.3726
 5428TIP3   OH237842   2.482   0.400   7.771 -0.2732 -0.4856 -0.6293
 5428TIP3    H137843   2.574   0.385   7.795 -0.2620 -0.3903 -0.6118
 5428TIP3    H237844   2.442   0.313   7.773 -0.3553 -0.4419  0.0731
 5429TIP3   OH237845   2.160   5.336   6.980 -0.3542 -0.3220 -0.4621
 5429TIP3    H137846   2.082   5.366   7.027 -0.7451 -0.4204 -1.0305
 5429TIP3    H237847   2.127   5.266   6.922  0.4866 -1.7202  0.6842
 5430TIP3   OH237848   2.982   4.849   7.630  0.0029  0.3313 -0.4449
 5430TIP3    H137849   3.005   4.756   7.632 -1.9492 -0.2051 -0.0660
 5430TIP3    H237850   2.930   4.859   7.551 -2.9088  0.1979  1.2976
 5431TIP3   OH237851   6.340   0.273   1.263 -0.0225 -0.1073 -0.5673
 5431TIP3    H137852   6.360   0.251   1.354  0.0555  2.4662  0.1100
 5431TIP3    H237853   6.295   0.196   1.229 -0.4091 -0.9828  1.7736
 5432TIP3   OH237854   3.151   5.582   1.802 -0.5625 -0.1823 -0.3943
 5432TIP3    H137855   3.114   5.494   1.800 -0.0731 -0.3815 -1.0956
 5432TIP3    H237856   3.089   5.636   1.752  0.9279 -0.8767 -3.2022
 5433TIP3   OH237857   0.941   3.506   1.611  0.2063 -0.5297 -0.5076
 5433TIP3    H137858   0.941   3.566   1.686 -0.4741 -0.4906 -0.5297
 5433TIP3    H237859   1.027   3.464   1.614  0.0193 -0.8798  0.5913
 5434TIP3   OH237860   1.657   6.343   7.162  0.6004  0.1444  0.5195
 5434TIP3    H137861   1.643   6.387   7.079 -0.1233 -0.1294  0.4907
 5434TIP3    H237862   1.737   6.291   7.149  1.2990  1.2160  0.4688
 5435TIP3   OH237863   3.797   0.440   3.056 -0.7032 -0.3756 -0.1194
 5435TIP3    H137864   3.711   0.405   3.081 -0.6628 -1.4202 -1.3415
 5435TIP3    H237865   3.840   0.367   3.011  1.4419 -0.3886  1.7402
 5436TIP3   OH237866   6.035   0.181   0.040  0.4562 -0.7054  0.5503
 5436TIP3    H137867   6.099   0.113   0.023 -0.4190 -2.2270  2.9240
 5436TIP3    H237868   6.076   0.238   0.104  0.5343  0.0848 -0.1733
 5437TIP3   OH237869   1.173   5.691   7.671  0.6194  0.3626 -0.0702
 5437TIP3    H137870   1.191   5.737   7.590 -3.0328 -1.0942 -1.9610
 5437TIP3    H237871   1.221   5.608   7.662  0.5901  0.3915 -0.5377
 5438TIP3   OH237872   2.170   0.786   8.864  0.1781 -0.4440 -0.6790
 5438TIP3    H137873   2.102   0.799   8.930 -0.1503 -2.0316 -0.6762
 5438TIP3    H237874   2.247   0.831   8.899 -0.7685  1.1529 -0.5557
 5439TIP3   OH237875   0.150   2.805   8.725 -0.0235 -0.0105  0.3059
 5439TIP3    H137876   0.112   2.793   8.638  1.5740 -1.8748 -0.1997
 5439TIP3    H237877   0.191   2.892   8.722 -0.0462 -0.0350 -0.7727
 5440TIP3   OH237878   4.351   4.091   7.875  0.2132 -0.1885 -0.0274
 5440TIP3    H137879   4.362   3.997   7.861  1.4176  0.0523 -0.8148
 5440TIP3    H237880   4.439   4.123   7.895  0.1287  1.0187 -1.3897
 5441TIP3   OH237881   1.869   3.581   2.179  0.7313 -0.7054  0.5763
 5441TIP3    H137882   1.963   3.571   2.167  0.4225 -2.1858 -0.8421
 5441TIP3    H237883   1.854   3.561   2.272  1.9535  1.0504  1.2034
 5442TIP3   OH237884   5.198   2.081   1.934 -0.0773  0.0504  0.0961
 5442TIP3    H137885   5.287   2.114   1.943  0.8605 -1.3671 -2.6156
 5442TIP3    H237886   5.162   2.129   1.859 -0.4695 -1.4257 -0.7097
 5443TIP3   OH237887   4.755   0.669   1.793 -0.6451 -0.5408 -0.3121
 5443TIP3    H137888   4.798   0.726   1.856 -1.3046  0.2475 -0.5546
 5443TIP3    H237889   4.757   0.582   1.833  1.8182 -0.6916 -0.6451
 5444TIP3   OH237890   6.321   1.145   8.634 -0.0661 -0.0627 -0.5510
 5444TIP3    H137891   6.321   1.207   8.706 -1.0146 -0.7820  0.1006
 5444TIP3    H237892   6.230   1.143   8.604 -0.4831 -2.3846  0.6044
 5445TIP3   OH237893   1.623   1.400   8.011 -0.6102 -0.2386  0.6492
 5445TIP3    H137894   1.703   1.381   8.059  1.7777 -0.5901 -3.0681
 5445TIP3    H237895   1.570   1.320   8.021  0.5680 -0.9742  1.2371
 5446TIP3   OH237896   0.073   1.939   7.976 -0.7373  0.3162  0.0787
 5446TIP3    H137897   0.133   1.954   8.050 -0.8108 -0.7429  0.3690
 5446TIP3    H237898  -0.009   1.979   8.003 -0.8345 -0.2750  0.6916
 5447TIP3   OH237899   5.622   3.314   1.633 -0.3102  0.4380 -0.0095
 5447TIP3    H137900   5.654   3.402   1.654 -1.1342  0.6127  0.5410
 5447TIP3    H237901   5.593   3.320   1.542 -1.4266  1.0525  0.3756
 5448TIP3   OH237902   5.268   2.133   8.284  0.1468 -0.8277  0.2975
 5448TIP3    H137903   5.244   2.224   8.298 -0.6092 -0.5462 -2.2650
 5448TIP3    H237904   5.224   2.086   8.355 -0.7798  0.6359  0.7439
 5449TIP3   OH237905   2.168   6.266   0.640  0.1994  0.1668 -0.0613
 5449TIP3    H137906   2.256   6.229   0.631  0.4228  0.8901 -0.9610
 5449TIP3    H237907   2.109   6.191   0.627  0.6694 -0.5886  1.8728
 5450TIP3   OH237908   1.510   0.876   8.233 -0.5301 -0.0359  0.5064
 5450TIP3    H137909   1.591   0.926   8.239 -0.6086  0.6609 -2.7784
 5450TIP3    H237910   1.520   0.822   8.155 -1.8801 -2.6249  1.9935
 5451TIP3   OH237911   5.753   3.963   1.689  0.8611  0.5329 -0.0095
 5451TIP3    H137912   5.824   3.941   1.628  0.6372  0.4880 -0.2549
 5451TIP3    H237913   5.715   3.878   1.713 -0.6608  0.6566 -1.7372
 5452TIP3   OH237914   0.216   6.175   1.049 -0.3499 -0.1240 -0.2344
 5452TIP3    H137915   0.244   6.259   1.088 -0.5358  1.2019 -2.7562
 5452TIP3    H237916   0.268   6.109   1.095 -2.2480  0.9111  3.9609
 5453TIP3   OH237917   3.321   1.775   1.013 -0.2045  0.1889 -0.4172
 5453TIP3    H137918   3.373   1.715   1.067 -1.6700 -0.9299 -0.1874
 5453TIP3    H237919   3.386   1.819   0.958  1.2082  0.4896  1.3836
 5454TIP3   OH237920   5.767   2.380   0.383 -0.4850  0.5285  0.0524
 5454TIP3    H137921   5.827   2.337   0.443  0.1097  1.8002  0.4028
 5454TIP3    H237922   5.798   2.355   0.296 -0.9370 -0.7656  0.2460
 5455TIP3   OH237923   5.140   4.405   1.430 -0.1473  0.0420  0.0848
 5455TIP3    H137924   5.106   4.333   1.482  1.9015  0.0672  1.5934
 5455TIP3    H237925   5.155   4.476   1.493  0.7660  0.7003 -0.8287
 5456TIP3   OH237926   4.230   3.096   1.029 -0.3480  0.0345  0.8837
 5456TIP3    H137927   4.225   3.021   1.088 -1.7524  1.3299  2.5399
 5456TIP3    H237928   4.162   3.080   0.965 -0.6623 -0.1059  1.2461
 5457TIP3   OH237929   4.466   2.549   2.973 -0.3270  0.0367 -0.5586
 5457TIP3    H137930   4.557   2.523   2.965  0.2350  0.8248  2.2239
 5457TIP3    H237931   4.469   2.644   2.989 -1.5085 -0.0746  0.5317
 5458TIP3   OH237932   0.569   4.919   1.688  0.1972  0.2081  0.2442
 5458TIP3    H137933   0.574   5.013   1.670  0.1725  0.0758 -0.4822
 5458TIP3    H237934   0.653   4.897   1.727  1.0229  0.1340 -1.5228
 5459TIP3   OH237935   2.678   1.540   1.448 -0.3431 -0.4997 -0.3430
 5459TIP3    H137936   2.690   1.446   1.433  0.4787 -0.2871 -1.1427
 5459TIP3    H237937   2.745   1.561   1.513 -1.9746 -0.8625  1.5207
 5460TIP3   OH237938   5.739   3.988   8.707  0.4081  0.1199 -0.1749
 5460TIP3    H137939   5.773   3.900   8.690 -1.1984 -0.6644  0.4988
 5460TIP3    H237940   5.767   4.007   8.797  2.9529  1.4151 -1.1395
 5461TIP3   OH237941   5.019   4.863   8.284 -0.4851  0.3604 -0.2284
 5461TIP3    H137942   5.055   4.909   8.208  0.4428  0.0259  0.0012
 5461TIP3    H237943   4.932   4.902   8.296 -0.9216 -0.0323 -1.8477
 5462TIP3   OH237944   4.743   4.937   2.292 -0.6546 -0.1795  0.7135
 5462TIP3    H137945   4.829   4.979   2.289 -0.1370 -1.2573 -0.7840
 5462TIP3    H237946   4.762   4.844   2.280 -2.1099 -0.2877 -1.0633
 5463TIP3   OH237947   6.609   4.241   1.611  1.0012  0.0684  0.5663
 5463TIP3    H137948   6.700   4.222   1.587  0.7224  0.3967 -0.8424
 5463TIP3    H237949   6.567   4.268   1.528 -0.7451 -1.4574  0.8971
 5464TIP3   OH237950   3.234   0.144   1.180 -0.2626  0.5997  0.0635
 5464TIP3    H137951   3.251   0.052   1.201 -1.8826 -0.0005 -1.0796
 5464TIP3    H237952   3.303   0.167   1.118 -0.2836 -0.0708 -0.2156
 5465TIP3   OH237953   1.072   1.969   1.375 -0.1880  0.0660 -0.2576
 5465TIP3    H137954   1.096   1.878   1.390  0.8234  0.1686 -1.1577
 5465TIP3    H237955   1.154   2.011   1.349 -0.8020  1.0622 -0.6245
 5466TIP3   OH237956   1.295   5.102   3.041 -0.7744  0.6727  0.6561
 5466TIP3    H137957   1.216   5.049   3.051 -0.3506 -0.2418 -0.5296
 5466TIP3    H237958   1.364   5.038   3.023 -0.4475  1.6234 -1.9807
 5467TIP3   OH237959   4.680   6.320   0.637 -0.7949  0.6617 -0.3364
 5467TIP3    H137960   4.650   6.247   0.584 -0.9473 -2.0509  3.1147
 5467TIP3    H237961   4.599   6.364   0.665 -1.2330 -1.5150  2.1830
 5468TIP3   OH237962   1.532   4.041   8.924  0.5379 -0.0666 -0.0343
 5468TIP3    H137963   1.505   4.075   8.839 -0.3524 -0.3881  0.1092
 5468TIP3    H237964   1.624   4.019   8.913  0.4664  0.0238 -0.8765
 5469TIP3   OH237965   3.746   5.750   8.915 -0.3341 -0.6531 -0.0688
 5469TIP3    H137966   3.675   5.812   8.926 -0.0326 -0.1296 -0.9365
 5469TIP3    H237967   3.703   5.666   8.901 -0.7953 -0.3075 -0.7835
 5470TIP3   OH237968   3.172   4.477   0.934  0.2171  0.6457 -0.2099
 5470TIP3    H137969   3.203   4.567   0.943 -0.1315  1.1278 -2.9736
 5470TIP3    H237970   3.211   4.447   0.852 -1.7882 -0.8115 -0.6881
 5471TIP3   OH237971   0.883   4.194   8.355 -0.1391  0.0199  0.5412
 5471TIP3    H137972   0.970   4.233   8.360  0.1865 -0.3051 -1.4163
 5471TIP3    H237973   0.830   4.260   8.311 -0.2596 -0.6467 -0.3541
 5472TIP3   OH237974   4.811   6.201   0.257 -0.5230  0.5564  0.1506
 5472TIP3    H137975   4.786   6.108   0.261  0.9304  0.1305 -0.2166
 5472TIP3    H237976   4.837   6.223   0.346  0.3290  0.2419 -0.0075
 5473TIP3   OH237977   3.031   5.633   2.920  0.0725  0.6969  0.2890
 5473TIP3    H137978   3.119   5.599   2.900  0.1700  0.6903  0.7314
 5473TIP3    H237979   2.972   5.571   2.877  0.2095 -0.6968  1.9967
 5474TIP3   OH237980   5.907   0.112   3.046 -0.1463  0.0399  0.0149
 5474TIP3    H137981   5.925   0.170   3.120  0.3864  0.7529 -0.6604
 5474TIP3    H237982   5.979   0.127   2.986 -0.3650 -0.8317 -0.4800
 5475TIP3   OH237983   3.893   1.272   2.311  1.1709  0.0722 -0.1641
 5475TIP3    H137984   3.885   1.367   2.303 -0.6532 -0.0585 -0.4111
 5475TIP3    H237985   3.880   1.255   2.405 -2.8560 -0.1419 -0.5569
 5476TIP3   OH237986   2.992   6.753   7.617 -0.3001  0.3663 -0.6382
 5476TIP3    H137987   2.903   6.720   7.607 -0.3969 -0.7597  2.7278
 5476TIP3    H237988   3.048   6.679   7.594 -0.4257 -0.5738  1.7677
 5477TIP3   OH237989   2.922   1.476   2.828 -0.7291  0.0080  0.1198
 5477TIP3    H137990   2.874   1.552   2.796 -0.6811  0.3628  0.8566
 5477TIP3    H237991   2.999   1.512   2.872 -0.1865 -0.5224 -0.3778
 5478TIP3   OH237992   5.326   1.710   1.664 -0.2097  0.2754 -0.3251
 5478TIP3    H137993   5.253   1.755   1.622  0.1747 -1.1580 -2.6843
 5478TIP3    H237994   5.292   1.622   1.683  0.6779 -0.2109 -0.8951
 5479TIP3   OH237995   6.272   3.182   7.023  0.1795 -0.3837 -0.0037
 5479TIP3    H137996   6.193   3.234   7.033  0.7031  0.8525 -1.7322
 5479TIP3    H237997   6.314   3.217   6.944  1.7647 -1.8910  0.1008
 5480TIP3   OH237998   4.101   2.240   1.165  0.7964  0.1212 -0.6486
 5480TIP3    H137999   4.196   2.249   1.156  0.8240 -1.2215 -2.0748
 5480TIP3    H238000   4.086   2.146   1.174 -0.5032  0.1054 -2.3989
 5481TIP3   OH238001   6.477   5.434   7.969 -0.3754  0.0671  0.0078
 5481TIP3    H138002   6.497   5.527   7.973 -1.0074  0.3368 -1.8967
 5481TIP3    H238003   6.382   5.430   7.977 -0.4752 -0.2750 -1.1396
 5482TIP3   OH238004   5.126   4.829   1.948 -0.1245 -0.2703 -0.3258
 5482TIP3    H138005   5.113   4.877   2.030  1.0037 -1.1016  0.3579
 5482TIP3    H238006   5.072   4.877   1.884 -0.6744  0.6512  0.7862
 5483TIP3   OH238007   0.779   6.195   0.731  0.1846  0.1810 -1.0317
 5483TIP3    H138008   0.807   6.129   0.667  2.1600 -0.3640  0.3073
 5483TIP3    H238009   0.859   6.218   0.778 -0.7302  2.4854 -0.4734
 5484TIP3   OH238010   0.759   0.570   8.628 -0.3350 -0.3390  0.3824
 5484TIP3    H138011   0.713   0.509   8.570  0.2306 -0.4030  0.0022
 5484TIP3    H238012   0.753   0.655   8.583  0.9249 -0.5679 -0.2399
 5485TIP3   OH238013   2.013   6.671   1.273 -0.2898 -0.0517  0.2944
 5485TIP3    H138014   1.957   6.594   1.278 -1.4814  0.8414  1.2730
 5485TIP3    H238015   2.065   6.658   1.194 -0.3708 -1.9072  0.5125
 5486TIP3   OH238016   5.379   1.549   7.560  0.1028 -0.3675 -0.1797
 5486TIP3    H138017   5.337   1.469   7.528  1.5833 -0.9450 -0.7538
 5486TIP3    H238018   5.336   1.619   7.512 -1.4002 -0.7634  0.5163
 5487TIP3   OH238019   4.777   3.368   1.478 -0.5329 -0.2989 -0.4885
 5487TIP3    H138020   4.757   3.421   1.401  0.5144  0.2436 -0.4110
 5487TIP3    H238021   4.849   3.312   1.451  0.7998  0.8713  0.4630
 5488TIP3   OH238022   1.950   6.437   7.703  0.0509 -0.4736  0.4625
 5488TIP3    H138023   1.858   6.461   7.712 -0.1470  0.0994 -2.2380
 5488TIP3    H238024   1.995   6.519   7.687  0.6001 -0.9905 -0.8223
 5489TIP3   OH238025   3.827   0.457   2.582  0.2515 -0.4550 -0.1801
 5489TIP3    H138026   3.811   0.549   2.561  0.1182 -0.8492 -1.9687
 5489TIP3    H238027   3.920   0.453   2.604  0.9378 -0.2826 -2.7407
 5490TIP3   OH238028   6.632   5.706   8.331 -0.0766 -0.2755 -0.1588
 5490TIP3    H138029   6.676   5.672   8.252 -0.1779 -0.0890 -0.2979
 5490TIP3    H238030   6.539   5.689   8.316 -0.2257  0.9196 -0.6669
 5491TIP3   OH238031   6.075   1.004   2.401 -0.1766  0.2379 -0.8348
 5491TIP3    H138032   6.144   0.985   2.338  0.8950  0.1724  0.3110
 5491TIP3    H238033   5.994   0.981   2.357  0.4822  0.8318 -2.4201
 5492TIP3   OH238034   0.310   3.767   2.586 -0.0237  0.1031  0.0865
 5492TIP3    H138035   0.385   3.819   2.557  0.1811 -0.2821 -0.0846
 5492TIP3    H238036   0.249   3.769   2.513 -0.4281  0.8670  0.4273
 5493TIP3   OH238037   0.423   4.512   8.358 -0.1272 -0.2279 -0.2872
 5493TIP3    H138038   0.361   4.570   8.402  1.5866  1.2436  0.3213
 5493TIP3    H238039   0.383   4.494   8.273 -1.0837  1.2268 -0.1786
 5494TIP3   OH238040   2.168   4.331   0.086 -0.2550 -0.0437 -0.3412
 5494TIP3    H138041   2.204   4.265   0.146  1.4547 -1.2746 -2.5263
 5494TIP3    H238042   2.205   4.414   0.117  1.5570 -0.7992 -0.3236
 5495TIP3   OH238043   4.949   6.431   7.221  0.0510  0.0566 -0.0729
 5495TIP3    H138044   5.039   6.401   7.208 -0.1585 -0.5840 -0.0746
 5495TIP3    H238045   4.904   6.410   7.139  0.2359  1.6847 -0.6291
 5496TIP3   OH238046   4.331   3.395   8.522  0.5349  0.3862 -0.2917
 5496TIP3    H138047   4.242   3.420   8.500  0.4041 -0.6567 -1.0077
 5496TIP3    H238048   4.322   3.330   8.591  0.8901  2.5111  1.9094
 5497TIP3   OH238049   4.353   0.065   1.293 -0.2060  0.4779  0.1282
 5497TIP3    H138050   4.297   0.004   1.246 -2.5876  1.4475  1.5145
 5497TIP3    H238051   4.385   0.016   1.369  0.1616  0.1776 -0.2137
 5498TIP3   OH238052   5.765   0.112   7.696  0.1530 -0.0603 -0.2340
 5498TIP3    H138053   5.795   0.189   7.744 -1.5087  0.6683 -0.3042
 5498TIP3    H238054   5.675   0.131   7.673 -0.1210 -1.7970 -0.7749
 5499TIP3   OH238055   4.804   5.571   0.200  0.5034 -0.0144 -0.0494
 5499TIP3    H138056   4.789   5.559   0.107  0.4396  1.6307 -0.2690
 5499TIP3    H238057   4.899   5.559   0.211  0.1201 -4.2415  0.3840
 5500TIP3   OH238058   3.344   1.746   1.645 -0.6101 -0.0860  0.2525
 5500TIP3    H138059   3.267   1.787   1.684 -0.9305 -0.0941 -0.3537
 5500TIP3    H238060   3.384   1.815   1.593  0.1734  0.1037  1.0860
 5501TIP3   OH238061   4.121   0.715   0.249  0.0171 -0.0683  0.1069
 5501TIP3    H138062   4.040   0.696   0.201 -0.7426  0.0698  1.3146
 5501TIP3    H238063   4.179   0.642   0.227 -0.0173  0.3631 -1.6128
 5502TIP3   OH238064   4.829   1.535   7.512  0.2694 -0.1858 -0.0663
 5502TIP3    H138065   4.773   1.584   7.452  0.1476 -1.7245 -1.2873
 5502TIP3    H238066   4.813   1.575   7.598 -0.9034  0.9264 -0.7629
 5503TIP3   OH238067   6.285   1.936   7.991 -0.2546 -0.5686  0.1804
 5503TIP3    H138068   6.236   2.015   7.971 -0.4297 -0.4401  1.0802
 5503TIP3    H238069   6.260   1.914   8.081  0.0162 -1.4764  0.0474
 5504TIP3   OH238070   6.112   5.874   7.426 -0.2005  0.0886  0.3726
 5504TIP3    H138071   6.096   5.826   7.345 -1.5759 -0.4252  0.9074
 5504TIP3    H238072   6.080   5.963   7.408 -0.5445 -0.0367  0.3568
 5505TIP3   OH238073   5.550   5.369   2.752 -0.5069 -0.2285 -0.1322
 5505TIP3    H138074   5.517   5.296   2.699  0.0693 -1.3375  0.9826
 5505TIP3    H238075   5.475   5.394   2.807 -0.4140 -0.6508  0.1886
 5506TIP3   OH238076   2.084   2.688   0.079  0.1315  0.1885 -0.0860
 5506TIP3    H138077   2.014   2.631   0.048 -1.0818  0.4480  1.9555
 5506TIP3    H238078   2.165   2.638   0.063 -0.5063 -0.2407 -2.2129
 5507TIP3   OH238079   5.764   5.546   0.998 -0.0529  0.0974 -0.0362
 5507TIP3    H138080   5.783   5.465   0.952 -2.0068  0.2956 -1.3537
 5507TIP3    H238081   5.720   5.518   1.079  1.0811 -0.1848  0.4974
 5508TIP3   OH238082   2.373   5.678   8.810  0.5958  0.1671 -0.2450
 5508TIP3    H138083   2.334   5.624   8.879  0.3726 -0.6665 -1.0054
 5508TIP3    H238084   2.309   5.677   8.740  0.7345  1.1806 -0.3953
 5509TIP3   OH238085   2.086   3.753   1.195 -0.1189 -0.4307 -0.0697
 5509TIP3    H138086   2.066   3.688   1.263 -1.4834  1.8753  1.9132
 5509TIP3    H238087   2.102   3.834   1.244 -0.9572  1.3125 -2.5000
 5510TIP3   OH238088   3.363   6.748   0.267 -0.2283 -0.2703  0.0307
 5510TIP3    H138089   3.329   6.836   0.279  1.2578  0.2173  0.9600
 5510TIP3    H238090   3.288   6.697   0.236 -1.7536  0.7444  1.8701
 5511TIP3   OH238091   3.043   4.107   0.904  0.2821  0.4584 -0.1788
 5511TIP3    H138092   2.948   4.113   0.890  0.1961  0.8587  0.5106
 5511TIP3    H238093   3.052   4.055   0.983  0.7159 -1.0767 -1.2068
 5512TIP3   OH238094   5.882   5.063   0.734  0.3978 -0.1079 -0.0611
 5512TIP3    H138095   5.820   5.010   0.785 -0.9969  0.8273 -0.7068
 5512TIP3    H238096   5.967   5.048   0.776 -0.4187 -0.6622  1.4884
 5513TIP3   OH238097   0.979   1.192   0.471  0.3284  0.4093 -0.6718
 5513TIP3    H138098   0.910   1.210   0.407  1.2997 -0.4768 -2.0201
 5513TIP3    H238099   1.019   1.110   0.443  1.8154  0.7886  0.1602
 5514TIP3   OH238100   3.041   3.069   7.281 -0.5215 -0.0331  0.5954
 5514TIP3    H138101   3.043   3.066   7.186  2.0237 -2.1663  0.6019
 5514TIP3    H238102   3.077   3.154   7.304  1.4033 -0.5444 -0.3861
 5515TIP3   OH238103   3.258   2.060   2.294  0.0741  0.0898 -0.8307
 5515TIP3    H138104   3.218   2.124   2.352  2.1791  0.1333  0.7008
 5515TIP3    H238105   3.288   1.990   2.353  0.3215 -0.9386 -2.1372
 5516TIP3   OH238106   5.932   4.445   0.481 -0.2610  0.5510 -0.0914
 5516TIP3    H138107   5.995   4.374   0.492  1.5671  1.3664 -3.6792
 5516TIP3    H238108   5.974   4.521   0.522 -0.7957  0.2889  0.9875
 5517TIP3   OH238109   6.720   5.268   1.637  0.0877  0.3774 -0.1489
 5517TIP3    H138110   6.641   5.245   1.686  0.8704  1.2353  1.6199
 5517TIP3    H238111   6.695   5.261   1.545 -2.1766  1.0537  0.3673
 5518TIP3   OH238112   6.512   4.973   0.715  0.1239  0.3863 -0.3911
 5518TIP3    H138113   6.478   4.965   0.804  0.5924 -1.0001 -0.3166
 5518TIP3    H238114   6.607   4.972   0.726  0.1917 -1.0343 -0.9890
 5519TIP3   OH238115   5.625   6.349   0.432  0.4970 -0.1603  0.0045
 5519TIP3    H138116   5.585   6.280   0.380  2.7508 -1.1126 -0.5881
 5519TIP3    H238117   5.719   6.338   0.419  1.1472  0.3327  3.3004
 5520TIP3   OH238118   0.085   2.465   8.916  0.7966  0.6616  0.1642
 5520TIP3    H138119   0.060   2.451   8.825  1.2158 -0.3166  0.1882
 5520TIP3    H238120   0.017   2.421   8.967  1.2223  0.1353  0.2872
 5521TIP3   OH238121   6.480   4.950   7.965 -0.0116  0.1555 -0.1978
 5521TIP3    H138122   6.471   4.855   7.963  1.2125  0.0189 -0.4556
 5521TIP3    H238123   6.575   4.965   7.959 -0.2390  1.4174 -1.2259
 5522TIP3   OH238124   6.352   4.782   0.599  0.4680 -0.4591  0.5768
 5522TIP3    H138125   6.418   4.841   0.637 -1.0930  2.4888 -0.8820
 5522TIP3    H238126   6.362   4.794   0.504 -1.3266 -0.8834  0.3003
 5523TIP3   OH238127   4.007   1.056   8.894  0.5025 -0.1238  0.1682
 5523TIP3    H138128   3.988   1.005   8.972 -1.0802 -0.4496 -0.4102
 5523TIP3    H238129   4.091   1.021   8.862  0.1990 -1.2999  0.6343
 5524TIP3   OH238130   0.177   3.735   7.753 -0.1158  0.3343 -0.3853
 5524TIP3    H138131   0.202   3.648   7.723  1.4811  0.6988 -0.1665
 5524TIP3    H238132   0.165   3.726   7.847  1.1678  0.5708 -0.1806
 5525TIP3   OH238133   1.418   2.092   0.181  0.0530  0.0064  0.3588
 5525TIP3    H138134   1.495   2.141   0.154 -2.0136  2.9139 -0.6949
 5525TIP3    H238135   1.370   2.074   0.100 -1.3625  0.0298  1.1517
 5526TIP3   OH238136   0.118   0.491   8.926 -0.4338  0.0534 -0.1796
 5526TIP3    H138137   0.163   0.496   9.011  0.4663 -1.9074 -0.4640
 5526TIP3    H238138   0.055   0.419   8.936 -2.2047  1.5072 -0.4033
 5527TIP3   OH238139   5.813   6.272   1.482  0.1859 -0.3688 -0.6705
 5527TIP3    H138140   5.883   6.252   1.543 -1.5429  1.0144  1.9626
 5527TIP3    H238141   5.747   6.203   1.497 -1.2553  1.2415  0.8400
 5528TIP3   OH238142   3.115   1.060   1.256  0.4659 -0.3000  0.0118
 5528TIP3    H138143   3.155   1.109   1.328  1.4440 -0.6240 -0.2898
 5528TIP3    H238144   3.045   1.010   1.298 -1.6694  2.4961  0.0712
 5529TIP3   OH238145   5.012   1.624   7.250  0.1554  0.2074  0.2742
 5529TIP3    H138146   4.999   1.698   7.190  0.2241  0.4521  0.5581
 5529TIP3    H238147   4.926   1.611   7.291  0.2364  0.3731  0.4987
 5530TIP3   OH238148   0.333   0.991   7.889 -0.0579  0.2885 -0.1206
 5530TIP3    H138149   0.289   0.997   7.804 -0.8025 -1.2601  0.1057
 5530TIP3    H238150   0.425   0.980   7.868 -0.3227 -0.8121 -0.7869
 5531TIP3   OH238151   1.648   6.481   6.937 -0.3180 -0.7065 -0.1295
 5531TIP3    H138152   1.692   6.566   6.939 -2.0955  0.3545 -2.0287
 5531TIP3    H238153   1.683   6.438   6.859 -0.0629 -1.3743  0.3465
 5532TIP3   OH238154   6.744   3.784   0.738  0.6086  0.2740 -0.2907
 5532TIP3    H138155   6.830   3.811   0.772  1.9473 -2.1610 -1.4789
 5532TIP3    H238156   6.692   3.766   0.817  1.2978  1.3703  0.4447
 5533TIP3   OH238157   0.681   3.998   8.487  0.4180  0.2225 -0.2058
 5533TIP3    H138158   0.643   4.055   8.420 -0.0831  1.0889  0.7857
 5533TIP3    H238159   0.640   4.027   8.569  0.8618 -0.9475  0.4482
 5534TIP3   OH238160   1.556   1.921   7.446  0.1424 -0.2946  0.5927
 5534TIP3    H138161   1.482   1.874   7.406  1.4971 -1.3971 -0.7197
 5534TIP3    H238162   1.559   2.005   7.400 -0.1522 -0.3393  0.4912
 5535TIP3   OH238163   2.919   1.148   8.640  0.2562 -0.5935 -0.3071
 5535TIP3    H138164   3.013   1.134   8.647  0.0622 -1.2552  1.4733
 5535TIP3    H238165   2.886   1.071   8.594  0.6090 -0.1555 -1.3258
 5536TIP3   OH238166   0.521   6.017   0.710 -0.7508 -0.0914 -0.1036
 5536TIP3    H138167   0.527   6.107   0.743 -2.3233  0.1143 -0.2767
 5536TIP3    H238168   0.567   5.965   0.775  1.5385  0.9787 -0.7799
 5537TIP3   OH238169   5.576   3.347   0.600 -0.5180  0.1213 -0.3919
 5537TIP3    H138170   5.612   3.426   0.638  2.6215 -0.8560 -1.0478
 5537TIP3    H238171   5.529   3.377   0.522  1.1030  1.3434 -0.9493
 5538TIP3   OH238172   6.588   2.210   1.301 -0.4228  0.5060 -0.1337
 5538TIP3    H138173   6.525   2.263   1.252 -0.4434  0.6229  0.0195
 5538TIP3    H238174   6.662   2.268   1.318  0.2296  0.0561 -1.2845
 5539TIP3   OH238175   0.627   6.426   0.670 -0.2810  0.4453  0.0921
 5539TIP3    H138176   0.674   6.348   0.699 -0.8961  0.3028  0.7424
 5539TIP3    H238177   0.649   6.434   0.577 -0.7101 -0.8784 -0.1468
 5540TIP3   OH238178   2.858   2.419   0.737  0.3352  0.2895  0.1977
 5540TIP3    H138179   2.940   2.442   0.693 -0.2687 -0.8779 -1.6215
 5540TIP3    H238180   2.796   2.402   0.666 -1.0490 -0.4209  1.5180
 5541TIP3   OH238181   2.217   1.566   2.199 -0.0665  0.1548 -0.4421
 5541TIP3    H138182   2.252   1.617   2.273  0.1370 -0.0494 -0.3975
 5541TIP3    H238183   2.122   1.570   2.210 -0.0280 -1.8465  1.1802
 5542TIP3   OH238184   6.243   0.359   8.270 -0.5135 -0.4969 -0.0180
 5542TIP3    H138185   6.288   0.420   8.210  1.1311 -1.5531  0.0626
 5542TIP3    H238186   6.218   0.285   8.214 -1.7443 -0.1433  0.0437
 5543TIP3   OH238187   6.152   1.760   2.383  0.2241  0.6307 -0.6431
 5543TIP3    H138188   6.167   1.703   2.308  1.2638  1.2510 -0.9228
 5543TIP3    H238189   6.204   1.722   2.453  1.3521  1.5021 -0.9766
 5544TIP3   OH238190   0.965   2.704   8.878  0.4286 -0.3435  0.5577
 5544TIP3    H138191   0.960   2.612   8.903 -0.5371 -0.8236 -1.2103
 5544TIP3    H238192   0.985   2.702   8.784 -0.5663  1.2150  0.2775
 5545TIP3   OH238193   2.411   2.681   8.617  0.2814  0.8624  0.0342
 5545TIP3    H138194   2.398   2.587   8.606 -0.0038  0.7506  1.1907
 5545TIP3    H238195   2.505   2.690   8.636  0.8548  1.0912 -2.5357
 5546TIP3   OH238196   6.696   5.565   7.691 -0.4519  0.1002  0.1597
 5546TIP3    H138197   6.770   5.620   7.666  0.6771 -0.9246  1.0743
 5546TIP3    H238198   6.680   5.588   7.783  0.8538 -1.8569  0.9591
 5547TIP3   OH238199   4.796   2.540   0.369  0.1170 -0.3236 -0.4757
 5547TIP3    H138200   4.767   2.471   0.310 -1.2547  0.6728 -1.0390
 5547TIP3    H238201   4.746   2.527   0.449 -1.6168  1.0764 -1.2559
 5548TIP3   OH238202   4.161   2.964   2.132  0.1358  0.3050 -0.5112
 5548TIP3    H138203   4.218   2.937   2.204 -0.3407  0.0010 -0.2418
 5548TIP3    H238204   4.192   3.052   2.108 -0.1539  0.7045  0.5382
 5549TIP3   OH238205   3.132   3.271   8.073  0.5324  0.3563  0.3263
 5549TIP3    H138206   3.158   3.180   8.084  0.8231  0.6736  2.7710
 5549TIP3    H238207   3.171   3.317   8.147 -0.4673  2.2814 -0.2622
 5550TIP3   OH238208   2.552   2.455   8.784 -0.1122  0.6199  0.3434
 5550TIP3    H138209   2.606   2.501   8.848  1.1560 -1.7771  1.1138
 5550TIP3    H238210   2.465   2.449   8.824 -0.5929  3.0829 -0.1986
 5551TIP3   OH238211   1.792   6.079   1.989 -0.0850 -0.2941  0.5245
 5551TIP3    H138212   1.749   6.032   2.061  0.7631 -1.6661  0.1719
 5551TIP3    H238213   1.863   6.127   2.031  0.2287 -0.8611  0.6595
 5552TIP3   OH238214   2.933   6.247   7.220 -0.0069  0.3816 -0.0404
 5552TIP3    H138215   3.017   6.227   7.260 -1.8993 -0.7251  3.8450
 5552TIP3    H238216   2.895   6.161   7.199  0.0482  0.8814 -2.4658
 5553TIP3   OH238217   1.283   4.819   8.854  0.1675 -0.2704  0.0378
 5553TIP3    H138218   1.336   4.896   8.874 -0.2765  0.0076  0.1688
 5553TIP3    H238219   1.341   4.761   8.804  1.1705 -0.7903  1.7474
 5554TIP3   OH238220   2.074   1.174   1.015 -0.4125 -0.1016 -0.7285
 5554TIP3    H138221   2.083   1.147   1.106 -0.8093  1.6174 -0.1389
 5554TIP3    H238222   2.001   1.121   0.982 -1.5205  0.5918  0.5264
 5555TIP3   OH238223   3.234   4.967   7.711 -0.3921 -0.5453  0.1864
 5555TIP3    H138224   3.270   4.903   7.651  0.5255  1.0313 -1.0031
 5555TIP3    H238225   3.139   4.958   7.702 -0.2641 -1.1008 -0.6340
 5556TIP3   OH238226   5.354   2.417   1.955 -0.6634 -0.2351  0.2046
 5556TIP3    H138227   5.392   2.446   1.871 -1.7477  0.8701  0.0632
 5556TIP3    H238228   5.410   2.344   1.982  0.0786 -0.2308 -1.1807
 5557TIP3   OH238229   2.008   3.762   7.892 -0.5376  0.6143  0.3657
 5557TIP3    H138230   1.939   3.740   7.830 -0.5402 -3.3083  1.4752
 5557TIP3    H238231   1.961   3.794   7.970 -0.8233  1.2955 -0.0781
 5558TIP3   OH238232   4.270   4.646   0.577 -0.9601 -0.3999  0.5328
 5558TIP3    H138233   4.318   4.681   0.652  1.5771  1.5300 -1.7959
 5558TIP3    H238234   4.279   4.551   0.585 -0.7981 -0.2557  2.6233
 5559TIP3   OH238235   4.541   2.701   7.555  0.3713 -0.2333  0.0594
 5559TIP3    H138236   4.620   2.647   7.551  0.1569 -0.6388  1.0454
 5559TIP3    H238237   4.482   2.653   7.612 -0.3036  0.4438 -0.0542
 5560TIP3   OH238238   0.050   2.120   2.335  0.9118 -0.0502 -0.1477
 5560TIP3    H138239   0.131   2.102   2.287 -0.6169 -1.6261 -2.3648
 5560TIP3    H238240   0.025   2.035   2.372 -0.9575 -0.2134 -1.6434
 5561TIP3   OH238241   3.825   5.007   0.075  0.2357 -0.1335  0.0237
 5561TIP3    H138242   3.832   5.065   0.151  0.0092  0.3208 -0.2912
 5561TIP3    H238243   3.914   4.975   0.061 -0.0219 -1.6627  1.5629
 5562TIP3   OH238244   0.618   6.511   7.646  0.1116  0.0112 -0.0846
 5562TIP3    H138245   0.680   6.527   7.575 -0.2227 -0.5174 -0.5011
 5562TIP3    H238246   0.594   6.599   7.676  0.9884  0.2231  0.0255
 5563TIP3   OH238247   1.339   4.726   7.211 -0.2996  0.0357 -0.0819
 5563TIP3    H138248   1.333   4.672   7.133  2.2257 -2.7246  1.4370
 5563TIP3    H238249   1.339   4.664   7.284 -1.1715  2.3943  2.1049
 5564TIP3   OH238250   1.623   0.823   8.901 -0.7373 -0.4368 -0.5064
 5564TIP3    H138251   1.609   0.800   8.993 -0.2456 -1.0313 -0.5740
 5564TIP3    H238252   1.692   0.763   8.871  0.1465  0.7334 -0.8651
 5565TIP3   OH238253   5.497   3.060   2.029 -0.4040  0.4507 -0.0269
 5565TIP3    H138254   5.586   3.092   2.014  0.0034 -1.3992 -1.9852
 5565TIP3    H238255   5.507   2.992   2.096 -0.6288  1.2931  0.8990
 5566TIP3   OH238256   4.755   1.731   0.280  0.3756 -0.1854 -0.1438
 5566TIP3    H138257   4.727   1.710   0.369 -0.8076  2.6295  0.2385
 5566TIP3    H238258   4.811   1.657   0.255 -0.5871 -1.8713  2.2723
 5567TIP3   OH238259   0.838   6.749   8.731 -0.4590  0.0093  0.4041
 5567TIP3    H138260   0.914   6.702   8.765 -2.0936 -1.7017  1.9102
 5567TIP3    H238261   0.833   6.827   8.787  0.3896  0.3454  0.0322
 5568TIP3   OH238262   5.995   0.899   1.638  0.5401  0.3524 -0.3431
 5568TIP3    H138263   5.935   0.898   1.563 -1.0861  1.9632  0.8361
 5568TIP3    H238264   6.029   0.988   1.641 -0.3901  0.6962  1.5042
 5569TIP3   OH238265   6.581   1.549   1.122  0.5172  0.7086 -0.3488
 5569TIP3    H138266   6.532   1.612   1.176  0.2294  1.4149 -1.4046
 5569TIP3    H238267   6.662   1.533   1.171  0.0539  0.9475  0.5272
 5570TIP3   OH238268   0.556   5.734   7.970  0.3444  0.1279 -0.1005
 5570TIP3    H138269   0.618   5.689   8.027 -1.2508 -0.5540  1.1919
 5570TIP3    H238270   0.534   5.669   7.903 -0.2272 -0.2292  0.4250
 5571TIP3   OH238271   0.638   4.934   0.620 -0.2143  0.1020 -0.6637
 5571TIP3    H138272   0.621   4.902   0.709 -1.2639 -0.2511 -0.9737
 5571TIP3    H238273   0.629   4.856   0.565 -0.7594  0.5385 -1.2024
 5572TIP3   OH238274   2.763   6.331   0.081  0.7534 -0.1904 -0.4436
 5572TIP3    H138275   2.677   6.331   0.040 -0.0390  0.2191  1.1524
 5572TIP3    H238276   2.748   6.364   0.170  2.4264 -0.8229  0.1223
 5573TIP3   OH238277   0.497   5.141   0.759 -0.5825  0.5101 -0.0917
 5573TIP3    H138278   0.558   5.142   0.833 -0.0149 -4.7782 -0.1014
 5573TIP3    H238279   0.553   5.148   0.682 -0.5814  0.6909 -0.0753
 5574TIP3   OH238280   3.253   0.581   8.309  0.2444  0.0944 -0.4690
 5574TIP3    H138281   3.230   0.643   8.378 -1.4770  0.5327 -1.3714
 5574TIP3    H238282   3.176   0.525   8.301  1.2441 -1.3119 -0.5995
 5575TIP3   OH238283   3.061   6.645   8.335  0.3726 -0.0499 -0.0957
 5575TIP3    H138284   3.093   6.705   8.403  0.4018 -0.1401 -0.0305
 5575TIP3    H238285   2.979   6.611   8.371  0.5735 -0.3797  0.0544
 5576TIP3   OH238286   2.695   0.436   0.482  0.0106  0.5895 -0.4446
 5576TIP3    H138287   2.634   0.507   0.504 -2.6009 -1.1951 -1.4001
 5576TIP3    H238288   2.694   0.379   0.559  1.1496  0.9498 -0.1501
 5577TIP3   OH238289   2.773   1.618   1.714 -0.7991 -0.2216 -0.7076
 5577TIP3    H138290   2.815   1.662   1.788 -1.9506 -0.5218  0.1521
 5577TIP3    H238291   2.692   1.667   1.699 -0.1279  0.4401 -2.4393
 5578TIP3   OH238292   2.214   6.452   8.689  0.4136  0.3192 -0.3176
 5578TIP3    H138293   2.305   6.462   8.661  0.2943 -0.6563 -1.1272
 5578TIP3    H238294   2.166   6.433   8.608 -0.6649  1.6827 -0.0271
 5579TIP3   OH238295   5.645   0.355   1.419 -0.4464  1.1939 -0.5161
 5579TIP3    H138296   5.632   0.261   1.434  2.1438  0.2489 -3.2969
 5579TIP3    H238297   5.642   0.394   1.507  0.2857 -1.7483  0.9296
 5580TIP3   OH238298   0.665   6.711   1.759  0.3381 -0.0676  0.0219
 5580TIP3    H138299   0.748   6.668   1.774  0.3526 -0.5136 -1.2329
 5580TIP3    H238300   0.638   6.743   1.845 -0.7799 -4.5052  1.5966
 5581TIP3   OH238301   3.267   0.005   7.904 -0.1293 -0.2399  0.0321
 5581TIP3    H138302   3.213   0.008   7.826 -0.6232 -0.5074  0.3624
 5581TIP3    H238303   3.347   0.053   7.880 -1.4817  2.2889  0.3105
 5582TIP3   OH238304   2.796   5.849   0.188 -0.2223 -0.0858  0.0674
 5582TIP3    H138305   2.759   5.784   0.248 -2.1209  1.2817  0.4634
 5582TIP3    H238306   2.746   5.840   0.108 -0.8380  1.1666  0.2836
 5583TIP3   OH238307   6.388   4.780   0.319  0.2893  0.3437 -0.0127
 5583TIP3    H138308   6.355   4.691   0.305  2.4197 -0.4173 -0.6515
 5583TIP3    H238309   6.439   4.799   0.240  2.7567  0.7189  1.5623
 5584TIP3   OH238310   4.224   3.333   8.908  0.3338  0.0318  0.1944
 5584TIP3    H138311   4.219   3.421   8.947  0.9185  0.3291 -0.3789
 5584TIP3    H238312   4.153   3.331   8.844 -1.3792 -0.8730  2.0471
 5585TIP3   OH238313   3.663   0.699   7.591  0.1203  0.0275 -0.1729
 5585TIP3    H138314   3.657   0.743   7.507  0.3700  0.8215  0.2181
 5585TIP3    H238315   3.689   0.609   7.570 -0.1519  0.1283 -0.9583
 5586TIP3   OH238316   5.761   5.314   0.830  0.2495  0.2197 -0.0270
 5586TIP3    H138317   5.813   5.246   0.874 -0.2132 -1.0748 -1.3906
 5586TIP3    H238318   5.671   5.284   0.840  0.0578  0.5107 -0.8396
 5587TIP3   OH238319   0.944   2.605   7.696  0.3707  0.0060 -0.9073
 5587TIP3    H138320   1.030   2.567   7.714  1.0364  0.9132 -1.9774
 5587TIP3    H238321   0.964   2.691   7.657 -1.0173  0.1037 -1.4647
 5588TIP3   OH238322   3.128   5.778   1.520 -0.2966  0.1647 -0.7891
 5588TIP3    H138323   3.040   5.739   1.522 -0.2894  0.1708  0.3087
 5588TIP3    H238324   3.186   5.704   1.503 -0.3528 -0.2066  0.5135
 5589TIP3   OH238325   5.576   5.309   2.060  0.4638  0.7157  0.1117
 5589TIP3    H138326   5.579   5.245   2.131  2.2968  2.6780  1.9510
 5589TIP3    H238327   5.665   5.312   2.026  0.1666  1.5582 -0.6562
 5590TIP3   OH238328   4.624   5.346   0.152  0.4167  0.3553 -0.0230
 5590TIP3    H138329   4.635   5.413   0.084  1.9160  0.0455 -0.1180
 5590TIP3    H238330   4.705   5.296   0.149 -1.4667 -2.9957 -1.5883
 5591TIP3   OH238331   2.327   0.760   8.393  0.1530  0.1865 -0.2331
 5591TIP3    H138332   2.332   0.720   8.480  1.1859  0.2555 -0.2393
 5591TIP3    H238333   2.302   0.688   8.335 -1.8327  0.4168  0.2711
 5592TIP3   OH238334   4.060   5.074   2.404 -0.1100  0.1920  0.0114
 5592TIP3    H138335   4.020   5.025   2.477  1.9257 -0.1198  0.9877
 5592TIP3    H238336   4.058   5.165   2.433  1.5052 -0.0254  0.9186
 5593TIP3   OH238337   1.622   4.715   8.204  0.1533  0.0508 -0.1261
 5593TIP3    H138338   1.556   4.645   8.200  0.6497 -0.4309 -0.0615
 5593TIP3    H238339   1.646   4.720   8.296  1.4335 -0.9618 -0.3725
 5594TIP3   OH238340   1.873   3.785   8.893 -0.0128  0.3720  0.2761
 5594TIP3    H138341   1.932   3.777   8.969  1.6128 -1.2334 -1.0720
 5594TIP3    H238342   1.824   3.703   8.891  0.5759  0.0263 -0.8647
 5595TIP3   OH238343   4.986   4.470   1.220 -0.6146  0.5313  0.4058
 5595TIP3    H138344   5.047   4.426   1.280 -1.0722 -0.9396 -0.1920
 5595TIP3    H238345   4.900   4.436   1.243 -1.2669  2.5835  1.2257
 5596TIP3   OH238346   1.125   1.594   8.653  0.3337  0.0690 -0.3050
 5596TIP3    H138347   1.110   1.636   8.568 -1.2952  0.4418  0.1311
 5596TIP3    H238348   1.107   1.502   8.638  0.1967  0.1118 -0.4040
 5597TIP3   OH238349   3.241   1.830   0.434  0.5647  0.4331  0.1340
 5597TIP3    H138350   3.205   1.797   0.517  1.5899 -0.1467  0.3739
 5597TIP3    H238351   3.295   1.905   0.460  0.6748  0.4145 -0.0436
 5598TIP3   OH238352   0.871   4.551   0.935 -0.5616 -0.2807  0.6316
 5598TIP3    H138353   0.947   4.590   0.977 -0.8792  0.9408  0.0962
 5598TIP3    H238354   0.803   4.551   1.003 -0.2829 -0.8199  0.9233
 5599TIP3   OH238355   1.185   0.383   2.512  0.7702 -0.0606 -0.1885
 5599TIP3    H138356   1.169   0.289   2.503  1.3074 -0.0454 -1.5335
 5599TIP3    H238357   1.263   0.389   2.566  0.6508 -0.3791  0.0232
 5600TIP3   OH238358   0.166   1.137   1.127 -0.0399 -0.1611  0.5366
 5600TIP3    H138359   0.124   1.166   1.046  0.0475  1.8213  1.1624
 5600TIP3    H238360   0.113   1.174   1.197  0.0007 -1.6885  1.4310
 5601TIP3   OH238361   2.042   0.254   2.422  0.6593  0.1002  0.7846
 5601TIP3    H138362   2.079   0.168   2.443 -1.8862 -2.2695 -3.2429
 5601TIP3    H238363   2.075   0.274   2.335 -0.1714  2.4379  0.9454
 5602TIP3   OH238364   2.399   1.573   0.850 -0.3163  0.0284  0.2790
 5602TIP3    H138365   2.421   1.610   0.935 -1.1607  1.1606  0.0285
 5602TIP3    H238366   2.327   1.513   0.867 -1.0405  0.8752  0.2682
 5603TIP3   OH238367   4.057   1.897   7.783 -0.2711 -0.2014  0.2345
 5603TIP3    H138368   3.978   1.849   7.808 -0.3154  0.1146  0.7232
 5603TIP3    H238369   4.041   1.927   7.694 -1.1163  0.6916  0.6654
 5604TIP3   OH238370   0.627   2.811   8.489 -0.0431  0.1673 -0.2088
 5604TIP3    H138371   0.574   2.889   8.474  0.3459  0.5606  0.4111
 5604TIP3    H238372   0.638   2.808   8.584 -1.1332 -1.3624 -0.0975
 5605TIP3   OH238373   3.406   3.574   2.148  0.4153  0.0377 -0.0740
 5605TIP3    H138374   3.391   3.571   2.242  2.2183 -0.8103  0.2215
 5605TIP3    H238375   3.393   3.484   2.118  0.5290  0.1689 -0.5306
 5606TIP3   OH238376   3.322   5.628   8.947 -0.4933  0.1985 -0.0068
 5606TIP3    H138377   3.274   5.575   8.883 -0.4595 -0.4494  0.4919
 5606TIP3    H238378   3.401   5.577   8.965 -0.7248  0.1316  0.8963
 5607TIP3   OH238379   2.052   4.121   7.863  0.2452  0.1294  0.2276
 5607TIP3    H138380   2.101   4.101   7.783 -0.0397  1.0016 -0.1831
 5607TIP3    H238381   2.117   4.113   7.933  0.9395  1.0052 -0.2779
 5608TIP3   OH238382   6.114   6.358   7.470 -0.2985 -0.1621 -0.2301
 5608TIP3    H138383   6.072   6.358   7.555 -1.0386 -1.8139 -0.5531
 5608TIP3    H238384   6.050   6.400   7.411  0.3845  1.3602  0.0712
 5609TIP3   OH238385   4.887   0.600   0.443  0.6057 -0.0344 -0.0147
 5609TIP3    H138386   4.887   0.593   0.348  1.1709  0.1550 -0.0304
 5609TIP3    H238387   4.799   0.572   0.469  0.3200  0.2890 -0.6162
 5610TIP3   OH238388   2.237   5.229   1.844  0.1534 -0.1120 -0.0671
 5610TIP3    H138389   2.252   5.184   1.926 -0.2116  2.8508  1.8007
 5610TIP3    H238390   2.321   5.268   1.821  0.5371 -1.7860 -1.7845
 5611TIP3   OH238391   3.368   2.617   7.871  0.1170 -0.8182  0.0749
 5611TIP3    H138392   3.313   2.680   7.824  0.6554  0.1661  0.7283
 5611TIP3    H238393   3.455   2.629   7.833  0.2620 -1.0216  0.3393
 5612TIP3   OH238394   0.272   6.521   8.354 -0.5212  0.1613 -0.1669
 5612TIP3    H138395   0.355   6.475   8.367 -0.4633  0.7266  1.6411
 5612TIP3    H238396   0.220   6.461   8.301  0.6283 -0.6782 -0.3961
 5613TIP3   OH238397   4.713   5.042   7.267  0.3302 -0.2344 -0.0052
 5613TIP3    H138398   4.791   5.009   7.222  0.5527  0.9861 -0.5659
 5613TIP3    H238399   4.707   5.134   7.239  0.2748  0.4814  2.1745
 5614TIP3   OH238400   6.537   3.311   2.293 -0.7064  0.0593  0.1325
 5614TIP3    H138401   6.539   3.321   2.388  0.4411 -0.3116  0.1638
 5614TIP3    H238402   6.459   3.360   2.266 -1.0259  0.2096  1.2495
 5615TIP3   OH238403   4.464   0.448   7.640  0.1873 -0.3007 -0.1639
 5615TIP3    H138404   4.556   0.449   7.663  0.7719  0.4479 -2.2670
 5615TIP3    H238405   4.441   0.355   7.634  0.4158 -0.4993  1.6576
 5616TIP3   OH238406   2.869   1.978   0.321 -0.2220 -0.2679 -0.2755
 5616TIP3    H138407   2.805   1.910   0.343  0.8294 -1.5586 -0.9877
 5616TIP3    H238408   2.938   1.930   0.275  1.0473  1.1348  0.1000
 5617TIP3   OH238409   5.472   4.707   0.925 -1.0720 -0.1956 -0.2366
 5617TIP3    H138410   5.453   4.674   0.837  0.4377 -0.2951 -0.5472
 5617TIP3    H238411   5.535   4.644   0.961 -1.9434 -0.3690  1.0794
 5618TIP3   OH238412   1.871   6.402   8.216 -0.6992  0.0356 -0.1957
 5618TIP3    H138413   1.824   6.484   8.200  0.3218  0.6228 -0.2450
 5618TIP3    H238414   1.926   6.390   8.138  1.8673  1.2267  1.2840
 5619TIP3   OH238415   3.931   4.493   8.040 -0.4776 -0.2400 -0.0614
 5619TIP3    H138416   3.913   4.444   7.960 -1.3664  2.6443 -1.7682
 5619TIP3    H238417   4.017   4.462   8.069 -0.4051 -1.7804 -1.7775
 5620TIP3   OH238418   3.745   1.610   8.238  0.0711  0.3060 -0.8555
 5620TIP3    H138419   3.716   1.529   8.278 -0.6773  0.3009 -1.3850
 5620TIP3    H238420   3.684   1.677   8.272  0.7892  0.6849 -0.2816
 5621TIP3   OH238421   6.715   1.657   0.300  0.0878  0.3691 -0.1848
 5621TIP3    H138422   6.687   1.725   0.361 -0.0523  0.6652 -0.5757
 5621TIP3    H238423   6.807   1.677   0.282  0.1031  0.3353 -0.1452
 5622TIP3   OH238424   4.749   4.755   7.425 -0.6603  0.3861  0.3158
 5622TIP3    H138425   4.760   4.752   7.330  0.5625 -0.5101  0.4678
 5622TIP3    H238426   4.778   4.669   7.456 -2.1949  0.1974  1.4047
 5623TIP3   OH238427   3.762   2.272   0.717  0.0575 -0.4089 -0.6378
 5623TIP3    H138428   3.851   2.250   0.690  0.6638  1.1741 -0.0720
 5623TIP3    H238429   3.760   2.368   0.716 -1.5079 -0.4104 -0.2196
 5624TIP3   OH238430   6.648   1.722   1.929  0.4972  0.9622 -0.3184
 5624TIP3    H138431   6.583   1.769   1.876  0.2629  1.1565  0.1417
 5624TIP3    H238432   6.674   1.784   1.997 -0.1524  0.2857  0.5720
 5625TIP3   OH238433   0.386   2.082   2.972  0.2724 -0.3196  0.0199
 5625TIP3    H138434   0.347   2.033   2.900  0.1938 -0.2726  0.0312
 5625TIP3    H238435   0.452   2.022   3.009 -0.4750 -0.7835  0.6389
 5626TIP3   OH238436   6.563   3.832   8.114 -0.2463  0.0243  0.1654
 5626TIP3    H138437   6.583   3.888   8.188  2.4023  0.3635 -0.7033
 5626TIP3    H238438   6.491   3.876   8.069  1.4994  2.6500 -0.2933
 5627TIP3   OH238439   0.808   5.499   0.764 -0.0626 -0.1902  0.2497
 5627TIP3    H138440   0.900   5.509   0.742 -0.1589  0.6423  0.1728
 5627TIP3    H238441   0.792   5.405   0.764  0.3617 -0.2777 -1.4857
 5628TIP3   OH238442   5.991   6.111   7.429  0.2199 -0.1377 -0.1102
 5628TIP3    H138443   6.062   6.174   7.439  1.3127 -1.5996  2.3721
 5628TIP3    H238444   5.913   6.164   7.416  1.4747  1.5872 -0.9376
 5629TIP3   OH238445   0.787   0.668   8.030  0.7836  0.0197 -0.1827
 5629TIP3    H138446   0.745   0.679   8.115  2.5188 -0.3778  0.7595
 5629TIP3    H238447   0.802   0.757   7.999  2.1692  0.2212  0.9876
 5630TIP3   OH238448   6.074   2.376   8.148  0.5184 -0.4113  0.3623
 5630TIP3    H138449   5.991   2.406   8.185  0.0204 -2.0400  0.6142
 5630TIP3    H238450   6.098   2.445   8.085 -0.3613  0.6965  1.1937
 5631TIP3   OH238451   5.394   0.486   7.601 -0.3924  0.2167  0.6342
 5631TIP3    H138452   5.381   0.478   7.695  1.9720  1.2550  1.1418
 5631TIP3    H238453   5.360   0.573   7.579 -2.0979 -0.5145  0.2365
 5632TIP3   OH238454   1.752   5.072   8.800  0.3247 -0.7155  0.3843
 5632TIP3    H138455   1.667   5.096   8.763  0.4447 -0.8670  0.0065
 5632TIP3    H238456   1.815   5.123   8.750  0.6059 -2.0179 -0.6288
 5633TIP3   OH238457   2.664   3.488   0.782 -0.1448 -0.2043  0.1463
 5633TIP3    H138458   2.629   3.570   0.817 -1.1301 -0.7582  0.4727
 5633TIP3    H238459   2.630   3.483   0.693  0.5046  0.0799 -0.1282
 5634TIP3   OH238460   5.881   5.774   2.590 -0.4700  0.0382  0.0530
 5634TIP3    H138461   5.894   5.757   2.683 -1.8976 -0.5646  0.1629
 5634TIP3    H238462   5.947   5.840   2.568  0.4693 -0.4777  1.2735
 5635TIP3   OH238463   3.783   1.514   2.374  0.3796 -0.6707  0.0685
 5635TIP3    H138464   3.756   1.493   2.463 -1.5894 -0.4557 -0.4344
 5635TIP3    H238465   3.785   1.610   2.372 -1.3078 -0.6169 -0.5523
 5636TIP3   OH238466   5.673   0.329   2.412 -0.0512  0.2757  0.2211
 5636TIP3    H138467   5.733   0.261   2.444  1.2682  1.7327  1.0185
 5636TIP3    H238468   5.641   0.296   2.328  0.9302 -1.0974  0.3543
 5637TIP3   OH238469   5.151   2.364   7.218 -0.4030  0.6228 -0.2503
 5637TIP3    H138470   5.088   2.402   7.279 -0.6606 -1.0495  0.5922
 5637TIP3    H238471   5.128   2.270   7.216  1.7769  0.0433 -0.2184
 5638TIP3   OH238472   3.628   3.450   8.769  0.0361  0.1662  0.7362
 5638TIP3    H138473   3.616   3.355   8.771  0.8353  0.0522  2.8210
 5638TIP3    H238474   3.709   3.463   8.721 -0.9427 -0.0396 -1.0667
 5639TIP3   OH238475   0.496   6.332   1.841  0.3690  0.0660 -0.4504
 5639TIP3    H138476   0.449   6.281   1.775  0.1714 -1.5934  0.9048
 5639TIP3    H238477   0.589   6.314   1.824  0.2886 -1.2203  0.3231
 5640TIP3   OH238478   1.323   5.093   2.300 -0.1805  0.2075 -0.2212
 5640TIP3    H138479   1.295   5.060   2.386  0.8166  0.7666  0.3343
 5640TIP3    H238480   1.294   5.184   2.299  0.4275  0.4056 -0.1848
 5641TIP3   OH238481   0.019   0.509   2.170 -0.2198 -0.3197  0.3965
 5641TIP3    H138482   0.045   0.577   2.231 -0.4290 -0.6940  0.9077
 5641TIP3    H238483  -0.063   0.475   2.204 -0.6366 -0.1547 -0.4016
 5642TIP3   OH238484   2.013   5.146   0.921 -0.1331  0.4980  0.6992
 5642TIP3    H138485   2.073   5.082   0.960 -0.5914  0.1194  0.8018
 5642TIP3    H238486   1.926   5.120   0.954 -0.3757  0.9115  0.3921
 5643TIP3   OH238487   6.378   5.515   6.790 -0.4365 -0.0196 -0.1403
 5643TIP3    H138488   6.337   5.518   6.703  0.4562  0.1694 -0.5609
 5643TIP3    H238489   6.305   5.502   6.850 -1.3298  2.0158 -0.7082
 5644TIP3   OH238490   1.476   1.210   0.165  0.1168 -0.4445  0.2110
 5644TIP3    H138491   1.411   1.158   0.212 -0.9854  0.8824  0.1998
 5644TIP3    H238492   1.534   1.243   0.233  0.3151 -0.9571  0.3007
 5645TIP3   OH238493   6.429   6.275   7.626 -0.2991 -0.0987 -0.2034
 5645TIP3    H138494   6.350   6.311   7.665 -0.0520  0.7257 -0.4555
 5645TIP3    H238495   6.403   6.189   7.593 -1.0693  0.1480 -0.2366
 5646TIP3   OH238496   6.737   0.272   0.015  0.0281  0.3548 -0.4883
 5646TIP3    H138497   6.661   0.249  -0.039 -2.4465  1.6066  2.1573
 5646TIP3    H238498   6.753   0.194   0.068 -1.0520  0.8547  0.6257
 5647TIP3   OH238499   3.424   6.530   1.745  0.4830 -0.2170  0.0423
 5647TIP3    H138500   3.509   6.512   1.704  0.5613  1.4803 -0.6227
 5647TIP3    H238501   3.446   6.555   1.835  0.5463 -1.2028  0.3127
 5648TIP3   OH238502   4.165   0.689   1.465 -0.3416 -0.2047  0.4908
 5648TIP3    H138503   4.180   0.764   1.406 -0.5771 -0.2997  0.3096
 5648TIP3    H238504   4.075   0.700   1.495  0.0567  0.3438  1.5566
 5649TIP3   OH238505   0.519   1.675   3.057  0.3188 -0.2365 -0.1472
 5649TIP3    H138506   0.525   1.770   3.072 -0.7533 -0.1873  0.0492
 5649TIP3    H238507   0.600   1.640   3.094  1.7436  0.8104 -2.1375
 5650TIP3   OH238508   4.951   5.834   2.712  0.3069  0.4645 -0.2926
 5650TIP3    H138509   5.040   5.863   2.731 -0.0147  1.2853  0.0066
 5650TIP3    H238510   4.944   5.840   2.617  0.6475  0.1594 -0.3392
 5651TIP3   OH238511   4.936   3.349   7.519  0.0981 -0.0995  0.3045
 5651TIP3    H138512   4.950   3.388   7.433 -0.8626 -2.3511 -0.9675
 5651TIP3    H238513   4.843   3.325   7.520  0.6986 -2.7476  0.7274
 5652TIP3   OH238514   3.394   4.352   8.509  0.0723 -0.2729  0.0179
 5652TIP3    H138515   3.432   4.430   8.550 -0.8869  0.6544 -0.7984
 5652TIP3    H238516   3.308   4.380   8.478 -0.5605 -1.8346  0.2508
 5653TIP3   OH238517   3.083   2.190   8.405  0.0950  0.0136  0.2977
 5653TIP3    H138518   3.047   2.253   8.467 -1.1048  0.5058 -0.8483
 5653TIP3    H238519   3.177   2.187   8.424 -0.4512 -1.3193  3.4131
 5654TIP3   OH238520   3.739   5.035   7.891 -0.2293  0.3239  0.0695
 5654TIP3    H138521   3.655   4.993   7.875  0.2156 -1.1103  1.3247
 5654TIP3    H238522   3.786   5.027   7.808 -1.3318  1.2415 -0.6831
 5655TIP3   OH238523   6.362   0.217   2.487 -0.5967  0.6101  0.0179
 5655TIP3    H138524   6.401   0.292   2.531 -1.1163  0.6805  0.3660
 5655TIP3    H238525   6.268   0.235   2.487 -0.5700  0.8562 -1.5857
 5656TIP3   OH238526   4.386   4.710   1.601  0.0426 -0.1262 -0.3855
 5656TIP3    H138527   4.301   4.751   1.614 -0.4531 -1.4045  0.6427
 5656TIP3    H238528   4.418   4.745   1.517 -0.1748  2.5559  0.5553
 5657TIP3   OH238529   6.311   0.023   2.291  0.1275  0.1504  0.1774
 5657TIP3    H138530   6.309   0.083   2.365  0.8439  0.0338  0.2995
 5657TIP3    H238531   6.404   0.011   2.272 -0.0488  0.5380 -1.0401
 5658TIP3   OH238532   0.848   1.941   8.066 -0.1674  0.2318  0.0074
 5658TIP3    H138533   0.830   1.886   8.142 -0.9248  0.5529  0.0684
 5658TIP3    H238534   0.897   2.015   8.102  0.8350 -0.3737 -0.0713
 5659TIP3   OH238535   2.474   5.333   1.868  0.7514 -0.1059  0.7251
 5659TIP3    H138536   2.491   5.385   1.946 -0.6246  1.6294 -0.0194
 5659TIP3    H238537   2.529   5.373   1.800  0.5403 -0.3534  0.4035
 5660TIP3   OH238538   1.365   2.348   2.566  0.2888  0.2295 -0.0578
 5660TIP3    H138539   1.273   2.334   2.590  0.2825  0.2318 -0.0809
 5660TIP3    H238540   1.361   2.389   2.480  0.3398 -0.5159 -0.4154
 5661TIP3   OH238541   6.588   0.018   7.640  0.1024  0.3495 -0.4381
 5661TIP3    H138542   6.585   0.080   7.713  0.3017 -0.9063  0.6760
 5661TIP3    H238543   6.616   0.071   7.565 -3.4059  2.4870 -0.5017
 5662TIP3   OH238544   2.804   2.379   1.277 -0.1363  0.6179 -0.0806
 5662TIP3    H138545   2.883   2.330   1.256  0.2385  1.0593  0.2704
 5662TIP3    H238546   2.798   2.447   1.210 -0.1454  0.6624 -0.0352
 5663TIP3   OH238547   1.168   0.238   8.379 -0.6849  0.0206 -0.5009
 5663TIP3    H138548   1.250   0.240   8.330 -0.3789  1.2904  0.0182
 5663TIP3    H238549   1.181   0.169   8.444 -0.6851 -0.9363 -1.4798
 5664TIP3   OH238550   2.687   0.210   1.873  0.0174 -0.8480 -0.2865
 5664TIP3    H138551   2.758   0.215   1.810 -0.0556  1.2711 -0.2564
 5664TIP3    H238552   2.727   0.235   1.957 -0.5725 -0.4867 -0.1078
 5665TIP3   OH238553   5.607   3.132   7.679  0.5436  0.0620  0.0184
 5665TIP3    H138554   5.532   3.134   7.619  0.0678 -0.2152  0.5869
 5665TIP3    H238555   5.676   3.178   7.632  0.2416 -0.3014 -0.8172
 5666TIP3   OH238556   0.042   2.568   0.298  0.8068  0.4381 -0.1709
 5666TIP3    H138557  -0.004   2.494   0.258  0.8198  0.4807 -0.2654
 5666TIP3    H238558   0.130   2.564   0.262  1.1058 -0.0811  0.5729
 5667TIP3   OH238559   1.809   6.754   0.851 -0.4993  0.1520 -0.9542
 5667TIP3    H138560   1.730   6.713   0.887 -0.2318  0.0358 -0.4807
 5667TIP3    H238561   1.878   6.729   0.913 -0.7298  3.3054  0.8068
 5668TIP3   OH238562   3.075   5.712   0.726 -0.3955 -0.0123 -0.1234
 5668TIP3    H138563   3.111   5.797   0.700  0.2690  0.9947  3.5876
 5668TIP3    H238564   3.150   5.660   0.753 -1.1404  0.2646  2.7974
 5669TIP3   OH238565   3.433   4.255   7.673 -0.2218  0.1105  0.2696
 5669TIP3    H138566   3.415   4.348   7.658 -1.3276 -0.0871  0.2880
 5669TIP3    H238567   3.357   4.210   7.636  1.1062 -0.9034 -1.3482
 5670TIP3   OH238568   5.819   0.148   1.719 -0.4568  0.4324  0.1209
 5670TIP3    H138569   5.889   0.115   1.662 -0.5074  0.8131 -0.1661
 5670TIP3    H238570   5.739   0.127   1.671 -0.4580  1.7765 -0.5037
 5671TIP3   OH238571   6.010   2.402   0.059  0.4259  0.1911 -0.2486
 5671TIP3    H138572   6.055   2.326   0.096  0.1771 -0.6838 -1.6585
 5671TIP3    H238573   6.073   2.474   0.068  1.1713 -0.4725 -0.0578
 5672TIP3   OH238574   3.257   1.157   0.041 -0.7813  0.0480  0.1346
 5672TIP3    H138575   3.260   1.228   0.106  1.3140 -0.5857  0.8112
 5672TIP3    H238576   3.235   1.079   0.092  0.4204 -0.3756  0.0342
 5673TIP3   OH238577   2.503   0.204   8.360 -0.5396 -0.1092 -0.0143
 5673TIP3    H138578   2.575   0.230   8.302  0.0092 -1.0585  0.2263
 5673TIP3    H238579   2.449   0.146   8.306 -0.3800 -0.4783  0.2179
 5674TIP3   OH238580   4.808   6.630   0.341  0.2943 -0.6151 -0.5509
 5674TIP3    H138581   4.754   6.657   0.415 -0.4997  0.5443 -1.5116
 5674TIP3    H238582   4.841   6.544   0.365  1.6854  0.5095  2.0093
 5675TIP3   OH238583   1.888   6.600   0.294 -0.3829  0.4831  0.2203
 5675TIP3    H138584   1.938   6.621   0.373 -0.1427  1.5195 -0.1916
 5675TIP3    H238585   1.901   6.507   0.281 -1.3224  0.0452  2.0320
 5676TIP3   OH238586   2.993   0.821   1.734 -0.7808  0.1624 -0.5983
 5676TIP3    H138587   2.924   0.766   1.698  0.3649 -1.8545  0.1020
 5676TIP3    H238588   2.961   0.847   1.820 -0.7760 -0.5743 -0.3679
 5677TIP3   OH238589   6.435   6.463   1.779 -0.3444  0.7249 -0.0408
 5677TIP3    H138590   6.433   6.468   1.874 -0.8938  1.3272 -0.0728
 5677TIP3    H238591   6.342   6.463   1.753 -0.2171 -0.1146 -0.5481
 5678TIP3   OH238592   1.318   3.985   2.426 -0.6487 -0.0709 -0.0580
 5678TIP3    H138593   1.385   4.032   2.477 -1.5204  0.7146  0.3981
 5678TIP3    H238594   1.286   4.051   2.364 -0.2700 -0.7512 -1.0023
 5679TIP3   OH238595   4.140   3.357   1.091  0.6844 -0.5919 -0.1131
 5679TIP3    H138596   4.183   3.291   1.037  2.2540  1.1341 -1.1018
 5679TIP3    H238597   4.191   3.437   1.076  0.5341  0.2589  3.0663
 5680TIP3   OH238598   4.718   5.788   2.180  0.2002  0.0438  0.2162
 5680TIP3    H138599   4.673   5.806   2.262  1.5624  1.0874  0.7823
 5680TIP3    H238600   4.695   5.862   2.124 -1.0545 -0.8700 -0.5221
 5681TIP3   OH238601   5.413   2.241   7.308 -0.5191 -0.4614  0.0407
 5681TIP3    H138602   5.457   2.292   7.239 -0.0438  0.7152  1.1729
 5681TIP3    H238603   5.338   2.295   7.333  0.2540 -0.0498  1.5910
 5682TIP3   OH238604   0.309   3.493   7.727  0.1825  0.1861  0.0682
 5682TIP3    H138605   0.360   3.481   7.807 -0.0027 -1.6044 -0.0358
 5682TIP3    H238606   0.374   3.495   7.657  0.2174 -1.3874  0.0053
 5683TIP3   OH238607   5.653   4.009   7.395 -0.1589 -0.2388  0.3597
 5683TIP3    H138608   5.737   4.019   7.351  0.3099 -1.6159  0.8980
 5683TIP3    H238609   5.617   4.097   7.397  1.3197  0.4010  0.2178
 5684TIP3   OH238610   0.624   3.123   0.521 -0.2583 -0.1309 -0.3517
 5684TIP3    H138611   0.645   3.158   0.435  1.7821  0.0285  0.1393
 5684TIP3    H238612   0.636   3.197   0.581  3.0577 -1.2103  0.5682
 5685TIP3   OH238613   1.240   0.098   2.515 -0.2717  0.1843  0.4727
 5685TIP3    H138614   1.283   0.131   2.594 -0.4894 -0.2089  0.7636
 5685TIP3    H238615   1.169   0.042   2.549 -0.3155 -0.0502 -0.0025
 5686TIP3   OH238616   4.235   5.382   0.022  0.7979 -0.0938 -0.0148
 5686TIP3    H138617   4.286   5.433  -0.041 -0.0794 -1.6381 -2.1284
 5686TIP3    H238618   4.146   5.385  -0.012 -0.1648  0.7615  2.4064
 5687TIP3   OH238619   2.729   5.983   1.735 -0.1946  0.2477 -0.1694
 5687TIP3    H138620   2.688   5.933   1.664  1.5567 -0.1530 -0.9349
 5687TIP3    H238621   2.676   6.063   1.741 -0.8350 -0.0528 -1.4085
 5688TIP3   OH238622   2.706   2.367   0.494  0.0688 -0.0434  0.6312
 5688TIP3    H138623   2.769   2.298   0.473  0.4416 -0.5003  2.9637
 5688TIP3    H238624   2.686   2.408   0.410  0.0333 -2.8038 -0.8163
 5689TIP3   OH238625   0.826   4.272   1.543  0.5502 -0.5470 -0.0521
 5689TIP3    H138626   0.888   4.219   1.594 -0.2350 -1.1293  0.3209
 5689TIP3    H238627   0.747   4.218   1.539 -0.4854  0.8625  0.8483
 5690TIP3   OH238628   6.520   3.822   8.765 -0.5013  0.6974  0.1392
 5690TIP3    H138629   6.478   3.752   8.815  0.4688 -0.8197 -1.0744
 5690TIP3    H238630   6.469   3.829   8.685 -0.3060  1.0539  0.0442
 5691TIP3   OH238631   3.095   4.093   8.357  0.1432  0.2667  0.1728
 5691TIP3    H138632   3.044   4.067   8.434  0.2636  0.7299  0.4077
 5691TIP3    H238633   3.186   4.084   8.384  0.2241 -1.2178 -0.4601
 5692TIP3   OH238634   5.765   4.022   2.364  0.7219 -0.4097  0.0691
 5692TIP3    H138635   5.763   3.967   2.286  1.9005  0.3435 -0.5147
 5692TIP3    H238636   5.719   4.102   2.339  0.2277 -0.5647  0.4700
 5693TIP3   OH238637   0.617   3.371   8.749 -0.1735  0.3684 -0.4621
 5693TIP3    H138638   0.535   3.418   8.738 -0.1805  0.2385 -1.0029
 5693TIP3    H238639   0.684   3.435   8.725 -0.1907  0.0683 -1.3473
 5694TIP3   OH238640   1.695   4.031   1.528 -0.5711 -0.4458  0.4918
 5694TIP3    H138641   1.622   4.037   1.589 -0.3128  0.7518  0.7074
 5694TIP3    H238642   1.773   4.035   1.583 -0.3248 -1.4684  0.2432
 5695TIP3   OH238643   3.364   2.325   1.796  0.0035 -0.2876 -0.1877
 5695TIP3    H138644   3.439   2.380   1.771 -0.8301  0.5729 -0.8991
 5695TIP3    H238645   3.341   2.354   1.884 -2.3487  2.8742 -1.6061
 5696TIP3   OH238646   1.605   5.441   7.503  0.9712 -0.8915  0.4210
 5696TIP3    H138647   1.516   5.406   7.503  0.3005  0.7145 -0.0600
 5696TIP3    H238648   1.653   5.388   7.439 -0.2788 -0.2614 -1.0742
 5697TIP3   OH238649   5.526   3.952   7.697 -0.2164  0.5957  0.0138
 5697TIP3    H138650   5.524   4.047   7.691  0.3535  0.5540 -1.0187
 5697TIP3    H238651   5.485   3.921   7.617  0.8766 -0.0131 -0.3411
 5698TIP3   OH238652   3.686   5.789   8.401 -0.2171 -0.3973 -0.8005
 5698TIP3    H138653   3.675   5.788   8.496  1.9809  0.4487 -0.4633
 5698TIP3    H238654   3.657   5.877   8.374  0.7091 -0.0315 -0.6462
 5699TIP3   OH238655   0.344   0.096   1.240  0.9258 -0.0213  0.0260
 5699TIP3    H138656   0.377   0.008   1.257  0.4583 -0.2965 -0.4448
 5699TIP3    H238657   0.300   0.121   1.322 -1.1919 -1.2810 -0.6261
 5700TIP3   OH238658   4.373   1.022   1.414 -0.1545 -0.1838  0.3108
 5700TIP3    H138659   4.306   1.030   1.482 -0.4519  0.5864 -0.0615
 5700TIP3    H238660   4.455   1.013   1.462 -0.2727  1.1212  0.7809
 5701TIP3   OH238661   0.549   1.870   7.360 -0.1786  0.6410 -0.2941
 5701TIP3    H138662   0.645   1.862   7.354 -0.2571 -0.0281 -0.7535
 5701TIP3    H238663   0.518   1.780   7.361 -0.8175  0.8613 -0.3014
 5702TIP3   OH238664   6.110   1.250   7.956  0.1836 -0.3607  0.0240
 5702TIP3    H138665   6.114   1.256   8.052 -0.6219  0.0824  0.0364
 5702TIP3    H238666   6.039   1.188   7.939  0.7322 -0.9130 -0.2836
 5703TIP3   OH238667   1.083   0.467   8.140 -0.3637  0.0836  0.6133
 5703TIP3    H138668   1.045   0.398   8.085 -0.0583  1.9926 -2.1964
 5703TIP3    H238669   1.015   0.534   8.146  0.7241  1.2974 -0.1714
 5704TIP3   OH238670   4.550   2.997   0.543  0.1968 -0.1059 -0.2347
 5704TIP3    H138671   4.466   3.003   0.589 -0.0201 -2.2603 -0.2147
 5704TIP3    H238672   4.527   2.964   0.456  0.9476  0.2035 -0.5538
 5705TIP3   OH238673   4.099   6.061   2.522 -0.1418  0.2282 -0.0198
 5705TIP3    H138674   4.101   6.099   2.610 -0.6574 -1.2010  0.6519
 5705TIP3    H238675   4.046   5.982   2.532 -2.0811  1.1635 -2.1185
 5706TIP3   OH238676   5.213   6.184   2.355 -0.8538  0.0780 -0.0873
 5706TIP3    H138677   5.195   6.096   2.387 -2.4173  0.0522 -0.9586
 5706TIP3    H238678   5.308   6.187   2.347 -0.6649 -1.0262  1.3143
 5707TIP3   OH238679   2.858   2.686   8.512 -0.3236 -0.3341  0.5539
 5707TIP3    H138680   2.940   2.638   8.505 -0.1319  0.2158 -1.8721
 5707TIP3    H238681   2.791   2.625   8.480 -0.5627 -0.0814  0.5635
 5708TIP3   OH238682   3.224   5.920   0.571  0.1977  0.1138  0.5397
 5708TIP3    H138683   3.156   5.890   0.511  0.1042 -0.6063  0.9905
 5708TIP3    H238684   3.306   5.887   0.533 -0.0285 -2.0804  1.7946
 5709TIP3   OH238685   2.796   6.727   1.420 -0.2377  0.1632  0.3629
 5709TIP3    H138686   2.708   6.749   1.452 -0.1007 -0.4560  1.1945
 5709TIP3    H238687   2.788   6.637   1.389  0.2348 -0.0945  0.9734
 5710TIP3   OH238688   2.203   3.656   7.404  0.0803  0.2657 -0.1114
 5710TIP3    H138689   2.139   3.684   7.338  0.6838  0.0525 -0.8011
 5710TIP3    H238690   2.157   3.664   7.487 -2.2323 -3.4977 -0.7866
 5711TIP3   OH238691   6.484   0.508   0.035  0.2388 -0.3525  0.1939
 5711TIP3    H138692   6.494   0.418   0.004  0.9472 -0.3682  0.4631
 5711TIP3    H238693   6.430   0.550  -0.032  0.1847 -0.8876 -0.1043
 5712TIP3   OH238694   4.116   4.000   1.337  0.6888 -0.0311  0.7900
 5712TIP3    H138695   4.153   3.962   1.417  0.9157  0.5631  0.9795
 5712TIP3    H238696   4.192   4.038   1.293  0.9739 -2.3613 -0.8989
 5713TIP3   OH238697   4.142   4.182   0.348  0.2904 -0.1021 -0.0510
 5713TIP3    H138698   4.229   4.142   0.345  0.3154 -0.1886  1.2237
 5713TIP3    H238699   4.081   4.109   0.347  0.2602 -0.0759 -0.1257
 5714TIP3   OH238700   4.885   6.634   8.118  0.4777  0.1603  0.0078
 5714TIP3    H138701   4.933   6.697   8.064  0.3564  0.5562  0.3513
 5714TIP3    H238702   4.803   6.679   8.139  1.1106  0.6317  1.7325
 5715TIP3   OH238703   0.749   0.634   2.240  0.2643 -0.1368  0.5434
 5715TIP3    H138704   0.840   0.663   2.233 -0.2024  1.1952 -0.4671
 5715TIP3    H238705   0.753   0.558   2.298  1.7854  0.9511  1.9891
 5716TIP3   OH238706   1.394   1.923   8.404  0.2152 -0.2286  0.0278
 5716TIP3    H138707   1.381   1.829   8.388  1.1334 -0.4488  0.5142
 5716TIP3    H238708   1.397   1.931   8.499 -1.9816  0.6173  0.0830
 5717TIP3   OH238709   1.137   5.316   1.326 -0.3983  0.0156 -0.2080
 5717TIP3    H138710   1.142   5.371   1.248 -0.8919 -0.9981 -0.9669
 5717TIP3    H238711   1.075   5.247   1.303  2.8890 -3.0431 -0.6463
 5718TIP3   OH238712   5.660   3.594   1.543  0.0071 -0.1456 -0.3298
 5718TIP3    H138713   5.746   3.587   1.584  0.1458  1.5364 -0.2494
 5718TIP3    H238714   5.675   3.577   1.451  0.0491 -1.8942 -0.0295
 5719TIP3   OH238715   2.191   3.953   8.602  0.0211 -0.5999  0.7839
 5719TIP3    H138716   2.148   3.868   8.587  0.2305 -0.4133 -1.1126
 5719TIP3    H238717   2.154   4.011   8.536  2.1734 -0.0560 -0.0284
 5720TIP3   OH238718   4.827   4.696   1.285  0.1027 -0.0445 -0.3060
 5720TIP3    H138719   4.916   4.722   1.263 -0.6176  2.0056 -1.0414
 5720TIP3    H238720   4.788   4.671   1.201 -0.3484  0.2365 -0.1868
 5721TIP3   OH238721   3.541   6.690   1.963 -0.4806 -0.6393  0.1199
 5721TIP3    H138722   3.576   6.708   2.050 -0.2267  3.0880 -0.5619
 5721TIP3    H238723   3.616   6.703   1.904 -1.4471  0.8645 -0.8651
 5722TIP3   OH238724   2.956   5.001   1.863 -0.4000  0.1601 -0.4321
 5722TIP3    H138725   2.872   5.038   1.889 -0.3064  0.5353 -0.6545
 5722TIP3    H238726   3.019   5.036   1.926 -0.1435  1.2158 -1.2395
 5723TIP3   OH238727   0.296   0.250   0.600 -0.3854  0.5902 -0.0772
 5723TIP3    H138728   0.377   0.240   0.650  0.0185 -0.2250 -0.8713
 5723TIP3    H238729   0.281   0.345   0.598 -1.2582  0.6137  2.8519
 5724TIP3   OH238730   3.163   2.549   0.168 -0.4073 -0.5046 -1.2664
 5724TIP3    H138731   3.156   2.637   0.132 -0.6345 -0.0117 -0.0659
 5724TIP3    H238732   3.073   2.516   0.168 -0.3576 -0.6465 -1.4653
 5725TIP3   OH238733   4.031   2.989   0.202 -0.6279 -0.2341  0.5771
 5725TIP3    H138734   4.013   3.079   0.227 -0.4292 -0.8708  3.3250
 5725TIP3    H238735   4.064   2.995   0.113  0.9154  2.5875  1.2248
 5726TIP3   OH238736   1.237   6.370   6.850  0.0081 -0.3246 -0.2377
 5726TIP3    H138737   1.278   6.309   6.911  1.8125  0.0608 -0.9855
 5726TIP3    H238738   1.152   6.391   6.890  1.1326 -0.0126  2.2060
 5727TIP3   OH238739   1.631   6.498   1.491  0.0064  0.4854  0.1162
 5727TIP3    H138740   1.706   6.499   1.431 -0.8449  0.2850 -0.9854
 5727TIP3    H238741   1.557   6.474   1.436 -0.8134  0.3004  1.2650
 5728TIP3   OH238742   1.874   0.986   7.602 -0.0775  0.5314  0.4076
 5728TIP3    H138743   1.802   1.011   7.544  0.2605  0.5132 -0.0263
 5728TIP3    H238744   1.946   1.044   7.578 -0.3308  1.4502  1.7315
 5729TIP3   OH238745   6.332   2.752   7.795 -0.4162  0.1895 -0.4727
 5729TIP3    H138746   6.356   2.693   7.725 -0.2563  0.8873 -1.0204
 5729TIP3    H238747   6.390   2.730   7.867  0.5303  0.5327 -1.1109
 5730TIP3   OH238748   0.165   4.167   0.974  0.0810 -0.3728  0.1905
 5730TIP3    H138749   0.196   4.254   0.950  0.4601 -0.9290 -1.4681
 5730TIP3    H238750   0.225   4.138   1.042  0.3746  0.3914  0.2642
 5731TIP3   OH238751   1.365   0.724   8.388  0.4338  0.2667 -0.1943
 5731TIP3    H138752   1.422   0.707   8.463  0.7156 -0.2059 -0.5106
 5731TIP3    H238753   1.409   0.794   8.340 -0.6502  1.8604  1.0284
 5732TIP3   OH238754   0.115   5.633   1.757 -0.0813  0.2940  0.3612
 5732TIP3    H138755   0.099   5.622   1.664 -1.7946 -2.9941  0.8656
 5732TIP3    H238756   0.197   5.585   1.773  0.8818  1.9083  0.4060
 5733TIP3   OH238757   1.641   1.248   7.465 -0.7003  0.0990 -0.0516
 5733TIP3    H138758   1.642   1.286   7.553 -0.3211 -0.9253  0.3951
 5733TIP3    H238759   1.711   1.293   7.419 -0.5229  0.2324  0.3430
 5734TIP3   OH238760   1.326   6.348   7.837  0.0919  0.3417  0.0930
 5734TIP3    H138761   1.361   6.259   7.836  0.7203  0.5588 -1.8905
 5734TIP3    H238762   1.379   6.395   7.773 -1.7463  1.5313 -0.6444
 5735TIP3   OH238763   6.088   2.502   0.453  0.4329 -0.1848  0.3833
 5735TIP3    H138764   6.102   2.469   0.364 -1.1212 -0.3902  0.1777
 5735TIP3    H238765   6.167   2.478   0.501  0.8057 -1.0995 -0.6563
 5736TIP3   OH238766   6.546   2.078   8.556  0.6057  0.6605  0.2416
 5736TIP3    H138767   6.464   2.028   8.560  0.4901  0.8803  0.8403
 5736TIP3    H238768   6.519   2.169   8.567  1.0203  0.6359  1.8091
 5737TIP3   OH238769   1.232   5.060   1.755  0.1029  0.3726 -0.2904
 5737TIP3    H138770   1.266   5.041   1.842  1.1486 -0.1057 -0.7815
 5737TIP3    H238771   1.141   5.030   1.757 -0.1541  1.1929  0.9009
 5738TIP3   OH238772   4.158   5.814   8.315  0.1710  0.6129  0.1896
 5738TIP3    H138773   4.239   5.771   8.342 -0.0728  0.3796  0.5591
 5738TIP3    H238774   4.178   5.852   8.229 -0.1480 -1.8053 -1.0527
 5739TIP3   OH238775   1.360   4.602   0.544 -0.1091  0.7462  0.4738
 5739TIP3    H138776   1.287   4.650   0.504  1.3905  1.3250 -1.7557
 5739TIP3    H238777   1.434   4.662   0.540  0.4743  0.2925  2.9926
 5740TIP3   OH238778   4.267   2.786   1.926 -0.3138  0.0904  0.6074
 5740TIP3    H138779   4.258   2.695   1.953  0.9258  0.1136  1.1660
 5740TIP3    H238780   4.236   2.837   2.000  0.6487  0.1248  1.0039
 5741TIP3   OH238781   1.536   0.025   1.300 -0.0529 -0.0336 -0.3589
 5741TIP3    H138782   1.620   0.006   1.343  0.2481 -0.6650 -1.2104
 5741TIP3    H238783   1.499   0.096   1.352  0.9502  0.1666  0.1113
 5742TIP3   OH238784   1.925   2.671   1.967 -0.1727  0.0908  0.1545
 5742TIP3    H138785   1.855   2.652   2.030  1.3978 -0.8653  1.7221
 5742TIP3    H238786   1.889   2.644   1.882 -1.7865 -0.0962  0.8617
 5743TIP3   OH238787   3.092   1.201   2.709 -0.2121  0.0625  0.8217
 5743TIP3    H138788   3.159   1.241   2.765  0.3187  0.0635  0.2116
 5743TIP3    H238789   3.024   1.172   2.769  0.4134 -0.0819  1.4759
 5744TIP3   OH238790   0.582   5.370   2.806 -0.3091  0.2825  0.3586
 5744TIP3    H138791   0.501   5.370   2.755  0.0040 -0.7096 -0.1646
 5744TIP3    H238792   0.650   5.344   2.744  0.2217 -0.0799  1.0736
 5745TIP3   OH238793   5.201   4.263   7.789  0.1034  0.2770 -0.0553
 5745TIP3    H138794   5.114   4.259   7.830 -0.5295 -0.1855 -1.3635
 5745TIP3    H238795   5.206   4.351   7.752  0.2367  0.3433  0.1219
 5746TIP3   OH238796   2.293   5.784   8.323 -0.5533 -0.4133  0.1465
 5746TIP3    H138797   2.215   5.826   8.287  0.6860  2.2906  0.3439
 5746TIP3    H238798   2.327   5.731   8.251 -1.6565 -0.3361 -0.4615
 5747TIP3   OH238799   0.373   0.697   0.775 -0.1515  0.7823 -0.4623
 5747TIP3    H138800   0.333   0.618   0.812  0.4180 -1.2724 -3.8196
 5747TIP3    H238801   0.448   0.715   0.832  0.0645 -1.5073  0.0695
 5748TIP3   OH238802   0.251   2.023   1.448 -0.3974 -0.5649 -0.1163
 5748TIP3    H138803   0.180   1.972   1.409  0.6154 -2.0883 -0.0678
 5748TIP3    H238804   0.255   1.993   1.539  2.1058 -2.6728 -0.8138
 5749TIP3   OH238805   0.003   3.409   1.703 -0.2421  0.2041  0.0699
 5749TIP3    H138806   0.082   3.355   1.708  0.7320  1.6610  1.2359
 5749TIP3    H238807   0.026   3.491   1.746 -2.3869  0.7133  0.3976
 5750TIP3   OH238808   3.663   1.867   7.402 -0.0831 -0.7862 -0.3300
 5750TIP3    H138809   3.646   1.938   7.340  0.3596  0.4286  0.8955
 5750TIP3    H238810   3.599   1.800   7.378 -2.1078  0.9427 -0.0941
 5751TIP3   OH238811   4.350   0.586   0.609 -0.5237  0.0305  0.0504
 5751TIP3    H138812   4.318   0.542   0.531 -0.0701 -1.4861  0.6851
 5751TIP3    H238813   4.288   0.563   0.678  0.1156 -0.2394  0.5566
 5752TIP3   OH238814   5.583   0.500   7.877 -0.0111  0.4479 -0.7985
 5752TIP3    H138815   5.490   0.510   7.859 -0.2013 -0.4557 -0.3627
 5752TIP3    H238816   5.592   0.522   7.970 -0.0053 -0.7087 -0.5159
 5753TIP3   OH238817   5.024   5.502   6.931  0.2223  0.1570 -0.3063
 5753TIP3    H138818   5.047   5.588   6.896  0.2221  0.7512  1.0863
 5753TIP3    H238819   4.951   5.472   6.878 -0.4355  1.4758 -0.1635
 5754TIP3   OH238820   0.000   1.699   0.935  0.5298  0.4153 -0.1354
 5754TIP3    H138821  -0.045   1.632   0.985 -0.6161  0.0996 -1.5482
 5754TIP3    H238822   0.093   1.680   0.948  0.3183  0.8146  2.4513
 5755TIP3   OH238823   5.091   3.917   2.289  0.0002 -0.0991 -0.3651
 5755TIP3    H138824   5.012   3.865   2.309 -0.2067  1.0733  2.0882
 5755TIP3    H238825   5.140   3.920   2.371  0.4172  2.8620 -0.6269
 5756TIP3   OH238826   1.031   1.493   0.803  0.1925  0.3715 -0.0240
 5756TIP3    H138827   1.096   1.563   0.803 -0.5356  1.1442  2.0188
 5756TIP3    H238828   0.969   1.517   0.734 -0.1759  1.9216  0.7964
 5757TIP3   OH238829   2.656   4.629   1.612  0.0257 -0.0921  0.2202
 5757TIP3    H138830   2.735   4.682   1.626  0.4077 -0.4283 -0.5869
 5757TIP3    H238831   2.637   4.640   1.518 -0.7231 -0.2444  0.3510
 5758TIP3   OH238832   0.014   1.300   7.977 -0.1501  0.0179  0.1731
 5758TIP3    H138833  -0.039   1.336   7.907 -1.2229 -0.4467  0.7208
 5758TIP3    H238834   0.053   1.376   8.020  0.1390  0.3263 -0.6228
 5759TIP3   OH238835   6.304   1.201   1.564 -0.1811 -0.2225 -0.1016
 5759TIP3    H138836   6.226   1.213   1.509  1.1680  2.4566 -1.6761
 5759TIP3    H238837   6.345   1.288   1.565  1.2228 -0.8115  3.1736
 5760TIP3   OH238838   6.378   4.704   7.992 -0.1035  0.1174 -0.0817
 5760TIP3    H138839   6.372   4.609   8.006 -0.4348  0.2429  0.6486
 5760TIP3    H238840   6.314   4.741   8.052 -0.1652  0.7970 -0.5583
 5761TIP3   OH238841   2.347   1.111   2.213  0.5579 -0.1424  0.2174
 5761TIP3    H138842   2.412   1.107   2.143  0.6187 -2.7575  0.3501
 5761TIP3    H238843   2.308   1.024   2.216  1.6046 -0.6996  4.3543
 5762TIP3   OH238844   0.560   2.722   0.225  0.3544 -0.1371 -0.1871
 5762TIP3    H138845   0.616   2.690   0.296 -0.1527  0.0581  0.3125
 5762TIP3    H238846   0.597   2.807   0.201  0.9941 -0.5510 -0.7030
 5763TIP3   OH238847   5.301   5.304   2.296 -0.3043 -0.0991  0.0513
 5763TIP3    H138848   5.267   5.214   2.296 -1.3458  0.2888  0.6567
 5763TIP3    H238849   5.236   5.354   2.247 -0.6422  0.6617  1.2514
 5764TIP3   OH238850   5.013   4.018   1.974  0.2726 -0.7829 -0.2216
 5764TIP3    H138851   5.101   3.981   1.976  0.0663 -1.3165 -0.6174
 5764TIP3    H238852   5.021   4.104   2.014  1.2175 -0.3303 -1.3353
 5765TIP3   OH238853   0.884   5.238   7.796  0.1777 -0.4982  0.1542
 5765TIP3    H138854   0.798   5.259   7.759 -0.9594 -3.6563  0.7105
 5765TIP3    H238855   0.942   5.233   7.720 -0.8048 -1.0711 -0.5907
 5766TIP3   OH238856   2.779   4.105   1.859 -0.0792 -0.2177  0.5582
 5766TIP3    H138857   2.751   4.153   1.782  1.2985 -0.7589 -0.3163
 5766TIP3    H238858   2.808   4.020   1.826 -2.0414 -1.5662  2.0036
 5767TIP3   OH238859   3.342   1.230   0.593 -0.2523  0.2185  0.0269
 5767TIP3    H138860   3.317   1.153   0.645  0.0767 -0.4399 -0.7573
 5767TIP3    H238861   3.362   1.194   0.506  1.2433  1.0041  0.0129
 5768TIP3   OH238862   6.213   6.078   0.081  0.7557  0.2616  0.3935
 5768TIP3    H138863   6.229   5.985   0.065  1.2600  0.5606 -0.9232
 5768TIP3    H238864   6.287   6.106   0.135  0.3887 -0.1741  1.1458
 5769TIP3   OH238865   3.493   5.775   1.389  0.2898  0.4623 -0.0403
 5769TIP3    H138866   3.422   5.735   1.339 -0.5234  2.3292 -0.4693
 5769TIP3    H238867   3.492   5.730   1.473 -0.2956 -0.6707 -0.6318
 5770TIP3   OH238868   3.554   2.536   1.816  0.0238  0.5038  0.0314
 5770TIP3    H138869   3.549   2.536   1.912  1.0223  1.6267  0.1109
 5770TIP3    H238870   3.632   2.484   1.796 -0.9366 -0.8886 -0.2656
 5771TIP3   OH238871   2.852   1.275   7.343 -0.0329  0.2755  0.1756
 5771TIP3    H138872   2.895   1.353   7.307  0.9011  0.3102  1.3098
 5771TIP3    H238873   2.835   1.220   7.267 -1.2266  1.8081 -0.7334
 5772TIP3   OH238874   1.894   4.114   0.045  0.2510 -0.5555 -0.0898
 5772TIP3    H138875   1.822   4.089   0.102  0.5957 -2.4758 -0.4029
 5772TIP3    H238876   1.871   4.077  -0.040  0.6707  0.5443 -0.7048
 5773TIP3   OH238877   3.644   2.313   7.654 -0.1058  0.2665  0.1579
 5773TIP3    H138878   3.685   2.329   7.569 -1.7229  2.2240 -0.3283
 5773TIP3    H238879   3.677   2.228   7.681  1.3973  0.1417 -1.8543
 5774TIP3   OH238880   0.044   3.469   0.578 -0.7476  0.4676  0.2451
 5774TIP3    H138881   0.017   3.401   0.640 -1.1696  1.7033  1.4707
 5774TIP3    H238882   0.119   3.432   0.533  0.5457  0.0784  2.5725
 5775TIP3   OH238883   0.401   6.707   0.295 -0.4560  0.1350  0.7161
 5775TIP3    H138884   0.403   6.743   0.206  2.5120  0.2003  0.7170
 5775TIP3    H238885   0.354   6.773   0.346  0.8520  1.8476 -0.1802
 5776TIP3   OH238886   0.829   5.078   2.039  0.2781 -0.3860  0.5685
 5776TIP3    H138887   0.758   5.041   2.091 -0.5178  0.2695 -0.0215
 5776TIP3    H238888   0.833   5.170   2.066  1.2574 -0.5419  0.9717
 5777TIP3   OH238889   1.459   2.594   7.279 -0.4343 -0.1176  0.1163
 5777TIP3    H138890   1.502   2.510   7.264 -0.2049  0.0657 -0.2827
 5777TIP3    H238891   1.524   2.646   7.326  0.5455  0.8011 -2.0964
 5778TIP3   OH238892   1.714   5.146   1.659 -0.3246 -0.0464  0.6745
 5778TIP3    H138893   1.626   5.107   1.664 -0.3089 -0.0847  0.6509
 5778TIP3    H238894   1.774   5.072   1.665 -0.3027 -0.0878  0.0534
 5779TIP3   OH238895   3.119   3.060   8.373  0.0608  0.1480  0.2965
 5779TIP3    H138896   3.204   3.091   8.342  0.1257 -0.3179  0.0090
 5779TIP3    H238897   3.105   2.977   8.328 -0.9440  0.6330 -0.3291
 5780TIP3   OH238898   6.330   4.582   0.008  0.0292 -0.3031 -0.5299
 5780TIP3    H138899   6.391   4.641  -0.036  1.4001  0.7761  2.5317
 5780TIP3    H238900   6.253   4.635   0.024 -0.1356 -0.4386 -0.8661
 5781TIP3   OH238901   4.186   1.374   1.415 -0.5236  0.6130 -0.0001
 5781TIP3    H138902   4.252   1.315   1.451  1.3653  1.8774 -1.1478
 5781TIP3    H238903   4.170   1.342   1.326  0.1926  1.5221 -0.4786
 5782TIP3   OH238904   4.101   3.978   7.420  0.1896  0.0170 -0.3087
 5782TIP3    H138905   4.125   4.026   7.499 -1.3422  1.5309 -0.6918
 5782TIP3    H238906   4.182   3.973   7.369  0.8530  0.3320  0.6873
 5783TIP3   OH238907   3.647   0.506   8.356  0.1745 -0.0677 -0.0027
 5783TIP3    H138908   3.675   0.592   8.325 -0.3217  0.5139  1.1238
 5783TIP3    H238909   3.594   0.524   8.433  0.4341 -1.4162  0.5208
 5784TIP3   OH238910   1.417   1.679   0.633  0.9497  0.4595 -0.2127
 5784TIP3    H138911   1.452   1.592   0.612 -0.8720 -0.7219  1.3166
 5784TIP3    H238912   1.394   1.717   0.548  0.0827 -1.3346 -0.8376
 5785TIP3   OH238913   3.931   5.539   8.513  0.0271 -0.3226 -0.1316
 5785TIP3    H138914   3.896   5.602   8.575  0.6858 -0.7896  0.7422
 5785TIP3    H238915   3.948   5.589   8.433  4.0687  1.6087  1.6352
 5786TIP3   OH238916   3.009   6.583   8.664 -0.4158  0.3282  0.0354
 5786TIP3    H138917   2.935   6.645   8.669 -1.4968 -0.9376  0.1642
 5786TIP3    H238918   2.995   6.523   8.737  1.3767  0.6960  0.7253
 5787TIP3   OH238919   4.794   1.953   8.357  0.0806  0.0387  0.1681
 5787TIP3    H138920   4.817   1.971   8.448 -1.1654  3.0278 -0.0110
 5787TIP3    H238921   4.818   2.032   8.309 -0.5579 -0.9214 -1.8817
 5788TIP3   OH238922   1.557   4.771   0.448 -0.0128  0.5603 -0.1329
 5788TIP3    H138923   1.593   4.809   0.367 -0.6414 -0.6441 -1.0165
 5788TIP3    H238924   1.563   4.842   0.512 -1.3476  2.2518 -1.7425
 5789TIP3   OH238925   5.095   2.787   8.228 -0.3293  0.9939 -0.2660
 5789TIP3    H138926   5.125   2.856   8.169  0.8537  1.5752  0.9546
 5789TIP3    H238927   5.011   2.819   8.262  0.1548  1.7893  0.1957
 5790TIP3   OH238928   5.230   0.071   8.211 -0.1757 -0.2592 -0.0031
 5790TIP3    H138929   5.204   0.055   8.120 -0.7537  1.3089 -0.1439
 5790TIP3    H238930   5.315   0.027   8.219  0.3443  0.3721 -1.5977
 5791TIP3   OH238931   1.943   5.059   0.339  0.5601  0.4289 -0.6005
 5791TIP3    H138932   1.882   5.132   0.343 -1.4647 -1.2286  0.7883
 5791TIP3    H238933   2.012   5.089   0.279 -1.2756  2.6098 -1.7803
 5792TIP3   OH238934   3.667   3.647   7.559  0.1619 -0.0467 -0.6657
 5792TIP3    H138935   3.608   3.721   7.541  1.1543  0.5741 -1.4903
 5792TIP3    H238936   3.737   3.684   7.612  0.2857 -0.5756 -0.4528
 5793TIP3   OH238937   2.372   4.494   8.128 -0.6376 -0.6669 -0.5205
 5793TIP3    H138938   2.466   4.513   8.129 -0.5763 -0.9413  0.8972
 5793TIP3    H238939   2.351   4.480   8.035  0.5410  0.2197 -0.9474
 5794TIP3   OH238940   3.428   0.775   0.731 -0.0900 -0.3244 -0.7322
 5794TIP3    H138941   3.519   0.775   0.761 -0.3432  2.6841  0.4457
 5794TIP3    H238942   3.422   0.851   0.674 -2.1687  0.5040  0.4627
 5795TIP3   OH238943   3.382   6.602   0.505 -0.0459  0.1104 -0.3616
 5795TIP3    H138944   3.389   6.671   0.439  0.0453  1.2451  0.7771
 5795TIP3    H238945   3.470   6.597   0.543 -0.3318  0.1589  0.3224
 5796TIP3   OH238946   2.494   6.391   0.509 -0.5794  0.0222 -0.1318
 5796TIP3    H138947   2.574   6.409   0.558 -0.1772 -1.7960 -0.0746
 5796TIP3    H238948   2.447   6.475   0.508  0.8289  0.8500  0.7143
 5797TIP3   OH238949   4.090   1.976   6.995  0.0195  0.0348 -0.3451
 5797TIP3    H138950   4.012   1.930   6.964  1.4560 -1.4936 -1.9728
 5797TIP3    H238951   4.081   2.065   6.960 -1.3458  0.1181  0.1729
 5798TIP3   OH238952   3.961   1.239   7.581  0.1846  0.1245  0.3976
 5798TIP3    H138953   4.002   1.291   7.650  2.3226 -0.7515 -0.1283
 5798TIP3    H238954   4.002   1.270   7.500  0.6806 -1.5740 -0.0395
 5799TIP3   OH238955   3.718   0.051   8.817  0.5888 -0.0362 -0.0317
 5799TIP3    H138956   3.656  -0.018   8.794  1.9984 -0.9358 -1.2728
 5799TIP3    H238957   3.714   0.112   8.744  2.0287 -0.7364 -0.7297
 5800TIP3   OH238958   4.480   0.584   2.249  0.1628  0.2958 -0.3065
 5800TIP3    H138959   4.567   0.600   2.212  0.0128  2.7234  0.2292
 5800TIP3    H238960   4.483   0.622   2.336 -1.8445  1.7248 -0.7902
 5801TIP3   OH238961   3.302   6.153   7.689 -0.4138  0.0941  0.4139
 5801TIP3    H138962   3.214   6.191   7.686 -0.3745  0.2270 -2.5599
 5801TIP3    H238963   3.295   6.076   7.632  1.4226  0.2134 -0.0070
 5802TIP3   OH238964   0.711   3.717   7.845  0.4014  0.0686 -0.2880
 5802TIP3    H138965   0.620   3.738   7.822 -0.5211 -0.3071  2.5597
 5802TIP3    H238966   0.743   3.796   7.889  0.7112 -0.5149  0.5547
 5803TIP3   OH238967   1.969   2.514   0.630 -0.4986  0.4944  0.3472
 5803TIP3    H138968   1.922   2.431   0.632 -0.8758  0.7039  2.0165
 5803TIP3    H238969   1.946   2.554   0.547 -2.2856  0.0320  0.5915
 5804TIP3   OH238970   6.370   6.451   0.418  0.2246  0.1674  0.3973
 5804TIP3    H138971   6.448   6.456   0.363  0.0815 -2.0564 -0.0907
 5804TIP3    H238972   6.404   6.452   0.507  0.7947 -0.3825  0.1965
 5805TIP3   OH238973   2.481   6.591   0.810  0.7713 -0.8730 -0.2699
 5805TIP3    H138974   2.407   6.579   0.869  0.5820  0.5392 -0.1785
 5805TIP3    H238975   2.540   6.650   0.858  0.8553 -0.1198 -1.2761
 5806TIP3   OH238976   0.753   4.226   7.626  0.6440  0.5296  0.7575
 5806TIP3    H138977   0.662   4.194   7.624  0.7105  0.3666  0.3667
 5806TIP3    H238978   0.746   4.318   7.601  0.5979  0.4951  0.6437
 5807TIP3   OH238979   5.368   5.344   1.384 -1.1838  0.2194 -0.3547
 5807TIP3    H138980   5.424   5.280   1.429 -0.5098  2.4575  2.2470
 5807TIP3    H238981   5.428   5.390   1.324 -0.6209  1.2876  0.9853
 5808TIP3   OH238982   3.793   0.153   7.305  0.1497 -0.5380 -0.3085
 5808TIP3    H138983   3.733   0.177   7.377 -1.6602 -0.1754 -1.8539
 5808TIP3    H238984   3.862   0.218   7.309 -0.2151 -0.1896  0.7675
 5809TIP3   OH238985   4.171   1.470   7.066  0.0654  0.2488  0.2209
 5809TIP3    H138986   4.223   1.391   7.056  1.7876  1.2553  0.9446
 5809TIP3    H238987   4.099   1.445   7.124  0.6573 -0.7358  0.5323
 5810TIP3   OH238988   0.238   2.907   2.897  0.0117 -0.1467 -0.5130
 5810TIP3    H138989   0.182   2.862   2.961 -0.3201 -1.3000 -1.5726
 5810TIP3    H238990   0.259   2.991   2.939 -0.1277 -0.8846  1.1333
 5811TIP3   OH238991   0.998   4.028   8.555 -0.0909 -0.5056 -0.3347
 5811TIP3    H138992   0.952   4.047   8.636 -0.1237 -1.6239 -0.0778
 5811TIP3    H238993   0.936   4.052   8.486 -0.7301 -1.1715 -0.0033
 5812TIP3   OH238994   0.653   0.043   2.032  0.9023  0.0159  0.1171
 5812TIP3    H138995   0.619   0.093   2.106  0.5176  0.3706 -0.2912
 5812TIP3    H238996   0.746   0.033   2.051  0.7523 -0.1448  0.7877
 5813TIP3   OH238997   4.486   2.171   0.596 -0.2412  0.3556 -0.1175
 5813TIP3    H138998   4.473   2.196   0.504  1.8333 -1.0504 -0.8680
 5813TIP3    H238999   4.555   2.230   0.627 -0.1366  0.0852  0.1690
 5814TIP3   OH239000   6.704   4.345   7.761 -0.1047  0.5958  0.3366
 5814TIP3    H139001   6.775   4.305   7.710  0.7105 -0.0653  1.9457
 5814TIP3    H239002   6.748   4.410   7.816 -0.7976  0.4166  1.1193
 5815TIP3   OH239003   0.521   0.704   2.336  0.1127  0.1679 -0.1416
 5815TIP3    H139004   0.604   0.682   2.294 -0.1300  0.9590 -1.0760
 5815TIP3    H239005   0.469   0.624   2.329  0.5503 -0.1136 -0.1889
 5816TIP3   OH239006   2.475   2.980   2.448  0.3609 -0.0352  0.1550
 5816TIP3    H139007   2.517   2.975   2.362 -1.6993 -0.4160 -0.8903
 5816TIP3    H239008   2.524   3.048   2.495  2.1481 -0.5071 -0.9335
 5817TIP3   OH239009   4.825   3.710   2.174  1.2892 -0.2764  0.2810
 5817TIP3    H139010   4.762   3.684   2.242  1.8741  1.1065  1.3977
 5817TIP3    H239011   4.870   3.628   2.151 -0.8133 -1.2905 -0.5101
 5818TIP3   OH239012   2.549   4.381   8.603 -0.2487  0.3371 -0.4910
 5818TIP3    H139013   2.497   4.403   8.525  0.4371  3.0601 -0.2927
 5818TIP3    H239014   2.612   4.453   8.610  1.1528 -0.9987  1.3481
 5819TIP3   OH239015   5.587   5.569   0.369  0.0559  0.9636  0.3816
 5819TIP3    H139016   5.594   5.494   0.310 -1.5677  1.6542 -0.7524
 5819TIP3    H239017   5.676   5.603   0.374  0.4451  0.1773 -0.7213
 5820TIP3   OH239018   0.286   4.449   2.868 -0.0781 -0.4205  0.5744
 5820TIP3    H139019   0.343   4.431   2.943  0.8596  1.7988  0.4693
 5820TIP3    H239020   0.338   4.505   2.811 -2.2003  1.3899  0.2819
 5821TIP3   OH239021   1.017   5.451   8.654  0.4879  0.4020 -0.3755
 5821TIP3    H139022   0.986   5.363   8.632 -0.5176  0.9434 -1.2360
 5821TIP3    H239023   0.968   5.509   8.595  0.2514  1.6410  0.9801
 5822TIP3   OH239024   5.786   5.370   7.503 -0.2671 -0.4498 -0.0541
 5822TIP3    H139025   5.842   5.439   7.538 -0.8141 -0.7385  1.4513
 5822TIP3    H239026   5.776   5.393   7.410 -0.6187  1.6323  0.4338
 5823TIP3   OH239027   5.458   0.001   2.232 -0.2482  0.4783  0.2794
 5823TIP3    H139028   5.500   0.012   2.317 -1.5318  1.5108  0.8113
 5823TIP3    H239029   5.469  -0.092   2.211 -0.6634  0.0223  1.9852
 5824TIP3   OH239030   2.392   6.397   8.126  0.1000 -0.5111  0.4356
 5824TIP3    H139031   2.360   6.336   8.192  0.2933 -0.4806  0.5582
 5824TIP3    H239032   2.486   6.383   8.124 -0.0224 -1.3462 -0.6761
 5825TIP3   OH239033   5.755   3.756   7.448  0.7426  0.3137  0.0036
 5825TIP3    H139034   5.695   3.700   7.398  0.1667 -0.7069  1.7289
 5825TIP3    H239035   5.712   3.842   7.450 -1.3326 -0.6797  2.1606
 5826TIP3   OH239036   4.815   6.159   8.261  0.7096 -0.1157 -0.4917
 5826TIP3    H139037   4.779   6.085   8.212  0.9618 -0.3383 -0.3446
 5826TIP3    H239038   4.742   6.219   8.270  0.8115  0.2130 -1.6847
 5827TIP3   OH239039   0.092   4.512   7.911  0.5192 -0.2352  0.6157
 5827TIP3    H139040   0.077   4.599   7.946  1.5922  0.5606 -0.7886
 5827TIP3    H239041   0.186   4.509   7.893  0.1229 -0.7158 -1.7371
 5828TIP3   OH239042   0.702   5.764   0.053  0.2114 -0.3653  0.3804
 5828TIP3    H139043   0.627   5.752   0.112 -1.2185 -0.0707 -1.2864
 5828TIP3    H239044   0.675   5.720  -0.028  1.6083  0.2814 -0.4590
 5829TIP3   OH239045   4.107   6.516   2.126 -0.5829  0.0449 -0.0275
 5829TIP3    H139046   4.029   6.572   2.133 -0.9058 -0.4487  0.3992
 5829TIP3    H239047   4.117   6.478   2.213 -1.5432 -2.0884 -0.7714
 5830TIP3   OH239048   4.615   1.764   1.572  0.1905 -0.1444 -0.5644
 5830TIP3    H139049   4.653   1.780   1.658  0.6791  2.1021 -1.1150
 5830TIP3    H239050   4.520   1.771   1.586  0.3179  2.1125 -0.4579
 5831TIP3   OH239051   0.044   5.995   8.614 -0.6705  0.3989  0.1436
 5831TIP3    H139052   0.069   5.978   8.523 -0.0741 -0.5672  0.4744
 5831TIP3    H239053  -0.017   5.924   8.636  1.4803 -1.1593  1.4005
 5832TIP3   OH239054   4.648   6.518   1.045 -0.3764 -0.2908 -0.0126
 5832TIP3    H139055   4.727   6.538   0.995 -0.4933  2.1996  0.6464
 5832TIP3    H239056   4.643   6.588   1.110 -3.4954  0.0531 -0.4773
 5833TIP3   OH239057   4.343   4.087   7.319  0.3998  0.1142 -0.4288
 5833TIP3    H139058   4.361   4.173   7.358  1.0446  0.0607 -0.5883
 5833TIP3    H239059   4.346   4.103   7.224 -0.9257  0.1993 -0.4641
 5834TIP3   OH239060   5.747   4.968   0.038  0.0876  0.3731 -0.4984
 5834TIP3    H139061   5.802   5.026   0.091 -0.6645  0.8560 -0.2404
 5834TIP3    H239062   5.735   4.890   0.094 -0.5686  0.8135 -0.0075
 5835TIP3   OH239063   2.719   2.855   8.303 -0.6993  0.2120  0.1101
 5835TIP3    H139064   2.754   2.823   8.386 -0.8301  1.9058  0.8715
 5835TIP3    H239065   2.663   2.929   8.328  0.2875  1.5990 -1.5678
 5836TIP3   OH239066   0.987   2.567   8.202  0.0210 -0.6029  0.3011
 5836TIP3    H139067   1.040   2.504   8.250  0.6953  0.4957  1.0273
 5836TIP3    H239068   0.920   2.594   8.264  0.5603  0.4082  0.4560
 5837TIP3   OH239069   3.733   5.195   8.570  0.0742 -0.0546 -0.3680
 5837TIP3    H139070   3.739   5.118   8.514  1.9334 -0.2232 -0.0261
 5837TIP3    H239071   3.711   5.160   8.657  0.7833 -0.2061 -0.2412
 5838TIP3   OH239072   5.728   3.362   7.582 -0.4092  0.6146 -0.0414
 5838TIP3    H139073   5.733   3.405   7.497  1.9412 -0.6703 -0.6335
 5838TIP3    H239074   5.793   3.408   7.636 -1.2059  0.8062  0.7844
 5839TIP3   OH239075   0.392   0.171   2.027  0.3533 -0.1843  0.0576
 5839TIP3    H139076   0.479   0.166   1.987  1.9587  0.1583  3.2026
 5839TIP3    H239077   0.399   0.242   2.091 -2.3101 -0.0910  0.3769
 5840TIP3   OH239078   5.721   0.598   2.287  0.1985  0.7926  0.5356
 5840TIP3    H139079   5.703   0.648   2.366  0.6603 -0.1479  1.2616
 5840TIP3    H239080   5.696   0.508   2.309  1.1022  0.3650 -0.0893
 5841TIP3   OH239081   5.508   2.583   0.894 -0.1024  0.4940  0.0141
 5841TIP3    H139082   5.524   2.607   0.985 -1.2516  0.8685  0.1305
 5841TIP3    H239083   5.462   2.658   0.857 -2.1445 -0.7350 -0.1118
 5842TIP3   OH239084   0.283   4.351   7.323 -0.4086 -0.0714 -0.0601
 5842TIP3    H139085   0.275   4.432   7.274  0.2448  0.5732  0.8624
 5842TIP3    H239086   0.277   4.282   7.257 -1.3214  0.6984 -0.8180
 5843TIP3   OH239087   2.424   1.241   1.166  0.1972  0.0897  0.1408
 5843TIP3    H139088   2.412   1.179   1.095 -0.3774  0.4365 -0.0643
 5843TIP3    H239089   2.412   1.327   1.126 -0.3034  0.2792  0.6899
 5844TIP3   OH239090   5.371   4.373   0.937  0.1900 -0.0971  0.4538
 5844TIP3    H139091   5.401   4.282   0.934 -2.9017 -1.2557  0.2151
 5844TIP3    H239092   5.394   4.410   0.852 -0.3182 -1.3593 -0.2578
 5845TIP3   OH239093   2.168   6.516   8.927 -0.0901  0.6735  0.0486
 5845TIP3    H139094   2.170   6.464   8.847  1.2902 -1.6148  1.4582
 5845TIP3    H239095   2.154   6.452   8.997  2.3595  2.0421  1.9726
 5846TIP3   OH239096   0.713   2.893   8.238 -0.4945 -0.3720 -0.4057
 5846TIP3    H139097   0.747   2.844   8.164 -0.1377 -0.8906  0.0898
 5846TIP3    H239098   0.694   2.827   8.305 -0.3934  0.1190  0.1230
 5847TIP3   OH239099   1.741   4.943   0.588  0.2028 -0.5277 -0.3029
 5847TIP3    H139100   1.776   4.939   0.499  1.5343  0.2421  0.1507
 5847TIP3    H239101   1.765   5.030   0.620 -3.1434  0.5035 -0.2814
 5848TIP3   OH239102   2.665   6.357   8.143  0.1115  0.3604 -0.1103
 5848TIP3    H139103   2.726   6.287   8.124  0.9799  1.0868 -0.0535
 5848TIP3    H239104   2.704   6.406   8.215 -0.2503  1.1675 -0.4404
 5849TIP3   OH239105   3.266   1.446   8.836 -0.3392 -0.2249 -0.2037
 5849TIP3    H139106   3.357   1.435   8.863  0.2940  1.1870 -1.6130
 5849TIP3    H239107   3.235   1.356   8.823  0.5016 -0.7757  1.3035
 5850TIP3   OH239108   6.676   1.018   8.045 -0.2112  0.0955 -0.6728
 5850TIP3    H139109   6.719   1.100   8.068 -0.0911 -0.1973  0.1842
 5850TIP3    H239110   6.583   1.034   8.063 -0.0452 -0.3242  0.6197
 5851TIP3   OH239111   5.742   6.578   7.601 -0.0936 -0.3761  0.4065
 5851TIP3    H139112   5.819   6.526   7.626  0.9699  0.3966 -1.1346
 5851TIP3    H239113   5.766   6.668   7.621 -2.0901 -0.3535  3.4634
 5852TIP3   OH239114   4.311   5.336   1.191  0.1961 -0.3935 -0.5506
 5852TIP3    H139115   4.382   5.322   1.128  0.7388 -0.0320 -0.0347
 5852TIP3    H239116   4.235   5.357   1.137  0.5571 -0.4828 -1.1031
 5853TIP3   OH239117   2.634   2.277   6.856  0.3619  0.3265  0.1221
 5853TIP3    H139118   2.659   2.186   6.871 -0.1710  0.2908  0.8262
 5853TIP3    H239119   2.568   2.272   6.787 -0.7827  0.0129  1.1916
 5854TIP3   OH239120   4.077   2.752   6.860 -0.1584 -0.8089 -0.0143
 5854TIP3    H139121   4.008   2.722   6.801  0.2159 -0.3532 -0.6965
 5854TIP3    H239122   4.137   2.677   6.866  0.2517 -0.5597 -0.9104
 5855TIP3   OH239123   6.338   5.954   1.418 -0.3956  0.0406  0.7156
 5855TIP3    H139124   6.341   5.950   1.323 -1.6605  4.1967  0.3297
 5855TIP3    H239125   6.410   5.898   1.447 -0.3723 -1.8813 -2.5587
 5856TIP3   OH239126   4.984   4.593   2.556 -0.1356  0.2325  0.0141
 5856TIP3    H139127   4.921   4.547   2.502 -0.7428  0.0489  0.8496
 5856TIP3    H239128   5.069   4.576   2.516 -0.6235  0.6223 -1.2277
 5857TIP3   OH239129   4.631   0.838   8.481 -0.0330 -0.3032 -0.3796
 5857TIP3    H139130   4.569   0.907   8.503 -1.0677 -1.4372  0.3644
 5857TIP3    H239131   4.587   0.786   8.414  1.2112  0.3921 -1.8016
 5858TIP3   OH239132   1.930   6.003   8.062 -0.6596  0.2267 -0.0175
 5858TIP3    H139133   1.850   6.012   8.115  0.1107  0.2555  1.1729
 5858TIP3    H239134   1.925   5.914   8.026 -0.1239 -0.6621  1.9671
 5859TIP3   OH239135   2.902   1.112   7.809  0.4064 -0.2471  0.0179
 5859TIP3    H139136   2.917   1.067   7.726  2.5552  0.0953  0.1552
 5859TIP3    H239137   2.807   1.121   7.815  0.2023 -0.0066 -2.5307
 5860TIP3   OH239138   2.228   0.839   7.392 -0.0119  0.8370 -0.1995
 5860TIP3    H139139   2.281   0.879   7.323 -1.1940  1.1740 -0.9299
 5860TIP3    H239140   2.193   0.913   7.441  1.5455  0.6081  1.3907
 5861TIP3   OH239141   2.572   5.788   8.427  0.2606  0.2505  0.1030
 5861TIP3    H139142   2.485   5.794   8.389  0.3573  0.0645 -0.1489
 5861TIP3    H239143   2.563   5.824   8.515 -0.1988 -0.3121  0.2897
 5862TIP3   OH239144   0.374   2.450   0.613 -0.0668  0.3013  0.5983
 5862TIP3    H139145   0.307   2.454   0.681 -0.2788  1.8190  0.3473
 5862TIP3    H239146   0.456   2.470   0.659  0.1792 -1.2064  0.8430
 5863TIP3   OH239147   6.557   1.981   8.046 -0.4473 -0.7069 -0.3946
 5863TIP3    H139148   6.560   2.009   7.955  1.5137  0.5928  0.0084
 5863TIP3    H239149   6.469   1.944   8.057 -1.3316  0.6615 -2.3451
 5864TIP3   OH239150   3.885   5.138   8.103  0.3635  0.4213  0.2976
 5864TIP3    H139151   3.937   5.059   8.121  0.3758  0.1678 -0.7732
 5864TIP3    H239152   3.853   5.126   8.014  1.7057  2.3478 -0.5155
 5865TIP3   OH239153   5.338   5.701   7.438  0.4801 -0.0142 -0.2278
 5865TIP3    H139154   5.375   5.695   7.349 -0.0571  0.9213 -0.5315
 5865TIP3    H239155   5.334   5.611   7.469  1.4769 -0.2767 -0.8270
 5866TIP3   OH239156   4.114   6.151   2.142  0.0077 -0.1097 -0.2734
 5866TIP3    H139157   4.053   6.077   2.142  0.6127 -0.6242  0.4480
 5866TIP3    H239158   4.173   6.133   2.069 -0.1411 -0.0733 -0.4053
 5867TIP3   OH239159   6.262   3.700   8.666 -0.4977 -0.0440  0.1456
 5867TIP3    H139160   6.293   3.614   8.695 -3.2809 -0.2478  3.0165
 5867TIP3    H239161   6.169   3.689   8.650 -0.5213  1.9897 -1.6097
 5868TIP3   OH239162   2.101   5.472   1.525  0.0244  0.2229 -0.2898
 5868TIP3    H139163   2.088   5.392   1.575 -0.7435  0.1771 -0.5492
 5868TIP3    H239164   2.039   5.535   1.563  0.1660  0.4981 -0.5097
 5869TIP3   OH239165   4.474   6.647   8.543 -0.4414  0.1529  0.2919
 5869TIP3    H139166   4.531   6.653   8.620  0.2214 -0.2443 -0.1560
 5869TIP3    H239167   4.442   6.556   8.545  0.7402 -0.3014 -0.6984
 5870TIP3   OH239168   3.506   0.492   2.468 -0.4715  0.0818 -0.1524
 5870TIP3    H139169   3.513   0.540   2.551 -0.1777 -1.3682  0.6873
 5870TIP3    H239170   3.433   0.534   2.422 -1.2244  0.3404  1.2275
 5871TIP3   OH239171   6.019   1.496   0.711  0.0976  0.6230  0.0703
 5871TIP3    H139172   6.113   1.511   0.726  0.1630  0.7940 -0.4827
 5871TIP3    H239173   5.991   1.572   0.660  0.2920 -0.7990 -2.2785
 5872TIP3   OH239174   1.963   2.455   0.950 -0.2865  0.0438 -0.1272
 5872TIP3    H139175   1.871   2.441   0.969 -0.0070 -0.2293  1.0775
 5872TIP3    H239176   1.997   2.367   0.931  0.0347 -0.0710  0.9130
 5873TIP3   OH239177   1.857   2.244   0.611 -0.0096 -0.2051  0.4574
 5873TIP3    H139178   1.914   2.169   0.590 -1.4795 -1.0762 -0.5766
 5873TIP3    H239179   1.823   2.225   0.699 -1.7467 -1.7013 -0.4730
 5874TIP3   OH239180   4.550   5.720   1.376 -0.2515 -0.4049 -0.1617
 5874TIP3    H139181   4.567   5.656   1.307 -0.2619 -2.2597  1.4620
 5874TIP3    H239182   4.604   5.691   1.449 -0.3061  1.4501  0.6677
 5875TIP3   OH239183   5.303   0.098   0.807  0.1811 -0.2253  0.5722
 5875TIP3    H139184   5.384   0.119   0.854  0.5053  1.4532 -0.6082
 5875TIP3    H239185   5.333   0.065   0.722 -0.3638 -0.0390  0.3017
 5876TIP3   OH239186   1.521   3.137   2.522 -0.2586 -0.0779  0.0053
 5876TIP3    H139187   1.545   3.078   2.593 -1.8124  0.2623  0.8627
 5876TIP3    H239188   1.593   3.201   2.518  1.9330 -2.4247 -1.5492
 5877TIP3   OH239189   5.729   6.195   7.391  0.1010 -0.2999 -0.0147
 5877TIP3    H139190   5.642   6.204   7.429  0.4290 -0.6531  0.8327
 5877TIP3    H239191   5.715   6.142   7.313 -0.6191  0.6570 -0.5711
 5878TIP3   OH239192   3.021   5.540   2.121  0.4878 -0.5655  0.1478
 5878TIP3    H139193   3.019   5.592   2.040 -0.6901 -1.7832 -0.6431
 5878TIP3    H239194   3.034   5.605   2.190  1.1560  0.5454 -0.9759
 5879TIP3   OH239195   2.981   6.563   0.865  0.2308 -0.1383  0.1138
 5879TIP3    H139196   3.023   6.543   0.781  0.9835 -0.8987  0.6453
 5879TIP3    H239197   2.991   6.657   0.876 -0.7551  0.1306 -1.0956
 5880TIP3   OH239198   1.738   4.863   8.507  0.1654  0.1461  0.4624
 5880TIP3    H139199   1.680   4.888   8.579 -1.2675  0.1702 -0.6520
 5880TIP3    H239200   1.807   4.929   8.508 -0.7038  1.0741  0.8247
 5881TIP3   OH239201   1.367   5.308   7.445  0.6195 -0.2609  0.2736
 5881TIP3    H139202   1.409   5.225   7.467  0.5401 -0.2120  0.6187
 5881TIP3    H239203   1.277   5.285   7.425  0.8423 -0.3862 -0.6163
 5882TIP3   OH239204   3.597   2.691   2.246 -0.5205  0.0930  0.1311
 5882TIP3    H139205   3.676   2.737   2.275 -0.8613  1.1308 -0.5024
 5882TIP3    H239206   3.627   2.605   2.219  0.5207  0.7194 -0.7638
 5883TIP3   OH239207   4.768   4.481   0.034  0.1395  0.2804  0.0012
 5883TIP3    H139208   4.835   4.450   0.094 -0.7887  0.1135  0.9923
 5883TIP3    H239209   4.706   4.528   0.091 -1.6649 -1.3359 -0.5254
 5884TIP3   OH239210   3.942   4.422   0.773 -0.2393 -0.2780  0.0230
 5884TIP3    H139211   3.975   4.440   0.685 -0.3192 -0.2149  0.0063
 5884TIP3    H239212   3.972   4.334   0.792  1.0498  0.2445  0.5132
 5885TIP3   OH239213   3.125   1.526   1.329 -0.0307 -0.3332  0.4321
 5885TIP3    H139214   3.207   1.477   1.334  0.3998  0.0290 -2.0324
 5885TIP3    H239215   3.057   1.459   1.325  0.2295 -0.6511  1.1783
 5886TIP3   OH239216   2.107   5.741   1.977  0.7518 -0.0899 -0.4592
 5886TIP3    H139217   2.024   5.745   2.024  1.5582  0.1833  0.9953
 5886TIP3    H239218   2.103   5.659   1.928  0.1207 -0.7084  0.5917
 5887TIP3   OH239219   5.334   3.054   2.256  0.4468  0.3771  0.2975
 5887TIP3    H139220   5.362   3.086   2.170 -1.6281 -1.2463 -1.0851
 5887TIP3    H239221   5.329   2.959   2.246 -0.2074  0.1827  2.1053
 5888TIP3   OH239222   3.691   6.477   0.605 -0.4900 -0.0202 -0.2611
 5888TIP3    H139223   3.682   6.474   0.700 -1.7157 -2.1072 -0.3781
 5888TIP3    H239224   3.756   6.546   0.589 -3.0090  3.1908  1.8441
 5889TIP3   OH239225   4.124   5.159   0.347 -0.3854  0.1017 -0.3648
 5889TIP3    H139226   4.156   5.080   0.391 -1.0098  1.0763  1.9424
 5889TIP3    H239227   4.200   5.216   0.342 -0.0295 -0.4376 -1.6907
 5890TIP3   OH239228   0.199   2.307   1.539  0.2011 -0.1676 -0.5655
 5890TIP3    H139229   0.217   2.217   1.565  0.9439 -0.0161 -0.5226
 5890TIP3    H239230   0.106   2.320   1.557  0.2341 -0.7270  0.0127
 5891TIP3   OH239231   6.672   5.367   1.375  0.5855 -0.1868 -0.3595
 5891TIP3    H139232   6.753   5.329   1.408 -0.5449 -1.4669  1.0551
 5891TIP3    H239233   6.689   5.461   1.373  0.9128  0.0051  3.6168
 5892TIP3   OH239234   0.464   1.842   1.482 -0.0239  0.4230 -0.5121
 5892TIP3    H139235   0.471   1.936   1.463  1.6492  0.5213  0.3441
 5892TIP3    H239236   0.446   1.838   1.576  0.5983 -0.1011 -0.4097
 5893TIP3   OH239237   3.919   3.790   7.630  0.3259 -0.1479 -0.2294
 5893TIP3    H139238   3.862   3.858   7.593  1.2572 -0.0596 -1.5763
 5893TIP3    H239239   3.960   3.831   7.705 -1.8716 -0.4295  1.2281
 5894TIP3   OH239240   2.899   0.640   7.832  0.0903 -0.3760  0.2414
 5894TIP3    H139241   2.925   0.729   7.855 -2.0765  1.1223 -2.5417
 5894TIP3    H239242   2.975   0.604   7.787  0.4888  0.5914  0.1154
 5895TIP3   OH239243   5.824   0.411   2.947 -0.2370 -0.4278  0.3115
 5895TIP3    H139244   5.740   0.440   2.911  0.7351 -0.0900 -1.8609
 5895TIP3    H239245   5.886   0.480   2.922  0.6801 -0.5433  2.0795
 5896TIP3   OH239246   1.382   2.933   7.465 -0.0573 -0.3706  0.1899
 5896TIP3    H139247   1.466   2.959   7.428  0.7180 -2.2369  0.4944
 5896TIP3    H239248   1.402   2.854   7.516 -2.0474 -1.0855 -0.0391
 5897TIP3   OH239249   0.723   3.463   0.090 -0.9854  0.0978 -0.7583
 5897TIP3    H139250   0.814   3.492   0.086 -0.6978 -0.8211 -1.3368
 5897TIP3    H239251   0.697   3.456  -0.002 -0.9869 -1.5840 -0.6497
 5898TIP3   OH239252   1.317   5.483   0.257  0.8454  0.3634  0.2872
 5898TIP3    H139253   1.279   5.463   0.172 -0.5820  2.4455  0.3798
 5898TIP3    H239254   1.372   5.560   0.241  1.9913 -0.2853  0.9382
 5899TIP3   OH239255   4.571   5.033   0.351  0.2431  0.5042 -0.3655
 5899TIP3    H139256   4.606   4.950   0.384 -0.5116  0.1009 -0.5588
 5899TIP3    H239257   4.617   5.100   0.401  0.4497 -0.0484  0.2010
 5900TIP3   OH239258   5.026   6.143   1.753  0.1718  0.2888  0.2741
 5900TIP3    H139259   4.933   6.158   1.767 -0.0873 -1.3388  0.4159
 5900TIP3    H239260   5.035   6.141   1.657  0.3558  2.0155  0.2265
 5901TIP3   OH239261   0.617   2.783   1.912  0.3224 -0.0839 -0.0185
 5901TIP3    H139262   0.623   2.774   1.816  0.9711  0.5902 -0.0448
 5901TIP3    H239263   0.530   2.820   1.927  1.1001  2.0958 -0.5363
 5902TIP3   OH239264   5.765   3.187   0.297  0.6822 -0.7035  0.0770
 5902TIP3    H139265   5.719   3.116   0.342 -1.4764 -0.7804 -2.0570
 5902TIP3    H239266   5.841   3.146   0.258  0.1069 -1.6006 -0.1222
 5903TIP3   OH239267   4.207   6.632   0.758  0.1354  0.7104  0.2735
 5903TIP3    H139268   4.138   6.567   0.744 -0.4928  1.4992 -0.4299
 5903TIP3    H239269   4.209   6.683   0.677 -0.8837  2.9445  1.5653
 5904TIP3   OH239270   0.125   4.976   1.528 -0.4633 -0.3001 -0.4480
 5904TIP3    H139271   0.123   4.899   1.470  2.6017 -0.6268 -0.2562
 5904TIP3    H239272   0.134   5.050   1.468  3.7973 -0.7046 -0.6271
 5905TIP3   OH239273   2.123   4.388   1.408 -0.7168  0.0601  0.3499
 5905TIP3    H139274   2.164   4.343   1.482  0.0911  0.1646 -0.0192
 5905TIP3    H239275   2.197   4.418   1.354 -1.2577  1.0088  0.1048
 5906TIP3   OH239276   6.189   5.700   0.415 -0.3009  0.1252  0.6372
 5906TIP3    H139277   6.161   5.612   0.439  0.3732 -0.4245 -0.4966
 5906TIP3    H239278   6.264   5.718   0.471  0.7595 -0.8168 -0.4348
 5907TIP3   OH239279   0.583   5.276   2.111  0.3170 -0.2813 -0.4327
 5907TIP3    H139280   0.635   5.355   2.124  1.1055 -0.7583 -0.5817
 5907TIP3    H239281   0.563   5.275   2.018  0.0140 -0.0818 -0.3700
 5908TIP3   OH239282   0.194   3.625   0.379 -0.5590  0.0787  0.1767
 5908TIP3    H139283   0.164   3.550   0.328 -0.5385 -0.2345  0.6159
 5908TIP3    H239284   0.152   3.613   0.465 -0.1842  0.3190  0.3959
 5909TIP3   OH239285   3.090   0.563   0.068  0.3213 -0.2347  0.6302
 5909TIP3    H139286   3.049   0.530   0.148  1.1678 -0.7514  0.8659
 5909TIP3    H239287   3.179   0.588   0.096 -0.0390  1.5638  0.3108
 5910TIP3   OH239288   6.044   0.046   7.609 -0.0694  0.2912 -0.5186
 5910TIP3    H139289   6.106   0.108   7.647 -1.2054  1.3505 -0.3403
 5910TIP3    H239290   5.962   0.095   7.602 -1.3587 -1.5643  0.7945
 5911TIP3   OH239291   5.431   6.023   8.747  0.0862  0.0523  0.4599
 5911TIP3    H139292   5.481   6.105   8.742  0.7178 -0.3961 -1.7861
 5911TIP3    H239293   5.468   5.977   8.822 -0.3176  1.8127  1.7969
 5912TIP3   OH239294   6.029   2.989   7.375 -0.7977 -0.5517  0.2601
 5912TIP3    H139295   6.026   3.082   7.395  1.6796 -0.0936 -1.0799
 5912TIP3    H239296   6.020   2.984   7.280 -0.7621 -1.6664  0.2959
 5913TIP3   OH239297   5.983   6.021   2.807 -0.0550 -0.2250  0.3303
 5913TIP3    H139298   5.905   5.967   2.799 -0.5105  0.3140  1.0344
 5913TIP3    H239299   5.985   6.073   2.726  0.3416 -1.2137 -0.3127
 5914TIP3   OH239300   3.074   2.751   0.013  0.1582 -0.0166  0.2056
 5914TIP3    H139301   3.095   2.845   0.019 -0.0614  0.0568 -0.1505
 5914TIP3    H239302   3.019   2.744  -0.065  2.1685 -0.8035 -1.2330
 5915TIP3   OH239303   4.478   1.387   8.582  0.1305  0.8753 -0.3606
 5915TIP3    H139304   4.419   1.328   8.536  0.8351  0.2757 -0.5003
 5915TIP3    H239305   4.429   1.469   8.589 -1.3746 -0.0934  0.9830
 5916TIP3   OH239306   6.655   6.282   1.043  0.1042  0.7914 -0.6115
 5916TIP3    H139307   6.697   6.198   1.030 -1.3807 -0.3858  1.5259
 5916TIP3    H239308   6.650   6.292   1.138 -1.3773  2.4071 -0.8025
 5917TIP3   OH239309   0.868   2.189   0.549 -0.4817 -0.5309 -0.1876
 5917TIP3    H139310   0.936   2.150   0.493  0.0531 -0.3016  0.2970
 5917TIP3    H239311   0.857   2.278   0.515 -0.0646 -0.3488  0.1509
 5918TIP3   OH239312   3.392   2.351   0.266 -0.5999  0.7058 -0.0247
 5918TIP3    H139313   3.356   2.406   0.197  0.3018  0.9264 -0.3298
 5918TIP3    H239314   3.438   2.281   0.220  0.7433  1.3258  0.2993
 5919TIP3   OH239315   3.938   1.356   1.759  0.1583  0.1222  0.4983
 5919TIP3    H139316   3.925   1.377   1.666  0.1216  1.2353  0.7331
 5919TIP3    H239317   3.873   1.290   1.778 -0.8753  0.9890  0.0907
 5920TIP3   OH239318   2.802   0.831   0.447  0.4429 -0.1160  0.2626
 5920TIP3    H139319   2.892   0.858   0.429  0.5423 -0.5427  0.1212
 5920TIP3    H239320   2.782   0.766   0.379 -0.8868  1.8957 -1.4372
 5921TIP3   OH239321   1.923   0.452   2.583  0.3636  0.3358  0.3770
 5921TIP3    H139322   1.954   0.381   2.526  1.9860  0.9337  0.4857
 5921TIP3    H239323   1.846   0.414   2.627 -0.0594 -0.6259 -1.1067
 5922TIP3   OH239324   3.051   5.848   0.336 -0.8089  0.4872  0.0242
 5922TIP3    H139325   3.065   5.782   0.268 -2.9718  0.4421 -0.4698
 5922TIP3    H239326   2.964   5.883   0.316 -0.1814  2.7129  0.9330
 5923TIP3   OH239327   1.429   2.539   0.729 -0.3568  0.0380  0.1946
 5923TIP3    H139328   1.431   2.513   0.637 -1.1901  1.4006 -0.2399
 5923TIP3    H239329   1.442   2.458   0.777 -2.0002 -1.0694 -1.1005
 5924TIP3   OH239330   5.098   0.034   7.988 -0.5445 -0.5828  0.7670
 5924TIP3    H139331   5.159  -0.001   7.922 -0.6627 -1.9328  1.3441
 5924TIP3    H239332   5.089   0.127   7.965  1.1046 -0.5323  0.1865
 5925TIP3   OH239333   6.260   5.097   8.458  0.1851 -0.0790 -0.0763
 5925TIP3    H139334   6.167   5.101   8.434  0.2075 -0.0411 -0.1580
 5925TIP3    H239335   6.300   5.172   8.412  0.1446  0.2801  0.4629
 5926TIP3   OH239336   2.628   1.028   2.206  0.1461 -0.0645 -0.6270
 5926TIP3    H139337   2.626   0.933   2.199  1.7946 -0.2052  0.2644
 5926TIP3    H239338   2.697   1.055   2.145 -0.1771  0.5320 -0.7323
 5927TIP3   OH239339   6.638   5.795   0.161 -0.4518 -0.0723 -0.1066
 5927TIP3    H139340   6.727   5.765   0.179 -0.1114  0.7642 -0.3759
 5927TIP3    H239341   6.644   5.890   0.160 -1.8472  0.1507  2.5164
 5928TIP3   OH239342   3.290   4.867   8.422 -0.3914 -0.4694  0.3485
 5928TIP3    H139343   3.362   4.807   8.407  0.0094  0.1213 -0.1321
 5928TIP3    H239344   3.216   4.829   8.374  0.2768  0.2238 -1.2954
 5929TIP3   OH239345   2.322   5.200   7.524 -0.3912 -0.1873  0.3605
 5929TIP3    H139346   2.289   5.286   7.499 -0.7541 -0.0811  1.1685
 5929TIP3    H239347   2.387   5.179   7.458 -1.2036  0.1466 -0.5672
 5930TIP3   OH239348   1.077   1.864   6.900  0.4762 -0.0914 -0.0360
 5930TIP3    H139349   1.116   1.846   6.985  1.5933  1.7029 -0.1132
 5930TIP3    H239350   1.076   1.780   6.856  3.5318 -0.4457  0.3271
 5931TIP3   OH239351   3.884   0.093   1.305  0.1362  0.1836  1.0219
 5931TIP3    H139352   3.912   0.007   1.273  1.9181 -0.7175  4.5525
 5931TIP3    H239353   3.953   0.153   1.275 -1.5829  0.7804 -2.2807
 5932TIP3   OH239354   0.366   5.483   0.248 -0.0774  0.0411  0.3526
 5932TIP3    H139355   0.385   5.414   0.183  0.0554 -0.9666  1.4211
 5932TIP3    H239356   0.404   5.562   0.210 -0.5136 -0.3868 -1.0667
 5933TIP3   OH239357   1.069   5.238   2.645 -0.1001  0.0717 -0.4604
 5933TIP3    H139358   1.158   5.259   2.675 -0.6671  2.0432 -0.0252
 5933TIP3    H239359   1.025   5.207   2.724 -0.5125  1.6255 -0.0467
 5934TIP3   OH239360   2.259   0.837   2.284 -0.2097  0.4061 -1.1814
 5934TIP3    H139361   2.226   0.757   2.242 -1.4094  0.6046 -0.6472
 5934TIP3    H239362   2.338   0.808   2.329 -1.8387 -1.0576  0.9280
 5935TIP3   OH239363   1.143   1.738   7.138 -0.6603  0.0647  0.1212
 5935TIP3    H139364   1.061   1.761   7.182 -0.5094  0.9563 -0.0428
 5935TIP3    H239365   1.145   1.642   7.141 -0.5443  0.0840  2.2392
 5936TIP3   OH239366   3.204   6.153   1.448  0.5045 -0.3307  0.4553
 5936TIP3    H139367   3.284   6.103   1.435  0.5828  0.2384 -1.6013
 5936TIP3    H239368   3.234   6.244   1.459  0.1655  0.0704 -1.4880
 5937TIP3   OH239369   4.514   0.149   2.073 -0.1902 -0.7829 -0.2269
 5937TIP3    H139370   4.509   0.132   1.979 -1.2323 -0.8599 -0.1713
 5937TIP3    H239371   4.486   0.067   2.114  0.5747 -0.8576  0.1669
 5938TIP3   OH239372   4.126   3.839   2.668  0.1169 -0.2813  0.0312
 5938TIP3    H139373   4.051   3.782   2.687 -1.2107  0.9369 -1.2762
 5938TIP3    H239374   4.157   3.808   2.582 -0.2812  0.5842 -0.4400
 5939TIP3   OH239375   5.159   5.409   0.807 -0.1912 -0.1928 -0.3630
 5939TIP3    H139376   5.200   5.343   0.751  2.4643 -0.0892  1.3164
 5939TIP3    H239377   5.111   5.359   0.872 -0.2663 -0.3889 -0.5668
 5940TIP3   OH239378   3.094   6.351   0.351  0.2548 -0.1309 -0.0166
 5940TIP3    H139379   3.052   6.277   0.307 -1.7454  0.0394  1.4615
 5940TIP3    H239380   3.028   6.384   0.412  2.1133  1.0366  1.5003
 5941TIP3   OH239381   1.640   0.778   2.985  0.0311 -0.1239  0.2006
 5941TIP3    H139382   1.632   0.685   3.005  2.4862 -0.1165  1.6664
 5941TIP3    H239383   1.732   0.798   3.002 -0.3843  2.5374 -0.2724
 5942TIP3   OH239384   4.306   0.948   1.974 -0.2593 -0.0881  0.2444
 5942TIP3    H139385   4.265   1.026   1.938  2.4774  1.4773  0.2684
 5942TIP3    H239386   4.341   0.901   1.898  1.2524  0.6605  0.4425
 5943TIP3   OH239387   0.651   0.850   8.518 -0.4735 -0.2031 -0.1675
 5943TIP3    H139388   0.635   0.803   8.436 -0.9774  1.5665 -1.1248
 5943TIP3    H239389   0.574   0.829   8.572 -0.5196 -0.7508 -0.4353
 5944TIP3   OH239390   3.758   0.734   2.497  0.0698  0.2819  0.0679
 5944TIP3    H139391   3.669   0.729   2.532  0.8208  0.0639  2.0569
 5944TIP3    H239392   3.769   0.827   2.474 -0.8373  0.2070 -0.7943
 5945TIP3   OH239393   5.497   5.583   8.778  0.5082 -0.0323  0.3982
 5945TIP3    H139394   5.556   5.629   8.838 -0.1044  0.7022  0.4515
 5945TIP3    H239395   5.410   5.619   8.797  0.2311 -0.1541 -0.5823
 5946TIP3   OH239396   2.637   3.765   8.289 -0.2400 -0.3217  0.4833
 5946TIP3    H139397   2.636   3.813   8.372 -2.4789  0.0879  0.2578
 5946TIP3    H239398   2.548   3.770   8.256  0.3573 -1.3639 -1.4744
 5947TIP3   OH239399   0.346   6.576   1.406 -0.1851  0.1655  0.3632
 5947TIP3    H139400   0.343   6.616   1.493 -1.4096 -2.1512  1.4792
 5947TIP3    H239401   0.434   6.539   1.399  0.0622  0.7323  0.4004
 5948TIP3   OH239402   5.925   0.600   1.718  0.7520  0.2698 -0.2018
 5948TIP3    H139403   5.936   0.561   1.805 -0.3942  1.4085  0.4931
 5948TIP3    H239404   5.875   0.680   1.734 -0.7171 -0.2044 -2.0804
 5949TIP3   OH239405   5.678   0.040   1.263  0.3348 -0.1561 -0.0029
 5949TIP3    H139406   5.669   0.116   1.205 -0.7664 -0.2818 -0.0125
 5949TIP3    H239407   5.697  -0.033   1.205  1.7241  0.1344  0.0304
 5950TIP3   OH239408   1.125   0.086   1.941 -0.2927 -0.2883  0.0257
 5950TIP3    H139409   1.075   0.138   2.004  0.7812 -0.6750  1.2477
 5950TIP3    H239410   1.207   0.067   1.986  1.1301  0.6187 -2.0248
 5951TIP3   OH239411   5.234   4.194   8.151 -0.3141 -0.3448 -0.9722
 5951TIP3    H139412   5.221   4.144   8.070 -2.9869 -1.7704  0.2325
 5951TIP3    H239413   5.208   4.134   8.221  1.7661  0.8897  1.0041
 5952TIP3   OH239414   3.163   4.663   1.990  0.0567 -0.0272  0.8647
 5952TIP3    H139415   3.196   4.752   1.999  0.5350  0.3369 -2.9164
 5952TIP3    H239416   3.154   4.631   2.080 -1.5777  4.2781  2.4834
 5953TIP3   OH239417   5.677   1.232   0.081 -0.5941  0.2288  0.3301
 5953TIP3    H139418   5.632   1.181   0.013 -0.0743  0.9625 -0.5863
 5953TIP3    H239419   5.617   1.231   0.155 -1.0447 -0.8457 -0.0212
 5954TIP3   OH239420   6.423   2.154   0.789  0.1772 -0.3744 -1.2723
 5954TIP3    H139421   6.420   2.206   0.870 -0.9017  0.1895 -1.6581
 5954TIP3    H239422   6.515   2.126   0.783  1.1747  2.5596 -1.6812
 5955TIP3   OH239423   4.285   6.628   1.040 -0.4640 -0.5068 -0.1296
 5955TIP3    H139424   4.267   6.623   0.946  0.5553 -1.5101 -0.2996
 5955TIP3    H239425   4.381   6.628   1.045 -0.5140 -1.0707  0.9318
 5956TIP3   OH239426   1.844   5.640   1.154  0.1913 -0.3308 -0.1478
 5956TIP3    H139427   1.879   5.728   1.142  2.0724 -0.6500  2.1821
 5956TIP3    H239428   1.872   5.592   1.076  0.3905  0.7722 -0.7669
 5957TIP3   OH239429   4.073   3.678   1.584 -0.4667 -0.4909 -0.4202
 5957TIP3    H139430   4.133   3.747   1.559  0.0702 -1.0955 -0.8367
 5957TIP3    H239431   4.129   3.602   1.601 -0.8509 -0.3092  1.9709
 5958TIP3   OH239432   1.612   4.397   1.016 -0.0642  0.4452  0.4736
 5958TIP3    H139433   1.640   4.309   1.038 -0.1977  0.3052  0.0986
 5958TIP3    H239434   1.609   4.444   1.099  2.3327  0.7798  0.4424
 5959TIP3   OH239435   1.823   0.522   2.235  0.0293 -0.1598 -0.2111
 5959TIP3    H139436   1.788   0.589   2.177 -0.2160 -0.0011  0.1191
 5959TIP3    H239437   1.747   0.472   2.263 -0.0843  0.7778  1.2598
 5960TIP3   OH239438   6.115   0.160   7.024 -0.2890 -0.4690  0.4760
 5960TIP3    H139439   6.195   0.193   7.065  0.2502 -0.9990 -0.1400
 5960TIP3    H239440   6.052   0.155   7.096  0.4053 -0.6232  1.0865
 5961TIP3   OH239441   5.175   3.919   8.688 -0.7137 -0.1261  0.6216
 5961TIP3    H139442   5.090   3.877   8.702 -0.9607  0.7918  2.1158
 5961TIP3    H239443   5.213   3.924   8.776  0.7506 -0.2259  0.0130
 5962TIP3   OH239444   1.130   2.379   7.293  0.3534 -0.7845 -0.5024
 5962TIP3    H139445   1.216   2.357   7.256  0.6339 -2.1494  0.8579
 5962TIP3    H239446   1.137   2.356   7.386 -0.9828  0.5968 -0.0089
 5963TIP3   OH239447   2.045   2.337   7.369  0.3127  0.4819 -0.1967
 5963TIP3    H139448   2.088   2.263   7.326  0.2683 -1.1209  2.2582
 5963TIP3    H239449   2.107   2.409   7.361  1.3579 -0.4517 -0.7826
 5964TIP3   OH239450   4.502   3.061   2.554  0.1988  0.4673 -0.1454
 5964TIP3    H139451   4.580   3.093   2.600  1.0352 -0.3387 -0.9554
 5964TIP3    H239452   4.461   3.001   2.616  0.1524  0.9935  0.3357
 5965TIP3   OH239453   5.811   0.973   0.364  0.1086  0.1749  0.2482
 5965TIP3    H139454   5.847   1.060   0.382 -1.1001  0.8887 -0.6496
 5965TIP3    H239455   5.880   0.913   0.390 -0.0053  1.2404  3.5642
 5966TIP3   OH239456   1.677   1.636   7.665  0.1740 -0.1679 -0.1268
 5966TIP3    H139457   1.645   1.547   7.650 -0.0051  0.2476 -2.9055
 5966TIP3    H239458   1.606   1.680   7.711 -0.7307 -0.8831 -0.8044
 5967TIP3   OH239459   2.410   2.140   0.646  0.1847  0.1785 -0.1150
 5967TIP3    H139460   2.374   2.223   0.617 -1.1786 -0.2637  0.2280
 5967TIP3    H239461   2.424   2.152   0.740 -1.1676 -0.3394  0.1799
 5968TIP3   OH239462   4.644   2.082   2.432  0.6480 -0.2111  0.3761
 5968TIP3    H139463   4.582   2.109   2.500 -0.2728  1.1698 -0.9409
 5968TIP3    H239464   4.726   2.124   2.457 -0.3003  2.4613 -0.6187
 5969TIP3   OH239465   4.638   1.677   8.374  0.2179  0.8462  0.1474
 5969TIP3    H139466   4.579   1.750   8.391  0.0460  0.2826  2.3360
 5969TIP3    H239467   4.591   1.600   8.407  1.2803  0.0666 -0.0928
 5970TIP3   OH239468   3.901   0.689   1.465 -0.0310 -0.1123 -0.6023
 5970TIP3    H139469   3.812   0.721   1.457 -0.4256 -0.8841  0.4465
 5970TIP3    H239470   3.896   0.618   1.530  1.5590  0.7542  0.5398
 5971TIP3   OH239471   6.460   2.543   1.923 -0.3788 -0.6805  0.1223
 5971TIP3    H139472   6.520   2.492   1.978  0.4139 -0.0876 -0.1793
 5971TIP3    H239473   6.509   2.622   1.900 -1.2657 -0.2008 -0.1668
 5972TIP3   OH239474   0.367   5.192   2.593 -0.0631  0.0168  0.2679
 5972TIP3    H139475   0.363   5.283   2.622 -0.1082 -0.0202  0.3796
 5972TIP3    H239476   0.322   5.143   2.662 -1.4987  0.0844 -0.5878
 5973TIP3   OH239477   2.668   4.718   8.865  0.4263  1.0399  0.1731
 5973TIP3    H139478   2.686   4.631   8.829 -2.6105  0.0649  0.7209
 5973TIP3    H239479   2.647   4.772   8.788  0.1616  0.6800 -0.0083
 5974TIP3   OH239480   4.422   6.068   7.945  0.2458  0.2727 -0.1537
 5974TIP3    H139481   4.404   6.124   8.020  1.6449 -0.2733  0.6252
 5974TIP3    H239482   4.341   6.069   7.894 -0.3172  1.6096  0.7331
 5975TIP3   OH239483   6.040   0.601   0.186  0.1501  0.1004  0.0413
 5975TIP3    H139484   5.960   0.654   0.187  0.2020  0.2779 -1.4780
 5975TIP3    H239485   6.009   0.511   0.184  0.0526  0.0539  2.1065
 5976TIP3   OH239486   1.551   6.755   7.745 -0.3172 -0.3192 -0.6510
 5976TIP3    H139487   1.574   6.842   7.776  0.9185 -1.1144  0.8369
 5976TIP3    H239488   1.494   6.770   7.670 -1.1333  1.7573  0.3037
 5977TIP3   OH239489   3.799   4.095   8.537 -0.0863 -0.2643  0.9452
 5977TIP3    H139490   3.827   4.164   8.477 -2.1235 -0.2461 -0.0890
 5977TIP3    H239491   3.706   4.113   8.552 -0.0323 -1.2898  2.7571
 5978TIP3   OH239492   6.702   1.883   2.466 -0.1873  0.5644 -0.6185
 5978TIP3    H139493   6.785   1.854   2.504 -0.6586  0.0639  0.0554
 5978TIP3    H239494   6.635   1.842   2.520 -0.8845  0.6051 -1.4239
 5979TIP3   OH239495   2.176   4.176   2.789 -0.3171  0.0151 -0.1054
 5979TIP3    H139496   2.230   4.173   2.868 -1.2770  1.1161  0.6362
 5979TIP3    H239497   2.219   4.116   2.728  1.0314 -0.0719  0.8797
 5980TIP3   OH239498   0.777   5.502   2.291  0.3173 -0.1443  0.1723
 5980TIP3    H139499   0.852   5.450   2.320  0.0436  0.5797  2.3365
 5980TIP3    H239500   0.700   5.455   2.324  0.0129  0.9349  1.0509
 5981TIP3   OH239501   6.752   0.101   7.851  0.6036  0.0925  0.0204
 5981TIP3    H139502   6.759   0.041   7.926  0.2867 -1.3872 -1.0931
 5981TIP3    H239503   6.813   0.065   7.786 -0.9940 -0.1821 -1.4054
 5982TIP3   OH239504   2.703   5.124   1.909 -0.0624  0.6803 -0.1341
 5982TIP3    H139505   2.680   5.180   1.983 -3.9763 -0.4825 -0.2693
 5982TIP3    H239506   2.730   5.185   1.840  0.8116  1.9694  1.2924
 5983TIP3   OH239507   5.013   6.236   1.205  0.3509  0.1127 -0.0512
 5983TIP3    H139508   4.940   6.289   1.172 -0.3394 -0.5680  0.3462
 5983TIP3    H239509   5.086   6.258   1.148 -0.2226  0.6421 -0.6059
 5984TIP3   OH239510   1.671   1.759   1.004 -0.0905  0.7376  0.2296
 5984TIP3    H139511   1.750   1.714   1.035  0.7797  0.9979 -1.5093
 5984TIP3    H239512   1.648   1.819   1.076  1.4847  0.8884  0.6476
 5985TIP3   OH239513   4.633   5.021   8.793 -0.0495 -0.0390  0.1356
 5985TIP3    H139514   4.594   4.938   8.819 -1.3162 -0.4508 -2.6678
 5985TIP3    H239515   4.716   4.997   8.751  0.4898  0.3136  0.9717
 5986TIP3   OH239516   0.309   1.834   7.205 -0.1021 -0.3512  0.1312
 5986TIP3    H139517   0.388   1.867   7.246 -0.0412 -0.4171  0.0668
 5986TIP3    H239518   0.294   1.749   7.246 -0.0423 -0.4162  0.0171
 5987TIP3   OH239519   0.492   6.419   2.729  0.0512 -0.1525 -0.5764
 5987TIP3    H139520   0.488   6.384   2.639 -0.3625 -0.1544 -0.5595
 5987TIP3    H239521   0.421   6.375   2.775  0.3218 -0.2220 -0.2182
 5988TIP3   OH239522   2.931   0.873   1.395  0.1377  0.4287  0.1531
 5988TIP3    H139523   2.857   0.909   1.444 -1.2278 -0.7593 -0.9504
 5988TIP3    H239524   2.923   0.779   1.406  0.7203  0.2253 -1.0718
 5989TIP3   OH239525   2.762   3.056   0.289 -0.1795 -0.4688  0.3523
 5989TIP3    H139526   2.691   3.017   0.340 -0.9809  0.4206 -0.0348
 5989TIP3    H239527   2.740   3.149   0.286  2.3995  0.3207  2.4583
 5990TIP3   OH239528   5.202   2.973   0.586 -0.5476  0.1948  0.0452
 5990TIP3    H139529   5.288   3.010   0.604 -0.2449 -0.8275  0.7956
 5990TIP3    H239530   5.140   3.043   0.609  0.0139  0.3274  1.1882
 5991TIP3   OH239531   1.765   3.906   1.260 -0.1558 -0.4922  0.6086
 5991TIP3    H139532   1.737   3.953   1.338  1.4926  0.3676  0.7321
 5991TIP3    H239533   1.853   3.874   1.282  0.9147  0.9219 -1.3170
 5992TIP3   OH239534   2.159   4.764   2.014  0.3484  0.1440 -0.0038
 5992TIP3    H139535   2.182   4.775   1.922 -1.3039  1.2360 -0.3289
 5992TIP3    H239536   2.121   4.847   2.039  0.6377 -0.1919  1.6509
 5993TIP3   OH239537   4.329   0.275   2.231 -0.4301  0.6715  0.0738
 5993TIP3    H139538   4.281   0.193   2.240 -0.4947  0.4983 -1.5209
 5993TIP3    H239539   4.406   0.251   2.178 -0.7321  1.7262 -0.8737
 5994TIP3   OH239540   1.436   5.069   1.165  0.5292  0.2736 -0.1845
 5994TIP3    H139541   1.404   5.156   1.190  1.7911  0.6886  0.0695
 5994TIP3    H239542   1.525   5.065   1.201  0.2199 -1.4380  0.4889
 5995TIP3   OH239543   6.542   2.129   1.605 -0.0927  0.1864 -0.3650
 5995TIP3    H139544   6.606   2.135   1.676 -0.3831 -0.1664 -0.0676
 5995TIP3    H239545   6.576   2.187   1.537  1.7117 -1.6388 -1.1149
 5996TIP3   OH239546   3.882   2.788   1.270 -0.1700 -0.1601 -0.9366
 5996TIP3    H139547   3.895   2.696   1.290 -0.6731  0.2479  1.5021
 5996TIP3    H239548   3.838   2.824   1.347  1.8118  2.5344 -0.9294
 5997TIP3   OH239549   1.602   4.780   1.520 -0.0648 -0.0281  0.3341
 5997TIP3    H139550   1.539   4.712   1.494  0.3289 -0.6486  0.9534
 5997TIP3    H239551   1.551   4.838   1.577 -0.4609  0.3356 -0.3729
 5998TIP3   OH239552   3.715   2.978   7.291  0.6138  0.2685  0.1720
 5998TIP3    H139553   3.698   3.034   7.215 -0.4603 -2.0231 -1.3691
 5998TIP3    H239554   3.739   2.893   7.254 -1.3169 -1.3445  2.3516
 5999TIP3   OH239555   4.150   2.090   0.372 -0.0535  0.2527  0.3217
 5999TIP3    H139556   4.238   2.098   0.336  0.6286 -0.7088  1.6733
 5999TIP3    H239557   4.117   2.008   0.336 -0.6425  0.8924 -0.6350
 6000TIP3   OH239558   0.917   0.150   2.483 -0.2611 -0.2011  0.1216
 6000TIP3    H139559   0.871   0.138   2.566 -1.4257  1.2858 -0.2751
 6000TIP3    H239560   0.989   0.086   2.486  0.7282  0.8877  2.9816
 6001TIP3   OH239561   4.812   5.738   1.880 -0.6659 -0.7740 -0.4937
 6001TIP3    H139562   4.825   5.692   1.963  0.1279 -1.0493 -0.7570
 6001TIP3    H239563   4.781   5.825   1.905  3.4117  0.6663  0.4319
 6002TIP3   OH239564   2.630   5.994   1.002 -0.0378  0.1675  0.2020
 6002TIP3    H139565   2.689   5.940   1.055  1.5116 -1.2995 -2.7154
 6002TIP3    H239566   2.661   6.083   1.014  0.7918 -0.2300  1.1010
 6003TIP3   OH239567   0.702   0.338   2.038  0.6109 -0.5477  0.0867
 6003TIP3    H139568   0.622   0.374   2.077  1.6037  1.7691  0.1248
 6003TIP3    H239569   0.764   0.333   2.110  1.4856  0.8033 -0.5381
 6004TIP3   OH239570   0.755   4.817   3.071  0.0468  0.1142  0.2363
 6004TIP3    H139571   0.796   4.841   2.988  0.1211  1.7896  0.7177
 6004TIP3    H239572   0.775   4.891   3.130 -0.2088 -0.9148  1.6725
 6005TIP3   OH239573   4.665   5.533   8.892  0.4717 -0.5881 -0.2138
 6005TIP3    H139574   4.600   5.474   8.854 -0.3311 -0.5542  1.0507
 6005TIP3    H239575   4.737   5.532   8.829 -0.6388 -0.7966 -1.5537
 6006TIP3   OH239576   6.481   4.072   8.277  0.2093 -0.5770 -0.3818
 6006TIP3    H139577   6.522   4.122   8.347 -0.2423 -1.3159  0.4309
 6006TIP3    H239578   6.479   4.132   8.202 -2.5521  1.5628  1.2233
 6007TIP3   OH239579   3.448   0.273   0.830  0.7108  0.8164  0.1005
 6007TIP3    H139580   3.476   0.224   0.907 -1.4185 -1.7900 -0.6162
 6007TIP3    H239581   3.483   0.223   0.756 -0.1512  1.2965 -0.6477
 6008TIP3   OH239582   3.870   3.786   8.594 -0.3440  0.7171  0.1209
 6008TIP3    H139583   3.824   3.846   8.535  0.6844  1.3305 -0.0722
 6008TIP3    H239584   3.826   3.798   8.679 -0.2521  1.6434  0.0530
 6009TIP3   OH239585   2.005   3.228   8.025 -0.0343  0.6220  0.0523
 6009TIP3    H139586   2.100   3.239   8.026  0.2947 -1.1538 -2.0943
 6009TIP3    H239587   1.976   3.275   7.947 -0.9360  1.0796  0.6418
 6010TIP3   OH239588   5.903   1.249   1.613 -0.5580 -0.2575 -0.9968
 6010TIP3    H139589   5.960   1.243   1.537  0.0432  0.2703 -0.6066
 6010TIP3    H239590   5.963   1.269   1.686 -1.1224 -0.7348 -0.3951
 6011TIP3   OH239591   2.345   4.117   8.333 -0.7384 -0.0157  0.2368
 6011TIP3    H139592   2.279   4.157   8.276 -0.8323 -0.5278 -0.0188
 6011TIP3    H239593   2.299   4.100   8.415 -0.3824  1.5187  0.7912
 6012TIP3   OH239594   1.955   4.085   1.644  0.1024 -0.1333 -0.2774
 6012TIP3    H139595   2.038   4.119   1.677  0.3912 -1.1172  0.0531
 6012TIP3    H239596   1.908   4.056   1.722 -0.6769  0.6565 -0.4390
 6013TIP3   OH239597   3.347   5.616   2.806  0.5981 -0.4484 -0.2012
 6013TIP3    H139598   3.426   5.659   2.839  0.4114 -1.4354  1.6979
 6013TIP3    H239599   3.330   5.547   2.870 -1.4576 -0.6599 -0.9230
 6014TIP3   OH239600   4.817   5.713   1.042 -0.0291 -0.5076  0.3087
 6014TIP3    H139601   4.737   5.765   1.052  0.4451  0.2688  0.1354
 6014TIP3    H239602   4.888   5.772   1.065  0.4515 -1.5176  1.5550
 6015TIP3   OH239603   0.613   6.207   2.044  0.2921  0.3680  0.2365
 6015TIP3    H139604   0.529   6.220   2.001  0.0554  1.2341  0.9367
 6015TIP3    H239605   0.661   6.288   2.029  1.0466 -0.1518 -0.2324
 6016TIP3   OH239606   2.190   4.778   8.375  0.9471  0.0259  0.0108
 6016TIP3    H139607   2.236   4.854   8.338  1.4792 -1.1586 -1.9474
 6016TIP3    H239608   2.249   4.704   8.356 -0.5533 -1.1667 -0.1539
 6017TIP3   OH239609   0.919   5.929   1.693 -0.3693 -0.8440 -0.4130
 6017TIP3    H139610   0.842   5.883   1.727 -4.2389  3.7751 -1.8888
 6017TIP3    H239611   0.901   5.941   1.600  1.9009  0.9278 -0.7185
 6018TIP3   OH239612   5.945   5.237   8.717  0.1641 -0.1741  0.1282
 6018TIP3    H139613   6.039   5.240   8.732  0.4689  1.5625 -1.6859
 6018TIP3    H239614   5.911   5.313   8.764 -0.3254 -0.6290  0.5329
 6019TIP3   OH239615   5.688   5.717   1.427  0.2282 -0.2581  0.1167
 6019TIP3    H139616   5.768   5.769   1.432  0.0822 -0.0047 -0.1522
 6019TIP3    H239617   5.645   5.748   1.347 -0.3865 -0.0385  0.5334
 6020TIP3   OH239618   2.213   1.838   8.084 -0.3666 -0.2266 -0.3804
 6020TIP3    H139619   2.229   1.835   8.178  2.2634 -2.4956 -0.7465
 6020TIP3    H239620   2.126   1.800   8.073 -1.0046  0.7312  1.1528
 6021TIP3   OH239621   3.726   0.231   7.034 -0.1902 -0.5395  0.2330
 6021TIP3    H139622   3.743   0.181   6.954  2.2845  0.7657 -0.1693
 6021TIP3    H239623   3.747   0.170   7.105  0.3254 -0.8575 -0.1855
 6022TIP3   OH239624   5.190   5.853   0.918 -0.8303 -0.3051 -0.5352
 6022TIP3    H139625   5.253   5.925   0.926  0.5649 -1.6119  0.9674
 6022TIP3    H239626   5.206   5.816   0.832 -0.0359 -0.1629 -0.4537
 6023TIP3   OH239627   4.799   1.172   7.172  0.0636 -0.2010  0.1292
 6023TIP3    H139628   4.854   1.100   7.205  0.6795  0.0299 -0.3566
 6023TIP3    H239629   4.858   1.248   7.171 -0.3940  0.1552  0.0125
 6024TIP3   OH239630   3.828   5.875   0.250 -0.2365  0.3036  0.0514
 6024TIP3    H139631   3.849   5.797   0.199  0.1871  1.0711 -0.9907
 6024TIP3    H239632   3.733   5.874   0.257 -0.5507  1.2953 -2.6965
 6025TIP3   OH239633   0.091   1.565   8.376 -0.1194  0.1851 -0.2011
 6025TIP3    H139634   0.085   1.659   8.390  1.3937  0.6147 -2.0651
 6025TIP3    H239635   0.118   1.530   8.461 -1.2355  1.3361  0.6634
 6026TIP3   OH239636   4.536   0.721   0.747  0.5120 -0.5482  0.3501
 6026TIP3    H139637   4.456   0.693   0.702 -0.0759  0.8171  0.5008
 6026TIP3    H239638   4.511   0.728   0.839  0.5614  0.6599  0.2895
 6027TIP3   OH239639   3.497   2.422   0.772  0.6449 -0.1425 -0.3189
 6027TIP3    H139640   3.588   2.405   0.748  1.2070 -2.1544  2.7355
 6027TIP3    H239641   3.502   2.464   0.858 -1.3146  0.3190 -0.3750
 6028TIP3   OH239642   4.724   0.415   0.868  0.5610 -0.4970  0.1809
 6028TIP3    H139643   4.819   0.424   0.873  0.8932 -0.8548 -3.1246
 6028TIP3    H239644   4.694   0.492   0.820 -0.8075 -0.5718  0.8367
 6029TIP3   OH239645   2.327   1.511   1.254 -0.1240 -0.0315 -0.4352
 6029TIP3    H139646   2.254   1.502   1.192  1.2857 -0.8491 -2.0739
 6029TIP3    H239647   2.365   1.597   1.234 -0.2541  0.1312 -0.0021
 6030TIP3   OH239648   5.970   5.976   8.264 -0.4416 -0.3296 -0.0529
 6030TIP3    H139649   5.996   5.912   8.198  0.2869 -0.5117  0.3949
 6030TIP3    H239650   5.900   5.933   8.313 -1.9983  0.3449 -1.5679
 6031TIP3   OH239651   6.503   5.483   7.516  0.0547 -0.0923 -0.2582
 6031TIP3    H139652   6.587   5.508   7.555  0.5953 -0.0674 -1.3834
 6031TIP3    H239653   6.525   5.453   7.428 -1.1661  0.4225 -0.7787
 6032TIP3   OH239654   1.063   6.618   7.660  0.3685 -0.0382 -0.4855
 6032TIP3    H139655   1.135   6.649   7.605  0.7891 -0.4651 -0.1930
 6032TIP3    H239656   1.107   6.569   7.731 -0.2763 -1.7753 -1.2218
 6033TIP3   OH239657   5.798   5.592   1.839  0.7355  0.2712 -0.0608
 6033TIP3    H139658   5.838   5.677   1.855  2.4263 -0.1636 -1.6703
 6033TIP3    H239659   5.713   5.612   1.800  1.5025  1.2465 -1.2863
 6034TIP3   OH239660   5.276   2.550   7.072 -0.1904 -0.3188 -0.0155
 6034TIP3    H139661   5.359   2.503   7.081  1.3571  2.3967  0.7840
 6034TIP3    H239662   5.213   2.494   7.117  1.6385 -1.3546  1.4065
 6035TIP3   OH239663   5.429   3.826   7.474 -0.7700 -0.6471  0.0463
 6035TIP3    H139664   5.392   3.879   7.404  0.6441  0.5481  0.1540
 6035TIP3    H239665   5.500   3.777   7.432  0.8804  0.9668  0.7939
 6036TIP3   OH239666   2.943   6.395   2.037  0.5334 -0.1884 -0.0853
 6036TIP3    H139667   2.888   6.353   1.972  3.7262 -2.3233 -1.7120
 6036TIP3    H239668   2.942   6.488   2.014 -2.2384 -0.1150  0.0059
 6037TIP3   OH239669   6.455   5.453   1.579 -0.1289  0.0931  0.1122
 6037TIP3    H139670   6.478   5.439   1.487 -1.5687  1.6471 -0.5280
 6037TIP3    H239671   6.367   5.418   1.588  0.1227 -0.3418  0.9998
 6038TIP3   OH239672   5.694   4.753   1.268 -0.0496  0.1568  0.2414
 6038TIP3    H139673   5.776   4.724   1.307  0.8427  1.6627 -0.4135
 6038TIP3    H239674   5.697   4.723   1.178 -0.1748  0.2991  0.1885
 6039TIP3   OH239675   1.506   6.746   0.577  0.6952 -0.6110  0.4577
 6039TIP3    H139676   1.488   6.813   0.642  1.0650 -0.8938  0.8495
 6039TIP3    H239677   1.595   6.717   0.595  0.7982 -0.6954 -0.1675
 6040TIP3   OH239678   1.553   0.286   7.840  0.4061  0.0087 -0.3678
 6040TIP3    H139679   1.507   0.287   7.924  1.8114  1.2340  0.4378
 6040TIP3    H239680   1.532   0.370   7.800  0.4962 -0.1765 -0.8144
 6041TIP3   OH239681   3.494   5.536   7.239  0.5204 -0.6174  0.3697
 6041TIP3    H139682   3.500   5.496   7.326  0.2385  0.0902  0.7172
 6041TIP3    H239683   3.584   5.534   7.206  0.6619 -0.7239  0.7529
 6042TIP3   OH239684   0.028   6.292   8.450 -0.3553  0.3470 -0.1637
 6042TIP3    H139685  -0.055   6.336   8.432 -1.2243 -0.8552  0.6669
 6042TIP3    H239686   0.065   6.273   8.364 -2.3824 -1.6323 -0.7204
 6043TIP3   OH239687   6.493   5.451   0.366 -0.2759  0.0079 -0.5059
 6043TIP3    H139688   6.552   5.449   0.291  0.5193  0.1834  0.1076
 6043TIP3    H239689   6.494   5.361   0.400  1.0895  0.4217  0.6071
 6044TIP3   OH239690   5.199   3.936   1.334  0.3794 -0.1739  0.3854
 6044TIP3    H139691   5.156   4.009   1.291 -0.7356 -0.3696  1.1148
 6044TIP3    H239692   5.187   3.953   1.428 -3.0566 -2.9434  0.6781
 6045TIP3   OH239693   1.132   4.250   8.213  0.1489 -0.6437 -0.0161
 6045TIP3    H139694   1.225   4.266   8.194  0.0628 -0.5081 -0.3169
 6045TIP3    H239695   1.090   4.249   8.128  0.1965 -2.8514 -0.0770
 6046TIP3   OH239696   4.640   3.698   8.027  0.3726 -0.0999 -0.1283
 6046TIP3    H139697   4.694   3.777   8.038  0.0502  0.0158  0.6489
 6046TIP3    H239698   4.703   3.626   8.028  0.8817  0.2127 -2.5547
 6047TIP3   OH239699   2.291   0.439   8.430  0.9369  0.5033 -0.1078
 6047TIP3    H139700   2.340   0.372   8.382  0.9086  1.1423 -1.0536
 6047TIP3    H239701   2.338   0.449   8.513  0.9868 -0.6234  0.0171
 6048TIP3   OH239702   4.788   5.578   7.461 -0.0348  0.1658  0.0521
 6048TIP3    H139703   4.768   5.556   7.370  0.6931  1.4480 -0.4421
 6048TIP3    H239704   4.784   5.494   7.507  0.1708 -0.6069 -1.2786
 6049TIP3   OH239705   1.684   6.388   0.351 -0.6406  0.0949  0.2810
 6049TIP3    H139706   1.720   6.350   0.271  0.6645 -0.1833  0.9796
 6049TIP3    H239707   1.609   6.440   0.321 -1.3180 -1.4822 -0.9114
 6050TIP3   OH239708   1.372   4.842   2.026 -0.2145  0.4079  0.5403
 6050TIP3    H139709   1.303   4.891   2.072  1.7832  1.9732  2.0633
 6050TIP3    H239710   1.437   4.909   2.004  0.7828 -0.9947 -0.9354
 6051TIP3   OH239711   3.650   1.535   2.069 -0.0322 -0.0971 -0.0610
 6051TIP3    H139712   3.594   1.582   2.007 -1.8231 -2.3187 -0.2519
 6051TIP3    H239713   3.613   1.556   2.155  0.8476  0.9280  0.0861
 6052TIP3   OH239714   1.692   3.180   2.254 -0.1248  0.4987 -0.6674
 6052TIP3    H139715   1.661   3.241   2.187 -2.8536 -1.0094 -0.9303
 6052TIP3    H239716   1.684   3.227   2.336 -2.5074  0.4743 -0.8328
 6053TIP3   OH239717   3.062   3.231   0.898  0.7533 -0.2618  0.3408
 6053TIP3    H139718   2.985   3.218   0.842  1.2280 -0.6231 -0.2406
 6053TIP3    H239719   3.064   3.326   0.913  0.8225 -0.1091 -0.5618
 6054TIP3   OH239720   2.365   0.041   8.697 -0.0882  0.9219 -0.0200
 6054TIP3    H139721   2.274   0.036   8.725 -0.4677 -1.4225 -1.3700
 6054TIP3    H239722   2.368  -0.012   8.617  2.6449  0.0693  0.5417
 6055TIP3   OH239723   4.372   3.342   7.051 -0.4442 -0.3241  0.4822
 6055TIP3    H139724   4.452   3.315   7.005 -0.6486 -1.2255  0.6239
 6055TIP3    H239725   4.392   3.429   7.085  0.8298 -0.9229  1.3509
 6056TIP3   OH239726   4.903   3.981   7.900  0.5906 -0.3514 -0.5598
 6056TIP3    H139727   4.981   3.961   7.950  1.7650  0.6877 -1.8727
 6056TIP3    H239728   4.908   4.076   7.885 -0.2368 -0.4633 -1.7229
 6057TIP3   OH239729   1.537   6.130   1.138 -0.1329 -0.4732  0.0585
 6057TIP3    H139730   1.501   6.065   1.198  0.8153 -1.6037 -0.5760
 6057TIP3    H239731   1.600   6.082   1.085 -0.1940  0.7326 -1.1522
 6058TIP3   OH239732   1.572   3.871   8.605  0.5510  0.0212  0.5631
 6058TIP3    H139733   1.587   3.801   8.542  0.9775 -1.1237  1.8837
 6058TIP3    H239734   1.508   3.836   8.666  1.8646  0.1634  2.1050
 6059TIP3   OH239735   0.223   0.701   2.062 -0.1692  0.2474 -0.5042
 6059TIP3    H139736   0.129   0.694   2.045 -0.0245  0.3872 -1.3956
 6059TIP3    H239737   0.265   0.669   1.982  0.5487  0.1953 -0.1222
 6060TIP3   OH239738   3.747   2.140   1.040  0.2010 -0.0732 -0.2550
 6060TIP3    H139739   3.819   2.088   1.078 -0.4554 -0.8637 -0.0692
 6060TIP3    H239740   3.682   2.146   1.110  0.0545  0.5840 -0.4445
 6061TIP3   OH239741   2.424   6.130   0.586  0.1873  0.1747  0.7618
 6061TIP3    H139742   2.437   6.061   0.521 -0.3326  1.0410 -0.2838
 6061TIP3    H239743   2.473   6.205   0.552 -1.3609  1.1327  0.5297
 6062TIP3   OH239744   1.809   2.880   0.614 -0.0298  0.2641 -0.6744
 6062TIP3    H139745   1.726   2.850   0.578  0.2636 -0.2853 -0.9047
 6062TIP3    H239746   1.818   2.832   0.697 -0.4750  1.1687 -0.0803
 6063TIP3   OH239747   3.236   5.898   8.950 -0.1527  0.4122 -0.1204
 6063TIP3    H139748   3.253   5.805   8.934  0.9781  0.5904 -0.0900
 6063TIP3    H239749   3.141   5.907   8.945 -0.2731 -0.7370 -0.1558
 6064TIP3   OH239750   1.478   3.111   7.228  0.0296 -0.5694 -0.0289
 6064TIP3    H139751   1.509   3.201   7.238  0.9518 -0.8321 -0.4743
 6064TIP3    H239752   1.388   3.120   7.197  0.0468  0.1940  0.1304
 6065TIP3   OH239753   6.461   1.021   0.890 -0.2980 -0.7687 -0.3653
 6065TIP3    H139754   6.411   0.972   0.825  0.2496 -0.7060 -0.8413
 6065TIP3    H239755   6.481   0.956   0.958  0.3650 -1.1912 -0.9591
 6066TIP3   OH239756   3.966   4.196   2.033 -0.3654  0.1465 -0.0223
 6066TIP3    H139757   3.931   4.254   2.100 -1.1540 -1.9860  1.5278
 6066TIP3    H239758   3.891   4.177   1.976 -0.8616 -1.4731  1.1087
 6067TIP3   OH239759   0.316   3.928   2.162 -0.0330  0.0847  0.3830
 6067TIP3    H139760   0.234   3.965   2.128 -0.1366 -0.6001 -0.1459
 6067TIP3    H239761   0.367   3.909   2.083 -0.2769 -1.5401  0.5913
 6068TIP3   OH239762   4.950   4.278   7.905 -0.1907 -0.6828 -0.0532
 6068TIP3    H139763   4.926   4.263   7.996 -0.2948  0.0807  0.0578
 6068TIP3    H239764   4.944   4.373   7.895  0.0923 -0.7372 -0.7800
 6069TIP3   OH239765   5.078   3.743   7.385 -0.7966 -0.2657 -0.1088
 6069TIP3    H139766   4.986   3.719   7.370 -0.6755 -1.3508  0.7457
 6069TIP3    H239767   5.104   3.789   7.305 -1.9683 -0.2926 -0.5275
 6070TIP3   OH239768   6.370   6.286   1.164  0.1560  0.2299  0.0912
 6070TIP3    H139769   6.378   6.205   1.114  2.2369 -0.0710  0.7830
 6070TIP3    H239770   6.415   6.351   1.112  0.7107  0.3334  0.6791
 6071TIP3   OH239771   5.791   5.286   2.712 -0.0531  0.6179 -0.7292
 6071TIP3    H139772   5.709   5.332   2.730  0.7431  1.2145  1.8221
 6071TIP3    H239773   5.809   5.237   2.792  1.8510  0.1374 -1.3898
 6072TIP3   OH239774   6.189   2.618   0.748  0.6346  0.0002 -0.7960
 6072TIP3    H139775   6.269   2.619   0.801 -0.3253 -0.0731  0.7069
 6072TIP3    H239776   6.208   2.558   0.676  1.9358  0.0115 -0.4828
 6073TIP3   OH239777   6.329   3.390   2.468  0.1249 -0.3310 -0.1196
 6073TIP3    H139778   6.408   3.438   2.494 -0.6573  0.4249  0.9045
 6073TIP3    H239779   6.285   3.448   2.406  0.8747 -1.2058 -1.5408
 6074TIP3   OH239780   3.460   1.418   7.023  0.1697 -0.4261  0.3525
 6074TIP3    H139781   3.421   1.504   7.040  2.8085  1.0459 -0.3687
 6074TIP3    H239782   3.390   1.367   6.982 -1.7175  1.0822  1.5241
 6075TIP3   OH239783   0.503   2.277   7.633 -0.2801  0.3024  0.8167
 6075TIP3    H139784   0.426   2.327   7.662 -1.2141 -0.2567 -0.5869
 6075TIP3    H239785   0.472   2.187   7.626  0.4788  0.0844  0.1329
 6076TIP3   OH239786   4.248   4.134   8.907  0.0281  0.2707 -0.2344
 6076TIP3    H139787   4.242   4.039   8.916  0.4358  0.3261  0.8439
 6076TIP3    H239788   4.167   4.159   8.863 -0.7278 -0.4526  0.6831
 6077TIP3   OH239789   1.368   0.437   2.720 -0.0861 -0.9087 -0.0573
 6077TIP3    H139790   1.438   0.433   2.785  0.3759 -0.5988 -0.5274
 6077TIP3    H239791   1.347   0.530   2.715  0.5828 -0.7977 -1.0802
 6078TIP3   OH239792   2.020   5.820   0.158 -0.6063 -0.3296 -0.4146
 6078TIP3    H139793   1.972   5.846   0.237  0.1083 -0.2880  0.0075
 6078TIP3    H239794   1.951   5.803   0.093 -1.1759  0.2266  0.0301
 6079TIP3   OH239795   0.609   5.250   7.202 -0.0398 -0.1877  0.3029
 6079TIP3    H139796   0.694   5.260   7.244  0.5290 -0.5950 -0.7021
 6079TIP3    H239797   0.624   5.185   7.133 -0.0440  2.6834 -2.6782
 6080TIP3   OH239798   0.152   1.953   7.424 -0.1888  0.2009 -0.5841
 6080TIP3    H139799   0.141   1.886   7.491  1.4975  0.8273  0.3847
 6080TIP3    H239800   0.196   1.909   7.351  0.7273  0.1728 -0.0320
 6081TIP3   OH239801   0.658   5.485   0.455  0.7202  0.2917  0.2300
 6081TIP3    H139802   0.642   5.398   0.490  2.9637  0.2697  1.3583
 6081TIP3    H239803   0.640   5.477   0.361 -0.9453 -0.8417  0.6111
 6082TIP3   OH239804   1.963   2.520   8.112 -0.6134  0.2224 -0.1169
 6082TIP3    H139805   1.993   2.532   8.022  0.3729 -2.0478 -0.1526
 6082TIP3    H239806   1.893   2.584   8.122  0.2241  1.5350 -2.0143
 6083TIP3   OH239807   5.690   4.541   7.680  0.1662 -0.8150 -0.4061
 6083TIP3    H139808   5.696   4.537   7.585  0.8954 -1.1594 -0.3551
 6083TIP3    H239809   5.598   4.560   7.698 -0.0415 -1.0777 -1.1671
 6084TIP3   OH239810   5.978   1.772   2.677  0.0118 -0.2232  0.1897
 6084TIP3    H139811   6.062   1.765   2.632  0.2276  1.5905  0.2483
 6084TIP3    H239812   5.913   1.766   2.607  0.1707 -1.4639  0.1268
 6085TIP3   OH239813   0.970   2.573   1.048 -0.5934  0.1110  0.4527
 6085TIP3    H139814   0.986   2.539   1.136 -0.3724  0.9711  0.7571
 6085TIP3    H239815   0.993   2.501   0.989 -0.0169 -0.2173  1.0713
 6086TIP3   OH239816   0.137   0.551   8.057 -0.0726  0.2487  0.2512
 6086TIP3    H139817   0.073   0.484   8.080  0.3023 -0.4125 -0.5651
 6086TIP3    H239818   0.086   0.631   8.049 -0.8383 -0.3095 -0.5841
 6087TIP3   OH239819   5.113   2.401   0.196 -0.1365 -1.0076 -0.3755
 6087TIP3    H139820   5.113   2.496   0.187 -2.8611 -0.9465 -0.5888
 6087TIP3    H239821   5.043   2.372   0.137 -0.2106 -3.0260  0.6363
 6088TIP3   OH239822   0.671   1.657   0.714  0.2113 -0.0244 -0.0675
 6088TIP3    H139823   0.679   1.694   0.626  0.8749  0.7656  0.3106
 6088TIP3    H239824   0.739   1.702   0.765  0.9768 -1.6986  0.4496
 6089TIP3   OH239825   2.919   1.207   0.875 -0.4003 -0.6096 -0.2851
 6089TIP3    H139826   2.846   1.150   0.852 -1.4388  0.1482  0.9385
 6089TIP3    H239827   2.928   1.266   0.800 -0.8171 -0.9351 -0.5976
 6090TIP3   OH239828   3.432   2.903   1.004  0.0449 -0.2041 -0.9239
 6090TIP3    H139829   3.455   2.874   0.916  0.1422  3.0934 -2.1516
 6090TIP3    H239830   3.516   2.903   1.051  0.9086  2.1823 -2.2856
 6091TIP3   OH239831   5.761   5.109   8.552  0.5043  0.4558  0.6621
 6091TIP3    H139832   5.689   5.080   8.607  0.4467  1.5086  1.1504
 6091TIP3    H239833   5.815   5.164   8.609  0.5825  1.3551 -0.2542
 6092TIP3   OH239834   3.933   1.447   7.225  0.1178  0.4159 -0.1144
 6092TIP3    H139835   3.896   1.529   7.258 -1.5383  0.4046 -1.8200
 6092TIP3    H239836   3.861   1.403   7.181  1.7194 -0.4788 -2.0248
 6093TIP3   OH239837   1.130   3.112   0.190  0.0226 -0.1499 -0.1530
 6093TIP3    H139838   1.137   3.123   0.096  0.1357  1.3576  0.0085
 6093TIP3    H239839   1.041   3.079   0.205  0.1794 -0.8935 -0.8038
 6094TIP3   OH239840   6.481   4.105   7.836 -0.3311  0.5014  0.1198
 6094TIP3    H139841   6.421   4.040   7.873 -0.5441  1.9425  2.4782
 6094TIP3    H239842   6.566   4.084   7.874 -0.1932  1.0149  0.1027
 6095TIP3   OH239843   3.578   2.250   1.264 -0.7193  0.2747 -0.3148
 6095TIP3    H139844   3.567   2.301   1.344 -0.3058 -0.3642  0.1635
 6095TIP3    H239845   3.506   2.277   1.208 -0.8500  0.9400  0.1629
 6096TIP3   OH239846   5.685   1.796   0.587 -0.2089  0.2066  0.4039
 6096TIP3    H139847   5.723   1.858   0.525 -0.8924  0.3551  0.1311
 6096TIP3    H239848   5.735   1.811   0.668  1.4007 -0.7118 -0.3521
 6097TIP3   OH239849   4.323   1.578   8.258 -0.3292 -0.2565  0.0080
 6097TIP3    H139850   4.403   1.556   8.210 -0.7921 -0.1854 -0.8239
 6097TIP3    H239851   4.304   1.499   8.310 -0.8456 -1.0837 -1.3742
 6098TIP3   OH239852   6.368   4.583   1.855  0.1507 -0.2434 -0.0189
 6098TIP3    H139853   6.430   4.643   1.897  0.9916 -0.8207 -0.4126
 6098TIP3    H239854   6.304   4.563   1.924  0.5896  0.1057  0.4952
 6099TIP3   OH239855   4.924   6.043   0.841  0.7821  0.5308  0.1560
 6099TIP3    H139856   4.838   6.048   0.883  0.1842 -1.4995 -0.6868
 6099TIP3    H239857   4.981   6.095   0.897 -0.4298 -0.2878  2.2793
 6100TIP3   OH239858   1.494   5.219   7.753 -0.0553 -0.1743 -0.3120
 6100TIP3    H139859   1.432   5.290   7.768  0.5041  0.2797 -0.1510
 6100TIP3    H239860   1.559   5.228   7.823  0.2285 -0.6093 -0.5136
 6101TIP3   OH239861   5.831   6.432   8.419 -0.5271  0.0126 -0.1240
 6101TIP3    H139862   5.843   6.448   8.512 -3.5028 -0.0498  0.3717
 6101TIP3    H239863   5.833   6.336   8.411 -1.9801 -0.0724  0.2229
 6102TIP3   OH239864   4.290   4.085   2.652 -0.2302 -0.0333 -0.0900
 6102TIP3    H139865   4.243   4.135   2.585  1.2933  0.1316 -1.0659
 6102TIP3    H239866   4.243   4.002   2.657  0.0577 -0.3341 -1.9052
 6103TIP3   OH239867   1.685   6.196   8.588 -0.0919 -0.3256 -0.2834
 6103TIP3    H139868   1.710   6.276   8.634  0.4977 -1.5168  1.5550
 6103TIP3    H239869   1.598   6.175   8.621  0.3477 -1.2052  0.3676
 6104TIP3   OH239870   4.260   3.217   2.110  0.1461 -0.0070  0.1027
 6104TIP3    H139871   4.223   3.297   2.073  0.4883  0.2575  0.3253
 6104TIP3    H239872   4.285   3.241   2.199  0.0963 -0.4097  0.2272
 6105TIP3   OH239873   1.072   0.892   1.494 -0.5281  0.5569 -0.0812
 6105TIP3    H139874   1.153   0.891   1.443 -0.6142  0.5046 -0.2197
 6105TIP3    H239875   1.040   0.802   1.490  0.9819 -0.1818  2.5412
 6106TIP3   OH239876   0.655   6.355   0.356  0.0696 -0.0176  0.5434
 6106TIP3    H139877   0.738   6.353   0.308 -1.0840  0.1695 -1.6005
 6106TIP3    H239878   0.651   6.271   0.401  1.3451 -0.0924  0.5486
 6107TIP3   OH239879   0.996   4.108   7.719  0.7126  0.2052 -0.2460
 6107TIP3    H139880   1.015   4.028   7.670 -0.2249 -0.8553  1.0446
 6107TIP3    H239881   0.917   4.143   7.677  1.8086  1.1740 -1.5970
 6108TIP3   OH239882   5.701   6.676   8.396  0.6719 -0.3191  0.2361
 6108TIP3    H139883   5.764   6.604   8.390  1.1325  0.1900 -2.2193
 6108TIP3    H239884   5.746   6.744   8.445  0.9738 -0.9711  0.8813
 6109TIP3   OH239885   2.580   0.429   6.876  0.2380  0.4850 -0.1653
 6109TIP3    H139886   2.530   0.354   6.844  0.7207  0.1739 -0.1949
 6109TIP3    H239887   2.520   0.503   6.868  0.3255  0.4205 -1.7324
 6110TIP3   OH239888   5.470   4.870   1.566  0.4370  0.0669  0.3872
 6110TIP3    H139889   5.398   4.825   1.612  0.2298 -0.3650 -0.3377
 6110TIP3    H239890   5.493   4.943   1.623  0.2010 -0.4722  1.1858
 6111TIP3   OH239891   2.662   6.440   0.697  0.1795 -0.1994 -0.1557
 6111TIP3    H139892   2.725   6.512   0.690  0.5339 -0.0916  2.6560
 6111TIP3    H239893   2.584   6.481   0.735  0.7911 -1.3535  2.6307
 6112TIP3   OH239894   3.460   0.998   1.534 -0.2084  0.0374 -0.4203
 6112TIP3    H139895   3.404   1.076   1.531  2.1751  1.9460  0.6674
 6112TIP3    H239896   3.418   0.940   1.598 -1.1193  1.2746  0.1385
 6113TIP3   OH239897   3.722   1.501   6.588  0.0399 -0.0376 -0.0144
 6113TIP3    H139898   3.691   1.582   6.627  1.1112 -0.4305  1.7595
 6113TIP3    H239899   3.815   1.516   6.571 -0.0078 -0.5039 -0.7600
 6114TIP3   OH239900   0.113   4.142   8.528 -0.2635 -0.7674  0.0371
 6114TIP3    H139901   0.153   4.083   8.464 -0.3819 -0.2678 -0.5005
 6114TIP3    H239902   0.171   4.217   8.531 -0.5533 -0.5459  0.1085
 6115TIP3   OH239903   5.872   5.853   1.879 -0.0259  0.0271  0.0725
 6115TIP3    H139904   5.904   5.825   1.964 -1.6035  1.5933  1.2347
 6115TIP3    H239905   5.780   5.875   1.893 -0.1078  1.1627 -1.8279
 6116TIP3   OH239906   1.331   2.808   8.069  0.0760  0.5126 -1.0291
 6116TIP3    H139907   1.392   2.858   8.123  1.1828 -1.9063  0.1002
 6116TIP3    H239908   1.373   2.803   7.983  1.3988 -0.8535 -0.3537
 6117TIP3   OH239909   4.490   2.363   2.496 -0.4418 -0.0435  0.0772
 6117TIP3    H139910   4.581   2.333   2.487 -0.3593 -0.2461  1.3442
 6117TIP3    H239911   4.441   2.283   2.515 -0.6889  0.2260  0.5876
 6118TIP3   OH239912   1.459   1.609   8.070  0.0818 -0.3726  0.2148
 6118TIP3    H139913   1.509   1.527   8.075  0.8805  0.1456  0.8958
 6118TIP3    H239914   1.437   1.629   8.161  0.1799  0.3407  0.0833
 6119TIP3   OH239915   1.128   0.752   8.611  0.5361 -0.2775  0.3642
 6119TIP3    H139916   1.159   0.668   8.575 -0.6721 -0.4195 -0.4077
 6119TIP3    H239917   1.205   0.810   8.606  1.6142 -1.5147  1.6026
 6120TIP3   OH239918   1.027   4.281   0.627  0.9256  0.0375 -0.6686
 6120TIP3    H139919   0.970   4.268   0.703 -1.1076 -1.3175 -2.2956
 6120TIP3    H239920   1.054   4.373   0.632 -2.3983  1.1236 -0.3929
 6121TIP3   OH239921   5.337   0.717   7.494  0.4759  0.6475 -0.1462
 6121TIP3    H139922   5.404   0.764   7.444 -0.0627 -0.7951 -2.3782
 6121TIP3    H239923   5.281   0.678   7.427 -1.1198 -0.2722  1.6442
 6122TIP3   OH239924   5.092   1.339   8.828  0.2973  0.5198 -0.4633
 6122TIP3    H139925   5.126   1.428   8.823 -1.1165  1.2891  1.8170
 6122TIP3    H239926   5.001   1.347   8.800  0.3622 -0.3827 -0.9700
 6123TIP3   OH239927   0.460   1.879   7.655  0.4168  0.2578 -0.4227
 6123TIP3    H139928   0.458   1.787   7.680 -3.2994  0.3116  0.0047
 6123TIP3    H239929   0.425   1.882   7.566 -0.4300  1.3064 -0.0842
 6124TIP3   OH239930   1.436   4.108   0.375 -0.7302 -0.5621 -0.4945
 6124TIP3    H139931   1.446   4.014   0.359 -0.2374 -0.8646  1.3949
 6124TIP3    H239932   1.342   4.122   0.378 -0.8716 -1.5132  1.6771
 6125TIP3   OH239933   3.825   2.113   7.460 -0.0644  0.2054  0.2248
 6125TIP3    H139934   3.756   2.111   7.393 -2.2551  0.2556  2.3634
 6125TIP3    H239935   3.790   2.063   7.533  1.3293  1.8987  2.1875
 6126TIP3   OH239936   3.145   5.100   2.042  0.5446  0.5681 -0.0266
 6126TIP3    H139937   3.112   5.189   2.038  0.6282  0.6300  0.5749
 6126TIP3    H239938   3.138   5.076   2.134 -0.3851 -0.3949 -0.3212
 6127TIP3   OH239939   0.478   2.132   7.319  0.1599  0.5646  0.4154
 6127TIP3    H139940   0.501   2.043   7.342  0.5102  0.9649  1.6534
 6127TIP3    H239941   0.424   2.163   7.392 -0.5011  1.1594 -0.3023
 6128TIP3   OH239942   6.614   3.612   8.494 -0.5326  0.4990  0.0570
 6128TIP3    H139943   6.572   3.697   8.509 -1.2125  0.0277  0.9268
 6128TIP3    H239944   6.580   3.556   8.563 -0.3983 -0.5961 -0.7345
 6129TIP3   OH239945   4.869   5.760   0.778 -0.5190 -0.0893  0.0657
 6129TIP3    H139946   4.910   5.846   0.779 -1.2605  0.2782  0.8694
 6129TIP3    H239947   4.837   5.748   0.868 -0.7186 -1.0607 -0.1214
 6130TIP3   OH239948   0.474   3.784   7.457 -0.3751  0.4522  0.5856
 6130TIP3    H139949   0.514   3.698   7.448 -0.8361  0.0670  2.0442
 6130TIP3    H239950   0.445   3.807   7.368 -0.4335 -0.9791  0.2201
 6131TIP3   OH239951   6.438   1.806   1.742 -0.9193 -0.7373  0.2946
 6131TIP3    H139952   6.408   1.720   1.713 -0.2978 -0.4143 -1.4437
 6131TIP3    H239953   6.366   1.865   1.721 -1.3543 -0.8092  1.5045
 6132TIP3   OH239954   2.891   2.165   2.018 -0.0443  0.0575 -0.4338
 6132TIP3    H139955   2.885   2.256   2.047  0.6649  0.1642 -0.5868
 6132TIP3    H239956   2.985   2.146   2.019 -0.2461 -1.0983  0.9200
 6133TIP3   OH239957   4.964   4.478   0.259  0.2699  0.0170  0.4063
 6133TIP3    H139958   4.967   4.567   0.295  1.0577  0.3566 -0.4583
 6133TIP3    H239959   5.012   4.484   0.176 -1.7744 -0.6477 -0.9084
 6134TIP3   OH239960   4.858   0.909   8.213  0.6468 -0.4635  0.0968
 6134TIP3    H139961   4.869   0.890   8.306  0.7301  0.7326  0.3564
 6134TIP3    H239962   4.818   0.997   8.212 -1.3347 -1.3156 -0.9595
 6135TIP3   OH239963   0.756   2.914   1.195 -0.3894  0.8433  0.5218
 6135TIP3    H139964   0.847   2.906   1.165 -0.9067  1.6723 -1.3660
 6135TIP3    H239965   0.752   2.856   1.272  1.7492  0.8796  0.7363
 6136TIP3   OH239966   0.871   1.743   8.303 -0.2006 -0.5708  0.3735
 6136TIP3    H139967   0.871   1.814   8.366 -0.2144  0.0025 -0.2665
 6136TIP3    H239968   0.780   1.734   8.276 -0.1875 -0.7793  0.3964
 6137TIP3   OH239969   4.040   6.244   1.173  0.0055 -0.7644 -0.1545
 6137TIP3    H139970   3.960   6.290   1.199 -0.7381 -1.2589 -1.4674
 6137TIP3    H239971   4.038   6.245   1.077  1.6617 -0.6541 -0.2231
 6138TIP3   OH239972   3.998   4.107   8.794  0.1139  0.5108 -0.2217
 6138TIP3    H139973   3.927   4.073   8.739  1.6859 -0.4499 -1.7505
 6138TIP3    H239974   3.972   4.084   8.884 -1.4127  0.0432 -0.7569
 6139TIP3   OH239975   3.854   3.857   0.752  0.6636  0.7232 -0.4370
 6139TIP3    H139976   3.796   3.932   0.758 -1.9300 -1.2065  0.5387
 6139TIP3    H239977   3.805   3.792   0.702  1.7105 -1.2084  0.8816
 6140TIP3   OH239978   5.370   1.294   1.142  0.5728 -0.1744 -0.3169
 6140TIP3    H139979   5.454   1.338   1.126  0.5355 -0.1772 -0.5237
 6140TIP3    H239980   5.311   1.364   1.168  0.0987  0.1455 -2.1707
 6141TIP3   OH239981   4.456   5.212   0.780 -0.2401  0.5270  0.2185
 6141TIP3    H139982   4.430   5.224   0.689 -1.5346 -0.3847  0.4319
 6141TIP3    H239983   4.536   5.161   0.777 -1.0307 -0.7364 -0.4104
 6142TIP3   OH239984   3.950   1.213   1.063 -0.0940 -0.2194  0.0016
 6142TIP3    H139985   3.938   1.123   1.033  1.1940  0.0241 -1.3583
 6142TIP3    H239986   4.044   1.228   1.056  0.1860  0.2419  3.2570
 6143TIP3   OH239987   3.930   6.325   0.542  0.6544 -0.1097 -0.3521
 6143TIP3    H139988   3.930   6.265   0.467  2.9252  0.0937 -0.5671
 6143TIP3    H239989   3.898   6.271   0.615 -3.3191  0.1422 -1.6724
 6144TIP3   OH239990   5.697   2.410   0.800 -0.3047 -0.0538 -0.2323
 6144TIP3    H139991   5.692   2.428   0.706 -1.2326  1.7922  0.1254
 6144TIP3    H239992   5.620   2.453   0.837  0.3154 -0.3013  1.4446
 6145TIP3   OH239993   0.848   2.225   1.694  0.1077  0.1280 -0.3970
 6145TIP3    H139994   0.838   2.200   1.786  0.8040 -0.0958 -0.3760
 6145TIP3    H239995   0.771   2.278   1.675 -1.0480 -1.3960 -0.2234
 6146TIP3   OH239996   0.209   4.185   7.875  0.1818  0.1902  0.0297
 6146TIP3    H139997   0.275   4.116   7.876  1.9203  1.7768  0.5756
 6146TIP3    H239998   0.239   4.246   7.808 -1.3040  0.4635 -0.4310
 6147TIP3   OH239999   4.728   6.437   8.466 -0.3924  0.2791  0.3737
 6147TIP3    H140000   4.711   6.514   8.520  1.4647  0.1009  1.3073
 6147TIP3    H240001   4.761   6.371   8.527  2.2567  0.2250 -0.9572
 6148TIP3   OH240002   4.033   3.334   2.724  0.4189 -0.1128  0.6799
 6148TIP3    H140003   3.948   3.340   2.679  1.0050  0.0352 -0.4427
 6148TIP3    H240004   4.057   3.425   2.741  1.8631  0.1142 -2.0026
 6149TIP3   OH240005   6.499   6.499   2.045 -0.0905  0.2886  0.5835
 6149TIP3    H140006   6.569   6.453   2.092 -1.5577 -2.7976  0.0415
 6149TIP3    H240007   6.421   6.484   2.099 -1.1443 -0.3555 -1.0503
 6150TIP3   OH240008   5.073   5.650   7.620 -0.0114 -0.3496  0.5100
 6150TIP3    H140009   5.049   5.583   7.684 -0.5434 -0.4270  0.2351
 6150TIP3    H240010   5.150   5.614   7.576 -2.0008 -2.2260 -1.7337
 6151TIP3   OH240011   1.958   4.638   7.581 -0.4501 -0.2677 -0.3390
 6151TIP3    H140012   2.011   4.684   7.647  0.2048 -1.1261 -0.2479
 6151TIP3    H240013   1.973   4.688   7.500  1.6199 -1.2532 -0.6266
 6152TIP3   OH240014   6.662   1.212   7.656 -0.3874  0.5219 -0.1887
 6152TIP3    H140015   6.638   1.284   7.714  0.1359  0.8536 -0.3773
 6152TIP3    H240016   6.736   1.246   7.605  0.8434 -0.6455  0.7511
 6153TIP3   OH240017   4.700   1.988   2.006 -0.2652  0.3044 -1.0079
 6153TIP3    H140018   4.689   1.947   2.092 -1.5931  0.8205 -0.9012
 6153TIP3    H240019   4.718   2.080   2.025 -1.3020  0.5784 -1.2584
 6154TIP3   OH240020   3.434   1.695   7.328 -0.1317  0.1439 -0.7087
 6154TIP3    H140021   3.368   1.754   7.292 -1.6148 -1.7066 -1.1809
 6154TIP3    H240022   3.386   1.639   7.389  1.1807 -0.6853 -0.3960
 6155TIP3   OH240023   3.841   4.826   0.759 -0.6975  0.2676  0.2823
 6155TIP3    H140024   3.821   4.745   0.805  1.7276 -0.0711  0.8415
 6155TIP3    H240025   3.903   4.801   0.690 -0.2895  1.5632  0.1479
 6156TIP3   OH240026   1.481   3.456   0.528 -0.5702 -0.2702 -0.0811
 6156TIP3    H140027   1.423   3.529   0.547  0.5685  0.6684 -0.0645
 6156TIP3    H240028   1.497   3.416   0.614  1.1824  1.3573  0.4450
 6157TIP3   OH240029   2.345   6.476   1.628 -0.3396  0.7901 -0.9753
 6157TIP3    H140030   2.358   6.570   1.614 -0.7634  0.8032 -1.3224
 6157TIP3    H240031   2.387   6.434   1.553 -1.5702  0.7970 -1.6990
 6158TIP3   OH240032   6.008   4.747   1.741 -0.1035  0.1213 -0.1632
 6158TIP3    H140033   5.914   4.756   1.724 -0.3900 -0.2045  1.1583
 6158TIP3    H240034   6.016   4.750   1.836  1.4050  1.7403 -0.2760
 6159TIP3   OH240035   6.415   5.489   8.773 -0.2176  0.6250 -0.4498
 6159TIP3    H140036   6.510   5.479   8.764 -0.2300 -0.3163  0.3547
 6159TIP3    H240037   6.404   5.534   8.857 -0.5314 -0.5374  0.1444
 6160TIP3   OH240038   2.008   0.980   1.864 -0.8151  0.0335  0.4437
 6160TIP3    H140039   2.057   0.928   1.801  0.4363  0.7124  0.8109
 6160TIP3    H240040   2.058   1.062   1.870 -1.5749  0.4372  1.4297
 6161TIP3   OH240041   1.768   0.996   1.964  0.0367  0.0911 -0.1436
 6161TIP3    H140042   1.732   1.070   1.916  0.6889  1.3277  1.1757
 6161TIP3    H240043   1.861   0.996   1.942 -0.0775 -0.8054 -0.6880
 6162TIP3   OH240044   5.603   0.766   7.666 -0.3065 -0.6823  0.4442
 6162TIP3    H140045   5.558   0.745   7.584  0.0631 -0.7360  0.2529
 6162TIP3    H240046   5.532   0.781   7.729 -0.5900 -0.8827  0.1775
 6163TIP3   OH240047   3.641   0.545   6.859 -0.0684 -0.1606 -0.3385
 6163TIP3    H140048   3.548   0.556   6.840  0.0949  0.9857 -0.5470
 6163TIP3    H240049   3.686   0.596   6.791  0.5831  2.1830  1.6719
 6164TIP3   OH240050   6.073   2.816   7.812 -0.1232  0.3201 -0.1694
 6164TIP3    H140051   6.163   2.807   7.780  0.9700  1.6197  2.2492
 6164TIP3    H240052   6.082   2.864   7.894 -3.0040 -0.0989  0.4860
 6165TIP3   OH240053   4.438   4.860   7.496 -0.4480  0.5934  0.1026
 6165TIP3    H140054   4.406   4.793   7.436  0.6698 -0.7006  0.8955
 6165TIP3    H240055   4.428   4.821   7.583 -0.8952  1.9427  0.6792
 6166TIP3   OH240056   5.998   4.345   2.612  0.3131  0.2945 -0.2274
 6166TIP3    H140057   6.073   4.349   2.553 -0.1278 -1.0398 -0.9112
 6166TIP3    H240058   5.947   4.424   2.593  0.4662  0.1550 -1.2446
 6167TIP3   OH240059   3.822   6.359   2.179 -0.1652 -0.2101  0.0520
 6167TIP3    H140060   3.816   6.386   2.088 -2.6689  1.3811  0.5601
 6167TIP3    H240061   3.908   6.389   2.208  1.3636 -2.2022 -2.1178
 6168TIP3   OH240062   5.710   3.780   1.168  0.4349 -0.2352 -0.3789
 6168TIP3    H140063   5.622   3.805   1.195  0.8010  1.6545 -0.7154
 6168TIP3    H240064   5.708   3.685   1.162 -2.1502 -0.1764 -2.2044
 6169TIP3   OH240065   2.627   2.453   7.839 -0.4356 -0.0313 -0.1937
 6169TIP3    H140066   2.696   2.446   7.906  1.0380 -1.7943 -1.7783
 6169TIP3    H240067   2.593   2.364   7.830 -1.2602  0.3565 -1.1387
 6170TIP3   OH240068   5.523   4.312   6.811  0.5282 -0.4269 -0.0586
 6170TIP3    H140069   5.522   4.240   6.873  0.3448 -0.8058 -0.4998
 6170TIP3    H240070   5.439   4.308   6.767  0.5533 -0.0004 -0.1553
 6171TIP3   OH240071   3.132   4.392   1.492 -0.6917 -0.1059  0.1589
 6171TIP3    H140072   3.209   4.445   1.511 -0.0083 -0.0986 -2.3611
 6171TIP3    H240073   3.166   4.311   1.455 -1.8439 -0.8647  0.6956
 6172TIP3   OH240074   3.797   4.148   1.820 -0.5095 -0.0014  0.2820
 6172TIP3    H140075   3.752   4.066   1.802  0.3802 -0.1182 -1.6814
 6172TIP3    H240076   3.727   4.212   1.831 -1.1856 -0.6358 -0.2709
 6173TIP3   OH240077   0.828   4.781   1.534  0.3626  0.4341 -0.5767
 6173TIP3    H140078   0.839   4.715   1.603 -1.2774  1.7628  1.0665
 6173TIP3    H240079   0.893   4.848   1.553  2.4396 -0.8652 -2.5990
 6174TIP3   OH240080   4.823   4.723   7.149  0.0794 -0.4909  0.3552
 6174TIP3    H140081   4.892   4.657   7.155  0.5390 -0.2068 -1.4244
 6174TIP3    H240082   4.869   4.806   7.139 -0.4585 -0.4138 -1.9988
 6175TIP3   OH240083   3.207   4.674   1.373 -0.4900  0.3121 -0.4769
 6175TIP3    H140084   3.132   4.709   1.324 -0.7085 -0.2211 -0.5350
 6175TIP3    H240085   3.240   4.603   1.317  0.5323  1.0273 -0.8143
 6176TIP3   OH240086   2.938   4.479   1.086 -0.1636 -0.3594 -0.0605
 6176TIP3    H140087   2.874   4.473   1.015  1.0931  3.5855 -1.7607
 6176TIP3    H240088   3.023   4.488   1.042  0.6071  2.8868  1.7391
 6177TIP3   OH240089   4.885   2.952   0.394  0.6540 -0.1499  0.2306
 6177TIP3    H140090   4.791   2.935   0.395  0.6983 -0.4973 -0.6753
 6177TIP3    H240091   4.894   3.035   0.441 -0.2421  0.5192 -0.7208
 6178TIP3   OH240092   3.319   6.380   7.270  0.2447 -0.1916 -0.8267
 6178TIP3    H140093   3.273   6.298   7.289 -1.1325  0.2799 -1.9805
 6178TIP3    H240094   3.399   6.352   7.224  0.8337 -0.9760  0.6103
 6179TIP3   OH240095   5.485   1.430   8.018  0.0402  0.3796  0.3204
 6179TIP3    H140096   5.503   1.413   8.110  1.8415 -0.3431 -0.1286
 6179TIP3    H240097   5.564   1.471   7.984  0.2107 -1.1995 -1.3557
 6180TIP3   OH240098   2.618   3.112   7.522 -0.0751  0.1963  0.1370
 6180TIP3    H140099   2.624   3.109   7.426  1.2604  1.8545  0.1071
 6180TIP3    H240100   2.636   3.023   7.550  0.1175 -0.1924 -1.1473
 6181TIP3   OH240101   4.185   5.790   7.110  0.3655  0.1299 -0.0338
 6181TIP3    H140102   4.249   5.789   7.038  0.3600  0.9257 -0.0540
 6181TIP3    H240103   4.197   5.876   7.151 -0.1086 -0.0546  0.4905
 6182TIP3   OH240104   3.901   5.019   7.226  0.0992 -0.1317  0.1438
 6182TIP3    H140105   3.858   4.934   7.237  0.9489 -0.2681  3.1133
 6182TIP3    H240106   3.993   5.002   7.245  0.5814  1.1737 -0.8713
 6183TIP3   OH240107   5.099   6.351   6.656 -0.0457 -0.3263  0.1952
 6183TIP3    H140108   5.043   6.428   6.663  0.3640  0.1558 -1.4524
 6183TIP3    H240109   5.123   6.347   6.563  0.9652 -1.7129  0.4868
 6184TIP3   OH240110   2.910   4.185   7.898  0.2694 -0.0683  0.0278
 6184TIP3    H140111   2.932   4.271   7.862 -1.5277  0.0114 -0.9734
 6184TIP3    H240112   2.897   4.201   7.991 -1.3196  1.0509 -0.3468
 6185TIP3   OH240113   4.906   6.165   0.003  0.2742 -0.4524 -0.3146
 6185TIP3    H140114   4.968   6.237  -0.015  2.0076 -1.8738 -0.3135
 6185TIP3    H240115   4.883   6.176   0.095  1.4460 -0.5430  0.0082
 6186TIP3   OH240116   3.233   6.441   8.203  0.4634  0.1315 -0.5258
 6186TIP3    H140117   3.296   6.442   8.275 -0.0630 -1.1054 -0.0160
 6186TIP3    H240118   3.169   6.507   8.226  0.8164  0.4152 -0.3427
 6187TIP3   OH240119   0.299   4.483   1.101 -0.5813  0.6723  0.0080
 6187TIP3    H140120   0.357   4.524   1.037 -2.5892  0.0667 -2.3674
 6187TIP3    H240121   0.238   4.552   1.125  0.8979  1.2604  2.3633
 6188TIP3   OH240122   0.697   4.523   8.444  0.4394 -0.8682 -0.3396
 6188TIP3    H140123   0.612   4.547   8.408  0.6247 -2.5554 -2.0733
 6188TIP3    H240124   0.754   4.515   8.367  1.5495 -2.0494  0.5578
 6189TIP3   OH240125   4.203   0.483   7.794 -0.1049 -0.0799 -0.2932
 6189TIP3    H140126   4.225   0.491   7.887  1.2396 -1.3184 -0.4637
 6189TIP3    H240127   4.281   0.514   7.749 -0.8616  0.7922 -1.0321
 6190TIP3   OH240128   2.036   5.411   0.414 -0.2398  0.6593 -0.0740
 6190TIP3    H140129   2.005   5.420   0.504  2.2000 -2.5134  1.3226
 6190TIP3    H240130   2.103   5.479   0.405 -1.6752  2.1141 -0.1845
 6191TIP3   OH240131   4.696   6.057   1.311 -0.0942  0.0426 -0.3927
 6191TIP3    H140132   4.677   5.985   1.251  1.2989  0.2787 -1.1677
 6191TIP3    H240133   4.715   6.014   1.395 -0.4533 -0.4062 -0.5402
 6192TIP3   OH240134   6.631   5.282   8.384  0.3356 -0.1817  0.4195
 6192TIP3    H140135   6.670   5.279   8.297 -0.0831  2.2876  0.0644
 6192TIP3    H240136   6.538   5.303   8.368 -0.0849 -1.1769  1.4152
 6193TIP3   OH240137   6.288   3.712   1.737  0.1051  0.0722 -0.0915
 6193TIP3    H140138   6.211   3.748   1.692 -0.2774  1.5507  1.6531
 6193TIP3    H240139   6.254   3.641   1.790  0.1012  0.1408 -0.0031
 6194TIP3   OH240140   4.396   1.957   0.283  0.1575 -0.0277 -0.3425
 6194TIP3    H140141   4.370   1.865   0.293  1.8185 -0.3783  1.1647
 6194TIP3    H240142   4.445   1.977   0.363 -1.7795  2.7794  0.2668
 6195TIP3   OH240143   1.497   1.969   0.855  0.8699  0.6783  0.6079
 6195TIP3    H140144   1.413   1.961   0.900 -0.1851 -0.4732 -1.4461
 6195TIP3    H240145   1.502   1.891   0.800  3.2998  0.7384  0.6467
 6196TIP3   OH240146   0.320   5.788   7.219 -0.0867  0.3890 -0.0038
 6196TIP3    H140147   0.347   5.770   7.129 -0.4104 -0.1105 -0.0081
 6196TIP3    H240148   0.265   5.866   7.213  0.4538  0.7635 -0.1409
 6197TIP3   OH240149   2.394   4.056   2.026 -0.2930  0.1448 -0.0863
 6197TIP3    H140150   2.401   4.022   1.937 -0.3709 -0.4288  0.1234
 6197TIP3    H240151   2.435   3.989   2.081 -1.2703 -0.0517  0.4286
 6198TIP3   OH240152   4.618   1.807   1.827 -0.3512  0.0497 -0.5631
 6198TIP3    H140153   4.536   1.764   1.852 -0.9028  1.0674 -0.5694
 6198TIP3    H240154   4.640   1.862   1.903  0.4685 -0.4013 -0.4609
 6199TIP3   OH240155   0.415   3.391   0.260 -0.3036  0.6609 -0.0840
 6199TIP3    H140156   0.451   3.480   0.263 -0.6538  0.8079 -0.1976
 6199TIP3    H240157   0.383   3.376   0.349  1.6354 -0.1490  0.5303
 6200TIP3   OH240158   0.826   3.515   8.684 -0.1291  0.0315  0.1279
 6200TIP3    H140159   0.903   3.484   8.731  0.9621 -0.2687 -1.7420
 6200TIP3    H240160   0.847   3.605   8.659 -0.2112 -0.1818 -0.7331
 6201TIP3   OH240161   3.714   1.652   8.777 -0.0986  0.0285  0.2596
 6201TIP3    H140162   3.637   1.696   8.813 -0.0674 -0.6865  1.2274
 6201TIP3    H240163   3.789   1.697   8.817 -0.0436 -0.1949  0.4096
 6202TIP3   OH240164   3.261   1.272   6.888  0.0658  0.7939 -0.1926
 6202TIP3    H140165   3.177   1.262   6.933  0.9691 -0.1228  1.3744
 6202TIP3    H240166   3.279   1.186   6.850  0.6564  0.7518  0.1624
 6203TIP3   OH240167   1.277   2.091   8.216 -0.8645 -0.1215 -0.7207
 6203TIP3    H140168   1.200   2.111   8.269 -0.2481  1.0337 -0.2153
 6203TIP3    H240169   1.328   2.031   8.270 -0.1994  1.1144  0.0769
 6204TIP3   OH240170   5.196   0.655   1.519  0.0962 -0.1397 -0.1912
 6204TIP3    H140171   5.245   0.585   1.561  0.6916 -0.5326 -1.4823
 6204TIP3    H240172   5.263   0.710   1.477 -0.4831  0.0114 -0.9492
 6205TIP3   OH240173   3.050   2.458   2.537  0.1162 -0.2399  0.1451
 6205TIP3    H140174   2.983   2.526   2.526  2.1600  1.6774 -1.1325
 6205TIP3    H240175   3.122   2.502   2.582  0.1477 -2.5682  2.6509
 6206TIP3   OH240176   0.013   3.469   7.789 -0.1861 -0.1145 -0.4524
 6206TIP3    H140177   0.069   3.458   7.866 -0.4134 -1.0353 -0.4061
 6206TIP3    H240178   0.074   3.488   7.718  0.2096 -1.2123 -0.4225
 6207TIP3   OH240179   1.641   0.874   7.933 -0.8784 -0.2440  0.3653
 6207TIP3    H140180   1.633   0.894   7.839 -0.3738 -0.4068  0.2846
 6207TIP3    H240181   1.687   0.790   7.935 -1.2471 -0.4403  0.7532
 6208TIP3   OH240182   2.576   2.927   1.774 -0.5150 -0.7222 -0.1297
 6208TIP3    H140183   2.662   2.959   1.802 -0.7817  0.8001 -0.9203
 6208TIP3    H240184   2.594   2.842   1.734  0.4027 -1.1106  1.0552
 6209TIP3   OH240185   3.104   2.157   0.590 -0.8076  0.2340  0.2884
 6209TIP3    H140186   3.050   2.081   0.611 -0.2842  0.4701  2.6857
 6209TIP3    H240187   3.127   2.195   0.674  1.1557  1.5257 -0.7513
 6210TIP3   OH240188   2.788   2.930   0.985 -0.1482 -0.2050  0.4807
 6210TIP3    H140189   2.775   2.884   0.902 -0.0162  1.5781 -0.5662
 6210TIP3    H240190   2.883   2.941   0.992 -0.2064  0.2840  0.5098
 6211TIP3   OH240191   0.276   4.027   7.528 -0.3897 -0.2485  0.5159
 6211TIP3    H140192   0.228   3.977   7.461 -0.3766  1.7001 -1.0595
 6211TIP3    H240193   0.233   4.113   7.528  0.0667  0.0292  2.5676
 6212TIP3   OH240194   6.023   1.962   8.869 -0.4081 -0.0801  0.0026
 6212TIP3    H140195   5.939   1.975   8.825  0.6519  0.2638 -2.0637
 6212TIP3    H240196   6.023   1.871   8.896 -1.7284  0.1078  0.6817
 6213TIP3   OH240197   1.932   5.524   8.365 -0.2685 -0.2740 -0.6203
 6213TIP3    H140198   1.976   5.443   8.341 -0.4032 -0.0622 -1.6203
 6213TIP3    H240199   1.956   5.586   8.296  0.9805  0.9703  0.8539
 6214TIP3   OH240200   3.077   2.641   0.657 -0.0775  0.2312 -0.3854
 6214TIP3    H140201   3.162   2.645   0.613  0.0829  0.4422 -0.0582
 6214TIP3    H240202   3.097   2.610   0.746 -0.3572  0.1499 -0.3497
 6215TIP3   OH240203   3.107   4.558   2.237  0.4962  0.1453  0.0503
 6215TIP3    H140204   3.039   4.572   2.303  0.4624 -0.7455  0.2241
 6215TIP3    H240205   3.145   4.473   2.260  1.8272  0.7228  0.0857
 6216TIP3   OH240206   1.657   2.303   8.293 -0.0208  0.3440  0.2524
 6216TIP3    H140207   1.649   2.369   8.224  1.0094 -1.6723 -1.9519
 6216TIP3    H240208   1.637   2.220   8.249  1.1393 -1.0958  2.2783
 6217TIP3   OH240209   6.684   6.708   1.954 -0.5928  0.4763 -0.4360
 6217TIP3    H140210   6.732   6.653   1.892 -0.3903  0.0895  0.0590
 6217TIP3    H240211   6.603   6.660   1.970 -0.9016  0.8499 -0.8246
 6218TIP3   OH240212   1.104   6.233   8.037 -0.5044  0.7033 -0.2525
 6218TIP3    H140213   1.175   6.265   7.982 -0.4800  2.3802  0.6902
 6218TIP3    H240214   1.130   6.144   8.061  1.1869  1.2175 -0.0684
 6219TIP3   OH240215   3.592   3.046   7.656  0.0960 -0.2688  0.5075
 6219TIP3    H140216   3.675   2.998   7.662  1.4623  1.9276 -0.0156
 6219TIP3    H240217   3.534   2.999   7.716  2.0328 -1.2084  1.7570
 6220TIP3   OH240218   2.709   0.276   2.626  0.0846  0.2494 -0.5244
 6220TIP3    H140219   2.674   0.283   2.715 -2.2443  0.2843 -1.3575
 6220TIP3    H240220   2.649   0.217   2.582  1.2974  0.0987 -2.0421
 6221TIP3   OH240221   3.266   4.453   1.208 -0.1737  0.5059  0.0339
 6221TIP3    H140222   3.255   4.374   1.260  0.5702  0.1084 -0.3979
 6221TIP3    H240223   3.276   4.422   1.118  2.0452  0.9363  0.0864
 6222TIP3   OH240224   6.224   4.021   8.572  0.0539  0.0700 -0.0688
 6222TIP3    H140225   6.217   4.041   8.665  0.7811  1.1459 -0.2247
 6222TIP3    H240226   6.240   3.926   8.568  0.4897  0.0952  0.9175
 6223TIP3   OH240227   2.310   3.344   7.292  0.1160  0.5487  0.0711
 6223TIP3    H140228   2.334   3.424   7.338 -1.0891  0.7258  0.4282
 6223TIP3    H240229   2.332   3.274   7.354 -0.5325  0.7281  0.5208
 6224TIP3   OH240230   2.329   6.597   1.190  0.2400  0.0440  0.1852
 6224TIP3    H140231   2.298   6.608   1.279 -1.9189 -1.2052 -0.3385
 6224TIP3    H240232   2.405   6.540   1.198 -0.8705 -1.3699  1.1411
 6225TIP3   OH240233   4.922   5.888   1.421 -0.5762 -0.4399  0.4461
 6225TIP3    H140234   4.869   5.851   1.350  0.6803 -1.8296  0.1760
 6225TIP3    H240235   5.005   5.840   1.416  0.9100  1.9323  0.5483
 6226TIP3   OH240236   3.707   3.150   8.479 -0.6689  0.3394 -0.2209
 6226TIP3    H140237   3.801   3.134   8.491 -0.9084 -0.7527  0.3224
 6226TIP3    H240238   3.697   3.165   8.385  0.0756  0.6876 -0.2533
 6227TIP3   OH240239   4.465   2.324   0.370  0.1466 -0.2214 -0.1550
 6227TIP3    H140240   4.483   2.400   0.426  0.9281 -0.4469 -0.0938
 6227TIP3    H240241   4.477   2.357   0.281  0.4414 -0.2598 -0.1303
 6228TIP3   OH240242   3.174   5.234   8.186 -0.1290 -0.6725  0.0498
 6228TIP3    H140243   3.267   5.249   8.168  0.7929 -0.5764  3.8885
 6228TIP3    H240244   3.145   5.315   8.228 -1.0517 -1.7554  1.6176
 6229TIP3   OH240245   5.695   5.393   8.272 -0.2342  0.4947  0.5541
 6229TIP3    H140246   5.696   5.405   8.177  1.5041 -0.2423  0.4323
 6229TIP3    H240247   5.680   5.299   8.284  3.2748 -0.1951  0.7842
 6230TIP3   OH240248   1.988   0.249   1.123 -0.0032 -0.2855 -0.3726
 6230TIP3    H140249   2.071   0.245   1.171  0.8953 -0.3635 -1.8869
 6230TIP3    H240250   2.008   0.215   1.036 -0.9415  2.2837 -1.7055
 6231TIP3   OH240251   1.110   5.857   0.615  0.0058  0.1119 -0.2620
 6231TIP3    H140252   1.107   5.782   0.556 -0.6115  0.3875 -0.5861
 6231TIP3    H240253   1.022   5.863   0.650  0.6245 -0.7367  1.5735
 6232TIP3   OH240254   6.377   2.251   0.168  0.2251 -0.6175  0.4868
 6232TIP3    H140255   6.377   2.219   0.078  0.1365 -1.0002  0.6225
 6232TIP3    H240256   6.387   2.173   0.222 -1.4415 -0.5948  0.8712
 6233TIP3   OH240257   1.521   2.474   8.123 -0.1505  0.0699 -0.7129
 6233TIP3    H140258   1.461   2.425   8.067  0.1977 -1.8772  0.5423
 6233TIP3    H240259   1.572   2.527   8.061 -1.2388 -0.3354 -2.0286
 6234TIP3   OH240260   0.210   0.610   2.919  0.7136 -0.1146  0.3352
 6234TIP3    H140261   0.279   0.648   2.863  0.2786  1.2154  0.6620
 6234TIP3    H240262   0.258   0.568   2.990  1.2062  1.4497  0.9672
 6235TIP3   OH240263   0.710   0.421   8.424  0.1666 -0.1566  0.4413
 6235TIP3    H140264   0.639   0.370   8.386 -0.6870 -0.2241  2.0262
 6235TIP3    H240265   0.778   0.356   8.443  0.7565 -0.0714 -1.2086
 6236TIP3   OH240266   5.443   1.974   1.209  0.0963  0.0383 -0.2609
 6236TIP3    H140267   5.394   1.894   1.187 -0.8804  0.4196  0.4369
 6236TIP3    H240268   5.462   1.965   1.303  1.2275 -0.0119 -0.4765
 6237TIP3   OH240269   2.890   6.143   2.507 -0.1342 -0.2287  0.4540
 6237TIP3    H140270   2.808   6.192   2.502 -0.1336 -0.3092 -0.9047
 6237TIP3    H240271   2.904   6.112   2.417  1.7094  0.3088  0.5222
 6238TIP3   OH240272   5.439   3.357   2.208 -0.7041  1.0756  0.8008
 6238TIP3    H140273   5.528   3.349   2.242 -0.4822  1.1785  0.2440
 6238TIP3    H240274   5.440   3.436   2.154 -0.8949  0.5725  0.0470
 6239TIP3   OH240275   5.999   6.399   2.409  0.0886  0.0839 -0.1396
 6239TIP3    H140276   5.921   6.434   2.366 -0.5158 -0.2038  0.6961
 6239TIP3    H240277   6.042   6.476   2.448 -0.8798  0.0181  1.1249
 6240TIP3   OH240278   2.872   3.709   1.977  0.3248  0.2014  0.0650
 6240TIP3    H140279   2.954   3.739   2.017 -0.2774  1.4439  0.4527
 6240TIP3    H240280   2.806   3.721   2.047 -0.2898 -0.1336 -0.4474
 6241TIP3   OH240281   1.922   0.875   3.123  0.3398  0.5660  0.3313
 6241TIP3    H140282   2.009   0.900   3.155  1.1068  1.0719 -1.9533
 6241TIP3    H240283   1.897   0.946   3.063  0.5342 -1.7504 -2.7613
 6242TIP3   OH240284   5.254   6.400   3.116 -0.2322  0.0080  0.1769
 6242TIP3    H140285   5.245   6.492   3.137 -3.0426 -0.2610  0.5228
 6242TIP3    H240286   5.251   6.396   3.021 -1.2947  0.2007  0.1979
 6243TIP3   OH240287   4.743   1.471   7.923 -0.0754  0.0643 -0.1876
 6243TIP3    H140288   4.768   1.540   7.861 -1.3359  1.8112  1.1237
 6243TIP3    H240289   4.817   1.465   7.984 -0.3509  1.0135  0.2668
 6244TIP3   OH240290   0.031   5.986   1.103 -0.7418  0.1439 -0.7513
 6244TIP3    H140291   0.055   5.894   1.090 -0.8183 -0.1452  0.9319
 6244TIP3    H240292   0.101   6.035   1.060 -0.8936 -0.6719 -2.0066
 6245TIP3   OH240293   5.960   4.556   8.658 -0.7602  0.1432  0.1086
 6245TIP3    H140294   5.986   4.464   8.665 -1.2539 -0.1935 -1.8238
 6245TIP3    H240295   5.908   4.573   8.736 -0.5146 -1.1594  0.5778
 6246TIP3   OH240296   6.367   3.960   0.149  0.1169  0.8385  0.3390
 6246TIP3    H140297   6.372   3.986   0.241 -0.4686  1.1784  0.2819
 6246TIP3    H240298   6.376   3.864   0.151 -0.3706  0.7960  0.7974
 6247TIP3   OH240299   1.560   3.831   7.370 -0.6046 -0.3355  0.4136
 6247TIP3    H140300   1.544   3.754   7.315  0.9683 -0.0414 -0.5118
 6247TIP3    H240301   1.490   3.892   7.347  0.0584 -0.1883 -1.3537
 6248TIP3   OH240302   0.311   2.618   2.705  0.4160 -0.2174  0.0986
 6248TIP3    H140303   0.389   2.563   2.715 -0.5881 -1.6236  0.4483
 6248TIP3    H240304   0.337   2.685   2.642  1.5628 -1.3210 -0.6491
 6249TIP3   OH240305   4.895   1.650   0.785 -0.4365 -0.3564  0.2108
 6249TIP3    H140306   4.862   1.726   0.833  0.4502  0.7073 -0.8171
 6249TIP3    H240307   4.988   1.647   0.807 -0.1937 -0.3465 -0.7645
 6250TIP3   OH240308   0.346   6.460   7.525 -0.0811  0.1983  0.2182
 6250TIP3    H140309   0.426   6.509   7.543 -0.2382  0.2914  0.6845
 6250TIP3    H240310   0.322   6.421   7.609 -0.7142  0.4633  0.1725
 6251TIP3   OH240311   4.007   2.784   1.793 -0.3515 -0.0731  0.3846
 6251TIP3    H140312   4.097   2.751   1.787  0.7114  2.6071  0.1648
 6251TIP3    H240313   3.978   2.757   1.880  0.3281 -1.7379  0.1284
 6252TIP3   OH240314   4.860   1.343   2.553 -0.1422  0.7444 -0.4004
 6252TIP3    H140315   4.826   1.432   2.558 -0.8628  0.5297 -1.2247
 6252TIP3    H240316   4.842   1.305   2.639  0.1433  1.3744 -0.0565
 6253TIP3   OH240317   0.459   2.642   8.708  0.0106  0.2676 -0.4184
 6253TIP3    H140318   0.465   2.686   8.622  0.9240 -0.4506 -0.7326
 6253TIP3    H240319   0.516   2.694   8.765  0.0583  0.2589 -0.4575
 6254TIP3   OH240320   3.706   0.539   1.193  0.3945 -0.3081  0.1711
 6254TIP3    H140321   3.740   0.483   1.262  0.0807 -1.1343 -0.3210
 6254TIP3    H240322   3.614   0.512   1.184  0.2844  0.1697 -0.1924
 6255TIP3   OH240323   4.956   3.632   8.319 -0.3317 -0.1638  0.2508
 6255TIP3    H140324   4.869   3.607   8.350  0.2243 -1.7808  0.6334
 6255TIP3    H240325   4.960   3.599   8.230  0.1120 -0.6977  0.4612
 6256TIP3   OH240326   0.314   3.730   1.527 -0.5149 -0.4873 -0.4410
 6256TIP3    H140327   0.393   3.725   1.579  0.6850  0.1803 -2.1122
 6256TIP3    H240328   0.246   3.757   1.589  0.7247 -0.2692  0.8619
 6257TIP3   OH240329   4.990   5.432   3.212 -0.7910 -0.5033 -0.1964
 6257TIP3    H140330   5.019   5.341   3.203  2.1573  0.1364  1.6294
 6257TIP3    H240331   5.062   5.484   3.177 -0.6489  1.1808  2.3097
 6258TIP3   OH240332   0.974   6.641   8.263  0.5315  0.6481  0.1554
 6258TIP3    H140333   0.893   6.659   8.310 -0.5284 -0.2845 -1.2282
 6258TIP3    H240334   0.986   6.716   8.205  0.3999  0.5736  0.0310
 6259TIP3   OH240335   5.562   0.721   1.785 -0.5862  0.1547  0.0170
 6259TIP3    H140336   5.573   0.707   1.879  0.0808  0.1187 -0.0617
 6259TIP3    H240337   5.622   0.793   1.764 -1.4728  0.8522 -0.1994
 6260TIP3   OH240338   5.935   4.432   1.771 -0.3013 -0.1523  0.1665
 6260TIP3    H140339   5.943   4.506   1.830 -1.2787  1.5053 -1.6820
 6260TIP3    H240340   5.854   4.448   1.722  0.2991 -1.5900 -1.4157
 6261TIP3   OH240341   1.198   0.740   1.954 -0.4569 -0.1313  0.3651
 6261TIP3    H140342   1.149   0.665   1.921 -2.2370  0.7798  0.7496
 6261TIP3    H240343   1.242   0.776   1.877  1.2403 -2.0805  0.3461
 6262TIP3   OH240344   5.292   1.652   7.826  0.2822 -0.1630 -0.0951
 6262TIP3    H140345   5.352   1.707   7.875  0.1242 -0.4670  0.4410
 6262TIP3    H240346   5.345   1.615   7.756  0.3447  0.8412 -0.6074
 6263TIP3   OH240347   5.243   6.482   2.446 -0.7753 -0.1069 -0.1434
 6263TIP3    H140348   5.228   6.389   2.433 -0.8802 -0.1935  0.5360
 6263TIP3    H240349   5.173   6.509   2.506 -0.9990  0.4965 -0.6637
 6264TIP3   OH240350   0.437   6.491   7.246  0.4537  0.6728 -0.2193
 6264TIP3    H140351   0.432   6.511   7.339 -0.9248  1.8230 -0.5005
 6264TIP3    H240352   0.386   6.410   7.236  3.0304 -1.1646  0.3872
 6265TIP3   OH240353   6.104   4.693   1.174 -0.1394 -0.8488  0.1940
 6265TIP3    H140354   6.142   4.611   1.143  0.9484 -0.5690  0.7450
 6265TIP3    H240355   6.071   4.672   1.262  0.2658 -0.6664  0.3917
 6266TIP3   OH240356   4.780   5.331   8.555  0.0208  0.0421 -0.1423
 6266TIP3    H140357   4.819   5.299   8.637  0.8492  1.2789 -0.0456
 6266TIP3    H240358   4.846   5.315   8.488 -0.6521 -0.9596 -0.6017
 6267TIP3   OH240359   1.196   0.641   2.419  0.3159  0.2090 -0.7038
 6267TIP3    H140360   1.233   0.680   2.498 -1.3673 -0.2116  0.3486
 6267TIP3    H240361   1.191   0.547   2.439 -2.0982  0.3273 -0.3675
 6268TIP3   OH240362   5.498   4.211   7.210  0.4910 -0.0017 -0.4015
 6268TIP3    H140363   5.547   4.175   7.136 -0.1175 -0.0742 -0.7754
 6268TIP3    H240364   5.437   4.273   7.170  1.2335  1.1414  0.1934
 6269TIP3   OH240365   2.802   5.928   2.619  1.0803  0.2259  0.3659
 6269TIP3    H140366   2.822   6.017   2.590 -0.0808  0.5344  0.4709
 6269TIP3    H240367   2.804   5.933   2.715  2.8777 -0.3217  0.4008
 6270TIP3   OH240368   0.452   4.147   1.045 -0.3495 -0.1877  0.1710
 6270TIP3    H140369   0.484   4.072   0.995  0.3581  0.2727 -0.0854
 6270TIP3    H240370   0.515   4.156   1.117 -0.9698 -0.4175  0.7562
 6271TIP3   OH240371   2.926   4.594   8.019  0.0932 -0.2059  0.2374
 6271TIP3    H140372   2.934   4.688   7.998  0.8843 -0.7091 -2.0821
 6271TIP3    H240373   2.903   4.592   8.112 -0.2490  2.2913  0.2880
 6272TIP3   OH240374   0.360   2.568   7.289 -0.3975 -0.8700 -0.2698
 6272TIP3    H140375   0.424   2.636   7.309 -0.8501 -0.3214 -0.6662
 6272TIP3    H240376   0.407   2.508   7.231 -0.6646  0.3272 -1.7938
 6273TIP3   OH240377   1.054   6.358   0.986 -0.3142 -0.0312  0.1130
 6273TIP3    H140378   1.070   6.276   1.032 -0.9442 -0.6756 -0.7670
 6273TIP3    H240379   1.126   6.364   0.923 -0.4738 -0.1000 -0.0758
 6274TIP3   OH240380   2.831   2.548   8.024  0.0970 -0.0826  0.0657
 6274TIP3    H140381   2.869   2.484   7.964  3.7589  2.4892 -0.7422
 6274TIP3    H240382   2.876   2.532   8.107 -0.1906  0.3747  0.3138
 6275TIP3   OH240383   3.261   6.608   1.099  0.3997 -0.0729 -0.4523
 6275TIP3    H140384   3.282   6.529   1.048 -1.1803  0.8458 -2.6874
 6275TIP3    H240385   3.272   6.680   1.037  2.2599  1.6042  1.6642
 6276TIP3   OH240386   2.528   3.628   0.122 -0.7770 -0.5801  0.1049
 6276TIP3    H140387   2.543   3.643   0.215 -1.7652  1.4004 -0.0057
 6276TIP3    H240388   2.467   3.697   0.096  0.6624 -0.1185 -2.3398
 6277TIP3   OH240389   6.617   6.120   8.911 -0.0322  0.2643  0.1279
 6277TIP3    H140390   6.576   6.145   8.829  1.1529  0.0850 -0.5458
 6277TIP3    H240391   6.703   6.085   8.886 -0.2379 -1.2176  1.3116
 6278TIP3   OH240392   4.555   3.547   1.412 -0.2291  0.2230 -0.3878
 6278TIP3    H140393   4.540   3.482   1.344 -2.7280  1.1546 -0.8328
 6278TIP3    H240394   4.554   3.497   1.494  2.0679 -0.8008 -0.9114
 6279TIP3   OH240395   3.135   5.940   1.930 -0.0509  0.1244  0.3361
 6279TIP3    H140396   3.047   5.901   1.931  0.2790 -0.6451  0.1217
 6279TIP3    H240397   3.151   5.960   1.838  0.1920 -0.1835  0.3117
 6280TIP3   OH240398   5.521   0.185   7.345  0.0267 -0.2044  0.6117
 6280TIP3    H140399   5.536   0.159   7.254  1.1168 -1.3734  1.0780
 6280TIP3    H240400   5.447   0.245   7.342  0.1682 -0.0768 -1.0647
 6281TIP3   OH240401   0.973   2.258   7.923  0.4055  0.5121  0.3174
 6281TIP3    H140402   0.914   2.199   7.969 -2.0934  1.6826 -1.2005
 6281TIP3    H240403   1.000   2.210   7.845 -0.5795  0.8407 -0.2460
 6282TIP3   OH240404   3.891   0.008   0.091 -0.1902  0.2127 -0.2413
 6282TIP3    H140405   3.853   0.037   0.175 -1.0347 -1.8891  0.1621
 6282TIP3    H240406   3.818   0.011   0.030  0.5038  2.0674 -1.0426
 6283TIP3   OH240407   3.765   4.739   1.171 -0.1748 -0.1968  0.5143
 6283TIP3    H140408   3.781   4.731   1.077  3.3031  0.5161  0.9403
 6283TIP3    H240409   3.761   4.833   1.187  1.2511 -0.2576  1.3279
 6284TIP3   OH240410   1.504   6.409   0.726 -0.0428 -0.1176 -0.5757
 6284TIP3    H140411   1.494   6.314   0.718  0.7275 -0.3340  0.8118
 6284TIP3    H240412   1.466   6.430   0.811  0.0683  0.7824 -0.7429
 6285TIP3   OH240413   2.533   4.016   0.962  0.2344 -0.2453 -0.5698
 6285TIP3    H140414   2.454   4.009   0.908  0.8242  0.7934 -1.6125
 6285TIP3    H240415   2.499   4.023   1.052 -0.9705  1.5588 -1.1010
 6286TIP3   OH240416   0.617   0.569   0.407 -1.2826  0.1795  0.3959
 6286TIP3    H140417   0.640   0.476   0.415 -2.1914 -0.0092  1.0818
 6286TIP3    H240418   0.647   0.608   0.489 -0.6905  0.5478  0.0082
 6287TIP3   OH240419   0.369   0.346   8.001  0.1326  0.1710  0.5857
 6287TIP3    H140420   0.352   0.354   7.907 -1.5226  0.5473  0.8844
 6287TIP3    H240421   0.319   0.417   8.041 -0.2347 -0.7584  1.8585
 6288TIP3   OH240422   3.555   4.079   1.228  0.3283 -0.4066 -0.2680
 6288TIP3    H140423   3.486   4.100   1.165  0.2502  2.7017  0.6610
 6288TIP3    H240424   3.532   4.129   1.306  2.1075 -1.6205  1.1114
 6289TIP3   OH240425   6.650   0.489   1.457 -0.3278 -0.4048 -0.0271
 6289TIP3    H140426   6.707   0.442   1.518  1.1426 -1.4270 -2.0691
 6289TIP3    H240427   6.659   0.581   1.482  1.9614 -0.5816 -0.0185
 6290TIP3   OH240428   5.749   6.548   1.567 -0.3020 -0.3370 -0.2858
 6290TIP3    H140429   5.721   6.542   1.659  0.5710 -0.1374  0.0080
 6290TIP3    H240430   5.766   6.457   1.542 -0.1070 -0.3533 -0.1019
 6291TIP3   OH240431   0.446   6.274   8.079 -0.0321 -0.2166 -0.1503
 6291TIP3    H140432   0.527   6.228   8.055  0.1441 -0.3449  0.6547
 6291TIP3    H240433   0.470   6.325   8.156 -0.6781 -0.1239 -0.0055
 6292TIP3   OH240434   0.377   3.431   1.007 -0.2730 -1.1384 -0.4911
 6292TIP3    H140435   0.399   3.515   1.047  1.4697 -1.3320 -0.9535
 6292TIP3    H240436   0.303   3.450   0.950  0.0327  0.0661 -0.5196
 6293TIP3   OH240437   6.684   6.520   8.829  0.7812  0.1563  1.0324
 6293TIP3    H140438   6.685   6.497   8.736  0.6958  1.2021  0.7602
 6293TIP3    H240439   6.754   6.585   8.838  0.6755  0.1844  1.6717
 6294TIP3   OH240440   5.609   1.537   1.937 -0.7050  0.2577 -0.0519
 6294TIP3    H140441   5.527   1.586   1.935  0.4986  2.4326  0.6277
 6294TIP3    H240442   5.589   1.459   1.989 -2.0755  1.2733  1.0088
 6295TIP3   OH240443   5.901   6.745   1.467 -0.1900 -0.6203 -0.2565
 6295TIP3    H140444   5.861   6.763   1.381 -0.5482 -1.4866 -0.2733
 6295TIP3    H240445   5.852   6.671   1.502 -2.0472  1.5050  2.0383
 6296TIP3   OH240446   3.271   5.710   2.565  0.2161 -0.1726 -0.4941
 6296TIP3    H140447   3.350   5.762   2.549  0.6144 -0.0478  1.6199
 6296TIP3    H240448   3.287   5.667   2.649 -2.6247  1.2178  0.8978
 6297TIP3   OH240449   5.936   4.186   8.099 -0.2789 -0.1570  0.3065
 6297TIP3    H140450   5.987   4.196   8.018  1.4015  0.5947  1.4036
 6297TIP3    H240451   5.950   4.094   8.124  0.5212  0.0275  0.5677
 6298TIP3   OH240452   3.672   0.747   0.854  0.8127  0.1378  0.1029
 6298TIP3    H140453   3.697   0.821   0.910 -0.4632  1.6340 -1.2108
 6298TIP3    H240454   3.730   0.676   0.882  2.2362  1.6669  1.2964
 6299TIP3   OH240455   5.480   1.406   8.680  0.5860  0.3030 -0.6093
 6299TIP3    H140456   5.401   1.457   8.662  0.9112  1.6720  1.5062
 6299TIP3    H240457   5.450   1.316   8.687 -0.7929  0.7962  0.0466
 6300TIP3   OH240458   5.249   6.350   2.139  0.0564  0.5138 -0.6665
 6300TIP3    H140459   5.185   6.360   2.069  0.5373  0.9072 -1.0504
 6300TIP3    H240460   5.214   6.278   2.192  0.2634 -0.5622 -1.9389
 6301TIP3   OH240461   1.101   4.760   7.599 -0.3110  0.5234  0.0580
 6301TIP3    H140462   1.125   4.827   7.534  1.9504 -0.7651 -0.5649
 6301TIP3    H240463   1.135   4.794   7.682 -2.1604  1.6310  0.4106
 6302TIP3   OH240464   3.145   2.029   2.047 -0.8562 -0.5396 -0.0645
 6302TIP3    H140465   3.204   2.040   2.121 -1.5867 -1.5954  0.7003
 6302TIP3    H240466   3.200   1.989   1.979 -0.3402 -0.1628  0.1247
 6303TIP3   OH240467   4.890   4.696   2.998  0.1965  0.1988  0.1530
 6303TIP3    H140468   4.908   4.782   3.036 -0.3103  0.8123 -0.9518
 6303TIP3    H240469   4.946   4.636   3.046  1.8608  1.3950 -0.2271
 6304TIP3   OH240470   2.244   2.365   1.743 -0.1730 -0.3653 -0.2527
 6304TIP3    H140471   2.239   2.424   1.819 -1.4019 -0.6959 -0.0518
 6304TIP3    H240472   2.324   2.391   1.698 -1.5297  2.6966 -1.1638
 6305TIP3   OH240473   2.437   1.865   2.078  0.2773 -0.0185  0.3072
 6305TIP3    H140474   2.528   1.835   2.067  0.5056  0.5581  0.5485
 6305TIP3    H240475   2.385   1.807   2.023  0.5053 -1.8844  1.9203
 6306TIP3   OH240476   5.451   4.973   8.434  0.4794  0.1859  0.5097
 6306TIP3    H140477   5.453   5.050   8.490 -1.9381  0.2795  0.5999
 6306TIP3    H240478   5.367   4.931   8.454 -0.0557 -0.3211 -2.3153
 6307TIP3   OH240479   3.209   2.793   7.175  0.3412  0.4704  0.3547
 6307TIP3    H140480   3.194   2.860   7.241  1.5207  0.7880  0.3198
 6307TIP3    H240481   3.205   2.840   7.092  0.3536  0.3457  0.2829
 6308TIP3   OH240482   6.304   1.364   1.099  0.4754  0.3131 -1.0393
 6308TIP3    H140483   6.385   1.402   1.065  1.2309 -0.9214 -0.6893
 6308TIP3    H240484   6.284   1.414   1.178  0.4585  1.1294 -1.5534
 6309TIP3   OH240485   4.906   6.598   7.708 -0.0411 -0.4301  0.0148
 6309TIP3    H140486   4.889   6.538   7.781 -1.9423 -0.4059 -0.3698
 6309TIP3    H240487   4.881   6.684   7.742  1.4373 -0.0125  0.1267
 6310TIP3   OH240488   0.235   0.278   1.484  0.6368  0.6198 -0.1120
 6310TIP3    H140489   0.142   0.269   1.505  0.3824 -0.2667 -1.4597
 6310TIP3    H240490   0.280   0.257   1.565 -0.3184 -0.5687  0.1397
 6311TIP3   OH240491   5.649   4.262   2.066  0.0702 -0.5765 -0.1744
 6311TIP3    H140492   5.654   4.167   2.070  0.1278 -0.5310  1.1707
 6311TIP3    H240493   5.656   4.291   2.157  0.3654  0.7329 -0.5865
 6312TIP3   OH240494   1.892   4.298   2.031  0.1824 -0.0127  0.0683
 6312TIP3    H140495   1.910   4.323   2.122  0.2903 -0.8714  0.2873
 6312TIP3    H240496   1.977   4.271   1.997  0.0047 -0.4132 -0.0578
 6313TIP3   OH240497   2.255   4.139   1.646 -0.6885 -0.2476  0.1304
 6313TIP3    H140498   2.323   4.158   1.582 -2.1529 -0.5029 -1.6208
 6313TIP3    H240499   2.267   4.203   1.716  2.4770 -1.4829  0.8868
 6314TIP3   OH240500   4.348   2.111   0.058  0.2802  0.1742 -0.2563
 6314TIP3    H140501   4.361   2.041   0.121 -0.6392  1.0700  0.9698
 6314TIP3    H240502   4.437   2.141   0.036  0.6178 -0.3129  0.4196
 6315TIP3   OH240503   0.864   3.663   1.847 -0.2028  0.0613  0.1569
 6315TIP3    H140504   0.880   3.601   1.918 -0.8489 -0.5794 -0.2526
 6315TIP3    H240505   0.775   3.695   1.862  0.5305  1.8082  1.0452
 6316TIP3   OH240506   4.380   2.559   1.403  0.0208 -0.3368 -0.0943
 6316TIP3    H140507   4.325   2.601   1.337  0.2418  2.1277  1.1415
 6316TIP3    H240508   4.416   2.632   1.454  1.8209 -2.0046  1.2067
 6317TIP3   OH240509   4.356   1.785   1.553  0.4966  0.2288  0.1896
 6317TIP3    H140510   4.305   1.706   1.533  1.2962 -0.1526 -0.3729
 6317TIP3    H240511   4.300   1.857   1.523  0.0659 -0.1510  0.0562
 6318TIP3   OH240512   0.266   5.264   8.707  0.7705  0.3209  0.1660
 6318TIP3    H140513   0.237   5.195   8.647 -0.1203 -1.1826  2.2222
 6318TIP3    H240514   0.362   5.260   8.702  0.7252  0.3163 -1.2017
 6319TIP3   OH240515   2.355   0.580   2.113 -0.1528  0.3047  0.0102
 6319TIP3    H140516   2.370   0.492   2.077  0.3330  0.1637  0.5441
 6319TIP3    H240517   2.320   0.564   2.201 -2.2948  0.6375 -0.7268
 6320TIP3   OH240518   5.450   5.409   7.559  0.1484 -0.9210  0.1130
 6320TIP3    H140519   5.394   5.403   7.481  0.0722 -0.1029  0.0951
 6320TIP3    H240520   5.403   5.360   7.626 -0.3070 -0.7306 -0.0621
 6321TIP3   OH240521   1.039   1.548   1.673 -0.0531 -0.4230 -0.5085
 6321TIP3    H140522   1.037   1.455   1.652 -0.8474 -0.7371  0.8501
 6321TIP3    H240523   0.952   1.567   1.706  0.5770  0.4318  0.7409
 6322TIP3   OH240524   4.620   0.712   8.212 -0.4084  0.4323  0.6437
 6322TIP3    H140525   4.651   0.653   8.143  3.1178  1.1379  1.4496
 6322TIP3    H240526   4.649   0.799   8.184 -0.8180  1.0376  2.0057
 6323TIP3   OH240527   0.417   0.368   8.877 -0.3658  0.2147 -0.3467
 6323TIP3    H140528   0.333   0.414   8.866 -0.0429  1.3186  1.3267
 6323TIP3    H240529   0.481   0.438   8.888  0.5182 -0.6326  0.0328
 6324TIP3   OH240530   2.530   2.810   6.896 -0.4614 -0.2334  0.5238
 6324TIP3    H140531   2.525   2.888   6.951 -1.4513  0.4697 -0.5250
 6324TIP3    H240532   2.471   2.828   6.823  1.5857 -0.6615 -1.3614
 6325TIP3   OH240533   3.484   2.817   0.732 -0.3613 -0.6853  0.2425
 6325TIP3    H140534   3.573   2.796   0.703 -0.2464 -0.0543  0.1203
 6325TIP3    H240535   3.427   2.766   0.675 -0.0791 -1.0091  0.2513
 6326TIP3   OH240536   0.205   1.568   8.912  0.2357 -0.1473  0.3603
 6326TIP3    H140537   0.132   1.628   8.927 -0.5544 -0.7545 -0.8569
 6326TIP3    H240538   0.283   1.617   8.937 -0.6388  0.1705  2.7095
 6327TIP3   OH240539   3.977   2.586   6.664  0.4153 -0.0078  0.0614
 6327TIP3    H140540   3.948   2.495   6.671  0.9144 -0.0666  1.5737
 6327TIP3    H240541   4.060   2.581   6.617 -0.2671 -0.1668 -1.1761
 6328TIP3   OH240542   0.480   1.521   8.675 -0.1853  0.4337  0.5555
 6328TIP3    H140543   0.403   1.465   8.664  0.1312 -0.4241  2.2969
 6328TIP3    H240544   0.524   1.485   8.752  1.8693  1.0244 -0.2834
 6329TIP3   OH240545   1.362   0.511   1.312  0.1502  0.1687 -0.5777
 6329TIP3    H140546   1.425   0.515   1.383 -1.4773 -0.8019  1.0168
 6329TIP3    H240547   1.411   0.535   1.234  1.7395  2.4178  1.0113
 6330TIP3   OH240548   6.485   2.198   1.998  0.1582  0.1374  0.0664
 6330TIP3    H140549   6.472   2.146   2.077  0.4318 -0.7576 -0.4579
 6330TIP3    H240550   6.544   2.269   2.025  1.7881 -1.2300  0.2717
 6331TIP3   OH240551   4.684   4.516   0.521 -0.1484 -0.5213 -0.0136
 6331TIP3    H140552   4.729   4.451   0.575 -0.3342 -1.2873 -0.7405
 6331TIP3    H240553   4.725   4.507   0.435 -0.3993  0.1053 -0.2003
 6332TIP3   OH240554   0.955   2.891   8.454 -0.1931 -0.2198  0.8073
 6332TIP3    H140555   0.994   2.909   8.368  1.0339  0.8090  1.5300
 6332TIP3    H240556   0.923   2.801   8.448  2.2119 -1.1033  0.0707
 6333TIP3   OH240557   0.872   6.325   7.805 -0.7772 -0.1054 -0.2338
 6333TIP3    H140558   0.887   6.417   7.825  0.5781 -0.1981 -0.6655
 6333TIP3    H240559   0.850   6.324   7.712 -0.3992 -0.2320 -0.3273
 6334TIP3   OH240560   0.037   6.700   0.937  0.3239 -0.6034 -0.0860
 6334TIP3    H140561   0.052   6.606   0.949  0.7986 -0.5558 -0.2926
 6334TIP3    H240562  -0.049   6.705   0.895  0.4145 -0.9559 -0.3143
 6335TIP3   OH240563   2.552   1.615   0.598  0.0643 -0.7173  0.2779
 6335TIP3    H140564   2.461   1.623   0.570  0.3080  2.5520  0.0604
 6335TIP3    H240565   2.547   1.606   0.693 -0.5170  0.4751  0.3819
 6336TIP3   OH240566   1.772   2.997   8.350  0.0914  0.1236  0.5058
 6336TIP3    H140567   1.835   2.926   8.340 -1.1277 -0.7494 -2.1039
 6336TIP3    H240568   1.700   2.959   8.401 -0.1586 -0.2711 -0.1245
 6337TIP3   OH240569   4.983   4.948   1.741  0.7223 -0.5475  0.1214
 6337TIP3    H140570   4.961   4.885   1.672 -0.0384 -0.5541  0.3651
 6337TIP3    H240571   4.978   5.033   1.698  2.1453 -0.6441 -0.3135
 6338TIP3   OH240572   1.119   2.241   2.336 -0.0650 -0.0674 -0.3962
 6338TIP3    H140573   1.042   2.244   2.394  0.9415 -0.2356  1.0016
 6338TIP3    H240574   1.174   2.173   2.373  1.6039  1.2918 -0.2676
 6339TIP3   OH240575   0.577   2.558   0.767 -0.1811  0.2262 -0.1089
 6339TIP3    H140576   0.639   2.628   0.746 -1.1063  1.2894  0.6225
 6339TIP3    H240577   0.606   2.526   0.853 -0.5286  0.5966  0.1477
 6340TIP3   OH240578   1.937   5.783   2.640 -0.1064  0.2726  0.3562
 6340TIP3    H140579   2.011   5.722   2.648 -0.0535  0.0529 -1.3246
 6340TIP3    H240580   1.978   5.866   2.615 -0.4291 -0.0118 -1.2353
 6341TIP3   OH240581   0.534   2.966   7.802  0.1042  0.4938  0.4645
 6341TIP3    H140582   0.574   2.912   7.735 -0.3893  0.7627 -0.0550
 6341TIP3    H240583   0.533   3.054   7.766  0.4563  0.7684  1.1051
 6342TIP3   OH240584   3.009   4.841   7.912 -0.5283 -0.3122  0.5470
 6342TIP3    H140585   2.998   4.828   7.818 -1.2187  1.5677  0.3263
 6342TIP3    H240586   3.104   4.836   7.926 -0.3612  0.0984 -0.3725
 6343TIP3   OH240587   4.724   5.788   0.549 -0.2683 -0.1383 -0.5473
 6343TIP3    H140588   4.754   5.769   0.638  0.4311  0.8872 -0.5490
 6343TIP3    H240589   4.733   5.705   0.503  0.0133 -0.5132  0.1663
 6344TIP3   OH240590   4.517   1.762   1.255  0.0807 -0.0885  0.0953
 6344TIP3    H140591   4.553   1.779   1.342  0.7712  1.8239 -0.5181
 6344TIP3    H240592   4.426   1.738   1.271  0.5636 -1.2033  1.4128
 6345TIP3   OH240593   0.651   0.326   7.385 -0.3794  0.2514 -0.1380
 6345TIP3    H140594   0.635   0.377   7.465 -3.8226 -2.1169  0.8821
 6345TIP3    H240595   0.732   0.278   7.404  0.1197  1.4224  0.9103
 6346TIP3   OH240596   0.064   4.606   2.873  0.0679  0.3507  0.6045
 6346TIP3    H140597   0.132   4.539   2.876 -1.4500 -1.2476  0.3176
 6346TIP3    H240598   0.083   4.662   2.949  1.0616 -0.6979  1.1600
 6347TIP3   OH240599   5.335   0.829   1.042 -0.0079 -0.5845  0.2874
 6347TIP3    H140600   5.285   0.771   0.985  1.3190  0.1592 -1.7639
 6347TIP3    H240601   5.293   0.915   1.032 -0.4794 -0.6751  1.3876
 6348TIP3   OH240602   4.202   0.669   0.870 -0.1360 -0.0985 -0.0333
 6348TIP3    H140603   4.247   0.752   0.887  0.8572 -0.1537 -2.1013
 6348TIP3    H240604   4.265   0.602   0.896 -0.3781 -0.2025  0.2901
 6349TIP3   OH240605   2.647   0.787   0.677 -0.9543  0.1235  0.2718
 6349TIP3    H140606   2.716   0.810   0.615 -2.7742  0.9302 -1.5808
 6349TIP3    H240607   2.599   0.716   0.634 -0.6947 -1.1892  2.0148
 6350TIP3   OH240608   3.597   0.583   2.798  0.0721 -0.6362  0.3129
 6350TIP3    H140609   3.585   0.640   2.721  1.1242 -0.6814  0.0963
 6350TIP3    H240610   3.508   0.561   2.825 -0.4554  2.1571  1.2128
 6351TIP3   OH240611   2.415   5.223   0.608  0.2380 -0.0889 -0.0914
 6351TIP3    H140612   2.332   5.203   0.565  0.4309  0.1451 -0.5774
 6351TIP3    H240613   2.391   5.251   0.696 -0.2262  0.3791 -0.3621
 6352TIP3   OH240614   2.619   1.186   2.453  0.2336  0.2157 -0.3760
 6352TIP3    H140615   2.585   1.155   2.370 -0.5208  0.8552 -0.3075
 6352TIP3    H240616   2.545   1.181   2.513  0.9432 -0.9260  0.4543
 6353TIP3   OH240617   1.298   2.400   6.959 -0.1607  0.4455  0.5121
 6353TIP3    H140618   1.248   2.336   6.909  2.0334  0.0340 -1.2870
 6353TIP3    H240619   1.329   2.351   7.036  0.4651 -0.3482 -0.2210
 6354TIP3   OH240620   1.671   2.629   1.329  0.1974  0.7609  0.0345
 6354TIP3    H140621   1.578   2.644   1.313  0.1729  0.6757  0.1032
 6354TIP3    H240622   1.674   2.562   1.397  0.3185 -0.9441 -1.5839
 6355TIP3   OH240623   1.189   0.320   0.221  0.5384  0.3173  0.0116
 6355TIP3    H140624   1.163   0.290   0.135  1.1275 -0.7005  0.1713
 6355TIP3    H240625   1.276   0.358   0.208  0.4112  0.6376  0.0742
 6356TIP3   OH240626   0.275   0.787   8.111 -0.2164  0.5430  0.2542
 6356TIP3    H140627   0.294   0.696   8.087  0.1708  0.4378  0.9402
 6356TIP3    H240628   0.290   0.836   8.030  0.6609  0.1340  0.1559
 6357TIP3   OH240629   2.412   0.877   0.804 -0.2359 -0.0288  0.1128
 6357TIP3    H140630   2.382   0.815   0.871  0.4804  0.6761  1.1197
 6357TIP3    H240631   2.483   0.831   0.759 -1.2945 -0.8433 -0.7798
 6358TIP3   OH240632   1.441   4.664   2.810 -0.5314 -0.5104 -0.7619
 6358TIP3    H140633   1.403   4.619   2.734  1.4828 -0.1041 -2.0823
 6358TIP3    H240634   1.520   4.614   2.831  0.0976  0.6300 -0.3272
 6359TIP3   OH240635   3.527   4.336   1.370 -0.1762  0.7289 -0.1648
 6359TIP3    H140636   3.606   4.330   1.424 -0.7841  1.0995  0.7952
 6359TIP3    H240637   3.510   4.430   1.363 -1.0919  0.6177  0.4815
 6360TIP3   OH240638   2.000   5.675   6.921 -0.1458 -0.1683 -0.0992
 6360TIP3    H140639   2.068   5.736   6.892 -0.6801  0.6755  0.3682
 6360TIP3    H240640   1.924   5.731   6.941 -1.4014 -1.1794 -1.7400
 6361TIP3   OH240641   0.936   3.533   2.067 -0.2197 -0.2206  0.0924
 6361TIP3    H140642   0.924   3.558   2.159  0.7826  1.6646 -0.2505
 6361TIP3    H240643   1.021   3.489   2.066  0.0339  0.2738 -0.0296
 6362TIP3   OH240644   2.417   4.507   2.622 -0.4495 -0.0749 -0.3063
 6362TIP3    H140645   2.400   4.500   2.528 -0.8581  1.2747 -0.3540
 6362TIP3    H240646   2.389   4.596   2.645  0.6878  0.0123  0.8781
 6363TIP3   OH240647   3.956   3.261   0.626  0.2016 -0.1707 -0.3579
 6363TIP3    H140648   3.945   3.169   0.649 -0.6182 -0.6128 -2.2842
 6363TIP3    H240649   3.933   3.264   0.533  1.7553  1.6987 -0.7234
 6364TIP3   OH240650   5.298   1.464   8.474  0.0558 -0.5525  0.1707
 6364TIP3    H140651   5.287   1.370   8.460  0.8181 -0.5287 -0.6518
 6364TIP3    H240652   5.223   1.505   8.431  0.0777 -0.7439 -0.0456
 6365TIP3   OH240653   3.279   5.851   3.211 -0.1993 -0.0065  0.3405
 6365TIP3    H140654   3.187   5.865   3.187 -0.6238 -3.5655 -0.6988
 6365TIP3    H240655   3.322   5.826   3.129  1.9098  2.1605  0.6918
 6366TIP3   OH240656   6.165   1.791   1.263 -0.6541 -0.3908 -0.0740
 6366TIP3    H140657   6.184   1.881   1.290 -1.4206  0.2239 -1.4815
 6366TIP3    H240658   6.127   1.800   1.176 -1.0876 -2.0628 -0.0826
 6367TIP3   OH240659   4.680   0.808   1.240 -0.2845 -0.8315  0.0717
 6367TIP3    H140660   4.688   0.892   1.284  0.2514 -1.0466  0.3936
 6367TIP3    H240661   4.742   0.813   1.167 -1.0617 -0.5318 -0.5857
 6368TIP3   OH240662   1.537   5.344   0.848 -0.5575  0.1485 -0.2595
 6368TIP3    H140663   1.533   5.318   0.756 -1.9752 -0.7714  0.0284
 6368TIP3    H240664   1.445   5.354   0.874 -0.1805  0.3768  1.0583
 6369TIP3   OH240665   3.623   0.363   0.300  0.0360  0.3115 -0.6790
 6369TIP3    H140666   3.703   0.410   0.277  1.3891 -1.3441  0.2923
 6369TIP3    H240667   3.603   0.392   0.389  1.2887 -1.3290  0.2054
 6370TIP3   OH240668   1.054   6.550   8.764 -0.3198 -0.2917  0.5029
 6370TIP3    H140669   1.103   6.527   8.843  1.3653  0.3379 -0.3066
 6370TIP3    H240670   1.050   6.468   8.714  1.2361 -0.0355 -0.0872
 6371TIP3   OH240671   4.866   3.786   2.459  0.2241  0.2480 -0.1506
 6371TIP3    H140672   4.932   3.717   2.457  0.2555  0.2919 -1.3017
 6371TIP3    H240673   4.790   3.749   2.414 -1.1387 -0.3327  2.4300
 6372TIP3   OH240674   1.336   5.783   0.394  0.2940 -0.3526  0.1109
 6372TIP3    H140675   1.408   5.752   0.340  1.3642 -0.2260  1.4140
 6372TIP3    H240676   1.283   5.705   0.411  0.0810 -0.4366 -0.8792
 6373TIP3   OH240677   4.909   5.895   8.537  0.6536 -0.2000 -0.6807
 6373TIP3    H140678   4.846   5.926   8.601  1.2845  0.1501 -0.2118
 6373TIP3    H240679   4.956   5.973   8.509 -0.5293 -0.1290 -2.6315
 6374TIP3   OH240680   6.033   5.526   7.545  0.2671 -0.1085  0.1606
 6374TIP3    H140681   6.122   5.490   7.541  1.3737  2.4466 -0.0879
 6374TIP3    H240682   6.002   5.520   7.454  0.6104 -0.0455  0.0335
 6375TIP3   OH240683   3.851   2.611   7.177 -0.2948 -0.3759 -0.3670
 6375TIP3    H140684   3.889   2.573   7.098  0.0185  0.2009 -0.4965
 6375TIP3    H240685   3.888   2.699   7.182 -1.0597 -0.0580 -0.1042
 6376TIP3   OH240686   1.841   0.029   8.100 -0.4065  0.0261 -0.4859
 6376TIP3    H140687   1.925  -0.001   8.068 -0.8558  0.8853 -2.6270
 6376TIP3    H240688   1.790  -0.051   8.112  0.6515 -0.4968  0.8027
 6377TIP3   OH240689   3.238   1.183   1.515 -0.4475  0.0951 -0.3026
 6377TIP3    H140690   3.223   1.274   1.543  2.4252  0.4229  0.5892
 6377TIP3    H240691   3.180   1.131   1.571  1.5428  1.1136  3.0390
 6378TIP3   OH240692   4.041   6.242   0.884 -0.6264  0.2319  0.3541
 6378TIP3    H140693   4.135   6.221   0.891 -0.1665  1.6865 -0.9434
 6378TIP3    H240694   3.999   6.157   0.872  0.4820 -0.4822  1.3199
 6379TIP3   OH240695   2.769   4.098   0.869 -0.3202  0.0724 -0.0002
 6379TIP3    H140696   2.677   4.101   0.898 -0.3746  1.0091 -0.2205
 6379TIP3    H240697   2.785   4.006   0.848 -1.2484 -0.0834 -0.0758
 6380TIP3   OH240698   2.990   4.833   1.181  0.6091  0.2172 -0.1209
 6380TIP3    H140699   2.916   4.780   1.155 -0.5499  1.2221  0.9566
 6380TIP3    H240700   3.061   4.806   1.124 -0.6986 -0.4737 -1.4783
 6381TIP3   OH240701   5.321   1.482   0.230 -0.1679 -0.0634  0.0853
 6381TIP3    H140702   5.379   1.556   0.249  0.1677 -0.3524  0.1971
 6381TIP3    H240703   5.272   1.508   0.152  0.2485  0.1041 -0.1186
 6382TIP3   OH240704   3.665   0.694   1.645  0.2069 -0.2442  0.1996
 6382TIP3    H140705   3.687   0.759   1.711 -2.3151  0.0491  0.8681
 6382TIP3    H240706   3.636   0.745   1.569  1.1902 -0.6067 -0.4506
 6383TIP3   OH240707   3.878   3.950   7.204 -0.1714  1.0434  0.2347
 6383TIP3    H140708   3.916   3.966   7.290  1.5042  2.3604 -0.6874
 6383TIP3    H240709   3.910   3.863   7.180 -1.8372  0.0314  1.4960
 6384TIP3   OH240710   3.442   6.541   8.409 -0.9150 -0.6631 -1.1799
 6384TIP3    H140711   3.526   6.498   8.423 -2.4473 -3.4820  0.0353
 6384TIP3    H240712   3.465   6.629   8.378  2.4365 -1.3060 -0.8445
 6385TIP3   OH240713   6.470   0.926   8.903  0.1032  1.0617 -0.0663
 6385TIP3    H140714   6.386   0.882   8.885 -0.3822  1.9275  0.0362
 6385TIP3    H240715   6.476   0.927   8.998  1.6265 -1.5586 -0.0451
 6386TIP3   OH240716   5.766   1.939   6.601 -0.4744 -0.1622 -0.1043
 6386TIP3    H140717   5.729   1.891   6.527  1.2967 -1.3172 -0.2990
 6386TIP3    H240718   5.782   2.027   6.566  0.7200 -0.7985 -1.2683
 6387TIP3   OH240719   4.784   5.623   1.611 -0.4177 -1.0065  0.3060
 6387TIP3    H140720   4.796   5.624   1.706  1.4829 -0.2778  0.1057
 6387TIP3    H240721   4.850   5.684   1.578 -2.8905  0.9679 -1.3388
 6388TIP3   OH240722   0.360   2.986   7.226  0.2815 -0.7784  0.4806
 6388TIP3    H140723   0.283   2.930   7.241 -0.3813  0.0713  0.3397
 6388TIP3    H240724   0.366   3.039   7.306 -0.6986  0.7744 -0.4122
 6389TIP3   OH240725   0.652   4.811   0.870  0.1067  0.2523  0.6499
 6389TIP3    H140726   0.710   4.838   0.941  1.0074 -0.8459  0.3654
 6389TIP3    H240727   0.565   4.841   0.897  0.7972  2.0874  1.0147
 6390TIP3   OH240728   3.931   3.226   1.237 -0.3630  0.3485 -0.1882
 6390TIP3    H140729   3.979   3.280   1.174 -0.7178 -1.5181 -2.1594
 6390TIP3    H240730   3.996   3.165   1.271 -0.3636  0.8023  0.6609
 6391TIP3   OH240731   1.301   3.227   0.401  0.3495 -0.2381  0.5820
 6391TIP3    H140732   1.279   3.317   0.425  0.7784  0.0301 -0.0168
 6391TIP3    H240733   1.232   3.200   0.341  1.8354  0.7987 -1.7501
 6392TIP3   OH240734   2.033   3.382   1.910 -0.1840 -0.0145  0.4960
 6392TIP3    H140735   2.025   3.428   1.994  3.1864  1.5885  0.0796
 6392TIP3    H240736   2.061   3.294   1.935 -0.2623  0.1200  1.0897
 6393TIP3   OH240737   2.010   5.031   8.215  0.3193 -0.5052 -0.6650
 6393TIP3    H140738   1.965   5.023   8.131 -0.8688 -0.5494 -0.0417
 6393TIP3    H240739   2.101   5.008   8.196  0.2361  0.2376 -2.0942
 6394TIP3   OH240740   5.197   6.603   8.498  0.1825 -0.1460  0.1018
 6394TIP3    H140741   5.220   6.677   8.442  1.0902 -0.7720 -0.3919
 6394TIP3    H240742   5.131   6.555   8.448  0.5209 -0.3478 -0.1653
 6395TIP3   OH240743   2.611   4.261   0.180  0.2022 -0.5547 -0.0007
 6395TIP3    H140744   2.618   4.348   0.219 -1.0326 -0.6022  0.3624
 6395TIP3    H240745   2.671   4.263   0.106 -1.8404  1.5768 -1.7511
 6396TIP3   OH240746   2.662   4.916   8.447  0.9706 -0.1446 -0.1422
 6396TIP3    H140747   2.744   4.957   8.420  0.1665  0.4449 -1.8441
 6396TIP3    H240748   2.687   4.828   8.477  2.5570  1.0519  2.3516
 6397TIP3   OH240749   0.434   4.800   1.934  0.0038 -0.6650  0.0417
 6397TIP3    H140750   0.346   4.763   1.939 -0.3826  0.0595 -0.9811
 6397TIP3    H240751   0.440   4.836   1.845  0.5824  1.1144  0.7468
 6398TIP3   OH240752   3.180   6.529   7.680  0.1062 -0.5698  0.8405
 6398TIP3    H140753   3.149   6.481   7.603  2.9683 -0.3407 -0.6275
 6398TIP3    H240754   3.210   6.461   7.740  0.1267 -0.7169  0.6658
 6399TIP3   OH240755   2.434   0.934   0.003 -0.1823 -0.4576  0.3004
 6399TIP3    H140756   2.478   0.963   0.083 -0.7196 -1.6678  1.0683
 6399TIP3    H240757   2.444   1.008  -0.058  1.0165  0.1334  1.1649
 6400TIP3   OH240758   1.333   1.391   8.526  0.3903  0.3076 -0.0229
 6400TIP3    H140759   1.278   1.395   8.604 -0.1265  1.1703 -0.4150
 6400TIP3    H240760   1.419   1.364   8.559  0.0858  0.2876  0.7889
 6401TIP3   OH240761   1.739   3.307   8.572  0.7677  0.2065 -0.4038
 6401TIP3    H140762   1.708   3.274   8.487 -0.9091  2.1576 -0.6336
 6401TIP3    H240763   1.703   3.246   8.636  1.2009 -0.7211 -1.0200
 6402TIP3   OH240764   5.259   4.430   7.387  0.3835  1.0102 -0.1123
 6402TIP3    H140765   5.306   4.489   7.328  0.3388  1.4089  0.2422
 6402TIP3    H240766   5.166   4.450   7.372  0.3094  0.0829 -0.9567
 6403TIP3   OH240767   4.049   0.335   8.027  0.8730 -0.4047  0.1372
 6403TIP3    H140768   4.053   0.266   8.093  0.3554 -0.6746 -0.1075
 6403TIP3    H240769   4.113   0.308   7.961 -0.2341 -1.3348 -0.5891
 6404TIP3   OH240770   5.095   2.046   1.291  0.1109 -0.6489  0.7763
 6404TIP3    H140771   5.088   2.111   1.221  2.4698 -0.1850  0.9121
 6404TIP3    H240772   5.009   2.047   1.333  0.4946  3.6884  1.9183
 6405TIP3   OH240773   2.661   6.218   2.022  0.2310 -0.2551 -0.6711
 6405TIP3    H140774   2.617   6.248   2.102  0.3345 -3.4122  0.7410
 6405TIP3    H240775   2.615   6.137   1.998  2.1574 -1.0445 -1.9947
 6406TIP3   OH240776   4.896   0.714   8.481  0.4508  0.1282 -0.2667
 6406TIP3    H140777   4.873   0.623   8.464 -1.1006  0.7900 -2.1310
 6406TIP3    H240778   4.815   0.754   8.514  0.9611  0.9501  0.0342
 6407TIP3   OH240779   0.975   0.389   8.676 -0.5560  0.0533  0.2380
 6407TIP3    H140780   0.916   0.315   8.663 -1.1984  0.7649 -1.2045
 6407TIP3    H240781   0.919   0.458   8.713 -0.8711  0.9807 -1.8370
 6408TIP3   OH240782   4.450   2.760   8.221  0.3404  0.4524  0.2618
 6408TIP3    H140783   4.391   2.815   8.273 -0.5162 -1.3555  1.2592
 6408TIP3    H240784   4.484   2.820   8.154 -0.9419  2.0732  0.9789
 6409TIP3   OH240785   1.687   0.326   0.680 -0.2507 -0.0831  0.4483
 6409TIP3    H140786   1.595   0.315   0.657 -0.3727  0.2277  0.7818
 6409TIP3    H240787   1.734   0.319   0.597 -0.6560  0.7399  0.1452
 6410TIP3   OH240788   0.598   1.943   3.064 -0.6985 -0.3270  0.3206
 6410TIP3    H140789   0.665   1.896   3.115  0.0009 -1.9010 -1.8914
 6410TIP3    H240790   0.647   1.983   2.992 -1.9890 -0.7479 -0.8250
 6411TIP3   OH240791   5.977   4.332   0.824 -0.2033  0.5635 -0.8614
 6411TIP3    H140792   5.929   4.292   0.896 -0.8106  1.3861 -0.7936
 6411TIP3    H240793   6.060   4.283   0.820  0.1032  0.8882  0.7743
 6412TIP3   OH240794   2.896   1.932   8.929 -0.2453 -0.1478 -0.1018
 6412TIP3    H140795   2.824   1.922   8.991 -0.0474 -1.7760 -0.0835
 6412TIP3    H240796   2.967   1.972   8.981  0.2695 -2.4018  1.0748
 6413TIP3   OH240797   2.402   4.403   0.929  0.3064 -0.1309 -0.9791
 6413TIP3    H140798   2.372   4.437   1.013  3.4020  0.7368 -0.1176
 6413TIP3    H240799   2.368   4.466   0.865 -2.3973 -1.0084 -0.5257
 6414TIP3   OH240800   4.571   2.101   0.937 -0.0506  0.7536 -0.1640
 6414TIP3    H140801   4.502   2.048   0.897  0.5075 -0.3208  0.2487
 6414TIP3    H240802   4.576   2.180   0.882  0.0628 -0.2560 -1.6579
 6415TIP3   OH240803   4.059   6.177   0.033  0.8066 -0.2277 -0.2995
 6415TIP3    H140804   3.986   6.120   0.009  0.2804  1.0262 -1.9042
 6415TIP3    H240805   4.023   6.235   0.099  0.3700  0.2862 -0.9743
 6416TIP3   OH240806   4.955   3.518   8.634  0.3003  0.1499  0.0072
 6416TIP3    H140807   5.031   3.467   8.604  0.6275  0.5090  0.2058
 6416TIP3    H240808   4.882   3.486   8.582  0.8571  0.7816 -1.2003
 6417TIP3   OH240809   2.101   0.070   0.361 -0.8782  0.4462 -0.0243
 6417TIP3    H140810   2.053   0.143   0.324 -1.5809  0.2864  0.5585
 6417TIP3    H240811   2.093   0.080   0.456 -0.5073 -0.0702  0.0712
 6418TIP3   OH240812   1.327   3.796   0.879  0.4165 -0.4110  0.0118
 6418TIP3    H140813   1.407   3.831   0.918  0.9899 -2.4570  0.7929
 6418TIP3    H240814   1.279   3.873   0.850  2.8957  0.8707 -1.0003
 6419TIP3   OH240815   3.173   6.214   1.169  0.0612 -0.0369  0.2587
 6419TIP3    H140816   3.267   6.235   1.168 -0.1590  1.0430  0.9569
 6419TIP3    H240817   3.156   6.186   1.259 -0.4398  0.5355  0.3473
 6420TIP3   OH240818   4.161   1.578   7.443  0.4468 -1.1206  0.4642
 6420TIP3    H140819   4.098   1.642   7.408 -0.2910 -1.8549  0.4105
 6420TIP3    H240820   4.241   1.629   7.458 -0.4379  0.0644  1.4474
 6421TIP3   OH240821   5.739   3.351   0.838 -0.2705  0.2122 -0.2491
 6421TIP3    H140822   5.771   3.298   0.911  0.0448  0.8359  0.0693
 6421TIP3    H240823   5.816   3.398   0.807 -0.4454  0.1038 -0.8603
 6422TIP3   OH240824   2.334   2.573   0.370  0.3255 -0.3874  0.1283
 6422TIP3    H140825   2.378   2.604   0.291  0.1013 -0.2584  0.0539
 6422TIP3    H240826   2.402   2.577   0.438  0.0191  1.3551  0.3768
 6423TIP3   OH240827   6.027   0.303   8.448  0.5482 -0.2774  0.0557
 6423TIP3    H140828   6.079   0.321   8.369  0.9217 -1.8142 -0.0716
 6423TIP3    H240829   6.074   0.347   8.518 -0.4415  2.1642 -0.7112
 6424TIP3   OH240830   6.226   4.663   0.827 -0.6239 -0.1496 -0.3020
 6424TIP3    H140831   6.252   4.601   0.895  1.0606 -0.2513 -1.0123
 6424TIP3    H240832   6.304   4.717   0.812 -1.3889  0.7495 -1.2101
 6425TIP3   OH240833   6.312   3.087   1.862  0.1037  0.3207 -0.6153
 6425TIP3    H140834   6.330   3.018   1.797 -0.3705  0.0713 -0.4878
 6425TIP3    H240835   6.376   3.155   1.842  0.7357 -0.2523 -0.5988
 6426TIP3   OH240836   5.511   4.206   7.654  0.2736  0.0210 -0.6178
 6426TIP3    H140837   5.575   4.221   7.584 -0.8659 -0.4427 -1.8200
 6426TIP3    H240838   5.426   4.208   7.609 -0.4886 -0.4894  0.7286
 6427TIP3   OH240839   3.668   1.733   0.712 -0.0509 -0.0567 -0.1227
 6427TIP3    H140840   3.668   1.646   0.751 -1.2554 -0.6893 -1.4230
 6427TIP3    H240841   3.674   1.793   0.786 -1.0845 -1.2175  0.9420
 6428TIP3   OH240842   4.544   3.175   0.094 -0.0805 -0.3082 -0.4954
 6428TIP3    H140843   4.634   3.178   0.128 -0.8340  1.0402  1.6063
 6428TIP3    H240844   4.503   3.104   0.142 -0.8765  0.9274  0.7157
 6429TIP3   OH240845   2.602   0.555   0.977 -0.9970 -0.4131 -0.0032
 6429TIP3    H140846   2.612   0.547   0.882 -2.1277 -1.4546 -0.0578
 6429TIP3    H240847   2.663   0.491   1.013  0.4095  0.9035  0.0453
 6430TIP3   OH240848   2.026   0.928   8.657 -0.5885  0.5356  0.2691
 6430TIP3    H140849   2.028   1.023   8.669  1.8503  0.8597 -1.9566
 6430TIP3    H240850   2.088   0.894   8.722  0.5676  0.7612 -0.6900
 6431TIP3   OH240851   4.758   3.595   0.882  0.6005 -0.5817  0.3792
 6431TIP3    H140852   4.810   3.514   0.878  0.5388 -0.7566  2.0749
 6431TIP3    H240853   4.823   3.665   0.888  0.8027 -0.8908  4.0101
 6432TIP3   OH240854   4.508   4.238   8.926 -0.2446  0.2471  0.4425
 6432TIP3    H140855   4.519   4.294   8.850  1.3739  2.7199  2.3407
 6432TIP3    H240856   4.421   4.199   8.915  0.0424  0.2544 -2.7430
 6433TIP3   OH240857   6.653   1.509   0.074 -0.1356 -0.1136  0.5665
 6433TIP3    H140858   6.642   1.546   0.162  2.7421 -2.1432  1.9578
 6433TIP3    H240859   6.624   1.418   0.082 -2.8764  0.4595 -1.5624
 6434TIP3   OH240860   6.414   0.272   7.674  0.6845 -0.2138  0.3041
 6434TIP3    H140861   6.372   0.198   7.717 -0.6357 -0.3693 -1.1717
 6434TIP3    H240862   6.428   0.242   7.584  0.1363  1.3041 -0.3158
 6435TIP3   OH240863   3.340   2.380   8.359 -0.4467 -0.4365 -0.2486
 6435TIP3    H140864   3.367   2.471   8.351 -0.6262 -0.2425  1.1054
 6435TIP3    H240865   3.360   2.341   8.274  2.4875  0.1087  0.0881
 6436TIP3   OH240866   4.926   5.320   2.523  0.2113 -0.1644  0.1954
 6436TIP3    H140867   4.965   5.237   2.498  0.6952  0.5622 -1.6325
 6436TIP3    H240868   4.865   5.298   2.593  0.8120 -1.9397  0.2019
 6437TIP3   OH240869   1.645   0.856   1.177 -0.2738 -0.0663  0.0014
 6437TIP3    H140870   1.676   0.794   1.111 -1.4769 -1.1809  0.4481
 6437TIP3    H240871   1.640   0.805   1.258 -0.5210  0.8234  0.5574
 6438TIP3   OH240872   0.895   0.022   2.089 -0.0335 -0.5072 -0.2390
 6438TIP3    H140873   0.971   0.021   2.147  0.2895  0.6226 -0.6190
 6438TIP3    H240874   0.918  -0.039   2.019  0.6316  0.0131 -0.4811
 6439TIP3   OH240875   2.474   5.142   7.291  0.6571 -0.4573  0.0131
 6439TIP3    H140876   2.544   5.143   7.225 -0.1060  1.4430 -0.8630
 6439TIP3    H240877   2.434   5.056   7.282 -0.0936  0.0666 -2.8176
 6440TIP3   OH240878   6.027   4.365   1.523  0.3974 -0.2786  0.6036
 6440TIP3    H140879   5.949   4.333   1.476  0.7347  0.4532 -0.4837
 6440TIP3    H240880   5.993   4.399   1.606 -0.3526 -0.5550  0.4193
 6441TIP3   OH240881   1.901   2.032   8.790  0.0073 -0.0690 -0.0567
 6441TIP3    H140882   1.937   2.004   8.706  0.9927  0.7465  0.0710
 6441TIP3    H240883   1.810   2.003   8.788 -0.7905  2.2009 -2.5343
 6442TIP3   OH240884   0.604   6.629   8.161  0.0459  0.8032 -0.4631
 6442TIP3    H140885   0.581   6.698   8.098 -0.4723  0.1215 -1.0314
 6442TIP3    H240886   0.668   6.671   8.220  1.1860  1.2162 -1.9317
 6443TIP3   OH240887   3.055   1.015   1.014 -0.5061  0.1739 -0.0230
 6443TIP3    H140888   3.026   1.103   0.991  0.4439  0.7287  0.8075
 6443TIP3    H240889   3.071   1.020   1.109  0.6302 -0.5696 -0.1585
 6444TIP3   OH240890   1.295   4.825   0.215  0.4467  0.2131 -0.0833
 6444TIP3    H140891   1.382   4.814   0.175  0.3915  1.0168 -0.4407
 6444TIP3    H240892   1.312   4.872   0.297  0.3416  0.5049 -0.2256
 6445TIP3   OH240893   1.113   3.854   1.798 -0.5815  0.0540 -0.1934
 6445TIP3    H140894   1.178   3.788   1.775  0.7770  0.6731  1.6114
 6445TIP3    H240895   1.034   3.804   1.820  1.1613 -1.4123  3.8729
 6446TIP3   OH240896   4.134   1.145   2.312 -0.7464  0.5664  0.1023
 6446TIP3    H140897   4.059   1.195   2.278 -1.6312 -1.8461 -1.7868
 6446TIP3    H240898   4.102   1.055   2.318  1.9330 -0.5277 -0.6219
 6447TIP3   OH240899   3.413   6.202   0.665  0.1915  0.5673 -0.3480
 6447TIP3    H140900   3.414   6.118   0.618  1.2584  0.3055  0.1336
 6447TIP3    H240901   3.503   6.232   0.663  0.0647  1.0424  0.6694
 6448TIP3   OH240902   0.790   4.834   1.096  0.1202 -0.1516  0.2279
 6448TIP3    H140903   0.740   4.888   1.158  2.3563  1.3834  0.8243
 6448TIP3    H240904   0.784   4.745   1.131 -0.9179  0.2455  1.1210
 6449TIP3   OH240905   5.904   2.482   8.617  0.7702  0.2294  0.2587
 6449TIP3    H140906   5.851   2.515   8.690  0.7456 -0.0957  0.3913
 6449TIP3    H240907   5.877   2.534   8.541 -1.3323 -1.3377 -0.1664
 6450TIP3   OH240908   6.326   5.017   8.705 -0.1778 -0.1081 -0.7603
 6450TIP3    H140909   6.286   5.051   8.625 -0.2161 -0.5729 -0.9460
 6450TIP3    H240910   6.420   5.032   8.694 -0.2368  0.3884 -0.6146
 6451TIP3   OH240911   4.169   5.987   0.847 -0.4922  0.2564  0.1714
 6451TIP3    H140912   4.108   5.947   0.909 -1.2094 -1.7839 -1.6742
 6451TIP3    H240913   4.253   5.985   0.892 -1.1900  0.0135  1.5337
 6452TIP3   OH240914   4.655   6.650   2.235  0.1537 -0.3944  0.3817
 6452TIP3    H140915   4.607   6.654   2.153  2.2911 -1.5178 -1.0179
 6452TIP3    H240916   4.589   6.629   2.301 -1.4958 -0.2744 -1.1574
 6453TIP3   OH240917   5.923   2.955   1.297 -0.0892  0.3593 -0.0778
 6453TIP3    H140918   5.848   3.002   1.261 -0.9446 -0.3688  0.7086
 6453TIP3    H240919   5.885   2.888   1.353  1.1722  1.7617  2.6653
 6454TIP3   OH240920   5.110   4.047   0.254 -0.1568  0.7359 -0.1396
 6454TIP3    H140921   5.160   3.987   0.199 -0.2809  0.1294  0.3978
 6454TIP3    H240922   5.027   4.057   0.208 -0.3479  0.0513  0.0385
 6455TIP3   OH240923   5.539   2.198   1.965 -0.0176  0.1653  0.2142
 6455TIP3    H140924   5.634   2.195   1.978  0.1430  1.6346 -0.4089
 6455TIP3    H240925   5.528   2.190   1.870 -0.5386 -0.2859  0.3081
 6456TIP3   OH240926   4.187   0.758   2.558 -0.8727  0.2203  0.6824
 6456TIP3    H140927   4.254   0.824   2.574 -0.5396 -0.0223  0.3125
 6456TIP3    H240928   4.175   0.714   2.642  0.0454 -0.2944  0.5617
 6457TIP3   OH240929   4.726   6.115   1.004 -0.1910 -0.0825  0.3599
 6457TIP3    H140930   4.704   6.078   1.089 -0.0738  0.8355  0.7992
 6457TIP3    H240931   4.670   6.192   0.996  1.0006  0.8173  0.3644
 6458TIP3   OH240932   4.781   1.802   6.828  0.0391 -0.0360 -0.0036
 6458TIP3    H140933   4.801   1.777   6.737  0.9503 -1.0860  0.4516
 6458TIP3    H240934   4.843   1.873   6.847  0.0854 -0.0501 -0.0976
 6459TIP3   OH240935   3.607   4.087   7.251  0.1560 -0.5178  0.1118
 6459TIP3    H140936   3.531   4.035   7.224 -0.8503  0.6105  0.6866
 6459TIP3    H240937   3.671   4.021   7.280 -0.7989 -1.4810  0.1151
 6460TIP3   OH240938   6.466   3.628   7.805  0.3975 -0.0052  0.3236
 6460TIP3    H140939   6.505   3.714   7.793 -0.8841  0.8834  2.1441
 6460TIP3    H240940   6.494   3.600   7.892 -0.8136 -0.5305  0.5711
 6461TIP3   OH240941   0.393   3.536   8.732  0.1230  0.3493 -0.1457
 6461TIP3    H140942   0.447   3.611   8.756 -0.1086  1.3574 -2.5209
 6461TIP3    H240943   0.303   3.569   8.734 -0.0886 -0.2049 -0.0592
 6462TIP3   OH240944   5.279   2.714   7.363  0.1237 -0.1463  0.1914
 6462TIP3    H140945   5.216   2.664   7.311 -0.9506  0.0355  1.2706
 6462TIP3    H240946   5.302   2.657   7.436  0.9483 -0.0672  0.0034
 6463TIP3   OH240947   5.120   3.389   1.884  0.1111 -0.3101 -0.4968
 6463TIP3    H140948   5.212   3.414   1.875 -0.2062  1.5690  0.8053
 6463TIP3    H240949   5.123   3.300   1.920  1.4251 -0.1472 -0.1499
 6464TIP3   OH240950   5.851   1.897   0.813  0.0781 -0.2793  0.6633
 6464TIP3    H140951   5.826   1.874   0.902 -1.5081 -0.4995  0.1959
 6464TIP3    H240952   5.863   1.992   0.815 -0.8719 -0.1568  0.9174
 6465TIP3   OH240953   1.204   0.547   0.012  0.1743  0.7862 -0.1495
 6465TIP3    H140954   1.192   0.626   0.065  0.3159  0.2494  0.7092
 6465TIP3    H240955   1.296   0.524   0.023  0.3937  1.1027 -1.2718
 6466TIP3   OH240956   5.396   6.246   1.481  0.1192 -0.2573 -0.4499
 6466TIP3    H140957   5.361   6.224   1.395  0.5992 -1.5936 -0.3241
 6466TIP3    H240958   5.341   6.318   1.511  0.5171  0.8751 -2.2496
 6467TIP3   OH240959   0.938   3.490   2.755  0.9861 -0.0489  0.0973
 6467TIP3    H140960   0.944   3.429   2.828 -0.0655 -0.7927 -0.4077
 6467TIP3    H240961   1.028   3.516   2.737  1.3845 -0.9546  0.7344
 6468TIP3   OH240962   2.111   5.103   0.115  0.1093 -0.5712  0.0501
 6468TIP3    H140963   2.131   5.177   0.056 -1.6148 -0.2409 -0.1697
 6468TIP3    H240964   2.043   5.054   0.069  0.2235 -1.5022  0.8530
 6469TIP3   OH240965   5.230   1.390   0.903 -0.3155 -0.1224  0.2614
 6469TIP3    H140966   5.141   1.357   0.920  0.0260 -0.5189  1.3972
 6469TIP3    H240967   5.285   1.338   0.961  0.7706 -0.4143 -0.9944
 6470TIP3   OH240968   5.213   6.355   0.714 -0.3675 -0.3571  0.5852
 6470TIP3    H140969   5.135   6.364   0.659  0.0512 -0.2556  0.0046
 6470TIP3    H240970   5.282   6.402   0.667 -0.6334  2.2245  2.5240
 6471TIP3   OH240971   2.357   4.098   1.150  0.1601  0.3148 -0.1291
 6471TIP3    H140972   2.323   4.185   1.171 -1.4380 -0.5643  1.1207
 6471TIP3    H240973   2.294   4.062   1.087  0.4721 -0.1819 -0.1688
 6472TIP3   OH240974   1.041   3.719   8.788 -0.0602 -0.5619 -0.5018
 6472TIP3    H140975   1.040   3.735   8.693  1.3963 -0.0425 -0.4478
 6472TIP3    H240976   1.061   3.626   8.796  0.2200 -0.5208 -0.7009
 6473TIP3   OH240977   1.528   3.277   1.587  0.5278 -0.1897 -0.5018
 6473TIP3    H140978   1.607   3.329   1.573  0.6291 -0.2151 -0.0620
 6473TIP3    H240979   1.546   3.229   1.668 -0.4922  0.8714  0.3933
 6474TIP3   OH240980   3.314   6.709   0.826 -0.2770 -0.7567  0.4365
 6474TIP3    H140981   3.369   6.632   0.841 -0.7327 -0.8731  1.6005
 6474TIP3    H240982   3.249   6.679   0.762  0.6658 -0.7712 -0.5384
 6475TIP3   OH240983   1.884   3.248   8.267  0.0427 -0.3511  0.0573
 6475TIP3    H140984   1.804   3.197   8.279 -0.5988  0.1730 -1.7082
 6475TIP3    H240985   1.911   3.230   8.177  0.2012  1.8318 -0.3930
 6476TIP3   OH240986   0.165   3.709   2.341  0.4117  0.2392  0.4425
 6476TIP3    H140987   0.187   3.759   2.262  2.1549 -1.5257 -0.2918
 6476TIP3    H240988   0.070   3.711   2.345  0.2930  0.6289 -1.5377
 6477TIP3   OH240989   4.034   0.264   0.313 -0.4275  0.3973  0.4006
 6477TIP3    H140990   4.093   0.257   0.239  0.1475  3.6637  0.3929
 6477TIP3    H240991   4.059   0.192   0.371  0.4880 -0.9816 -1.6017
 6478TIP3   OH240992   6.217   5.661   0.907 -0.0515 -0.1498  0.6140
 6478TIP3    H140993   6.219   5.637   0.999  1.2549 -0.7188  0.4656
 6478TIP3    H240994   6.144   5.612   0.870 -0.3203 -0.2382  1.2544
 6479TIP3   OH240995   1.777   4.866   7.449 -0.1537  0.3885 -0.3857
 6479TIP3    H140996   1.780   4.779   7.411  0.8352 -0.4646  1.4887
 6479TIP3    H240997   1.784   4.926   7.375 -0.5277 -1.1245 -1.6769
 6480TIP3   OH240998   5.568   6.252   8.690 -0.9290  0.2347 -0.0341
 6480TIP3    H140999   5.644   6.253   8.748 -0.4825 -1.6346 -0.5238
 6480TIP3    H241000   5.560   6.343   8.660 -0.4699  1.0068  2.0076
 6481TIP3   OH241001   6.179   0.711   2.220  1.0518  0.0611 -0.1541
 6481TIP3    H141002   6.096   0.722   2.174  0.2099 -1.0900  0.9912
 6481TIP3    H241003   6.221   0.636   2.177 -0.3199 -1.8578  1.5888
 6482TIP3   OH241004   2.197   1.009   0.315  0.0310 -0.2073  0.6273
 6482TIP3    H141005   2.238   1.029   0.399  1.9742  0.2722 -0.3653
 6482TIP3    H241006   2.228   1.079   0.257 -2.1294  0.0856 -0.2606
 6483TIP3   OH241007   6.203   1.428   8.463  0.0809  0.6757  0.3025
 6483TIP3    H141008   6.290   1.468   8.457  0.8835 -1.0578 -0.3293
 6483TIP3    H241009   6.165   1.465   8.543  2.0824  0.1981  1.5369
 6484TIP3   OH241010   0.789   1.631   2.166  0.0127  0.2774 -0.5444
 6484TIP3    H141011   0.854   1.677   2.220  0.5717 -1.1929  0.0719
 6484TIP3    H241012   0.841   1.570   2.113 -0.4416  2.0992 -3.2872
 6485TIP3   OH241013   2.819   1.659   0.228  0.1996 -0.0003  0.3500
 6485TIP3    H141014   2.900   1.709   0.223  0.5153 -0.6118 -1.0014
 6485TIP3    H241015   2.750   1.723   0.207  0.5589 -0.0162 -0.9364
 6486TIP3   OH241016   6.625   1.422   0.440 -0.1652  0.1756 -0.0860
 6486TIP3    H141017   6.666   1.489   0.385 -0.3313 -0.0015 -0.4282
 6486TIP3    H241018   6.693   1.395   0.501 -0.1868  0.8944  0.2743
 6487TIP3   OH241019   2.937   2.632   7.197 -0.0216  0.0115 -0.2868
 6487TIP3    H141020   2.902   2.583   7.271  0.0166  0.2860 -0.0840
 6487TIP3    H241021   3.021   2.665   7.227  0.0852 -0.0431 -0.5231
 6488TIP3   OH241022   0.139   2.078   0.061  0.5233  0.1245  0.1827
 6488TIP3    H141023   0.086   2.095   0.139  2.1138 -1.4389  1.6703
 6488TIP3    H241024   0.077   2.088  -0.012 -1.2700  0.5635  1.6910
 6489TIP3   OH241025   0.218   6.610   2.683 -0.1596 -0.2284  0.0564
 6489TIP3    H141026   0.239   6.652   2.767 -1.1745  0.1820  0.1231
 6489TIP3    H241027   0.177   6.527   2.707 -0.4715 -0.1012 -0.0232
 6490TIP3   OH241028   4.366   2.132   1.387 -0.2832  0.1350  0.6226
 6490TIP3    H141029   4.295   2.077   1.420  0.2871 -0.0381  1.6201
 6490TIP3    H241030   4.365   2.119   1.292 -2.4709  1.2399  0.4379
 6491TIP3   OH241031   4.369   3.749   0.527 -0.0817  0.2709  0.1887
 6491TIP3    H141032   4.387   3.721   0.438 -0.2261  0.8685 -0.0334
 6491TIP3    H241033   4.368   3.668   0.578  0.6892 -0.0053 -0.2278
 6492TIP3   OH241034   4.450   1.403   7.870  0.3402 -0.3211 -0.2528
 6492TIP3    H141035   4.395   1.477   7.895 -0.3115 -0.8253 -0.1667
 6492TIP3    H241036   4.520   1.442   7.817 -0.3867  0.2627 -0.8037
 6493TIP3   OH241037   0.542   4.008   8.778 -0.1942 -0.6043  0.0756
 6493TIP3    H141038   0.451   3.995   8.749  0.5182  0.1013 -2.7816
 6493TIP3    H241039   0.580   3.920   8.777 -0.9795 -1.0188  2.0483
 6494TIP3   OH241040   1.624   3.621   1.356  0.1845 -0.8040  0.4980
 6494TIP3    H141041   1.681   3.554   1.392  1.5843  0.3483  0.5116
 6494TIP3    H241042   1.670   3.652   1.278 -0.4061  0.1626  0.5182
 6495TIP3   OH241043   0.747   6.131   1.493 -0.2612 -0.4439 -0.1842
 6495TIP3    H141044   0.729   6.180   1.414  1.9724  0.0779 -0.4315
 6495TIP3    H241045   0.812   6.066   1.467 -0.1766 -0.8675  1.0175
 6496TIP3   OH241046   3.211   3.202   1.504  0.1521 -0.3902 -0.3038
 6496TIP3    H141047   3.159   3.261   1.560  1.9262  0.6912  0.2698
 6496TIP3    H241048   3.212   3.245   1.419 -1.1030 -1.1671 -0.7311
 6497TIP3   OH241049   2.646   2.993   8.539 -0.1504 -0.4474 -0.3471
 6497TIP3    H141050   2.690   3.058   8.593  0.8246 -1.6749  0.4017
 6497TIP3    H241051   2.559   3.029   8.524  0.3570  1.0139  0.0285
 6498TIP3   OH241052   0.626   5.712   8.738  0.2717  0.3272 -0.1101
 6498TIP3    H141053   0.541   5.677   8.710  0.9372 -1.4519 -0.0429
 6498TIP3    H241054   0.623   5.805   8.715 -1.3558  0.1067 -0.8952
 6499TIP3   OH241055   4.103   4.597   8.815 -0.2339 -0.0253  0.0817
 6499TIP3    H141056   4.057   4.546   8.882 -1.1328  1.8968  1.0112
 6499TIP3    H241057   4.191   4.611   8.853 -1.0108  1.8098  1.3726
 6500TIP3   OH241058   3.240   2.261   1.358  0.0155  0.0078  0.3355
 6500TIP3    H141059   3.254   2.244   1.265  0.6982 -0.3116  0.4891
 6500TIP3    H241060   3.248   2.356   1.367  2.0900 -0.1245  0.3897
 6501TIP3   OH241061   1.448   5.880   1.306  0.1244 -0.0589  0.4647
 6501TIP3    H141062   1.415   5.791   1.317 -0.5356  0.1738  0.4234
 6501TIP3    H241063   1.461   5.912   1.395 -1.6458  0.5244  0.5409
 6502TIP3   OH241064   2.331   1.320   0.597  0.2424 -0.3295 -0.1869
 6502TIP3    H141065   2.324   1.416   0.593 -3.0228 -0.4786 -1.8075
 6502TIP3    H241066   2.367   1.295   0.512  1.5087 -0.5591  0.4027
 6503TIP3   OH241067   4.619   0.926   7.605  0.1472  1.0238 -0.6962
 6503TIP3    H141068   4.661   0.920   7.691 -2.6675  1.0664  0.7893
 6503TIP3    H241069   4.624   1.019   7.582  1.3795  0.9307 -0.8798
 6504TIP3   OH241070   2.874   1.502   2.055  0.8539  0.3117 -0.2143
 6504TIP3    H141071   2.936   1.539   1.993 -0.7329  0.9241 -1.5025
 6504TIP3    H241072   2.872   1.565   2.127  0.8416  0.8991 -0.7210
 6505TIP3   OH241073   6.522   3.288   1.823 -0.0680 -0.0072  0.0031
 6505TIP3    H141074   6.602   3.332   1.794 -0.2857 -0.4277 -1.2761
 6505TIP3    H241075   6.498   3.335   1.903  1.6477 -0.1086  0.6277
 6506TIP3   OH241076   4.107   3.366   7.499 -0.4651 -0.3121 -0.3659
 6506TIP3    H141077   4.081   3.354   7.408  0.1563  1.5919 -0.8489
 6506TIP3    H241078   4.202   3.379   7.495 -0.3374 -0.7877  0.6387
 6507TIP3   OH241079   3.157   2.166   6.962  0.2302 -0.2913 -0.2503
 6507TIP3    H141080   3.240   2.203   6.932  0.3132 -0.9439 -0.8287
 6507TIP3    H241081   3.090   2.222   6.924  0.3952  0.2429  0.2262
 6508TIP3   OH241082   5.952   3.175   7.804  0.4520  0.3277  0.8738
 6508TIP3    H141083   5.877   3.123   7.775 -1.5854  3.1614  0.6327
 6508TIP3    H241084   5.995   3.202   7.723  1.5515 -0.9637  1.0002
 6509TIP3   OH241085   6.059   2.384   6.816  0.6055 -0.3687  0.0049
 6509TIP3    H141086   6.086   2.350   6.901  1.4894  0.5848  0.1307
 6509TIP3    H241087   6.075   2.312   6.755  2.5787 -0.1794  0.2394
 6510TIP3   OH241088   5.100   1.781   7.651 -0.2625  0.0835  0.2936
 6510TIP3    H141089   5.169   1.769   7.585 -0.4747  1.0983 -0.1326
 6510TIP3    H241090   5.119   1.714   7.717  0.6151 -0.2277 -0.2453
 6511TIP3   OH241091   1.922   4.926   8.946  0.2092 -0.8970 -0.0653
 6511TIP3    H141092   1.900   4.843   8.905 -2.1274 -0.8660  0.9540
 6511TIP3    H241093   1.869   4.991   8.899  0.2839 -0.3344  0.6126
 6512TIP3   OH241094   1.202   0.160   7.664 -0.7558 -0.0086  0.2605
 6512TIP3    H141095   1.155   0.194   7.588 -0.1890 -0.3515 -0.2465
 6512TIP3    H241096   1.294   0.173   7.644 -0.6208  1.0275  1.4243
 6513TIP3   OH241097   2.668   1.991   2.328 -0.0357  0.4109  0.4300
 6513TIP3    H141098   2.705   2.068   2.370  1.0081 -1.2363  2.7802
 6513TIP3    H241099   2.670   1.923   2.396 -0.6264 -1.7766 -1.5856
 6514TIP3   OH241100   3.133   4.323   8.697  0.0094  0.0470 -0.3131
 6514TIP3    H141101   3.156   4.360   8.612  0.1892  0.4202 -0.1056
 6514TIP3    H241102   3.052   4.275   8.681 -1.4478  2.2941 -0.1596
 6515TIP3   OH241103   1.242   6.522   0.786  0.0901  0.0006  0.4686
 6515TIP3    H141104   1.162   6.495   0.741  0.8123 -2.1738  0.3472
 6515TIP3    H241105   1.309   6.525   0.718  0.5992 -0.5562  0.9311
 6516TIP3   OH241106   3.683   5.104   7.345 -0.6414 -0.2782  0.3874
 6516TIP3    H141107   3.773   5.078   7.327 -0.9469 -0.2157 -1.4770
 6516TIP3    H241108   3.681   5.125   7.438  1.1400 -0.7481  0.5536
 6517TIP3   OH241109   0.444   0.372   2.203  0.0367 -0.8694  0.0544
 6517TIP3    H141110   0.513   0.369   2.269 -0.3351 -0.0326  0.4997
 6517TIP3    H241111   0.384   0.440   2.235 -0.0788 -0.3527 -1.2231
 6518TIP3   OH241112   5.948   1.205   0.688  0.1176 -0.3404 -0.2943
 6518TIP3    H141113   5.943   1.217   0.593  2.2205 -0.5521 -0.4714
 6518TIP3    H241114   6.000   1.279   0.719  0.0231 -0.6428  0.5971
 6519TIP3   OH241115   4.462   0.067   1.822 -0.6654  0.5799 -0.0680
 6519TIP3    H141116   4.536   0.061   1.761 -1.6584 -0.5987 -1.2293
 6519TIP3    H241117   4.385   0.059   1.766 -1.6200 -0.2525  1.3216
 6520TIP3   OH241118   1.734   1.201   2.160 -0.5235 -0.0543 -0.1442
 6520TIP3    H141119   1.747   1.115   2.119 -0.4121  0.1269 -0.4977
 6520TIP3    H241120   1.822   1.239   2.164 -0.4006 -0.4322  1.0905
 6521TIP3   OH241121   2.310   0.597   8.690  0.1957 -0.1592  0.2848
 6521TIP3    H141122   2.254   0.662   8.732  2.7249  1.2894  1.6352
 6521TIP3    H241123   2.323   0.530   8.756  0.0792 -0.4949 -0.0273
 6522TIP3   OH241124   4.923   4.794   0.547  0.5243 -0.3049 -0.5087
 6522TIP3    H141125   4.829   4.811   0.553  0.5887 -0.4260  1.3069
 6522TIP3    H241126   4.937   4.713   0.596  1.5902 -0.2622 -0.7053
 6523TIP3   OH241127   3.497   0.785   1.169 -0.5054 -0.2585 -0.3999
 6523TIP3    H141128   3.562   0.760   1.235 -0.6496 -1.2084 -0.6086
 6523TIP3    H241129   3.418   0.804   1.220 -0.7191 -1.3347 -0.3124
 6524TIP3   OH241130   6.693   4.187   1.274  0.2366  0.0530  0.4162
 6524TIP3    H141131   6.733   4.273   1.277  0.0855  0.1314  0.2213
 6524TIP3    H241132   6.764   4.127   1.253  0.0395  0.3352 -1.1416
 6525TIP3   OH241133   4.690   4.402   7.482 -0.4753  0.3707  0.6722
 6525TIP3    H141134   4.652   4.427   7.567 -0.2681  0.1805  0.8230
 6525TIP3    H241135   4.644   4.457   7.418 -0.0503  1.1219  0.9959
 6526TIP3   OH241136   1.424   6.358   2.674  0.3840 -0.4741  0.1436
 6526TIP3    H141137   1.410   6.263   2.674  1.0763 -0.5974  1.2091
 6526TIP3    H241138   1.511   6.369   2.635  0.1519 -0.2344 -0.3220
 6527TIP3   OH241139   1.927   6.104   0.570 -0.2042 -0.5033 -0.3230
 6527TIP3    H141140   1.896   6.029   0.621  0.4364 -1.6332 -1.5431
 6527TIP3    H241141   1.860   6.119   0.504 -1.3514  1.3761  1.1591
 6528TIP3   OH241142   2.936   5.328   8.368  0.3799  0.1471  0.3203
 6528TIP3    H141143   2.852   5.336   8.413  0.9498 -0.5235  1.5369
 6528TIP3    H241144   2.994   5.286   8.432  1.3069 -0.5285 -0.9223
 6529TIP3   OH241145   0.548   1.223   0.894  0.1423 -0.0040 -0.1004
 6529TIP3    H141146   0.535   1.214   0.989  3.0176 -0.4880  0.3665
 6529TIP3    H241147   0.578   1.137   0.866  0.7015  0.5196 -1.1647
 6530TIP3   OH241148   2.468   4.367   1.522 -0.8946 -0.2153  0.8923
 6530TIP3    H141149   2.537   4.409   1.470 -0.8995 -1.8600 -0.5193
 6530TIP3    H241150   2.422   4.440   1.564  1.9051  0.9143  2.2199
 6531TIP3   OH241151   5.747   3.008   0.904  0.1330 -0.1511 -0.3542
 6531TIP3    H141152   5.751   2.934   0.965 -0.9003  0.9813  1.1503
 6531TIP3    H241153   5.837   3.038   0.896  0.2860 -0.3688  0.5402
 6532TIP3   OH241154   4.889   2.927   2.429  0.2841 -0.4684 -0.6092
 6532TIP3    H141155   4.919   2.854   2.376  0.0682 -0.9833 -0.0353
 6532TIP3    H241156   4.931   2.915   2.514 -1.0431 -0.8709  0.0263
 6533TIP3   OH241157   1.239   4.356   2.006 -0.2315  0.6226  0.3642
 6533TIP3    H141158   1.292   4.434   2.023 -0.0196  0.4872  0.3201
 6533TIP3    H241159   1.296   4.298   1.956  0.1812 -0.2390  1.7663
 6534TIP3   OH241160   6.305   0.351   0.593  0.2191  0.3246 -0.7190
 6534TIP3    H141161   6.252   0.275   0.568  0.5747 -0.5081  0.9008
 6534TIP3    H241162   6.370   0.358   0.524 -1.5528  0.9662 -2.4034
 6535TIP3   OH241163   5.649   0.813   8.687  0.2344 -0.0001  0.1873
 6535TIP3    H141164   5.574   0.755   8.671  0.8470 -1.1831  1.4051
 6535TIP3    H241165   5.625   0.896   8.645 -1.6144 -0.4498  0.2827
 6536TIP3   OH241166   2.677   1.659   8.676 -0.1000 -0.0043 -0.0232
 6536TIP3    H141167   2.751   1.666   8.737  0.5454  0.2457 -0.8215
 6536TIP3    H241168   2.658   1.565   8.672  0.4392 -0.1114 -0.1235
 6537TIP3   OH241169   1.728   4.725   1.278  0.0650  0.2554  0.6618
 6537TIP3    H141170   1.647   4.677   1.259  0.7135 -0.8530  0.5719
 6537TIP3    H241171   1.716   4.759   1.366 -0.4064 -0.1099  0.7440
 6538TIP3   OH241172   4.032   0.299   1.193 -0.3887  0.3028  0.0512
 6538TIP3    H141173   3.993   0.381   1.161  0.3123  0.5829 -0.0865
 6538TIP3    H241174   4.087   0.268   1.121 -0.0864  0.0838  0.3725
 6539TIP3   OH241175   2.684   0.430   1.249 -0.1248  0.8614  0.5369
 6539TIP3    H141176   2.758   0.474   1.205 -0.9552  0.3934 -1.4274
 6539TIP3    H241177   2.629   0.502   1.279  0.1053  1.1962  0.1780
 6540TIP3   OH241178   2.262   1.741   8.676  0.4723 -0.0494 -0.1524
 6540TIP3    H141179   2.292   1.650   8.672  0.7832  0.0855 -1.4646
 6540TIP3    H241180   2.210   1.752   8.597  2.4429  1.5837 -1.3087
 6541TIP3   OH241181   2.566   2.180   7.476  0.2812 -0.4101  0.4034
 6541TIP3    H141182   2.551   2.275   7.471 -1.5928 -0.7197 -0.9807
 6541TIP3    H241183   2.506   2.150   7.545  1.2706 -0.5403  1.2240
 6542TIP3   OH241184   4.347   2.824   2.712 -0.3408 -0.0997 -0.0184
 6542TIP3    H141185   4.407   2.835   2.786 -0.5164  0.2202  0.0791
 6542TIP3    H241186   4.379   2.746   2.667  0.7318  0.6079 -0.5217
 6543TIP3   OH241187   5.186   3.321   1.195  0.0597 -0.1363  0.2243
 6543TIP3    H141188   5.104   3.317   1.245 -0.0645 -0.1276  0.0196
 6543TIP3    H241189   5.234   3.395   1.233  0.5652 -0.9671  1.2636
 6544TIP3   OH241190   4.763   1.794   8.118  0.3952  0.0673 -0.6888
 6544TIP3    H141191   4.736   1.870   8.170 -0.6851  0.4613 -1.7772
 6544TIP3    H241192   4.778   1.725   8.182 -2.2535  0.1301  0.0953
 6545TIP3   OH241193   0.958   0.150   8.211  0.7728 -0.3438  0.3647
 6545TIP3    H141194   1.025   0.202   8.254  1.6836 -0.4744 -0.8430
 6545TIP3    H241195   0.945   0.193   8.126  0.8586 -1.5283 -0.2702
 6546TIP3   OH241196   1.335   1.652   8.810 -0.0631 -0.0050  0.1062
 6546TIP3    H141197   1.282   1.632   8.887 -0.2885 -1.6711 -0.4363
 6546TIP3    H241198   1.278   1.631   8.736  0.4210  0.8306 -0.5187
 6547TIP3   OH241199   1.332   2.473   1.928  0.3122  0.2871  0.2005
 6547TIP3    H141200   1.245   2.487   1.966  0.6601 -0.1323  1.1988
 6547TIP3    H241201   1.364   2.393   1.970  0.6222 -0.3631 -1.2051
 6548TIP3   OH241202   0.534   1.530   0.920 -0.4881  0.0163 -0.2031
 6548TIP3    H141203   0.562   1.589   0.850 -1.3328  0.9776  0.2336
 6548TIP3    H241204   0.561   1.443   0.890  1.0229  0.6253 -0.7548
 6549TIP3   OH241205   3.814   0.955   8.727 -0.0812 -0.1815  0.3348
 6549TIP3    H141206   3.867   1.000   8.793 -1.5715 -0.0468  1.4951
 6549TIP3    H241207   3.820   1.011   8.650 -1.5335  1.8452  1.6090
 6550TIP3   OH241208   2.068   5.904   2.894  0.1497  0.2555  0.7105
 6550TIP3    H141209   2.024   5.819   2.897 -0.3581  0.4117 -0.9692
 6550TIP3    H241210   2.001   5.964   2.859  0.5213  1.3386  1.8020
 6551TIP3   OH241211   6.301   1.895   8.540  0.0663  0.2775 -0.0417
 6551TIP3    H141212   6.256   1.826   8.588 -3.0637  2.4905  0.5114
 6551TIP3    H241213   6.271   1.976   8.580  2.2462  2.0711 -1.7399
 6552TIP3   OH241214   5.602   2.622   1.887 -0.3892  0.1187 -0.0843
 6552TIP3    H141215   5.542   2.696   1.892  1.3945  1.5840  1.0812
 6552TIP3    H241216   5.586   2.572   1.968 -0.6110  0.0367 -0.1791
 6553TIP3   OH241217   4.466   1.046   8.410  0.0978  0.1070 -0.4653
 6553TIP3    H141218   4.542   1.091   8.372  0.4989 -1.0178 -1.0374
 6553TIP3    H241219   4.392   1.073   8.356 -0.2514  2.5191  1.0863
 6554TIP3   OH241220   2.910   3.895   8.206  0.3606 -0.3151  0.4185
 6554TIP3    H141221   2.825   3.932   8.232  0.5210 -0.2588  0.8719
 6554TIP3    H241222   2.952   3.965   8.155 -0.3177 -0.7415 -0.7692
 6555TIP3   OH241223   1.361   4.203   1.776  0.1978  0.2968 -0.1315
 6555TIP3    H141224   1.451   4.171   1.788 -0.3174 -2.1524 -1.9536
 6555TIP3    H241225   1.357   4.227   1.683 -1.4338 -1.3006 -0.5319
 6556TIP3   OH241226   6.042   1.755   0.635  0.0974 -0.0135  0.4572
 6556TIP3    H141227   6.098   1.810   0.581 -0.5940 -0.6914 -0.9975
 6556TIP3    H241228   5.997   1.816   0.693  1.7392  0.6132  1.1486
 6557TIP3   OH241229   2.444   3.651   1.770  0.6950  0.5926  0.0466
 6557TIP3    H141230   2.497   3.723   1.734  2.0395 -1.0033 -1.2986
 6557TIP3    H241231   2.404   3.609   1.694 -1.4368  0.8635  0.9367
 6558TIP3   OH241232   3.289   4.366   0.684  0.2172 -0.0215  0.3881
 6558TIP3    H141233   3.250   4.446   0.648 -0.2612 -0.9775 -1.3332
 6558TIP3    H241234   3.217   4.304   0.687  1.0873 -1.1385 -0.7203
 6559TIP3   OH241235   6.124   0.977   0.215 -0.6059 -0.5764  0.3064
 6559TIP3    H141236   6.153   0.926   0.139 -2.0304  0.4709 -1.0012
 6559TIP3    H241237   6.056   1.035   0.181 -0.8532  0.3842  2.2718
 6560TIP3   OH241238   5.871   5.163   0.211  0.7245  0.2313 -0.5475
 6560TIP3    H141239   5.957   5.203   0.206  0.7300  0.2699 -0.1943
 6560TIP3    H241240   5.856   5.151   0.305  1.1411 -1.4871 -0.6663
 6561TIP3   OH241241   3.988   3.065   1.772  0.3395 -0.2912  0.5379
 6561TIP3    H141242   3.974   2.971   1.764  2.2612 -0.7136  1.3686
 6561TIP3    H241243   3.931   3.092   1.845 -0.9038 -0.6079 -0.2955
 6562TIP3   OH241244   5.198   0.303   1.890 -0.0339  0.2230  0.1215
 6562TIP3    H141245   5.138   0.371   1.921  1.0622  0.5477  1.6807
 6562TIP3    H241246   5.223   0.256   1.969 -0.2682 -1.6212 -0.8550
 6563TIP3   OH241247   1.814   2.435   1.769 -0.3398 -0.2230  0.1258
 6563TIP3    H141248   1.744   2.393   1.819 -2.5387 -0.6698 -3.0184
 6563TIP3    H241249   1.861   2.363   1.729  0.0658  0.1693 -0.1024
 6564TIP3   OH241250   0.697   2.161   7.965 -0.2838  0.6065 -0.0666
 6564TIP3    H141251   0.733   2.077   7.996  0.2059  0.9111  0.2061
 6564TIP3    H241252   0.694   2.151   7.870  1.9966  1.1105 -0.2523
 6565TIP3   OH241253   0.348   5.587   0.528 -0.5690 -0.1684 -0.1826
 6565TIP3    H141254   0.396   5.564   0.449 -1.1576 -2.6147  0.0837
 6565TIP3    H241255   0.336   5.504   0.574 -0.6291  1.0995  2.2796
 6566TIP3   OH241256   5.110   5.096   8.554 -0.4040 -0.5088  0.0722
 6566TIP3    H141257   5.179   5.141   8.601 -0.4674  1.4798 -1.5976
 6566TIP3    H241258   5.145   5.008   8.540  2.4221  0.7570 -1.7731
 6567TIP3   OH241259   1.181   2.833   0.898 -0.0945  0.0186  0.3624
 6567TIP3    H141260   1.231   2.814   0.978 -0.4323 -0.3466  0.4922
 6567TIP3    H241261   1.168   2.747   0.857  1.4675  0.3641 -0.9382
 6568TIP3   OH241262   0.947   6.366   0.483 -0.5031  0.7430 -0.0795
 6568TIP3    H141263   1.043   6.362   0.480 -0.5441 -0.0039 -1.1050
 6568TIP3    H241264   0.919   6.322   0.402 -1.7810 -2.5753  1.9599
 6569TIP3   OH241265   3.301   2.641   8.711 -0.2978  0.3546  0.1409
 6569TIP3    H141266   3.237   2.706   8.682  1.0803  0.9570 -1.8335
 6569TIP3    H241267   3.325   2.669   8.799  0.1496  2.5506 -0.5900
 6570TIP3   OH241268   3.006   2.555   8.257  0.5210 -0.1763  0.2618
 6570TIP3    H141269   3.097   2.544   8.229  0.2466 -1.4864 -0.1817
 6570TIP3    H241270   3.005   2.527   8.348  0.9667  1.9593  0.9891
 6571TIP3   OH241271   0.755   5.781   2.325  0.0034 -0.2713  0.1266
 6571TIP3    H141272   0.769   5.686   2.329  3.8284  0.1072  0.1430
 6571TIP3    H241273   0.705   5.801   2.404 -0.9155 -2.2397  0.1061
 6572TIP3   OH241274   5.882   1.576   6.683 -0.5261  0.0890  0.0700
 6572TIP3    H141275   5.960   1.590   6.735 -0.9333  0.6734  0.5347
 6572TIP3    H241276   5.895   1.490   6.642  0.5157  0.3525 -0.1621
 6573TIP3   OH241277   4.532   3.305   0.481  0.0170  0.8090 -0.4605
 6573TIP3    H141278   4.549   3.358   0.559  1.1828  2.2622 -1.6421
 6573TIP3    H241279   4.453   3.255   0.502 -0.1521  1.7686  1.3289
 6574TIP3   OH241280   4.984   3.632   1.838 -0.1177  0.3065  0.4110
 6574TIP3    H141281   5.038   3.553   1.844  0.1588  0.4227 -0.5010
 6574TIP3    H241282   5.019   3.690   1.906 -0.7275 -0.5789  1.5208
 6575TIP3   OH241283   3.522   3.496   7.928  0.0734  0.6730 -0.1072
 6575TIP3    H141284   3.495   3.541   7.847  0.6104 -0.9800 -1.2584
 6575TIP3    H241285   3.575   3.422   7.898  0.4323  0.1056  1.7877
 6576TIP3   OH241286   4.521   5.788   8.930 -0.1131  0.2244 -0.0710
 6576TIP3    H141287   4.427   5.791   8.946 -0.3798  0.6317 -1.5604
 6576TIP3    H241288   4.547   5.699   8.954 -0.3596  0.8272  2.7654
 6577TIP3   OH241289   1.477   0.409   1.907 -0.2882  0.0016 -0.2461
 6577TIP3    H141290   1.456   0.460   1.985 -0.1991  0.9133 -0.7976
 6577TIP3    H241291   1.541   0.344   1.937 -3.4296 -2.6609  1.4290
 6578TIP3   OH241292   4.685   4.115   8.636 -0.2306 -0.1331  0.0618
 6578TIP3    H141293   4.601   4.077   8.663 -0.3551  1.1771  1.6567
 6578TIP3    H241294   4.677   4.208   8.655  1.6135  0.0068  0.3671
 6579TIP3   OH241295   0.569   0.284   1.377  0.6732 -0.0842  0.0100
 6579TIP3    H141296   0.553   0.245   1.291 -2.2470 -0.0788  0.4701
 6579TIP3    H241297   0.594   0.209   1.432 -0.6948 -0.6454 -0.1037
 6580TIP3   OH241298   2.235   5.534   0.627 -1.0936  1.2181  0.0451
 6580TIP3    H141299   2.225   5.475   0.702 -1.4781  0.5690 -0.4970
 6580TIP3    H241300   2.329   5.547   0.619 -0.9147 -0.1879 -0.4559
 6581TIP3   OH241301   4.628   1.253   8.298  0.3342  0.1851 -0.1943
 6581TIP3    H141302   4.709   1.247   8.247 -0.9050  0.9047 -2.3853
 6581TIP3    H241303   4.579   1.324   8.256 -2.3141 -1.5789 -0.2854
 6582TIP3   OH241304   4.367   5.225   7.221  1.0984  0.0651 -0.0521
 6582TIP3    H141305   4.293   5.244   7.163  0.7476 -1.0649 -0.0115
 6582TIP3    H241306   4.438   5.278   7.187  0.4452  0.6785 -0.5033
 6583TIP3   OH241307   3.493   3.344   7.670  0.0462 -0.7126 -0.5176
 6583TIP3    H141308   3.434   3.327   7.596 -0.3445  1.0504 -0.6668
 6583TIP3    H241309   3.493   3.263   7.720 -4.1255 -0.2818  0.5965
 6584TIP3   OH241310   3.856   5.624   7.860  0.3776 -0.4395  0.0068
 6584TIP3    H141311   3.944   5.633   7.898  0.4127  1.3100 -0.3962
 6584TIP3    H241312   3.871   5.597   7.770  0.8251  3.4374 -1.2693
 6585TIP3   OH241313   4.288   2.124   2.522  0.1132  0.0342  0.3344
 6585TIP3    H141314   4.269   2.035   2.494  0.6271  0.2560 -0.7691
 6585TIP3    H241315   4.287   2.119   2.618  0.2003 -1.1673  0.2942
 6586TIP3   OH241316   1.595   0.415   8.710  0.3720 -0.4539 -0.1510
 6586TIP3    H141317   1.588   0.463   8.628 -0.1007  0.4596  0.4093
 6586TIP3    H241318   1.508   0.423   8.750  0.9161  0.0926  0.9729
 6587TIP3   OH241319   3.672   4.814   0.200  0.0913  0.0408  0.3202
 6587TIP3    H141320   3.728   4.881   0.160  0.6123 -0.4657  0.1779
 6587TIP3    H241321   3.645   4.851   0.284 -1.4920  1.3666 -0.7181
 6588TIP3   OH241322   3.036   2.287   1.097  0.7136 -0.3936  0.4428
 6588TIP3    H141323   2.989   2.360   1.058  0.9555 -0.2793  0.3654
 6588TIP3    H241324   3.058   2.230   1.023  0.6924 -0.4512  0.4803
 6589TIP3   OH241325   4.424   6.138   2.043 -0.1845  0.0659  0.2332
 6589TIP3    H141326   4.396   6.221   2.005  0.0587  0.3399  0.6564
 6589TIP3    H241327   4.446   6.158   2.134  0.1923 -0.3928  0.2486
 6590TIP3   OH241328   4.760   4.269   0.850 -0.0953 -0.1816  0.5062
 6590TIP3    H141329   4.812   4.243   0.773 -0.8807  0.9204 -0.4355
 6590TIP3    H241330   4.692   4.202   0.857  0.5633 -0.8290  0.8602
 6591TIP3   OH241331   0.979   5.758   7.410 -0.0176  0.5412  0.1643
 6591TIP3    H141332   1.073   5.775   7.411  0.4875 -1.6907 -1.1188
 6591TIP3    H241333   0.944   5.822   7.348  0.6090  1.5152  0.7875
 6592TIP3   OH241334   0.756   2.802   7.369  0.1532 -0.3149  0.6538
 6592TIP3    H141335   0.796   2.716   7.355  1.8767  0.5413  0.0662
 6592TIP3    H241336   0.730   2.801   7.461 -0.2364 -1.5974  0.5595
 6593TIP3   OH241337   1.098   6.116   1.112  0.1953  0.3625  0.4207
 6593TIP3    H141338   1.121   6.029   1.080 -2.0670 -1.2056  2.6860
 6593TIP3    H241339   1.164   6.137   1.178 -1.3358 -1.4992  2.6960
 6594TIP3   OH241340   3.701   4.311   7.877 -0.1396 -0.7170 -0.5681
 6594TIP3    H141341   3.629   4.369   7.904 -0.1021 -0.9119 -0.0399
 6594TIP3    H241342   3.715   4.253   7.952  0.0228 -1.2198 -0.9809
 6595TIP3   OH241343   2.962   2.975   1.322  0.6363 -0.1840 -0.4285
 6595TIP3    H141344   2.961   2.928   1.239  2.3466  1.0919 -1.2059
 6595TIP3    H241345   2.994   3.062   1.301  1.5389  0.0429  1.6137
 6596TIP3   OH241346   5.877   2.880   1.824 -0.1947 -0.2789  0.2859
 6596TIP3    H141347   5.939   2.920   1.885 -0.0787 -0.9832  0.6380
 6596TIP3    H241348   5.843   2.804   1.870 -0.3228 -0.6579 -0.4119
 6597TIP3   OH241349   1.331   1.690   1.211  0.2816 -0.0643  0.2079
 6597TIP3    H141350   1.352   1.607   1.254 -1.2314  0.8075  2.9149
 6597TIP3    H241351   1.285   1.666   1.131  1.6742 -1.7949 -0.1196
 6598TIP3   OH241352   6.476   2.778   0.669  0.6597  0.2908  0.3586
 6598TIP3    H141353   6.550   2.741   0.619 -0.8841  0.1277 -1.9215
 6598TIP3    H241354   6.471   2.722   0.747  1.3139 -1.3929 -0.7353
 6599TIP3   OH241355   6.437   2.246   7.597 -0.4042 -0.7425  0.0522
 6599TIP3    H141356   6.503   2.260   7.529 -0.4842 -1.7624 -0.2442
 6599TIP3    H241357   6.354   2.242   7.549 -0.6190 -0.1603  0.3562
 6600TIP3   OH241358   0.139   5.840   1.948  0.6021 -0.0480  0.1968
 6600TIP3    H141359   0.150   5.793   1.866  0.7907  0.0544  0.1630
 6600TIP3    H241360   0.156   5.774   2.016 -1.7958 -0.7436  0.2184
 6601TIP3   OH241361   1.008   0.298   7.327 -0.1792  0.0041 -0.3084
 6601TIP3    H141362   0.963   0.213   7.329 -0.5470  0.1477 -1.7145
 6601TIP3    H241363   1.101   0.275   7.324 -0.1909 -0.3098  0.8977
 6602TIP3   OH241364   5.667   2.675   0.243  0.3828 -0.2089  0.2551
 6602TIP3    H141365   5.734   2.733   0.207 -0.1681  1.3937  1.6732
 6602TIP3    H241366   5.584   2.719   0.223 -0.2025 -1.5722 -0.4433
 6603TIP3   OH241367   1.365   6.359   1.534  0.2032 -0.8242  0.0272
 6603TIP3    H141368   1.440   6.301   1.551 -1.0249 -2.1680  1.0379
 6603TIP3    H241369   1.316   6.359   1.615  0.0081  1.4686 -0.0451
 6604TIP3   OH241370   2.553   5.733   7.661 -0.2428 -0.0817  0.7434
 6604TIP3    H141371   2.528   5.645   7.689 -1.7263  0.3676  0.9059
 6604TIP3    H241372   2.607   5.720   7.583 -1.3436 -1.0959  0.1396
 6605TIP3   OH241373   0.540   6.644   0.543 -0.2998 -0.1754 -0.4926
 6605TIP3    H141374   0.554   6.569   0.600  1.1302  0.8013  0.5108
 6605TIP3    H241375   0.456   6.627   0.501 -2.3327 -0.2101  3.1492
 6606TIP3   OH241376   3.119   2.352   7.421  0.2030 -0.1619 -0.0934
 6606TIP3    H141377   3.168   2.321   7.345  0.8073 -0.5493  0.4496
 6606TIP3    H241378   3.151   2.442   7.434  2.0003 -0.9261  1.2229
 6607TIP3   OH241379   2.013   6.726   2.485  0.2530  0.0211 -0.0282
 6607TIP3    H141380   1.983   6.649   2.533 -1.1501  1.4048  1.4250
 6607TIP3    H241381   2.103   6.704   2.459  0.2564 -1.6971  1.2219
 6608TIP3   OH241382   2.323   2.774   8.884  0.2019 -0.7912  0.5949
 6608TIP3    H141383   2.366   2.756   8.800 -1.5027  1.3312 -0.8605
 6608TIP3    H241384   2.232   2.752   8.870 -0.2154  0.1210  1.6918
 6609TIP3   OH241385   4.878   2.597   7.784  0.6696 -0.2236 -0.4913
 6609TIP3    H141386   4.904   2.620   7.695  0.6077 -1.1922 -0.7712
 6609TIP3    H241387   4.882   2.502   7.786 -1.8997 -0.3740 -0.2494
 6610TIP3   OH241388   0.358   5.489   0.890 -0.3051 -0.1807 -0.5329
 6610TIP3    H141389   0.367   5.449   0.804  0.4450 -0.8037 -0.1833
 6610TIP3    H241390   0.448   5.513   0.914 -0.6346  0.9108 -0.3522
 6611TIP3   OH241391   6.619   3.209   6.945  0.2867 -0.1263 -0.3693
 6611TIP3    H141392   6.705   3.192   6.982  2.0774  3.1081 -2.5414
 6611TIP3    H241393   6.603   3.134   6.887  3.3327  0.6967 -2.5137
 6612TIP3   OH241394   5.354   2.333   8.585 -0.4612  0.2686 -0.3516
 6612TIP3    H141395   5.281   2.394   8.594  0.3029  0.9793  1.4263
 6612TIP3    H241396   5.418   2.361   8.650  0.9063 -1.0571 -1.0465
 6613TIP3   OH241397   4.468   3.619   8.631  0.0953  0.6875 -0.8746
 6613TIP3    H141398   4.443   3.534   8.594 -1.1534  0.5247  0.2434
 6613TIP3    H241399   4.487   3.599   8.723  1.4325  1.3595 -0.9888
 6614TIP3   OH241400   5.078   0.435   8.417  0.0944  0.2883  0.0524
 6614TIP3    H141401   5.049   0.368   8.356 -1.5060  0.0260  1.0283
 6614TIP3    H241402   4.999   0.457   8.467  1.1536  1.0860  1.4466
 6615TIP3   OH241403   5.519   3.305   8.430 -0.1855 -0.4740  0.0309
 6615TIP3    H141404   5.589   3.362   8.399 -0.5796  0.0548  0.0841
 6615TIP3    H241405   5.493   3.343   8.514 -0.7711 -0.4449 -0.1550
 6616TIP3   OH241406   3.462   3.462   0.066 -0.5434  0.1603  0.3980
 6616TIP3    H141407   3.532   3.458   0.001 -1.2077 -1.3681 -0.2568
 6616TIP3    H241408   3.455   3.555   0.088  1.3355  0.4115  0.1086
 6617TIP3   OH241409   3.462   6.456   0.059  0.2422  0.2753  0.0908
 6617TIP3    H141410   3.424   6.446   0.146  1.1714 -0.5243  0.4197
 6617TIP3    H241411   3.548   6.494   0.074  0.7851 -0.7209 -0.3888
 6618TIP3   OH241412   3.348   5.102   0.554 -0.1845  0.5055 -0.2628
 6618TIP3    H141413   3.294   5.122   0.630 -0.1257 -1.9269  0.4980
 6618TIP3    H241414   3.309   5.023   0.517  3.0762 -1.7287  0.6717
 6619TIP3   OH241415   0.093   3.904   0.279 -0.5735  0.6509 -0.5332
 6619TIP3    H141416   0.151   3.833   0.251 -0.0238  0.6865  0.4864
 6619TIP3    H241417   0.059   3.940   0.197  1.0475  0.8027 -1.1816
 6620TIP3   OH241418   0.841   6.559   7.481  0.1691 -0.2639 -0.1617
 6620TIP3    H141419   0.912   6.571   7.544 -0.5958  2.8001  0.2875
 6620TIP3    H241420   0.881   6.581   7.396  0.0373  0.4541 -0.0455
 6621TIP3   OH241421   5.109   1.825   8.220 -0.2524 -0.6782  0.1460
 6621TIP3    H141422   5.197   1.790   8.205 -0.2719 -0.7532  0.2059
 6621TIP3    H241423   5.051   1.752   8.201 -0.3205 -0.5273 -0.2362
 6622TIP3   OH241424   0.756   0.136   1.523 -0.2987 -0.3197  0.1066
 6622TIP3    H141425   0.764   0.131   1.619 -0.7939  0.1335  0.1726
 6622TIP3    H241426   0.829   0.191   1.496 -0.7965  0.4637  0.3304
 6623TIP3   OH241427   3.099   1.758   2.183  0.2990  0.1303 -0.0513
 6623TIP3    H141428   3.121   1.839   2.137  0.5742  1.2352  1.9223
 6623TIP3    H241429   3.003   1.752   2.176  0.3888 -0.0980 -1.3058
 6624TIP3   OH241430   3.120   4.549   0.399 -0.0170  0.2226 -0.4265
 6624TIP3    H141431   3.171   4.469   0.384 -1.4235 -0.3901 -2.3662
 6624TIP3    H241432   3.180   4.607   0.445  1.5714 -1.3695 -0.3604
 6625TIP3   OH241433   6.289   6.278   0.804  0.0410  0.5323 -0.6383
 6625TIP3    H141434   6.280   6.333   0.882  1.3523 -1.3475  0.9389
 6625TIP3    H241435   6.234   6.202   0.821  1.2612 -0.4677 -0.9733
 6626TIP3   OH241436   1.061   2.108   7.720 -0.0233 -0.0756 -0.3799
 6626TIP3    H141437   1.109   2.029   7.698  0.4366 -0.2147  1.0478
 6626TIP3    H241438   0.985   2.107   7.661 -1.2716 -2.7740  1.0820
 6627TIP3   OH241439   2.168   4.450   7.643  0.0580  0.4328  0.0018
 6627TIP3    H141440   2.084   4.487   7.617 -0.3991 -1.1177 -0.8986
 6627TIP3    H241441   2.190   4.389   7.572  0.2342 -1.7834  1.8321
 6628TIP3   OH241442   3.187   3.866   1.597 -0.0525  0.4674 -0.2048
 6628TIP3    H141443   3.261   3.834   1.545 -0.6388 -1.4335  0.0570
 6628TIP3    H241444   3.224   3.886   1.683 -0.1045 -2.3825  0.5729
 6629TIP3   OH241445   4.728   2.250   1.136  0.3341  0.0039 -0.5217
 6629TIP3    H141446   4.679   2.188   1.080  0.5707 -0.4087 -0.2755
 6629TIP3    H241447   4.662   2.284   1.197  0.5104 -1.2054  0.3763
 6630TIP3   OH241448   2.770   5.163   8.770 -0.2892  0.1002 -0.2418
 6630TIP3    H141449   2.862   5.143   8.789 -0.0588  0.6842 -0.7086
 6630TIP3    H241450   2.725   5.150   8.854  0.2791  0.1572  0.0804
 6631TIP3   OH241451   3.029   3.946   2.090 -0.6741 -0.7078 -0.0467
 6631TIP3    H141452   2.969   4.010   2.129 -2.1911 -0.8477 -1.9871
 6631TIP3    H241453   3.054   3.889   2.162 -2.4721 -0.3146  0.9533
 6632TIP3   OH241454   6.060   5.120   7.789 -0.1736  0.0950  0.1922
 6632TIP3    H141455   6.150   5.135   7.818  1.3172 -1.5325 -3.0269
 6632TIP3    H241456   6.044   5.027   7.808 -0.9320  0.2065  0.1294
 6633TIP3   OH241457   3.580   5.966   7.928 -0.0305 -0.0413  0.9084
 6633TIP3    H141458   3.654   5.977   7.869 -0.9620  0.5579 -0.1693
 6633TIP3    H241459   3.601   5.887   7.978  1.5332  0.3605  0.9430
 6634TIP3   OH241460   2.417   0.217   2.531  0.0805 -0.2260  0.4117
 6634TIP3    H141461   2.442   0.139   2.581  0.0454 -0.7755 -0.4114
 6634TIP3    H241462   2.417   0.288   2.596 -2.9923 -1.4185  1.9397
 6635TIP3   OH241463   0.358   2.576   0.120 -0.0957 -0.3444  0.2024
 6635TIP3    H141464   0.436   2.623   0.148 -1.3786  1.6967  0.5786
 6635TIP3    H241465   0.355   2.499   0.177  0.3425  0.8319  1.8832
 6636TIP3   OH241466   3.020   4.685   8.545 -0.2168 -0.2690 -0.2703
 6636TIP3    H141467   3.035   4.779   8.534  1.7014 -0.4806  0.1471
 6636TIP3    H241468   2.926   4.678   8.564 -0.1326  1.7263  1.2300
 6637TIP3   OH241469   4.924   1.720   1.883  0.2302 -0.0463 -0.1439
 6637TIP3    H141470   4.845   1.759   1.919 -0.4225 -0.4778 -1.0658
 6637TIP3    H241471   4.934   1.762   1.797  1.5336  0.6835  0.3286
 6638TIP3   OH241472   2.895   2.983   1.591  0.4737  0.1207  0.2417
 6638TIP3    H141473   2.928   3.054   1.645 -1.9263  0.3461  1.5088
 6638TIP3    H241474   2.917   3.009   1.501  1.7134  1.2819  0.8501
 6639TIP3   OH241475   1.957   3.307   1.352 -0.5465 -0.4995  0.1237
 6639TIP3    H141476   2.041   3.335   1.390 -1.3502  0.6106  1.1548
 6639TIP3    H241477   1.930   3.380   1.297 -0.1102 -1.5059 -1.5051
 6640TIP3   OH241478   2.813   5.525   8.614 -0.1974 -0.4825  0.3406
 6640TIP3    H141479   2.821   5.568   8.529 -1.5924  1.2492  1.0230
 6640TIP3    H241480   2.773   5.441   8.594 -0.3451 -0.1753 -0.7344
 6641TIP3   OH241481   0.096   4.531   1.448 -0.3393  0.0927  0.3230
 6641TIP3    H141482   0.127   4.467   1.384 -1.1219 -1.0733  1.0740
 6641TIP3    H241483   0.112   4.616   1.407  1.0271 -0.5641 -0.5571
 6642TIP3   OH241484   6.449   5.107   1.080  0.1846 -0.6856  0.0768
 6642TIP3    H141485   6.544   5.102   1.070  0.2845 -1.2656  1.1860
 6642TIP3    H241486   6.435   5.163   1.155 -0.3209 -1.1357  0.3266
 6643TIP3   OH241487   5.903   4.048   7.282  0.2313  0.6247  0.0182
 6643TIP3    H141488   5.969   3.998   7.330  1.1551 -0.7895 -2.5151
 6643TIP3    H241489   5.949   4.129   7.257 -0.1065  1.1566  1.0625
 6644TIP3   OH241490   1.921   2.144   7.109 -0.2591  0.4523 -0.3204
 6644TIP3    H141491   1.963   2.086   7.173 -0.3095  0.4321 -0.3055
 6644TIP3    H241492   1.875   2.084   7.050  1.2462  0.3457 -1.4348
 6645TIP3   OH241493   2.926   0.193   0.048  0.1127  0.6539  0.3300
 6645TIP3    H141494   3.011   0.204   0.006  0.2550 -1.9139 -0.2134
 6645TIP3    H241495   2.945   0.198   0.142  0.9380 -0.3126  0.2235
 6646TIP3   OH241496   0.831   0.238   6.849 -0.3538 -0.5465 -0.2201
 6646TIP3    H141497   0.845   0.324   6.810 -0.6381 -0.7786 -0.8460
 6646TIP3    H241498   0.913   0.218   6.895  0.3301 -0.6477 -1.4341
 6647TIP3   OH241499   0.826   4.915   1.839  0.0773  0.7636 -0.5370
 6647TIP3    H141500   0.829   4.983   1.905 -2.2959 -0.1661  0.6517
 6647TIP3    H241501   0.843   4.833   1.887  1.1561  0.3191 -1.6166
 6648TIP3   OH241502   6.462   5.112   0.251  0.5210 -0.3161  0.2274
 6648TIP3    H141503   6.443   5.026   0.212 -0.6344  0.6274 -1.4144
 6648TIP3    H241504   6.499   5.163   0.178  2.3388  0.2378  1.4827
 6649TIP3   OH241505   0.922   1.478   1.959 -0.2782 -0.0085 -0.0091
 6649TIP3    H141506   0.888   1.509   1.875  2.9659  2.0543 -0.7275
 6649TIP3    H241507   0.952   1.389   1.942 -0.9917 -0.1505 -0.5860
 6650TIP3   OH241508   2.582   3.382   8.915 -0.0651 -0.2655  0.1527
 6650TIP3    H141509   2.521   3.439   8.963 -0.4790 -0.7791  0.2433
 6650TIP3    H241510   2.573   3.409   8.824  0.6364  0.6364  0.3273
 6651TIP3   OH241511   2.215   5.093   2.093  0.0472  0.0503 -0.5613
 6651TIP3    H141512   2.308   5.070   2.082  0.0653  0.7106 -2.0395
 6651TIP3    H241513   2.211   5.134   2.179  0.8009 -1.5051  0.2547
 6652TIP3   OH241514   3.193   4.667   2.549  0.2316 -0.3141  0.2725
 6652TIP3    H141515   3.168   4.699   2.636  1.8920 -1.4375  1.2170
 6652TIP3    H241516   3.217   4.747   2.501 -1.1273  0.3680  0.6629
 6653TIP3   OH241517   3.920   2.847   7.663 -0.0999 -0.3567  0.4849
 6653TIP3    H141518   3.979   2.792   7.612 -0.8226 -1.9065  1.2569
 6653TIP3    H241519   3.933   2.935   7.627  1.2520 -0.9677 -0.6407
 6654TIP3   OH241520   0.205   4.685   1.818 -0.5717 -0.2980 -0.1772
 6654TIP3    H141521   0.152   4.762   1.797 -0.4959  0.0091  0.6956
 6654TIP3    H241522   0.240   4.656   1.734 -0.1906  0.9204 -0.4558
 6655TIP3   OH241523   6.220   5.611   8.059 -0.2703  0.8369  0.2540
 6655TIP3    H141524   6.277   5.635   8.132  0.1600 -0.4672  0.3662
 6655TIP3    H241525   6.137   5.587   8.100  0.0189 -0.0444  0.3538
 6656TIP3   OH241526   4.715   1.538   8.662  0.0219  0.0288 -0.4157
 6656TIP3    H141527   4.637   1.490   8.634 -1.3487  2.0485 -0.2281
 6656TIP3    H241528   4.770   1.472   8.703 -2.2159 -1.2355  0.7255
 6657TIP3   OH241529   0.178   5.238   1.408 -0.0479  0.4703  0.0381
 6657TIP3    H141530   0.211   5.244   1.319 -0.9473  0.4347 -0.3056
 6657TIP3    H241531   0.249   5.273   1.462  0.7450 -0.0819 -0.6299
 6658TIP3   OH241532   6.364   2.495   1.680  0.2035  0.0895  0.1048
 6658TIP3    H141533   6.286   2.551   1.686  1.5180  1.9641  0.6298
 6658TIP3    H241534   6.407   2.504   1.765  1.7338  0.2364 -0.6579
 6659TIP3   OH241535   6.750   0.323   1.665 -0.3017 -0.3406  0.1738
 6659TIP3    H141536   6.800   0.339   1.745  0.7220  0.2092 -0.5638
 6659TIP3    H241537   6.687   0.256   1.690  0.2641 -0.4599  1.3442
 6660TIP3   OH241538   0.322   0.878   2.257 -0.1066  0.1866  0.0835
 6660TIP3    H141539   0.392   0.824   2.295  0.5927  0.4743 -0.7660
 6660TIP3    H241540   0.290   0.826   2.183  1.1850  1.2662 -1.3089
 6661TIP3   OH241541   2.077   1.880   2.752  0.0659  0.6774 -0.1179
 6661TIP3    H141542   2.080   1.853   2.844 -0.3804 -0.1446 -0.3373
 6661TIP3    H241543   2.101   1.973   2.754 -0.0954  0.7113  0.8441
 6662TIP3   OH241544   4.520   0.345   1.850 -0.0150 -0.8715 -0.1729
 6662TIP3    H141545   4.497   0.252   1.854  0.4426 -0.9720  0.4530
 6662TIP3    H241546   4.604   0.350   1.897 -0.0672 -0.1353 -0.1509
 6663TIP3   OH241547   2.082   2.108   1.149  0.6409  0.2304 -0.5080
 6663TIP3    H141548   2.109   2.053   1.075  1.0314 -1.2023  0.6476
 6663TIP3    H241549   2.148   2.176   1.153  0.4705  0.4861 -1.6240
 6664TIP3   OH241550   5.649   0.764   2.506  0.0680 -0.3283  0.4568
 6664TIP3    H141551   5.671   0.840   2.560  0.2763  0.4921 -0.7254
 6664TIP3    H241552   5.577   0.794   2.451  2.3371  0.2616 -2.4540
 6665TIP3   OH241553   2.193   0.970   1.241  0.3340 -0.2694  0.1171
 6665TIP3    H141554   2.281   0.945   1.210  0.1240  2.8748 -3.7326
 6665TIP3    H241555   2.206   1.054   1.285 -0.6614 -0.1427  0.1890
 6666TIP3   OH241556   5.780   4.860   0.424 -0.7049 -0.0399 -0.1396
 6666TIP3    H141557   5.840   4.806   0.372 -1.1856 -0.5533 -0.1623
 6666TIP3    H241558   5.771   4.814   0.507 -0.3568  0.5114  0.2150
 6667TIP3   OH241559   1.589   6.183   0.580  0.3818  0.4135  0.0839
 6667TIP3    H141560   1.547   6.097   0.589  1.1260  0.1573  1.3387
 6667TIP3    H241561   1.609   6.190   0.486 -1.1373 -0.0684 -0.2961
 6668TIP3   OH241562   1.897   6.228   1.366  0.0001  0.2203 -0.6023
 6668TIP3    H141563   1.862   6.144   1.397 -1.8254  0.8416 -0.8127
 6668TIP3    H241564   1.962   6.253   1.432 -0.6590 -0.5706  0.3892
 6669TIP3   OH241565   0.698   0.156   2.297  0.0076  0.4714  0.7035
 6669TIP3    H141566   0.787   0.146   2.330 -0.0756 -0.4801  0.6932
 6669TIP3    H241567   0.643   0.150   2.375  0.0229  3.3895  1.0309
 6670TIP3   OH241568   6.111   4.584   7.936  0.1898 -0.2589  0.1978
 6670TIP3    H141569   6.127   4.656   7.876  1.3055 -0.4194  0.2973
 6670TIP3    H241570   6.020   4.559   7.918 -0.3682  1.4307  0.4640
 6671TIP3   OH241571   6.488   0.018   0.506  0.5144  0.1447 -0.1863
 6671TIP3    H141572   6.490   0.002   0.601 -0.7308 -0.0002 -0.1686
 6671TIP3    H241573   6.573  -0.013   0.475  0.8078 -0.1139  0.8401
 6672TIP3   OH241574   5.164   6.609   0.320 -0.0158  0.1036  0.3458
 6672TIP3    H141575   5.227   6.538   0.305 -1.2133 -0.6149 -1.8055
 6672TIP3    H241576   5.089   6.567   0.360 -0.2639  0.3724  0.1685
 6673TIP3   OH241577   1.146   0.550   0.515  0.4787 -0.2615  0.0573
 6673TIP3    H141578   1.095   0.549   0.597  0.3817 -1.5820 -0.0023
 6673TIP3    H241579   1.101   0.488   0.458 -0.0001  1.3156 -1.3790
 6674TIP3   OH241580   2.727   1.207   0.302 -0.4267 -0.1616 -0.0559
 6674TIP3    H141581   2.808   1.202   0.353  0.0216 -1.2470 -0.8436
 6674TIP3    H241582   2.739   1.283   0.245  0.4640 -0.8798 -0.8592
 6675TIP3   OH241583   2.271   0.609   7.541 -0.3298 -0.1297 -0.0195
 6675TIP3    H141584   2.245   0.693   7.503  0.5114 -0.5311 -1.5828
 6675TIP3    H241585   2.189   0.562   7.555 -0.7819  0.7996  0.5353
 6676TIP3   OH241586   6.579   1.228   2.773  0.2944  0.1523 -0.3459
 6676TIP3    H141587   6.502   1.191   2.731  0.0507 -0.2452  0.4170
 6676TIP3    H241588   6.545   1.270   2.853  0.7410  0.8608 -0.5145
 6677TIP3   OH241589   6.137   5.182   0.526 -0.0476  0.7169  0.1281
 6677TIP3    H141590   6.109   5.122   0.457  0.2101 -0.6232  1.1538
 6677TIP3    H241591   6.149   5.126   0.603 -0.2113  2.1523  1.2296
 6678TIP3   OH241592   4.241   1.248   1.810  0.1436  0.0834  0.0204
 6678TIP3    H141593   4.147   1.228   1.814  0.1026  0.3482  0.4424
 6678TIP3    H241594   4.256   1.272   1.719 -0.1383 -0.2521 -0.1175
 6679TIP3   OH241595   4.437   5.808   8.325 -0.1890 -0.1221  0.0703
 6679TIP3    H141596   4.502   5.859   8.277 -0.2353 -0.3990 -0.2872
 6679TIP3    H241597   4.486   5.733   8.360 -0.4681 -0.7430 -0.8494
 6680TIP3   OH241598   1.739   1.474   0.687  0.2743 -0.3129 -0.3224
 6680TIP3    H141599   1.761   1.456   0.596  0.5576 -0.6428 -0.1917
 6680TIP3    H241600   1.649   1.443   0.696 -0.5000  1.6229 -1.0237
 6681TIP3   OH241601   5.374   5.039   1.998 -0.0130 -0.3858 -0.2462
 6681TIP3    H141602   5.403   5.005   2.083  0.6785 -1.6671 -0.9637
 6681TIP3    H241603   5.280   5.054   2.010  0.3860  1.2036  1.2755
 6682TIP3   OH241604   3.280   5.329   7.340  0.1033 -0.0425 -0.7525
 6682TIP3    H141605   3.212   5.262   7.347  0.4071 -0.5264 -2.0971
 6682TIP3    H241606   3.347   5.302   7.403 -0.9491  0.4808  0.6408
 6683TIP3   OH241607   5.160   6.217   0.954  0.0012  0.2365 -0.3421
 6683TIP3    H141608   5.250   6.212   0.984 -0.2468  0.7812  0.5164
 6683TIP3    H241609   5.165   6.263   0.870  0.6938 -1.2800 -1.1748
 6684TIP3   OH241610   0.749   4.926   7.444  0.3846 -0.3105 -0.2339
 6684TIP3    H141611   0.750   4.841   7.400  2.2372 -0.3685 -0.1580
 6684TIP3    H241612   0.805   4.981   7.389  0.6259  0.3466  0.6589
 6685TIP3   OH241613   5.362   3.000   7.772  0.0500  0.4016 -0.3544
 6685TIP3    H141614   5.341   2.908   7.757  0.1955  0.3215 -0.0658
 6685TIP3    H241615   5.457   3.005   7.763  0.0042  0.6020 -0.7782
 6686TIP3   OH241616   6.453   4.853   0.071 -0.3743 -0.3715  0.4261
 6686TIP3    H141617   6.519   4.899   0.019 -1.9337  1.0349 -0.4094
 6686TIP3    H241618   6.369   4.890   0.042 -1.6295 -2.7136  0.8030
 6687TIP3   OH241619   0.074   1.367   2.219 -0.0352 -0.2694 -0.5558
 6687TIP3    H141620   0.110   1.381   2.307  0.7835  0.9631 -1.0666
 6687TIP3    H241621  -0.002   1.310   2.234 -0.2936  0.4266  1.0298
 6688TIP3   OH241622   1.354   1.828   1.633 -0.2615  0.9256 -0.1680
 6688TIP3    H141623   1.326   1.864   1.717 -0.0128  0.1041  0.2750
 6688TIP3    H241624   1.273   1.804   1.589 -0.4303 -3.0533  1.8031
 6689TIP3   OH241625   4.251   1.741   1.214  0.3378 -0.3197  0.6325
 6689TIP3    H141626   4.175   1.792   1.242 -1.6944 -1.8996 -1.5175
 6689TIP3    H241627   4.258   1.759   1.120  2.5842 -0.3158  0.7588
 6690TIP3   OH241628   1.391   4.211   7.696 -0.0879  0.0130 -0.1760
 6690TIP3    H141629   1.448   4.222   7.772  0.1227 -0.0206 -0.3296
 6690TIP3    H241630   1.374   4.301   7.666 -0.7203  0.0682  0.3121
 6691TIP3   OH241631   6.375   6.069   8.065  0.1690  0.7373 -0.0801
 6691TIP3    H141632   6.330   6.136   8.115 -1.7699 -0.1183 -0.5807
 6691TIP3    H241633   6.336   6.073   7.978  1.5117  0.3477 -0.7383
 6692TIP3   OH241634   5.749   5.520   0.654  0.2212  0.3795  0.1953
 6692TIP3    H141635   5.782   5.462   0.586 -2.9453  0.7382 -1.8891
 6692TIP3    H241636   5.712   5.461   0.720 -0.9724 -0.0543 -0.8162
 6693TIP3   OH241637   6.127   1.307   8.222 -0.1849 -0.2450 -0.2112
 6693TIP3    H141638   6.056   1.370   8.240 -0.5721 -0.8867  0.5692
 6693TIP3    H241639   6.189   1.320   8.294 -1.1251 -1.9506  0.9832
 6694TIP3   OH241640   2.367   6.191   7.173 -0.2566 -0.7377 -0.2328
 6694TIP3    H141641   2.276   6.173   7.150 -0.8287 -0.7585  1.8128
 6694TIP3    H241642   2.416   6.118   7.136 -1.0221 -0.5713 -1.6223
 6695TIP3   OH241643   0.906   0.821   1.786 -0.0640 -0.3084 -0.3376
 6695TIP3    H141644   0.988   0.775   1.803 -1.0946 -1.0158  3.6933
 6695TIP3    H241645   0.869   0.777   1.710  2.8006 -0.5055 -1.7630
 6696TIP3   OH241646   6.595   6.236   1.956  0.1813 -0.2500  0.2596
 6696TIP3    H141647   6.661   6.297   1.924  1.4585 -1.7201 -0.0593
 6696TIP3    H241648   6.632   6.201   2.037  0.7354 -2.4749 -0.8626
 6697TIP3   OH241649   6.212   4.543   0.579 -0.5409 -0.7859  0.1003
 6697TIP3    H141650   6.224   4.478   0.649  1.0838  1.5135  2.0918
 6697TIP3    H241651   6.254   4.622   0.612  0.1755  0.4909 -3.4576
 6698TIP3   OH241652   0.621   4.558   1.090  0.2031 -0.0581  0.1318
 6698TIP3    H141653   0.547   4.613   1.116  0.2910  0.0725  0.1060
 6698TIP3    H241654   0.618   4.483   1.150  0.4303  0.2630  0.5448
 6699TIP3   OH241655   4.195   5.510   8.299  0.7738  0.5663 -0.0664
 6699TIP3    H141656   4.121   5.566   8.323  1.1198  2.0636 -2.2207
 6699TIP3    H241657   4.157   5.422   8.293 -0.7828  1.2528 -0.8496
 6700TIP3   OH241658   2.642   1.360   8.853  0.7130  0.1439 -0.1887
 6700TIP3    H141659   2.719   1.380   8.799  0.5156 -1.3112 -1.0625
 6700TIP3    H241660   2.676   1.308   8.925  0.7478  0.7043  0.1985
 6701TIP3   OH241661   0.438   0.877   2.552 -0.0603  0.0832 -0.2919
 6701TIP3    H141662   0.515   0.934   2.546  0.5864 -0.8569 -1.1973
 6701TIP3    H241663   0.445   0.818   2.476 -1.1825 -0.6252  0.1253
 6702TIP3   OH241664   2.732   2.546   7.022 -0.4063 -0.1956  0.3784
 6702TIP3    H141665   2.809   2.579   7.069  0.3151 -1.7260  0.3474
 6702TIP3    H241666   2.744   2.576   6.932 -0.5500  0.7053  0.6512
 6703TIP3   OH241667   3.381   6.368   0.366 -0.2567  0.2541 -0.6501
 6703TIP3    H141668   3.399   6.443   0.424  0.2257  0.1442 -0.6506
 6703TIP3    H241669   3.289   6.348   0.381  0.2564 -0.9084  1.4542
 6704TIP3   OH241670   1.700   4.362   0.154  0.0961 -0.0240 -0.0746
 6704TIP3    H141671   1.644   4.400   0.221  0.7845  1.0262 -0.0756
 6704TIP3    H241672   1.658   4.279   0.131 -0.9199  0.2923  0.6117
 6705TIP3   OH241673   2.711   5.282   8.544 -0.3225  0.6148 -0.2505
 6705TIP3    H141674   2.736   5.241   8.626  1.2320  1.3500 -0.3202
 6705TIP3    H241675   2.652   5.218   8.502 -0.6614 -0.0198  1.1382
 6706TIP3   OH241676   4.595   4.860   1.726  0.3377  1.2261 -0.1528
 6706TIP3    H141677   4.650   4.782   1.740  0.5803  1.4980  0.4269
 6706TIP3    H241678   4.551   4.843   1.642 -0.4887 -0.0624  0.4945
 6707TIP3   OH241679   3.999   4.892   8.433  0.1582 -0.3104 -0.1920
 6707TIP3    H141680   3.974   4.812   8.386 -1.2935  0.2044 -0.3611
 6707TIP3    H241681   3.983   4.871   8.525  0.1254 -0.3332 -0.2023
 6708TIP3   OH241682   3.915   6.711   2.163  0.1022 -0.1013 -0.1788
 6708TIP3    H141683   3.961   6.786   2.126 -0.2928 -0.0688 -0.6087
 6708TIP3    H241684   3.823   6.737   2.165  0.0938 -0.1764  0.6510
 6709TIP3   OH241685   4.313   1.769   0.930  0.0045 -0.1954  0.0285
 6709TIP3    H141686   4.400   1.802   0.952  0.7220 -3.5266  3.0544
 6709TIP3    H241687   4.326   1.718   0.850  0.6249  0.0016 -0.0013
 6710TIP3   OH241688   6.169   4.984   0.729  0.0183 -0.1406 -0.1502
 6710TIP3    H141689   6.217   4.953   0.805 -1.4924  0.0917  0.9312
 6710TIP3    H241690   6.170   4.910   0.668 -2.6844 -2.1370  1.9773
 6711TIP3   OH241691   3.243   6.633   8.861  0.1892  0.1491  0.3048
 6711TIP3    H141692   3.159   6.645   8.817 -0.3063 -2.4662  0.3879
 6711TIP3    H241693   3.221   6.616   8.952  0.7584 -1.1525  0.2139
 6712TIP3   OH241694   4.589   3.775   1.037 -0.0553 -0.1079 -0.3764
 6712TIP3    H141695   4.494   3.786   1.032 -0.2218 -1.3441 -0.2595
 6712TIP3    H241696   4.610   3.715   0.966  0.2789 -1.7444  1.0163
 6713TIP3   OH241697   5.768   2.882   8.356 -0.1143  0.1478 -0.2045
 6713TIP3    H141698   5.861   2.905   8.353 -0.1050  0.1881  0.3169
 6713TIP3    H241699   5.729   2.948   8.414 -0.2164 -0.7292  0.7473
 6714TIP3   OH241700   3.385   5.844   8.398  0.0238  0.3358  0.0778
 6714TIP3    H141701   3.378   5.940   8.404  2.7116  0.6712 -0.6787
 6714TIP3    H241702   3.426   5.819   8.481 -0.2195 -0.1156  0.0621
 6715TIP3   OH241703   0.484   3.635   0.663 -0.3694 -0.1747  0.5000
 6715TIP3    H141704   0.393   3.631   0.692 -0.8454  0.6488 -0.7947
 6715TIP3    H241705   0.479   3.657   0.570  1.1541  0.0139  0.4308
 6716TIP3   OH241706   1.212   1.178   7.393  0.0563  0.0234 -0.5071
 6716TIP3    H141707   1.275   1.251   7.391  0.9750 -0.4539  3.4737
 6716TIP3    H241708   1.248   1.115   7.330  2.4677  0.6454  0.1265
 6717TIP3   OH241709   3.693   4.388   7.168  0.3133 -0.1962  0.2913
 6717TIP3    H141710   3.785   4.406   7.186  0.9198 -2.9748  0.4110
 6717TIP3    H241711   3.690   4.368   7.075 -0.1797 -0.1120  0.2871
 6718TIP3   OH241712   5.336   2.262   7.874 -0.5281 -0.4809  0.0003
 6718TIP3    H141713   5.264   2.301   7.924 -0.2388  0.1061 -0.0325
 6718TIP3    H241714   5.292   2.203   7.812 -1.0367  0.3963 -0.4914
 6719TIP3   OH241715   2.466   3.362   1.204 -0.6614 -0.1793 -0.2075
 6719TIP3    H141716   2.547   3.394   1.244 -1.1175 -0.4269  0.9549
 6719TIP3    H241717   2.423   3.442   1.173 -0.3632  0.0347 -0.0819
 6720TIP3   OH241718   2.632   5.062   0.614  0.0374  0.3420 -0.1158
 6720TIP3    H141719   2.685   5.120   0.560 -0.8439  0.3675 -0.9756
 6720TIP3    H241720   2.552   5.111   0.632 -0.2686 -0.2014  0.0456
 6721TIP3   OH241721   6.004   3.097   0.970 -0.5331  0.2635 -0.2221
 6721TIP3    H141722   6.064   3.167   0.945 -0.7573  0.8658  0.8628
 6721TIP3    H241723   6.058   3.018   0.972 -0.2626  0.4072 -1.3849
 6722TIP3   OH241724   5.134   1.394   1.231 -0.7661 -0.4722 -0.1693
 6722TIP3    H141725   5.065   1.444   1.187  0.6191  0.5872 -1.2631
 6722TIP3    H241726   5.144   1.438   1.316  2.3032  3.1948 -2.1058
 6723TIP3   OH241727   5.613   3.049   8.532  0.2093  0.4485 -0.2083
 6723TIP3    H141728   5.635   3.125   8.585  4.0292 -0.6720  0.1160
 6723TIP3    H241729   5.574   3.086   8.452 -0.1281  2.5369  0.8553
 6724TIP3   OH241730   1.106   1.004   7.728  0.5324  0.6448 -0.0898
 6724TIP3    H141731   1.198   0.989   7.747  0.1372 -0.2929  1.1742
 6724TIP3    H241732   1.084   0.940   7.661  0.1618 -0.9724  1.5204
 6725TIP3   OH241733   2.661   3.317   8.593 -0.2696  0.1488  0.2405
 6725TIP3    H141734   2.727   3.365   8.543  1.1127  0.1882  1.9869
 6725TIP3    H241735   2.588   3.379   8.602 -0.4701  0.2043 -1.4747
 6726TIP3   OH241736   0.456   6.241   0.838  0.7052  0.4190 -0.1116
 6726TIP3    H141737   0.448   6.268   0.929  0.4997 -0.7295  0.2217
 6726TIP3    H241738   0.485   6.320   0.792  1.4596  0.8473  1.0544
 6727TIP3   OH241739   5.298   5.530   8.175  0.5928 -0.0612 -0.2537
 6727TIP3    H141740   5.348   5.501   8.252  1.4701 -0.1227 -0.8301
 6727TIP3    H241741   5.262   5.615   8.200  1.1805  0.0882  0.0984
 6728TIP3   OH241742   4.773   5.422   0.985 -0.1557  0.5670  0.3380
 6728TIP3    H141743   4.840   5.450   1.049 -0.4526 -0.7461  1.2621
 6728TIP3    H241744   4.734   5.504   0.954 -0.8428  1.2482  2.7745
 6729TIP3   OH241745   4.146   4.674   7.896 -0.0040  0.1212  0.0405
 6729TIP3    H141746   4.105   4.607   7.841 -0.2727  1.2833 -1.2056
 6729TIP3    H241747   4.105   4.662   7.982 -0.1929 -1.1801 -0.2081
 6730TIP3   OH241748   4.002   4.139   0.814 -0.2882  0.2748  0.6599
 6730TIP3    H141749   4.012   4.069   0.750 -1.0397  1.0440 -0.3238
 6730TIP3    H241750   3.988   4.093   0.897  1.2590 -0.7349  0.4036
 6731TIP3   OH241751   5.627   5.666   2.398 -0.4542 -0.4926  0.2361
 6731TIP3    H141752   5.554   5.610   2.374 -0.9053  0.7037 -1.3317
 6731TIP3    H241753   5.688   5.659   2.325 -0.3350  0.7247  0.1958
 6732TIP3   OH241754   6.451   1.354   2.468  0.0940 -0.3514 -0.7380
 6732TIP3    H141755   6.514   1.420   2.497  1.0512 -1.9528  1.0748
 6732TIP3    H241756   6.502   1.294   2.413 -0.0763 -1.0814 -0.1161
 6733TIP3   OH241757   1.013   6.183   1.724 -0.2620 -0.1974  0.5926
 6733TIP3    H141758   1.030   6.183   1.818 -0.5067  0.8037  0.6565
 6733TIP3    H241759   0.968   6.100   1.707  0.2372 -0.6121  1.2654
 6734TIP3   OH241760   4.357   3.833   8.139  0.1231 -0.7470  0.1868
 6734TIP3    H141761   4.412   3.886   8.197 -1.3578  1.0158  0.0792
 6734TIP3    H241762   4.283   3.807   8.194 -1.4936  1.2674 -0.8966
 6735TIP3   OH241763   0.301   3.597   1.963 -0.1234  0.7963  0.4030
 6735TIP3    H141764   0.242   3.534   2.005 -0.5750  1.8419  1.3953
 6735TIP3    H241765   0.250   3.678   1.957  0.3998  1.0501 -0.9674
 6736TIP3   OH241766   4.239   1.530   1.638 -0.0407 -0.0010  0.3283
 6736TIP3    H141767   4.325   1.489   1.645  0.9275  1.8855  0.2734
 6736TIP3    H241768   4.210   1.510   1.549  2.2787  2.7090 -1.2060
 6737TIP3   OH241769   6.001   0.177   1.214 -1.1258 -0.1737  0.7182
 6737TIP3    H141770   5.922   0.129   1.190 -0.2128 -1.3286 -0.0388
 6737TIP3    H241771   6.050   0.117   1.270  0.3881 -0.4708 -0.8423
 6738TIP3   OH241772   6.619   5.785   8.624  0.3149  0.2629 -0.1873
 6738TIP3    H141773   6.600   5.744   8.539 -0.0310  0.4750 -0.2157
 6738TIP3    H241774   6.533   5.797   8.664  0.4943 -0.0720  0.3075
 6739TIP3   OH241775   0.529   6.260   7.062  1.0737 -0.0755 -0.0998
 6739TIP3    H141776   0.562   6.178   7.100  1.4314 -0.6099 -1.4924
 6739TIP3    H241777   0.436   6.259   7.083  1.4031  0.1091  1.5200
 6740TIP3   OH241778   0.003   6.221   0.537 -0.2588  0.3703  0.1884
 6740TIP3    H141779  -0.071   6.218   0.598 -1.5038 -1.2124 -1.3332
 6740TIP3    H241780   0.078   6.193   0.590 -1.0955  0.0742  1.2626
 6741TIP3   OH241781   1.494   1.816   8.652 -0.3482 -0.6689 -0.4098
 6741TIP3    H141782   1.433   1.767   8.707  0.3860 -0.1904  0.8623
 6741TIP3    H241783   1.545   1.749   8.606 -0.7353 -1.0750 -0.2519
 6742TIP3   OH241784   3.978   1.611   6.578  0.3035  0.6051  0.1436
 6742TIP3    H141785   4.015   1.604   6.666  0.6665  1.0981  0.0346
 6742TIP3    H241786   3.971   1.706   6.562  1.5743  0.5478 -0.9067
 6743TIP3   OH241787   2.715   6.614   7.244  0.0697  0.4501  0.9262
 6743TIP3    H141788   2.731   6.671   7.169  1.2393 -0.2328  0.6320
 6743TIP3    H241789   2.620   6.605   7.248  0.0062  0.1570 -0.7340
 6744TIP3   OH241790   3.813   5.706   1.428 -0.6620  0.0386  0.2154
 6744TIP3    H141791   3.718   5.696   1.425 -0.6588 -0.1748  0.7693
 6744TIP3    H241792   3.829   5.772   1.495 -0.4234  0.1672  0.0367
 6745TIP3   OH241793   6.571   2.044   7.769  0.0191  0.2617  0.0689
 6745TIP3    H141794   6.494   2.095   7.743 -0.5413  0.1775  1.4602
 6745TIP3    H241795   6.563   1.962   7.720  0.8369  1.3904 -2.0647
 6746TIP3   OH241796   5.583   1.522   0.746 -0.0312 -0.0099  0.7979
 6746TIP3    H141797   5.575   1.589   0.814  0.6083  0.7970  0.0998
 6746TIP3    H241798   5.628   1.567   0.674 -0.5644 -0.8898 -0.0972
 6747TIP3   OH241799   1.231   3.995   1.501 -0.1828 -0.3418 -0.8293
 6747TIP3    H141800   1.294   3.924   1.505 -0.1010 -0.2280  2.3535
 6747TIP3    H241801   1.284   4.075   1.495 -0.0590 -0.3481  0.0346
 6748TIP3   OH241802   0.421   0.503   1.263  0.0257  0.2481 -0.2472
 6748TIP3    H141803   0.328   0.480   1.257 -0.2982  0.9805  1.4825
 6748TIP3    H241804   0.462   0.427   1.305  0.0542  0.2711 -0.2329
 6749TIP3   OH241805   3.687   2.350   8.929 -0.0279  0.4960 -0.1826
 6749TIP3    H141806   3.632   2.422   8.960 -0.7879 -0.1595  0.0514
 6749TIP3    H241807   3.713   2.304   9.009  0.7070  0.6786 -0.3078
 6750TIP3   OH241808   1.443   3.134   0.081  0.2129  0.4977 -0.1020
 6750TIP3    H141809   1.449   3.169   0.170  0.8199  1.3454 -0.4515
 6750TIP3    H241810   1.360   3.086   0.079 -0.5205  1.6868  0.5059
 6751TIP3   OH241811   5.803   0.487   1.030 -0.0639  0.0250  0.3586
 6751TIP3    H141812   5.848   0.503   1.113 -0.7642 -0.5526  0.8697
 6751TIP3    H241813   5.870   0.451   0.972  0.8177  1.9138  0.1409
 6752TIP3   OH241814   1.327   3.708   0.611 -0.2182  0.3013 -0.2661
 6752TIP3    H141815   1.356   3.744   0.695  0.1616 -0.5302 -0.0365
 6752TIP3    H241816   1.232   3.703   0.619 -0.2685  1.1552 -0.2644
 6753TIP3   OH241817   0.978   5.607   1.793 -0.2212 -0.7135 -0.2725
 6753TIP3    H141818   0.961   5.671   1.863  2.0825 -0.1897 -0.1076
 6753TIP3    H241819   1.027   5.537   1.835 -1.8163 -2.1496 -0.6849
 6754TIP3   OH241820   1.559   6.241   8.336  0.1491 -0.3850 -0.0567
 6754TIP3    H141821   1.628   6.232   8.401 -0.1559 -0.7121  0.2187
 6754TIP3    H241822   1.484   6.278   8.384  0.2959  0.4797 -0.4627
 6755TIP3   OH241823   5.045   0.149   1.734 -0.0247  0.1353 -0.1698
 6755TIP3    H141824   5.098   0.206   1.790 -1.8756  0.4010  1.4239
 6755TIP3    H241825   4.955   0.176   1.750 -0.7336 -0.8243 -2.1812
 6756TIP3   OH241826   6.511   3.052   0.469 -0.4934  0.3345  0.1725
 6756TIP3    H141827   6.442   3.117   0.461 -1.6242 -0.5727  1.8482
 6756TIP3    H241828   6.471   2.980   0.518  1.2957 -0.7563  0.1560
 6757TIP3   OH241829   1.609   2.045   8.210  0.7396  0.3499  0.3872
 6757TIP3    H141830   1.522   2.026   8.244  0.8199  0.7734  0.8455
 6757TIP3    H241831   1.667   1.988   8.261  0.5633 -1.4175 -1.2670
 6758TIP3   OH241832   0.699   3.744   2.261 -0.2250 -0.1947 -0.1703
 6758TIP3    H141833   0.774   3.690   2.285  0.9349  1.1199 -0.7022
 6758TIP3    H241834   0.677   3.715   2.173  0.3568  0.1402 -0.4336
 6759TIP3   OH241835   3.804   6.613   7.631 -0.3079  1.1447 -0.2555
 6759TIP3    H141836   3.796   6.520   7.608 -0.9029  0.7416  1.4128
 6759TIP3    H241837   3.897   6.632   7.619  0.4324 -0.5110  2.0957
 6760TIP3   OH241838   4.135   5.660   2.803  0.0812  0.3435  0.3423
 6760TIP3    H141839   4.055   5.621   2.766  0.1075  1.1491 -0.6129
 6760TIP3    H241840   4.179   5.587   2.847 -0.4005 -0.4728 -0.4852
 6761TIP3   OH241841   3.025   3.679   7.584 -0.0872  0.2160 -0.2859
 6761TIP3    H141842   3.105   3.630   7.563 -0.9967 -2.3680  1.7194
 6761TIP3    H241843   3.057   3.760   7.624  1.8955 -2.5725  4.7143
 6762TIP3   OH241844   3.679   3.650   0.685  0.5034 -0.0221  0.0934
 6762TIP3    H141845   3.686   3.662   0.590 -1.6887  2.2984  0.1277
 6762TIP3    H241846   3.635   3.565   0.696  1.5570 -0.7225 -0.8882
 6763TIP3   OH241847   6.195   4.605   7.582 -0.2684 -0.2179 -0.1437
 6763TIP3    H141848   6.275   4.613   7.633 -0.3305 -0.7864  0.0491
 6763TIP3    H241849   6.225   4.574   7.496 -0.3398 -1.1090  0.1437
 6764TIP3   OH241850   0.525   6.252   8.607  0.0925  0.3879 -0.0183
 6764TIP3    H141851   0.462   6.224   8.541 -0.3580  0.2684  0.4640
 6764TIP3    H241852   0.527   6.180   8.671 -0.2604  0.9604  0.6527
 6765TIP3   OH241853   3.547   4.075   7.835  0.0989  0.3263  0.3379
 6765TIP3    H141854   3.555   4.135   7.761 -0.0124  0.1267  0.1619
 6765TIP3    H241855   3.479   4.113   7.891  0.8224  0.9696  0.8137
 6766TIP3   OH241856   2.027   1.557   0.589  0.5837 -0.5096 -0.2639
 6766TIP3    H141857   2.024   1.579   0.682  1.3362 -0.8626 -0.1437
 6766TIP3    H241858   2.003   1.464   0.586 -0.6942 -0.1848 -0.5654
 6767TIP3   OH241859   5.655   2.119   1.079  0.0692  0.1274 -0.3076
 6767TIP3    H141860   5.575   2.071   1.100  0.7996 -1.0524 -0.0954
 6767TIP3    H241861   5.632   2.211   1.089 -0.4038 -0.2257  2.9569
 6768TIP3   OH241862   5.843   0.423   7.771 -0.0375 -0.4238 -0.1202
 6768TIP3    H141863   5.749   0.436   7.787 -1.0595 -1.4806 -4.2032
 6768TIP3    H241864   5.881   0.509   7.789 -1.8445  0.2301  0.9583
 6769TIP3   OH241865   0.463   3.663   0.305  0.1499  0.2748 -0.1852
 6769TIP3    H141866   0.459   3.753   0.274 -1.9242  1.2696  2.5241
 6769TIP3    H241867   0.377   3.647   0.344  0.9201 -2.4075  0.6637
 6770TIP3   OH241868   5.402   0.199   8.692 -0.3728  0.5809 -0.1577
 6770TIP3    H141869   5.380   0.153   8.773 -1.5163  1.5554  0.1176
 6770TIP3    H241870   5.347   0.157   8.626  0.4717 -0.1331 -0.4236
 6771TIP3   OH241871   5.962   5.556   8.244 -0.3841 -0.4178 -0.6410
 6771TIP3    H141872   5.942   5.624   8.309  0.4466 -0.0225 -0.7915
 6771TIP3    H241873   5.876   5.526   8.214 -0.8326 -1.3588  1.3929
 6772TIP3   OH241874   0.693   1.800   0.472  0.6448  0.3759  0.3012
 6772TIP3    H141875   0.628   1.763   0.412  0.0200  0.4897  0.8936
 6772TIP3    H241876   0.695   1.893   0.448 -0.1557  0.5709  0.9292
 6773TIP3   OH241877   6.254   2.852   0.367 -0.5473  0.2540 -0.4057
 6773TIP3    H141878   6.290   2.772   0.404  2.0200  0.8089 -1.4889
 6773TIP3    H241879   6.223   2.902   0.442  0.8109 -0.3800  0.6204
 6774TIP3   OH241880   4.468   2.934   0.303 -0.7323 -0.2381 -0.0057
 6774TIP3    H141881   4.517   2.860   0.267  0.3455  0.5878 -0.3019
 6774TIP3    H241882   4.387   2.937   0.252 -2.1107 -2.8472  1.7877
 6775TIP3   OH241883   1.620   0.542   0.817 -0.3170  0.0584  0.0592
 6775TIP3    H141884   1.632   0.467   0.760 -0.1153 -0.8425  1.2409
 6775TIP3    H241885   1.707   0.581   0.825 -0.2909  0.0178 -0.0273
 6776TIP3   OH241886   4.876   2.401   8.668 -0.2439 -0.6415 -0.3576
 6776TIP3    H141887   4.886   2.339   8.740 -0.7670  1.6236  1.8143
 6776TIP3    H241888   4.797   2.373   8.622  0.4702 -2.5111 -0.5185
 6777TIP3   OH241889   1.771   3.068   7.628 -0.1135  0.0166 -0.1316
 6777TIP3    H141890   1.866   3.073   7.626 -0.1105  0.1478 -1.8677
 6777TIP3    H241891   1.748   3.029   7.543 -1.5552 -1.0636  0.7202
 6778TIP3   OH241892   5.398   6.423   7.572 -0.1210  0.0926 -0.3787
 6778TIP3    H141893   5.448   6.501   7.546  0.1469  1.1079  2.7246
 6778TIP3    H241894   5.311   6.438   7.536  0.5966  0.5581 -1.9948
 6779TIP3   OH241895   5.150   2.560   2.089  0.5885 -0.0132 -0.0046
 6779TIP3    H141896   5.111   2.527   2.170 -2.0777  0.1726 -1.1201
 6779TIP3    H241897   5.207   2.488   2.060 -1.5454 -1.8172 -0.0157
 6780TIP3   OH241898   5.408   3.212   1.798  0.2295  0.3126 -0.1949
 6780TIP3    H141899   5.469   3.270   1.752 -1.0375  1.4649 -0.4875
 6780TIP3    H241900   5.456   3.182   1.875  0.5800  2.6450  0.5610
 6781TIP3   OH241901   6.153   0.899   6.827 -0.2290  0.2745 -0.4756
 6781TIP3    H141902   6.201   0.906   6.909  0.2317  0.1971 -0.7300
 6781TIP3    H241903   6.146   0.805   6.811  0.6141  0.3007 -1.0487
 6782TIP3   OH241904   3.486   0.416   7.105 -0.2071 -0.2319  0.4110
 6782TIP3    H141905   3.398   0.452   7.096 -1.1769 -1.8391  2.5595
 6782TIP3    H241906   3.479   0.326   7.074  1.5455  0.5000 -2.4629
 6783TIP3   OH241907   0.820   2.505   7.241  0.3742 -0.1953  0.2015
 6783TIP3    H141908   0.904   2.466   7.266  0.8273  0.8841  0.4497
 6783TIP3    H241909   0.780   2.441   7.183  1.1290 -0.9673  0.5079
 6784TIP3   OH241910   2.282   5.540   0.083 -0.7479 -0.1232 -0.1910
 6784TIP3    H141911   2.253   5.576   0.166  1.2711  0.1706  0.4566
 6784TIP3    H241912   2.361   5.490   0.104 -2.5640 -3.7981 -1.2915
 6785TIP3   OH241913   3.509   3.502   1.641 -0.1243 -0.6127 -0.0348
 6785TIP3    H141914   3.511   3.597   1.627 -1.2632 -0.7531 -1.3307
 6785TIP3    H241915   3.496   3.492   1.735 -1.2400  0.5427 -0.0489
 6786TIP3   OH241916   5.663   3.808   8.084  0.0107 -0.1487 -0.5944
 6786TIP3    H141917   5.615   3.740   8.038  1.4439 -0.5837 -1.5257
 6786TIP3    H241918   5.647   3.888   8.034  0.6338 -0.3958 -1.2133
 6787TIP3   OH241919   0.218   1.668   7.933  0.0290 -0.1086 -0.1910
 6787TIP3    H141920   0.150   1.714   7.884 -0.3152 -0.6534 -0.2348
 6787TIP3    H241921   0.170   1.620   8.001  0.3577 -0.5766 -0.2859
 6788TIP3   OH241922   2.753   5.528   1.032  0.6059  0.1456 -0.1343
 6788TIP3    H141923   2.767   5.465   0.961  0.5966 -0.1499  0.1206
 6788TIP3    H241924   2.798   5.607   1.003 -2.1462  1.1706 -1.9876
 6789TIP3   OH241925   4.392   0.459   0.876  0.1170  0.6933 -0.1499
 6789TIP3    H141926   4.487   0.447   0.880  0.1249  1.0388  1.0833
 6789TIP3    H241927   4.357   0.370   0.886  0.2841  0.8558  3.1755
 6790TIP3   OH241928   0.527   6.414   8.320  0.1420  0.1981 -0.1972
 6790TIP3    H141929   0.599   6.397   8.380 -0.9977  1.8269  1.7944
 6790TIP3    H241930   0.543   6.502   8.287  0.1298 -0.2292 -1.3846
 6791TIP3   OH241931   5.019   4.607   6.793 -0.4592  0.2364 -0.1947
 6791TIP3    H141932   5.028   4.614   6.888 -0.5037 -1.8457  0.0035
 6791TIP3    H241933   5.109   4.610   6.761 -0.3729 -0.0937  0.0106
 6792TIP3   OH241934   1.518   1.008   2.886 -0.3679 -0.6030  0.0382
 6792TIP3    H141935   1.452   0.981   2.822 -1.4683  1.5099  0.1901
 6792TIP3    H241936   1.551   0.926   2.923 -2.7380 -1.7425 -0.2176
 6793TIP3   OH241937   6.380   5.746   7.490  0.1907 -0.0344  0.0970
 6793TIP3    H141938   6.405   5.653   7.488  0.2609 -0.0068 -0.5322
 6793TIP3    H241939   6.290   5.747   7.457  0.3063  0.1577 -0.2099
 6794TIP3   OH241940   4.729   2.236   7.967  0.0270 -0.3134 -0.6224
 6794TIP3    H141941   4.669   2.277   8.029  1.3002 -2.3500  2.2173
 6794TIP3    H241942   4.695   2.147   7.955  1.7572 -1.1452  0.1747
 6795TIP3   OH241943   6.165   3.747   1.287  0.2878 -0.0061  0.0108
 6795TIP3    H141944   6.196   3.686   1.353  0.0081  0.4535  0.5709
 6795TIP3    H241945   6.216   3.827   1.301 -0.8993  0.6602  0.7569
 6796TIP3   OH241946   6.238   2.570   2.520 -0.4771 -0.7035  0.1990
 6796TIP3    H141947   6.158   2.592   2.472 -0.4665 -1.1834 -0.0503
 6796TIP3    H241948   6.253   2.645   2.578 -0.7780 -0.3443 -0.1768
 6797TIP3   OH241949   2.119   5.930   7.778  0.7091  0.1937  0.6080
 6797TIP3    H141950   2.103   5.901   7.689 -2.9747  0.7540  0.9468
 6797TIP3    H241951   2.079   5.863   7.833  0.4627  1.2247  1.7327
 6798TIP3   OH241952   5.677   0.005   0.527  0.4291  0.2109 -0.2056
 6798TIP3    H141953   5.584   0.005   0.507  0.1999  1.9272  0.6909
 6798TIP3    H241954   5.720   0.025   0.444  0.0114 -0.4684 -0.5949
 6799TIP3   OH241955   2.094   1.083   1.520  0.1033  0.1920 -0.2890
 6799TIP3    H141956   2.094   1.131   1.437  0.7647 -1.8233 -1.5185
 6799TIP3    H241957   2.185   1.085   1.549  0.1087 -0.1721 -0.2765
 6800TIP3   OH241958   5.715   1.021   1.671  0.6770  0.1929 -0.4131
 6800TIP3    H141959   5.767   0.969   1.732  0.1104 -0.5631 -0.5666
 6800TIP3    H241960   5.736   1.112   1.693  0.4463 -0.0632  0.9381
 6801TIP3   OH241961   2.737   3.588   1.766  0.1814 -0.2106  0.3869
 6801TIP3    H141962   2.802   3.612   1.832  0.5134 -0.1309  0.0319
 6801TIP3    H241963   2.786   3.583   1.684 -0.2459 -0.2104  0.1270
 6802TIP3   OH241964   5.923   3.480   7.722 -0.2168  0.0602 -0.9061
 6802TIP3    H141965   6.003   3.460   7.771 -0.6176  1.3902  0.3694
 6802TIP3    H241966   5.942   3.563   7.678 -1.1563  0.8066  0.0622
 6803TIP3   OH241967   2.351   0.744   0.345  0.8284  0.2458  0.0497
 6803TIP3    H141968   2.337   0.836   0.366  0.1537  0.5380 -1.5044
 6803TIP3    H241969   2.264   0.709   0.328  1.1708 -0.3913 -0.4413
 6804TIP3   OH241970   5.032   2.017   7.771  0.2352  0.5303  0.5686
 6804TIP3    H141971   5.050   2.007   7.864 -1.2326 -2.2667  0.6722
 6804TIP3    H241972   5.025   1.927   7.738  0.2679  1.4359 -2.1610
 6805TIP3   OH241973   3.699   4.093   0.686 -0.1427  0.3210  0.0879
 6805TIP3    H141974   3.766   4.131   0.629  0.2006  2.1369  1.6110
 6805TIP3    H241975   3.623   4.151   0.676 -0.2727  0.3271  1.0179
 6806TIP3   OH241976   6.574   5.991   7.420  0.2608  0.1992 -0.2670
 6806TIP3    H141977   6.522   5.941   7.483  0.7316  1.2467  1.0085
 6806TIP3    H241978   6.615   5.924   7.365 -2.3652 -0.6672 -1.3330
 6807TIP3   OH241979   5.028   6.189   2.596  0.0272  0.4131 -0.0879
 6807TIP3    H141980   5.034   6.250   2.669 -0.0056  0.1491  0.1403
 6807TIP3    H241981   5.092   6.121   2.616  3.1218  2.3876 -2.3475
 6808TIP3   OH241982   4.611   5.491   0.653  0.0461  0.4220  0.0711
 6808TIP3    H141983   4.549   5.506   0.581 -2.0267  0.5548  1.7616
 6808TIP3    H241984   4.697   5.502   0.613 -0.9825  0.1385 -2.4433
 6809TIP3   OH241985   6.171   6.520   1.684 -0.3644 -0.2458 -0.7854
 6809TIP3    H141986   6.166   6.497   1.591  1.4055  3.1061 -1.8752
 6809TIP3    H241987   6.085   6.558   1.704  0.0650  1.4375 -1.8990
 6810TIP3   OH241988   6.338   4.487   0.335 -0.3828 -0.1526 -0.7103
 6810TIP3    H141989   6.322   4.491   0.429  0.8007  0.7805 -0.5340
 6810TIP3    H241990   6.271   4.426   0.302 -1.2316  0.0265  0.6231
 6811TIP3   OH241991   4.923   5.621   2.856  0.3763 -0.0440  0.1589
 6811TIP3    H141992   4.905   5.706   2.817  0.9516 -0.3158 -0.7353
 6811TIP3    H241993   5.018   5.611   2.850  0.2743 -0.9297 -0.1677
 6812TIP3   OH241994   1.661   1.894   8.846 -0.7807 -0.0464  0.4692
 6812TIP3    H141995   1.584   1.868   8.796 -0.6562 -1.2912  0.8962
 6812TIP3    H241996   1.669   1.828   8.914  0.4854  0.2401  0.6229
 6813TIP3   OH241997   0.888   0.873   1.085  0.0643  0.1879 -0.2113
 6813TIP3    H141998   0.932   0.811   1.144 -1.4145 -2.5897 -1.8578
 6813TIP3    H241999   0.945   0.876   1.008  0.0473  0.7949 -0.2028
 6814TIP3   OH242000   4.154   0.185   1.440  0.4620 -0.5319  0.0965
 6814TIP3    H142001   4.225   0.160   1.380 -2.2518 -0.8476 -3.3286
 6814TIP3    H242002   4.146   0.280   1.428 -0.0135 -0.5774  0.0317
 6815TIP3   OH242003   1.723   5.995   1.441 -0.2020 -0.0771  0.3171
 6815TIP3    H142004   1.768   5.920   1.479  0.6241  0.0132 -0.4525
 6815TIP3    H242005   1.737   5.987   1.347  0.8614  1.6345  0.2843
 6816TIP3   OH242006   5.457   5.202   2.500  0.3427 -0.5914 -0.2490
 6816TIP3    H142007   5.396   5.249   2.443  0.3450 -0.4805 -0.1626
 6816TIP3    H242008   5.522   5.165   2.441 -0.2910 -1.4443 -0.4167
 6817TIP3   OH242009   3.609   4.555   8.901 -0.2772  0.7070  0.7453
 6817TIP3    H142010   3.691   4.562   8.948  1.1018 -2.0881 -0.9855
 6817TIP3    H242011   3.549   4.512   8.962  1.6650 -3.4796 -0.0090
 6818TIP3   OH242012   1.795   1.995   0.349 -0.4359 -0.0689 -0.1525
 6818TIP3    H142013   1.750   2.078   0.368  1.2128  0.8051  0.1254
 6818TIP3    H242014   1.732   1.928   0.374 -1.5971  1.0953  0.1842
 6819TIP3   OH242015   1.703   1.642   8.570  0.0213 -0.1598 -0.1798
 6819TIP3    H142016   1.777   1.609   8.620 -0.7719 -0.9204  0.5467
 6819TIP3    H242017   1.722   1.618   8.480  0.3695 -0.9110  0.0828
 6820TIP3   OH242018   3.294   4.201   1.016 -0.5435  0.2468  0.1022
 6820TIP3    H142019   3.297   4.127   0.956 -0.2917 -1.0624  1.6634
 6820TIP3    H242020   3.200   4.221   1.023 -0.6100  0.1405 -0.3878
 6821TIP3   OH242021   1.070   6.326   1.486  0.4314 -0.1966  0.2014
 6821TIP3    H142022   1.144   6.276   1.450  0.9095  0.5767  0.0980
 6821TIP3    H242023   1.044   6.276   1.563  0.7014 -0.7782 -0.0701
 6822TIP3   OH242024   6.430   6.040   2.200  0.4871  0.5059 -0.2545
 6822TIP3    H142025   6.522   6.067   2.202  0.8618 -0.6310 -0.9741
 6822TIP3    H242026   6.382   6.114   2.239  1.6981  1.0982  0.1719
 6823TIP3   OH242027   2.083   4.194   8.490  0.2210 -0.2028  0.3035
 6823TIP3    H142028   2.045   4.262   8.435  2.6914  0.6926 -0.4082
 6823TIP3    H242029   2.116   4.240   8.567  1.0006 -0.7274  0.2991
 6824TIP3   OH242030   4.231   2.852   7.836 -0.0065 -0.0412 -0.4590
 6824TIP3    H142031   4.137   2.844   7.822 -0.0570 -0.7086  0.2243
 6824TIP3    H242032   4.248   2.946   7.832 -0.6756  0.0730 -0.7310
 6825TIP3   OH242033   2.678   6.012   7.956 -0.0637  0.0974  0.2965
 6825TIP3    H142034   2.632   6.030   8.038 -1.1937  1.6839 -0.6094
 6825TIP3    H242035   2.608   5.987   7.895  0.7391 -0.9448 -0.2328
 6826TIP3   OH242036   2.217   2.630   7.576 -0.3113 -0.3102  0.4216
 6826TIP3    H142037   2.165   2.595   7.649  0.2708  0.9380  1.4733
 6826TIP3    H242038   2.228   2.556   7.517 -2.0884 -0.9630  0.8515
 6827TIP3   OH242039   2.327   5.704   0.992  0.1535 -0.1296  0.0681
 6827TIP3    H142040   2.258   5.666   0.938  0.3578 -1.5699  0.7869
 6827TIP3    H242041   2.368   5.769   0.935 -1.0465 -0.0612 -0.7553
 6828TIP3   OH242042   1.213   1.960   0.010  0.1344  0.6505  0.3515
 6828TIP3    H142043   1.130   2.009   0.011 -1.8967 -2.4712 -0.5987
 6828TIP3    H242044   1.192   1.877   0.052  1.9661 -1.3544 -2.3331
 6829TIP3   OH242045   5.461   4.848   7.594  0.1663  0.0717 -0.1194
 6829TIP3    H142046   5.545   4.856   7.548  0.1249 -1.4132 -0.4747
 6829TIP3    H242047   5.469   4.909   7.668  1.4011  0.2403 -0.3704
 6830TIP3   OH242048   1.822   0.002   0.595  0.3919 -0.4023 -0.5055
 6830TIP3    H142049   1.832   0.014   0.690 -0.1789 -1.3773 -0.3176
 6830TIP3    H242050   1.794  -0.088   0.585  0.4021 -0.2894 -1.6122
 6831TIP3   OH242051   4.972   0.077   8.506  0.0671  0.2640 -0.3346
 6831TIP3    H142052   4.882   0.047   8.493  0.2828 -0.8608  0.5944
 6831TIP3    H242053   4.973   0.114   8.595  0.0367  2.2546 -1.1121
 6832TIP3   OH242054   2.353   3.487   8.188  0.1168  0.5557 -0.1719
 6832TIP3    H142055   2.258   3.479   8.203  0.5493 -0.0574  2.8814
 6832TIP3    H242056   2.361   3.551   8.117 -2.6300 -1.6431 -2.7215
 6833TIP3   OH242057   1.038   5.263   0.362 -0.1540 -0.1659 -0.2238
 6833TIP3    H142058   0.949   5.233   0.382 -0.2460 -0.0820 -0.5037
 6833TIP3    H242059   1.079   5.274   0.447 -0.1294 -1.0551 -0.1112
 6834TIP3   OH242060   0.753   1.449   8.552  0.3763 -0.0646  0.1563
 6834TIP3    H142061   0.712   1.512   8.610  0.0164  0.2941 -0.4733
 6834TIP3    H242062   0.709   1.366   8.571  0.9702 -0.1754  1.1057
 6835TIP3   OH242063   6.060   5.090   2.660 -0.6126  0.1869 -0.1090
 6835TIP3    H142064   6.000   5.155   2.698 -0.0311  0.9719 -0.5047
 6835TIP3    H242065   6.140   5.098   2.711 -0.2814  0.3190 -0.6320
 6836TIP3   OH242066   2.999   4.972   0.607 -0.5768 -0.2167 -0.1694
 6836TIP3    H142067   3.059   5.021   0.663 -1.0237 -0.3614  0.4428
 6836TIP3    H242068   2.966   5.037   0.545  0.0332 -0.0866 -0.3646
 6837TIP3   OH242069   2.063   2.982   0.474  0.6265  0.2026 -0.4184
 6837TIP3    H142070   1.987   2.956   0.525 -0.8552  2.2708 -1.4128
 6837TIP3    H242071   2.046   2.947   0.386  1.4013 -0.3147 -0.3673
 6838TIP3   OH242072   4.986   4.074   0.990  0.0091  0.1318 -0.6012
 6838TIP3    H142073   4.916   4.076   1.056  1.3536 -1.4471  0.9659
 6838TIP3    H242074   4.986   4.162   0.953 -1.8867  0.5852  0.3221
 6839TIP3   OH242075   2.253   4.818   7.126 -0.3832  0.1208 -0.2730
 6839TIP3    H142076   2.315   4.750   7.101  0.0833  0.4451 -0.0301
 6839TIP3    H242077   2.191   4.774   7.184 -0.4651 -0.2380 -0.6275
 6840TIP3   OH242078   1.725   5.968   0.980  0.0686  0.3982  0.3453
 6840TIP3    H142079   1.813   5.947   1.011  0.1137 -1.1070 -0.7536
 6840TIP3    H242080   1.734   6.054   0.938 -0.2163  3.2345  5.2738
 6841TIP3   OH242081   4.318   0.525   8.052  0.2607  0.3820 -0.1275
 6841TIP3    H142082   4.386   0.464   8.081  0.2046  0.5004  0.2549
 6841TIP3    H242083   4.366   0.596   8.010  0.4350  0.9204  0.9640
 6842TIP3   OH242084   5.274   2.807   1.237  0.7531 -0.2050 -0.0661
 6842TIP3    H142085   5.322   2.846   1.164  1.1271  1.5308  1.0482
 6842TIP3    H242086   5.321   2.838   1.315 -1.2704  0.3152  0.9979
 6843TIP3   OH242087   1.153   2.856   1.326  0.1434 -0.4680 -0.6168
 6843TIP3    H142088   1.125   2.850   1.235 -1.8256 -2.0629  0.0216
 6843TIP3    H242089   1.134   2.946   1.351 -0.4315 -0.3496 -1.4481
 6844TIP3   OH242090   4.143   1.336   8.158  0.2122 -0.2339  0.4719
 6844TIP3    H142091   4.129   1.418   8.110  0.7275  0.1173  0.9127
 6844TIP3    H242092   4.063   1.285   8.143  0.4407 -0.2167 -0.9329
 6845TIP3   OH242093   3.665   3.361   6.897 -0.1154  0.4748  0.2285
 6845TIP3    H142094   3.682   3.324   6.810 -1.3701  0.1326  0.1118
 6845TIP3    H242095   3.672   3.455   6.885 -1.8685  0.5363 -0.6444
 6846TIP3   OH242096   4.759   4.782   0.083 -0.6856 -0.0987 -0.1766
 6846TIP3    H142097   4.723   4.719   0.146  0.8485  1.6731  2.7257
 6846TIP3    H242098   4.828   4.826   0.132  0.5996  1.4770 -3.1994
 6847TIP3   OH242099   1.342   6.554   6.665 -0.2585 -0.2799  0.6104
 6847TIP3    H142100   1.318   6.490   6.732 -0.1795  0.3554  1.2687
 6847TIP3    H242101   1.275   6.622   6.672  1.4608  1.3664  2.2610
 6848TIP3   OH242102   0.657   2.408   8.402  0.0966 -0.2891  0.4193
 6848TIP3    H142103   0.587   2.346   8.423  1.6762 -2.9645 -1.6334
 6848TIP3    H242104   0.636   2.438   8.313 -0.7269  2.4287  1.4205
 6849TIP3   OH242105   3.699   5.035   1.482  0.4249  0.1707  0.6151
 6849TIP3    H142106   3.746   5.023   1.399  1.3669  1.5449  0.9183
 6849TIP3    H242107   3.683   5.129   1.488 -0.8393 -0.0711  1.3637
 6850TIP3   OH242108   1.840   1.943   1.600 -0.0753 -0.3627 -0.3710
 6850TIP3    H142109   1.772   1.893   1.554 -1.4281  0.4121  0.7020
 6850TIP3    H242110   1.903   1.966   1.531 -0.4262 -1.8550 -1.2321
 6851TIP3   OH242111   3.386   5.085   7.928  0.2695 -0.0075  0.3848
 6851TIP3    H142112   3.438   5.010   7.956 -0.8247 -0.2509  1.9015
 6851TIP3    H242113   3.338   5.054   7.852  1.3823 -0.1536 -0.2909
 6852TIP3   OH242114   3.977   6.195   1.472  0.0389 -0.2258  0.7484
 6852TIP3    H142115   4.069   6.168   1.472  0.3584  0.8241  0.4361
 6852TIP3    H242116   3.932   6.124   1.425  0.7443 -0.5636  0.5610
 6853TIP3   OH242117   2.681   4.454   2.550 -0.2312 -0.5266  0.4067
 6853TIP3    H142118   2.603   4.486   2.596  0.1604  1.2294 -0.0765
 6853TIP3    H242119   2.661   4.468   2.457  1.5399  2.3578  0.3251
 6854TIP3   OH242120   2.495   2.025   0.897  0.2624 -0.0277  0.2298
 6854TIP3    H142121   2.491   1.956   0.830 -1.1503 -0.2379  0.5101
 6854TIP3    H242122   2.589   2.041   0.908  0.5781 -1.1149 -0.6486
 6855TIP3   OH242123   2.600   1.063   7.819  0.2470 -0.4431 -0.1476
 6855TIP3    H142124   2.572   1.063   7.911 -0.5178  0.7081 -0.3527
 6855TIP3    H242125   2.628   1.152   7.803 -1.5981 -0.0684 -1.5791
 6856TIP3   OH242126   2.368   4.860   1.607  0.4964 -0.0250 -0.1364
 6856TIP3    H142127   2.352   4.954   1.600 -0.5685 -0.2174 -0.5391
 6856TIP3    H242128   2.417   4.837   1.529 -1.1336 -0.1478 -1.1800
 6857TIP3   OH242129   0.526   5.051   1.103 -0.2508 -0.4382  0.0961
 6857TIP3    H142130   0.575   5.122   1.062 -0.0974 -0.0107  0.9955
 6857TIP3    H242131   0.573   5.033   1.184 -0.6531 -1.1378  0.1828
 6858TIP3   OH242132   0.721   2.717   1.378  0.0472  0.0955 -0.9500
 6858TIP3    H142133   0.782   2.688   1.446 -0.5776  0.9184 -0.0332
 6858TIP3    H242134   0.650   2.653   1.381  0.9796 -1.0616 -2.2465
 6859TIP3   OH242135   0.001   4.866   1.746  1.0484 -0.0191 -0.0534
 6859TIP3    H142136   0.031   4.907   1.665  0.9447  0.6265  0.2298
 6859TIP3    H242137  -0.057   4.931   1.786  0.4272 -0.6680  0.1241
 6860TIP3   OH242138   6.287   1.470   1.911  0.3788  0.2657  0.4856
 6860TIP3    H142139   6.268   1.514   1.828  1.1873  0.5065  0.4207
 6860TIP3    H242140   6.369   1.424   1.895  0.4079  0.1094  1.0768
 6861TIP3   OH242141   5.639   2.862   2.232 -0.2884 -0.2462 -0.3368
 6861TIP3    H142142   5.625   2.860   2.327 -1.3182 -1.2827 -0.4882
 6861TIP3    H242143   5.708   2.927   2.219 -0.3664  0.1486  1.0912
 6862TIP3   OH242144   1.179   4.973   8.565  0.2695 -0.3831 -0.2520
 6862TIP3    H142145   1.122   4.982   8.641  0.2701  0.3701 -0.3347
 6862TIP3    H242146   1.120   4.947   8.494  0.0195  0.3797 -0.3327
 6863TIP3   OH242147   5.529   2.457   8.267  0.5508  0.2755  0.2530
 6863TIP3    H142148   5.470   2.440   8.341  0.5170  2.3131  0.7514
 6863TIP3    H242149   5.479   2.429   8.190 -0.0670 -0.3496  0.8642
 6864TIP3   OH242150   1.153   2.255   0.239  0.4718 -0.0198  0.3198
 6864TIP3    H142151   1.245   2.238   0.220  0.5574  0.0696  0.6583
 6864TIP3    H242152   1.143   2.350   0.232  0.4177 -0.0233  0.3420
 6865TIP3   OH242153   4.084   2.819   2.800  0.8469 -0.3047 -0.2422
 6865TIP3    H142154   4.179   2.820   2.787  1.1784 -0.1188  1.7724
 6865TIP3    H242155   4.067   2.897   2.854 -0.4884 -0.2290 -0.7386
 6866TIP3   OH242156   0.855   1.403   1.411 -0.7532  0.7031  0.3628
 6866TIP3    H142157   0.771   1.450   1.412 -0.6194  1.0548  3.2673
 6866TIP3    H242158   0.842   1.329   1.470  0.3567 -0.4736 -0.8236
 6867TIP3   OH242159   2.210   6.339   1.830 -0.0011 -0.3962  0.3407
 6867TIP3    H142160   2.261   6.352   1.750 -0.0023  0.0227  0.4017
 6867TIP3    H242161   2.187   6.428   1.857 -2.6275 -0.6163 -0.8777
 6868TIP3   OH242162   0.492   1.901   0.857 -0.2257 -0.0530 -0.1206
 6868TIP3    H142163   0.555   1.875   0.924  0.2666 -1.6100 -1.1322
 6868TIP3    H242164   0.419   1.939   0.906  1.8065  2.6686  1.0460
 6869TIP3   OH242165   2.529   6.289   2.257  0.7102 -0.3329  0.1088
 6869TIP3    H142166   2.434   6.289   2.243  0.6732  1.7961  0.0772
 6869TIP3    H242167   2.541   6.327   2.344  1.5139 -2.1343  0.8554
 6870TIP3   OH242168   5.871   5.631   0.338  0.1507  0.2778 -0.4286
 6870TIP3    H142169   5.857   5.726   0.342  0.3763  0.2894  2.8776
 6870TIP3    H242170   5.942   5.614   0.400 -1.1080 -2.2223  0.4670
 6871TIP3   OH242171   2.494   2.744   0.797  0.6627  0.0787 -0.5401
 6871TIP3    H142172   2.485   2.832   0.835  1.6254 -0.0969  0.0973
 6871TIP3    H242173   2.524   2.689   0.869  0.4861 -0.6974 -1.0470
 6872TIP3   OH242174   4.307   5.727   1.157 -0.0702  0.3088 -0.3472
 6872TIP3    H142175   4.294   5.633   1.168 -0.5386  0.4174  0.0408
 6872TIP3    H242176   4.281   5.744   1.066  0.7875 -0.0658 -0.6690
 6873TIP3   OH242177   3.621   4.599   2.597  0.4184 -0.0674  0.7037
 6873TIP3    H142178   3.601   4.592   2.690 -1.2266  0.2538  0.4128
 6873TIP3    H242179   3.623   4.693   2.580  1.1350 -0.1178  0.4853
 6874TIP3   OH242180   4.889   5.199   7.765 -0.1161  0.5444 -0.7070
 6874TIP3    H142181   4.896   5.139   7.839  1.6575  2.3210  0.6700
 6874TIP3    H242182   4.902   5.144   7.688  0.0496 -1.0363  0.4013
 6875TIP3   OH242183   2.591   3.567   7.365 -0.2152 -0.1846 -0.4600
 6875TIP3    H142184   2.598   3.518   7.447 -0.0623  0.2992 -0.1858
 6875TIP3    H242185   2.669   3.542   7.316  0.7025  1.0117  0.3451
 6876TIP3   OH242186   2.643   6.705   1.018 -0.0322  0.1488 -0.2970
 6876TIP3    H142187   2.616   6.775   1.079 -0.5913  1.2588 -1.7670
 6876TIP3    H242188   2.737   6.697   1.033 -0.3121 -0.3718  1.4634
 6877TIP3   OH242189   2.800   1.984   0.852  0.1144 -0.4227  0.2116
 6877TIP3    H142190   2.847   1.952   0.776  0.6868 -0.3898  0.5481
 6877TIP3    H242191   2.792   1.907   0.909  0.4714 -0.2413  0.5090
 6878TIP3   OH242192   3.931   3.663   2.002  0.5142  0.7202  0.0017
 6878TIP3    H142193   3.967   3.707   2.079  0.5341 -2.3285  1.8877
 6878TIP3    H242194   4.001   3.605   1.973 -0.9902 -1.4510  0.5091
 6879TIP3   OH242195   4.681   0.970   0.452 -0.2208 -0.5064 -0.7426
 6879TIP3    H142196   4.650   1.035   0.389 -0.7119  0.4810  0.4864
 6879TIP3    H242197   4.608   0.908   0.459 -2.2012  1.8560  2.2091
 6880TIP3   OH242198   0.031   3.446   0.204 -0.3443  0.4048 -0.2228
 6880TIP3    H142199  -0.047   3.500   0.192 -0.5668  0.5554  1.6700
 6880TIP3    H242200  -0.002   3.366   0.245  0.1581 -0.6962 -1.8636
 6881TIP3   OH242201   4.829   4.666   2.226 -0.7552  0.3958  0.4093
 6881TIP3    H142202   4.763   4.636   2.163 -0.6384  1.1823 -0.1003
 6881TIP3    H242203   4.835   4.595   2.290  1.4463 -1.9685 -2.1419
 6882TIP3   OH242204   2.232   3.386   1.390  0.0511 -0.3021  0.2159
 6882TIP3    H142205   2.247   3.478   1.413 -0.5408 -0.2359  0.3773
 6882TIP3    H242206   2.296   3.367   1.323  0.4435  0.1167  0.4659
 6883TIP3   OH242207   0.449   4.103   2.365  0.3706 -0.2905  0.2144
 6883TIP3    H142208   0.398   4.036   2.319 -0.4350 -0.3840  1.2236
 6883TIP3    H242209   0.479   4.060   2.445 -0.0157  0.5098  0.7991
 6884TIP3   OH242210   5.564   4.348   7.888  0.1163 -0.5270  0.1783
 6884TIP3    H142211   5.552   4.304   7.804  0.9528 -0.3509 -0.0452
 6884TIP3    H242212   5.542   4.440   7.871  0.5187 -0.4458  0.0882
 6885TIP3   OH242213   1.981   5.911   1.063  0.2975 -0.0241 -0.3607
 6885TIP3    H142214   2.038   5.935   1.137  0.5603 -0.7732 -0.3075
 6885TIP3    H242215   2.038   5.916   0.986  0.0569  0.6306 -0.5015
 6886TIP3   OH242216   1.469   3.190   8.425 -0.7304 -0.1559  0.4478
 6886TIP3    H142217   1.397   3.245   8.455 -0.5339  0.7890 -0.7411
 6886TIP3    H242218   1.504   3.236   8.349  0.1608 -1.3756  0.0938
 6887TIP3   OH242219   6.301   0.087   7.834  0.4002  0.1741 -0.3459
 6887TIP3    H142220   6.370   0.068   7.898  0.4599  0.4610 -0.3229
 6887TIP3    H242221   6.235   0.134   7.885  0.6356  0.7724 -0.5815
 6888TIP3   OH242222   3.903   6.456   1.472 -0.3371  0.6149 -1.1078
 6888TIP3    H142223   3.846   6.444   1.396 -0.6588  0.0452 -0.7833
 6888TIP3    H242224   3.941   6.369   1.488 -0.7478  0.5825 -0.2449
 6889TIP3   OH242225   0.190   2.736   7.746 -0.1879 -0.4268  0.0086
 6889TIP3    H142226   0.131   2.799   7.787  0.7286  0.8502 -0.5509
 6889TIP3    H242227   0.262   2.728   7.808  0.0527 -0.3431 -0.2590
 6890TIP3   OH242228   5.647   5.374   6.924 -0.3145  0.1310  0.3706
 6890TIP3    H142229   5.613   5.285   6.925  1.2268 -0.5156  2.4975
 6890TIP3    H242230   5.577   5.426   6.883 -2.2319 -1.6646  1.1920
 6891TIP3   OH242231   6.133   2.956   8.898  0.4957  0.4669 -0.1246
 6891TIP3    H142232   6.154   3.017   8.970 -0.4366  0.6190  0.0291
 6891TIP3    H242233   6.149   3.007   8.819  0.0223  0.8117 -0.0002
 6892TIP3   OH242234   6.347   6.740   1.761  0.1226  0.6969  0.1377
 6892TIP3    H142235   6.309   6.772   1.842  1.3678 -0.1620  1.0920
 6892TIP3    H242236   6.295   6.662   1.739 -1.1093  1.7074 -0.6833
 6893TIP3   OH242237   3.751   2.979   0.894 -0.2137  0.6078 -0.3893
 6893TIP3    H142238   3.812   2.976   0.967  0.5972 -1.4359 -1.0942
 6893TIP3    H242239   3.666   2.999   0.934  0.3203  0.1198  1.0334
 6894TIP3   OH242240   4.601   1.426   7.294  0.5289 -0.8832 -0.1588
 6894TIP3    H142241   4.545   1.406   7.369 -0.1364  1.1596 -0.0621
 6894TIP3    H242242   4.556   1.385   7.220 -1.8935  1.6624 -0.2906
 6895TIP3   OH242243   5.593   5.803   0.925  0.3922  0.0125 -0.1222
 6895TIP3    H142244   5.678   5.785   0.886  0.3694  2.8111 -1.7562
 6895TIP3    H242245   5.536   5.731   0.897  2.2169 -2.1243  1.3399
 6896TIP3   OH242246   3.384   2.802   7.615  0.4480 -0.1742  0.7311
 6896TIP3    H142247   3.426   2.799   7.530 -0.4729 -1.0416  0.2771
 6896TIP3    H242248   3.347   2.890   7.622  2.6930  0.7799  1.3544
 6897TIP3   OH242249   0.708   0.141   0.195 -0.0778  0.4842  0.1642
 6897TIP3    H142250   0.697   0.050   0.225 -2.7977  0.3400 -0.9587
 6897TIP3    H242251   0.622   0.181   0.208  0.0139  1.8411 -2.5882
 6898TIP3   OH242252   5.450   6.488   2.257 -0.5271 -0.1020  0.8672
 6898TIP3    H142253   5.412   6.503   2.344 -0.4327  1.0592  0.7344
 6898TIP3    H242254   5.377   6.453   2.206 -0.5651 -0.8634  1.4241
 6899TIP3   OH242255   3.333   0.019   1.657  0.3614  0.1954  0.7658
 6899TIP3    H142256   3.349  -0.069   1.690  0.6269  0.4602  1.3566
 6899TIP3    H242257   3.404   0.035   1.595 -0.4441 -0.5088 -0.3708
 6900TIP3   OH242258   0.403   1.740   8.943 -0.3852 -0.4604 -0.2780
 6900TIP3    H142259   0.491   1.704   8.944 -1.1848 -2.5832 -1.1197
 6900TIP3    H242260   0.405   1.806   8.874  1.5567  2.5962  2.4167
 6901TIP3   OH242261   6.433   5.362   2.589 -0.1051  0.0461  0.0222
 6901TIP3    H142262   6.513   5.367   2.641 -0.0192  2.0265 -0.2165
 6901TIP3    H242263   6.446   5.425   2.518 -0.8536 -1.4686 -1.5320
 6902TIP3   OH242264   5.416   3.159   7.477 -0.0766  0.5617  0.7713
 6902TIP3    H142265   5.380   3.096   7.414  1.9957 -0.1892  0.2368
 6902TIP3    H242266   5.418   3.242   7.429 -0.5822  0.5037  0.6398
 6903TIP3   OH242267   4.621   2.739   0.742 -0.2669 -0.1636  0.0297
 6903TIP3    H142268   4.665   2.801   0.800  0.2840 -0.2706 -0.2566
 6903TIP3    H242269   4.586   2.792   0.671 -2.5548  0.2051  1.3583
 6904TIP3   OH242270   0.866   3.362   0.954 -0.2475 -0.0817 -0.3999
 6904TIP3    H142271   0.911   3.289   0.997 -0.4387  0.1975  0.2876
 6904TIP3    H242272   0.774   3.352   0.979 -0.2450  0.5047 -0.1373
 6905TIP3   OH242273   2.677   6.251   7.083 -0.0697  0.6226 -0.7289
 6905TIP3    H142274   2.709   6.168   7.048  0.9386  0.4945  0.4560
 6905TIP3    H242275   2.737   6.272   7.154 -3.7120 -0.7046  3.1451
 6906TIP3   OH242276   4.849   3.143   7.260  0.2105 -0.3461 -0.0493
 6906TIP3    H142277   4.795   3.203   7.208  0.3963 -0.4019 -0.3058
 6906TIP3    H242278   4.916   3.199   7.299  0.3315 -0.3713 -0.2188
 6907TIP3   OH242279   6.707   1.255   1.581 -0.1049  0.7570  0.6882
 6907TIP3    H142280   6.636   1.251   1.646 -0.1679  1.5893  0.6884
 6907TIP3    H242281   6.787   1.250   1.633 -0.1594  0.2971  0.7299
 6908TIP3   OH242282   1.615   1.279   8.891  0.4297 -0.0633  0.3652
 6908TIP3    H142283   1.623   1.374   8.895 -0.2581  0.0006  0.3166
 6908TIP3    H242284   1.572   1.255   8.973 -0.2146 -0.2369 -0.0145
 6909TIP3   OH242285   3.473   5.373   1.822  0.3856  0.0747 -0.1440
 6909TIP3    H142286   3.504   5.283   1.834  0.6587  0.3202  1.1300
 6909TIP3    H242287   3.428   5.394   1.904  1.8123  1.6601  0.3006
 6910TIP3   OH242288   6.318   6.320   8.235 -0.0832  0.3373  0.9437
 6910TIP3    H142289   6.280   6.286   8.315 -1.0706 -1.3000 -0.1580
 6910TIP3    H242290   6.244   6.357   8.186 -0.3029 -2.2183 -0.8896
 6911TIP3   OH242291   0.287   0.123   8.130  0.9110  0.1696  0.4877
 6911TIP3    H142292   0.236   0.146   8.208 -0.2048  0.6855 -0.3641
 6911TIP3    H242293   0.297   0.206   8.083  0.8976 -0.2724 -0.3041
 6912TIP3   OH242294   1.757   4.087   8.286  0.2120  0.6431 -0.6327
 6912TIP3    H142295   1.672   4.054   8.315  1.0045  0.4905  1.8180
 6912TIP3    H242296   1.751   4.182   8.297  1.0592  0.4740  1.9474
 6913TIP3   OH242297   0.848   4.260   0.024  0.1611 -0.0005  0.0864
 6913TIP3    H142298   0.878   4.287   0.111  0.4004 -0.3934  0.1267
 6913TIP3    H242299   0.899   4.314  -0.037  1.3947 -1.0394  0.1310
 6914TIP3   OH242300   0.016   3.108   1.507 -0.0945  0.1854 -0.2891
 6914TIP3    H142301  -0.010   3.018   1.527  0.1248 -0.3626 -2.2492
 6914TIP3    H242302   0.110   3.103   1.490 -0.3508  0.4541 -1.9477
 6915TIP3   OH242303   4.387   1.058   2.435  0.1107  0.8794 -0.2682
 6915TIP3    H142304   4.417   1.125   2.497  0.3588  0.6244 -0.1103
 6915TIP3    H242305   4.309   1.097   2.395 -0.9489  0.4614  1.2858
 6916TIP3   OH242306   4.410   5.246   0.512  0.2250  0.0781 -0.3611
 6916TIP3    H142307   4.501   5.222   0.528  0.4684  0.2103 -1.4980
 6916TIP3    H242308   4.404   5.257   0.418 -0.1464  3.3977 -0.0442
 6917TIP3   OH242309   1.210   3.092   7.949  0.6008 -0.2774  0.3791
 6917TIP3    H142310   1.253   3.048   8.022  0.0867 -1.2860  0.0851
 6917TIP3    H242311   1.180   3.022   7.892 -1.3528  0.3768  0.5196
 6918TIP3   OH242312   1.996   5.654   7.598  0.5876  0.3911  0.3039
 6918TIP3    H142313   1.986   5.627   7.507  1.2499  1.4307 -0.1045
 6918TIP3    H242314   2.038   5.740   7.593  2.3522 -0.3119  1.6301
 6919TIP3   OH242315   1.695   6.604   8.232 -0.0070 -0.5236  0.3588
 6919TIP3    H142316   1.628   6.666   8.259  0.7598  0.0342  1.0619
 6919TIP3    H242317   1.672   6.522   8.276 -0.8707 -0.6731 -0.3540
 6920TIP3   OH242318   5.021   0.802   1.239 -0.3520  0.0375 -0.4549
 6920TIP3    H142319   5.033   0.806   1.144  0.3363 -1.0043 -0.4169
 6920TIP3    H242320   5.054   0.886   1.270  0.0536  0.1148 -1.0698
 6921TIP3   OH242321   4.154   3.856   1.811 -0.1933  0.0470  0.5668
 6921TIP3    H142322   4.068   3.815   1.803  0.3024 -1.0339  0.5158
 6921TIP3    H242323   4.144   3.917   1.884 -0.5785 -1.2853  1.6870
 6922TIP3   OH242324   3.070   3.323   0.503  0.5840  0.0737 -0.1327
 6922TIP3    H142325   3.034   3.327   0.592  0.4183 -1.9211 -0.0593
 6922TIP3    H242326   3.165   3.323   0.516  0.5631  0.1997  0.0213
 6923TIP3   OH242327   1.098   1.037   2.490 -0.1080 -0.0572  0.0326
 6923TIP3    H142328   1.080   0.968   2.554 -1.4226 -0.8550 -1.1304
 6923TIP3    H242329   1.193   1.040   2.485  0.0020 -2.0868 -0.1352
 6924TIP3   OH242330   4.642   2.376   8.517 -0.3647  0.0294 -0.2596
 6924TIP3    H142331   4.556   2.337   8.531 -0.4029  0.5848  1.2691
 6924TIP3    H242332   4.625   2.453   8.462 -1.2498  1.4341  1.8130
 6925TIP3   OH242333   1.359   1.749   0.354  0.3318 -0.0780 -0.2504
 6925TIP3    H142334   1.267   1.760   0.328  0.1426 -0.1703  0.3819
 6925TIP3    H242335   1.389   1.673   0.303 -0.5682 -1.4138  1.1388
 6926TIP3   OH242336   2.037   0.643   2.377 -0.5222 -0.2406 -0.3169
 6926TIP3    H142337   2.116   0.588   2.374 -0.3716 -0.1092  0.7775
 6926TIP3    H242338   1.965   0.584   2.356 -0.3385 -0.8325  0.6456
 6927TIP3   OH242339   6.365   2.455   0.572  0.2481 -0.2638 -0.3595
 6927TIP3    H142340   6.438   2.479   0.629  0.3044 -0.9028 -0.1584
 6927TIP3    H242341   6.399   2.384   0.518 -1.0410 -2.5848  1.6928
 6928TIP3   OH242342   6.291   3.905   8.010 -0.1184 -0.3350 -0.1767
 6928TIP3    H142343   6.256   3.882   8.096  0.1993 -0.9505 -0.2014
 6928TIP3    H242344   6.262   3.994   7.995  0.8294  0.2242  1.0986
 6929TIP3   OH242345   1.704   1.556   1.681 -0.2879  0.6050 -0.2120
 6929TIP3    H142346   1.771   1.623   1.676  0.4614 -0.1905 -1.3622
 6929TIP3    H242347   1.751   1.476   1.706 -0.9335  0.2218 -0.1890
 6930TIP3   OH242348   5.053   2.618   8.789  0.2405  0.5138 -0.3134
 6930TIP3    H142349   5.082   2.691   8.735 -0.4109  0.3970 -0.8284
 6930TIP3    H242350   4.980   2.579   8.741 -1.6027  1.5422  1.4897
 6931TIP3   OH242351   6.440   4.585   2.212  0.1604  0.1743 -0.2740
 6931TIP3    H142352   6.497   4.660   2.195  1.4679 -0.6030  0.5425
 6931TIP3    H242353   6.377   4.587   2.139  2.4579 -0.1081 -2.4272
 6932TIP3   OH242354   4.596   2.941   7.155 -0.6403  0.2862 -0.5163
 6932TIP3    H142355   4.550   2.962   7.074 -0.1861 -0.3870 -0.9505
 6932TIP3    H242356   4.660   2.874   7.131 -1.5069 -1.0373  0.6831
 6933TIP3   OH242357   6.142   4.848   1.395  0.0654  0.5173  0.0044
 6933TIP3    H142358   6.199   4.858   1.471 -1.1107  0.1403  0.9866
 6933TIP3    H242359   6.200   4.825   1.323  1.0927 -0.3945  1.0862
 6934TIP3   OH242360   2.778   5.309   0.860 -0.2242  0.0197  0.2104
 6934TIP3    H142361   2.788   5.220   0.894 -0.2360  0.2221  0.7374
 6934TIP3    H242362   2.767   5.296   0.765  1.3939 -0.4406  0.0615
 6935TIP3   OH242363   6.338   2.095   1.791 -0.0117 -0.1176 -0.0976
 6935TIP3    H142364   6.393   2.117   1.866  0.2915  0.9153 -0.6068
 6935TIP3    H242365   6.399   2.089   1.717 -0.6331  1.9874 -0.8650
 6936TIP3   OH242366   3.685   4.855   1.850 -0.0648 -0.2495  0.6872
 6936TIP3    H142367   3.603   4.815   1.822  1.8612 -3.4601 -0.8983
 6936TIP3    H242368   3.728   4.788   1.904  1.6948  1.1833  1.1777
 6937TIP3   OH242369   4.316   3.776   1.045 -0.4829 -0.1618 -0.3426
 6937TIP3    H142370   4.321   3.729   1.128  0.1541  0.7560  0.1626
 6937TIP3    H242371   4.222   3.787   1.029 -0.6694 -2.1617 -0.8299
 6938TIP3   OH242372   5.435   4.571   7.817  0.5686  0.1661 -0.0713
 6938TIP3    H142373   5.400   4.651   7.855 -1.5639 -1.0498  0.6790
 6938TIP3    H242374   5.363   4.534   7.767  1.0808 -1.8897  0.6068
 6939TIP3   OH242375   4.010   5.597   7.020  0.2516 -0.4093  0.0040
 6939TIP3    H142376   4.067   5.664   7.057 -0.5345  0.9573 -1.1410
 6939TIP3    H242377   4.066   5.549   6.959  0.8877 -1.0070  1.0227
 6940TIP3   OH242378   2.224   3.130   7.723 -0.6434 -0.2485  0.2736
 6940TIP3    H142379   2.288   3.130   7.651 -0.5929  0.3890  0.3121
 6940TIP3    H242380   2.262   3.188   7.789  0.2330 -2.3288  1.6704
 6941TIP3   OH242381   2.293   0.439   0.648 -0.1794 -0.4027  0.1604
 6941TIP3    H142382   2.324   0.348   0.652  1.5266 -0.2835 -4.3845
 6941TIP3    H242383   2.203   0.432   0.617  0.1419 -0.5813 -0.7625
 6942TIP3   OH242384   6.260   6.695   0.287 -0.3095 -0.2150 -0.0538
 6942TIP3    H142385   6.272   6.605   0.317 -0.1618  0.0762  0.7850
 6942TIP3    H242386   6.324   6.745   0.338  0.7979  0.1307 -1.7073
 6943TIP3   OH242387   2.675   3.928   8.894  0.5189  0.2565  0.5422
 6943TIP3    H142388   2.591   3.909   8.854  1.4328 -1.6864 -0.5929
 6943TIP3    H242389   2.668   4.019   8.924 -0.8727  1.2333 -2.4026
 6944TIP3   OH242390   1.470   4.989   0.763  0.0698 -0.3701  0.1940
 6944TIP3    H142391   1.533   5.041   0.714 -0.0163  0.9193  1.3989
 6944TIP3    H242392   1.398   4.974   0.702 -1.0445  3.0792  0.4622
 6945TIP3   OH242393   1.354   4.109   8.708  0.2597  0.1331 -0.1193
 6945TIP3    H142394   1.319   4.052   8.776  1.8478  0.2189  0.8364
 6945TIP3    H242395   1.320   4.074   8.626  0.5203 -1.6727  0.5162
 6946TIP3   OH242396   2.274   6.689   8.422 -0.2188  0.4099 -0.2718
 6946TIP3    H142397   2.234   6.624   8.363  0.8476 -1.0222  0.5277
 6946TIP3    H242398   2.207   6.705   8.488 -1.0001  1.1892 -1.2017
 6947TIP3   OH242399   4.771   6.212   1.838  0.2735 -0.4478  0.5117
 6947TIP3    H142400   4.755   6.263   1.918  0.9435 -1.0417  1.0356
 6947TIP3    H242401   4.714   6.252   1.772  0.8058  0.9798  0.9019
 6948TIP3   OH242402   0.715   3.773   0.628  0.4667  0.3964 -0.1089
 6948TIP3    H142403   0.693   3.714   0.556 -3.3923  0.4809  0.7717
 6948TIP3    H242404   0.645   3.760   0.692  0.7760  4.1373  1.2402
 6949TIP3   OH242405   4.994   5.906   1.136 -0.2666 -0.6740 -0.1157
 6949TIP3    H142406   4.988   5.996   1.168 -1.8418 -1.1447  1.0666
 6949TIP3    H242407   5.039   5.913   1.052 -0.8032  1.2827 -0.2946
 6950TIP3   OH242408   0.043   2.765   2.034 -0.3416  0.2337  0.1098
 6950TIP3    H142409   0.015   2.855   2.016 -2.4521 -0.2824  0.5490
 6950TIP3    H242410   0.015   2.715   1.957 -1.9163 -0.5314  1.1255
 6951TIP3   OH242411   4.708   1.665   7.274 -0.6637 -0.1398 -0.2698
 6951TIP3    H142412   4.655   1.586   7.277 -1.0670  0.1407  0.2514
 6951TIP3    H242413   4.662   1.722   7.212 -0.5601 -0.1858 -0.3884
 6952TIP3   OH242414   4.822   4.273   2.047 -0.4571 -0.2859  0.3284
 6952TIP3    H142415   4.742   4.319   2.020 -1.7225 -1.1983  2.3064
 6952TIP3    H242416   4.798   4.228   2.128  1.7553 -1.5324  0.3745
 6953TIP3   OH242417   5.127   1.055   0.981  0.3104  0.0899  0.2637
 6953TIP3    H142418   5.148   1.007   0.900  0.9073  1.2422 -0.2871
 6953TIP3    H242419   5.073   1.128   0.952 -0.1813  0.0380  1.0334
 6954TIP3   OH242420   3.709   4.526   0.225 -0.0717  0.3049 -0.3276
 6954TIP3    H142421   3.699   4.500   0.316 -0.1703  0.7821 -0.1966
 6954TIP3    H242422   3.691   4.620   0.225 -1.6268  0.0440 -1.0800
 6955TIP3   OH242423   6.337   5.401   0.831  0.1056  0.4644  0.1438
 6955TIP3    H142424   6.303   5.483   0.868 -0.3373 -0.5751  2.1637
 6955TIP3    H242425   6.274   5.335   0.859  0.7478 -0.6684 -1.0053
 6956TIP3   OH242426   4.026   2.212   7.789  0.1202  0.2614  0.8279
 6956TIP3    H142427   3.973   2.138   7.818 -0.7317 -0.1820 -1.6063
 6956TIP3    H242428   3.963   2.283   7.778  0.6769  0.8861  1.6080
 6957TIP3   OH242429   6.263   0.974   2.168  0.3749 -0.1947 -0.3161
 6957TIP3    H142430   6.352   0.962   2.134  0.3160 -0.6765 -0.3053
 6957TIP3    H242431   6.232   0.886   2.186  0.5629  0.0445  1.4093
 6958TIP3   OH242432   6.557   3.633   1.767  0.5031  0.0481 -0.4915
 6958TIP3    H142433   6.576   3.601   1.679 -1.0332 -0.1335 -0.7846
 6958TIP3    H242434   6.475   3.682   1.758  1.6287  2.2137  0.3752
 6959TIP3   OH242435   0.917   6.671   1.387 -0.3330  0.0046 -0.3563
 6959TIP3    H142436   1.001   6.669   1.434 -0.0212  0.2092 -0.8951
 6959TIP3    H242437   0.854   6.700   1.452 -0.0964 -0.7520  0.2243
 6960TIP3   OH242438   1.140   2.535   8.633 -0.1783  0.5355  0.1267
 6960TIP3    H142439   1.059   2.516   8.681 -0.3135  1.1715  0.1559
 6960TIP3    H242440   1.160   2.625   8.655  1.5237 -0.1407  1.5440
 6961TIP3   OH242441   5.292   3.447   8.802  0.3174  0.1535  0.4284
 6961TIP3    H142442   5.281   3.430   8.708 -0.1486  2.3098  0.0360
 6961TIP3    H242443   5.206   3.428   8.840  0.0606  0.7056  0.1453
 6962TIP3   OH242444   5.043   6.001   8.199 -0.2613  0.0651 -0.5478
 6962TIP3    H142445   5.114   6.065   8.196  0.5604 -0.8445 -0.7701
 6962TIP3    H242446   4.966   6.052   8.227  0.8075  0.7465  1.3138
 6963TIP3   OH242447   3.682   0.719   8.739  0.1561 -0.5490  0.2745
 6963TIP3    H142448   3.745   0.789   8.753  1.1540 -0.9944 -1.6029
 6963TIP3    H242449   3.695   0.660   8.814 -0.8230  1.2713  1.9671
 6964TIP3   OH242450   1.359   0.371   0.599 -0.4927 -0.1185 -0.1102
 6964TIP3    H142451   1.306   0.450   0.585 -0.9253 -0.2789  0.6037
 6964TIP3    H242452   1.309   0.319   0.662  0.6244 -0.1706  0.7538
 6965TIP3   OH242453   5.215   3.905   7.793  0.1769  0.4283  0.0419
 6965TIP3    H142454   5.146   3.839   7.780  1.7552 -0.9116 -2.2348
 6965TIP3    H242455   5.186   3.980   7.740  0.1528  0.1089 -0.4053
 6966TIP3   OH242456   5.632   5.946   2.154  0.6101  0.1458 -0.1812
 6966TIP3    H142457   5.593   5.891   2.087 -2.8202  0.3387  1.4249
 6966TIP3    H242458   5.612   6.036   2.127  2.4342  0.4521 -0.6521
 6967TIP3   OH242459   4.803   5.353   1.436 -0.3119 -0.3449 -0.2823
 6967TIP3    H142460   4.854   5.386   1.362  0.5336  0.1134  0.4793
 6967TIP3    H242461   4.763   5.431   1.474 -2.8863 -0.8411 -1.7614
 6968TIP3   OH242462   2.225   5.466   7.537 -0.1108  0.0938 -0.1949
 6968TIP3    H142463   2.157   5.509   7.589  1.7044  1.2013  1.3803
 6968TIP3    H242464   2.206   5.492   7.447 -0.2331  2.6914  0.4914
 6969TIP3   OH242465   6.227   5.542   1.175 -0.1898  0.1736  0.2972
 6969TIP3    H142466   6.180   5.503   1.249  0.2740  0.8816  0.9922
 6969TIP3    H242467   6.319   5.519   1.191 -0.1887 -0.5071 -0.6058
 6970TIP3   OH242468   1.537   3.493   1.035  0.3496  0.2389 -0.3874
 6970TIP3    H142469   1.452   3.529   1.062  0.5899  0.5243 -0.0026
 6970TIP3    H242470   1.569   3.555   0.970  0.0546 -0.1175 -0.8788
 6971TIP3   OH242471   5.682   0.207   1.037  0.3991  0.2156  0.0809
 6971TIP3    H142472   5.714   0.297   1.031 -0.0157  0.3185 -0.7244
 6971TIP3    H242473   5.627   0.196   0.960 -0.0694 -0.5289  0.5096
 6972TIP3   OH242474   3.393   1.440   1.866  0.3083  0.4707 -0.2104
 6972TIP3    H142475   3.426   1.530   1.865 -0.8522  0.9207  0.6766
 6972TIP3    H242476   3.347   1.431   1.949  0.3678 -0.9444 -0.2943
 6973TIP3   OH242477   3.419   6.451   0.923 -0.5705  0.6767 -0.2769
 6973TIP3    H142478   3.395   6.363   0.951  0.0440  0.1583 -1.3246
 6973TIP3    H242479   3.514   6.447   0.910 -0.2971  1.9090  1.0620
 6974TIP3   OH242480   3.957   0.993   1.409  0.2795 -0.5069  0.1052
 6974TIP3    H142481   3.962   1.001   1.313  0.9367  0.6521  0.2248
 6974TIP3    H242482   3.885   0.931   1.423  0.0095 -0.5143 -1.1328
 6975TIP3   OH242483   6.118   1.747   6.501  0.3852  0.5052 -1.1684
 6975TIP3    H142484   6.162   1.663   6.517  0.9633  1.0453  0.2393
 6975TIP3    H242485   6.029   1.723   6.477  0.3442 -0.5047 -0.0716
 6976TIP3   OH242486   1.860   5.812   0.379  0.6350  0.0418  0.9264
 6976TIP3    H142487   1.816   5.896   0.390 -0.1456 -0.3838  1.0731
 6976TIP3    H242488   1.924   5.809   0.451  0.4564  0.3746  1.0998
 6977TIP3   OH242489   2.634   5.357   0.624  0.5308  0.2784 -0.3092
 6977TIP3    H142490   2.553   5.314   0.595  0.9296 -0.6511 -0.1011
 6977TIP3    H242491   2.606   5.443   0.655 -0.6863 -0.7705  1.6986
 6978TIP3   OH242492   2.891   1.651   8.837 -0.7115 -0.2107 -0.7894
 6978TIP3    H142493   2.893   1.745   8.852  1.5004 -0.3980  0.6671
 6978TIP3    H242494   2.819   1.619   8.891 -0.1424  0.4558  0.4147
 6979TIP3   OH242495   4.247   0.333   1.719  0.3874  0.3565 -0.0252
 6979TIP3    H142496   4.331   0.351   1.761 -0.4181  2.9911  0.6728
 6979TIP3    H242497   4.245   0.392   1.643 -0.1771 -0.8662 -0.9864
 6980TIP3   OH242498   2.971   6.000   1.338 -0.0830  0.3987  0.5524
 6980TIP3    H142499   2.980   6.029   1.429 -2.1978  0.8520  0.6756
 6980TIP3    H242500   3.035   5.930   1.329 -0.8450 -0.7260  2.8957
 6981TIP3   OH242501   5.572   0.990   0.475 -0.0124  0.0855 -0.0736
 6981TIP3    H142502   5.511   0.981   0.402  0.2394  0.8829 -0.3948
 6981TIP3    H242503   5.658   0.976   0.436  0.0243 -0.9963  0.3694
 6982TIP3   OH242504   0.896   1.514   3.106  0.1043 -0.0895 -0.0347
 6982TIP3    H142505   0.848   1.440   3.069 -0.6174  0.6569 -0.6304
 6982TIP3    H242506   0.967   1.474   3.156 -0.1666 -1.1752 -0.4918
 6983TIP3   OH242507   4.970   6.326   2.141  0.2152 -0.8309  0.1909
 6983TIP3    H142508   4.998   6.411   2.176  1.2794 -1.3935  0.7629
 6983TIP3    H242509   4.930   6.347   2.056 -0.3544  0.3207  0.7237
 6984TIP3   OH242510   6.326   4.492   6.841 -0.0662 -0.1186 -0.0765
 6984TIP3    H142511   6.262   4.421   6.838 -0.3755  0.1813 -0.7915
 6984TIP3    H242512   6.315   4.531   6.928 -1.6043  0.6064 -0.5749
 6985TIP3   OH242513   4.858   3.988   7.421  0.6204  1.0224 -0.3256
 6985TIP3    H142514   4.914   3.964   7.347  0.3431  0.0969 -0.2578
 6985TIP3    H242515   4.918   4.013   7.490  0.9615  0.1693 -0.2995
 6986TIP3   OH242516   1.192   2.781   2.080 -0.4851  0.6152  0.3664
 6986TIP3    H142517   1.176   2.690   2.055  1.3067  0.4385 -0.3448
 6986TIP3    H242518   1.251   2.776   2.155 -0.8740  1.2043  0.7247
 6987TIP3   OH242519   4.312   5.011   8.645  0.2013 -0.4867  0.2324
 6987TIP3    H142520   4.312   5.103   8.616  0.8920 -0.1249  1.3155
 6987TIP3    H242521   4.270   5.013   8.730 -1.0055 -1.4032 -0.3218
 6988TIP3   OH242522   1.808   2.714   0.857  0.1555  0.5690 -0.3219
 6988TIP3    H142523   1.742   2.647   0.873  0.8429 -0.2880 -1.0146
 6988TIP3    H242524   1.778   2.789   0.909 -0.9089 -0.0775  0.0377
 6989TIP3   OH242525   2.183   2.328   0.539  0.2456 -0.1112 -0.2717
 6989TIP3    H142526   2.257   2.373   0.499  1.2099  0.1839  1.7572
 6989TIP3    H242527   2.122   2.398   0.563  0.2785 -0.1732 -0.0088
 6990TIP3   OH242528   2.344   5.709   1.276 -0.6354 -0.0919  0.3903
 6990TIP3    H142529   2.351   5.695   1.181  0.8007 -1.4734  0.6536
 6990TIP3    H242530   2.250   5.716   1.293 -1.1157 -2.5788 -0.8119
 6991TIP3   OH242531   0.595   5.512   1.005  0.3098 -0.4466  0.3278
 6991TIP3    H142532   0.615   5.521   1.098 -1.0132 -1.7200  0.7833
 6991TIP3    H242533   0.642   5.584   0.963 -0.1189  0.9649  2.1229
 6992TIP3   OH242534   2.655   2.295   8.183  0.8866 -0.1983 -0.4373
 6992TIP3    H142535   2.660   2.207   8.144  1.1964 -0.5945  0.4642
 6992TIP3    H242536   2.638   2.353   8.109 -2.6241 -1.3309 -0.7445
 6993TIP3   OH242537   5.363   0.463   1.599 -0.3241  0.9223  0.0320
 6993TIP3    H142538   5.452   0.469   1.634  2.1657 -1.0208 -4.8880
 6993TIP3    H242539   5.329   0.380   1.633  2.0602 -1.0232 -1.9116
 6994TIP3   OH242540   0.606   3.145   1.740  0.3983 -0.9688 -0.2311
 6994TIP3    H142541   0.655   3.166   1.660 -1.2741  0.2985 -0.9797
 6994TIP3    H242542   0.668   3.165   1.811  1.5313 -1.0566 -1.1589
 6995TIP3   OH242543   0.995   0.291   7.967  0.1246  0.1709  0.4494
 6995TIP3    H142544   0.911   0.299   7.921  1.0424  1.8367 -1.0508
 6995TIP3    H242545   1.045   0.228   7.915  0.1804 -0.0622  0.7799
 6996TIP3   OH242546   4.099   5.948   8.044  0.0238 -0.4911  0.2069
 6996TIP3    H142547   4.062   5.859   8.047 -2.1831  0.3609  0.5834
 6996TIP3    H242548   4.119   5.962   7.951  1.5336 -1.7657  0.2959
 6997TIP3   OH242549   4.666   6.065   7.848  0.0573 -0.3992  0.3863
 6997TIP3    H142550   4.580   6.059   7.890 -1.1464  0.8666 -1.7512
 6997TIP3    H242551   4.673   6.157   7.820  2.0722 -0.5026  0.4013
 6998TIP3   OH242552   3.078   2.971   1.049 -0.5154 -0.1145  0.2732
 6998TIP3    H142553   3.171   2.972   1.071  0.0440 -0.8970 -1.7968
 6998TIP3    H242554   3.065   3.048   0.995 -1.3903  0.6660  1.5353
 6999TIP3   OH242555   4.878   5.000   8.631 -0.4961 -0.5201  0.1192
 6999TIP3    H142556   4.944   5.068   8.646 -3.1629  2.5549 -0.8383
 6999TIP3    H242557   4.874   4.991   8.536 -0.9883 -1.1669  0.1921
 7000TIP3   OH242558   2.354   2.986   2.151  0.1486 -0.6287  0.0081
 7000TIP3    H142559   2.431   3.042   2.155 -0.6164  0.4343  0.4208
 7000TIP3    H242560   2.364   2.937   2.069 -0.5562  2.2641 -1.9945
 7001TIP3   OH242561   6.023   1.329   1.849  0.3189  0.7176 -0.1022
 7001TIP3    H142562   5.977   1.298   1.927  0.4095  0.2849 -0.2177
 7001TIP3    H242563   6.073   1.406   1.880 -0.8019  1.4535 -0.0817
 7002TIP3   OH242564   0.713   2.275   1.221  0.5105  0.2696 -0.3778
 7002TIP3    H142565   0.762   2.299   1.300  3.0235  1.1525 -2.0643
 7002TIP3    H242566   0.656   2.203   1.249  0.7059  1.0803  2.3814
 7003TIP3   OH242567   0.146   5.570   2.505 -0.0869 -0.3533  0.4416
 7003TIP3    H142568   0.088   5.504   2.469 -0.5188 -0.5371  1.4301
 7003TIP3    H242569   0.090   5.623   2.562  0.1993  1.0219 -0.4946
 7004TIP3   OH242570   4.889   5.532   8.708  0.9340  0.3855 -0.2785
 7004TIP3    H142571   4.976   5.513   8.674  0.1633 -0.7402 -1.7435
 7004TIP3    H242572   4.831   5.473   8.660 -0.8211  2.1049 -0.3883
 7005TIP3   OH242573   5.614   3.707   0.065  0.4323  0.7182 -0.6574
 7005TIP3    H142574   5.640   3.639   0.127 -2.2337  0.5233  0.3873
 7005TIP3    H242575   5.635   3.789   0.109  1.2494  0.5812 -0.7864
 7006TIP3   OH242576   5.486   6.178   7.479  0.4909  0.1853  0.0525
 7006TIP3    H142577   5.434   6.172   7.398  1.1357  0.7985 -0.4197
 7006TIP3    H242578   5.449   6.254   7.525  1.5731  1.2267 -0.7461
 7007TIP3   OH242579   0.747   6.242   1.759  0.3088  0.3647 -0.3554
 7007TIP3    H142580   0.840   6.219   1.752 -0.4125 -2.8587 -0.5345
 7007TIP3    H242581   0.715   6.238   1.670 -0.0164  1.6581 -0.3162
 7008TIP3   OH242582   5.439   3.847   8.557 -0.4747  0.1597  0.0734
 7008TIP3    H142583   5.347   3.872   8.549 -0.6161 -0.0476  1.0266
 7008TIP3    H242584   5.454   3.840   8.651  0.7878  1.1960 -0.0257
 7009TIP3   OH242585   4.475   3.550   8.916 -0.3147  0.2419  0.2705
 7009TIP3    H142586   4.457   3.636   8.955 -0.4882  0.6927 -0.7623
 7009TIP3    H242587   4.480   3.490   8.990 -2.2936  0.7636  0.8738
 7010TIP3   OH242588   1.616   3.571   8.491 -0.0355 -0.6908  0.1736
 7010TIP3    H142589   1.687   3.592   8.430 -1.0670  1.5174 -0.3720
 7010TIP3    H242590   1.631   3.479   8.515  2.6321 -0.4755 -0.3644
 7011TIP3   OH242591   3.069   6.648   8.054  0.3748  0.2598 -0.4185
 7011TIP3    H142592   3.059   6.650   8.149 -0.7194 -0.1240 -0.5172
 7011TIP3    H242593   3.145   6.705   8.037 -0.2654  1.4720  0.5803
 7012TIP3   OH242594   0.235   5.269   0.400 -0.1582  0.0173 -0.0319
 7012TIP3    H142595   0.249   5.183   0.361 -1.5582 -0.4785  0.5049
 7012TIP3    H242596   0.284   5.329   0.343  1.1222 -1.1472 -0.2149
 7013TIP3   OH242597   2.545   3.172   8.045  0.1836  0.0003  0.8322
 7013TIP3    H142598   2.588   3.095   8.007  1.1010  0.8543  0.0675
 7013TIP3    H242599   2.559   3.164   8.139 -0.3453 -1.1220  0.8235
 7014TIP3   OH242600   5.317   2.267   2.389 -0.2013 -0.7782  0.0495
 7014TIP3    H142601   5.268   2.239   2.311  1.4133 -0.8518 -0.9837
 7014TIP3    H242602   5.295   2.201   2.456 -1.6186 -0.7072 -0.3140
 7015TIP3   OH242603   3.683   5.382   7.802 -0.0446  0.0298 -0.2527
 7015TIP3    H142604   3.659   5.377   7.895 -1.4173 -2.0239 -0.6439
 7015TIP3    H242605   3.729   5.466   7.794 -0.2240  0.4546  2.1854
 7016TIP3   OH242606   0.010   2.384   8.666  0.3085  0.2981  0.6485
 7016TIP3    H142607  -0.072   2.429   8.646  1.2493  1.7309 -0.2136
 7016TIP3    H242608   0.067   2.404   8.592  1.0768 -1.6617  0.6406
 7017TIP3   OH242609   0.995   4.863   8.367 -0.0846 -0.3800 -0.7401
 7017TIP3    H142610   0.908   4.886   8.401  0.6098  1.3611 -0.0551
 7017TIP3    H242611   0.984   4.867   8.272 -0.9205 -0.8751 -0.6793
 7018TIP3   OH242612   3.599   1.677   6.778  0.9591  0.6392  0.5153
 7018TIP3    H142613   3.616   1.767   6.751  2.8585  0.6486  1.5339
 7018TIP3    H242614   3.510   1.679   6.814  0.4250  1.7549 -0.7977
 7019TIP3   OH242615   1.821   6.477   8.626  0.1868  0.0882 -0.2813
 7019TIP3    H142616   1.772   6.533   8.565 -0.1783 -0.1968 -0.2528
 7019TIP3    H242617   1.854   6.538   8.692 -2.6417 -0.0025  1.4068
 7020TIP3   OH242618   2.948   0.820   8.738  0.0981  0.2813 -0.5967
 7020TIP3    H142619   2.870   0.866   8.769 -0.8394 -0.3780 -1.9075
 7020TIP3    H242620   3.021   0.874   8.767 -0.8522  1.0903  0.3576
 7021TIP3   OH242621   1.332   0.933   2.194  0.3805 -0.1132  0.2780
 7021TIP3    H142622   1.285   0.899   2.270 -1.3909 -1.0969 -1.1818
 7021TIP3    H242623   1.338   0.859   2.134  0.5844  0.9626 -1.0843
 7022TIP3   OH242624   2.751   2.446   8.407  0.0945 -0.1026 -0.6505
 7022TIP3    H142625   2.731   2.400   8.326  1.9211 -1.0185 -0.6415
 7022TIP3    H242626   2.775   2.377   8.469 -1.8148  0.5154  0.9058
 7023TIP3   OH242627   6.190   5.968   0.811  0.0849 -0.0791  0.2033
 7023TIP3    H142628   6.215   5.881   0.842 -0.5776 -0.4631 -0.2993
 7023TIP3    H242629   6.144   5.951   0.728 -0.8610  0.6704  0.5575
 7024TIP3   OH242630   5.505   4.683   8.397 -0.3906 -0.4656  0.0958
 7024TIP3    H142631   5.538   4.764   8.435 -0.7567 -0.6328  0.7978
 7024TIP3    H242632   5.579   4.622   8.400 -0.6157 -0.7030  1.2440
 7025TIP3   OH242633   0.399   0.982   1.599 -0.4856 -0.6378 -0.4251
 7025TIP3    H142634   0.468   1.028   1.551  0.3406 -2.3954 -1.0056
 7025TIP3    H242635   0.445   0.923   1.658 -1.5137  0.3913  1.5073
 7026TIP3   OH242636   2.467   2.702   0.143  0.2796  0.0090 -1.0530
 7026TIP3    H142637   2.497   2.789   0.170  1.0281 -0.1290 -1.4174
 7026TIP3    H242638   2.425   2.716   0.057 -0.4924  0.1576 -0.6657
 7027TIP3   OH242639   0.250   1.198   8.034 -0.2392  0.1374 -0.0137
 7027TIP3    H142640   0.155   1.206   8.037 -0.2762 -0.4461  0.7841
 7027TIP3    H242641   0.265   1.112   7.995 -0.0369  0.2994 -0.2924
 7028TIP3   OH242642   1.197   1.828   7.690  0.2864 -0.0619 -0.1911
 7028TIP3    H142643   1.230   1.889   7.624 -1.0936  0.1447 -0.7260
 7028TIP3    H242644   1.254   1.841   7.765  2.0994 -0.5291 -1.4183
 7029TIP3   OH242645   4.925   2.369   2.720 -0.6752 -0.8018 -0.7953
 7029TIP3    H142646   4.918   2.282   2.682 -0.7674 -1.8866  1.5533
 7029TIP3    H242647   5.019   2.385   2.728 -0.6180 -1.8322  1.1061
 7030TIP3   OH242648   2.342   3.047   7.325  0.1639 -0.2675  0.5596
 7030TIP3    H142649   2.437   3.059   7.322  0.2481 -0.4148  1.8627
 7030TIP3    H242650   2.329   2.981   7.393 -0.7703 -1.6052 -0.8697
 7031TIP3   OH242651   1.355   0.145   8.770 -0.2370 -0.0432  0.0047
 7031TIP3    H142652   1.368   0.235   8.740 -0.5888  0.6012  1.7149
 7031TIP3    H242653   1.304   0.153   8.850 -0.4314 -1.7928  0.0986
 7032TIP3   OH242654   1.578   2.793   6.966  0.7684 -0.0256  0.0119
 7032TIP3    H142655   1.573   2.861   7.033 -1.7600  1.0348 -1.1074
 7032TIP3    H242656   1.641   2.827   6.902  1.0894  0.2754  0.4832
 7033TIP3   OH242657   4.961   6.432   1.021  0.4759  0.2480  0.2268
 7033TIP3    H142658   4.998   6.514   0.988 -2.2146  1.0489 -1.0255
 7033TIP3    H242659   4.991   6.366   0.959  2.1433  0.3263  0.8892
 7034TIP3   OH242660   6.232   6.456   2.653  0.3293  0.1366  0.1822
 7034TIP3    H142661   6.323   6.446   2.681  0.2426  2.2294  1.4159
 7034TIP3    H242662   6.192   6.371   2.673  1.8831 -0.6881  0.0031
 7035TIP3   OH242663   2.952   0.000   0.441 -0.1743  0.4149  0.0473
 7035TIP3    H142664   3.031  -0.019   0.492 -0.1632  3.1443  1.2224
 7035TIP3    H242665   2.971   0.083   0.398 -2.0912  0.7333 -0.2791
 7036TIP3   OH242666   2.814   6.006   2.906  0.5267 -0.3986 -0.2205
 7036TIP3    H142667   2.783   6.009   2.997 -0.0431 -1.1074 -0.3914
 7036TIP3    H242668   2.762   6.073   2.861 -0.0351 -0.8634 -0.2769
 7037TIP3   OH242669   1.658   4.245   2.247 -0.0610 -0.0200 -0.3701
 7037TIP3    H142670   1.575   4.293   2.255 -0.7556 -1.1559 -0.5986
 7037TIP3    H242671   1.688   4.234   2.337 -0.3417  0.0843 -0.2613
 7038TIP3   OH242672   2.875   0.208   1.654 -0.3798 -0.6229  0.5255
 7038TIP3    H142673   2.877   0.177   1.563  2.4492  1.2928 -0.2317
 7038TIP3    H242674   2.950   0.165   1.695  0.5923  1.2783  0.8386
 7039TIP3   OH242675   3.894   1.805   8.139 -0.5190  0.5309  0.1983
 7039TIP3    H142676   3.848   1.734   8.183 -1.1336  1.2725  0.7825
 7039TIP3    H242677   3.983   1.802   8.175 -0.8502  0.7489  1.0496
 7040TIP3   OH242678   4.672   6.342   1.353 -0.3342 -0.1607  0.7989
 7040TIP3    H142679   4.696   6.251   1.338 -1.2126 -0.2742 -0.0044
 7040TIP3    H242680   4.739   6.392   1.306 -1.2638 -0.4631 -0.9495
 7041TIP3   OH242681   3.461   1.688   2.316  0.2789 -0.0046  0.5690
 7041TIP3    H142682   3.500   1.773   2.297 -1.8509  0.9852  0.3913
 7041TIP3    H242683   3.482   1.673   2.408 -1.7614  2.1783  1.5011
 7042TIP3   OH242684   1.825   4.957   0.958  0.1202  0.0833  0.7219
 7042TIP3    H142685   1.897   4.901   0.930 -0.2328 -0.2138  0.3935
 7042TIP3    H242686   1.844   4.977   1.050  0.2607 -0.5707  0.8400
 7043TIP3   OH242687   1.869   4.427   2.488  0.1211  0.1923 -0.3722
 7043TIP3    H142688   1.798   4.363   2.500  1.0563 -0.6213  1.1768
 7043TIP3    H242689   1.925   4.388   2.421 -0.5722  0.5575 -1.1755
 7044TIP3   OH242690   0.455   4.323   1.584 -0.2966 -0.1000  0.5620
 7044TIP3    H142691   0.472   4.231   1.563 -2.0845 -0.4542  0.4894
 7044TIP3    H242692   0.406   4.356   1.509  1.2696  1.2487  0.0893
 7045TIP3   OH242693   5.331   2.755   6.908 -0.6272 -0.1514  0.1946
 7045TIP3    H142694   5.411   2.712   6.879  0.1727 -0.2821  2.4621
 7045TIP3    H242695   5.285   2.689   6.959 -0.9227  0.7184  1.0758
 7046TIP3   OH242696   0.307   4.950   0.711  0.3399 -0.1420  0.5800
 7046TIP3    H142697   0.375   5.011   0.738 -0.5953  0.0920  2.5544
 7046TIP3    H242698   0.333   4.867   0.750 -0.9914  0.1784  2.2303
 7047TIP3   OH242699   0.272   3.430   2.589  0.0875 -0.2525  0.4775
 7047TIP3    H142700   0.184   3.441   2.627 -0.7484 -0.5850 -1.2844
 7047TIP3    H242701   0.275   3.339   2.560  1.0439 -0.2504  0.5284
 7048TIP3   OH242702   0.149   0.476   1.181 -0.2922 -0.0859  0.3489
 7048TIP3    H142703   0.130   0.569   1.192 -0.7412  0.1278 -1.8475
 7048TIP3    H242704   0.063   0.434   1.181 -0.2881 -0.1440 -1.3063
 7049TIP3   OH242705   1.899   1.720   1.736  0.3215 -0.1006  0.9439
 7049TIP3    H142706   1.855   1.794   1.696 -0.2036 -1.2221 -0.6501
 7049TIP3    H242707   1.993   1.739   1.725  0.1914 -0.3163 -0.7715
 7050TIP3   OH242708   3.110   3.507   8.479 -0.1241 -0.3502  0.2321
 7050TIP3    H142709   3.091   3.583   8.534  0.0037  0.9397 -1.4066
 7050TIP3    H242710   3.111   3.433   8.539 -1.6870  0.7341  1.6829
 7051TIP3   OH242711   0.923   2.750   1.821 -0.3220  0.8978 -0.2894
 7051TIP3    H142712   0.878   2.817   1.872 -0.2629  1.0215 -0.3990
 7051TIP3    H242713   0.967   2.799   1.751  1.6893  1.0504  0.9918
 7052TIP3   OH242714   5.849   5.986   7.651  0.2495  0.6457  0.1201
 7052TIP3    H142715   5.777   5.947   7.602  1.0349  1.0032 -1.3673
 7052TIP3    H242716   5.895   6.041   7.587  0.2997  2.5146  1.6671
 7053TIP3   OH242717   0.602   0.280   0.525 -0.1724  0.0431 -0.1978
 7053TIP3    H142718   0.549   0.287   0.445  1.6313 -0.0953 -1.4768
 7053TIP3    H242719   0.657   0.203   0.509 -0.9751 -1.0717  1.9807
 7054TIP3   OH242720   3.314   0.197   2.329 -0.1420 -0.2053  0.1107
 7054TIP3    H142721   3.369   0.123   2.354 -0.8062  0.0012  2.3702
 7054TIP3    H242722   3.271   0.224   2.410 -1.6308  1.2511 -1.0899
 7055TIP3   OH242723   3.357   5.443   2.052 -0.6386  0.1335  0.0579
 7055TIP3    H142724   3.276   5.493   2.067 -0.2897  0.6791  0.1660
 7055TIP3    H242725   3.419   5.480   2.115  0.1454  0.7868 -1.0598
 7056TIP3   OH242726   0.604   3.228   7.643  0.5732  0.0809  0.2290
 7056TIP3    H142727   0.676   3.234   7.581  2.0199 -0.2140  1.7935
 7056TIP3    H242728   0.612   3.306   7.697  0.2294 -0.3605  0.9339
 7057LIG     O142729   6.546   2.715   8.326 -1.0188 -0.6117  0.4480
 7057LIG     O242730   6.658   2.925   8.301 -0.0579 -0.5439 -0.0756
 7057LIG     O342731   6.527   2.938   8.103 -0.0279 -0.1361  0.4379
 7057LIG     O442732   6.813   2.667   8.473 -0.7279 -0.1408  0.2012
 7057LIG     O542733   6.852   2.566   8.202 -0.6658  0.2676  0.3901
 7057LIG     O642734   6.541   3.165   8.390  0.3819 -0.0467 -0.6177
 7057LIG     O742735   6.773   3.190   8.213 -0.1331 -0.1755  0.2031
 7057LIG     O842736   6.729   3.203   7.931 -0.6923  0.0043 -0.0156
 7057LIG     O942737   6.677   2.973   8.568  0.4057 -0.3733 -0.3321
 7057LIG    O1042738   6.509   2.645   8.044  0.0960 -0.1275  1.0604
 7057LIG    O1142739   6.750   2.948   7.804 -0.0278  0.3430  0.0667
 7057LIG     C142740   6.636   2.811   8.375 -0.4290 -0.1768 -0.1655
 7057LIG     C242741   6.774   2.747   8.362 -0.5302  0.1887  0.3516
 7057LIG     C342742   6.751   2.662   8.232 -0.4312 -0.1111 -0.0217
 7057LIG     C442743   6.613   2.604   8.261 -0.0524  0.5827 -0.4458
 7057LIG     C542744   6.535   2.970   8.240 -0.1494 -0.1875 -0.0439
 7057LIG     C642745   6.530   3.123   8.254 -0.4818  0.8160 -0.0474
 7057LIG     C742746   6.634   3.201   8.166 -0.3558  0.1677 -0.0296
 7057LIG     C842747   6.629   3.153   8.021  0.4610  0.1343  0.1888
 7057LIG     C942748   6.641   2.996   8.025 -0.1168 -0.2574  0.2738
 7057LIG    C1042749   6.606   2.855   8.523  1.5049  0.3758 -1.1478
 7057LIG    C1142750   6.530   2.548   8.143  0.0550 -0.4770 -0.6275
 7057LIG    C1242751   6.634   2.921   7.886  0.5940 -0.1596  0.2080
 7057LIG     H142752   6.860   2.816   8.361 -1.4186  1.3131  0.1166
 7057LIG     H242753   6.749   2.725   8.142 -0.6559 -0.3323 -0.1762
 7057LIG     H342754   6.624   2.538   8.348 -0.1533 -0.4638 -1.2012
 7057LIG     H442755   6.449   2.930   8.297  1.3716 -1.3605  1.5498
 7057LIG     H542756   6.432   3.157   8.215  0.0579  0.5588 -1.6896
 7057LIG     H642757   6.608   3.308   8.174  1.4782  0.5474  1.7076
 7057LIG     H742758   6.530   3.173   7.976  0.0843 -0.8769  0.5327
 7057LIG     H842759   6.738   2.967   8.072  1.3292  2.3358 -0.9005
 7057LIG     H942760   6.497   2.865   8.542  1.4093 -0.0217 -1.4499
 7057LIG    H1042761   6.622   2.769   8.592 -2.0435 -0.9598 -1.7434
 7057LIG    H1142762   6.570   2.456   8.094 -2.4213 -1.7691 -0.3987
 7057LIG    H1242763   6.431   2.514   8.181  0.1705 -0.3073 -0.1745
 7057LIG    H1342764   6.613   2.812   7.891 -1.2847 -0.0072 -2.1751
 7057LIG    H1442765   6.544   2.965   7.837  0.8160  0.9946  0.7906
 7057LIG    H1542766   6.898   2.625   8.458 -0.4597 -0.1599  1.6392
 7057LIG    H1642767   6.832   2.480   8.238  0.5956  0.4619  1.6555
 7057LIG    H1742768   6.587   3.093   8.434  1.5067  0.8759 -0.1980
 7057LIG    H1842769   6.771   3.261   8.278 -2.9941 -1.1358  1.3277
 7057LIG    H1942770   6.738   3.298   7.944  2.0023 -0.2853  0.7624
 7057LIG    H2042771   6.638   2.992   8.654 -0.5434 -2.4865 -0.2410
 7057LIG    H2142772   6.452   2.712   8.081  0.3308  0.7035 -0.0238
 7057LIG    H2242773   6.767   3.042   7.796  1.8100 -0.0141 -0.8753
   6.75572   6.75572   8.95001
