Title
42773
    1SAPS     N    1   6.289   3.249   7.546  0.5379 -0.6156 -0.1471
    1SAPS   HN1    2   6.223   3.175   7.513 -0.1199 -0.2033  0.2168
    1SAPS   HN2    3   6.315   3.300   7.460 -0.0948  0.3016  0.1870
    1SAPS   HN3    4   6.369   3.192   7.581 -0.5307 -1.1759  1.5636
    1SAPS   C12    5   6.220   3.339   7.652  0.1498 -0.1738  0.6717
    1SAPS  H12A    6   6.150   3.403   7.601  1.3581 -0.7773 -1.9585
    1SAPS   C13    7   6.140   3.257   7.757 -0.3350 -0.3428  0.5894
    1SAPS  O13A    8   6.138   3.133   7.754 -0.0985  0.3876  0.2567
    1SAPS  O13B    9   6.089   3.322   7.852 -0.4671  0.3883 -0.5135
    1SAPS   C11   10   6.329   3.425   7.721  0.3940  0.7456 -0.7175
    1SAPS  H11A   11   6.403   3.352   7.761 -0.6681 -0.5845 -1.1258
    1SAPS  H11B   12   6.276   3.481   7.801 -1.8250 -0.3451 -1.3674
    1SAPS     P   13   6.319   3.650   7.580 -0.1072 -0.1776  0.2807
    1SAPS   O13   14   6.193   3.624   7.505  0.3783 -0.7692 -0.3688
    1SAPS   O14   15   6.328   3.735   7.702  0.1095 -0.6016  0.7634
    1SAPS   O12   16   6.382   3.512   7.619 -0.2173 -0.2185  0.2654
    1SAPS   O11   17   6.422   3.698   7.480 -0.4495 -0.5133 -0.0636
    1SAPS    C1   18   6.445   3.838   7.454 -0.2502  0.7240 -0.6801
    1SAPS    HA   19   6.408   3.902   7.537  1.9606 -0.4837  1.3675
    1SAPS    HB   20   6.554   3.854   7.437 -0.2063  3.9116  1.7177
    1SAPS    C2   21   6.366   3.887   7.331 -0.1425  0.9185 -0.1583
    1SAPS    HS   22   6.387   3.993   7.303 -1.1789  0.9120 -1.0772
    1SAPS   O21   23   6.222   3.885   7.348 -0.1632  0.0635 -0.3318
    1SAPS   C21   24   6.175   3.951   7.457 -0.4640 -0.2393  0.5104
    1SAPS   O22   25   6.237   4.028   7.521  0.3123 -0.0738  0.3107
    1SAPS   C22   26   6.032   3.906   7.492  0.2835 -0.2095 -0.3029
    1SAPS   H2R   27   6.044   3.812   7.549  2.1772  0.5720  0.6594
    1SAPS   H2S   28   5.985   3.974   7.567 -4.3230 -1.3187 -1.8682
    1SAPS    C3   29   6.396   3.806   7.202 -0.6914  0.7043 -0.0321
    1SAPS    HX   30   6.378   3.698   7.221  1.8429 -0.2599 -2.2485
    1SAPS    HY   31   6.505   3.825   7.187 -1.1385  2.2456 -1.7241
    1SAPS   O31   32   6.328   3.854   7.077  0.1759 -0.2646 -0.3593
    1SAPS   C31   33   6.206   3.807   7.056  0.0450  0.3605 -0.1506
    1SAPS   O32   34   6.156   3.709   7.109 -0.0128 -0.7571 -0.0015
    1SAPS   C32   35   6.153   3.884   6.936  0.0453  0.7835 -0.7602
    1SAPS   H2X   36   6.212   3.976   6.917  0.2386  0.6309 -0.9082
    1SAPS   H2Y   37   6.063   3.937   6.974 -0.1500  1.8359 -2.5712
    1SAPS   C23   38   5.945   3.879   7.364  0.7799  0.1405  0.5023
    1SAPS   H3R   39   5.860   3.822   7.406  1.6386 -2.4115 -1.0180
    1SAPS   H3S   40   6.003   3.802   7.310  0.7120  0.3433  0.1309
    1SAPS   C24   41   5.922   4.010   7.286  0.6094  0.8746 -0.0498
    1SAPS   H4R   42   6.016   4.017   7.228  0.4044 -2.6557 -1.0819
    1SAPS   H4S   43   5.900   4.083   7.367  1.2024  0.2602  0.6806
    1SAPS   C25   44   5.799   3.989   7.201 -0.0018 -0.0609 -0.1508
    1SAPS   H5R   45   5.730   3.910   7.234  0.2072 -0.1846 -0.0095
    1SAPS   C26   46   5.786   4.040   7.078  0.5332 -0.3769 -0.3233
    1SAPS   H6R   47   5.697   4.008   7.021  1.2700 -0.1970 -1.6144
    1SAPS   C27   48   5.870   4.150   7.014 -0.3238 -0.5485 -0.0156
    1SAPS   H7R   49   5.969   4.110   6.983  0.1908  1.3405 -1.0280
    1SAPS   H7S   50   5.896   4.227   7.091 -3.2803  0.3745  0.1846
    1SAPS   C28   51   5.820   4.220   6.890  0.6337  0.7676 -0.1873
    1SAPS   H8R   52   5.801   4.327   6.907  1.6337  1.2985 -2.1278
    1SAPS   C29   53   5.793   4.169   6.771 -0.0397 -0.2521  0.1173
    1SAPS   H9R   54   5.764   4.244   6.696 -0.2795 -0.7308 -0.2716
    1SAPS  C210   55   5.805   4.035   6.717  0.4542 -0.4264 -0.6081
    1SAPS  H10R   56   5.702   3.999   6.694  0.8381 -0.9509 -1.5719
    1SAPS  H10S   57   5.840   3.959   6.790  0.4758  0.6291  0.4960
    1SAPS  C211   58   5.891   4.034   6.590 -0.1838 -0.2832  0.2063
    1SAPS  H11R   59   5.998   4.051   6.609 -0.5485  1.4347  0.9466
    1SAPS  C212   60   5.847   4.052   6.459  0.7431 -0.0262  0.6169
    1SAPS  H12R   61   5.917   4.046   6.373  1.7565 -0.5873  1.4497
    1SAPS  C213   62   5.702   4.062   6.419 -0.1702 -0.1851  0.2999
    1SAPS  H13R   63   5.694   4.155   6.358 -2.9528 -0.6943 -0.2553
    1SAPS  H13S   64   5.635   4.084   6.505 -0.1590 -1.3628  0.6263
    1SAPS  C214   65   5.654   3.941   6.347  0.5869 -0.4275  0.4879
    1SAPS  H14R   66   5.621   3.857   6.411 -1.5206 -0.0432 -0.0028
    1SAPS  C215   67   5.616   3.940   6.216  0.0240 -0.0858 -0.0276
    1SAPS  H15R   68   5.583   3.842   6.177 -1.5638  1.0065 -1.5951
    1SAPS  C216   69   5.620   4.055   6.119 -1.0509  0.1876 -0.2389
    1SAPS  H16R   70   5.597   4.152   6.168  0.4242  0.4906 -0.0868
    1SAPS  H16S   71   5.529   4.046   6.056 -3.0531 -1.2198  2.6378
    1SAPS  C217   72   5.730   4.071   6.013 -0.7151 -0.5571  1.2049
    1SAPS  H17R   73   5.763   3.973   5.972 -0.1534  1.1549 -2.9182
    1SAPS  H17S   74   5.818   4.103   6.073  0.3514 -0.0924 -0.5323
    1SAPS  C218   75   5.709   4.178   5.904  0.2525  0.0436  0.4431
    1SAPS  H18R   76   5.796   4.218   5.848 -0.6100  0.1486 -0.8624
    1SAPS  H18S   77   5.659   4.265   5.951  1.6490  1.9468 -1.3937
    1SAPS  C219   78   5.615   4.123   5.791  0.2996 -0.6501  0.6089
    1SAPS  H19R   79   5.601   4.208   5.720  2.0881 -0.6033  0.2792
    1SAPS  H19S   80   5.512   4.110   5.832  0.1115  2.0987  1.2022
    1SAPS  C220   81   5.659   3.999   5.708 -0.1169 -0.4758 -0.2082
    1SAPS  H20R   82   5.761   4.014   5.666 -0.9447  1.3842 -1.7081
    1SAPS  H20S   83   5.590   3.972   5.624  0.8134 -2.7055 -0.3376
    1SAPS  H20T   84   5.671   3.914   5.779  1.0955 -1.7241 -1.7990
    1SAPS   C33   85   6.123   3.795   6.811  0.1116  0.0909  0.4599
    1SAPS   H3X   86   6.039   3.836   6.752 -0.5613  0.8650  1.9002
    1SAPS   H3Y   87   6.099   3.688   6.826 -0.1336 -0.0116 -0.5777
    1SAPS   C34   88   6.251   3.787   6.726  0.2357 -0.2283  0.1423
    1SAPS   H4X   89   6.333   3.741   6.786  0.8486 -0.7395 -1.0567
    1SAPS   H4Y   90   6.296   3.885   6.700  2.4304 -0.8796  1.1881
    1SAPS   C35   91   6.235   3.711   6.599 -0.2540  0.3137  0.7135
    1SAPS   H5X   92   6.160   3.631   6.617 -2.7916  2.2281 -0.7485
    1SAPS   H5Y   93   6.334   3.670   6.569 -0.6771 -0.4035  0.2701
    1SAPS   C36   94   6.178   3.803   6.489  0.1782  0.1745  0.1783
    1SAPS   H6X   95   6.226   3.904   6.495  0.4234 -0.0134  1.9124
    1SAPS   H6Y   96   6.068   3.812   6.503  0.0641 -1.5965  0.5932
    1SAPS   C37   97   6.191   3.744   6.347  0.7513 -0.1965  0.2446
    1SAPS   H7X   98   6.152   3.640   6.341 -1.9260  0.7399  0.0666
    1SAPS   H7Y   99   6.294   3.743   6.306  0.0410 -0.3838 -1.6422
    1SAPS   C38  100   6.115   3.829   6.242  0.4226  0.1186 -0.0395
    1SAPS   H8X  101   6.136   3.937   6.262  2.1315 -0.3321  0.8521
    1SAPS   H8Y  102   6.008   3.802   6.249  0.0893  1.0925 -1.0581
    1SAPS   C39  103   6.156   3.807   6.093  0.3945  0.1633 -0.1403
    1SAPS   H9X  104   6.116   3.704   6.083 -2.7243  1.3396 -1.0652
    1SAPS   H9Y  105   6.266   3.822   6.085  0.6960 -0.8409  1.5332
    1SAPS  C310  106   6.094   3.904   6.000 -0.8693 -0.0745 -0.1243
    1SAPS  H10X  107   6.116   4.011   6.020 -2.2534  0.6722 -2.2487
    1SAPS  H10Y  108   5.983   3.906   6.005 -0.8819 -1.5296  0.8931
    1SAPS  C311  109   6.149   3.872   5.855  0.1665  0.7445 -0.1745
    1SAPS  H11X  110   6.150   3.761   5.842 -0.3314  0.8672 -1.4258
    1SAPS  H11Y  111   6.256   3.890   5.834  0.2283 -0.4329 -0.9886
    1SAPS  C312  112   6.066   3.941   5.745 -0.4173  0.3517  0.1034
    1SAPS  H12X  113   6.073   4.052   5.740 -0.9355  0.4239  0.8394
    1SAPS  H12Y  114   5.961   3.933   5.780 -1.2354  2.4781 -1.6012
    1SAPS  C313  115   6.075   3.868   5.610 -0.1603  0.3794  0.0858
    1SAPS  H13X  116   6.035   3.765   5.628  0.8002 -0.3857 -1.8993
    1SAPS  H13Y  117   6.182   3.860   5.582 -0.8038 -0.7939 -2.2930
    1SAPS  C314  118   6.005   3.932   5.483 -0.4934 -0.2814 -0.4772
    1SAPS  H14X  119   5.899   3.958   5.501 -0.6714 -1.7396  0.7438
    1SAPS  H14Y  120   6.007   3.862   5.396 -1.5761 -1.5789  0.5075
    1SAPS  C315  121   6.068   4.059   5.430 -0.0089  0.4521 -0.3837
    1SAPS  H15X  122   6.175   4.044   5.403 -0.2918 -1.6372 -0.5118
    1SAPS  H15Y  123   6.078   4.130   5.515  1.6152  1.6269 -1.4902
    1SAPS  C316  124   5.993   4.125   5.311  0.3642  0.0537 -0.3210
    1SAPS  H16X  125   5.901   4.167   5.357  0.3446 -0.6135  0.2755
    1SAPS  H16Y  126   5.985   4.050   5.229  1.3088  0.8274 -1.1355
    1SAPS  C317  127   6.078   4.238   5.266 -0.3555 -0.4176 -0.2235
    1SAPS  H17X  128   6.177   4.201   5.232  0.5230  1.2251  0.4358
    1SAPS  H17Y  129   6.102   4.324   5.332  1.4897 -0.4264 -0.8263
    1SAPS  C318  130   6.015   4.310   5.145 -0.0377 -0.2925  0.4217
    1SAPS  H18X  131   5.959   4.242   5.077  1.7569 -1.5243  0.0891
    1SAPS  H18Y  132   6.089   4.366   5.084 -1.0722 -1.8027 -2.4023
    1SAPS  H18Z  133   5.945   4.390   5.177 -2.9701 -1.8400 -1.6119
    2SAPS     N  134   5.252   4.896   7.657  0.1970  1.0258 -0.2913
    2SAPS   HN1  135   5.154   4.867   7.675  0.9168 -2.0025 -0.6482
    2SAPS   HN2  136   5.259   4.900   7.553  0.3217 -2.5672 -0.5705
    2SAPS   HN3  137   5.323   4.829   7.694  0.2594 -0.0661 -2.2298
    2SAPS   C12  138   5.282   5.034   7.696 -0.6485  0.9363  0.2927
    2SAPS  H12A  139   5.319   5.027   7.797  0.5192  0.6597 -0.1327
    2SAPS   C13  140   5.404   5.093   7.618 -0.5080  0.7940 -0.2270
    2SAPS  O13A  141   5.484   5.017   7.554  0.6392 -0.2777  0.3095
    2SAPS  O13B  142   5.444   5.204   7.658 -0.2319 -0.1050 -0.0463
    2SAPS   C11  143   5.163   5.130   7.688 -0.2438 -0.6933  0.2529
    2SAPS  H11A  144   5.142   5.146   7.581 -1.1591 -1.7732  0.2516
    2SAPS  H11B  145   5.194   5.230   7.727 -0.5273 -0.4034 -0.2582
    2SAPS     P  146   4.931   5.201   7.790  0.3354 -0.1316 -0.1112
    2SAPS   O13  147   4.839   5.151   7.895  0.2322  0.9849  0.6929
    2SAPS   O14  148   4.997   5.328   7.824 -0.2163 -0.2813 -0.2712
    2SAPS   O12  149   5.044   5.096   7.754  0.7077  0.0442 -0.4164
    2SAPS   O11  150   4.854   5.217   7.657  0.1146  0.3301  0.3752
    2SAPS    C1  151   4.774   5.117   7.607  0.1766  0.7879  0.4796
    2SAPS    HA  152   4.770   5.031   7.676  0.6799  0.1972 -0.2082
    2SAPS    HB  153   4.669   5.153   7.609 -0.2066 -0.1701 -0.7564
    2SAPS    C2  154   4.808   5.077   7.464  0.3181 -0.2390  0.1240
    2SAPS    HS  155   4.873   4.988   7.478  0.5451 -0.1231 -0.1612
    2SAPS   O21  156   4.893   5.171   7.401  0.1743 -0.8251  0.2760
    2SAPS   C21  157   4.963   5.134   7.291 -0.0220  0.0679 -0.4175
    2SAPS   O22  158   4.976   5.020   7.253  0.2735  0.0354 -0.4261
    2SAPS   C22  159   5.033   5.257   7.224  0.7995  0.1907 -0.6793
    2SAPS   H2R  160   4.959   5.316   7.166  0.3388 -0.4023 -0.7044
    2SAPS   H2S  161   5.087   5.319   7.299 -0.3914  2.5524 -1.6676
    2SAPS    C3  162   4.677   5.044   7.387  0.4852 -0.0086  0.9296
    2SAPS    HX  163   4.630   5.145   7.390  0.5340  0.0498  0.0238
    2SAPS    HY  164   4.615   4.975   7.447  0.0801 -0.2315  0.2600
    2SAPS   O31  165   4.686   5.019   7.246 -0.0953 -0.2253  0.1438
    2SAPS   C31  166   4.698   4.894   7.208  0.5541  0.6649 -0.2432
    2SAPS   O32  167   4.693   4.797   7.284  0.4094 -0.3012 -0.0811
    2SAPS   C32  168   4.715   4.874   7.061 -0.2065 -0.1168  0.8901
    2SAPS   H2X  169   4.628   4.808   7.042 -0.3618  0.1760  0.5860
    2SAPS   H2Y  170   4.816   4.831   7.040 -0.3782 -0.0068 -0.1686
    2SAPS   C23  171   5.154   5.222   7.131 -0.5266 -0.1853  0.2852
    2SAPS   H3R  172   5.225   5.164   7.194  0.6046 -0.7541 -1.4477
    2SAPS   H3S  173   5.206   5.319   7.117  0.1561 -0.6239 -0.3125
    2SAPS   C24  174   5.120   5.167   6.991  0.1794  0.5160 -0.4965
    2SAPS   H4R  175   5.073   5.066   6.999  0.5897  0.1598 -2.2506
    2SAPS   H4S  176   5.214   5.142   6.937  0.7812  0.2356  0.6430
    2SAPS   C25  177   5.035   5.248   6.905 -0.3504  0.1615 -0.5097
    2SAPS   H5R  178   4.934   5.257   6.948 -0.5247 -3.3526  0.1328
    2SAPS   C26  179   5.059   5.287   6.779  0.1206  0.1492 -0.4675
    2SAPS   H6R  180   4.980   5.346   6.730  0.0883  1.7861  1.4688
    2SAPS   C27  181   5.179   5.259   6.691  0.6090  0.0433 -0.1147
    2SAPS   H7R  182   5.175   5.150   6.669 -0.6017 -0.3789  1.9929
    2SAPS   H7S  183   5.261   5.289   6.758  1.5551 -0.1982 -1.1346
    2SAPS   C28  184   5.181   5.353   6.566  0.2812  0.4299 -0.6211
    2SAPS   H8R  185   5.194   5.459   6.592 -0.8476  0.7173 -1.1803
    2SAPS   C29  186   5.178   5.318   6.437  0.6532 -0.4512 -0.2102
    2SAPS   H9R  187   5.183   5.398   6.362 -1.1516 -1.1998 -1.1903
    2SAPS  C210  188   5.158   5.179   6.381  0.2537  0.2397  0.7727
    2SAPS  H10R  189   5.130   5.110   6.463  0.8877 -1.0085 -0.0301
    2SAPS  H10S  190   5.257   5.146   6.344  0.0122 -1.2112  1.3648
    2SAPS  C211  191   5.043   5.176   6.284 -0.0193  0.4925  0.2454
    2SAPS  H11R  192   4.944   5.168   6.331 -0.9102  1.9041 -1.2681
    2SAPS  C212  193   5.048   5.186   6.149  0.9504  0.4515 -0.9965
    2SAPS  H12R  194   4.958   5.169   6.088  0.3203 -0.2076  0.0860
    2SAPS  C213  195   5.167   5.206   6.070 -0.1350 -0.5209  0.5344
    2SAPS  H13R  196   5.195   5.123   6.002 -1.1245  1.3350 -2.3124
    2SAPS  H13S  197   5.256   5.208   6.137  0.8233 -1.4484 -0.6771
    2SAPS  C214  198   5.159   5.332   5.982 -0.1771 -0.0320 -0.6647
    2SAPS  H14R  199   5.090   5.396   6.039  0.5052 -0.9732  1.3303
    2SAPS  C215  200   5.216   5.353   5.858  0.1669  0.7815 -0.2800
    2SAPS  H15R  201   5.205   5.454   5.818  1.1516  1.2947  0.6728
    2SAPS  C216  202   5.300   5.248   5.789 -0.4665 -0.0230  0.0470
    2SAPS  H16R  203   5.328   5.150   5.833  1.3111  0.2090 -0.5222
    2SAPS  H16S  204   5.395   5.295   5.756 -0.0266 -1.3691 -0.6885
    2SAPS  C217  205   5.242   5.220   5.649 -0.3736  0.3684  1.1496
    2SAPS  H17R  206   5.139   5.180   5.654 -0.5486  0.6630  0.2167
    2SAPS  H17S  207   5.303   5.137   5.607 -1.4851 -0.0535  0.3266
    2SAPS  C218  208   5.244   5.336   5.543  0.5805  0.0665  0.2980
    2SAPS  H18R  209   5.341   5.387   5.554 -0.3766  2.3084 -0.9950
    2SAPS  H18S  210   5.161   5.406   5.565  0.0902 -0.5059  0.3165
    2SAPS  C219  211   5.238   5.286   5.397  0.1487  0.3372  0.5387
    2SAPS  H19R  212   5.148   5.223   5.383 -2.4653  4.0142 -0.9903
    2SAPS  H19S  213   5.331   5.226   5.385 -1.6917 -2.5527 -0.4391
    2SAPS  C220  214   5.217   5.393   5.297  0.1864  0.9732  0.1395
    2SAPS  H20R  215   5.314   5.444   5.281  0.5495  0.2755  0.0623
    2SAPS  H20S  216   5.137   5.461   5.333 -0.5557  1.6579 -2.5871
    2SAPS  H20T  217   5.196   5.356   5.194 -0.5631  0.0356  0.6101
    2SAPS   C33  218   4.722   5.016   6.985  0.0624  0.4421  0.8475
    2SAPS   H3X  219   4.810   5.074   7.021  2.4999 -1.9504 -0.9009
    2SAPS   H3Y  220   4.627   5.071   7.002 -0.1094  0.2238  0.6037
    2SAPS   C34  221   4.737   4.998   6.830 -0.6214  0.2441  0.0497
    2SAPS   H4X  222   4.752   5.095   6.779 -0.3718 -0.6826 -1.7190
    2SAPS   H4Y  223   4.642   4.963   6.783  0.2467 -0.4047 -1.2863
    2SAPS   C35  224   4.851   4.916   6.785 -0.6914 -0.8451  0.4346
    2SAPS   H5X  225   4.841   4.813   6.825  1.3362 -0.3092  2.5063
    2SAPS   H5Y  226   4.938   4.977   6.819 -1.1801  1.5329 -2.1836
    2SAPS   C36  227   4.883   4.909   6.632 -0.4477 -0.1852  0.2343
    2SAPS   H6X  228   4.986   4.871   6.613  0.3412  1.6839  0.5174
    2SAPS   H6Y  229   4.883   5.013   6.592 -1.0357 -0.0654  0.5470
    2SAPS   C37  230   4.774   4.841   6.550  0.4625  1.0391 -0.1677
    2SAPS   H7X  231   4.674   4.874   6.586  0.2541  1.6107 -1.2522
    2SAPS   H7Y  232   4.788   4.731   6.555 -0.2056  0.9856  0.9045
    2SAPS   C38  233   4.791   4.861   6.396 -0.4424 -0.0317  0.1491
    2SAPS   H8X  234   4.782   4.966   6.361 -0.9696  0.0993  0.6577
    2SAPS   H8Y  235   4.704   4.804   6.358  0.2919 -0.9491 -0.2004
    2SAPS   C39  236   4.927   4.814   6.342  0.2337  0.0247 -0.7114
    2SAPS   H9X  237   4.963   4.737   6.414  2.0309  1.6658  0.2522
    2SAPS   H9Y  238   5.001   4.896   6.352 -0.4239  0.5755 -0.3239
    2SAPS  C310  239   4.932   4.735   6.215  0.5157 -0.1311 -0.0704
    2SAPS  H10X  240   4.840   4.674   6.201  0.6062 -0.3494  0.2727
    2SAPS  H10Y  241   5.013   4.659   6.210 -0.6156 -1.3941  0.1487
    2SAPS  C311  242   4.944   4.819   6.083  0.6821 -0.0578  0.0602
    2SAPS  H11X  243   5.034   4.883   6.089 -1.0598  2.7556 -1.5529
    2SAPS  H11Y  244   4.855   4.886   6.087  1.6092  1.2337 -0.2105
    2SAPS  C312  245   4.939   4.736   5.955 -0.7843  0.0187 -0.5057
    2SAPS  H12X  246   4.860   4.658   5.956  0.3658 -1.1913 -0.7825
    2SAPS  H12Y  247   5.031   4.673   5.946  0.1667  1.2591  0.2434
    2SAPS  C313  248   4.921   4.823   5.837 -0.2089 -0.4053 -0.7299
    2SAPS  H13X  249   4.995   4.906   5.835 -0.8164  0.4272  3.3658
    2SAPS  H13Y  250   4.825   4.878   5.838  0.1131  0.3310  2.6772
    2SAPS  C314  251   4.954   4.747   5.708 -0.0603 -0.3913  0.1275
    2SAPS  H14X  252   4.888   4.660   5.686  0.1208 -1.1641  2.4022
    2SAPS  H14Y  253   5.058   4.708   5.708  0.6780  1.4397  1.3870
    2SAPS  C315  254   4.941   4.837   5.581  0.3065 -0.1197 -0.4967
    2SAPS  H15X  255   4.996   4.931   5.599 -1.6405  0.5916  2.5950
    2SAPS  H15Y  256   4.833   4.858   5.564  0.4378  0.6206 -0.4483
    2SAPS  C316  257   5.003   4.767   5.450  0.0144  0.2958  1.0794
    2SAPS  H16X  258   5.110   4.738   5.461 -0.2702 -0.0307  3.4020
    2SAPS  H16Y  259   5.006   4.852   5.379 -1.6147 -0.3406  0.1845
    2SAPS  C317  260   4.909   4.656   5.382 -0.2271 -0.9061 -0.9496
    2SAPS  H17X  261   4.885   4.569   5.447 -0.2057 -1.4152 -1.6036
    2SAPS  H17Y  262   4.971   4.612   5.301 -1.3101 -1.3522 -1.5704
    2SAPS  C318  263   4.784   4.713   5.317 -0.6051 -0.5871 -0.5225
    2SAPS  H18X  264   4.745   4.808   5.359  1.7571  0.8855 -1.4215
    2SAPS  H18Y  265   4.695   4.648   5.309 -1.5622  0.6911 -0.5283
    2SAPS  H18Z  266   4.814   4.751   5.216  1.3071 -0.1585  0.1505
    3SAPS     N  267   1.707   3.533   7.524  0.2088 -0.2671 -0.4072
    3SAPS   HN1  268   1.744   3.617   7.573 -0.7321  1.5386 -2.6368
    3SAPS   HN2  269   1.791   3.480   7.491 -0.3200 -0.0172 -2.2728
    3SAPS   HN3  270   1.641   3.568   7.452 -0.2544  1.5042  0.8182
    3SAPS   C12  271   1.632   3.449   7.627  0.5169 -0.7374  0.5578
    3SAPS  H12A  272   1.699   3.426   7.708  1.9308  3.1844  0.6803
    3SAPS   C13  273   1.518   3.538   7.675  0.1745 -0.0906  0.4947
    3SAPS  O13A  274   1.494   3.655   7.633  0.1990 -0.4072  0.2379
    3SAPS  O13B  275   1.454   3.504   7.779 -0.3754 -0.3815  0.3461
    3SAPS   C11  276   1.576   3.317   7.570 -0.8319  0.3469 -0.0460
    3SAPS  H11A  277   1.658   3.264   7.518 -0.6581  0.9074 -0.3572
    3SAPS  H11B  278   1.505   3.344   7.488 -1.4686  3.0365  1.2910
    3SAPS     P  279   1.586   3.101   7.726  0.0651  0.0820 -0.3968
    3SAPS   O13  280   1.714   3.147   7.780 -0.5083  0.1360  0.7249
    3SAPS   O14  281   1.498   3.036   7.824  0.2425 -0.4680  0.0106
    3SAPS   O12  282   1.515   3.233   7.670  0.4483  1.0157 -0.0448
    3SAPS   O11  283   1.603   3.015   7.594  0.3600 -0.3394  0.0492
    3SAPS    C1  284   1.506   2.929   7.540  0.4611  0.0337 -0.2410
    3SAPS    HA  285   1.552   2.829   7.556  1.2593  0.6275  1.4026
    3SAPS    HB  286   1.412   2.920   7.599  0.1652  0.0339 -0.7085
    3SAPS    C2  287   1.466   2.959   7.394  0.2401  0.5793  0.3886
    3SAPS    HS  288   1.563   2.966   7.340 -0.0001 -0.0397 -0.1338
    3SAPS   O21  289   1.386   3.077   7.394  0.7824 -0.3243  0.0139
    3SAPS   C21  290   1.406   3.161   7.292 -0.6342 -0.2930 -1.1215
    3SAPS   O22  291   1.504   3.156   7.219  0.2140  0.0360  0.6480
    3SAPS   C22  292   1.285   3.254   7.291  0.1954  0.5476 -0.3001
    3SAPS   H2R  293   1.191   3.194   7.289 -0.1706  1.0658  0.6716
    3SAPS   H2S  294   1.286   3.314   7.385  1.1316 -1.9805  1.3785
    3SAPS    C3  295   1.386   2.845   7.327  0.0463  0.3337 -0.5867
    3SAPS    HX  296   1.285   2.837   7.374 -1.6521 -0.1365 -3.9842
    3SAPS    HY  297   1.426   2.742   7.342 -1.1801 -0.3118 -1.5812
    3SAPS   O31  298   1.362   2.873   7.186  0.2423 -0.0457  0.5612
    3SAPS   C31  299   1.463   2.846   7.112 -0.5590 -0.5431 -0.0742
    3SAPS   O32  300   1.574   2.809   7.145  0.0836 -0.1777  0.2799
    3SAPS   C32  301   1.431   2.879   6.964  0.1192 -0.8123 -0.7721
    3SAPS   H2X  302   1.418   2.989   6.969  2.0934 -0.5537 -0.3325
    3SAPS   H2Y  303   1.332   2.836   6.938 -1.3596  0.3186  2.4578
    3SAPS   C23  304   1.285   3.350   7.169  0.1744 -0.3809 -0.1647
    3SAPS   H3R  305   1.291   3.291   7.076  0.7276 -1.6768  0.6609
    3SAPS   H3S  306   1.376   3.413   7.176  0.2610  0.0760 -3.6664
    3SAPS   C24  307   1.156   3.434   7.157  0.0675 -0.0637  0.2890
    3SAPS   H4R  308   1.152   3.485   7.256 -0.8020 -3.0483  1.9160
    3SAPS   H4S  309   1.057   3.385   7.143 -0.4108  1.0115 -0.1696
    3SAPS   C25  310   1.199   3.530   7.055  0.5088  0.5124  0.2057
    3SAPS   H5R  311   1.281   3.601   7.072 -0.4495  2.3858 -2.4368
    3SAPS   C26  312   1.123   3.558   6.941  0.2845  0.2756  0.1514
    3SAPS   H6R  313   1.171   3.631   6.874  0.3356 -0.4929 -0.6654
    3SAPS   C27  314   0.993   3.498   6.885  0.1497 -0.1155  0.1225
    3SAPS   H7R  315   0.930   3.446   6.961 -0.7871  0.6896 -0.0723
    3SAPS   H7S  316   1.027   3.420   6.814  0.8652  1.2251 -1.0368
    3SAPS   C28  317   0.908   3.605   6.817  0.0472 -0.1578  0.7155
    3SAPS   H8R  318   0.856   3.669   6.889 -0.3758 -0.4223  0.6557
    3SAPS   C29  319   0.884   3.623   6.683  0.2733 -0.1972 -0.0492
    3SAPS   H9R  320   0.812   3.700   6.651  0.3307 -0.2720 -0.3521
    3SAPS  C210  321   0.933   3.543   6.568  0.1298  0.5160  1.2440
    3SAPS  H10R  322   0.850   3.506   6.504 -0.6236 -0.0211  2.4724
    3SAPS  H10S  323   0.983   3.452   6.608  1.1765  0.4705 -0.1290
    3SAPS  C211  324   1.029   3.628   6.498 -0.3780  0.1279  0.0510
    3SAPS  H11R  325   1.119   3.657   6.555 -1.0727  2.3994  0.0986
    3SAPS  C212  326   1.026   3.642   6.363  0.0820  0.2815 -0.4138
    3SAPS  H12R  327   1.107   3.698   6.315  0.2143 -0.3826 -0.9734
    3SAPS  C213  328   0.916   3.602   6.265  0.0590  0.3474 -0.0127
    3SAPS  H13R  329   0.828   3.667   6.248 -0.2503 -0.0587  0.0265
    3SAPS  H13S  330   0.856   3.517   6.304 -0.5729  0.8651  0.1642
    3SAPS  C214  331   0.971   3.563   6.130  0.2277  0.8423 -0.0190
    3SAPS  H14R  332   1.045   3.482   6.140  1.8841  2.4592  1.5479
    3SAPS  C215  333   0.962   3.631   6.013 -0.2822 -0.3493 -0.2282
    3SAPS  H15R  334   1.000   3.592   5.918  1.3436  0.4445  0.0612
    3SAPS  C216  335   0.874   3.754   5.991 -0.3529  0.6715  0.1846
    3SAPS  H16R  336   0.919   3.840   6.044  0.4614  1.2488 -1.3952
    3SAPS  H16S  337   0.770   3.733   6.025 -0.3065 -2.2016 -1.1145
    3SAPS  C217  338   0.873   3.798   5.845 -0.4933  0.1261 -0.2919
    3SAPS  H17R  339   0.974   3.835   5.816  0.6624  0.5109  3.6353
    3SAPS  H17S  340   0.797   3.878   5.835  1.5676  2.0191 -2.1751
    3SAPS  C218  341   0.826   3.697   5.739 -0.2065  0.1534  0.2159
    3SAPS  H18R  342   0.725   3.658   5.759 -0.0227 -1.0559 -1.0839
    3SAPS  H18S  343   0.900   3.616   5.721 -1.3679 -0.7500 -0.6135
    3SAPS  C219  344   0.815   3.765   5.592  0.1961  0.4544  0.2986
    3SAPS  H19R  345   0.779   3.870   5.601 -1.1542  0.0338 -0.0048
    3SAPS  H19S  346   0.922   3.766   5.561  0.2573 -1.9539  0.2461
    3SAPS  C220  347   0.730   3.702   5.486  0.2080 -0.5004  0.5640
    3SAPS  H20R  348   0.766   3.601   5.460 -0.2864 -0.9520  1.5872
    3SAPS  H20S  349   0.731   3.765   5.394  2.4134 -1.5932 -0.2083
    3SAPS  H20T  350   0.621   3.702   5.511  0.0251 -0.8014 -0.2019
    3SAPS   C33  351   1.547   2.831   6.877 -0.0167 -0.3206 -0.5220
    3SAPS   H3X  352   1.615   2.762   6.932  0.4260  1.4150  1.2089
    3SAPS   H3Y  353   1.616   2.917   6.875  0.0642 -0.3848 -0.4992
    3SAPS   C34  354   1.507   2.785   6.739 -0.7342 -0.7118  0.7160
    3SAPS   H4X  355   1.428   2.708   6.743 -2.3864  0.7362 -1.5871
    3SAPS   H4Y  356   1.604   2.744   6.704 -0.3212  0.5072  0.3500
    3SAPS   C35  357   1.477   2.907   6.653 -0.2776 -0.4506 -1.0760
    3SAPS   H5X  358   1.369   2.922   6.675  0.3725  0.7442  1.7651
    3SAPS   H5Y  359   1.533   2.998   6.685 -1.8549  0.4651 -0.8320
    3SAPS   C36  360   1.486   2.881   6.506 -0.2810  1.1092  0.8488
    3SAPS   H6X  361   1.416   2.798   6.482  1.4492 -0.3127  0.5516
    3SAPS   H6Y  362   1.587   2.843   6.479 -1.7570 -2.0452 -0.8122
    3SAPS   C37  363   1.442   2.995   6.415  0.2705 -0.1276  0.5435
    3SAPS   H7X  364   1.521   3.073   6.424 -0.2826  0.6455 -0.9279
    3SAPS   H7Y  365   1.339   3.029   6.439  0.0279  0.5574 -1.2476
    3SAPS   C38  366   1.442   2.957   6.260  0.2857 -0.4409 -0.9679
    3SAPS   H8X  367   1.367   2.876   6.246  0.0324 -0.9263  2.2849
    3SAPS   H8Y  368   1.545   2.919   6.248  0.8563  0.5230  0.5303
    3SAPS   C39  369   1.413   3.087   6.175 -0.2678 -0.6613 -0.0691
    3SAPS   H9X  370   1.510   3.140   6.164 -0.2991 -1.0419 -2.9549
    3SAPS   H9Y  371   1.345   3.157   6.230  0.3859  0.7346 -0.9861
    3SAPS  C310  372   1.345   3.067   6.038  0.4412  0.6484 -0.3529
    3SAPS  H10X  373   1.315   3.157   5.980 -2.0478 -1.3990 -2.5572
    3SAPS  H10Y  374   1.267   2.988   6.039 -0.6896  1.7268 -0.5339
    3SAPS  C311  375   1.456   3.004   5.945  0.6318  0.0962  0.5061
    3SAPS  H11X  376   1.524   2.935   5.998  1.2072 -0.8078 -1.3216
    3SAPS  H11Y  377   1.512   3.092   5.906 -0.0073  0.1247 -0.3902
    3SAPS  C312  378   1.413   2.925   5.816 -0.7964 -0.6200 -0.8563
    3SAPS  H12X  379   1.342   2.979   5.749  0.2131  0.3496 -1.1693
    3SAPS  H12Y  380   1.368   2.830   5.852 -1.3522  0.0587  0.3022
    3SAPS  C313  381   1.540   2.893   5.739 -0.5740 -0.1678  0.8560
    3SAPS  H13X  382   1.610   2.841   5.809 -2.0390 -1.4369  1.4384
    3SAPS  H13Y  383   1.582   2.995   5.724 -2.6904  0.8966  1.8340
    3SAPS  C314  384   1.526   2.809   5.615  0.2542  0.4055  0.6585
    3SAPS  H14X  385   1.454   2.851   5.541  1.4090  0.4630 -0.4626
    3SAPS  H14Y  386   1.494   2.707   5.647  2.3558 -0.3269  0.5968
    3SAPS  C315  387   1.654   2.780   5.548 -0.2644 -0.0458 -0.1109
    3SAPS  H15X  388   1.717   2.722   5.618 -1.2624 -1.0904 -0.0428
    3SAPS  H15Y  389   1.706   2.878   5.540 -0.1838  0.0937  1.7332
    3SAPS  C316  390   1.646   2.704   5.415 -0.3567  0.2057 -1.0205
    3SAPS  H16X  391   1.582   2.614   5.411  0.2819 -0.2337 -1.5696
    3SAPS  H16Y  392   1.747   2.664   5.390  0.2473  0.9727  0.0663
    3SAPS  C317  393   1.619   2.795   5.296  0.2627 -0.2960  0.0752
    3SAPS  H17X  394   1.703   2.860   5.264 -0.9672  2.0626  1.3808
    3SAPS  H17Y  395   1.542   2.871   5.322 -0.1661 -0.9474  0.7712
    3SAPS  C318  396   1.562   2.708   5.186  0.4720 -0.5315 -1.1328
    3SAPS  H18X  397   1.491   2.638   5.234  0.0696  2.0268  2.4605
    3SAPS  H18Y  398   1.641   2.642   5.145 -0.3893 -2.7367  0.5973
    3SAPS  H18Z  399   1.522   2.757   5.095 -0.3027 -0.1662 -0.6121
    4SAPS     N  400   5.005   3.343   7.853 -0.3427 -0.2568 -0.3015
    4SAPS   HN1  401   5.044   3.439   7.861  0.3533 -0.5152 -0.5062
    4SAPS   HN2  402   5.045   3.306   7.765 -0.3368 -0.7916 -0.0825
    4SAPS   HN3  403   4.901   3.335   7.852 -0.2218 -2.6709 -0.4363
    4SAPS   C12  404   5.048   3.254   7.960  0.0782  0.0439 -0.3184
    4SAPS  H12A  405   5.156   3.250   7.967  0.0672  0.2349 -0.0460
    4SAPS   C13  406   5.002   3.306   8.099  0.4781 -0.7011 -0.3323
    4SAPS  O13A  407   4.951   3.417   8.109 -0.3306  0.3696  1.1126
    4SAPS  O13B  408   5.030   3.237   8.202  0.3444 -0.4785 -0.1576
    4SAPS   C11  409   4.987   3.108   7.946 -0.2457 -0.4136 -0.7187
    4SAPS  H11A  410   4.879   3.094   7.968 -0.0871 -0.7277 -0.1276
    4SAPS  H11B  411   5.035   3.038   8.018 -1.4900  1.0375  1.6431
    4SAPS     P  412   5.131   2.988   7.768  0.3040 -0.3866 -0.4288
    4SAPS   O13  413   5.174   2.898   7.877 -0.7563  0.5346  0.4716
    4SAPS   O14  414   5.114   2.930   7.630  0.2999  0.5792 -0.2483
    4SAPS   O12  415   5.000   3.057   7.811  0.5257 -0.5126  0.1244
    4SAPS   O11  416   5.239   3.107   7.762 -0.2395  0.6228 -0.3878
    4SAPS    C1  417   5.371   3.072   7.725 -0.4036 -0.2239  0.6335
    4SAPS    HA  418   5.438   3.113   7.803 -0.7504  0.0571  0.7830
    4SAPS    HB  419   5.399   2.964   7.724 -0.0217 -0.2199 -3.0293
    4SAPS    C2  420   5.398   3.131   7.588 -0.0634  0.5895  0.3515
    4SAPS    HS  421   5.337   3.223   7.581 -3.6101 -1.6706 -1.1716
    4SAPS   O21  422   5.374   3.040   7.482 -0.5388  0.8964  0.1524
    4SAPS   C21  423   5.317   3.085   7.378  0.0437 -0.3369 -0.3322
    4SAPS   O22  424   5.275   3.198   7.366  0.3800 -0.2360  0.3940
    4SAPS   C22  425   5.311   2.975   7.269 -1.1800  0.3885 -0.1546
    4SAPS   H2R  426   5.415   2.935   7.266 -0.5025  2.0738 -1.1227
    4SAPS   H2S  427   5.242   2.901   7.315 -0.4210 -1.0984 -1.3386
    4SAPS    C3  428   5.544   3.186   7.567 -0.4488 -0.4188 -1.3399
    4SAPS    HX  429   5.615   3.101   7.569 -1.1121 -1.0236  1.7000
    4SAPS    HY  430   5.564   3.250   7.655  1.9102 -0.8386 -1.5207
    4SAPS   O31  431   5.562   3.257   7.447 -0.0587 -0.4234  0.0219
    4SAPS   C31  432   5.527   3.383   7.435  0.7434 -0.1763  0.7874
    4SAPS   O32  433   5.469   3.455   7.522 -0.4709 -0.5859  0.0516
    4SAPS   C32  434   5.571   3.437   7.293 -0.1802 -0.0749 -0.1867
    4SAPS   H2X  435   5.503   3.388   7.220  1.4378 -0.3759 -1.5419
    4SAPS   H2Y  436   5.673   3.398   7.274 -0.4508 -2.1594  2.1429
    4SAPS   C23  437   5.249   3.021   7.141  0.4315 -0.8949 -0.1050
    4SAPS   H3R  438   5.154   3.078   7.150  1.1804  0.4196 -0.1378
    4SAPS   H3S  439   5.221   2.937   7.075  0.6090 -0.9764 -0.0783
    4SAPS   C24  440   5.344   3.117   7.061  0.7007  0.6749  0.2269
    4SAPS   H4R  441   5.377   3.191   7.138  0.6314 -0.7739  1.7113
    4SAPS   H4S  442   5.284   3.160   6.978  1.5658 -1.2006 -1.4595
    4SAPS   C25  443   5.463   3.044   7.006 -0.1477 -0.1199 -0.0839
    4SAPS   H5R  444   5.523   3.001   7.088  0.2778  0.4956 -0.0688
    4SAPS   C26  445   5.488   3.011   6.873 -0.2143  0.1841 -0.2094
    4SAPS   H6R  446   5.587   2.967   6.855 -0.0139  0.3674  0.4113
    4SAPS   C27  447   5.404   3.051   6.754 -0.0106  0.6494 -0.5161
    4SAPS   H7R  448   5.299   3.048   6.789  0.8578  0.0362  2.3105
    4SAPS   H7S  449   5.411   2.997   6.657 -2.3353 -0.6933 -0.0051
    4SAPS   C28  450   5.438   3.193   6.720 -0.2409  0.8082 -0.3333
    4SAPS   H8R  451   5.367   3.266   6.761  1.0914  1.0721  1.6234
    4SAPS   C29  452   5.550   3.237   6.654 -0.1971  0.1048 -0.0748
    4SAPS   H9R  453   5.568   3.343   6.631  0.6307  0.2023  0.9807
    4SAPS  C210  454   5.655   3.153   6.598 -0.2105 -0.3031  0.6632
    4SAPS  H10R  455   5.648   3.045   6.622  0.8879 -1.0511 -2.0224
    4SAPS  H10S  456   5.758   3.180   6.629  0.6615 -2.8393  0.2284
    4SAPS  C211  457   5.667   3.169   6.446  0.0750 -0.6374  0.5009
    4SAPS  H11R  458   5.743   3.243   6.413 -0.7261  0.1023  0.2805
    4SAPS  C212  459   5.615   3.100   6.340  0.0257 -0.6109  0.0064
    4SAPS  H12R  460   5.636   3.132   6.238 -0.1700  0.7374  0.3704
    4SAPS  C213  461   5.516   2.982   6.343  0.6020 -0.4978  0.7460
    4SAPS  H13R  462   5.502   2.951   6.449 -0.1346  1.0452  1.1220
    4SAPS  H13S  463   5.566   2.906   6.279 -0.4072  0.5098 -1.3333
    4SAPS  C214  464   5.379   3.021   6.281 -0.7788 -0.0949 -0.0196
    4SAPS  H14R  465   5.315   3.084   6.345  0.2130 -0.8011  1.7426
    4SAPS  C215  466   5.332   2.976   6.156 -0.1370  0.3826 -0.2877
    4SAPS  H15R  467   5.241   3.019   6.112 -0.7800  0.0428  0.6936
    4SAPS  C216  468   5.405   2.884   6.056  0.2071 -0.0613 -0.0011
    4SAPS  H16R  469   5.344   2.797   6.025  2.1849 -1.6967  0.4507
    4SAPS  H16S  470   5.496   2.840   6.101  0.6135  0.1638 -0.5841
    4SAPS  C217  471   5.445   2.958   5.927  0.3801 -0.3863  0.5919
    4SAPS  H17R  472   5.367   3.033   5.900  0.6870  0.9703  3.1607
    4SAPS  H17S  473   5.457   2.884   5.845 -0.8084 -0.3949  0.4045
    4SAPS  C218  474   5.576   3.040   5.945 -0.1175  0.2129 -0.1922
    4SAPS  H18R  475   5.663   2.977   5.972  0.1279  0.0302 -1.3387
    4SAPS  H18S  476   5.545   3.105   6.030 -0.1578 -0.6845  0.4871
    4SAPS  C219  477   5.608   3.128   5.823  0.0287 -0.0721  0.2641
    4SAPS  H19R  478   5.669   3.214   5.857 -0.8460  0.8517 -0.4394
    4SAPS  H19S  479   5.512   3.170   5.784  0.3320 -1.0540 -1.6604
    4SAPS  C220  480   5.664   3.045   5.709 -0.1652  0.0958 -0.4176
    4SAPS  H20R  481   5.767   3.022   5.744 -0.2309  1.8609  1.0994
    4SAPS  H20S  482   5.646   3.106   5.618  1.7066  1.5091  0.1007
    4SAPS  H20T  483   5.602   2.953   5.707  0.8075 -0.5672 -0.9741
    4SAPS   C33  484   5.572   3.593   7.284 -0.0672 -0.1759 -0.2930
    4SAPS   H3X  485   5.645   3.635   7.356 -1.3508  1.7435 -0.0362
    4SAPS   H3Y  486   5.477   3.649   7.300 -0.0219 -0.2052  0.0770
    4SAPS   C34  487   5.627   3.640   7.143  0.0656 -0.1812 -0.0195
    4SAPS   H4X  488   5.627   3.751   7.147  1.0264 -0.2015  2.7082
    4SAPS   H4Y  489   5.556   3.603   7.065 -1.6384 -0.2080  1.4633
    4SAPS   C35  490   5.772   3.596   7.115 -0.0391  0.4512  0.7422
    4SAPS   H5X  491   5.790   3.486   7.117  0.4037  0.5145  0.3473
    4SAPS   H5Y  492   5.844   3.630   7.193 -3.3659 -0.1768  4.3992
    4SAPS   C36  493   5.827   3.651   6.981  0.2939 -0.7818  0.1231
    4SAPS   H6X  494   5.934   3.623   6.975 -0.4041 -3.5363 -1.3062
    4SAPS   H6Y  495   5.805   3.760   6.982 -1.7148 -1.1521  1.1546
    4SAPS   C37  496   5.764   3.580   6.858 -0.1196 -0.4154  0.1932
    4SAPS   H7X  497   5.654   3.599   6.866  0.3633  2.3181  1.4933
    4SAPS   H7Y  498   5.776   3.470   6.862 -0.2848 -0.4082  1.3503
    4SAPS   C38  499   5.817   3.643   6.729  0.4666 -0.3790 -0.4314
    4SAPS   H8X  500   5.922   3.608   6.713  0.7234 -0.3119  0.9839
    4SAPS   H8Y  501   5.822   3.753   6.740  0.5752 -0.4946  0.8524
    4SAPS   C39  502   5.739   3.592   6.608  0.5000  0.3339 -0.2020
    4SAPS   H9X  503   5.633   3.625   6.615 -0.1479 -1.8137  0.7878
    4SAPS   H9Y  504   5.752   3.482   6.611  0.0320  0.2885  0.3193
    4SAPS  C310  505   5.794   3.643   6.482 -0.5208 -0.4025 -0.0110
    4SAPS  H10X  506   5.903   3.625   6.477 -0.1461  0.6888  2.4288
    4SAPS  H10Y  507   5.799   3.754   6.491  4.1231 -0.4489  0.2812
    4SAPS  C311  508   5.717   3.592   6.362 -0.2253  0.5790 -0.8520
    4SAPS  H11X  509   5.615   3.636   6.357 -1.4199 -2.1115 -1.6385
    4SAPS  H11Y  510   5.723   3.482   6.367  0.6292  0.6524  0.0455
    4SAPS  C312  511   5.781   3.630   6.227 -0.0544 -1.1042 -0.1523
    4SAPS  H12X  512   5.875   3.574   6.205 -1.0678 -1.8468 -2.9151
    4SAPS  H12Y  513   5.801   3.739   6.226  1.6650 -1.3495 -2.7402
    4SAPS  C313  514   5.697   3.587   6.105  0.0521  0.4720  0.2806
    4SAPS  H13X  515   5.591   3.616   6.116 -0.7122 -1.8426 -0.4431
    4SAPS  H13Y  516   5.696   3.477   6.098  0.4830  0.5727 -2.1841
    4SAPS  C314  517   5.756   3.637   5.973 -0.7304  0.2365 -0.1594
    4SAPS  H14X  518   5.865   3.615   5.965 -0.3307  1.6793  0.7915
    4SAPS  H14Y  519   5.749   3.748   5.967 -0.3619  0.1892 -4.2606
    4SAPS  C315  520   5.673   3.578   5.857  0.3571 -0.5164 -0.3270
    4SAPS  H15X  521   5.568   3.608   5.875  0.2378 -1.6430  1.0015
    4SAPS  H15Y  522   5.666   3.469   5.876 -1.4276 -0.2105  1.0440
    4SAPS  C316  523   5.715   3.622   5.722 -0.1074 -0.1178  0.0705
    4SAPS  H16X  524   5.822   3.600   5.700  0.9399  0.4512  3.8683
    4SAPS  H16Y  525   5.734   3.732   5.723  0.1483 -0.1586  1.2112
    4SAPS  C317  526   5.609   3.606   5.607  0.2659 -0.1481 -0.6517
    4SAPS  H17X  527   5.522   3.673   5.623  1.1015  1.4400 -2.4000
    4SAPS  H17Y  528   5.588   3.497   5.603  4.3469 -1.1119 -0.9128
    4SAPS  C318  529   5.666   3.629   5.461 -0.0614  0.3860  0.2849
    4SAPS  H18X  530   5.701   3.733   5.443  0.3693  0.0132 -1.1518
    4SAPS  H18Y  531   5.581   3.613   5.391  0.4825  2.7427 -1.0104
    4SAPS  H18Z  532   5.741   3.554   5.426 -1.2487 -0.1813 -1.1687
    5SAPS     N  533   1.256   3.692   7.756  0.5316  0.4055 -1.0301
    5SAPS   HN1  534   1.282   3.790   7.781  0.2139  0.7946 -2.1684
    5SAPS   HN2  535   1.327   3.621   7.781  0.2188  0.2226 -0.6616
    5SAPS   HN3  536   1.241   3.704   7.654  1.0935  1.1406 -1.0365
    5SAPS   C12  537   1.132   3.646   7.822  0.1947 -0.0259  0.6824
    5SAPS  H12A  538   1.120   3.548   7.777 -0.5451  0.3450  0.0586
    5SAPS   C13  539   1.134   3.631   7.976 -0.5015  0.4343 -0.1660
    5SAPS  O13A  540   1.231   3.655   8.050  0.1556  0.0654  0.0430
    5SAPS  O13B  541   1.026   3.599   8.031  0.2112 -0.7514 -0.8081
    5SAPS   C11  542   1.019   3.744   7.793  0.0237  0.3571 -0.4417
    5SAPS  H11A  543   1.053   3.844   7.828  2.6524 -0.9611  1.0749
    5SAPS  H11B  544   0.935   3.716   7.860  0.0769  1.4081  0.0877
    5SAPS     P  545   0.846   3.800   7.609 -0.2590 -0.4896  0.4168
    5SAPS   O13  546   0.749   3.689   7.615  0.5144  0.2571  0.6405
    5SAPS   O14  547   0.802   3.920   7.684  0.1229  0.4779 -0.1563
    5SAPS   O12  548   0.989   3.749   7.655  0.1405  0.0414 -0.0584
    5SAPS   O11  549   0.872   3.842   7.458  0.4514  0.2713 -0.0287
    5SAPS    C1  550   0.957   3.755   7.376  0.5108 -0.0190  0.0917
    5SAPS    HA  551   1.047   3.814   7.349  0.7461  1.3180  3.3314
    5SAPS    HB  552   1.003   3.672   7.434  1.0832  0.2704  0.0629
    5SAPS    C2  553   0.889   3.712   7.246  0.3068 -0.1809 -0.1767
    5SAPS    HS  554   0.953   3.643   7.186  0.5246  0.3593 -0.5645
    5SAPS   O21  555   0.856   3.827   7.164  0.3887 -0.1021  0.1742
    5SAPS   C21  556   0.963   3.902   7.129  0.3204  0.4577 -0.6412
    5SAPS   O22  557   1.078   3.864   7.126 -0.4178  0.3328 -0.2762
    5SAPS   C22  558   0.907   4.040   7.086  0.1563 -0.5023 -0.5973
    5SAPS   H2R  559   0.849   4.080   7.173  2.2370  0.0588  0.6039
    5SAPS   H2S  560   0.996   4.105   7.071  0.2832 -1.0859 -2.5346
    5SAPS    C3  561   0.759   3.632   7.260 -0.0686 -0.2116 -0.0487
    5SAPS    HX  562   0.710   3.667   7.354  1.9079  0.9854  0.5934
    5SAPS    HY  563   0.804   3.533   7.285  1.4351  0.6113  0.6286
    5SAPS   O31  564   0.670   3.623   7.145  0.1176  0.6666 -0.0947
    5SAPS   C31  565   0.587   3.726   7.132  0.1511 -0.2962 -0.6720
    5SAPS   O32  566   0.564   3.808   7.222 -0.1040 -0.2361  0.4001
    5SAPS   C32  567   0.515   3.727   7.001  0.7417  0.5065 -0.2244
    5SAPS   H2X  568   0.440   3.646   7.018 -1.0801  1.9584 -0.9366
    5SAPS   H2Y  569   0.589   3.686   6.929  2.0611  0.9621  0.8353
    5SAPS   C23  570   0.809   4.034   6.967  0.6120 -0.1620  0.0302
    5SAPS   H3R  571   0.768   4.135   6.946  0.8759  0.0812  0.6745
    5SAPS   H3S  572   0.725   3.970   7.002 -1.7948  3.6679  1.8006
    5SAPS   C24  573   0.869   3.967   6.840  0.5012  0.1070  0.3194
    5SAPS   H4R  574   0.787   3.925   6.777  0.3061 -0.7956  1.1519
    5SAPS   H4S  575   0.921   3.875   6.877 -2.2332 -0.9753  1.7273
    5SAPS   C25  576   0.959   4.064   6.773  0.0202 -0.2449  0.6614
    5SAPS   H5R  577   1.044   4.094   6.836 -2.7723  6.2250  2.1402
    5SAPS   C26  578   0.951   4.103   6.642  0.2803  0.3448  0.4922
    5SAPS   H6R  579   1.018   4.174   6.592 -1.2177  0.4369 -1.4940
    5SAPS   C27  580   0.848   4.055   6.540 -1.1374  0.8044 -0.1454
    5SAPS   H7R  581   0.797   4.139   6.490 -0.3679  0.6178 -1.2667
    5SAPS   H7S  582   0.781   3.980   6.589  0.7161  0.8683  2.7476
    5SAPS   C28  583   0.923   3.969   6.435 -0.1780  0.0585  0.0117
    5SAPS   H8R  584   0.959   3.872   6.473 -3.0508 -0.8653  0.6497
    5SAPS   C29  585   0.924   3.991   6.299 -0.4769 -0.1552 -0.2716
    5SAPS   H9R  586   0.978   3.918   6.237  1.6114  1.8159 -0.9411
    5SAPS  C210  587   0.871   4.118   6.231  0.5277 -0.1654  0.1668
    5SAPS  H10R  588   0.925   4.208   6.266 -2.8157  2.0150  0.1982
    5SAPS  H10S  589   0.766   4.139   6.262  1.0375  1.4544  0.9116
    5SAPS  C211  590   0.882   4.107   6.074 -0.0055 -0.0006 -0.3999
    5SAPS  H11R  591   0.979   4.067   6.041  0.6093  1.0301  0.1067
    5SAPS  C212  592   0.793   4.157   5.982  1.0184  1.0917 -0.3564
    5SAPS  H12R  593   0.813   4.129   5.878  0.9217  1.6751 -0.5354
    5SAPS  C213  594   0.655   4.219   5.999 -0.1213  0.9356 -0.3475
    5SAPS  H13R  595   0.610   4.207   6.100 -1.8810  0.7111 -1.1241
    5SAPS  H13S  596   0.590   4.159   5.932  2.2363  0.4219 -2.3082
    5SAPS  C214  597   0.651   4.361   5.946  0.9281  0.0379 -0.0715
    5SAPS  H14R  598   0.643   4.445   6.017  0.4250 -0.5419  0.5655
    5SAPS  C215  599   0.667   4.390   5.810  0.2311  0.0808  0.1659
    5SAPS  H15R  600   0.668   4.496   5.782 -0.7394  0.3764  1.2118
    5SAPS  C216  601   0.670   4.297   5.695 -0.3603 -1.0467 -0.5677
    5SAPS  H16R  602   0.644   4.191   5.715 -0.8860 -0.4604  2.1244
    5SAPS  H16S  603   0.764   4.322   5.641  1.3565  0.3050  2.7690
    5SAPS  C217  604   0.556   4.347   5.600  0.2601 -0.3473 -0.4242
    5SAPS  H17R  605   0.532   4.455   5.600 -3.6497 -1.0713 -0.2255
    5SAPS  H17S  606   0.461   4.294   5.625 -0.5131  1.0245 -0.3562
    5SAPS  C218  607   0.599   4.328   5.455 -0.2289  0.5696  0.6617
    5SAPS  H18R  608   0.627   4.220   5.456 -0.7586  0.4084 -0.2083
    5SAPS  H18S  609   0.685   4.396   5.437 -0.8084  1.1938  0.1898
    5SAPS  C219  610   0.482   4.349   5.351 -0.2393  0.3190  0.6135
    5SAPS  H19R  611   0.529   4.343   5.251 -2.8736  0.8923 -0.7372
    5SAPS  H19S  612   0.437   4.448   5.374 -0.1333  0.4035  0.4577
    5SAPS  C220  613   0.364   4.250   5.348  0.6407 -0.7515 -0.3041
    5SAPS  H20R  614   0.301   4.262   5.257  0.0134 -0.6195  0.1371
    5SAPS  H20S  615   0.308   4.284   5.438  2.9392 -0.7384  1.2055
    5SAPS  H20T  616   0.396   4.145   5.361  0.6416 -0.7639 -0.4101
    5SAPS   C33  617   0.452   3.864   6.955  0.0710 -0.0477  0.2495
    5SAPS   H3X  618   0.536   3.936   6.950  0.5465 -0.5057  1.2278
    5SAPS   H3Y  619   0.382   3.896   7.035  1.6705 -2.0402  2.6314
    5SAPS   C34  620   0.373   3.859   6.824  0.1366  0.5838  0.3436
    5SAPS   H4X  621   0.310   3.951   6.823 -1.2495 -0.3351 -0.0843
    5SAPS   H4Y  622   0.305   3.771   6.821  1.4698 -0.5761 -4.2921
    5SAPS   C35  623   0.459   3.846   6.697 -0.0406  0.1824  0.1011
    5SAPS   H5X  624   0.500   3.742   6.694  0.3587  0.2941  1.3327
    5SAPS   H5Y  625   0.534   3.927   6.708 -0.7513  0.9017 -0.2518
    5SAPS   C36  626   0.378   3.872   6.569 -0.3745  0.8279  0.3505
    5SAPS   H6X  627   0.340   3.976   6.572 -0.4003  0.9211 -1.6455
    5SAPS   H6Y  628   0.297   3.796   6.567  1.3711 -1.1282  0.7269
    5SAPS   C37  629   0.463   3.838   6.443 -0.1815 -0.3100  0.0694
    5SAPS   H7X  630   0.509   3.737   6.447  0.8723  0.1491  0.0517
    5SAPS   H7Y  631   0.549   3.909   6.438  1.4255 -2.1307  0.4567
    5SAPS   C38  632   0.387   3.849   6.305 -0.2600  0.1719 -0.2100
    5SAPS   H8X  633   0.384   3.952   6.262  0.1463  0.7116  1.0138
    5SAPS   H8Y  634   0.282   3.814   6.311 -0.0844 -0.5844 -1.2309
    5SAPS   C39  635   0.431   3.746   6.201 -0.0512 -0.8585  0.0317
    5SAPS   H9X  636   0.459   3.647   6.242  2.1613 -0.6985 -0.9699
    5SAPS   H9Y  637   0.530   3.790   6.176 -0.8506  2.0638  1.5137
    5SAPS  C310  638   0.353   3.747   6.066  0.1488 -0.1065  1.3035
    5SAPS  H10X  639   0.353   3.855   6.037 -3.2048  0.0522  1.5165
    5SAPS  H10Y  640   0.245   3.722   6.070 -0.3035  1.0910 -1.0136
    5SAPS  C311  641   0.425   3.673   5.953  0.3293  0.1861  0.0683
    5SAPS  H11X  642   0.431   3.566   5.984  0.0012  0.4881  1.2256
    5SAPS  H11Y  643   0.532   3.703   5.950  0.0014  1.3310 -0.7351
    5SAPS  C312  644   0.353   3.679   5.817 -0.4575 -0.8279  0.2994
    5SAPS  H12X  645   0.361   3.781   5.776 -0.5179 -0.3219  1.5015
    5SAPS  H12Y  646   0.249   3.641   5.827 -0.9717  0.2452 -0.7440
    5SAPS  C313  647   0.410   3.589   5.707 -0.1060 -0.0838  0.0287
    5SAPS  H13X  648   0.403   3.483   5.741 -2.5348  0.4874  1.4998
    5SAPS  H13Y  649   0.520   3.605   5.696  0.0527 -0.2188  1.2590
    5SAPS  C314  650   0.340   3.610   5.574 -0.4399  0.0953  0.4511
    5SAPS  H14X  651   0.338   3.716   5.541 -1.4897 -0.5701 -1.8120
    5SAPS  H14Y  652   0.234   3.575   5.576 -0.5695  0.1571 -2.1287
    5SAPS  C315  653   0.412   3.519   5.459 -0.1009 -0.8985  0.4349
    5SAPS  H15X  654   0.509   3.568   5.438 -0.9879  0.5567 -0.3624
    5SAPS  H15Y  655   0.344   3.518   5.372  0.5093  0.6528 -0.0813
    5SAPS  C316  656   0.420   3.367   5.488  0.8057 -0.3993 -0.4411
    5SAPS  H16X  657   0.320   3.320   5.495  0.9972 -0.9721 -1.3543
    5SAPS  H16Y  658   0.473   3.367   5.586 -2.8096  1.4011  1.7213
    5SAPS  C317  659   0.492   3.297   5.378 -1.1241  0.1723  0.0151
    5SAPS  H17X  660   0.452   3.343   5.286  0.3966  0.7429 -0.3927
    5SAPS  H17Y  661   0.462   3.190   5.373  0.0770 -0.2044  0.5553
    5SAPS  C318  662   0.652   3.308   5.388  0.2407 -0.0643 -0.8692
    5SAPS  H18X  663   0.704   3.241   5.317 -0.3118 -0.1819 -1.1716
    5SAPS  H18Y  664   0.681   3.281   5.492 -0.6946 -1.3617 -0.9140
    5SAPS  H18Z  665   0.666   3.416   5.364 -1.1331  0.5605  0.8144
    6SAPS     N  666   5.086   6.540   7.501  0.1785  0.1668  0.4350
    6SAPS   HN1  667   5.087   6.445   7.544  0.5006 -0.0923 -0.1204
    6SAPS   HN2  668   5.051   6.538   7.403 -1.9163  1.9716  1.0798
    6SAPS   HN3  669   5.181   6.581   7.516 -0.3650  0.3283  4.2470
    6SAPS   C12  670   4.984   6.614   7.572  0.0807 -0.5048 -0.0306
    6SAPS  H12A  671   4.889   6.565   7.556 -1.2143  1.0975  2.3078
    6SAPS   C13  672   5.000   6.625   7.727 -0.1310  0.1072  0.3411
    6SAPS  O13A  673   5.103   6.584   7.787  0.6118 -0.0686  0.3898
    6SAPS  O13B  674   4.897   6.671   7.787 -0.8215  0.8284 -0.9535
    6SAPS   C11  675   4.975   6.759   7.508  0.6624 -0.2743 -0.0943
    6SAPS  H11A  676   5.078   6.800   7.513  0.1361  1.1068 -0.2232
    6SAPS  H11B  677   4.905   6.817   7.573 -1.8740 -1.7354 -1.3526
    6SAPS     P  678   4.854   6.860   7.296  0.1428 -0.2890  0.0469
    6SAPS   O13  679   4.712   6.816   7.287  0.1218  0.0454  0.0920
    6SAPS   O14  680   4.892   6.997   7.348  0.6541  0.3878 -0.0584
    6SAPS   O12  681   4.920   6.740   7.378 -0.3532  0.0417  0.1546
    6SAPS   O11  682   4.917   6.843   7.157  0.0257 -0.4551  1.0920
    6SAPS    C1  683   5.057   6.810   7.146  0.7106 -0.1931 -0.0079
    6SAPS    HA  684   5.125   6.875   7.206 -0.2277  0.1750  0.6763
    6SAPS    HB  685   5.072   6.704   7.174  1.1789  0.1259  1.0198
    6SAPS    C2  686   5.108   6.826   6.999  0.5489 -1.0571  0.3110
    6SAPS    HS  687   5.208   6.780   6.984  0.6571 -0.2849 -1.5125
    6SAPS   O21  688   5.111   6.968   6.967 -0.2938 -0.1239  0.0637
    6SAPS   C21  689   5.225   7.027   6.997 -0.0479 -0.4808 -0.2797
    6SAPS   O22  690   5.320   6.966   7.042  0.0470 -0.4758 -0.5749
    6SAPS   C22  691   5.217   7.177   6.961  0.7598  0.7345  0.1194
    6SAPS   H2R  692   5.164   7.172   6.864  0.1083 -1.2811  0.5381
    6SAPS   H2S  693   5.151   7.229   7.034  0.5403 -0.2242  0.6236
    6SAPS    C3  694   5.010   6.759   6.898 -0.2683  0.0141 -0.1665
    6SAPS    HX  695   4.925   6.820   6.862  0.5239  0.9352 -0.5216
    6SAPS    HY  696   4.979   6.675   6.964 -0.2577  1.2490  1.4797
    6SAPS   O31  697   5.086   6.706   6.786 -0.1898 -0.2974 -0.0320
    6SAPS   C31  698   5.037   6.721   6.665  0.2202  1.0060  0.1634
    6SAPS   O32  699   4.925   6.771   6.637  0.0284 -0.5214  0.8273
    6SAPS   C32  700   5.151   6.683   6.573  0.0172  0.4729 -0.5235
    6SAPS   H2X  701   5.226   6.619   6.624 -2.1636 -3.1581 -1.5143
    6SAPS   H2Y  702   5.196   6.781   6.545 -0.4129  0.9593  0.4217
    6SAPS   C23  703   5.347   7.254   6.954 -0.7936  0.0899 -0.5570
    6SAPS   H3R  704   5.423   7.203   7.016 -0.2376 -0.9416 -2.0189
    6SAPS   H3S  705   5.321   7.346   7.010  1.4679  1.8432 -2.2040
    6SAPS   C24  706   5.400   7.292   6.813  0.5145 -1.1313  1.2218
    6SAPS   H4R  707   5.492   7.351   6.832 -1.3176  2.5278 -0.3092
    6SAPS   H4S  708   5.329   7.369   6.778 -0.0699 -1.8545  0.8004
    6SAPS   C25  709   5.424   7.170   6.731  0.2923  0.8650 -0.1538
    6SAPS   H5R  710   5.502   7.111   6.781  0.0430  2.3383  2.0974
    6SAPS   C26  711   5.379   7.139   6.608  0.1618 -0.3619  0.0209
    6SAPS   H6R  712   5.403   7.037   6.574  1.8021 -0.0504  0.1616
    6SAPS   C27  713   5.298   7.230   6.516  0.1373 -0.2864  1.1912
    6SAPS   H7R  714   5.377   7.278   6.454 -0.7165 -1.9691 -1.3331
    6SAPS   H7S  715   5.261   7.320   6.570 -0.0196 -0.1412  0.8408
    6SAPS   C28  716   5.190   7.160   6.429 -1.2356  0.3326  0.2326
    6SAPS   H8R  717   5.130   7.084   6.482 -0.5414 -0.3539  0.0555
    6SAPS   C29  718   5.192   7.163   6.296  0.0964  0.2977  0.0930
    6SAPS   H9R  719   5.111   7.112   6.241  1.3536  1.7286 -3.4169
    6SAPS  C210  720   5.284   7.239   6.205  0.4153  0.2571  0.5701
    6SAPS  H10R  721   5.383   7.255   6.251  1.1223 -2.2085  0.0713
    6SAPS  H10S  722   5.242   7.340   6.185 -0.6677 -0.4241 -0.8186
    6SAPS  C211  723   5.293   7.167   6.074  0.4225 -0.4397  0.7887
    6SAPS  H11R  724   5.353   7.074   6.075  3.8855  1.5954  1.7250
    6SAPS  C212  725   5.286   7.217   5.950 -0.2485 -0.3057 -0.4412
    6SAPS  H12R  726   5.315   7.149   5.868  2.5996 -1.6025  1.4831
    6SAPS  C213  727   5.252   7.361   5.914  0.1843  0.2880 -0.1144
    6SAPS  H13R  728   5.343   7.414   5.948  0.3957 -0.3927  0.3858
    6SAPS  H13S  729   5.165   7.388   5.978  0.0778  1.6524 -0.7800
    6SAPS  C214  730   5.222   7.395   5.771  0.0451 -0.2692 -0.3465
    6SAPS  H14R  731   5.121   7.433   5.750 -0.7888 -1.0941  1.8410
    6SAPS  C215  732   5.316   7.399   5.673 -0.1386 -0.1658  0.3899
    6SAPS  H15R  733   5.288   7.443   5.576  1.2890 -2.8827 -1.3737
    6SAPS  C216  734   5.466   7.377   5.697 -0.1436  1.0982  0.0860
    6SAPS  H16R  735   5.488   7.269   5.697 -2.5088  0.5463 -0.4929
    6SAPS  H16S  736   5.494   7.420   5.796  1.6628  2.0140 -0.7791
    6SAPS  C217  737   5.557   7.449   5.591  0.2318  0.1238 -0.6763
    6SAPS  H17R  738   5.664   7.433   5.614  0.4684 -1.7290 -2.7517
    6SAPS  H17S  739   5.547   7.560   5.588  1.9517  0.2857 -1.3878
    6SAPS  C218  740   5.531   7.396   5.448 -0.2234 -0.7186 -0.4336
    6SAPS  H18R  741   5.424   7.417   5.429  0.1507  1.8516 -0.1199
    6SAPS  H18S  742   5.540   7.286   5.442  0.6199 -0.8854  2.4433
    6SAPS  C219  743   5.607   7.470   5.339 -0.3372 -0.5418 -0.1461
    6SAPS  H19R  744   5.714   7.442   5.349  0.2910  1.2539 -1.4687
    6SAPS  H19S  745   5.606   7.578   5.363  2.0228 -0.6965  0.8874
    6SAPS  C220  746   5.563   7.450   5.191 -0.3314  0.7168  0.1278
    6SAPS  H20R  747   5.460   7.490   5.183 -0.1670  1.0703 -0.2155
    6SAPS  H20S  748   5.546   7.343   5.164  0.4582  0.6802 -0.2619
    6SAPS  H20T  749   5.624   7.501   5.114  1.2558 -1.8157 -0.4360
    6SAPS   C33  750   5.111   6.611   6.441  0.7111  0.1554  0.8759
    6SAPS   H3X  751   5.014   6.557   6.446 -0.4705  2.2325  3.5271
    6SAPS   H3Y  752   5.172   6.521   6.423 -0.9508 -0.7570 -0.4395
    6SAPS   C34  753   5.117   6.701   6.321  0.6608  0.1005  0.7934
    6SAPS   H4X  754   5.208   6.764   6.331 -0.1859  1.4744  0.1888
    6SAPS   H4Y  755   5.025   6.764   6.323  0.6758  0.1181  1.0936
    6SAPS   C35  756   5.108   6.620   6.189 -0.1000 -0.2141 -0.1515
    6SAPS   H5X  757   5.023   6.549   6.189 -0.6311  0.4061  0.8555
    6SAPS   H5Y  758   5.203   6.564   6.173  0.5160  1.0290 -1.0752
    6SAPS   C36  759   5.089   6.718   6.068 -0.0287 -0.2834 -0.7131
    6SAPS   H6X  760   5.166   6.798   6.072 -0.8177  0.6867 -3.1527
    6SAPS   H6Y  761   4.989   6.763   6.085 -1.4954 -2.8977 -1.7588
    6SAPS   C37  762   5.073   6.646   5.942 -0.4460  0.1112  0.1742
    6SAPS   H7X  763   4.989   6.574   5.952  0.2735 -0.7321  0.2475
    6SAPS   H7Y  764   5.164   6.583   5.936  0.5922  1.5462  0.2675
    6SAPS   C38  765   5.057   6.733   5.817  0.4756 -0.3764  0.1408
    6SAPS   H8X  766   4.965   6.794   5.827  0.5321 -0.5275  1.8954
    6SAPS   H8Y  767   5.056   6.662   5.732  0.1740  0.0556 -0.2151
    6SAPS   C39  768   5.188   6.820   5.786  0.5466  0.0638  0.1625
    6SAPS   H9X  769   5.271   6.746   5.796  0.5232  0.3145  2.8100
    6SAPS   H9Y  770   5.201   6.892   5.869  1.1909 -1.1175  1.1118
    6SAPS  C310  771   5.179   6.891   5.650  0.4447  0.0256  0.7006
    6SAPS  H10X  772   5.097   6.966   5.654  0.4090  0.1041 -0.8702
    6SAPS  H10Y  773   5.167   6.818   5.568  1.0924  1.1272 -0.4039
    6SAPS  C311  774   5.310   6.965   5.614 -0.9542 -0.0697  0.1957
    6SAPS  H11X  775   5.390   6.891   5.591 -2.2333 -0.9900 -1.5150
    6SAPS  H11Y  776   5.344   7.036   5.693  1.2095 -0.4195 -0.3436
    6SAPS  C312  777   5.299   7.057   5.483 -0.5645 -0.4945  0.1386
    6SAPS  H12X  778   5.302   6.982   5.400 -0.9184 -0.3935  0.0322
    6SAPS  H12Y  779   5.386   7.124   5.467 -1.7109  0.9432 -0.3082
    6SAPS  C313  780   5.178   7.146   5.465  0.2828  0.7838 -0.8653
    6SAPS  H13X  781   5.161   7.221   5.546  0.0817 -1.5591  1.4092
    6SAPS  H13Y  782   5.085   7.090   5.488  0.6251  0.2886 -0.6509
    6SAPS  C314  783   5.172   7.212   5.327  0.2402  0.3547 -0.0641
    6SAPS  H14X  784   5.171   7.133   5.249  0.9307 -0.6566  0.9347
    6SAPS  H14Y  785   5.262   7.273   5.303  0.0511  0.2874 -0.9935
    6SAPS  C315  786   5.045   7.295   5.311  0.2465 -0.2528  0.1057
    6SAPS  H15X  787   5.038   7.391   5.366 -2.0489 -0.3512  0.1091
    6SAPS  H15Y  788   4.955   7.241   5.348 -1.1463  2.8978  1.6031
    6SAPS  C316  789   5.026   7.341   5.165 -0.7996  0.5216  0.2296
    6SAPS  H16X  790   5.017   7.260   5.089  0.5280  0.4477  0.1233
    6SAPS  H16Y  791   5.115   7.405   5.147 -0.0898 -0.5639 -0.2605
    6SAPS  C317  792   4.897   7.428   5.151  0.1964 -0.0419  0.2234
    6SAPS  H17X  793   4.919   7.530   5.189  1.6071  0.0705 -0.8224
    6SAPS  H17Y  794   4.813   7.371   5.197  0.2803 -0.2670  0.0962
    6SAPS  C318  795   4.855   7.435   5.001  0.3781 -0.0864  0.3048
    6SAPS  H18X  796   4.772   7.508   4.990 -1.3461 -1.9554  0.3528
    6SAPS  H18Y  797   4.820   7.336   4.966 -0.8380  0.7101 -0.8783
    6SAPS  H18Z  798   4.944   7.464   4.940  0.8380 -1.5869  0.2287
    7SAPS     N  799   6.369   6.100   8.064 -0.1332 -0.2654  0.5234
    7SAPS   HN1  800   6.355   6.086   8.167  0.3293  1.1352  0.8035
    7SAPS   HN2  801   6.450   6.049   8.026 -0.3890 -1.4718  1.5073
    7SAPS   HN3  802   6.387   6.201   8.048 -0.0596 -0.5036 -0.9732
    7SAPS   C12  803   6.250   6.059   7.975  0.2791 -0.1038 -0.1889
    7SAPS  H12A  804   6.206   5.966   8.007  0.8462 -0.4365 -0.3717
    7SAPS   C13  805   6.140   6.179   7.962 -0.1723  0.2210 -0.0935
    7SAPS  O13A  806   6.154   6.282   8.038 -0.3072 -0.0738  1.1391
    7SAPS  O13B  807   6.047   6.156   7.886 -0.2180  0.4927  0.0050
    7SAPS   C11  808   6.311   6.031   7.834 -0.5693 -0.0088  0.6628
    7SAPS  H11A  809   6.360   6.123   7.797  1.6025 -2.2054 -2.3740
    7SAPS  H11B  810   6.232   6.009   7.758 -1.2178  1.1533  0.9732
    7SAPS     P  811   6.514   5.881   7.733 -0.6265  0.0181 -0.6732
    7SAPS   O13  812   6.647   5.890   7.796 -0.0973 -0.4932 -1.1173
    7SAPS   O14  813   6.470   5.751   7.686 -0.3792  0.2387 -0.1664
    7SAPS   O12  814   6.407   5.924   7.842  0.2228  0.3230 -0.9852
    7SAPS   O11  815   6.487   5.991   7.628 -0.0120 -1.0762 -0.0203
    7SAPS    C1  816   6.410   5.975   7.514  0.2231  0.0238  0.8563
    7SAPS    HA  817   6.313   5.925   7.536 -0.7263  1.5708  0.3098
    7SAPS    HB  818   6.391   6.078   7.478  0.5361  0.1301  0.9896
    7SAPS    C2  819   6.487   5.900   7.401 -0.0839  0.3412  0.5691
    7SAPS    HS  820   6.492   5.795   7.436  0.1843 -0.5039 -1.8161
    7SAPS   O21  821   6.614   5.958   7.387 -0.3487  0.0843 -0.0980
    7SAPS   C21  822   6.711   5.881   7.338  0.1541  0.0709 -0.3209
    7SAPS   O22  823   6.709   5.760   7.322 -0.2377  0.0484  0.0460
    7SAPS   C22  824   6.845   5.959   7.329  0.9200 -0.2281 -0.7509
    7SAPS   H2R  825   6.866   6.017   7.422 -1.6479  1.7882 -1.3046
    7SAPS   H2S  826   6.930   5.890   7.311  2.3174  1.3799 -0.6083
    7SAPS    C3  827   6.409   5.908   7.268  0.5366  0.0156 -0.1321
    7SAPS    HX  828   6.428   6.010   7.228 -0.8965  0.0347 -0.8346
    7SAPS    HY  829   6.301   5.899   7.294  1.2394 -3.9277  2.2142
    7SAPS   O31  830   6.451   5.816   7.159 -0.3059  0.0795 -0.3164
    7SAPS   C31  831   6.360   5.745   7.099 -0.6915 -0.1632  0.1291
    7SAPS   O32  832   6.244   5.725   7.140 -0.3240  0.0900 -0.3992
    7SAPS   C32  833   6.427   5.697   6.973 -0.8319 -0.2047 -0.1450
    7SAPS   H2X  834   6.358   5.623   6.926 -3.0998  1.5696  0.2214
    7SAPS   H2Y  835   6.510   5.629   7.000 -1.9287 -1.3355  0.4908
    7SAPS   C23  836   6.850   6.060   7.210  0.5292  0.1560 -0.9283
    7SAPS   H3R  837   6.951   6.103   7.187 -0.2564  1.5975 -1.8979
    7SAPS   H3S  838   6.777   6.142   7.225  0.0957 -0.5413  1.0048
    7SAPS   C24  839   6.815   5.998   7.072  0.2468  0.9730 -0.3390
    7SAPS   H4R  840   6.783   6.070   6.993 -1.6545 -1.9103 -2.3789
    7SAPS   H4S  841   6.718   5.949   7.093  0.5017  1.0920  1.2986
    7SAPS   C25  842   6.903   5.887   7.027  0.5338  0.0097 -0.1854
    7SAPS   H5R  843   6.933   5.817   7.107  1.3007  0.7818  0.2125
    7SAPS   C26  844   6.937   5.858   6.900 -0.0339 -0.0182  0.6602
    7SAPS   H6R  845   7.002   5.774   6.873  0.6039  0.6127  0.1707
    7SAPS   C27  846   6.921   5.952   6.781  0.7355  0.0646  0.5422
    7SAPS   H7R  847   6.817   5.991   6.785  0.5315 -0.4860  0.6412
    7SAPS   H7S  848   6.917   5.899   6.684 -1.6553  1.1777 -0.0526
    7SAPS   C28  849   7.012   6.079   6.776  0.9180 -0.0400 -0.1494
    7SAPS   H8R  850   7.023   6.125   6.875  2.1261 -0.2040 -0.1974
    7SAPS   C29  851   7.080   6.129   6.669 -0.0659 -0.2071 -0.0410
    7SAPS   H9R  852   7.136   6.220   6.693  0.2088  0.4118 -2.7689
    7SAPS  C210  853   7.067   6.082   6.527  0.3908  0.0774 -0.2507
    7SAPS  H10R  854   7.105   5.977   6.520 -2.4307 -1.0145 -0.2068
    7SAPS  H10S  855   7.138   6.147   6.472  0.5954 -1.2373 -1.6366
    7SAPS  C211  856   6.935   6.092   6.461  0.0856  0.1841 -0.1268
    7SAPS  H11R  857   6.889   5.992   6.446 -1.4127  1.0945 -2.1381
    7SAPS  C212  858   6.862   6.191   6.411  0.1478  0.5270 -0.3919
    7SAPS  H12R  859   6.766   6.166   6.365  0.4390  0.1632 -0.8136
    7SAPS  C213  860   6.903   6.333   6.400 -0.0463 -0.3579 -0.3571
    7SAPS  H13R  861   7.004   6.330   6.353 -1.2588  0.6527 -3.2583
    7SAPS  H13S  862   6.921   6.366   6.505  0.9995 -1.4756 -0.1621
    7SAPS  C214  863   6.806   6.416   6.319 -0.2490  0.3497  0.4544
    7SAPS  H14R  864   6.720   6.452   6.378 -0.9453  0.5635 -0.6735
    7SAPS  C215  865   6.805   6.432   6.190  0.6734 -0.7233  1.1535
    7SAPS  H15R  866   6.732   6.498   6.140  1.0868 -1.4648 -0.5085
    7SAPS  C216  867   6.909   6.373   6.102 -0.2217 -0.6135 -0.1081
    7SAPS  H16R  868   6.940   6.273   6.140  0.3117  0.2865  1.9592
    7SAPS  H16S  869   6.998   6.439   6.095  0.0805 -1.0538 -0.4889
    7SAPS  C217  870   6.876   6.367   5.950  0.5393  0.0432  0.4960
    7SAPS  H17R  871   6.785   6.307   5.929  0.2680  1.4306 -3.1196
    7SAPS  H17S  872   6.959   6.313   5.898  0.9418  0.8434  0.2997
    7SAPS  C218  873   6.837   6.502   5.884 -0.1851 -0.0242  1.0207
    7SAPS  H18R  874   6.918   6.575   5.903 -0.4393  0.6555 -0.3909
    7SAPS  H18S  875   6.735   6.527   5.922 -0.5715 -1.3224  0.9022
    7SAPS  C219  876   6.820   6.485   5.735 -0.5844 -0.6748 -0.0892
    7SAPS  H19R  877   6.750   6.403   5.707 -1.3374  0.2872 -1.1687
    7SAPS  H19S  878   6.918   6.451   5.696  0.6772  1.9961  0.5583
    7SAPS  C220  879   6.785   6.608   5.641  0.4614  0.1814  0.4422
    7SAPS  H20R  880   6.832   6.582   5.543  0.4442  1.5626  0.0490
    7SAPS  H20S  881   6.834   6.702   5.676  0.7667  0.4018 -0.5458
    7SAPS  H20T  882   6.676   6.628   5.636  0.5465  0.4071 -0.9683
    7SAPS   C33  883   6.471   5.805   6.877 -0.5266 -0.3078  0.4621
    7SAPS   H3X  884   6.567   5.847   6.916 -0.1415  0.6848 -1.4499
    7SAPS   H3Y  885   6.405   5.893   6.866  1.8752  1.8619  2.2127
    7SAPS   C34  886   6.501   5.741   6.739  0.3794 -0.2115  0.1334
    7SAPS   H4X  887   6.404   5.707   6.696  1.0534 -1.7571 -0.2288
    7SAPS   H4Y  888   6.567   5.653   6.751 -1.1311 -1.2859  0.7755
    7SAPS   C35  889   6.557   5.839   6.641 -0.6024 -0.0985 -0.1685
    7SAPS   H5X  890   6.659   5.876   6.667 -0.4660 -0.5262 -0.0960
    7SAPS   H5Y  891   6.484   5.923   6.639  0.3286  0.7770  1.0925
    7SAPS   C36  892   6.572   5.778   6.501  0.3202  0.6047  0.0091
    7SAPS   H6X  893   6.498   5.697   6.485 -0.4070  1.2091  0.2588
    7SAPS   H6Y  894   6.669   5.731   6.471  0.9767  1.7638  0.2706
    7SAPS   C37  895   6.558   5.878   6.391 -0.1722  0.0233  0.3162
    7SAPS   H7X  896   6.635   5.955   6.415 -1.0843  0.5820  1.5663
    7SAPS   H7Y  897   6.455   5.919   6.386 -1.6497 -3.4476 -0.0273
    7SAPS   C38  898   6.583   5.806   6.264 -0.0610 -0.2451  0.1983
    7SAPS   H8X  899   6.538   5.705   6.260  0.9300 -0.6810 -2.1851
    7SAPS   H8Y  900   6.690   5.797   6.235  0.4454 -0.9401  2.1277
    7SAPS   C39  901   6.530   5.885   6.130 -0.2544 -0.2520  0.1593
    7SAPS   H9X  902   6.423   5.908   6.146 -0.8344 -1.8883 -1.0444
    7SAPS   H9Y  903   6.527   5.810   6.048 -2.1959 -0.1294  0.0702
    7SAPS  C310  904   6.609   6.007   6.084 -1.0625 -1.0188  0.0046
    7SAPS  H10X  905   6.590   6.095   6.149 -1.2437  0.8321 -2.3981
    7SAPS  H10Y  906   6.552   6.038   5.994 -0.9319 -0.2224  0.1863
    7SAPS  C311  907   6.749   5.975   6.041 -0.2973 -0.1162 -0.8024
    7SAPS  H11X  908   6.808   5.938   6.127  1.1447  1.1611 -1.1950
    7SAPS  H11Y  909   6.799   6.065   6.000  1.7221 -1.2115 -0.9082
    7SAPS  C312  910   6.758   5.884   5.914  0.5178  0.6352  0.0571
    7SAPS  H12X  911   6.714   5.784   5.934  1.6535  0.5450  2.4645
    7SAPS  H12Y  912   6.864   5.861   5.891  0.7042  3.5507 -2.6037
    7SAPS  C313  913   6.694   5.939   5.788  0.9298 -0.2259  0.1067
    7SAPS  H13X  914   6.739   6.036   5.758 -1.1304  0.6280 -0.4237
    7SAPS  H13Y  915   6.586   5.958   5.803  1.0762  1.2213 -0.4393
    7SAPS  C314  916   6.713   5.846   5.671  0.2938 -0.4546  1.4123
    7SAPS  H14X  917   6.658   5.753   5.698 -1.5028  0.5448  1.3589
    7SAPS  H14Y  918   6.815   5.809   5.650  0.5495  0.7018  0.4968
    7SAPS  C315  919   6.643   5.896   5.540 -0.0780  1.0653 -0.2155
    7SAPS  H15X  920   6.540   5.928   5.563 -0.5675  0.4402 -1.4344
    7SAPS  H15Y  921   6.640   5.807   5.474  2.0977  1.0687 -0.3913
    7SAPS  C316  922   6.724   6.006   5.472 -0.1424  1.0512  0.8840
    7SAPS  H16X  923   6.778   6.075   5.540 -0.3175  2.8062 -0.6798
    7SAPS  H16Y  924   6.653   6.064   5.410  0.9268  0.8102 -0.6181
    7SAPS  C317  925   6.813   5.949   5.359 -0.5184 -0.2069  0.0954
    7SAPS  H17X  926   6.845   6.040   5.304 -1.1564 -1.2498 -2.1263
    7SAPS  H17Y  927   6.761   5.880   5.288 -1.0497  1.4707 -1.2192
    7SAPS  C318  928   6.946   5.879   5.394  0.8953 -0.3108 -0.1238
    7SAPS  H18X  929   7.007   5.834   5.313  0.7983  2.5399 -1.9112
    7SAPS  H18Y  930   6.939   5.794   5.464  1.4323 -2.4751 -2.5470
    7SAPS  H18Z  931   7.010   5.954   5.446  3.7009 -2.7956  0.3050
    8SAPS     N  932   5.953   0.645   7.328 -0.1489 -0.3980  0.7022
    8SAPS   HN1  933   5.880   0.629   7.256 -0.1248  1.5809  0.1933
    8SAPS   HN2  934   6.008   0.733   7.319 -0.1339 -0.2943  1.7351
    8SAPS   HN3  935   6.014   0.560   7.319  1.0284  0.4105  0.8238
    8SAPS   C12  936   5.904   0.633   7.469 -0.1232 -0.3363 -0.3754
    8SAPS  H12A  937   5.987   0.627   7.537  1.5904 -1.4429 -2.4066
    8SAPS   C13  938   5.808   0.741   7.514 -0.0570 -0.0593 -0.1127
    8SAPS  O13A  939   5.804   0.852   7.448 -0.3338 -0.0609  0.1475
    8SAPS  O13B  940   5.763   0.732   7.628  0.0295 -0.3865  0.0591
    8SAPS   C11  941   5.830   0.496   7.466 -0.5109  0.1138 -0.4961
    8SAPS  H11A  942   5.745   0.510   7.396 -1.7925 -0.0815  0.9618
    8SAPS  H11B  943   5.780   0.482   7.564 -0.0711 -1.1022 -0.4410
    8SAPS     P  944   5.977   0.284   7.534  0.0244  0.3534  0.2055
    8SAPS   O13  945   6.091   0.349   7.607 -0.0923 -0.1213 -0.0085
    8SAPS   O14  946   5.869   0.218   7.612  0.7275  0.7956  0.5107
    8SAPS   O12  947   5.913   0.389   7.428 -0.4106  0.2342  0.5451
    8SAPS   O11  948   6.046   0.181   7.448 -0.3541  0.1568  0.0898
    8SAPS    C1  949   6.099   0.057   7.495  0.1710  0.1548  0.5619
    8SAPS    HA  950   6.137   0.055   7.600 -1.3858  1.7317  1.1945
    8SAPS    HB  951   6.020  -0.021   7.491  0.9962 -0.7271  0.7919
    8SAPS    C2  952   6.199  -0.012   7.394 -0.3042  0.3828 -0.2087
    8SAPS    HS  953   6.224  -0.109   7.443  2.0016  0.3131 -1.3650
    8SAPS   O21  954   6.318   0.070   7.384 -0.5958  0.2191  0.1884
    8SAPS   C21  955   6.436  -0.000   7.354 -0.0778 -0.1740  0.3199
    8SAPS   O22  956   6.437  -0.115   7.329  1.0327  0.2752 -0.4210
    8SAPS   C22  957   6.558   0.095   7.380  0.0481 -0.5562  0.1678
    8SAPS   H2R  958   6.538   0.191   7.327  1.9786 -0.5202 -0.6031
    8SAPS   H2S  959   6.572   0.117   7.488 -1.1878 -1.4561  0.5364
    8SAPS    C3  960   6.134  -0.041   7.256  0.6425 -0.3732  0.0885
    8SAPS    HX  961   6.096   0.059   7.225 -1.4604 -1.3911 -0.7999
    8SAPS    HY  962   6.046  -0.107   7.271 -0.2607  0.8387  0.3766
    8SAPS   O31  963   6.235  -0.078   7.150  0.8529 -0.5731  0.4131
    8SAPS   C31  964   6.242  -0.208   7.156 -0.1788 -0.2453 -1.3163
    8SAPS   O32  965   6.186  -0.282   7.238 -0.2351 -0.0846  0.0495
    8SAPS   C32  966   6.351  -0.245   7.054 -0.3469  0.3686  0.2836
    8SAPS   H2X  967   6.439  -0.181   7.075 -1.1268  1.6658 -0.2877
    8SAPS   H2Y  968   6.306  -0.222   6.955 -1.5017 -1.2021  0.3998
    8SAPS   C23  969   6.692   0.033   7.331 -0.1400  0.3687  0.1338
    8SAPS   H3R  970   6.686  -0.070   7.372 -1.3696  1.0264  1.6679
    8SAPS   H3S  971   6.774   0.100   7.365  0.4313  0.2136 -0.8960
    8SAPS   C24  972   6.693   0.031   7.176  0.0992  0.0759 -0.8249
    8SAPS   H4R  973   6.601  -0.024   7.146  0.9066 -1.6089 -0.3787
    8SAPS   H4S  974   6.772  -0.044   7.151 -2.5890 -3.3271  0.1698
    8SAPS   C25  975   6.711   0.171   7.121  0.1459 -0.4543  0.1242
    8SAPS   H5R  976   6.782   0.234   7.177 -1.0048 -0.0849  1.2143
    8SAPS   C26  977   6.643   0.221   7.019 -0.1582 -0.8973  0.4138
    8SAPS   H6R  978   6.681   0.315   6.978 -0.9905 -0.4550  0.6146
    8SAPS   C27  979   6.536   0.149   6.939  0.5590 -0.0754  0.2806
    8SAPS   H7R  980   6.554   0.041   6.956 -2.3263 -0.4881  1.2271
    8SAPS   H7S  981   6.553   0.167   6.831 -0.1449  2.1179  0.4734
    8SAPS   C28  982   6.390   0.184   6.961 -0.3445  0.2162  0.5900
    8SAPS   H8R  983   6.333   0.106   7.015  1.1644 -1.0952  0.3473
    8SAPS   C29  984   6.328   0.292   6.915  0.3006 -0.4200  0.5725
    8SAPS   H9R  985   6.222   0.299   6.941  0.3074 -1.5160  0.9212
    8SAPS  C210  986   6.396   0.404   6.834  0.3398 -0.3411  0.5382
    8SAPS  H10R  987   6.506   0.390   6.818  0.3917  1.1561 -0.5512
    8SAPS  H10S  988   6.386   0.506   6.875  0.3072 -0.5815  1.1523
    8SAPS  C211  989   6.331   0.407   6.697  0.2293  0.8645 -0.3220
    8SAPS  H11R  990   6.224   0.428   6.706  0.3222  2.0731 -1.6292
    8SAPS  C212  991   6.391   0.375   6.583 -0.2704  0.9947 -0.8093
    8SAPS  H12R  992   6.336   0.380   6.488 -1.7273  1.6811  0.0556
    8SAPS  C213  993   6.526   0.327   6.566 -0.0886  0.4654 -0.0257
    8SAPS  H13R  994   6.601   0.347   6.645 -0.8841  3.8281  0.0219
    8SAPS  H13S  995   6.561   0.379   6.474 -0.7831 -2.5470 -2.1533
    8SAPS  C214  996   6.539   0.178   6.531  0.1232  0.3903 -0.3604
    8SAPS  H14R  997   6.480   0.119   6.603  1.7691  0.1091  0.8192
    8SAPS  C215  998   6.606   0.114   6.432 -0.4062 -0.3486 -0.1535
    8SAPS  H15R  999   6.602   0.004   6.426 -0.2254 -0.3117 -1.0490
    8SAPS  C216 1000   6.677   0.180   6.318  0.2947 -0.0084 -0.2939
    8SAPS  H16R 1001   6.754   0.107   6.285  0.4045 -0.2059  0.3969
    8SAPS  H16S 1002   6.728   0.269   6.358  1.1725 -1.1506  1.2247
    8SAPS  C217 1003   6.594   0.239   6.201 -0.0842  0.6045  1.2506
    8SAPS  H17R 1004   6.662   0.286   6.126  1.5092 -3.4076 -0.0888
    8SAPS  H17S 1005   6.517   0.315   6.228 -0.2929  1.5713 -1.6695
    8SAPS  C218 1006   6.520   0.129   6.115 -0.8298  0.0774 -0.9476
    8SAPS  H18R 1007   6.440   0.082   6.175  0.6568 -2.8447 -1.0625
    8SAPS  H18S 1008   6.600   0.052   6.108  0.8363  1.3147  2.2263
    8SAPS  C219 1009   6.457   0.164   5.980 -0.0564 -0.3948 -0.4846
    8SAPS  H19R 1010   6.381   0.238   6.012 -0.1278 -0.1353 -1.2387
    8SAPS  H19S 1011   6.418   0.072   5.932 -2.1784 -0.6450  1.5523
    8SAPS  C220 1012   6.553   0.235   5.879  0.8938 -0.5633 -0.2686
    8SAPS  H20R 1013   6.601   0.322   5.928 -1.3665  0.0462  1.0081
    8SAPS  H20S 1014   6.514   0.256   5.776  0.1304  1.2418  0.3442
    8SAPS  H20T 1015   6.643   0.173   5.860  1.8312  0.8765 -0.7294
    8SAPS   C33 1016   6.398  -0.392   7.072  0.1583 -0.4826  0.2523
    8SAPS   H3X 1017   6.311  -0.448   7.032 -1.5937  1.9968  0.3362
    8SAPS   H3Y 1018   6.414  -0.423   7.178  0.6857  0.6332  0.5142
    8SAPS   C34 1019   6.513  -0.437   6.978 -0.5243 -0.2599 -0.5252
    8SAPS   H4X 1020   6.491  -0.544   6.960 -1.7245 -0.2720  0.7846
    8SAPS   H4Y 1021   6.610  -0.428   7.030 -0.3617 -1.3646 -0.6146
    8SAPS   C35 1022   6.497  -0.372   6.840 -0.0372 -0.1824  0.6889
    8SAPS   H5X 1023   6.504  -0.261   6.846  1.6798 -0.2088 -0.2408
    8SAPS   H5Y 1024   6.389  -0.382   6.817  0.1972  0.6019 -0.8496
    8SAPS   C36 1025   6.604  -0.410   6.735  0.9730 -0.4392  0.0160
    8SAPS   H6X 1026   6.581  -0.518   6.722 -3.6248  0.6695 -3.1001
    8SAPS   H6Y 1027   6.705  -0.382   6.773 -0.0693  1.6237  1.4911
    8SAPS   C37 1028   6.581  -0.338   6.598  0.5343 -0.2683 -0.1635
    8SAPS   H7X 1029   6.650  -0.388   6.527  1.0845  0.4392 -0.1337
    8SAPS   H7Y 1030   6.622  -0.235   6.598  0.0347 -0.0506 -1.9042
    8SAPS   C38 1031   6.436  -0.351   6.541  0.2743  0.0833  0.4512
    8SAPS   H8X 1032   6.362  -0.285   6.592 -1.0617 -1.6516  0.8712
    8SAPS   H8Y 1033   6.385  -0.449   6.553 -0.8704  0.6888  0.7205
    8SAPS   C39 1034   6.438  -0.310   6.388 -0.0508  0.5943 -0.3454
    8SAPS   H9X 1035   6.506  -0.373   6.327 -1.2688  0.4319 -1.5952
    8SAPS   H9Y 1036   6.471  -0.204   6.398 -1.1974  1.0423 -1.0891
    8SAPS  C310 1037   6.306  -0.306   6.311 -0.9132 -0.0168 -0.0595
    8SAPS  H10X 1038   6.255  -0.232   6.377  0.6187  0.7287  0.3272
    8SAPS  H10Y 1039   6.251  -0.402   6.313 -1.5719  0.3564  0.7323
    8SAPS  C311 1040   6.322  -0.250   6.169  0.2850 -0.3698 -0.6696
    8SAPS  H11X 1041   6.370  -0.151   6.184  1.0047 -0.9659  1.2191
    8SAPS  H11Y 1042   6.217  -0.237   6.135 -0.8748  1.5526  3.1209
    8SAPS  C312 1043   6.407  -0.329   6.077 -0.3612  0.7477  0.2225
    8SAPS  H12X 1044   6.363  -0.430   6.063  1.4649 -0.0756  0.0746
    8SAPS  H12Y 1045   6.514  -0.339   6.107  0.3495  1.5536 -1.9115
    8SAPS  C313 1046   6.410  -0.268   5.939  0.3523  0.0934 -0.1309
    8SAPS  H13X 1047   6.463  -0.170   5.943 -1.4139  1.0968 -0.2210
    8SAPS  H13Y 1048   6.304  -0.261   5.906  0.1415 -1.8091  0.0885
    8SAPS  C314 1049   6.477  -0.350   5.834  0.4120  0.1695  0.2585
    8SAPS  H14X 1050   6.453  -0.458   5.843  1.7166 -0.2805 -1.1262
    8SAPS  H14Y 1051   6.588  -0.355   5.843  0.5180 -1.9699 -1.2991
    8SAPS  C315 1052   6.435  -0.312   5.689  0.9860  0.3569 -0.5020
    8SAPS  H15X 1053   6.469  -0.211   5.659  1.5882 -0.0561 -1.2347
    8SAPS  H15Y 1054   6.325  -0.316   5.682  0.8372  0.4377  1.1765
    8SAPS  C316 1055   6.486  -0.408   5.589  0.3450 -0.3707 -0.5941
    8SAPS  H16X 1056   6.467  -0.511   5.625 -0.3596 -0.3496 -0.8964
    8SAPS  H16Y 1057   6.596  -0.394   5.588  0.2976  0.0825  0.0771
    8SAPS  C317 1058   6.437  -0.382   5.451  0.7394  0.2080 -0.3949
    8SAPS  H17X 1059   6.338  -0.331   5.447 -0.0837 -1.4064 -2.3514
    8SAPS  H17Y 1060   6.408  -0.475   5.396  0.4950  0.5118 -0.7906
    8SAPS  C318 1061   6.530  -0.315   5.358  0.6794 -0.5577 -0.4208
    8SAPS  H18X 1062   6.500  -0.308   5.251  0.1530 -2.0702 -0.3931
    8SAPS  H18Y 1063   6.630  -0.363   5.368  0.0142 -1.8966  0.0835
    8SAPS  H18Z 1064   6.534  -0.210   5.393 -1.3991 -0.3158 -0.7674
    9SAPS     N 1065   4.051   0.925   7.465 -0.2227 -0.0618  0.9090
    9SAPS   HN1 1066   3.957   0.929   7.421  0.8939  0.0020 -1.6797
    9SAPS   HN2 1067   4.109   0.998   7.417 -1.9528  1.1381  0.5731
    9SAPS   HN3 1068   4.092   0.832   7.440 -0.2661 -0.5511  2.5443
    9SAPS   C12 1069   4.041   0.931   7.613  0.4588  0.7038  0.4478
    9SAPS  H12A 1070   4.124   0.872   7.649  1.6905  1.0126 -1.6821
    9SAPS   C13 1071   4.060   1.068   7.669  0.6455 -0.3170 -0.0263
    9SAPS  O13A 1072   4.090   1.167   7.596  0.1236 -0.0818  0.0913
    9SAPS  O13B 1073   4.042   1.089   7.795  0.3794 -0.0754 -0.4554
    9SAPS   C11 1074   3.904   0.865   7.652  1.0133 -0.2098 -0.0537
    9SAPS  H11A 1075   3.820   0.916   7.600 -0.3836 -0.0087  2.2852
    9SAPS  H11B 1076   3.892   0.875   7.762  2.9331 -1.0698  0.2683
    9SAPS     P 1077   3.770   0.646   7.616 -0.0551  0.2613 -0.0768
    9SAPS   O13 1078   3.783   0.513   7.673 -0.4866  0.3551  0.2769
    9SAPS   O14 1079   3.665   0.732   7.674  0.1587 -0.1398  0.4181
    9SAPS   O12 1080   3.913   0.719   7.623  0.4306 -0.1525  0.3844
    9SAPS   O11 1081   3.745   0.632   7.467 -0.3160 -0.8310  0.8636
    9SAPS    C1 1082   3.851   0.630   7.371 -0.3917  0.2135  0.4848
    9SAPS    HA 1083   3.874   0.734   7.339  1.5990 -0.8390 -1.7591
    9SAPS    HB 1084   3.950   0.592   7.404  0.8176  1.6483 -1.2616
    9SAPS    C2 1085   3.811   0.545   7.247  0.4174 -0.8155 -0.1822
    9SAPS    HS 1086   3.902   0.545   7.182  2.0386 -1.4090  1.9729
    9SAPS   O21 1087   3.698   0.599   7.175 -0.4947 -0.0857 -0.2227
    9SAPS   C21 1088   3.711   0.605   7.043 -0.2090  0.0986  0.2459
    9SAPS   O22 1089   3.809   0.570   6.985 -0.3424  0.5013  0.7222
    9SAPS   C22 1090   3.573   0.638   6.980  0.1899 -0.1676 -0.7333
    9SAPS   H2R 1091   3.495   0.565   7.009  0.7992 -0.4266  0.2882
    9SAPS   H2S 1092   3.559   0.735   7.034  2.2347 -0.9034  1.2855
    9SAPS    C3 1093   3.778   0.400   7.287 -0.0615 -0.7858 -0.4094
    9SAPS    HX 1094   3.679   0.392   7.337 -0.4372 -0.3342 -1.0656
    9SAPS    HY 1095   3.853   0.370   7.364  0.5674 -1.5452 -1.2865
    9SAPS   O31 1096   3.782   0.303   7.180  0.8401 -0.5187  0.0343
    9SAPS   C31 1097   3.896   0.241   7.167 -0.4112 -0.5684 -1.3749
    9SAPS   O32 1098   3.997   0.254   7.230  0.3154 -0.2618  0.9000
    9SAPS   C32 1099   3.889   0.148   7.052 -0.0421  0.6274 -0.4653
    9SAPS   H2X 1100   3.814   0.070   7.077  0.0746  0.7315  0.2322
    9SAPS   H2Y 1101   3.993   0.110   7.047  0.4269  2.0086 -2.1568
    9SAPS   C23 1102   3.570   0.657   6.831 -1.0880 -0.0483  0.5204
    9SAPS   H3R 1103   3.652   0.726   6.802  0.3654 -1.8329  0.2261
    9SAPS   H3S 1104   3.486   0.721   6.796  3.4515  4.5983 -3.5356
    9SAPS   C24 1105   3.574   0.524   6.759 -0.3934 -0.0479 -0.0194
    9SAPS   H4R 1106   3.654   0.460   6.800 -2.6508 -2.4679  0.8865
    9SAPS   H4S 1107   3.607   0.547   6.655  1.3328  1.9136  0.9011
    9SAPS   C25 1108   3.449   0.446   6.767  0.6549  0.4696 -0.0041
    9SAPS   H5R 1109   3.414   0.422   6.868 -0.1800 -1.1857 -0.6526
    9SAPS   C26 1110   3.388   0.377   6.673  0.3697  0.1756  0.3932
    9SAPS   H6R 1111   3.308   0.312   6.709 -1.6128  1.8448 -0.7230
    9SAPS   C27 1112   3.415   0.367   6.525 -0.3458 -0.5658  0.0112
    9SAPS   H7R 1113   3.396   0.264   6.489 -0.5352 -0.5456  0.0514
    9SAPS   H7S 1114   3.524   0.387   6.514 -0.3149 -0.7025  0.0673
    9SAPS   C28 1115   3.329   0.465   6.448  1.0391  0.1327 -0.1514
    9SAPS   H8R 1116   3.326   0.566   6.492  3.4688  1.6953 -3.1703
    9SAPS   C29 1117   3.258   0.444   6.342  0.0578 -0.6131 -0.2008
    9SAPS   H9R 1118   3.195   0.523   6.297  2.0474 -0.0627 -2.2117
    9SAPS  C210 1119   3.255   0.314   6.263 -0.4013 -0.3902  0.2834
    9SAPS  H10R 1120   3.170   0.303   6.193 -0.6181 -3.4979  0.8856
    9SAPS  H10S 1121   3.237   0.240   6.344 -0.7569 -0.3187  0.2719
    9SAPS  C211 1122   3.388   0.301   6.197 -0.8009  0.6987 -0.3547
    9SAPS  H11R 1123   3.470   0.315   6.269 -0.1528 -0.8190 -0.7676
    9SAPS  C212 1124   3.415   0.278   6.063 -0.4998 -0.1488  0.1671
    9SAPS  H12R 1125   3.521   0.280   6.034 -0.9680 -1.2119 -1.7848
    9SAPS  C213 1126   3.311   0.262   5.953 -0.1650  0.2565 -0.8357
    9SAPS  H13R 1127   3.231   0.210   6.010 -0.5174  1.7438  0.0819
    9SAPS  H13S 1128   3.352   0.205   5.867 -0.9743 -0.4892 -0.7372
    9SAPS  C214 1129   3.266   0.397   5.902 -0.2673 -0.5109  0.3408
    9SAPS  H14R 1130   3.231   0.462   5.984 -1.1186 -1.8892  1.1135
    9SAPS  C215 1131   3.284   0.437   5.777 -0.5657 -1.1270  0.0834
    9SAPS  H15R 1132   3.258   0.542   5.754 -0.9180 -1.3227 -0.4387
    9SAPS  C216 1133   3.339   0.361   5.652  0.1857  0.1960  0.4989
    9SAPS  H16R 1134   3.296   0.404   5.559  1.0481 -1.5045 -0.7289
    9SAPS  H16S 1135   3.293   0.261   5.642 -0.4986  0.7236 -2.8112
    9SAPS  C217 1136   3.491   0.369   5.618  0.0815 -0.6203 -0.1144
    9SAPS  H17R 1137   3.551   0.317   5.696  0.0063 -0.1264  0.2811
    9SAPS  H17S 1138   3.518   0.477   5.623 -1.7674 -0.0946 -0.9797
    9SAPS  C218 1139   3.531   0.316   5.475  0.0443 -0.0137 -0.3085
    9SAPS  H18R 1140   3.499   0.211   5.458 -0.6419  0.1003  0.1908
    9SAPS  H18S 1141   3.642   0.316   5.471  0.1826  1.2602  1.8956
    9SAPS  C219 1142   3.462   0.392   5.362 -0.4722  0.0295  0.3324
    9SAPS  H19R 1143   3.487   0.498   5.385 -1.2259  0.2780  0.0541
    9SAPS  H19S 1144   3.351   0.394   5.373 -0.5503 -0.3743 -0.3270
    9SAPS  C220 1145   3.495   0.346   5.223 -0.0283 -0.4803  0.3668
    9SAPS  H20R 1146   3.467   0.239   5.216 -3.3708  0.2740  0.4784
    9SAPS  H20S 1147   3.603   0.354   5.198  0.4035 -2.3585  1.4615
    9SAPS  H20T 1148   3.452   0.397   5.134  2.8038 -1.0785 -1.5007
    9SAPS   C33 1149   3.848   0.218   6.925 -0.3679 -0.2026 -0.6133
    9SAPS   H3X 1150   3.922   0.302   6.923  0.3596 -0.7785  0.7966
    9SAPS   H3Y 1151   3.748   0.263   6.944  0.0508 -0.1401  1.8507
    9SAPS   C34 1152   3.873   0.134   6.805  0.7540 -0.2720 -0.3516
    9SAPS   H4X 1153   3.804   0.046   6.803 -0.6042  0.7487 -0.0439
    9SAPS   H4Y 1154   3.977   0.096   6.808  0.9364  0.2702  1.1233
    9SAPS   C35 1155   3.830   0.217   6.683  0.7671 -0.4794 -0.3843
    9SAPS   H5X 1156   3.897   0.305   6.689 -0.0564  0.1624 -0.3328
    9SAPS   H5Y 1157   3.725   0.250   6.699  0.3404 -0.7419 -2.4305
    9SAPS   C36 1158   3.858   0.137   6.560 -0.1276  1.0984  0.2499
    9SAPS   H6X 1159   3.796   0.044   6.560  2.5845 -0.8355  0.8816
    9SAPS   H6Y 1160   3.964   0.105   6.558 -0.9230 -2.3097  2.9046
    9SAPS   C37 1161   3.825   0.201   6.429 -0.9099  0.6034  0.2174
    9SAPS   H7X 1162   3.899   0.282   6.413 -0.0618 -0.2762 -0.4539
    9SAPS   H7Y 1163   3.725   0.250   6.431 -2.0784 -1.3804 -2.3555
    9SAPS   C38 1164   3.849   0.109   6.313  0.5715 -0.5170  0.2872
    9SAPS   H8X 1165   3.793   0.014   6.331  0.8135 -0.5909  0.6456
    9SAPS   H8Y 1166   3.954   0.079   6.291  0.0017 -1.3760 -1.5408
    9SAPS   C39 1167   3.790   0.172   6.190  0.1004  0.2035  0.4284
    9SAPS   H9X 1168   3.865   0.244   6.151  1.1419 -1.4096 -0.7213
    9SAPS   H9Y 1169   3.694   0.221   6.215  0.0760 -1.0592  3.1661
    9SAPS  C310 1170   3.776   0.074   6.075 -0.3629 -0.4370 -0.0603
    9SAPS  H10X 1171   3.696   0.002   6.102  0.5119 -1.7298 -0.7929
    9SAPS  H10Y 1172   3.873   0.019   6.074  0.4883  0.9885  0.7296
    9SAPS  C311 1173   3.752   0.138   5.937  0.2087  0.3153 -0.3924
    9SAPS  H11X 1174   3.824   0.220   5.914  2.1851 -1.6827 -1.8047
    9SAPS  H11Y 1175   3.650   0.180   5.928 -0.6139 -1.7870 -1.6540
    9SAPS  C312 1176   3.762   0.025   5.836 -0.5461 -0.6450  0.6745
    9SAPS  H12X 1177   3.691  -0.056   5.866 -0.0242 -2.2772 -2.1736
    9SAPS  H12Y 1178   3.862  -0.024   5.839  0.2453  0.9141  1.0321
    9SAPS  C313 1179   3.731   0.060   5.694  0.7556 -0.4302  0.4000
    9SAPS  H13X 1180   3.770   0.163   5.676 -0.8089  0.3777  1.3994
    9SAPS  H13Y 1181   3.623   0.064   5.671  0.6454 -1.5331  0.6681
    9SAPS  C314 1182   3.787  -0.043   5.597  0.0859  0.1110  0.1974
    9SAPS  H14X 1183   3.742  -0.142   5.619  0.9830 -0.6054 -1.0344
    9SAPS  H14Y 1184   3.898  -0.040   5.603  0.2271  1.9573 -1.8394
    9SAPS  C315 1185   3.747   0.006   5.454 -0.0733  0.1683  0.0128
    9SAPS  H15X 1186   3.791   0.105   5.432  0.4660  1.2084  4.6844
    9SAPS  H15Y 1187   3.637   0.019   5.444  0.0789  1.1875 -0.4331
    9SAPS  C316 1188   3.790  -0.085   5.339 -0.3371  0.5065 -1.1303
    9SAPS  H16X 1189   3.701  -0.142   5.304 -0.5070 -0.3043  0.5285
    9SAPS  H16Y 1190   3.864  -0.158   5.378 -0.6949  0.0831 -1.2281
    9SAPS  C317 1191   3.852  -0.023   5.214  1.0657  0.2354  0.3655
    9SAPS  H17X 1192   3.951   0.017   5.244  2.1759 -1.0214 -1.4197
    9SAPS  H17Y 1193   3.789   0.068   5.200 -0.3373 -0.2203  3.0495
    9SAPS  C318 1194   3.863  -0.107   5.088 -0.4797 -0.0503  1.0391
    9SAPS  H18X 1195   3.759  -0.118   5.052 -0.1688  1.5127 -0.4614
    9SAPS  H18Y 1196   3.912  -0.206   5.093  2.0567  0.9912 -0.8676
    9SAPS  H18Z 1197   3.920  -0.056   5.007  2.0708 -1.1444  2.0295
   10SAPS     N 1198   6.287   1.030   7.757 -0.4319 -0.1716 -0.1409
   10SAPS   HN1 1199   6.255   1.121   7.719 -0.5005 -0.3765 -0.5833
   10SAPS   HN2 1200   6.227   0.955   7.718 -0.2701 -0.2288 -0.2812
   10SAPS   HN3 1201   6.286   1.033   7.861  2.7329 -1.2508  0.0365
   10SAPS   C12 1202   6.432   1.024   7.716 -0.0789 -0.0190  0.4686
   10SAPS  H12A 1203   6.484   1.111   7.754  1.9062 -1.5417  1.4800
   10SAPS   C13 1204   6.511   0.893   7.760  0.0604 -1.2025 -0.0469
   10SAPS  O13A 1205   6.458   0.808   7.822 -0.0676 -0.1717 -0.6373
   10SAPS  O13B 1206   6.636   0.889   7.741  0.0994  0.3004  0.2825
   10SAPS   C11 1207   6.438   1.033   7.555 -0.6091 -0.4350 -0.2453
   10SAPS  H11A 1208   6.386   0.942   7.520  0.5009 -1.4288  0.6209
   10SAPS  H11B 1209   6.542   1.023   7.520 -0.4719 -1.9725  0.5314
   10SAPS     P 1210   6.443   1.264   7.422 -0.1347  0.3716  0.0161
   10SAPS   O13 1211   6.346   1.344   7.350 -0.1378 -0.3292 -1.4268
   10SAPS   O14 1212   6.544   1.336   7.504 -0.1275 -0.4557 -0.0461
   10SAPS   O12 1213   6.375   1.155   7.512 -0.3976  0.0510  0.2512
   10SAPS   O11 1214   6.519   1.165   7.318 -0.8350  0.1364 -0.3025
   10SAPS    C1 1215   6.446   1.096   7.214  0.0838  0.3182  0.6507
   10SAPS    HA 1216   6.356   1.053   7.263  0.3901 -1.5864 -0.3499
   10SAPS    HB 1217   6.437   1.157   7.122  0.0659 -2.3794 -1.2521
   10SAPS    C2 1218   6.532   0.966   7.178 -0.3464 -0.2757  0.3564
   10SAPS    HS 1219   6.548   0.913   7.274 -0.5127 -1.7319 -0.3877
   10SAPS   O21 1220   6.656   1.009   7.115  0.2423  0.6327 -0.0936
   10SAPS   C21 1221   6.761   1.030   7.185 -0.9253 -0.4287  0.2629
   10SAPS   O22 1222   6.770   1.028   7.307 -0.1588  0.1676 -0.6511
   10SAPS   C22 1223   6.881   1.050   7.090 -0.3855  0.1989 -0.3819
   10SAPS   H2R 1224   6.887   0.962   7.023  1.2355  0.4106 -0.5334
   10SAPS   H2S 1225   6.846   1.130   7.022 -3.7880 -0.8196 -0.0349
   10SAPS    C3 1226   6.455   0.863   7.094  0.2963  0.7317  0.2065
   10SAPS    HX 1227   6.392   0.811   7.170  0.8857 -1.3452 -0.6643
   10SAPS    HY 1228   6.526   0.791   7.048 -0.5783  1.5575 -2.6187
   10SAPS   O31 1229   6.384   0.933   6.990  0.7340  0.6802  0.2969
   10SAPS   C31 1230   6.288   0.859   6.929  0.4880  0.0618 -0.1408
   10SAPS   O32 1231   6.240   0.753   6.970 -0.0969 -0.0983  0.1750
   10SAPS   C32 1232   6.227   0.941   6.816  0.8089 -0.4255 -0.6170
   10SAPS   H2X 1233   6.261   1.047   6.823 -0.2391 -0.0973 -0.3145
   10SAPS   H2Y 1234   6.116   0.935   6.816  0.8135 -0.5099 -1.0780
   10SAPS   C23 1235   7.009   1.077   7.170 -0.4165  0.2722  0.6089
   10SAPS   H3R 1236   7.023   0.985   7.231 -2.5682 -1.2715 -1.0457
   10SAPS   H3S 1237   6.986   1.160   7.240 -1.4114 -0.3695  1.0568
   10SAPS   C24 1238   7.130   1.127   7.096  0.4417  0.0634  0.2376
   10SAPS   H4R 1239   7.131   1.237   7.085  2.3699  0.0996  0.4063
   10SAPS   H4S 1240   7.120   1.087   6.993 -0.4800 -0.2118  0.4213
   10SAPS   C25 1241   7.263   1.096   7.166  0.1442  0.1988  0.4008
   10SAPS   H5R 1242   7.270   1.149   7.262 -0.5634  0.4941  0.2919
   10SAPS   C26 1243   7.372   1.032   7.124  0.2573 -1.0482 -0.9770
   10SAPS   H6R 1244   7.452   1.014   7.197 -0.0921  1.0253 -0.0139
   10SAPS   C27 1245   7.374   0.963   6.993  0.0596  0.0855  0.5262
   10SAPS   H7R 1246   7.273   0.927   6.962 -0.7501 -0.3029  3.3088
   10SAPS   H7S 1247   7.429   0.867   7.000  0.2780  0.2506  1.1501
   10SAPS   C28 1248   7.451   1.034   6.885 -0.0554  0.5057 -0.3012
   10SAPS   H8R 1249   7.557   1.062   6.897  0.1239  0.8399 -2.3125
   10SAPS   C29 1250   7.406   1.042   6.754 -0.4205  0.2521 -0.0642
   10SAPS   H9R 1251   7.475   1.082   6.679 -0.6851 -0.5175 -0.7317
   10SAPS  C210 1252   7.271   0.986   6.710  0.1036 -0.3158  0.0388
   10SAPS  H10R 1253   7.187   1.011   6.778  1.3781 -0.8232  1.8931
   10SAPS  H10S 1254   7.259   0.876   6.721 -2.0520  0.0384  1.9271
   10SAPS  C211 1255   7.244   1.031   6.566  0.0637  0.3424 -0.2692
   10SAPS  H11R 1256   7.258   1.140   6.555 -2.1363  0.7491  0.3870
   10SAPS  C212 1257   7.217   0.953   6.466 -0.0597 -0.5689  0.7752
   10SAPS  H12R 1258   7.182   1.003   6.375 -1.8037 -1.2303  1.0489
   10SAPS  C213 1259   7.197   0.803   6.465  0.9191  0.1333  0.9531
   10SAPS  H13R 1260   7.195   0.764   6.569 -1.4551  0.1398  0.9735
   10SAPS  H13S 1261   7.281   0.754   6.412  0.2975 -0.2082  0.2638
   10SAPS  C214 1262   7.065   0.771   6.400 -1.1339  0.0840 -0.3637
   10SAPS  H14R 1263   6.979   0.762   6.467  0.0343 -2.4595  0.9681
   10SAPS  C215 1264   7.046   0.732   6.272 -0.2619 -0.1296  0.3437
   10SAPS  H15R 1265   6.942   0.726   6.235 -0.0252  0.8013 -0.5158
   10SAPS  C216 1266   7.146   0.725   6.156 -0.1441 -0.0556 -0.5718
   10SAPS  H16R 1267   7.175   0.618   6.147 -2.6711 -0.8534 -0.2267
   10SAPS  H16S 1268   7.243   0.775   6.177 -0.1467  0.0099 -0.7145
   10SAPS  C217 1269   7.091   0.775   6.016 -0.1800  0.5728 -0.1940
   10SAPS  H17R 1270   7.061   0.882   6.017 -0.3899  0.5167 -0.3093
   10SAPS  H17S 1271   7.003   0.712   5.992  0.6173 -1.3948  1.7066
   10SAPS  C218 1272   7.198   0.748   5.911 -0.3684 -0.8876 -0.4609
   10SAPS  H18R 1273   7.242   0.648   5.928  1.7281 -0.3863 -2.5080
   10SAPS  H18S 1274   7.278   0.823   5.931  0.7963 -1.2900 -3.2075
   10SAPS  C219 1275   7.132   0.750   5.773  0.3593 -0.4894  0.2202
   10SAPS  H19R 1276   7.094   0.854   5.766 -0.3471 -0.5845  2.0692
   10SAPS  H19S 1277   7.042   0.685   5.769  0.7815 -1.1598  1.4332
   10SAPS  C220 1278   7.228   0.722   5.654  0.2113  0.1593 -0.2449
   10SAPS  H20R 1279   7.294   0.808   5.631  1.0166 -0.1969  0.6353
   10SAPS  H20S 1280   7.173   0.696   5.561  2.1070  0.2211 -1.4185
   10SAPS  H20T 1281   7.285   0.628   5.671  0.4993 -0.2785 -3.1969
   10SAPS   C33 1282   6.256   0.889   6.678  0.2896 -0.0222  0.3295
   10SAPS   H3X 1283   6.359   0.851   6.667  0.9501  0.4606  3.8315
   10SAPS   H3Y 1284   6.237   0.973   6.607 -2.9872  0.1195  1.1817
   10SAPS   C34 1285   6.152   0.785   6.630  0.0411 -0.3607  0.8661
   10SAPS   H4X 1286   6.047   0.819   6.625 -0.0699 -0.8744 -2.0470
   10SAPS   H4Y 1287   6.145   0.707   6.709  2.7660 -2.1652 -0.5122
   10SAPS   C35 1288   6.188   0.714   6.496 -0.9355 -0.7144 -0.4284
   10SAPS   H5X 1289   6.288   0.671   6.519 -1.0449 -0.2873  0.9165
   10SAPS   H5Y 1290   6.203   0.785   6.412 -0.0332  1.2593  1.3072
   10SAPS   C36 1291   6.091   0.609   6.453  0.3990  0.8428  0.4630
   10SAPS   H6X 1292   5.987   0.643   6.438  0.1062 -0.5846 -1.0760
   10SAPS   H6Y 1293   6.089   0.524   6.525  0.9072  2.1597  2.1004
   10SAPS   C37 1294   6.142   0.552   6.320  0.1937 -0.2506  0.1873
   10SAPS   H7X 1295   6.111   0.447   6.299  1.1852 -0.2251 -1.6148
   10SAPS   H7Y 1296   6.251   0.550   6.339  0.3682 -0.8045 -0.7845
   10SAPS   C38 1297   6.109   0.633   6.196 -0.5700  0.2301 -0.9879
   10SAPS   H8X 1298   6.177   0.721   6.197 -0.9142  0.5762  1.9682
   10SAPS   H8Y 1299   6.007   0.675   6.212 -0.5300 -0.2075  0.6009
   10SAPS   C39 1300   6.137   0.561   6.063  0.3235  0.1731  0.4399
   10SAPS   H9X 1301   6.083   0.620   5.985 -1.0481  1.2700  2.1490
   10SAPS   H9Y 1302   6.092   0.460   6.076 -1.4127  0.9361  0.5159
   10SAPS  C310 1303   6.285   0.542   6.028 -0.9520 -0.4796 -0.4210
   10SAPS  H10X 1304   6.337   0.459   6.080 -1.1006 -0.2832  0.0468
   10SAPS  H10Y 1305   6.327   0.639   6.063 -3.4075 -0.0175  1.4578
   10SAPS  C311 1306   6.319   0.533   5.876  0.5418  0.3636 -0.5322
   10SAPS  H11X 1307   6.424   0.496   5.871  0.4141  0.0369 -0.8269
   10SAPS  H11Y 1308   6.296   0.627   5.821 -2.6717  0.0190  0.0146
   10SAPS  C312 1309   6.221   0.434   5.800  0.1804  0.2567 -0.3612
   10SAPS  H12X 1310   6.123   0.486   5.806  0.9203  2.1215 -2.6049
   10SAPS  H12Y 1311   6.205   0.336   5.850  1.7324  0.2539  0.1815
   10SAPS  C313 1312   6.254   0.406   5.653  0.3450 -0.8586 -0.1945
   10SAPS  H13X 1313   6.363   0.388   5.640  0.6021  1.2353 -1.3241
   10SAPS  H13Y 1314   6.228   0.492   5.587  1.2068  0.0665  0.6400
   10SAPS  C314 1315   6.171   0.289   5.594  0.2378 -0.7261 -0.0399
   10SAPS  H14X 1316   6.082   0.334   5.545 -0.2538 -0.9400  0.6451
   10SAPS  H14Y 1317   6.123   0.224   5.670  0.0249  0.0649  0.5094
   10SAPS  C315 1318   6.254   0.200   5.497  0.7741 -0.3579  0.2832
   10SAPS  H15X 1319   6.202   0.106   5.468  0.7941 -0.3829  0.3294
   10SAPS  H15Y 1320   6.352   0.173   5.540  1.0894 -1.4823 -1.0667
   10SAPS  C316 1321   6.293   0.273   5.371 -0.1965 -0.9813  0.3349
   10SAPS  H16X 1322   6.373   0.347   5.392 -1.0915  0.4749 -1.1622
   10SAPS  H16Y 1323   6.209   0.326   5.322  0.2334 -1.6376 -1.1868
   10SAPS  C317 1324   6.341   0.180   5.267  0.2579  0.4533 -0.7789
   10SAPS  H17X 1325   6.361   0.234   5.172 -0.5393  0.1459 -1.1320
   10SAPS  H17Y 1326   6.266   0.107   5.229 -0.8395  0.8105  0.6533
   10SAPS  C318 1327   6.471   0.102   5.304 -0.2431  0.0545 -0.3199
   10SAPS  H18X 1328   6.450   0.018   5.374  0.5770 -2.9221 -3.3399
   10SAPS  H18Y 1329   6.535   0.173   5.359  0.3738 -0.0881 -0.8472
   10SAPS  H18Z 1330   6.526   0.047   5.225  0.0942  0.2124 -0.1931
   11SAPS     N 1331   4.524   4.657   3.321  0.5188 -0.1981 -0.3241
   11SAPS   HN1 1332   4.588   4.666   3.403  0.4667 -0.3374 -0.2682
   11SAPS   HN2 1333   4.564   4.693   3.232 -0.4492 -2.0882 -1.5994
   11SAPS   HN3 1334   4.428   4.694   3.340  0.0801 -1.1240 -0.6404
   11SAPS   C12 1335   4.505   4.503   3.295  0.4271 -0.4891 -0.2688
   11SAPS  H12A 1336   4.463   4.463   3.387 -0.8238 -1.5327 -1.2520
   11SAPS   C13 1337   4.406   4.456   3.184 -0.8083  0.0792 -0.6240
   11SAPS  O13A 1338   4.353   4.542   3.111 -0.0081 -0.3343  0.1835
   11SAPS  O13B 1339   4.380   4.339   3.174  0.2272  0.4030 -0.2229
   11SAPS   C11 1340   4.642   4.444   3.272  0.2593 -0.0393  0.3279
   11SAPS  H11A 1341   4.627   4.336   3.254 -0.7378  0.5019 -2.4587
   11SAPS  H11B 1342   4.710   4.458   3.360  1.8250  1.4403 -1.0441
   11SAPS     P 1343   4.857   4.471   3.114  0.3261  0.0669 -0.3953
   11SAPS   O13 1344   4.857   4.335   3.051 -0.1172 -0.6110 -0.1202
   11SAPS   O14 1345   4.928   4.581   3.043  0.1129 -0.2421  0.2916
   11SAPS   O12 1346   4.707   4.506   3.156  0.6120 -0.4688  0.5124
   11SAPS   O11 1347   4.913   4.459   3.264 -0.1365 -0.0890 -0.3284
   11SAPS    C1 1348   4.999   4.345   3.289  0.3910 -0.1631 -0.2868
   11SAPS    HA 1349   5.064   4.311   3.206 -1.2953  0.2258 -1.8185
   11SAPS    HB 1350   5.076   4.375   3.363 -3.2078  0.6183  3.5555
   11SAPS    C2 1351   4.926   4.220   3.332  0.1804  0.3866 -0.3797
   11SAPS    HS 1352   4.831   4.219   3.275  0.1674 -1.2364 -0.3669
   11SAPS   O21 1353   4.892   4.231   3.469  0.2303 -0.4670 -0.3356
   11SAPS   C21 1354   4.805   4.139   3.502 -0.4879 -0.2486 -0.1572
   11SAPS   O22 1355   4.741   4.071   3.421 -0.4114 -0.9419 -0.2367
   11SAPS   C22 1356   4.807   4.127   3.659 -0.0831 -0.4268  0.2012
   11SAPS   H2R 1357   4.860   4.032   3.680  0.6057  0.3630  2.2496
   11SAPS   H2S 1358   4.864   4.217   3.688  1.5730 -1.3161 -0.1899
   11SAPS    C3 1359   5.002   4.085   3.302 -0.0571 -0.2330 -0.0011
   11SAPS    HX 1360   5.023   4.088   3.193 -2.2455  3.0956 -0.4876
   11SAPS    HY 1361   4.937   3.998   3.326 -1.6664  0.8479 -0.2318
   11SAPS   O31 1362   5.127   4.074   3.377  0.3415  0.6418  0.8024
   11SAPS   C31 1363   5.136   3.993   3.485 -0.2565 -0.8959 -0.3810
   11SAPS   O32 1364   5.047   3.917   3.519 -0.9231  0.5703 -0.0849
   11SAPS   C32 1365   5.273   4.005   3.570  0.4008 -0.0222 -0.0711
   11SAPS   H2X 1366   5.296   4.114   3.579 -1.0154  0.2970 -0.0121
   11SAPS   H2Y 1367   5.339   3.962   3.493 -0.0559  1.2262 -1.2089
   11SAPS   C23 1368   4.671   4.123   3.725  0.1993 -0.2763  0.5107
   11SAPS   H3R 1369   4.631   4.031   3.676  2.4312 -0.2638 -1.5278
   11SAPS   H3S 1370   4.606   4.210   3.702  2.0029  1.4957  1.8746
   11SAPS   C24 1371   4.678   4.106   3.875  0.1018  0.7063 -0.3155
   11SAPS   H4R 1372   4.573   4.100   3.910  0.2398  1.9844  0.3593
   11SAPS   H4S 1373   4.709   4.197   3.931  1.4876 -0.3251  0.6896
   11SAPS   C25 1374   4.748   3.976   3.917  0.1375 -0.1475  0.5112
   11SAPS   H5R 1375   4.749   3.891   3.848  0.2817  0.3635 -0.1280
   11SAPS   C26 1376   4.811   3.966   4.032 -0.5613  0.7307  0.5813
   11SAPS   H6R 1377   4.872   3.876   4.049  1.0416  1.6073 -0.2874
   11SAPS   C27 1378   4.819   4.064   4.143 -0.1964 -0.4667 -1.1196
   11SAPS   H7R 1379   4.808   4.172   4.116 -0.8932  0.5203  2.5416
   11SAPS   H7S 1380   4.924   4.074   4.178 -0.7548  0.4596  0.3943
   11SAPS   C28 1381   4.714   4.049   4.247  0.3902  0.2617  0.4222
   11SAPS   H8R 1382   4.613   4.041   4.204  0.4550 -1.5383  0.5242
   11SAPS   C29 1383   4.725   4.026   4.379 -0.2947  0.1430 -0.3949
   11SAPS   H9R 1384   4.633   4.007   4.438 -0.0867  2.7924  0.9497
   11SAPS  C210 1385   4.852   4.028   4.467  0.4687  0.5546 -0.2010
   11SAPS  H10R 1386   4.940   4.076   4.418 -1.0760  3.2067 -0.5936
   11SAPS  H10S 1387   4.882   3.922   4.482 -1.1612  0.2550  1.2977
   11SAPS  C211 1388   4.836   4.101   4.594  0.9380 -0.1085  0.1479
   11SAPS  H11R 1389   4.828   4.210   4.588 -1.0536 -0.1685  0.7254
   11SAPS  C212 1390   4.848   4.051   4.720 -1.0550  0.4371 -0.1963
   11SAPS  H12R 1391   4.831   4.119   4.804  1.0741 -0.2866  0.9130
   11SAPS  C213 1392   4.850   3.906   4.764  0.3557 -0.0815 -0.1482
   11SAPS  H13R 1393   4.954   3.868   4.772  0.9317  1.5471  0.2817
   11SAPS  H13S 1394   4.798   3.850   4.683 -0.3740  3.0276 -2.0040
   11SAPS  C214 1395   4.763   3.876   4.881 -0.3192  0.2667 -0.2015
   11SAPS  H14R 1396   4.669   3.827   4.853  0.0108  0.8898 -2.6212
   11SAPS  C215 1397   4.797   3.914   5.004 -0.3173  0.3271 -0.1912
   11SAPS  H15R 1398   4.727   3.884   5.084 -0.0090 -0.7511 -0.3152
   11SAPS  C216 1399   4.926   3.985   5.049  0.2855  0.3488  0.3996
   11SAPS  H16R 1400   5.001   3.975   4.967 -0.3933 -2.0091 -0.0088
   11SAPS  H16S 1401   4.974   3.933   5.134  1.0092 -1.5383 -1.0899
   11SAPS  C217 1402   4.892   4.132   5.080  0.2223 -0.1803  1.0215
   11SAPS  H17R 1403   4.842   4.136   5.179 -0.2286  2.1300  0.7693
   11SAPS  H17S 1404   4.805   4.167   5.021  0.8538 -1.0341 -0.4709
   11SAPS  C218 1405   5.013   4.235   5.056  0.7233  0.0371 -0.2389
   11SAPS  H18R 1406   5.042   4.215   4.951  1.4278 -4.8792  0.6622
   11SAPS  H18S 1407   5.101   4.216   5.121  1.9314  0.5370 -1.6834
   11SAPS  C219 1408   4.953   4.385   5.074  0.3882 -0.7091 -0.4214
   11SAPS  H19R 1409   5.037   4.457   5.080  1.2476 -1.7053 -0.2987
   11SAPS  H19S 1410   4.894   4.392   5.168 -1.6573 -1.5599 -1.5761
   11SAPS  C220 1411   4.861   4.441   4.969 -0.5709  0.3829  0.7955
   11SAPS  H20R 1412   4.786   4.369   4.931  0.8169  0.6397 -2.9322
   11SAPS  H20S 1413   4.916   4.484   4.882 -2.7076  3.1147  0.6415
   11SAPS  H20T 1414   4.814   4.529   5.019 -1.5788  0.1808  0.2359
   11SAPS   C33 1415   5.276   3.937   3.712 -0.2446  0.1534  0.4143
   11SAPS   H3X 1416   5.377   3.931   3.759 -0.2915 -1.5171  0.3444
   11SAPS   H3Y 1417   5.245   3.831   3.718  2.2609 -0.6512  0.4225
   11SAPS   C34 1418   5.193   4.024   3.806  0.4889 -0.3951 -0.3755
   11SAPS   H4X 1419   5.082   4.013   3.797  0.1611 -1.1193  3.0747
   11SAPS   H4Y 1420   5.232   4.128   3.801 -1.0119  0.1705 -1.1285
   11SAPS   C35 1421   5.206   3.979   3.955 -0.0020 -1.0001 -0.2074
   11SAPS   H5X 1422   5.115   4.020   4.004 -1.0172 -1.8755 -1.2853
   11SAPS   H5Y 1423   5.302   4.021   3.992 -1.0357 -0.5026  2.0536
   11SAPS   C36 1424   5.197   3.832   3.987 -0.3840  0.5632 -0.1487
   11SAPS   H6X 1425   5.280   3.776   3.939 -1.5530  0.3490 -2.0039
   11SAPS   H6Y 1426   5.107   3.787   3.939 -1.5308  2.8374 -0.2324
   11SAPS   C37 1427   5.172   3.799   4.138 -0.6505 -0.3377  0.7618
   11SAPS   H7X 1428   5.099   3.872   4.180 -0.0267  0.7995 -0.0798
   11SAPS   H7Y 1429   5.266   3.833   4.187 -0.6292  1.9023 -0.7006
   11SAPS   C38 1430   5.139   3.653   4.175  0.5960 -0.1322 -0.0579
   11SAPS   H8X 1431   5.216   3.589   4.127  1.3276  2.0201 -1.9315
   11SAPS   H8Y 1432   5.051   3.624   4.114 -0.2391  0.4331  0.8478
   11SAPS   C39 1433   5.121   3.622   4.325 -0.0307 -0.0610  1.1021
   11SAPS   H9X 1434   5.055   3.533   4.333  0.4936 -0.3648  2.2292
   11SAPS   H9Y 1435   5.071   3.714   4.363  0.7335  0.6514  0.4291
   11SAPS  C310 1436   5.260   3.600   4.396  0.1790  0.0501 -0.0267
   11SAPS  H10X 1437   5.332   3.668   4.347 -0.9047  0.4271 -1.1407
   11SAPS  H10Y 1438   5.297   3.498   4.372 -0.5673 -0.0157 -0.9607
   11SAPS  C311 1439   5.236   3.622   4.547 -0.3795  0.8429  0.4230
   11SAPS  H11X 1440   5.161   3.549   4.582 -0.4676 -0.6098 -2.4999
   11SAPS  H11Y 1441   5.207   3.729   4.557 -0.9848  0.7642 -0.3566
   11SAPS  C312 1442   5.377   3.604   4.622  0.1263  0.3054  0.0259
   11SAPS  H12X 1443   5.455   3.668   4.577  0.2008  0.1683 -0.0386
   11SAPS  H12Y 1444   5.383   3.493   4.617 -3.0100  0.0583 -0.6198
   11SAPS  C313 1445   5.362   3.660   4.773  0.0897  0.6401 -0.8769
   11SAPS  H13X 1446   5.304   3.583   4.828 -0.7789  1.1091 -1.1150
   11SAPS  H13Y 1447   5.297   3.749   4.760  1.7825  1.5861 -4.2156
   11SAPS  C314 1448   5.495   3.692   4.844  0.1124 -0.3497  0.7759
   11SAPS  H14X 1449   5.556   3.756   4.777 -2.1579  0.8380 -0.2879
   11SAPS  H14Y 1450   5.551   3.599   4.867  1.6447 -0.3017 -2.2859
   11SAPS  C315 1451   5.470   3.772   4.968 -0.0678 -0.1812 -0.4764
   11SAPS  H15X 1452   5.405   3.704   5.027 -0.2254 -0.9038 -1.4555
   11SAPS  H15Y 1453   5.423   3.867   4.933 -1.4008  0.0226  1.6549
   11SAPS  C316 1454   5.600   3.803   5.046  0.3386  0.5196  0.2979
   11SAPS  H16X 1455   5.668   3.865   4.984 -2.3022  2.8168 -0.4768
   11SAPS  H16Y 1456   5.644   3.703   5.067  0.4305 -0.1498 -2.7067
   11SAPS  C317 1457   5.564   3.881   5.170  0.0235  0.1990 -0.1808
   11SAPS  H17X 1458   5.510   3.822   5.247  0.4008  0.7663  0.5350
   11SAPS  H17Y 1459   5.498   3.961   5.130 -0.8163  0.6250  1.9475
   11SAPS  C318 1460   5.687   3.936   5.238 -0.3727  0.0546 -0.1830
   11SAPS  H18X 1461   5.747   3.986   5.159 -0.0749 -0.9293 -0.6055
   11SAPS  H18Y 1462   5.741   3.855   5.292 -1.5024  0.1812  1.1916
   11SAPS  H18Z 1463   5.653   4.007   5.316  0.6177  0.2407  0.0957
   12SAPS     N 1464   4.997   2.059   2.780  0.4091  0.0579  0.0120
   12SAPS   HN1 1465   4.984   1.991   2.857 -0.1154 -1.0517 -1.0327
   12SAPS   HN2 1466   5.070   2.131   2.798 -0.2968  0.6628  0.4997
   12SAPS   HN3 1467   4.912   2.111   2.751  0.8714  0.2224 -1.1220
   12SAPS   C12 1468   5.048   1.982   2.666 -0.6856 -0.2840  0.0521
   12SAPS  H12A 1469   4.964   1.919   2.639 -1.4198  0.3377  0.8278
   12SAPS   C13 1470   5.066   2.067   2.533  0.4083 -0.2515 -1.1212
   12SAPS  O13A 1471   5.028   2.194   2.529 -0.6474  0.4245  0.1151
   12SAPS  O13B 1472   5.111   2.007   2.437  0.2437  0.1958 -0.3814
   12SAPS   C11 1473   5.168   1.897   2.716 -0.8821 -0.7043 -0.2137
   12SAPS  H11A 1474   5.207   1.841   2.628  2.0520  0.4258  0.2438
   12SAPS  H11B 1475   5.131   1.827   2.795  1.8570  0.2944  2.1342
   12SAPS     P 1476   5.422   1.910   2.782  0.5881  0.1156  0.3583
   12SAPS   O13 1477   5.430   1.795   2.696 -0.5406  0.3190 -0.1658
   12SAPS   O14 1478   5.531   2.010   2.757  0.2371 -0.0841 -0.4575
   12SAPS   O12 1479   5.274   1.978   2.767 -0.1232 -0.0141  0.2857
   12SAPS   O11 1480   5.409   1.860   2.926  0.4205 -0.3335  0.1351
   12SAPS    C1 1481   5.382   1.957   3.026 -1.3448 -0.1063 -0.2701
   12SAPS    HA 1482   5.481   1.989   3.067 -1.3712  1.1170 -1.1012
   12SAPS    HB 1483   5.331   2.047   2.985 -0.3001  0.8836  0.5326
   12SAPS    C2 1484   5.296   1.892   3.132  0.1557 -0.0821  0.3389
   12SAPS    HS 1485   5.209   1.854   3.075  3.4903 -1.5038 -4.3868
   12SAPS   O21 1486   5.256   2.005   3.225  0.2627 -0.1855 -0.1987
   12SAPS   C21 1487   5.153   1.976   3.299  0.0972  0.4448  0.2759
   12SAPS   O22 1488   5.085   1.871   3.288 -0.2122  0.5796  0.5478
   12SAPS   C22 1489   5.111   2.086   3.387  0.6475 -1.1454 -0.6317
   12SAPS   H2R 1490   5.112   2.180   3.328 -1.0723  0.7488  2.0801
   12SAPS   H2S 1491   5.007   2.071   3.422 -0.1289  0.9057 -1.9479
   12SAPS    C3 1492   5.357   1.776   3.209 -0.4705 -0.4045 -0.1204
   12SAPS    HX 1493   5.402   1.706   3.135 -1.5506 -1.1118 -0.1200
   12SAPS    HY 1494   5.278   1.724   3.268 -0.1800 -0.1972  0.4621
   12SAPS   O31 1495   5.453   1.828   3.303  0.1569 -0.3314  1.3054
   12SAPS   C31 1496   5.487   1.735   3.388  1.1193  0.4787  0.7000
   12SAPS   O32 1497   5.463   1.616   3.371  0.2852  0.3807  0.1721
   12SAPS   C32 1498   5.574   1.795   3.500  0.7170  0.7665  0.0895
   12SAPS   H2X 1499   5.505   1.864   3.554 -0.4032 -1.1382  1.2001
   12SAPS   H2Y 1500   5.648   1.849   3.437 -1.3553  0.7330 -2.5145
   12SAPS   C23 1501   5.202   2.117   3.509 -0.1784  0.7354 -0.2731
   12SAPS   H3R 1502   5.299   2.146   3.463  0.2588  0.9091  0.7304
   12SAPS   H3S 1503   5.221   2.035   3.582 -1.2313 -1.8863 -2.7623
   12SAPS   C24 1504   5.149   2.237   3.587  0.1062 -0.4764  0.2633
   12SAPS   H4R 1505   5.047   2.210   3.622  0.7717 -0.9228  1.9674
   12SAPS   H4S 1506   5.119   2.318   3.517 -0.4689 -1.3336 -0.5077
   12SAPS   C25 1507   5.247   2.271   3.693  0.1571  0.0810  0.0991
   12SAPS   H5R 1508   5.236   2.203   3.778  1.4533 -2.0593 -1.3605
   12SAPS   C26 1509   5.335   2.371   3.693 -0.3762 -0.5287 -0.2669
   12SAPS   H6R 1510   5.396   2.385   3.784  1.2195  0.8332 -1.4922
   12SAPS   C27 1511   5.368   2.474   3.592 -0.6107  0.5951  0.2406
   12SAPS   H7R 1512   5.282   2.470   3.523 -1.4589  2.3522  1.1139
   12SAPS   H7S 1513   5.458   2.429   3.545 -0.3595 -0.5770  1.7740
   12SAPS   C28 1514   5.396   2.613   3.649  0.4331 -0.3294  0.1673
   12SAPS   H8R 1515   5.500   2.650   3.650  0.6165 -0.8400 -0.0213
   12SAPS   C29 1516   5.296   2.697   3.679 -0.3203 -0.0154 -0.4141
   12SAPS   H9R 1517   5.327   2.798   3.711  1.8693  0.5971 -3.8871
   12SAPS  C210 1518   5.149   2.670   3.680 -0.4034  0.0214  0.1750
   12SAPS  H10R 1519   5.132   2.560   3.679  0.9722 -0.2621  2.3154
   12SAPS  H10S 1520   5.093   2.724   3.601  0.4726 -0.7343 -0.9822
   12SAPS  C211 1521   5.093   2.723   3.811  0.7136 -0.2982  0.4589
   12SAPS  H11R 1522   5.071   2.830   3.823 -0.9302 -0.5310 -0.2504
   12SAPS  C212 1523   5.063   2.651   3.925  0.2414 -0.2393  0.1618
   12SAPS  H12R 1524   5.022   2.704   4.012 -1.2728 -0.8373 -0.1631
   12SAPS  C213 1525   5.067   2.502   3.944 -0.2019 -0.1722  0.1257
   12SAPS  H13R 1526   5.171   2.475   3.916 -0.1460  2.8896 -3.4341
   12SAPS  H13S 1527   5.003   2.461   3.863  1.2532 -1.9427 -0.1927
   12SAPS  C214 1528   5.001   2.452   4.075  0.3933 -0.0466 -0.0025
   12SAPS  H14R 1529   5.072   2.399   4.142 -0.4313 -0.6796  0.3867
   12SAPS  C215 1530   4.874   2.466   4.124 -0.2107 -0.1961 -0.6224
   12SAPS  H15R 1531   4.845   2.422   4.221  2.1744  1.5795  0.9819
   12SAPS  C216 1532   4.756   2.527   4.055 -0.0693 -0.5383 -0.0779
   12SAPS  H16R 1533   4.670   2.456   4.054 -0.9012  0.4208  0.9585
   12SAPS  H16S 1534   4.795   2.552   3.954  3.8350 -1.9271  0.8970
   12SAPS  C217 1535   4.701   2.643   4.139 -0.0915  0.7454  0.4447
   12SAPS  H17R 1536   4.633   2.698   4.070  0.3952 -0.2555 -0.8736
   12SAPS  H17S 1537   4.786   2.704   4.177  0.9538  0.1647 -0.8750
   12SAPS  C218 1538   4.617   2.585   4.258 -0.5938  0.2829  0.2984
   12SAPS  H18R 1539   4.619   2.652   4.347 -1.9279  0.5464  0.1486
   12SAPS  H18S 1540   4.671   2.491   4.283 -1.0718 -0.1071 -0.1254
   12SAPS  C219 1541   4.472   2.566   4.220 -0.6589 -0.3250  0.4176
   12SAPS  H19R 1542   4.479   2.495   4.134 -1.5287  0.2129 -0.1119
   12SAPS  H19S 1543   4.437   2.667   4.188  0.2161 -0.3916 -0.8565
   12SAPS  C220 1544   4.398   2.521   4.341  0.3185 -0.1310  0.1815
   12SAPS  H20R 1545   4.447   2.437   4.395  0.0630 -0.0513  0.5375
   12SAPS  H20S 1546   4.292   2.505   4.310  1.0032 -0.5512 -2.1277
   12SAPS  H20T 1547   4.385   2.603   4.415  0.2265  0.3508 -0.3611
   12SAPS   C33 1548   5.623   1.684   3.598 -0.2821  0.6609 -1.0896
   12SAPS   H3X 1549   5.722   1.648   3.564  0.3596 -0.3710  1.5667
   12SAPS   H3Y 1550   5.546   1.604   3.598  2.4067 -2.0951  0.0389
   12SAPS   C34 1551   5.636   1.757   3.736  0.2508 -0.2225  0.1517
   12SAPS   H4X 1552   5.688   1.855   3.742  0.5830 -0.4192  0.5497
   12SAPS   H4Y 1553   5.700   1.687   3.793 -1.0548 -1.7408 -0.1889
   12SAPS   C35 1554   5.502   1.788   3.805  0.1653 -0.2992 -0.3665
   12SAPS   H5X 1555   5.454   1.688   3.813  2.0371 -1.5235 -2.8240
   12SAPS   H5Y 1556   5.428   1.854   3.755  1.0892  1.7811  0.8581
   12SAPS   C36 1557   5.523   1.842   3.945 -0.5745 -0.2632  0.3517
   12SAPS   H6X 1558   5.421   1.844   3.991 -1.5924  0.0215 -1.8177
   12SAPS   H6Y 1559   5.564   1.944   3.954  0.3853 -0.7732  2.6135
   12SAPS   C37 1560   5.605   1.745   4.031 -0.4027 -0.0762  0.4877
   12SAPS   H7X 1561   5.713   1.735   4.008 -0.5920 -0.1470 -0.4004
   12SAPS   H7Y 1562   5.558   1.648   4.007 -1.3820  0.5538 -0.2332
   12SAPS   C38 1563   5.600   1.775   4.187 -0.0281  0.9677 -0.3134
   12SAPS   H8X 1564   5.652   1.694   4.242 -3.1861 -1.9367 -1.2212
   12SAPS   H8Y 1565   5.495   1.783   4.223 -0.1847 -1.4810 -0.0640
   12SAPS   C39 1566   5.668   1.906   4.222  0.3153 -0.3531 -0.0132
   12SAPS   H9X 1567   5.629   1.994   4.168  2.9106  2.1032  1.8013
   12SAPS   H9Y 1568   5.773   1.891   4.189  0.0187 -1.6812 -0.4309
   12SAPS  C310 1569   5.666   1.937   4.367 -0.2380 -0.0721  0.0794
   12SAPS  H10X 1570   5.562   1.968   4.387  0.0311 -0.5334  2.3912
   12SAPS  H10Y 1571   5.728   2.028   4.383  2.1101 -1.5146 -0.3306
   12SAPS  C311 1572   5.719   1.830   4.461  0.0265  0.4756  0.0514
   12SAPS  H11X 1573   5.814   1.785   4.426  0.9203  0.8067  1.8969
   12SAPS  H11Y 1574   5.642   1.751   4.471 -0.7559  0.8721 -2.3470
   12SAPS  C312 1575   5.752   1.896   4.598 -0.3550  0.1057  0.7666
   12SAPS  H12X 1576   5.661   1.955   4.622 -0.3441  0.4158  0.0741
   12SAPS  H12Y 1577   5.831   1.974   4.587 -0.6080  0.5646  2.0537
   12SAPS  C313 1578   5.792   1.794   4.707  0.2558  0.0754 -0.8089
   12SAPS  H13X 1579   5.866   1.727   4.658  0.4995 -0.8183  0.7272
   12SAPS  H13Y 1580   5.700   1.738   4.732 -0.5320  0.3986 -2.8214
   12SAPS  C314 1581   5.862   1.842   4.839  0.1896  0.1410  0.9555
   12SAPS  H14X 1582   5.958   1.889   4.808 -0.3205  0.5665 -0.0276
   12SAPS  H14Y 1583   5.891   1.752   4.897 -0.4853 -0.2899  0.6305
   12SAPS  C315 1584   5.762   1.921   4.921  0.2056  0.0514 -0.1750
   12SAPS  H15X 1585   5.658   1.889   4.899  0.6723 -2.7060  1.2431
   12SAPS  H15Y 1586   5.772   2.029   4.898  1.2010 -0.3200 -1.6121
   12SAPS  C316 1587   5.780   1.904   5.080 -0.3487 -1.0377  0.2255
   12SAPS  H16X 1588   5.798   1.795   5.090  0.9772 -0.7540  1.1750
   12SAPS  H16Y 1589   5.681   1.928   5.125 -0.1794 -0.2531  0.1900
   12SAPS  C317 1590   5.885   2.004   5.136  0.0826  0.8434  0.1550
   12SAPS  H17X 1591   5.851   2.109   5.121  1.7571  1.2806 -0.8336
   12SAPS  H17Y 1592   5.978   1.982   5.080  0.1052 -0.5065  0.6731
   12SAPS  C318 1593   5.915   1.965   5.281 -0.3281 -0.9896 -0.1429
   12SAPS  H18X 1594   5.959   1.868   5.309 -0.9787 -1.4800 -0.7643
   12SAPS  H18Y 1595   5.816   1.959   5.332  1.2603 -3.1114  2.9469
   12SAPS  H18Z 1596   5.980   2.041   5.329  0.4635 -0.2614 -2.2600
   13SAPS     N 1597   5.639   3.717   2.499 -0.3624 -0.1267 -0.0963
   13SAPS   HN1 1598   5.545   3.683   2.471  0.3743 -1.1258 -1.4588
   13SAPS   HN2 1599   5.679   3.771   2.419  0.6527 -0.3967  0.2107
   13SAPS   HN3 1600   5.702   3.642   2.532 -1.1135 -0.4753  0.5827
   13SAPS   C12 1601   5.624   3.804   2.622  0.1762  0.6348 -0.3976
   13SAPS  H12A 1602   5.695   3.886   2.626  0.9963 -0.0995  0.4918
   13SAPS   C13 1603   5.480   3.850   2.636  0.1303 -0.5183 -0.9503
   13SAPS  O13A 1604   5.399   3.780   2.579  0.2917 -0.8463 -0.0751
   13SAPS  O13B 1605   5.445   3.940   2.719  0.0463 -0.3125 -0.0663
   13SAPS   C11 1606   5.665   3.712   2.744  0.2710  0.2129 -0.3669
   13SAPS  H11A 1607   5.601   3.622   2.737  1.3299 -0.6273  0.2736
   13SAPS  H11B 1608   5.647   3.771   2.836  2.4422  1.5459 -0.7224
   13SAPS     P 1609   5.850   3.582   2.868  0.2272  0.0595  0.2357
   13SAPS   O13 1610   5.788   3.446   2.866 -0.3546  0.2466  0.5367
   13SAPS   O14 1611   6.001   3.584   2.880 -0.6750  0.4483  0.2452
   13SAPS   O12 1612   5.805   3.667   2.742  0.0139 -0.0169  0.2137
   13SAPS   O11 1613   5.783   3.655   2.991  0.3085  0.1635  0.4241
   13SAPS    C1 1614   5.825   3.783   3.039  0.4080 -0.7039 -0.3304
   13SAPS    HA 1615   5.846   3.851   2.954 -0.0935  0.8644  0.7625
   13SAPS    HB 1616   5.735   3.825   3.089 -0.5358 -1.9470 -0.9425
   13SAPS    C2 1617   5.943   3.772   3.146  0.0599  0.6283  0.8336
   13SAPS    HS 1618   6.030   3.723   3.097 -0.8169 -1.1310  0.9241
   13SAPS   O21 1619   5.893   3.688   3.260  0.3955 -0.5929  0.4383
   13SAPS   C21 1620   5.969   3.595   3.295 -0.2525 -0.1541  0.6251
   13SAPS   O22 1621   6.080   3.572   3.263 -0.8302  0.4478  0.1529
   13SAPS   C22 1622   5.901   3.518   3.407 -0.7352  0.4695  0.3149
   13SAPS   H2R 1623   5.845   3.595   3.466  2.6832  3.9421 -0.5880
   13SAPS   H2S 1624   5.833   3.439   3.368  1.5229 -1.8431  0.8116
   13SAPS    C3 1625   5.985   3.916   3.194  0.0220  0.3479 -0.0496
   13SAPS    HX 1626   5.894   3.950   3.248 -1.7175 -1.7131 -1.4943
   13SAPS    HY 1627   5.991   3.976   3.101  0.5358  2.0571  1.0472
   13SAPS   O31 1628   6.103   3.918   3.274  0.3103 -0.2732  0.2945
   13SAPS   C31 1629   6.211   3.895   3.201 -0.6309 -0.4388  0.7775
   13SAPS   O32 1630   6.222   3.879   3.080  0.5249  0.3448  0.1349
   13SAPS   C32 1631   6.337   3.903   3.290 -0.1661  0.2354 -0.1079
   13SAPS   H2X 1632   6.351   4.010   3.318  4.9586 -0.2779  0.2326
   13SAPS   H2Y 1633   6.426   3.854   3.246  1.0475  0.1998  2.1984
   13SAPS   C23 1634   5.992   3.464   3.517 -0.2736  0.4500 -0.3356
   13SAPS   H3R 1635   6.071   3.399   3.474  1.3421  1.9003  0.3268
   13SAPS   H3S 1636   5.930   3.391   3.573 -0.3835 -0.1594 -1.2372
   13SAPS   C24 1637   6.050   3.570   3.612 -0.2771 -0.1398 -0.0241
   13SAPS   H4R 1638   5.960   3.631   3.635 -0.2831 -0.5975  1.2578
   13SAPS   H4S 1639   6.120   3.620   3.541 -0.8336  1.9108  0.7873
   13SAPS   C25 1640   6.124   3.522   3.738  0.1776 -0.2935  0.0738
   13SAPS   H5R 1641   6.213   3.459   3.720 -0.8518 -1.0060 -3.3220
   13SAPS   C26 1642   6.091   3.545   3.869  0.4064  0.1073 -1.0757
   13SAPS   H6R 1643   6.165   3.520   3.947 -0.6552  1.6364  0.4957
   13SAPS   C27 1644   5.982   3.639   3.917  0.8577 -0.2809 -0.2395
   13SAPS   H7R 1645   5.925   3.585   3.996  2.1132  0.8507  1.4930
   13SAPS   H7S 1646   5.904   3.658   3.840  1.2376  0.1857 -0.5151
   13SAPS   C28 1647   6.043   3.763   3.967 -0.3181 -0.0326  0.5424
   13SAPS   H8R 1648   6.074   3.829   3.885  0.2329  1.0636  1.5985
   13SAPS   C29 1649   6.071   3.801   4.093 -0.2770  0.8216 -0.2885
   13SAPS   H9R 1650   6.113   3.902   4.102 -0.8914  1.2918 -2.2947
   13SAPS  C210 1651   6.041   3.723   4.224 -0.6467  0.3310  0.8992
   13SAPS  H10R 1652   6.135   3.693   4.274  0.4213  1.3320 -0.4247
   13SAPS  H10S 1653   5.985   3.630   4.200  1.0393 -0.7995  1.2386
   13SAPS  C211 1654   5.943   3.803   4.305  0.2603  0.5393 -0.3510
   13SAPS  H11R 1655   5.884   3.880   4.252  1.2991  0.3103 -1.9232
   13SAPS  C212 1656   5.921   3.792   4.437 -0.6936 -0.3787 -0.3148
   13SAPS  H12R 1657   5.848   3.866   4.472 -1.7287 -1.0618 -0.9846
   13SAPS  C213 1658   5.988   3.704   4.535 -0.0577 -0.0190  0.1625
   13SAPS  H13R 1659   6.073   3.657   4.481  1.3542  2.4484  0.0887
   13SAPS  H13S 1660   5.916   3.621   4.554 -1.6572  0.9530 -1.3017
   13SAPS  C214 1661   6.030   3.768   4.662 -0.0261  0.2168  1.1453
   13SAPS  H14R 1662   5.975   3.858   4.695 -1.3215  0.2568 -0.9129
   13SAPS  C215 1663   6.137   3.734   4.744 -0.1344  0.1514  0.8996
   13SAPS  H15R 1664   6.154   3.808   4.823  1.4665  1.3344 -0.4934
   13SAPS  C216 1665   6.237   3.623   4.737  0.0882  0.4023 -0.0019
   13SAPS  H16R 1666   6.345   3.646   4.748  0.6555 -1.9907  0.1231
   13SAPS  H16S 1667   6.233   3.577   4.636  0.0317  0.5280 -0.0569
   13SAPS  C217 1668   6.214   3.516   4.840  0.3601  0.0850  0.0965
   13SAPS  H17R 1669   6.275   3.428   4.811 -0.9988 -0.9533  0.2626
   13SAPS  H17S 1670   6.110   3.479   4.827  0.6118 -0.5225 -0.2152
   13SAPS  C218 1671   6.237   3.562   4.981  0.2325  0.6013 -0.2326
   13SAPS  H18R 1672   6.152   3.630   5.006 -1.0342 -1.5723  1.7266
   13SAPS  H18S 1673   6.332   3.618   4.988  1.5190 -1.3412 -1.2017
   13SAPS  C219 1674   6.239   3.444   5.080  0.2065 -0.6285 -0.4611
   13SAPS  H19R 1675   6.332   3.392   5.048  2.1297  1.3582  1.5491
   13SAPS  H19S 1676   6.145   3.384   5.082  0.1033 -0.4733 -0.6232
   13SAPS  C220 1677   6.258   3.497   5.222 -0.6037 -0.7052 -0.1068
   13SAPS  H20R 1678   6.176   3.557   5.266 -1.4395 -0.6075 -1.6987
   13SAPS  H20S 1679   6.358   3.540   5.243 -1.6640  1.2099  1.2329
   13SAPS  H20T 1680   6.261   3.399   5.275  1.1863 -0.9917 -0.6500
   13SAPS   C33 1681   6.311   3.816   3.419  0.0264 -0.3417 -0.4341
   13SAPS   H3X 1682   6.303   3.707   3.398  2.6861 -1.0707  1.8443
   13SAPS   H3Y 1683   6.215   3.853   3.462  0.8946  0.7659  0.6298
   13SAPS   C34 1684   6.404   3.837   3.536 -0.0269  0.2747 -0.0150
   13SAPS   H4X 1685   6.405   3.946   3.560 -0.5662  0.7239 -1.9195
   13SAPS   H4Y 1686   6.506   3.797   3.515 -0.8172 -1.2593 -1.0608
   13SAPS   C35 1687   6.362   3.761   3.664 -0.2306 -0.5932 -0.4342
   13SAPS   H5X 1688   6.340   3.654   3.643 -1.0238 -0.4815 -0.2268
   13SAPS   H5Y 1689   6.267   3.798   3.707 -2.1395 -0.2955 -4.4632
   13SAPS   C36 1690   6.467   3.767   3.766 -0.7045 -0.0922  0.5217
   13SAPS   H6X 1691   6.493   3.875   3.773  0.9269 -0.2540 -1.8369
   13SAPS   H6Y 1692   6.564   3.729   3.728 -0.1620  0.3965  1.3826
   13SAPS   C37 1693   6.444   3.687   3.892 -0.3374 -0.2327  0.6759
   13SAPS   H7X 1694   6.427   3.582   3.858  2.5347 -0.1966 -1.2478
   13SAPS   H7Y 1695   6.350   3.723   3.939 -1.7239 -0.8583 -1.4341
   13SAPS   C38 1696   6.559   3.697   3.988  0.4010 -0.5193 -0.2100
   13SAPS   H8X 1697   6.595   3.795   4.026  2.3510 -1.7868  1.4665
   13SAPS   H8Y 1698   6.653   3.654   3.947  0.3332 -1.5266  0.6466
   13SAPS   C39 1699   6.515   3.604   4.095  0.2028 -0.2649 -0.6442
   13SAPS   H9X 1700   6.515   3.499   4.061 -0.3432 -0.1479 -1.0276
   13SAPS   H9Y 1701   6.418   3.641   4.136  0.5299  0.7167 -0.7299
   13SAPS  C310 1702   6.608   3.613   4.218  0.4189 -0.5941  0.1832
   13SAPS  H10X 1703   6.620   3.717   4.255  1.5725 -1.1321  1.4005
   13SAPS  H10Y 1704   6.710   3.584   4.183  1.3996  2.5711  0.0722
   13SAPS  C311 1705   6.579   3.524   4.336 -0.4321 -0.4814  0.9508
   13SAPS  H11X 1706   6.576   3.418   4.305  1.4254 -0.0288 -1.0112
   13SAPS  H11Y 1707   6.481   3.555   4.377 -1.6569 -0.6018 -1.6912
   13SAPS  C312 1708   6.680   3.551   4.445  0.8848  0.3958  0.6742
   13SAPS  H12X 1709   6.707   3.659   4.445 -1.1007  0.9343  0.1795
   13SAPS  H12Y 1710   6.776   3.499   4.427 -0.1523 -1.1559 -0.6183
   13SAPS  C313 1711   6.626   3.517   4.585  0.5467 -0.0690  0.5544
   13SAPS  H13X 1712   6.575   3.418   4.581 -1.8549  1.0674  1.2374
   13SAPS  H13Y 1713   6.546   3.582   4.625  0.2557 -1.0438  1.6111
   13SAPS  C314 1714   6.733   3.512   4.697 -0.5511 -0.2076 -0.9180
   13SAPS  H14X 1715   6.771   3.615   4.713 -1.4266 -0.1226  0.8783
   13SAPS  H14Y 1716   6.817   3.446   4.666  1.6792  2.4189 -0.8674
   13SAPS  C315 1717   6.667   3.481   4.829  0.3267  0.4264  0.2047
   13SAPS  H15X 1718   6.583   3.408   4.821 -0.3550  1.3158 -0.8759
   13SAPS  H15Y 1719   6.609   3.570   4.862  0.7703  0.8246 -0.0818
   13SAPS  C316 1720   6.765   3.443   4.935 -0.1661 -0.1043  0.9455
   13SAPS  H16X 1721   6.844   3.520   4.944 -0.9443  0.7958  0.2438
   13SAPS  H16Y 1722   6.802   3.341   4.911 -1.2927 -0.5115  0.9163
   13SAPS  C317 1723   6.692   3.416   5.069 -0.4775  0.0934  0.0876
   13SAPS  H17X 1724   6.661   3.309   5.074  1.2885 -0.5564 -1.6179
   13SAPS  H17Y 1725   6.599   3.477   5.064 -0.1474  0.4838 -3.0656
   13SAPS  C318 1726   6.766   3.476   5.192  0.0433 -0.8945 -0.8208
   13SAPS  H18X 1727   6.703   3.459   5.282  1.8932 -0.9323  0.5288
   13SAPS  H18Y 1728   6.802   3.580   5.178  0.7058 -0.9399  0.3480
   13SAPS  H18Z 1729   6.856   3.413   5.212 -0.7522 -0.9732  3.5228
   14SAPS     N 1730   4.812   2.674   2.670 -0.1873  0.4782 -0.0565
   14SAPS   HN1 1731   4.871   2.734   2.730  0.7379 -0.5830  0.1373
   14SAPS   HN2 1732   4.865   2.589   2.640 -3.9815 -2.2842  0.2919
   14SAPS   HN3 1733   4.768   2.730   2.594  0.4004  1.4093  0.2787
   14SAPS   C12 1734   4.696   2.616   2.752  0.2955 -0.0926 -0.3930
   14SAPS  H12A 1735   4.638   2.695   2.797 -0.0109 -0.3740 -0.2883
   14SAPS   C13 1736   4.593   2.536   2.664  0.7868 -0.3721 -0.8684
   14SAPS  O13A 1737   4.608   2.530   2.538  0.5784 -0.7453  0.9173
   14SAPS  O13B 1738   4.479   2.510   2.721 -0.4817 -0.2864  0.2494
   14SAPS   C11 1739   4.745   2.536   2.874 -0.4194  0.4851 -0.7794
   14SAPS  H11A 1740   4.817   2.469   2.822  0.9181  2.8417 -2.1620
   14SAPS  H11B 1741   4.677   2.471   2.934  0.2368  1.4518  1.0632
   14SAPS     P 1742   4.763   2.697   3.093 -0.2818 -0.0690  0.2171
   14SAPS   O13 1743   4.778   2.593   3.195 -0.5785 -0.1214 -0.1162
   14SAPS   O14 1744   4.842   2.820   3.101 -0.1048  0.1915  0.3020
   14SAPS   O12 1745   4.820   2.620   2.963 -0.1129  0.0748 -0.1345
   14SAPS   O11 1746   4.611   2.717   3.052  0.2713  0.0463 -0.1033
   14SAPS    C1 1747   4.563   2.849   3.081  0.5371 -0.2873 -0.2375
   14SAPS    HA 1748   4.620   2.924   3.022  0.6385  1.0438  1.4540
   14SAPS    HB 1749   4.461   2.856   3.039 -0.6661 -1.1804  2.3229
   14SAPS    C2 1750   4.564   2.887   3.236  0.4279  0.6037 -0.4129
   14SAPS    HS 1751   4.666   2.920   3.262  0.4361  1.8765 -1.9055
   14SAPS   O21 1752   4.516   2.774   3.310 -0.1923 -0.4391  0.2902
   14SAPS   C21 1753   4.573   2.750   3.433  0.4935 -0.3578 -0.2850
   14SAPS   O22 1754   4.651   2.820   3.493 -0.1582 -0.4312  0.1363
   14SAPS   C22 1755   4.515   2.623   3.487 -0.2984  0.1783  0.0631
   14SAPS   H2R 1756   4.406   2.643   3.487 -0.2048  0.6792 -0.1768
   14SAPS   H2S 1757   4.527   2.534   3.421  1.3482  0.8509 -0.5975
   14SAPS    C3 1758   4.471   3.005   3.268 -0.2927  0.1920  0.2671
   14SAPS    HX 1759   4.361   2.986   3.261 -0.4736  1.6434 -1.3721
   14SAPS    HY 1760   4.495   3.082   3.192  0.4666  0.6161  0.9284
   14SAPS   O31 1761   4.499   3.062   3.394 -0.0735 -0.3666 -0.0304
   14SAPS   C31 1762   4.618   3.122   3.408  0.5424  0.2209  0.7411
   14SAPS   O32 1763   4.701   3.140   3.321 -0.3002  0.1096 -0.1639
   14SAPS   C32 1764   4.622   3.183   3.550  0.5112  0.2333 -0.0512
   14SAPS   H2X 1765   4.602   3.292   3.540  0.9914  0.3737  0.4286
   14SAPS   H2Y 1766   4.721   3.177   3.601 -0.4441 -1.3831  1.7425
   14SAPS   C23 1767   4.561   2.586   3.627  0.1342  0.7073 -0.1170
   14SAPS   H3R 1768   4.484   2.514   3.661  0.7658  0.0249 -0.1275
   14SAPS   H3S 1769   4.572   2.675   3.693 -0.8996  0.2354  0.7254
   14SAPS   C24 1770   4.700   2.524   3.621  0.2965  1.0563 -0.5951
   14SAPS   H4R 1771   4.722   2.516   3.730 -0.7544  0.1731 -0.4294
   14SAPS   H4S 1772   4.778   2.593   3.583  0.0742  1.9195  0.4803
   14SAPS   C25 1773   4.704   2.389   3.556 -0.2469  0.5676  0.1565
   14SAPS   H5R 1774   4.703   2.391   3.446  2.0631 -1.3267  0.0219
   14SAPS   C26 1775   4.702   2.275   3.618  0.0163 -0.1242 -0.1700
   14SAPS   H6R 1776   4.700   2.187   3.552  2.5778  0.3325 -0.9839
   14SAPS   C27 1777   4.715   2.243   3.767  0.4003 -0.0235 -0.6603
   14SAPS   H7R 1778   4.651   2.313   3.825  2.4950  0.1299  1.6353
   14SAPS   H7S 1779   4.818   2.271   3.797  0.7632 -0.5379 -1.3926
   14SAPS   C28 1780   4.684   2.097   3.804  0.7962 -0.0797  0.2299
   14SAPS   H8R 1781   4.665   2.019   3.729  1.4619 -0.0837  0.0579
   14SAPS   C29 1782   4.682   2.057   3.934  0.2535 -0.1755  0.0460
   14SAPS   H9R 1783   4.675   1.953   3.970 -1.4362  0.2043  0.9161
   14SAPS  C210 1784   4.717   2.156   4.044 -0.2307  0.0869 -0.0252
   14SAPS  H10R 1785   4.637   2.232   4.051 -0.7238 -0.2950 -1.2492
   14SAPS  H10S 1786   4.805   2.213   4.007  1.4275  0.0574  3.4116
   14SAPS  C211 1787   4.753   2.088   4.175  0.3123 -0.2665  0.3827
   14SAPS  H11R 1788   4.863   2.090   4.188  0.2333  0.9539  1.0579
   14SAPS  C212 1789   4.665   2.037   4.255  0.2799  0.2642 -0.3084
   14SAPS  H12R 1790   4.693   1.982   4.346 -1.7545  1.5948  1.2272
   14SAPS  C213 1791   4.514   2.040   4.245 -0.6562 -0.0138 -0.6937
   14SAPS  H13R 1792   4.463   1.942   4.229  0.8773 -0.9872  0.1438
   14SAPS  H13S 1793   4.480   2.109   4.165  0.1425  1.4513  0.1801
   14SAPS  C214 1794   4.459   2.089   4.376 -0.0785  0.3776 -0.4120
   14SAPS  H14R 1795   4.417   2.191   4.373 -1.9850 -0.3713 -0.9258
   14SAPS  C215 1796   4.447   2.007   4.483 -0.4662  0.0916 -0.4898
   14SAPS  H15R 1797   4.408   2.047   4.578 -2.3792 -1.6557 -0.4584
   14SAPS  C216 1798   4.495   1.862   4.489  0.5410  0.4043 -0.6048
   14SAPS  H16R 1799   4.531   1.823   4.392  3.6179  0.7428  0.2999
   14SAPS  H16S 1800   4.406   1.802   4.517  0.6699  0.5179  0.0622
   14SAPS  C217 1801   4.595   1.839   4.609 -0.3571  0.2833  0.3069
   14SAPS  H17R 1802   4.681   1.908   4.590  0.2000 -0.4240  0.2089
   14SAPS  H17S 1803   4.626   1.734   4.591 -2.4606 -0.3481  0.1292
   14SAPS  C218 1804   4.543   1.864   4.745  0.0666  0.5361 -0.4277
   14SAPS  H18R 1805   4.441   1.821   4.752  0.0263  0.8554  1.3742
   14SAPS  H18S 1806   4.536   1.970   4.776  0.5523 -0.1618  2.4005
   14SAPS  C219 1807   4.638   1.807   4.853 -0.8032  0.0612  0.4182
   14SAPS  H19R 1808   4.739   1.838   4.817 -1.3198  0.2595 -0.8870
   14SAPS  H19S 1809   4.637   1.697   4.836 -0.3455  0.0757  0.2881
   14SAPS  C220 1810   4.602   1.854   4.996  0.4692  0.1079 -0.2437
   14SAPS  H20R 1811   4.674   1.798   5.060 -0.5088  1.1508  1.8413
   14SAPS  H20S 1812   4.509   1.815   5.041 -0.1746  2.2841  0.4290
   14SAPS  H20T 1813   4.624   1.963   5.000  1.4637  0.2973 -4.7074
   14SAPS   C33 1814   4.520   3.119   3.640 -0.1184 -0.6323 -1.0057
   14SAPS   H3X 1815   4.533   3.010   3.656 -1.5150 -0.7115 -0.1768
   14SAPS   H3Y 1816   4.418   3.138   3.598 -0.5052 -1.2717 -0.3809
   14SAPS   C34 1817   4.534   3.179   3.779  0.5799 -0.1659  0.5624
   14SAPS   H4X 1818   4.486   3.277   3.765 -0.1939 -0.6860 -0.5805
   14SAPS   H4Y 1819   4.644   3.194   3.784  0.4177  0.8517  1.3799
   14SAPS   C35 1820   4.471   3.098   3.893  0.6327  0.1664 -0.3887
   14SAPS   H5X 1821   4.491   2.990   3.879 -0.4992 -0.6695  3.3032
   14SAPS   H5Y 1822   4.360   3.100   3.889  0.6154  0.0303  0.0338
   14SAPS   C36 1823   4.521   3.127   4.032  0.3875 -0.2644  0.6004
   14SAPS   H6X 1824   4.480   3.222   4.072  2.1033  0.8526 -0.1629
   14SAPS   H6Y 1825   4.629   3.151   4.041  0.0487  2.5700 -1.7875
   14SAPS   C37 1826   4.492   3.011   4.132  0.1575  0.0571 -0.8776
   14SAPS   H7X 1827   4.578   2.941   4.137 -0.8748 -1.1706  1.0439
   14SAPS   H7Y 1828   4.394   2.960   4.120 -0.1897  0.7305 -0.9399
   14SAPS   C38 1829   4.496   3.066   4.274  0.3243 -0.3351 -0.4074
   14SAPS   H8X 1830   4.410   3.134   4.294  0.2982 -0.4340 -0.1790
   14SAPS   H8Y 1831   4.592   3.121   4.278 -0.0755  0.5105 -1.6960
   14SAPS   C39 1832   4.490   2.968   4.390 -0.4249  0.4205 -0.5073
   14SAPS   H9X 1833   4.565   2.889   4.367 -0.5592  0.9746 -3.1170
   14SAPS   H9Y 1834   4.390   2.922   4.381 -0.2144 -0.0234 -0.5845
   14SAPS  C310 1835   4.519   3.035   4.527  0.2539 -0.5450 -0.0788
   14SAPS  H10X 1836   4.459   3.128   4.540  0.0661 -0.9681  2.8408
   14SAPS  H10Y 1837   4.629   3.046   4.528  0.6734 -2.8267 -3.6955
   14SAPS  C311 1838   4.474   2.942   4.640 -0.1588  0.3227 -0.2586
   14SAPS  H11X 1839   4.533   2.848   4.652 -0.5351  0.0403 -0.5577
   14SAPS  H11Y 1840   4.366   2.917   4.629 -0.0725 -0.4542  0.5152
   14SAPS  C312 1841   4.461   3.014   4.776 -0.6293  0.6144  0.3340
   14SAPS  H12X 1842   4.422   2.930   4.836 -1.1233 -1.9098 -3.1928
   14SAPS  H12Y 1843   4.393   3.100   4.787 -1.9331 -0.4485  0.7981
   14SAPS  C313 1844   4.602   3.070   4.815  0.6019  0.1333  0.4880
   14SAPS  H13X 1845   4.593   3.153   4.888  0.3153  0.0606  0.5408
   14SAPS  H13Y 1846   4.657   3.104   4.726  1.5743 -2.4181  0.0138
   14SAPS  C314 1847   4.700   2.956   4.868 -0.0067  0.0398 -0.5410
   14SAPS  H14X 1848   4.732   2.907   4.774 -0.0644 -0.2459 -0.4128
   14SAPS  H14Y 1849   4.652   2.891   4.944  0.4752 -0.8393 -0.9778
   14SAPS  C315 1850   4.832   3.007   4.926  0.5763  0.5278 -0.0353
   14SAPS  H15X 1851   4.880   3.080   4.858 -0.2432  1.7289  0.6372
   14SAPS  H15Y 1852   4.894   2.914   4.929 -2.8104 -1.9918 -2.0386
   14SAPS  C316 1853   4.809   3.084   5.057 -0.6105  0.2640 -0.1361
   14SAPS  H16X 1854   4.723   3.154   5.055 -0.0972  1.0105  1.5628
   14SAPS  H16Y 1855   4.893   3.151   5.086 -1.1302  0.4961  0.8719
   14SAPS  C317 1856   4.772   2.992   5.172 -0.3014 -0.1575  0.2417
   14SAPS  H17X 1857   4.858   2.925   5.192 -0.1344  0.0164  0.1154
   14SAPS  H17Y 1858   4.683   2.932   5.145  1.5296 -2.4769 -1.0257
   14SAPS  C318 1859   4.766   3.063   5.310  0.1597  0.1296 -0.5510
   14SAPS  H18X 1860   4.867   3.094   5.345 -0.9410  0.5815  2.4630
   14SAPS  H18Y 1861   4.725   2.991   5.384 -1.3932  0.8164 -0.7072
   14SAPS  H18Z 1862   4.699   3.151   5.310 -0.5011 -0.2894 -3.2142
   15SAPS     N 1863   0.493   5.827   2.487  0.3920 -0.1213  0.0807
   15SAPS   HN1 1864   0.435   5.906   2.520  0.0531 -1.1261  1.9931
   15SAPS   HN2 1865   0.595   5.835   2.507  0.2193  1.1172  0.5596
   15SAPS   HN3 1866   0.482   5.813   2.384 -1.2952 -0.3601  0.2800
   15SAPS   C12 1867   0.458   5.712   2.571 -0.6503 -0.0923  0.2992
   15SAPS  H12A 1868   0.353   5.692   2.560 -0.6805 -0.4266  1.1424
   15SAPS   C13 1869   0.538   5.579   2.534 -0.2333 -1.0850 -0.6699
   15SAPS  O13A 1870   0.587   5.577   2.420  0.0401  0.0262 -0.1071
   15SAPS  O13B 1871   0.522   5.475   2.603 -0.1443  0.2574  0.2676
   15SAPS   C11 1872   0.484   5.745   2.717 -0.2108 -0.3712  0.0393
   15SAPS  H11A 1873   0.594   5.744   2.738  0.1287  0.5574 -1.5455
   15SAPS  H11B 1874   0.433   5.669   2.780 -0.5422  0.4254  0.7567
   15SAPS     P 1875   0.287   5.910   2.797  0.1943 -0.2248 -0.2417
   15SAPS   O13 1876   0.242   6.032   2.735  0.2510 -0.4478 -0.2127
   15SAPS   O14 1877   0.198   5.792   2.774 -0.7958  0.3959 -0.5214
   15SAPS   O12 1878   0.429   5.873   2.742  0.1102 -0.6232 -0.5697
   15SAPS   O11 1879   0.298   5.938   2.954  0.1568 -0.1393 -0.4309
   15SAPS    C1 1880   0.416   5.926   3.030 -0.4340 -0.0895  0.3452
   15SAPS    HA 1881   0.506   5.916   2.966  0.0280  1.3396  0.7346
   15SAPS    HB 1882   0.431   6.017   3.091  1.0962  1.3723 -2.0369
   15SAPS    C2 1883   0.408   5.807   3.124  0.2043  0.1627  0.2760
   15SAPS    HS 1884   0.385   5.733   3.045 -0.9302  0.0224  0.7200
   15SAPS   O21 1885   0.300   5.831   3.220  0.4996  0.1193 -0.3200
   15SAPS   C21 1886   0.251   5.723   3.280  0.6107 -0.1862  0.1517
   15SAPS   O22 1887   0.279   5.608   3.249 -0.0789  0.1846  0.1895
   15SAPS   C22 1888   0.153   5.777   3.388  0.1544  0.9964 -0.5102
   15SAPS   H2R 1889   0.183   5.879   3.421 -0.4931  1.2465 -0.6732
   15SAPS   H2S 1890   0.050   5.782   3.345  0.0258  0.1763 -0.3116
   15SAPS    C3 1891   0.549   5.774   3.189  0.1590  0.9312 -0.0314
   15SAPS    HX 1892   0.606   5.731   3.103 -3.0378 -1.1534 -1.3107
   15SAPS    HY 1893   0.539   5.699   3.270 -0.0520  1.5712  0.5423
   15SAPS   O31 1894   0.618   5.881   3.240  0.3724 -0.4715 -0.4760
   15SAPS   C31 1895   0.589   5.942   3.355  0.0238 -0.3008 -0.4283
   15SAPS   O32 1896   0.499   5.915   3.433  0.1754  0.3222  0.3595
   15SAPS   C32 1897   0.696   6.050   3.368 -0.1480  0.2633 -0.2117
   15SAPS   H2X 1898   0.685   6.112   3.276 -2.1919  3.2008  1.8167
   15SAPS   H2Y 1899   0.797   6.004   3.359  0.3191  0.8105  1.7633
   15SAPS   C23 1900   0.149   5.677   3.509 -0.0350 -0.7584  0.7804
   15SAPS   H3R 1901   0.255   5.654   3.536  0.1150 -0.7254  0.2283
   15SAPS   H3S 1902   0.110   5.583   3.465 -1.1873  0.6309 -1.2827
   15SAPS   C24 1903   0.072   5.714   3.637 -0.7766 -0.1274  0.6878
   15SAPS   H4R 1904   0.066   5.628   3.707  0.5977 -0.8599 -0.0483
   15SAPS   H4S 1905  -0.031   5.725   3.599  0.1892 -1.3415 -2.6413
   15SAPS   C25 1906   0.125   5.835   3.704 -0.4578 -0.0659  0.5756
   15SAPS   H5R 1907   0.070   5.926   3.678 -1.5404 -1.2180 -1.4821
   15SAPS   C26 1908   0.232   5.845   3.783 -0.2166 -0.2590  0.2980
   15SAPS   H6R 1909   0.244   5.933   3.848  1.1514 -1.5322  1.8303
   15SAPS   C27 1910   0.335   5.732   3.812 -0.1927 -0.0534 -0.3608
   15SAPS   H7R 1911   0.420   5.775   3.869 -1.0007  0.1704  0.7113
   15SAPS   H7S 1912   0.379   5.692   3.718  1.7199 -1.9655  1.2449
   15SAPS   C28 1913   0.276   5.617   3.900  0.3491  0.2719  0.4665
   15SAPS   H8R 1914   0.257   5.526   3.841  1.4446  1.1926 -1.3876
   15SAPS   C29 1915   0.277   5.606   4.035  0.0986  0.1723 -0.4048
   15SAPS   H9R 1916   0.228   5.517   4.076  0.4059 -0.0082 -0.4265
   15SAPS  C210 1917   0.314   5.719   4.134  0.3350 -0.1674 -0.0956
   15SAPS  H10R 1918   0.223   5.748   4.190  0.2690 -1.7097  0.6347
   15SAPS  H10S 1919   0.353   5.803   4.072  2.0558 -0.5623  0.3892
   15SAPS  C211 1920   0.424   5.683   4.233  0.6714 -0.1646  0.9662
   15SAPS  H11R 1921   0.520   5.643   4.197  0.7644  2.7304 -2.6356
   15SAPS  C212 1922   0.418   5.704   4.362  0.0671 -0.6010  0.0717
   15SAPS  H12R 1923   0.510   5.674   4.413  0.2540 -2.3307 -1.1963
   15SAPS  C213 1924   0.310   5.765   4.448 -0.5525 -0.5204  0.2381
   15SAPS  H13R 1925   0.251   5.845   4.399  0.6793  1.0651  1.2221
   15SAPS  H13S 1926   0.374   5.820   4.521  1.3962 -1.2532 -0.8356
   15SAPS  C214 1927   0.216   5.655   4.508  0.2223 -0.4319  0.6335
   15SAPS  H14R 1928   0.134   5.625   4.441  1.7424  1.0688 -2.1165
   15SAPS  C215 1929   0.213   5.598   4.632 -0.7202 -0.9652  0.0057
   15SAPS  H15R 1930   0.154   5.506   4.638 -3.3540  0.5985 -0.3244
   15SAPS  C216 1931   0.310   5.623   4.742  0.0913  0.7474  0.1077
   15SAPS  H16R 1932   0.389   5.688   4.699  1.8316 -1.4958 -0.2834
   15SAPS  H16S 1933   0.356   5.526   4.770 -0.9658 -0.3806 -1.9276
   15SAPS  C217 1934   0.233   5.680   4.864  0.4316 -0.3506 -0.0233
   15SAPS  H17R 1935   0.194   5.784   4.856 -0.2218 -0.6544 -0.9707
   15SAPS  H17S 1936   0.302   5.687   4.951  2.1886 -0.1196 -1.3839
   15SAPS  C218 1937   0.131   5.582   4.916 -0.2816  0.9376  0.4988
   15SAPS  H18R 1938   0.191   5.489   4.928 -1.0314  0.0811 -1.7332
   15SAPS  H18S 1939   0.055   5.561   4.837  2.6485 -0.5906 -2.1526
   15SAPS  C219 1940   0.073   5.623   5.053 -0.1990 -0.6574  0.2289
   15SAPS  H19R 1941  -0.026   5.574   5.067  0.0562 -1.2358  0.0417
   15SAPS  H19S 1942   0.057   5.733   5.059  0.5012 -0.5927  1.1597
   15SAPS  C220 1943   0.173   5.596   5.169 -0.2389  0.1938 -0.0620
   15SAPS  H20R 1944   0.130   5.627   5.267 -1.7840 -1.9519 -0.0083
   15SAPS  H20S 1945   0.266   5.656   5.157 -0.8584  0.9546 -1.2377
   15SAPS  H20T 1946   0.204   5.490   5.171  3.5028  1.1748  1.6898
   15SAPS   C33 1947   0.682   6.133   3.497  0.5524  0.2528  0.0948
   15SAPS   H3X 1948   0.574   6.158   3.493  0.2543 -1.0267 -0.0334
   15SAPS   H3Y 1949   0.744   6.225   3.492  0.7953  0.0256 -1.4971
   15SAPS   C34 1950   0.717   6.062   3.632 -0.2290 -0.6059  0.5324
   15SAPS   H4X 1951   0.824   6.031   3.635  0.2774  1.0762  2.1709
   15SAPS   H4Y 1952   0.662   5.966   3.637 -1.1772 -0.0617  0.6969
   15SAPS   C35 1953   0.688   6.150   3.755  0.4546 -0.0363  0.6039
   15SAPS   H5X 1954   0.594   6.207   3.741 -0.3145 -1.3388  0.3128
   15SAPS   H5Y 1955   0.770   6.225   3.764 -0.3849  0.9408  0.2359
   15SAPS   C36 1956   0.671   6.062   3.880 -0.5689  0.5527 -0.1331
   15SAPS   H6X 1957   0.736   5.972   3.886 -0.9486  0.3517  1.5064
   15SAPS   H6Y 1958   0.567   6.023   3.877 -0.4826  0.3352 -0.2962
   15SAPS   C37 1959   0.673   6.134   4.014 -0.0630 -0.4624  0.3553
   15SAPS   H7X 1960   0.622   6.231   3.995  1.1433 -0.4077 -3.3503
   15SAPS   H7Y 1961   0.780   6.162   4.022  0.0464 -0.9473  0.5912
   15SAPS   C38 1962   0.622   6.072   4.146  0.1482  0.3565 -0.3119
   15SAPS   H8X 1963   0.676   5.975   4.151 -4.0559 -2.2739 -0.7314
   15SAPS   H8Y 1964   0.517   6.042   4.125  0.1001  0.9542 -0.9762
   15SAPS   C39 1965   0.626   6.172   4.254  0.6153 -0.3166 -0.1278
   15SAPS   H9X 1966   0.541   6.240   4.231  0.4541  0.2337  1.8240
   15SAPS   H9Y 1967   0.715   6.237   4.239 -0.4474  1.6070  1.3039
   15SAPS  C310 1968   0.616   6.107   4.388  0.7163 -0.1729 -0.2445
   15SAPS  H10X 1969   0.705   6.041   4.403  1.2602  0.7123  0.5808
   15SAPS  H10Y 1970   0.538   6.032   4.412  0.3308  0.5232  0.7588
   15SAPS  C311 1971   0.604   6.212   4.499  0.0940  0.1028  0.8841
   15SAPS  H11X 1972   0.508   6.262   4.474 -0.3147 -1.5299 -1.0600
   15SAPS  H11Y 1973   0.693   6.277   4.484 -1.7612  2.8152  0.8008
   15SAPS  C312 1974   0.593   6.145   4.635  0.4292 -0.6861 -0.4574
   15SAPS  H12X 1975   0.691   6.099   4.658  0.0192 -0.5596  1.8401
   15SAPS  H12Y 1976   0.510   6.071   4.642  1.1543 -1.4640  0.2512
   15SAPS  C313 1977   0.572   6.242   4.749 -0.4972  0.6986 -0.2147
   15SAPS  H13X 1978   0.496   6.313   4.710  1.1303  3.2124  0.9561
   15SAPS  H13Y 1979   0.661   6.303   4.774  0.4689 -0.4073 -0.8606
   15SAPS  C314 1980   0.529   6.176   4.882  0.7308  0.1098 -0.2026
   15SAPS  H14X 1981   0.610   6.103   4.903  1.1761  0.5437 -0.4081
   15SAPS  H14Y 1982   0.434   6.118   4.877  0.5148  0.6004 -3.8497
   15SAPS  C315 1983   0.518   6.275   4.996  0.2585  0.1716  0.3046
   15SAPS  H15X 1984   0.424   6.334   4.993 -0.0797 -0.3716  0.2685
   15SAPS  H15Y 1985   0.606   6.344   5.001  0.6080 -0.3206  1.2131
   15SAPS  C316 1986   0.516   6.194   5.123 -0.3567  0.4440 -0.0814
   15SAPS  H16X 1987   0.606   6.132   5.144 -1.4435 -0.7693  1.1991
   15SAPS  H16Y 1988   0.431   6.123   5.129 -0.6851  0.9471  2.0804
   15SAPS  C317 1989   0.515   6.282   5.255 -0.1718 -0.5302  0.3527
   15SAPS  H17X 1990   0.424   6.344   5.243 -1.0604 -1.7242  0.7099
   15SAPS  H17Y 1991   0.609   6.340   5.267  0.8012 -1.9122 -0.2870
   15SAPS  C318 1992   0.515   6.182   5.373  0.0057 -0.3197 -0.4104
   15SAPS  H18X 1993   0.615   6.133   5.376  0.0623 -0.1943 -0.2721
   15SAPS  H18Y 1994   0.435   6.109   5.347 -0.1657 -0.3737  0.2669
   15SAPS  H18Z 1995   0.506   6.232   5.472  1.8926  0.2786 -0.5010
   16SAPS     N 1996   6.334   3.703   2.582  0.1806 -0.8146 -0.2842
   16SAPS   HN1 1997   6.368   3.801   2.573  1.8145 -1.3203 -0.0620
   16SAPS   HN2 1998   6.237   3.707   2.547  0.6536 -0.1573 -1.6011
   16SAPS   HN3 1999   6.338   3.681   2.683  0.9292 -0.5137 -0.2398
   16SAPS   C12 2000   6.415   3.604   2.517 -1.0978 -0.9921  0.3597
   16SAPS  H12A 2001   6.382   3.503   2.537 -0.1638 -1.2487  0.6522
   16SAPS   C13 2002   6.434   3.618   2.362 -0.3882 -0.2528 -0.3910
   16SAPS  O13A 2003   6.405   3.726   2.308  0.1561  0.0540  0.2732
   16SAPS  O13B 2004   6.497   3.524   2.312  0.3667  0.7140 -0.9617
   16SAPS   C11 2005   6.553   3.616   2.585 -0.0235  0.5982  0.1445
   16SAPS  H11A 2006   6.593   3.719   2.571  1.7740 -0.0931 -0.1368
   16SAPS  H11B 2007   6.617   3.541   2.533 -2.1544 -0.6048 -0.8496
   16SAPS     P 2008   6.650   3.629   2.826  0.5638  0.0522 -0.1031
   16SAPS   O13 2009   6.731   3.513   2.869 -0.2124  0.2722 -0.5903
   16SAPS   O14 2010   6.725   3.748   2.769 -0.1923 -0.3643 -0.1475
   16SAPS   O12 2011   6.546   3.579   2.724 -0.6517  0.3989  0.0605
   16SAPS   O11 2012   6.560   3.681   2.948  0.5082  0.2215  0.1764
   16SAPS    C1 2013   6.484   3.590   3.038  0.6263 -0.0525 -0.5341
   16SAPS    HA 2014   6.380   3.626   3.047  1.0169  1.2356 -0.9770
   16SAPS    HB 2015   6.494   3.486   3.000  1.8438 -0.1264 -0.0536
   16SAPS    C2 2016   6.548   3.595   3.184  0.1709 -0.3272 -0.2155
   16SAPS    HS 2017   6.539   3.700   3.218 -0.0658  0.7580 -3.3229
   16SAPS   O21 2018   6.685   3.551   3.177  0.5454  0.4284  0.4271
   16SAPS   C21 2019   6.774   3.647   3.193 -0.4774  0.3114  0.8379
   16SAPS   O22 2020   6.745   3.764   3.196 -0.3379  0.0249  0.0563
   16SAPS   C22 2021   6.903   3.576   3.217  0.3426  1.0358  0.0311
   16SAPS   H2R 2022   6.888   3.486   3.281  0.9404  0.3225 -0.8113
   16SAPS   H2S 2023   6.935   3.555   3.113 -0.3248  1.6348 -0.2974
   16SAPS    C3 2024   6.479   3.493   3.278 -0.5272 -0.1649  0.2642
   16SAPS    HX 2025   6.485   3.393   3.229  0.6724 -0.3567  0.7806
   16SAPS    HY 2026   6.371   3.519   3.281 -0.1201  1.5765  0.8639
   16SAPS   O31 2027   6.524   3.507   3.413 -0.6200  0.4193  0.3148
   16SAPS   C31 2028   6.610   3.410   3.453 -0.3044  0.8611  0.6749
   16SAPS   O32 2029   6.639   3.315   3.379 -0.3844  0.3852  0.5524
   16SAPS   C32 2030   6.666   3.441   3.591  0.2706 -0.6041  0.2972
   16SAPS   H2X 2031   6.582   3.461   3.661  1.5945  0.5926  1.6285
   16SAPS   H2Y 2032   6.737   3.527   3.583  0.5334 -0.7715  0.8231
   16SAPS   C23 2033   7.016   3.668   3.273  0.0438  0.3442 -0.0132
   16SAPS   H3R 2034   7.015   3.766   3.219 -1.4662 -0.2763 -1.1597
   16SAPS   H3S 2035   7.111   3.618   3.244  0.6182 -0.3267  2.7608
   16SAPS   C24 2036   7.024   3.684   3.423  0.2718  0.0500 -0.6961
   16SAPS   H4R 2037   7.123   3.725   3.452  0.3455 -2.1896  2.8992
   16SAPS   H4S 2038   7.021   3.586   3.477  0.9859  1.0683  1.3034
   16SAPS   C25 2039   6.914   3.783   3.464  0.2996 -0.7519 -0.3027
   16SAPS   H5R 2040   6.855   3.839   3.390  0.2124  0.2461  0.4903
   16SAPS   C26 2041   6.853   3.796   3.584 -0.0555 -0.1769 -0.4099
   16SAPS   H6R 2042   6.787   3.883   3.582  0.6352  0.3526 -1.5674
   16SAPS   C27 2043   6.891   3.726   3.711 -0.5498  0.0337 -0.5258
   16SAPS   H7R 2044   6.917   3.620   3.693  0.6927  0.3193 -0.4649
   16SAPS   H7S 2045   6.807   3.715   3.783 -1.3698 -0.1513 -1.4682
   16SAPS   C28 2046   7.009   3.781   3.788  0.6197 -0.5227 -0.5642
   16SAPS   H8R 2047   7.091   3.823   3.727  2.0539 -1.8648  0.3877
   16SAPS   C29 2048   7.036   3.772   3.917 -0.0080  0.1359 -0.4898
   16SAPS   H9R 2049   7.131   3.804   3.962 -0.1769  0.8683 -0.6415
   16SAPS  C210 2050   6.941   3.716   4.020 -0.2031  0.2399  0.2693
   16SAPS  H10R 2051   6.889   3.627   3.977 -1.8103  0.1332  2.2543
   16SAPS  H10S 2052   6.859   3.789   4.034 -0.9895 -0.5812  0.0937
   16SAPS  C211 2053   6.997   3.671   4.154  0.2814  0.3999 -0.0700
   16SAPS  H11R 2054   7.042   3.571   4.158  0.0804  0.3245  0.4768
   16SAPS  C212 2055   6.997   3.737   4.268 -0.1344 -0.9169 -0.0033
   16SAPS  H12R 2056   7.044   3.702   4.362 -1.1072  0.7393  1.1541
   16SAPS  C213 2057   6.935   3.872   4.287  0.3665 -0.0374  0.1209
   16SAPS  H13R 2058   6.827   3.874   4.313  0.3972 -1.2376  0.3960
   16SAPS  H13S 2059   6.933   3.929   4.192 -1.9236 -0.1768  0.0206
   16SAPS  C214 2060   7.011   3.953   4.383 -0.0222  0.5855 -0.1038
   16SAPS  H14R 2061   7.116   3.971   4.357  0.4586  0.1171  1.4006
   16SAPS  C215 2062   6.969   4.011   4.495  0.1537  0.4607  0.2566
   16SAPS  H15R 2063   7.042   4.076   4.545 -0.7911  0.3080  1.9173
   16SAPS  C216 2064   6.830   4.007   4.559 -0.5123 -0.5293 -0.8399
   16SAPS  H16R 2065   6.766   3.932   4.507  1.0127 -1.8401 -0.8720
   16SAPS  H16S 2066   6.778   4.105   4.557 -2.1165 -1.3419 -1.6160
   16SAPS  C217 2067   6.839   3.956   4.703  0.1573  0.8171 -0.0102
   16SAPS  H17R 2068   6.913   4.021   4.753  1.3090  0.8425 -1.6633
   16SAPS  H17S 2069   6.875   3.851   4.704  0.6133  0.9725  0.0600
   16SAPS  C218 2070   6.704   3.960   4.772  0.3832 -0.4398 -0.3832
   16SAPS  H18R 2071   6.626   3.930   4.699  0.9073 -1.2656 -0.6103
   16SAPS  H18S 2072   6.690   4.067   4.798  2.8479 -0.6245  2.1004
   16SAPS  C219 2073   6.694   3.870   4.896  0.3431  0.2137 -0.4570
   16SAPS  H19R 2074   6.780   3.897   4.961  0.7679 -0.1232 -0.8753
   16SAPS  H19S 2075   6.694   3.761   4.874  1.4999  0.1927 -0.3755
   16SAPS  C220 2076   6.562   3.890   4.975 -0.1346 -0.0065 -0.0549
   16SAPS  H20R 2077   6.474   3.854   4.917  0.6690  1.1726 -2.0779
   16SAPS  H20S 2078   6.555   3.999   4.991  1.7842 -0.1025  1.7163
   16SAPS  H20T 2079   6.570   3.839   5.074  2.3994 -0.8475 -0.6154
   16SAPS   C33 2080   6.747   3.315   3.644  0.2249 -0.7507 -0.9383
   16SAPS   H3X 2081   6.821   3.299   3.563  0.2743 -1.9261 -0.6751
   16SAPS   H3Y 2082   6.677   3.228   3.642 -2.5657  1.2242  1.3229
   16SAPS   C34 2083   6.797   3.329   3.782 -0.1444  0.1451  0.1822
   16SAPS   H4X 2084   6.834   3.433   3.797 -1.2239  0.9545 -2.2374
   16SAPS   H4Y 2085   6.892   3.273   3.799 -0.3285 -0.2454 -0.0656
   16SAPS   C35 2086   6.692   3.291   3.893 -0.9350  0.5152 -0.3735
   16SAPS   H5X 2087   6.686   3.180   3.898 -1.5085  0.5983  1.6799
   16SAPS   H5Y 2088   6.590   3.332   3.874 -2.6985 -2.2989  2.0730
   16SAPS   C36 2089   6.733   3.333   4.033  0.2180  0.0224 -0.2153
   16SAPS   H6X 2090   6.639   3.321   4.091 -1.6882 -0.6954 -3.2508
   16SAPS   H6Y 2091   6.763   3.440   4.027 -0.5689  0.3212  0.9020
   16SAPS   C37 2092   6.833   3.248   4.107 -0.2402 -0.6885 -0.1663
   16SAPS   H7X 2093   6.879   3.316   4.182  1.7913  1.2319 -2.9329
   16SAPS   H7Y 2094   6.906   3.216   4.029 -1.2589 -1.7700 -0.7119
   16SAPS   C38 2095   6.778   3.135   4.178 -0.2736  0.5980  0.0822
   16SAPS   H8X 2096   6.853   3.054   4.168 -0.7923  0.0823  0.2855
   16SAPS   H8Y 2097   6.681   3.099   4.136  1.8559 -1.8678 -3.1541
   16SAPS   C39 2098   6.763   3.166   4.325 -0.0010 -0.6693  0.1251
   16SAPS   H9X 2099   6.681   3.240   4.338 -1.8166 -2.5614 -0.0148
   16SAPS   H9Y 2100   6.859   3.203   4.368  1.3741  0.7219 -3.6596
   16SAPS  C310 2101   6.724   3.047   4.417  0.8927  1.0307 -0.4459
   16SAPS  H10X 2102   6.800   2.968   4.401 -0.3663 -0.3972  0.4288
   16SAPS  H10Y 2103   6.623   3.003   4.402 -0.0444  2.6016  0.9080
   16SAPS  C311 2104   6.718   3.090   4.568 -0.1891  0.7228 -0.3638
   16SAPS  H11X 2105   6.646   3.174   4.577 -0.1848  0.7286 -0.3822
   16SAPS  H11Y 2106   6.814   3.124   4.612 -1.2788  1.5908  1.4514
   16SAPS  C312 2107   6.660   2.988   4.677 -0.2961 -0.2254  0.0819
   16SAPS  H12X 2108   6.720   2.896   4.665 -0.7150 -0.8370  2.2931
   16SAPS  H12Y 2109   6.551   2.974   4.661 -0.1475 -2.5287  0.8022
   16SAPS  C313 2110   6.661   3.061   4.815 -0.5555 -0.1207 -0.0157
   16SAPS  H13X 2111   6.572   3.124   4.838 -1.1987 -1.0107  0.0119
   16SAPS  H13Y 2112   6.757   3.116   4.826  0.4912 -2.2363  2.2413
   16SAPS  C314 2113   6.657   2.950   4.921 -0.4806  0.3607  0.2959
   16SAPS  H14X 2114   6.733   2.870   4.909  0.5569  1.3662 -0.0381
   16SAPS  H14Y 2115   6.557   2.902   4.907 -0.0043 -0.5827  0.0650
   16SAPS  C315 2116   6.683   2.995   5.065 -0.2368 -0.3398 -0.1012
   16SAPS  H15X 2117   6.609   3.077   5.079 -0.7224 -0.8839  0.6157
   16SAPS  H15Y 2118   6.789   3.028   5.069 -0.8026  1.4841  1.2182
   16SAPS  C316 2119   6.661   2.888   5.166  0.5256  0.2117 -0.4760
   16SAPS  H16X 2120   6.727   2.799   5.161  0.3760  0.0869 -0.2383
   16SAPS  H16Y 2121   6.555   2.854   5.166  0.5113 -0.4636  4.3306
   16SAPS  C317 2122   6.689   2.932   5.309 -0.6579  0.1216  0.1490
   16SAPS  H17X 2123   6.625   3.015   5.346 -0.6950 -0.3710  1.2308
   16SAPS  H17Y 2124   6.791   2.976   5.309  0.2031 -1.6864  2.2560
   16SAPS  C318 2125   6.694   2.821   5.412 -0.0148  0.1012 -0.4165
   16SAPS  H18X 2126   6.723   2.858   5.512  2.6855  0.3853 -1.2226
   16SAPS  H18Y 2127   6.776   2.755   5.376 -0.3261 -1.1141  1.0080
   16SAPS  H18Z 2128   6.601   2.760   5.418  0.5110 -0.5855  1.8976
   17SAPS     N 2129   2.770   3.323   2.398 -0.1001 -0.0589 -0.3187
   17SAPS   HN1 2130   2.789   3.409   2.343  1.0572 -1.1192 -1.6469
   17SAPS   HN2 2131   2.758   3.334   2.501  1.9717  0.4809 -0.0797
   17SAPS   HN3 2132   2.863   3.277   2.389  0.8786  1.5064  1.0371
   17SAPS   C12 2133   2.670   3.231   2.342 -0.6004  0.7864 -1.5035
   17SAPS  H12A 2134   2.568   3.265   2.347 -1.1626 -0.7619 -1.8390
   17SAPS   C13 2135   2.712   3.192   2.197 -0.2849  0.5181  0.7154
   17SAPS  O13A 2136   2.813   3.244   2.147 -0.5196  0.5982 -0.5158
   17SAPS  O13B 2137   2.632   3.126   2.125  0.0437  0.1277 -0.5439
   17SAPS   C11 2138   2.678   3.110   2.438 -0.0708 -0.1021 -0.6685
   17SAPS  H11A 2139   2.779   3.064   2.435 -1.0483 -2.5226  0.2294
   17SAPS  H11B 2140   2.604   3.036   2.400 -0.6135 -1.5950  2.8988
   17SAPS     P 2141   2.532   3.113   2.666  0.4616  0.0761  0.0617
   17SAPS   O13 2142   2.454   3.233   2.710  0.8123  0.0525  0.0195
   17SAPS   O14 2143   2.454   3.001   2.611 -0.0719  0.3010  0.2705
   17SAPS   O12 2144   2.650   3.159   2.570  0.1799  0.0073 -0.4352
   17SAPS   O11 2145   2.600   3.050   2.795 -0.1010 -0.0909 -0.2273
   17SAPS    C1 2146   2.647   3.143   2.895  0.0852  0.0781  0.3638
   17SAPS    HA 2147   2.751   3.110   2.913 -0.8247 -2.7296  1.0476
   17SAPS    HB 2148   2.659   3.250   2.869  3.2027 -0.3781 -0.3811
   17SAPS    C2 2149   2.563   3.137   3.028  0.5959  0.0649  0.6516
   17SAPS    HS 2150   2.622   3.186   3.108  0.5224  0.8513  0.2267
   17SAPS   O21 2151   2.531   3.005   3.065  0.3230 -0.6180 -0.0306
   17SAPS   C21 2152   2.637   2.924   3.094 -0.0846 -0.1952 -0.3793
   17SAPS   O22 2153   2.750   2.960   3.111 -0.2931 -0.0748 -0.0880
   17SAPS   C22 2154   2.594   2.783   3.103  0.0925  0.6687  0.1316
   17SAPS   H2R 2155   2.498   2.789   3.160  0.7726 -0.5106  1.4711
   17SAPS   H2S 2156   2.588   2.732   3.004 -0.2617  0.9313  0.0111
   17SAPS    C3 2157   2.436   3.222   3.015  0.2115  0.9351 -0.2695
   17SAPS    HX 2158   2.355   3.176   2.955  0.4794 -0.1891  0.2094
   17SAPS    HY 2159   2.463   3.318   2.966  0.4003  0.1733 -1.6998
   17SAPS   O31 2160   2.376   3.232   3.144 -0.2801  0.5124  0.5526
   17SAPS   C31 2161   2.420   3.326   3.223 -0.2872 -0.0702 -0.2193
   17SAPS   O32 2162   2.524   3.392   3.218  0.5090 -0.5122 -0.0044
   17SAPS   C32 2163   2.312   3.343   3.333 -0.9505  0.5596  0.7130
   17SAPS   H2X 2164   2.240   3.260   3.314  0.0207  0.2849 -2.2065
   17SAPS   H2Y 2165   2.268   3.444   3.320  0.6576  1.5960  2.7788
   17SAPS   C23 2166   2.685   2.681   3.184 -0.7132 -0.4125 -0.3870
   17SAPS   H3R 2167   2.791   2.684   3.150 -0.0910 -0.0221  1.5097
   17SAPS   H3S 2168   2.655   2.576   3.161 -1.0058 -0.5813  0.7414
   17SAPS   C24 2169   2.684   2.695   3.338 -0.0574  0.9796 -0.2152
   17SAPS   H4R 2170   2.713   2.798   3.364 -2.1574  1.5521  0.0995
   17SAPS   H4S 2171   2.759   2.628   3.384 -1.2270  0.0638  0.4326
   17SAPS   C25 2172   2.553   2.637   3.385 -1.1455 -0.0665 -0.3925
   17SAPS   H5R 2173   2.507   2.563   3.318  0.9589 -1.5329 -0.3151
   17SAPS   C26 2174   2.486   2.667   3.496 -0.7346  0.1786 -0.8963
   17SAPS   H6R 2175   2.401   2.604   3.526  0.5422 -0.9675  0.4839
   17SAPS   C27 2176   2.544   2.765   3.597  0.4526 -0.1804  0.7337
   17SAPS   H7R 2177   2.655   2.759   3.602  0.6524  0.6104 -1.6016
   17SAPS   H7S 2178   2.499   2.746   3.697  1.3829  1.4576  1.4917
   17SAPS   C28 2179   2.512   2.909   3.564 -0.1513  0.7060 -0.1459
   17SAPS   H8R 2180   2.512   2.935   3.457 -1.1130  1.0194 -0.0826
   17SAPS   C29 2181   2.483   3.006   3.657 -0.4687  0.7165 -0.5669
   17SAPS   H9R 2182   2.448   3.103   3.621 -0.1461  0.8815 -0.4400
   17SAPS  C210 2183   2.499   2.992   3.809 -0.1622  0.1249  0.1290
   17SAPS  H10R 2184   2.544   3.086   3.848  1.3180  0.4304 -2.1242
   17SAPS  H10S 2185   2.577   2.922   3.844 -1.0274 -0.4541  0.9546
   17SAPS  C211 2186   2.372   2.971   3.890  0.1742  0.0585  0.0193
   17SAPS  H11R 2187   2.287   3.014   3.835  1.0333  1.6366 -0.1427
   17SAPS  C212 2188   2.355   2.887   3.993  0.6624 -0.1586 -0.3064
   17SAPS  H12R 2189   2.261   2.889   4.050  0.6761  1.1368 -0.2891
   17SAPS  C213 2190   2.460   2.799   4.060 -0.2542  0.5101 -0.3332
   17SAPS  H13R 2191   2.525   2.759   3.979 -0.3638  0.3012 -0.3189
   17SAPS  H13S 2192   2.422   2.703   4.102  1.1609  0.3936  0.7637
   17SAPS  C214 2193   2.552   2.864   4.160  0.0616 -0.5172  0.9093
   17SAPS  H14R 2194   2.660   2.858   4.141 -0.1386 -4.1744  0.2826
   17SAPS  C215 2195   2.508   2.928   4.271  0.2750 -0.0096  0.2303
   17SAPS  H15R 2196   2.581   2.976   4.338 -0.7052  1.0183  0.5911
   17SAPS  C216 2197   2.367   2.939   4.325 -0.2780 -0.1290  0.1117
   17SAPS  H16R 2198   2.289   2.909   4.253 -1.5351  1.3650  0.7910
   17SAPS  H16S 2199   2.352   3.042   4.366 -0.4242  0.0579 -0.4086
   17SAPS  C217 2200   2.348   2.835   4.433  0.2483  0.4930 -0.2947
   17SAPS  H17R 2201   2.362   2.734   4.390 -1.5811  0.1462 -0.1335
   17SAPS  H17S 2202   2.250   2.854   4.481  1.0539  3.1913  0.4799
   17SAPS  C218 2203   2.444   2.841   4.555  0.8309 -0.0490  0.4610
   17SAPS  H18R 2204   2.448   2.941   4.604 -1.2521  0.1423  0.3071
   17SAPS  H18S 2205   2.541   2.810   4.510  0.0992 -2.5239  0.4340
   17SAPS  C219 2206   2.404   2.729   4.654 -0.6497  0.3100  0.2446
   17SAPS  H19R 2207   2.389   2.629   4.607 -1.1955 -1.8290  4.4504
   17SAPS  H19S 2208   2.300   2.765   4.671  0.4479  3.0433  1.9277
   17SAPS  C220 2209   2.476   2.723   4.787 -0.0525 -0.4930  0.4676
   17SAPS  H20R 2210   2.455   2.811   4.852 -0.0878 -0.3793  0.3045
   17SAPS  H20S 2211   2.584   2.726   4.758 -0.2407  2.9703 -0.4227
   17SAPS  H20T 2212   2.461   2.625   4.837 -1.5897 -0.3491  0.3085
   17SAPS   C33 2213   2.370   3.349   3.477 -0.0987 -0.5217 -0.9146
   17SAPS   H3X 2214   2.446   3.270   3.494 -0.4792 -0.5648  0.7812
   17SAPS   H3Y 2215   2.290   3.326   3.551  2.1895 -0.3333  1.8261
   17SAPS   C34 2216   2.417   3.495   3.510  0.4726 -0.5024  0.3027
   17SAPS   H4X 2217   2.334   3.564   3.481 -1.6467 -2.5649  1.1668
   17SAPS   H4Y 2218   2.505   3.508   3.444 -1.3976 -0.8701 -2.4328
   17SAPS   C35 2219   2.436   3.526   3.658  0.5774 -0.2419 -0.1956
   17SAPS   H5X 2220   2.338   3.500   3.704  0.2330 -0.3746 -0.9947
   17SAPS   H5Y 2221   2.456   3.635   3.667  1.3079 -0.4060  0.2346
   17SAPS   C36 2222   2.528   3.427   3.724 -0.7325  0.0520 -0.3857
   17SAPS   H6X 2223   2.627   3.459   3.686 -0.7058  1.2417  0.6089
   17SAPS   H6Y 2224   2.505   3.321   3.699 -0.8280  0.2012 -0.9538
   17SAPS   C37 2225   2.529   3.424   3.874 -0.0337  0.4228 -0.0696
   17SAPS   H7X 2226   2.533   3.532   3.900 -2.2749  0.9636 -1.6288
   17SAPS   H7Y 2227   2.611   3.370   3.926 -0.1911 -0.4457 -0.7077
   17SAPS   C38 2228   2.402   3.365   3.934  1.1200  0.5688  0.1635
   17SAPS   H8X 2229   2.399   3.255   3.914 -0.4018  0.5975  0.1764
   17SAPS   H8Y 2230   2.310   3.394   3.879  0.4709 -1.0121  0.3635
   17SAPS   C39 2231   2.383   3.375   4.085  0.1781 -0.2019 -0.4705
   17SAPS   H9X 2232   2.473   3.330   4.133  0.1250  1.8229  1.7251
   17SAPS   H9Y 2233   2.293   3.319   4.116 -0.0648 -0.8334 -2.1984
   17SAPS  C310 2234   2.361   3.522   4.149  0.8325  0.5851 -0.3715
   17SAPS  H10X 2235   2.271   3.559   4.097 -0.1301 -1.1476 -0.0095
   17SAPS  H10Y 2236   2.457   3.576   4.133  1.3557 -0.0715  0.3954
   17SAPS  C311 2237   2.346   3.519   4.296  0.2882 -0.0516  0.2663
   17SAPS  H11X 2238   2.357   3.615   4.351  0.7181  0.2913 -0.4056
   17SAPS  H11Y 2239   2.428   3.448   4.321  0.6431 -0.2459 -1.2938
   17SAPS  C312 2240   2.215   3.445   4.339  0.5457  0.4587  0.3854
   17SAPS  H12X 2241   2.217   3.341   4.299 -0.2814  0.6514 -0.1633
   17SAPS  H12Y 2242   2.136   3.512   4.301  2.3845  2.4549 -0.1466
   17SAPS  C313 2243   2.183   3.441   4.486 -0.3204  0.2752 -0.7722
   17SAPS  H13X 2244   2.265   3.381   4.532 -1.3523  0.8787  2.0832
   17SAPS  H13Y 2245   2.085   3.389   4.496 -1.3940  2.5594  1.9464
   17SAPS  C314 2246   2.176   3.583   4.546  0.0147 -0.1303 -0.3900
   17SAPS  H14X 2247   2.108   3.656   4.496  1.0776  2.3325  1.5499
   17SAPS  H14Y 2248   2.271   3.639   4.551 -0.2053  0.1423  1.2755
   17SAPS  C315 2249   2.122   3.587   4.696  0.2505 -0.4954 -0.2865
   17SAPS  H15X 2250   2.037   3.515   4.701 -1.0177  0.9816  0.2494
   17SAPS  H15Y 2251   2.074   3.685   4.716 -4.2046 -2.6182  0.8601
   17SAPS  C316 2252   2.213   3.542   4.813  0.0141 -0.4317 -0.4827
   17SAPS  H16X 2253   2.318   3.577   4.808 -0.4797  0.9386 -2.3640
   17SAPS  H16Y 2254   2.202   3.434   4.836  0.3186 -0.4466 -0.4008
   17SAPS  C317 2255   2.165   3.610   4.940  0.0109  0.0119 -0.0371
   17SAPS  H17X 2256   2.056   3.631   4.945  0.4556  2.7936 -0.3414
   17SAPS  H17Y 2257   2.211   3.711   4.943 -3.0873  1.5703 -0.5038
   17SAPS  C318 2258   2.224   3.543   5.064 -0.0494 -0.3296  0.1482
   17SAPS  H18X 2259   2.182   3.443   5.088  1.2497 -0.6469  1.1967
   17SAPS  H18Y 2260   2.219   3.601   5.158  0.1262 -0.5578  0.2994
   17SAPS  H18Z 2261   2.332   3.533   5.040  0.1592  1.3197  0.2957
   18SAPS     N 2262   5.078   3.471   2.672 -0.6162  0.2479 -0.5011
   18SAPS   HN1 2263   5.125   3.381   2.691  0.8343  1.0574 -0.0489
   18SAPS   HN2 2264   5.121   3.532   2.598 -1.0694  1.2937  0.0761
   18SAPS   HN3 2265   5.079   3.532   2.756  0.6061 -0.1628 -0.2009
   18SAPS   C12 2266   4.929   3.446   2.652 -0.6639  0.4482  0.0880
   18SAPS  H12A 2267   4.897   3.539   2.607 -3.4155 -1.1758 -1.6538
   18SAPS   C13 2268   4.901   3.323   2.560 -0.8441  0.1016  0.2725
   18SAPS  O13A 2269   4.999   3.252   2.516  0.5702 -0.3273 -0.1254
   18SAPS  O13B 2270   4.788   3.285   2.540  0.1334  0.1976 -0.3880
   18SAPS   C11 2271   4.871   3.419   2.794 -0.5570  0.0793 -0.5998
   18SAPS  H11A 2272   4.915   3.324   2.831 -0.9936 -0.1565 -0.6720
   18SAPS  H11B 2273   4.761   3.402   2.785 -0.6936  0.3166  0.4621
   18SAPS     P 2274   4.793   3.645   2.917 -0.3436  0.0031  0.0355
   18SAPS   O13 2275   4.723   3.682   2.794 -0.1423 -0.7126  0.9467
   18SAPS   O14 2276   4.706   3.600   3.029 -0.2259 -0.0887 -0.6474
   18SAPS   O12 2277   4.903   3.534   2.881 -0.0443  0.6429  0.4148
   18SAPS   O11 2278   4.869   3.775   2.970  0.2430  0.5989 -0.0430
   18SAPS    C1 2279   4.999   3.765   3.022 -0.3936 -0.9989  0.3782
   18SAPS    HA 2280   5.072   3.745   2.940  2.7536 -0.4111  2.8351
   18SAPS    HB 2281   5.014   3.868   3.060 -0.6808 -1.0043  0.5045
   18SAPS    C2 2282   5.029   3.677   3.147  0.3275  0.3435  0.6954
   18SAPS    HS 2283   5.022   3.568   3.125 -1.9698  0.4312  0.7689
   18SAPS   O21 2284   4.934   3.721   3.251  0.2003  0.0052  0.1519
   18SAPS   C21 2285   4.895   3.618   3.323  0.3581  0.3090 -0.2545
   18SAPS   O22 2286   4.931   3.502   3.310  0.2343  0.1500 -0.2876
   18SAPS   C22 2287   4.800   3.671   3.430 -0.2630 -1.0763 -0.7550
   18SAPS   H2R 2288   4.847   3.751   3.491 -0.5821  0.4588 -2.4172
   18SAPS   H2S 2289   4.716   3.716   3.372  0.3580  0.8261 -0.2344
   18SAPS    C3 2290   5.172   3.703   3.198 -0.1663 -0.4445 -0.6085
   18SAPS    HX 2291   5.185   3.813   3.202 -3.8024  0.0953  0.1507
   18SAPS    HY 2292   5.250   3.648   3.141  0.0090 -0.9227  0.0695
   18SAPS   O31 2293   5.190   3.652   3.334 -0.2156  0.4987  0.6614
   18SAPS   C31 2294   5.315   3.659   3.379  0.3873 -0.7817  0.1126
   18SAPS   O32 2295   5.395   3.737   3.338 -0.7489  0.0499 -0.2458
   18SAPS   C32 2296   5.328   3.593   3.518  0.4561  0.5923  0.2917
   18SAPS   H2X 2297   5.246   3.518   3.514 -0.1534  1.2764 -0.2404
   18SAPS   H2Y 2298   5.293   3.669   3.591 -0.2621  1.0466 -0.5154
   18SAPS   C23 2299   4.746   3.545   3.509  0.0738 -0.2482  0.0967
   18SAPS   H3R 2300   4.727   3.454   3.448  2.8268 -0.8412 -0.0320
   18SAPS   H3S 2301   4.652   3.574   3.560  0.8884  0.0920  1.4550
   18SAPS   C24 2302   4.858   3.502   3.606 -0.3187 -0.0667  0.1189
   18SAPS   H4R 2303   4.955   3.480   3.555  0.6076  0.7088  1.4903
   18SAPS   H4S 2304   4.828   3.406   3.653 -2.4497 -0.5516 -1.9996
   18SAPS   C25 2305   4.886   3.598   3.719  0.8677  0.1031 -0.0258
   18SAPS   H5R 2306   4.968   3.666   3.690 -0.8823  1.7236 -1.4726
   18SAPS   C26 2307   4.840   3.603   3.844 -0.3939 -0.0019 -1.0560
   18SAPS   H6R 2308   4.882   3.686   3.903  1.8358 -0.3878 -2.0068
   18SAPS   C27 2309   4.733   3.525   3.916  0.4205  1.3612  0.0485
   18SAPS   H7R 2310   4.776   3.478   4.006 -0.2857 -0.3193 -0.4630
   18SAPS   H7S 2311   4.702   3.442   3.849  0.8434  1.4614 -0.2771
   18SAPS   C28 2312   4.616   3.612   3.940 -0.2055  0.2204 -0.1650
   18SAPS   H8R 2313   4.589   3.681   3.858  2.3386  2.2124  0.5220
   18SAPS   C29 2314   4.542   3.630   4.049 -0.5156  0.0041 -0.1300
   18SAPS   H9R 2315   4.461   3.703   4.051 -1.5026 -1.0626 -0.2564
   18SAPS  C210 2316   4.562   3.549   4.176  0.0772  0.2658  0.0062
   18SAPS  H10R 2317   4.588   3.443   4.153 -0.7971  0.1255 -0.3490
   18SAPS  H10S 2318   4.467   3.550   4.233 -0.4761  2.4611 -0.8766
   18SAPS  C211 2319   4.676   3.585   4.264  0.3307  0.0787  0.0267
   18SAPS  H11R 2320   4.755   3.637   4.207  0.8222 -0.4751  0.2062
   18SAPS  C212 2321   4.685   3.562   4.394 -0.1413 -0.3903 -0.8274
   18SAPS  H12R 2322   4.773   3.605   4.444  0.7122 -2.1327 -0.7554
   18SAPS  C213 2323   4.603   3.501   4.499  0.4775  0.2045 -0.1397
   18SAPS  H13R 2324   4.505   3.451   4.478  1.0493 -0.8022 -0.5182
   18SAPS  H13S 2325   4.570   3.582   4.568 -3.7617  1.5423 -3.3065
   18SAPS  C214 2326   4.680   3.392   4.574 -0.1420 -0.4722 -0.4325
   18SAPS  H14R 2327   4.660   3.289   4.542  2.2252 -1.5583  1.2205
   18SAPS  C215 2328   4.760   3.405   4.682  0.1643  0.8456  0.0368
   18SAPS  H15R 2329   4.794   3.315   4.734 -1.8591 -1.3063 -2.1314
   18SAPS  C216 2330   4.799   3.541   4.736  0.6510  0.2160  0.0029
   18SAPS  H16R 2331   4.735   3.571   4.822  0.2865 -1.7071  0.4542
   18SAPS  H16S 2332   4.783   3.621   4.661 -2.4970  0.2801  0.6223
   18SAPS  C217 2333   4.930   3.535   4.800 -0.4248 -0.4991 -0.5881
   18SAPS  H17R 2334   4.964   3.638   4.825  0.6951 -1.1521  0.6650
   18SAPS  H17S 2335   5.009   3.494   4.733 -0.7024  0.3489 -1.4664
   18SAPS  C218 2336   4.942   3.457   4.928 -0.0493 -0.1601  0.2598
   18SAPS  H18R 2337   4.895   3.359   4.906 -3.0543  1.1058  0.4933
   18SAPS  H18S 2338   4.882   3.516   5.002 -1.2144 -2.3156  1.1132
   18SAPS  C219 2339   5.084   3.437   4.981  0.4699 -0.0909 -0.1511
   18SAPS  H19R 2340   5.152   3.449   4.895 -1.5577  1.2965 -1.6491
   18SAPS  H19S 2341   5.094   3.336   5.026  2.3292 -0.4030 -1.1911
   18SAPS  C220 2342   5.124   3.538   5.083 -0.0880 -0.5017 -0.4485
   18SAPS  H20R 2343   5.048   3.535   5.163  1.9928 -2.1115  1.5917
   18SAPS  H20S 2344   5.138   3.640   5.041 -0.5927 -0.6863 -1.0732
   18SAPS  H20T 2345   5.224   3.511   5.123 -0.5049  1.2836  2.0222
   18SAPS   C33 2346   5.467   3.532   3.557 -0.4687  0.5597 -0.0732
   18SAPS   H3X 2347   5.544   3.612   3.555  0.5834 -0.4420 -1.7754
   18SAPS   H3Y 2348   5.483   3.448   3.486 -1.7863 -0.3029  0.5970
   18SAPS   C34 2349   5.447   3.476   3.699  0.5056 -0.0056 -0.0181
   18SAPS   H4X 2350   5.548   3.441   3.729 -0.3992 -1.3348  1.6425
   18SAPS   H4Y 2351   5.379   3.389   3.708  0.4662  0.1602  1.6496
   18SAPS   C35 2352   5.419   3.586   3.803  0.0907 -0.4651  0.0248
   18SAPS   H5X 2353   5.326   3.640   3.777  0.8558  0.8523 -0.0297
   18SAPS   H5Y 2354   5.511   3.648   3.806  0.8554 -1.5985  1.0831
   18SAPS   C36 2355   5.411   3.530   3.946  0.0286  0.2859 -0.5455
   18SAPS   H6X 2356   5.341   3.444   3.954  1.3413 -0.6040  3.0012
   18SAPS   H6Y 2357   5.382   3.610   4.017 -2.5530 -2.0666  1.2653
   18SAPS   C37 2358   5.544   3.486   4.005  0.0748  0.4825 -0.3332
   18SAPS   H7X 2359   5.638   3.533   3.969 -0.5114  0.8282 -1.4780
   18SAPS   H7Y 2360   5.566   3.379   3.986  1.6074  0.9016 -1.1062
   18SAPS   C38 2361   5.544   3.502   4.156  0.4196  0.2454 -0.0280
   18SAPS   H8X 2362   5.443   3.478   4.195 -0.4779  2.1974 -0.9713
   18SAPS   H8Y 2363   5.559   3.608   4.186 -1.5476 -0.3488  3.6416
   18SAPS   C39 2364   5.647   3.420   4.231 -0.0587 -0.0963  0.5263
   18SAPS   H9X 2365   5.742   3.477   4.244 -0.6678  0.9600  0.4677
   18SAPS   H9Y 2366   5.666   3.323   4.182 -1.0624  0.2614 -0.6213
   18SAPS  C310 2367   5.614   3.396   4.383 -0.1842 -0.1269  0.1823
   18SAPS  H10X 2368   5.511   3.356   4.387 -1.2778  2.3901 -0.5637
   18SAPS  H10Y 2369   5.623   3.492   4.439  1.8836  0.1541 -0.5488
   18SAPS  C311 2370   5.713   3.303   4.451 -0.0454 -0.4192 -0.7507
   18SAPS  H11X 2371   5.812   3.350   4.435 -0.5882  0.8786 -0.3585
   18SAPS  H11Y 2372   5.716   3.207   4.395 -1.1641 -2.0132  1.7503
   18SAPS  C312 2373   5.692   3.278   4.607 -0.2040  0.5637 -0.1310
   18SAPS  H12X 2374   5.776   3.212   4.638  1.0789  2.1263 -0.1955
   18SAPS  H12Y 2375   5.597   3.222   4.623  0.7815 -1.0041  0.5086
   18SAPS  C313 2376   5.691   3.406   4.688 -0.4592  0.2857 -0.0047
   18SAPS  H13X 2377   5.590   3.452   4.678 -0.3282  0.2437 -1.9883
   18SAPS  H13Y 2378   5.760   3.480   4.642  0.4048 -0.2929  0.3532
   18SAPS  C314 2379   5.735   3.391   4.835  0.7245 -0.5561 -0.6281
   18SAPS  H14X 2380   5.746   3.493   4.878 -1.1646 -0.2048 -0.8788
   18SAPS  H14Y 2381   5.841   3.356   4.837  1.0417  0.3971  0.1940
   18SAPS  C315 2382   5.648   3.317   4.935  0.4178 -0.6208 -0.1764
   18SAPS  H15X 2383   5.628   3.214   4.900 -0.1694 -0.6121  0.1173
   18SAPS  H15Y 2384   5.549   3.368   4.928  1.4785  1.5573  0.0252
   18SAPS  C316 2385   5.696   3.325   5.075 -0.3227  0.5217 -0.1154
   18SAPS  H16X 2386   5.668   3.424   5.118  2.0533  0.6158  1.4104
   18SAPS  H16Y 2387   5.807   3.328   5.072 -0.0440 -3.2170  1.3139
   18SAPS  C317 2388   5.658   3.202   5.163 -0.8670  0.0581  0.1703
   18SAPS  H17X 2389   5.664   3.110   5.102  0.4147  0.5338 -0.4837
   18SAPS  H17Y 2390   5.550   3.213   5.186 -1.2394 -2.1856 -0.3095
   18SAPS  C318 2391   5.741   3.190   5.283 -0.8254  0.6965 -0.3202
   18SAPS  H18X 2392   5.689   3.116   5.347  2.3092 -0.2500  1.3252
   18SAPS  H18Y 2393   5.757   3.290   5.328  2.8905  1.1731 -2.2837
   18SAPS  H18Z 2394   5.841   3.150   5.255  0.1202  3.1596 -0.6699
   19SAPS     N 2395   1.605   1.989   2.726 -0.5683 -0.0970 -0.0810
   19SAPS   HN1 2396   1.663   1.972   2.811  1.5547 -3.1779 -1.9465
   19SAPS   HN2 2397   1.667   1.969   2.645 -0.5647 -1.8505  0.3184
   19SAPS   HN3 2398   1.577   2.088   2.713  3.6461  1.2279 -0.7586
   19SAPS   C12 2399   1.487   1.896   2.736 -0.0457 -0.1921  0.2160
   19SAPS  H12A 2400   1.450   1.908   2.837 -0.3781 -1.0184  0.1955
   19SAPS   C13 2401   1.377   1.912   2.636 -0.1075  0.5107  0.0179
   19SAPS  O13A 2402   1.388   1.991   2.542 -0.5181 -0.8313  0.1459
   19SAPS  O13B 2403   1.274   1.840   2.645 -0.1051  0.0289 -0.0863
   19SAPS   C11 2404   1.553   1.756   2.714 -0.5733 -0.5887 -0.5261
   19SAPS  H11A 2405   1.609   1.747   2.618 -1.5748 -0.1577 -1.1633
   19SAPS  H11B 2406   1.488   1.666   2.707 -0.5584 -0.8659  2.0287
   19SAPS     P 2407   1.668   1.610   2.906  0.1823  0.0696  0.2793
   19SAPS   O13 2408   1.666   1.494   2.817  0.5085  0.2568  0.4809
   19SAPS   O14 2409   1.776   1.622   3.001 -0.7689 -0.4705 -0.5818
   19SAPS   O12 2410   1.653   1.740   2.818 -0.1434 -0.0875 -0.1165
   19SAPS   O11 2411   1.531   1.611   2.990  0.0037 -0.6157  0.1507
   19SAPS    C1 2412   1.509   1.710   3.088  0.4241  0.2862  0.1999
   19SAPS    HA 2413   1.586   1.789   3.073 -0.1477  0.6114 -1.2321
   19SAPS    HB 2414   1.408   1.755   3.071  0.0408 -0.5341  0.2709
   19SAPS    C2 2415   1.519   1.655   3.231  0.4070 -0.1559 -0.5144
   19SAPS    HS 2416   1.625   1.621   3.230  0.8969  1.3156 -0.8686
   19SAPS   O21 2417   1.429   1.543   3.253 -0.5308 -0.5424 -0.0734
   19SAPS   C21 2418   1.473   1.428   3.218  0.1050 -1.3520  0.3943
   19SAPS   O22 2419   1.590   1.407   3.186  0.6934 -0.3100 -0.1409
   19SAPS   C22 2420   1.365   1.322   3.234 -0.6570 -0.0620 -0.8498
   19SAPS   H2R 2421   1.329   1.288   3.135 -1.3796 -2.2156  0.0917
   19SAPS   H2S 2422   1.418   1.235   3.279  1.3393  1.8813  0.7925
   19SAPS    C3 2423   1.509   1.765   3.340  0.5278 -1.1966 -0.1038
   19SAPS    HX 2424   1.400   1.787   3.339  0.6666 -0.3422 -2.4301
   19SAPS    HY 2425   1.555   1.863   3.314  0.9192 -1.2148  0.5149
   19SAPS   O31 2426   1.540   1.718   3.470  0.0711 -0.3991 -0.0544
   19SAPS   C31 2427   1.669   1.704   3.493  0.6004  0.0226  0.2694
   19SAPS   O32 2428   1.758   1.736   3.415 -0.1634  0.4466  0.3296
   19SAPS   C32 2429   1.706   1.669   3.642 -0.2207  0.1255  1.3764
   19SAPS   H2X 2430   1.813   1.691   3.664  0.4417 -2.5199  1.0688
   19SAPS   H2Y 2431   1.704   1.560   3.662  0.8559  0.2646  2.3742
   19SAPS   C23 2432   1.246   1.359   3.326  0.1956  0.2619 -0.3824
   19SAPS   H3R 2433   1.156   1.298   3.303  0.0154  0.3950 -0.0376
   19SAPS   H3S 2434   1.225   1.466   3.306 -0.3475 -0.1549 -2.2838
   19SAPS   C24 2435   1.280   1.347   3.475  0.2169  0.0792 -0.2114
   19SAPS   H4R 2436   1.356   1.428   3.481 -0.6740  0.9700 -0.7375
   19SAPS   H4S 2437   1.310   1.243   3.504 -0.4869 -0.2152 -0.5382
   19SAPS   C25 2438   1.168   1.390   3.560 -0.1200 -0.4469 -0.6275
   19SAPS   H5R 2439   1.088   1.440   3.504  2.2637  3.7696 -0.7534
   19SAPS   C26 2440   1.169   1.386   3.694  0.0192 -0.1890 -0.2798
   19SAPS   H6R 2441   1.086   1.430   3.752 -0.1629 -0.0999 -0.6023
   19SAPS   C27 2442   1.274   1.340   3.791  0.3633 -0.0979  0.3822
   19SAPS   H7R 2443   1.359   1.285   3.743  0.3083  0.1039  0.0491
   19SAPS   H7S 2444   1.237   1.265   3.864  2.9874  0.7397  2.7541
   19SAPS   C28 2445   1.329   1.450   3.869  0.6337  0.3576  0.5035
   19SAPS   H8R 2446   1.401   1.519   3.823 -2.0378  1.9783 -1.5908
   19SAPS   C29 2447   1.297   1.476   3.999  0.0460 -0.5459  0.3013
   19SAPS   H9R 2448   1.362   1.546   4.052 -1.0046  1.4875 -0.9548
   19SAPS  C210 2449   1.196   1.395   4.086 -0.0949  0.7968  0.2605
   19SAPS  H10R 2450   1.254   1.331   4.157 -0.7923  0.5255  0.5927
   19SAPS  H10S 2451   1.141   1.319   4.026 -0.2646  2.0396 -1.2142
   19SAPS  C211 2452   1.087   1.474   4.156 -0.4451 -0.1294 -0.2019
   19SAPS  H11R 2453   1.007   1.498   4.084  1.6036  0.2710 -2.4677
   19SAPS  C212 2454   1.078   1.503   4.284  0.6578 -0.2541 -0.6507
   19SAPS  H12R 2455   0.979   1.546   4.307 -0.0171  0.8007 -4.8349
   19SAPS  C213 2456   1.187   1.486   4.388  0.3277 -0.5315 -0.7345
   19SAPS  H13R 2457   1.235   1.580   4.421  0.9964 -1.8399  2.4093
   19SAPS  H13S 2458   1.267   1.425   4.339  1.6704 -1.3716  2.2823
   19SAPS  C214 2459   1.128   1.398   4.499 -0.6068 -0.7959 -0.3069
   19SAPS  H14R 2460   1.096   1.296   4.470 -1.8018 -1.2761  2.4336
   19SAPS  C215 2461   1.114   1.426   4.631  0.0855  0.5129  0.0984
   19SAPS  H15R 2462   1.067   1.353   4.699 -0.8574  1.0915  0.0775
   19SAPS  C216 2463   1.150   1.555   4.697 -0.2457  0.2339  0.1333
   19SAPS  H16R 2464   1.145   1.642   4.627  3.7866 -0.4287 -1.2781
   19SAPS  H16S 2465   1.261   1.542   4.699 -0.3570 -0.9916 -0.8068
   19SAPS  C217 2466   1.092   1.557   4.833  0.0257  0.0177  0.1640
   19SAPS  H17R 2467   1.119   1.473   4.900 -0.0413 -0.3586 -0.2720
   19SAPS  H17S 2468   0.982   1.566   4.831 -0.0448 -0.1924  1.7760
   19SAPS  C218 2469   1.138   1.689   4.912 -0.8597 -0.1777  0.0556
   19SAPS  H18R 2470   1.097   1.770   4.847 -1.2647 -1.4730 -1.3859
   19SAPS  H18S 2471   1.247   1.698   4.928 -0.3123 -0.6612 -2.8205
   19SAPS  C219 2472   1.076   1.695   5.050 -0.6102 -0.1980  0.2287
   19SAPS  H19R 2473   1.115   1.603   5.098  0.6391 -0.4006 -1.1262
   19SAPS  H19S 2474   0.965   1.686   5.055 -0.5169 -0.8310  1.8002
   19SAPS  C220 2475   1.118   1.822   5.114  0.1596 -0.6291 -0.0964
   19SAPS  H20R 2476   1.229   1.823   5.111  0.1511 -0.0115 -1.6852
   19SAPS  H20S 2477   1.084   1.830   5.219 -0.4819 -1.2430 -0.2462
   19SAPS  H20T 2478   1.089   1.916   5.060  1.7760  0.0076  0.0996
   19SAPS   C33 2479   1.613   1.741   3.749  0.4042  0.3222 -0.2686
   19SAPS   H3X 2480   1.506   1.733   3.720  0.6718  1.3990 -1.6889
   19SAPS   H3Y 2481   1.628   1.852   3.751 -0.1561  0.3998  0.8302
   19SAPS   C34 2482   1.655   1.683   3.887  0.2300  0.0297  0.6458
   19SAPS   H4X 2483   1.766   1.682   3.892  0.1914  0.1473  1.6619
   19SAPS   H4Y 2484   1.629   1.575   3.890 -0.9814 -0.0085 -3.7059
   19SAPS   C35 2485   1.583   1.736   4.008 -0.0961 -0.1999 -0.3179
   19SAPS   H5X 2486   1.478   1.741   3.972  0.4841  0.7798 -2.0321
   19SAPS   H5Y 2487   1.629   1.836   4.026  2.6126 -1.5678  0.8698
   19SAPS   C36 2488   1.594   1.654   4.133  0.4456  0.3890  0.2660
   19SAPS   H6X 2489   1.700   1.635   4.161  0.2117 -1.7497 -0.1500
   19SAPS   H6Y 2490   1.551   1.554   4.113  0.5875  0.4554 -0.4052
   19SAPS   C37 2491   1.525   1.728   4.249 -0.1390 -0.0719 -0.4650
   19SAPS   H7X 2492   1.417   1.722   4.224 -0.3943  1.2867  0.2608
   19SAPS   H7Y 2493   1.550   1.836   4.252 -1.4471  0.2586 -0.7466
   19SAPS   C38 2494   1.561   1.667   4.388  0.2461  0.1340  0.5506
   19SAPS   H8X 2495   1.672   1.675   4.395  0.6153 -1.0762 -2.4590
   19SAPS   H8Y 2496   1.536   1.559   4.386 -0.9561  0.4091 -0.9104
   19SAPS   C39 2497   1.494   1.734   4.502 -0.1989  0.2598 -0.3148
   19SAPS   H9X 2498   1.393   1.691   4.518 -0.0693 -0.2494 -0.8299
   19SAPS   H9Y 2499   1.482   1.840   4.471  0.5253 -0.0922 -1.9019
   19SAPS  C310 2500   1.579   1.727   4.630 -0.3953 -1.1055 -0.0520
   19SAPS  H10X 2501   1.681   1.769   4.614 -0.6523  0.1391  1.3900
   19SAPS  H10Y 2502   1.598   1.622   4.657 -0.1522 -0.9797  0.2705
   19SAPS  C311 2503   1.521   1.795   4.755 -0.4790  0.0313  0.7363
   19SAPS  H11X 2504   1.415   1.761   4.758 -0.6176  0.1775 -1.1865
   19SAPS  H11Y 2505   1.530   1.906   4.756 -1.5577  0.1646 -0.6800
   19SAPS  C312 2506   1.592   1.744   4.878  0.5193  0.0740  0.3205
   19SAPS  H12X 2507   1.696   1.780   4.891  0.7731 -0.9836  1.4486
   19SAPS  H12Y 2508   1.590   1.634   4.867 -0.6469  0.0420  0.7255
   19SAPS  C313 2509   1.518   1.781   5.004  0.6591  0.9823 -1.0708
   19SAPS  H13X 2510   1.410   1.763   4.987 -0.1451 -0.3410  3.9065
   19SAPS  H13Y 2511   1.518   1.890   5.023 -2.0146  1.1273 -1.5539
   19SAPS  C314 2512   1.569   1.704   5.130  0.3379  0.1129  0.2031
   19SAPS  H14X 2513   1.582   1.784   5.206  1.1331 -0.2572  0.4661
   19SAPS  H14Y 2514   1.659   1.640   5.117 -1.5379 -2.1886 -2.8119
   19SAPS  C315 2515   1.446   1.620   5.191 -0.6156 -0.3239 -0.1969
   19SAPS  H15X 2516   1.401   1.546   5.123 -0.7768 -0.8803  0.5003
   19SAPS  H15Y 2517   1.361   1.688   5.213  0.1419  0.1621  1.4597
   19SAPS  C316 2518   1.484   1.541   5.321  0.6010 -0.3701 -0.0382
   19SAPS  H16X 2519   1.589   1.508   5.310  1.6364  2.6871 -0.2998
   19SAPS  H16Y 2520   1.426   1.447   5.329  1.3962 -0.7495  2.1708
   19SAPS  C317 2521   1.467   1.619   5.454 -0.7308 -0.1776 -0.1782
   19SAPS  H17X 2522   1.382   1.689   5.441  0.1950  1.5452  2.2092
   19SAPS  H17Y 2523   1.559   1.682   5.463  1.0448 -2.9590  3.6331
   19SAPS  C318 2524   1.468   1.530   5.571 -0.2751  0.0625 -0.3644
   19SAPS  H18X 2525   1.433   1.583   5.662  0.3924 -2.3415  1.4144
   19SAPS  H18Y 2526   1.568   1.491   5.600 -0.2871 -0.3224 -0.8376
   19SAPS  H18Z 2527   1.395   1.447   5.565  1.3337 -1.3381 -2.0233
   20SAPS     N 2528   1.728   1.006   2.912 -0.2291 -0.1551  0.3245
   20SAPS   HN1 2529   1.633   1.003   2.870 -0.2648  1.3211  0.2685
   20SAPS   HN2 2530   1.734   0.941   2.993 -0.2031 -1.6342 -0.8113
   20SAPS   HN3 2531   1.755   1.103   2.936  1.1806 -0.8759  1.8946
   20SAPS   C12 2532   1.828   0.958   2.815 -0.1766 -0.4594  0.2596
   20SAPS  H12A 2533   1.825   0.850   2.816 -1.2065 -0.4485 -0.5734
   20SAPS   C13 2534   1.789   1.010   2.676  0.0209  0.3447 -0.0343
   20SAPS  O13A 2535   1.676   1.055   2.651 -0.4226  0.8390 -0.1105
   20SAPS  O13B 2536   1.862   0.984   2.581  0.2845  0.7307 -0.0102
   20SAPS   C11 2537   1.969   1.007   2.864 -0.2259 -0.4193 -0.7302
   20SAPS  H11A 2538   1.960   1.118   2.861  1.5023 -0.2692 -1.7546
   20SAPS  H11B 2539   2.041   0.975   2.785 -0.3363 -3.9737  0.4209
   20SAPS     P 2540   2.144   0.959   3.061  0.3333  0.0444  0.1037
   20SAPS   O13 2541   2.136   0.867   3.177 -1.0798 -0.2552  0.0508
   20SAPS   O14 2542   2.247   0.926   2.959 -0.7051  0.5281  0.2031
   20SAPS   O12 2543   1.996   0.958   2.996  0.3782  0.4578  1.0610
   20SAPS   O11 2544   2.160   1.102   3.125  0.6948  0.0612 -0.6398
   20SAPS    C1 2545   2.050   1.179   3.138  0.9672 -0.4746 -0.7205
   20SAPS    HA 2546   2.017   1.218   3.039 -1.6989  1.8419  0.9070
   20SAPS    HB 2547   1.959   1.131   3.180 -1.0186  0.8923 -3.1703
   20SAPS    C2 2548   2.082   1.308   3.224 -0.6729  0.3088 -0.4138
   20SAPS    HS 2549   2.131   1.384   3.158 -1.1729  0.3201 -0.7755
   20SAPS   O21 2550   2.169   1.276   3.337  0.3205  0.0337  0.0127
   20SAPS   C21 2551   2.297   1.260   3.303  0.6138 -0.5426  0.4919
   20SAPS   O22 2552   2.348   1.286   3.195 -0.3361 -0.0423 -0.1097
   20SAPS   C22 2553   2.367   1.227   3.439  0.0810 -0.0797 -0.3658
   20SAPS   H2R 2554   2.387   1.321   3.496  2.0587  0.2514 -1.5114
   20SAPS   H2S 2555   2.297   1.155   3.485  0.1136 -0.0464 -0.2636
   20SAPS    C3 2556   1.953   1.372   3.265 -0.2388  0.0065 -0.0541
   20SAPS    HX 2557   1.909   1.411   3.171  0.6408  2.7317  0.5760
   20SAPS    HY 2558   1.995   1.450   3.332 -0.4126 -0.3824  0.5155
   20SAPS   O31 2559   1.855   1.277   3.324  0.0025  0.5283  0.6142
   20SAPS   C31 2560   1.792   1.330   3.427  0.1161  0.3777 -0.2397
   20SAPS   O32 2561   1.809   1.442   3.472  0.0085 -0.2688  0.1450
   20SAPS   C32 2562   1.702   1.216   3.485  0.3515  0.2536 -0.2012
   20SAPS   H2X 2563   1.768   1.127   3.492  0.2854  0.0762 -1.4558
   20SAPS   H2Y 2564   1.618   1.201   3.413 -1.2332 -0.2322  1.6865
   20SAPS   C23 2565   2.501   1.152   3.410  0.5134  0.0662 -0.1781
   20SAPS   H3R 2566   2.558   1.215   3.337  1.9363 -0.6176  0.3044
   20SAPS   H3S 2567   2.469   1.055   3.368  0.6133 -0.0625  0.0407
   20SAPS   C24 2568   2.598   1.124   3.532  0.2599 -0.3311 -0.3531
   20SAPS   H4R 2569   2.693   1.076   3.499  0.9387  1.1862 -0.7043
   20SAPS   H4S 2570   2.561   1.050   3.606  1.2281 -1.1767 -0.6822
   20SAPS   C25 2571   2.637   1.244   3.621 -0.3272  0.0882 -0.5041
   20SAPS   H5R 2572   2.705   1.309   3.564 -1.7339  0.6670 -1.5890
   20SAPS   C26 2573   2.586   1.293   3.735  0.7775 -0.4296  0.6728
   20SAPS   H6R 2574   2.624   1.389   3.773 -0.9253 -0.3398  2.3205
   20SAPS   C27 2575   2.475   1.233   3.818 -0.8520 -0.4172 -0.2022
   20SAPS   H7R 2576   2.519   1.144   3.867  0.1702  0.6093  0.7885
   20SAPS   H7S 2577   2.411   1.179   3.745 -1.1217  0.6077 -0.7586
   20SAPS   C28 2578   2.402   1.318   3.910  0.2776 -0.2633  0.2380
   20SAPS   H8R 2579   2.296   1.333   3.884 -0.1291  0.0660  1.9793
   20SAPS   C29 2580   2.449   1.365   4.020  0.2011  0.9922  0.6677
   20SAPS   H9R 2581   2.380   1.433   4.072 -0.7921  0.5193  0.0002
   20SAPS  C210 2582   2.594   1.350   4.063  0.3988  0.2266 -0.2386
   20SAPS  H10R 2583   2.640   1.450   4.049 -1.3920  1.0879 -0.2659
   20SAPS  H10S 2584   2.644   1.272   4.002 -0.7485 -1.1264  0.4622
   20SAPS  C211 2585   2.598   1.301   4.201 -0.0186  0.6600  0.5519
   20SAPS  H11R 2586   2.610   1.192   4.209  1.5310  0.8711  1.3372
   20SAPS  C212 2587   2.587   1.367   4.317 -0.4784 -0.2209 -0.1920
   20SAPS  H12R 2588   2.579   1.313   4.413 -2.4751 -0.5547 -0.4992
   20SAPS  C213 2589   2.575   1.517   4.331 -0.3301  0.0388 -0.0419
   20SAPS  H13R 2590   2.553   1.542   4.225  1.3241 -0.2801 -0.4931
   20SAPS  H13S 2591   2.676   1.558   4.353 -0.6354  1.7684 -1.6372
   20SAPS  C214 2592   2.468   1.570   4.422 -0.4560 -0.6937 -0.0278
   20SAPS  H14R 2593   2.374   1.606   4.377 -1.6277 -1.4630  1.7173
   20SAPS  C215 2594   2.489   1.586   4.554  0.5046 -0.1915  0.4704
   20SAPS  H15R 2595   2.402   1.620   4.614 -0.9261 -1.5020 -0.7692
   20SAPS  C216 2596   2.610   1.556   4.637 -0.0893  0.1610 -0.2969
   20SAPS  H16R 2597   2.667   1.479   4.580  1.3604  0.5573  0.5349
   20SAPS  H16S 2598   2.577   1.510   4.733  0.2946 -1.2606 -0.8202
   20SAPS  C217 2599   2.705   1.677   4.659  0.0233  0.4184 -0.5180
   20SAPS  H17R 2600   2.634   1.756   4.694  0.9091  1.1913 -0.4177
   20SAPS  H17S 2601   2.753   1.700   4.561 -0.6084  0.7804 -0.7466
   20SAPS  C218 2602   2.814   1.656   4.767 -0.4581  0.4949 -0.2200
   20SAPS  H18R 2603   2.881   1.742   4.747 -1.7522  1.7963  0.8382
   20SAPS  H18S 2604   2.855   1.554   4.752 -0.9427  0.3053 -0.2865
   20SAPS  C219 2605   2.761   1.665   4.910  0.1866 -0.3321  0.0949
   20SAPS  H19R 2606   2.677   1.593   4.923  0.0552 -0.3624 -0.8664
   20SAPS  H19S 2607   2.714   1.762   4.940 -1.6634 -1.4679  1.0479
   20SAPS  C220 2608   2.881   1.640   5.004 -0.2468  0.2345  0.3031
   20SAPS  H20R 2609   2.847   1.634   5.109 -1.1855 -0.7666 -0.0363
   20SAPS  H20S 2610   2.949   1.727   4.988  1.4335 -0.6108  2.3542
   20SAPS  H20T 2611   2.931   1.546   4.972 -1.4476  0.3621 -2.1452
   20SAPS   C33 2612   1.645   1.253   3.620  0.1876 -0.2094 -0.2276
   20SAPS   H3X 2613   1.554   1.192   3.639 -1.2009  1.8103 -0.0429
   20SAPS   H3Y 2614   1.618   1.361   3.625  1.9365  0.2580 -0.2528
   20SAPS   C34 2615   1.730   1.225   3.750 -0.2863  0.0665  0.4909
   20SAPS   H4X 2616   1.818   1.291   3.762 -0.8353  0.9787 -0.3945
   20SAPS   H4Y 2617   1.766   1.120   3.753  1.3322  0.4085 -2.6317
   20SAPS   C35 2618   1.644   1.244   3.878 -0.4079 -0.4921  0.1396
   20SAPS   H5X 2619   1.537   1.217   3.865 -0.2964 -0.6725 -0.4228
   20SAPS   H5Y 2620   1.634   1.354   3.890  0.4758 -0.3948  0.0537
   20SAPS   C36 2621   1.699   1.170   3.996 -0.5388  0.0476 -0.6995
   20SAPS   H6X 2622   1.804   1.205   4.001 -0.1815 -0.6281 -2.6487
   20SAPS   H6Y 2623   1.706   1.060   3.981  1.2662  0.3628 -2.7138
   20SAPS   C37 2624   1.632   1.206   4.127  0.0034  0.3366 -0.1510
   20SAPS   H7X 2625   1.522   1.192   4.116 -0.0609 -0.5606  1.3553
   20SAPS   H7Y 2626   1.659   1.311   4.150  1.3266 -0.0768  0.3143
   20SAPS   C38 2627   1.677   1.126   4.248 -0.3209 -0.2030 -0.3362
   20SAPS   H8X 2628   1.657   1.017   4.234 -2.1797 -0.0720  0.9459
   20SAPS   H8Y 2629   1.626   1.154   4.342 -0.7085  0.8130 -0.8417
   20SAPS   C39 2630   1.827   1.122   4.289 -0.4013 -0.6380 -0.4008
   20SAPS   H9X 2631   1.845   1.228   4.319 -1.0942 -0.8238  0.7284
   20SAPS   H9Y 2632   1.881   1.098   4.195 -3.0058 -1.0529 -1.8680
   20SAPS  C310 2633   1.873   1.022   4.393 -0.6130 -0.2982  0.2146
   20SAPS  H10X 2634   1.979   0.991   4.378 -1.4643 -2.6389 -1.8041
   20SAPS  H10Y 2635   1.811   0.930   4.386  0.6547 -1.0708 -1.9917
   20SAPS  C311 2636   1.865   1.079   4.537 -0.0860 -0.5468 -0.7025
   20SAPS  H11X 2637   1.779   1.031   4.589  0.7606 -1.6957 -0.3181
   20SAPS  H11Y 2638   1.859   1.190   4.541 -1.2040 -0.6167  0.1453
   20SAPS  C312 2639   1.992   1.037   4.619 -0.2311  0.2561 -0.5808
   20SAPS  H12X 2640   2.088   1.073   4.577  0.6090 -0.1580  0.9227
   20SAPS  H12Y 2641   2.003   0.927   4.617  0.8613  0.3547 -2.7087
   20SAPS  C313 2642   1.976   1.095   4.764  0.3088 -0.0995 -0.5600
   20SAPS  H13X 2643   1.889   1.055   4.820 -0.4337  3.1631  0.8482
   20SAPS  H13Y 2644   1.967   1.205   4.748  1.0924  0.1418  0.5126
   20SAPS  C314 2645   2.100   1.073   4.849  0.1532 -0.3071  0.4645
   20SAPS  H14X 2646   2.191   1.125   4.812 -1.5801  2.8268  0.2739
   20SAPS  H14Y 2647   2.112   0.963   4.842 -3.5928 -1.1487  3.6092
   20SAPS  C315 2648   2.087   1.116   4.998 -0.2257 -0.1522  0.0061
   20SAPS  H15X 2649   2.011   1.045   5.039 -1.3264  1.5274  0.9657
   20SAPS  H15Y 2650   2.060   1.221   5.021  0.3686  0.3118 -1.3445
   20SAPS  C316 2651   2.205   1.080   5.088  0.1553 -0.2065  0.0872
   20SAPS  H16X 2652   2.302   1.074   5.032  1.1312  2.4715  1.3060
   20SAPS  H16Y 2653   2.174   0.987   5.139 -1.5398  0.4758  0.3423
   20SAPS  C317 2654   2.228   1.182   5.197 -0.2715  1.1238  0.3493
   20SAPS  H17X 2655   2.129   1.209   5.242 -1.1250 -1.0101 -0.1182
   20SAPS  H17Y 2656   2.262   1.271   5.140 -0.5938  0.4443 -0.9461
   20SAPS  C318 2657   2.321   1.137   5.312 -0.1598 -0.4012 -0.2512
   20SAPS  H18X 2658   2.420   1.115   5.269 -0.8907 -3.7459 -0.4803
   20SAPS  H18Y 2659   2.296   1.038   5.356  0.2887  0.4664  2.0762
   20SAPS  H18Z 2660   2.315   1.217   5.389 -1.5260 -2.5643  2.0500
   21CHL1    C3 2661   3.862   3.083   6.596 -0.9947  0.2138  0.1556
   21CHL1    H3 2662   3.868   3.186   6.555 -2.7555 -0.0330 -0.8304
   21CHL1    O3 2663   3.861   3.086   6.740 -0.2752 -0.6997  0.1561
   21CHL1   H3' 2664   3.928   3.149   6.766  3.8272 -3.3283 -2.7872
   21CHL1    C4 2665   3.738   3.015   6.542  0.9801 -0.3749  0.4170
   21CHL1   H4A 2666   3.724   2.918   6.594  0.8533 -1.3305 -1.3194
   21CHL1   H4B 2667   3.649   3.077   6.563  0.4999 -0.7542 -0.4650
   21CHL1    C5 2668   3.759   3.002   6.389  0.0846  0.0921 -0.3073
   21CHL1    C6 2669   3.664   3.047   6.308  0.9664  0.0402  0.0932
   21CHL1    H6 2670   3.574   3.089   6.355  1.4503 -0.0931  1.1693
   21CHL1    C7 2671   3.662   3.041   6.159 -0.3232 -0.1097 -0.0837
   21CHL1   H7A 2672   3.565   3.014   6.111 -0.3092 -0.1401 -0.0952
   21CHL1   H7B 2673   3.688   3.144   6.128 -2.9227  0.9896  1.1161
   21CHL1    C8 2674   3.769   2.951   6.103  0.0082  0.7160 -0.9441
   21CHL1    H8 2675   3.740   2.845   6.123 -0.1212  0.5573 -1.9449
   21CHL1   C14 2676   3.786   2.976   5.956  0.1605 -0.3727  0.1050
   21CHL1   H14 2677   3.833   3.076   5.958  1.5633 -1.0130  0.3333
   21CHL1   C15 2678   3.667   2.993   5.864  0.0951 -0.2821  0.6412
   21CHL1  H15A 2679   3.603   2.906   5.891  0.5510 -1.4647 -1.8546
   21CHL1  H15B 2680   3.598   3.079   5.877 -1.3172 -1.1660 -0.6866
   21CHL1   C16 2681   3.729   2.988   5.723  0.4628 -0.0815 -0.7916
   21CHL1  H16A 2682   3.666   2.904   5.687 -0.6507 -0.1588  1.1717
   21CHL1  H16B 2683   3.713   3.084   5.670 -1.4390 -1.4658 -2.9203
   21CHL1   C17 2684   3.880   2.948   5.740 -0.5755 -0.2124  0.3023
   21CHL1   H17 2685   3.945   3.037   5.734 -1.4919  0.4459 -0.0488
   21CHL1   C13 2686   3.893   2.888   5.886 -0.2486 -0.8125  1.0824
   21CHL1   C18 2687   3.848   2.742   5.881 -1.0316 -0.3235  0.6750
   21CHL1  H18A 2688   3.850   2.699   5.983  0.5912 -0.0204  0.7872
   21CHL1  H18B 2689   3.748   2.718   5.837 -0.4128 -0.5144 -0.6763
   21CHL1  H18C 2690   3.922   2.684   5.821  1.7675  3.3620  0.2418
   21CHL1   C12 2691   4.029   2.917   5.965 -0.4561  0.3507  0.1312
   21CHL1  H12A 2692   4.105   2.848   5.921 -1.4720  0.0150 -1.1841
   21CHL1  H12B 2693   4.054   3.023   5.942 -3.0313  0.7064 -1.5488
   21CHL1   C11 2694   4.021   2.885   6.114 -0.0653 -0.4222  0.1317
   21CHL1  H11A 2695   3.998   2.777   6.122 -1.5747 -0.1893 -0.6766
   21CHL1  H11B 2696   4.118   2.907   6.162 -0.2062  0.4120  0.0541
   21CHL1    C9 2697   3.902   2.964   6.181 -0.8960 -0.0049  0.0046
   21CHL1    H9 2698   3.929   3.070   6.161 -0.5510 -0.5478 -2.7455
   21CHL1   C10 2699   3.888   2.941   6.335 -0.0328 -1.1711  0.0582
   21CHL1   C19 2700   3.889   2.796   6.371  0.4607  0.7674  0.3367
   21CHL1  H19A 2701   3.801   2.736   6.339  0.6890 -1.8940  4.0510
   21CHL1  H19B 2702   3.976   2.738   6.333 -0.8110 -0.4880 -0.7954
   21CHL1  H19C 2703   3.900   2.779   6.480  2.1993  0.9378  0.2110
   21CHL1    C1 2704   4.005   3.012   6.402  0.0102  0.1920  0.0447
   21CHL1   H1A 2705   4.096   2.953   6.380 -0.5653 -1.5448  1.9378
   21CHL1   H1B 2706   4.018   3.118   6.370 -2.1538  0.4543 -0.1554
   21CHL1    C2 2707   4.000   3.023   6.554  0.1027  0.2689  1.0055
   21CHL1   H2A 2708   4.084   3.088   6.586 -0.2392  0.9645  0.5013
   21CHL1   H2B 2709   4.016   2.927   6.608 -1.2806  0.1238  1.1998
   21CHL1   C20 2710   3.940   2.871   5.616 -0.5210  0.1370  0.4641
   21CHL1   H20 2711   3.907   2.766   5.609 -0.0649 -0.0862  1.4406
   21CHL1   C21 2712   4.096   2.858   5.630  0.6176  0.4225 -0.1218
   21CHL1  H21A 2713   4.143   2.956   5.655 -0.8067  1.0621  0.1914
   21CHL1  H21B 2714   4.147   2.814   5.542 -1.3790  1.0680 -1.6815
   21CHL1  H21C 2715   4.110   2.794   5.719 -1.8364 -1.1301 -0.7468
   21CHL1   C22 2716   3.909   2.934   5.476  0.6901  0.3800  0.3072
   21CHL1  H22A 2717   3.948   2.868   5.396  1.5021  2.0167 -0.7110
   21CHL1  H22B 2718   3.799   2.945   5.466  0.7312  0.3194 -0.2757
   21CHL1   C23 2719   3.976   3.073   5.449 -0.0828 -0.5985  0.6688
   21CHL1  H23A 2720   3.958   3.133   5.541 -2.3856 -1.9206  1.1601
   21CHL1  H23B 2721   4.085   3.053   5.454  0.6217  2.5161 -0.2598
   21CHL1   C24 2722   3.928   3.139   5.311 -0.2927  0.0251 -0.2957
   21CHL1  H24A 2723   3.986   3.233   5.301  0.6980 -0.2285  2.2078
   21CHL1  H24B 2724   3.977   3.076   5.234  3.3004  0.5726  1.3154
   21CHL1   C25 2725   3.778   3.156   5.298 -0.2723  0.0617  0.6502
   21CHL1   H25 2726   3.719   3.062   5.304  1.2578 -0.8871  1.8178
   21CHL1   C26 2727   3.721   3.251   5.406  0.1624 -0.2874  0.1785
   21CHL1  H26A 2728   3.792   3.337   5.412  0.5763 -0.3678 -2.4398
   21CHL1  H26B 2729   3.622   3.283   5.368  0.0080  1.2064  1.7052
   21CHL1  H26C 2730   3.730   3.188   5.497  0.1833 -4.3986 -2.4193
   21CHL1   C27 2731   3.758   3.217   5.158  0.0603 -0.0390 -0.7529
   21CHL1  H27A 2732   3.772   3.141   5.078 -0.1155  1.1324 -1.9383
   21CHL1  H27B 2733   3.654   3.257   5.158  0.3427  0.7373  0.4742
   21CHL1  H27C 2734   3.832   3.297   5.138 -0.5459  0.3994 -1.2563
   22CHL1    C3 2735   5.294   3.720   6.852 -0.2940  0.1649 -0.6655
   22CHL1    H3 2736   5.390   3.774   6.834 -0.6279  0.9105 -0.2657
   22CHL1    O3 2737   5.265   3.757   6.985 -0.2125 -0.2265 -0.2094
   22CHL1   H3' 2738   5.184   3.709   7.005 -0.7278  1.2456  1.5036
   22CHL1    C4 2739   5.202   3.797   6.760 -1.0123  0.4821  0.1286
   22CHL1   H4A 2740   5.095   3.789   6.788 -0.9630 -1.9686 -0.1539
   22CHL1   H4B 2741   5.237   3.902   6.767  0.9850 -0.2237  1.8132
   22CHL1    C5 2742   5.224   3.764   6.608  0.0565 -0.3497 -0.0007
   22CHL1    C6 2743   5.245   3.866   6.522  0.0855  0.3967  0.2998
   22CHL1    H6 2744   5.240   3.970   6.556 -1.9488  0.6201 -0.5315
   22CHL1    C7 2745   5.266   3.841   6.369 -0.4002  0.2598  0.1848
   22CHL1   H7A 2746   5.214   3.922   6.314 -2.5084 -0.4552  0.9952
   22CHL1   H7B 2747   5.375   3.841   6.350 -0.1328 -1.2531  1.4838
   22CHL1    C8 2748   5.214   3.701   6.331  0.3104  0.1556 -0.2925
   22CHL1    H8 2749   5.103   3.698   6.342  0.2267 -2.6396 -1.0908
   22CHL1   C14 2750   5.258   3.666   6.191 -0.2563  0.9191  0.0862
   22CHL1   H14 2751   5.368   3.651   6.198 -0.3933  0.4131  1.6366
   22CHL1   C15 2752   5.237   3.764   6.076  1.0166  0.1940 -0.1345
   22CHL1  H15A 2753   5.138   3.811   6.090  2.2201  2.4187  1.4051
   22CHL1  H15B 2754   5.312   3.845   6.085  0.5603  0.8497 -1.8025
   22CHL1   C16 2755   5.234   3.683   5.946  0.8726  0.4612 -0.0254
   22CHL1  H16A 2756   5.137   3.690   5.893  0.7592 -1.4113 -0.1249
   22CHL1  H16B 2757   5.314   3.714   5.876  1.0918  0.9797  0.4472
   22CHL1   C17 2758   5.252   3.532   5.997  0.1548  0.5046  0.0171
   22CHL1   H17 2759   5.362   3.514   6.002  0.1036  0.2888  0.3770
   22CHL1   C13 2760   5.212   3.529   6.142  1.1533 -0.3181 -0.4780
   22CHL1   C18 2761   5.060   3.524   6.148 -0.3430 -0.4627  0.2109
   22CHL1  H18A 2762   5.015   3.616   6.103 -1.5802 -1.5250 -0.8145
   22CHL1  H18B 2763   5.016   3.439   6.092 -2.1270 -0.5197  1.6086
   22CHL1  H18C 2764   5.016   3.516   6.250  0.8297  0.5411  0.8112
   22CHL1   C12 2765   5.276   3.422   6.230 -0.8196  0.5261  0.6647
   22CHL1  H12A 2766   5.233   3.324   6.201  0.9707  0.0224 -0.4924
   22CHL1  H12B 2767   5.387   3.428   6.224 -0.9087  1.0699 -2.1019
   22CHL1   C11 2768   5.250   3.452   6.379 -0.3600 -0.2469 -1.0524
   22CHL1  H11A 2769   5.143   3.423   6.387 -0.3156 -0.2565 -0.4450
   22CHL1  H11B 2770   5.310   3.385   6.444 -0.4594  2.4463  2.0626
   22CHL1    C9 2771   5.271   3.598   6.434 -0.1496 -0.5309  0.8751
   22CHL1    H9 2772   5.379   3.624   6.433 -0.6277  1.8102  2.4093
   22CHL1   C10 2773   5.224   3.613   6.579  0.0565 -0.2905  0.2011
   22CHL1   C19 2774   5.083   3.556   6.599 -0.5330  0.0146  0.1453
   22CHL1  H19A 2775   5.016   3.567   6.511  1.8719  1.1491 -1.6624
   22CHL1  H19B 2776   5.082   3.446   6.610  3.3429 -0.0387  1.6296
   22CHL1  H19C 2777   5.022   3.590   6.685 -0.4870  1.4262 -0.3476
   22CHL1    C1 2778   5.314   3.539   6.683 -0.6210 -0.6831  0.2605
   22CHL1   H1A 2779   5.329   3.434   6.652  1.6981 -0.0806 -0.8556
   22CHL1   H1B 2780   5.419   3.572   6.669 -1.1219  1.1945  0.6503
   22CHL1    C2 2781   5.285   3.570   6.829 -0.4100  0.0246 -0.8727
   22CHL1   H2A 2782   5.360   3.523   6.897  1.3889  1.1753 -1.9843
   22CHL1   H2B 2783   5.183   3.535   6.856  0.3482 -2.8638 -1.4290
   22CHL1   C20 2784   5.203   3.427   5.893 -0.1176  0.8961 -0.0157
   22CHL1   H20 2785   5.094   3.446   5.884 -0.5095 -0.8756  0.5743
   22CHL1   C21 2786   5.218   3.277   5.945  0.7037  0.0042  0.0624
   22CHL1  H21A 2787   5.154   3.245   6.030 -1.0711  0.5498 -1.0222
   22CHL1  H21B 2788   5.328   3.268   5.958  0.9187 -0.3155 -1.7098
   22CHL1  H21C 2789   5.180   3.218   5.859  0.0070  0.4198  0.0828
   22CHL1   C22 2790   5.276   3.436   5.760  0.1120  0.7166  0.3119
   22CHL1  H22A 2791   5.239   3.530   5.716  3.3395  1.7084 -0.5461
   22CHL1  H22B 2792   5.383   3.448   5.787  0.7982  1.9252 -2.5652
   22CHL1   C23 2793   5.256   3.341   5.648 -0.9789 -0.5423 -0.6872
   22CHL1  H23A 2794   5.340   3.352   5.576 -0.3539  1.0099  0.2385
   22CHL1  H23B 2795   5.258   3.237   5.686 -2.3502 -0.0039  1.0060
   22CHL1   C24 2796   5.118   3.352   5.585  0.2514  0.4333 -0.0783
   22CHL1  H24A 2797   5.038   3.332   5.659  0.9870 -1.4838  0.2708
   22CHL1  H24B 2798   5.102   3.451   5.537 -0.4447  0.5927  0.4656
   22CHL1   C25 2799   5.111   3.248   5.474 -0.0675  0.4124  0.3686
   22CHL1   H25 2800   5.014   3.276   5.427 -0.7423  1.6403  2.3485
   22CHL1   C26 2801   5.217   3.242   5.360  0.7611 -0.1393 -0.0672
   22CHL1  H26A 2802   5.204   3.333   5.298 -0.6681  0.4407  1.0249
   22CHL1  H26B 2803   5.321   3.228   5.399 -0.1497 -1.2758  2.1231
   22CHL1  H26C 2804   5.197   3.157   5.292  0.1664  0.1921 -0.3104
   22CHL1   C27 2805   5.085   3.115   5.538 -0.5279 -0.1074 -0.2584
   22CHL1  H27A 2806   5.064   3.039   5.459 -0.7485 -1.8832  1.4346
   22CHL1  H27B 2807   5.174   3.066   5.584  0.0360 -1.6957 -2.8197
   22CHL1  H27C 2808   4.996   3.115   5.605 -0.1025 -1.4549  0.3531
   23CHL1    C3 2809   2.696   3.845   6.916  0.2246 -0.0893 -0.1598
   23CHL1    H3 2810   2.796   3.813   6.882  0.1762  1.6663 -2.2048
   23CHL1    O3 2811   2.702   3.873   7.055  0.0624  0.1567  0.4111
   23CHL1   H3' 2812   2.612   3.906   7.058 -0.0778  0.2102 -2.0571
   23CHL1    C4 2813   2.667   3.973   6.838  0.6064 -0.2986  0.2145
   23CHL1   H4A 2814   2.574   4.030   6.860  0.2967 -0.0681 -1.5532
   23CHL1   H4B 2815   2.747   4.045   6.867  0.6713 -0.7429  1.2074
   23CHL1    C5 2816   2.652   3.955   6.688 -0.4078 -0.7573  0.4039
   23CHL1    C6 2817   2.734   4.027   6.608 -0.9346 -0.0242  0.8431
   23CHL1    H6 2818   2.794   4.112   6.643 -2.1511  1.1793  0.1189
   23CHL1    C7 2819   2.727   4.008   6.459 -0.2271 -0.4380  0.3858
   23CHL1   H7A 2820   2.720   4.096   6.391 -1.0968  0.2804  1.3701
   23CHL1   H7B 2821   2.820   3.950   6.442 -0.2025 -0.5799  0.9711
   23CHL1    C8 2822   2.617   3.915   6.400 -0.8307  0.0618  0.7318
   23CHL1    H8 2823   2.519   3.967   6.392 -2.1736 -2.5479 -1.4855
   23CHL1   C14 2824   2.644   3.874   6.255  0.0357 -0.3604 -0.3165
   23CHL1   H14 2825   2.739   3.816   6.258 -0.6655 -1.5328  1.1445
   23CHL1   C15 2826   2.681   3.986   6.159  0.0178 -0.4454  0.2032
   23CHL1  H15A 2827   2.624   4.081   6.172  0.8423  0.1914 -0.7408
   23CHL1  H15B 2828   2.790   4.004   6.162 -0.0849  0.1385  0.8111
   23CHL1   C16 2829   2.651   3.933   6.020 -1.0816  0.2244 -0.5194
   23CHL1  H16A 2830   2.567   3.995   5.981 -0.7853  1.8587  1.2914
   23CHL1  H16B 2831   2.734   3.936   5.946 -0.2119  0.1944  0.4385
   23CHL1   C17 2832   2.598   3.792   6.044  0.5910  0.5857  0.6654
   23CHL1   H17 2833   2.685   3.724   6.051  1.1750  1.3129  0.5557
   23CHL1   C13 2834   2.537   3.789   6.184  0.6133  0.0988  0.1929
   23CHL1   C18 2835   2.395   3.854   6.169 -0.1174 -0.1221  0.7101
   23CHL1  H18A 2836   2.349   3.864   6.270  1.1345  0.1200  1.2773
   23CHL1  H18B 2837   2.410   3.951   6.118 -1.2861  0.4622  1.4598
   23CHL1  H18C 2838   2.335   3.789   6.102  0.9888  1.9141 -2.4690
   23CHL1   C12 2839   2.535   3.665   6.278 -0.5491  0.3341 -0.0307
   23CHL1  H12A 2840   2.481   3.584   6.224  0.9772  0.2774 -1.5637
   23CHL1  H12B 2841   2.640   3.627   6.275 -0.0438  1.6345  0.2487
   23CHL1   C11 2842   2.498   3.689   6.424  0.0367 -0.7705 -0.1266
   23CHL1  H11A 2843   2.397   3.733   6.423 -0.6171 -2.1174 -2.2239
   23CHL1  H11B 2844   2.507   3.594   6.482  0.8225 -2.5500 -2.9312
   23CHL1    C9 2845   2.600   3.792   6.486  0.1903  0.5787 -0.7123
   23CHL1    H9 2846   2.700   3.743   6.482  0.8406  1.9412 -2.7404
   23CHL1   C10 2847   2.572   3.833   6.634  0.2301  0.1573  0.5868
   23CHL1   C19 2848   2.428   3.874   6.648  0.0376 -0.7067 -0.0758
   23CHL1  H19A 2849   2.394   3.948   6.573  1.2790  0.7707  0.7605
   23CHL1  H19B 2850   2.365   3.784   6.629  1.4763 -1.7852  0.0550
   23CHL1  H19C 2851   2.402   3.912   6.750  0.7701  0.3932 -0.2758
   23CHL1    C1 2852   2.607   3.710   6.734  0.7335 -0.5436  0.2638
   23CHL1   H1A 2853   2.548   3.622   6.703  1.4567 -0.8572 -0.2519
   23CHL1   H1B 2854   2.708   3.667   6.716  0.1756 -1.4794 -0.7899
   23CHL1    C2 2855   2.597   3.739   6.882 -0.7231 -0.0879  0.3548
   23CHL1   H2A 2856   2.623   3.642   6.928  2.6001 -1.2783 -3.4517
   23CHL1   H2B 2857   2.493   3.773   6.899 -1.1192 -0.7953 -0.5865
   23CHL1   C20 2858   2.519   3.740   5.925  0.2170  0.0614 -0.2421
   23CHL1   H20 2859   2.431   3.807   5.918  1.1285  1.5058  1.4178
   23CHL1   C21 2860   2.470   3.595   5.950 -0.5782  0.2151  0.2760
   23CHL1  H21A 2861   2.410   3.586   6.043 -2.8729  0.9984 -1.0338
   23CHL1  H21B 2862   2.559   3.534   5.979 -1.1118 -0.6834  0.0792
   23CHL1  H21C 2863   2.414   3.545   5.867  2.8025 -2.6960 -0.4975
   23CHL1   C22 2864   2.603   3.730   5.797  0.2570 -0.4139  0.0770
   23CHL1  H22A 2865   2.644   3.829   5.770 -1.3832  0.7702  1.7105
   23CHL1  H22B 2866   2.686   3.656   5.807  0.0043 -0.7236 -0.1097
   23CHL1   C23 2867   2.522   3.703   5.665 -0.0673 -0.1997 -0.0081
   23CHL1  H23A 2868   2.501   3.594   5.656  2.3600 -0.6279 -1.3980
   23CHL1  H23B 2869   2.430   3.765   5.665  0.3378  0.4127 -0.6595
   23CHL1   C24 2870   2.609   3.725   5.542 -0.1965  0.0283  0.1298
   23CHL1  H24A 2871   2.640   3.831   5.540  0.9893 -0.2543 -3.5875
   23CHL1  H24B 2872   2.696   3.657   5.526 -0.5763 -1.0930  2.3860
   23CHL1   C25 2873   2.535   3.707   5.407 -0.3600 -0.0694 -0.0219
   23CHL1   H25 2874   2.532   3.598   5.388  0.1117  0.1256 -1.2983
   23CHL1   C26 2875   2.392   3.755   5.402 -0.4828  0.6929  0.2102
   23CHL1  H26A 2876   2.352   3.730   5.301 -0.4854 -1.7312  0.7486
   23CHL1  H26B 2877   2.332   3.702   5.479  2.1481  0.9261  2.5680
   23CHL1  H26C 2878   2.381   3.865   5.415  0.3485  1.0035 -1.4079
   23CHL1   C27 2879   2.621   3.771   5.300  0.3082 -0.1224 -0.1169
   23CHL1  H27A 2880   2.622   3.881   5.315  1.7631 -0.4704  3.1856
   23CHL1  H27B 2881   2.724   3.732   5.298  0.1745 -0.4401 -1.5321
   23CHL1  H27C 2882   2.575   3.745   5.202 -0.6997  1.4977 -0.1168
   24CHL1    C3 2883   0.136   3.390   7.165  0.1848  0.9833  0.0902
   24CHL1    H3 2884   0.152   3.289   7.122  0.7200  1.7351 -1.5623
   24CHL1    O3 2885   0.152   3.393   7.305 -0.1972 -0.0893 -0.5790
   24CHL1   H3' 2886   0.114   3.476   7.334 -1.4883 -0.5202 -0.9866
   24CHL1    C4 2887   0.224   3.485   7.085  0.2736  0.5201  0.2240
   24CHL1   H4A 2888   0.207   3.593   7.109 -1.7378  0.1406  0.6925
   24CHL1   H4B 2889   0.328   3.459   7.113 -0.9476 -1.2291  3.7056
   24CHL1    C5 2890   0.192   3.482   6.937  0.2385 -0.2634  0.7893
   24CHL1    C6 2891   0.291   3.462   6.845  1.0790 -0.5772 -0.4334
   24CHL1    H6 2892   0.397   3.451   6.875  1.0822 -0.0166 -0.2239
   24CHL1    C7 2893   0.271   3.476   6.699  0.2745 -0.0192 -0.6442
   24CHL1   H7A 2894   0.345   3.551   6.663  0.8074 -0.0699  0.3037
   24CHL1   H7B 2895   0.299   3.384   6.643  0.2811 -0.3593 -0.0886
   24CHL1    C8 2896   0.134   3.528   6.650 -0.0205  0.9710 -0.1210
   24CHL1    H8 2897   0.151   3.637   6.656  2.8788  0.6574 -1.2291
   24CHL1   C14 2898   0.107   3.479   6.511 -0.7690  0.5285 -0.3734
   24CHL1   H14 2899   0.112   3.369   6.527  2.8157  1.0114  3.8957
   24CHL1   C15 2900   0.224   3.498   6.402  0.0499 -0.1760  0.1465
   24CHL1  H15A 2901   0.277   3.595   6.397  0.5693 -0.4987 -1.2666
   24CHL1  H15B 2902   0.296   3.415   6.413  0.5227  0.3537  1.1386
   24CHL1   C16 2903   0.143   3.478   6.272 -0.3538  0.7554 -0.1372
   24CHL1  H16A 2904   0.161   3.573   6.217 -1.2808 -0.4405 -2.6728
   24CHL1  H16B 2905   0.177   3.389   6.216  2.7026  1.8916 -0.2743
   24CHL1   C17 2906  -0.009   3.452   6.304  0.1375 -0.5220 -0.1447
   24CHL1   H17 2907  -0.020   3.342   6.315 -0.0572 -0.4688  0.2157
   24CHL1   C13 2908  -0.026   3.511   6.446 -0.5091 -0.3305 -0.1070
   24CHL1   C18 2909  -0.037   3.666   6.428  0.0537 -0.0684  0.0657
   24CHL1  H18A 2910  -0.016   3.710   6.528  2.0857  0.5179 -0.5642
   24CHL1  H18B 2911   0.030   3.702   6.347  0.6858 -0.6420  0.3105
   24CHL1  H18C 2912  -0.141   3.698   6.409 -0.8874 -0.9927  3.1287
   24CHL1   C12 2913  -0.132   3.461   6.540 -0.3510  0.4292 -0.5098
   24CHL1  H12A 2914  -0.229   3.495   6.499 -0.4183 -1.8083 -2.3804
   24CHL1  H12B 2915  -0.125   3.350   6.540  1.1943  0.4841  0.8492
   24CHL1   C11 2916  -0.115   3.508   6.685  0.5476 -0.7902 -0.6774
   24CHL1  H11A 2917  -0.124   3.619   6.683 -1.5987 -0.9378 -2.0988
   24CHL1  H11B 2918  -0.191   3.469   6.756  0.7446  2.5772  1.6323
   24CHL1    C9 2919   0.026   3.472   6.740  0.4077 -0.1391 -0.4526
   24CHL1    H9 2920   0.025   3.361   6.730  0.7399  0.0224 -3.0023
   24CHL1   C10 2921   0.045   3.505   6.894 -0.3515  0.4717 -0.5270
   24CHL1   C19 2922   0.008   3.656   6.919 -0.4879 -0.2692  0.1386
   24CHL1  H19A 2923  -0.098   3.672   6.890 -0.6042 -2.8623 -1.1271
   24CHL1  H19B 2924   0.026   3.688   7.024  0.8401  2.2642 -0.7656
   24CHL1  H19C 2925   0.079   3.711   6.853 -0.3655  1.6683  1.7754
   24CHL1    C1 2926  -0.042   3.414   6.987  0.5317  0.5705  0.1865
   24CHL1   H1A 2927  -0.149   3.421   6.955 -0.1792 -3.5150  1.0240
   24CHL1   H1B 2928  -0.023   3.305   6.973 -2.3690 -0.0373  0.1813
   24CHL1    C2 2929  -0.013   3.430   7.136 -0.1657 -0.5427  0.3663
   24CHL1   H2A 2930  -0.079   3.378   7.209  1.3420  2.5536  4.2569
   24CHL1   H2B 2931  -0.019   3.534   7.172 -0.2021 -0.2487 -0.4581
   24CHL1   C20 2932  -0.102   3.503   6.200 -0.4991  0.7163 -0.0089
   24CHL1   H20 2933  -0.105   3.614   6.205  0.9998  0.7262  3.5183
   24CHL1   C21 2934  -0.239   3.438   6.230  0.1475 -0.1092  0.0056
   24CHL1  H21A 2935  -0.279   3.472   6.328 -2.9439  1.7449 -1.7434
   24CHL1  H21B 2936  -0.240   3.327   6.233 -2.0995 -0.1106  2.1984
   24CHL1  H21C 2937  -0.312   3.460   6.150  0.9943  2.1401 -0.2157
   24CHL1   C22 2938  -0.054   3.476   6.063  0.4818 -0.0863  0.2194
   24CHL1  H22A 2939   0.051   3.509   6.051  0.1880  1.0629  0.6215
   24CHL1  H22B 2940  -0.056   3.365   6.056 -2.3774 -0.1582  0.7124
   24CHL1   C23 2941  -0.133   3.535   5.944  0.2792  0.2431  0.0500
   24CHL1  H23A 2942  -0.234   3.489   5.936 -0.9647  2.3925  2.1524
   24CHL1  H23B 2943  -0.141   3.642   5.973 -2.0332 -0.1554  1.1258
   24CHL1   C24 2944  -0.066   3.512   5.810 -0.5110  0.0055  0.7726
   24CHL1  H24A 2945   0.003   3.597   5.791  0.0074 -0.3908  0.8508
   24CHL1  H24B 2946  -0.003   3.421   5.809 -2.2271 -1.3272 -2.9861
   24CHL1   C25 2947  -0.156   3.510   5.684 -0.5659 -0.5010  1.1616
   24CHL1   H25 2948  -0.218   3.419   5.696 -0.5501 -0.5043  1.2182
   24CHL1   C26 2949  -0.238   3.642   5.668  0.2509  0.5258 -0.8313
   24CHL1  H26A 2950  -0.327   3.624   5.604 -1.0633 -0.2912  1.1077
   24CHL1  H26B 2951  -0.286   3.660   5.767  2.1300 -1.6955  0.5833
   24CHL1  H26C 2952  -0.174   3.727   5.637  0.7315  0.0196 -1.2388
   24CHL1   C27 2953  -0.073   3.493   5.551  0.5728 -0.7776 -0.3226
   24CHL1  H27A 2954  -0.150   3.475   5.472  1.7761 -0.2605 -1.6613
   24CHL1  H27B 2955  -0.009   3.579   5.522  0.3082 -0.6036 -0.3947
   24CHL1  H27C 2956  -0.012   3.400   5.553  0.9333 -0.5253  0.8865
   25CHL1    C3 2957   0.956   6.395   7.382 -0.3140 -0.4816 -0.8238
   25CHL1    H3 2958   0.931   6.289   7.360  1.1309 -0.6797 -1.6380
   25CHL1    O3 2959   0.981   6.427   7.518 -0.2068 -0.3421 -0.1804
   25CHL1   H3' 2960   0.902   6.389   7.558  0.6044 -0.4656  1.3700
   25CHL1    C4 2961   1.071   6.435   7.301 -0.2987  0.2243  0.3410
   25CHL1   H4A 2962   1.111   6.537   7.321 -0.3348  0.8908 -2.5739
   25CHL1   H4B 2963   1.148   6.358   7.321 -1.6274 -1.2192  0.0814
   25CHL1    C5 2964   1.035   6.432   7.154 -0.2234  0.4864 -0.3611
   25CHL1    C6 2965   1.109   6.365   7.064 -0.7742  0.3322 -0.2561
   25CHL1    H6 2966   1.202   6.321   7.104 -0.8997  0.4161  0.1373
   25CHL1    C7 2967   1.093   6.365   6.922 -0.4361  0.1709  0.1676
   25CHL1   H7A 2968   1.187   6.383   6.865 -1.7177 -0.0386 -2.1788
   25CHL1   H7B 2969   1.054   6.265   6.895 -1.0128  0.5461 -0.4421
   25CHL1    C8 2970   1.002   6.484   6.879  0.0516  0.1337 -0.0982
   25CHL1    H8 2971   1.055   6.581   6.876 -0.8498  0.6853  0.9253
   25CHL1   C14 2972   0.962   6.462   6.731 -0.0567 -0.0659  0.1429
   25CHL1   H14 2973   0.905   6.367   6.745  1.4585 -1.0797 -0.2559
   25CHL1   C15 2974   1.066   6.441   6.622  0.4159  0.2877 -0.0775
   25CHL1  H15A 2975   1.156   6.506   6.619  1.9049 -1.5094 -5.3324
   25CHL1  H15B 2976   1.107   6.338   6.622  1.1001  0.5481 -0.8284
   25CHL1   C16 2977   0.994   6.467   6.490  0.1442  0.0054  0.1711
   25CHL1  H16A 2978   1.038   6.544   6.423 -2.0578 -0.5715 -2.1145
   25CHL1  H16B 2979   0.991   6.371   6.433 -0.4436 -0.3174  0.7318
   25CHL1   C17 2980   0.849   6.514   6.526 -0.3974  0.1886  0.3672
   25CHL1   H17 2981   0.783   6.424   6.531 -0.0560 -0.0128  1.5291
   25CHL1   C13 2982   0.867   6.566   6.671 -0.0876 -0.0394 -0.0121
   25CHL1   C18 2983   0.940   6.707   6.664  0.3685  0.3212  0.0175
   25CHL1  H18A 2984   0.871   6.780   6.617 -2.5641 -2.3303 -0.0756
   25CHL1  H18B 2985   0.954   6.746   6.767 -0.9256 -1.3041  0.8573
   25CHL1  H18C 2986   1.037   6.701   6.610  0.3742 -0.0738  0.0676
   25CHL1   C12 2987   0.739   6.575   6.761 -0.0417  0.6723  0.0126
   25CHL1  H12A 2988   0.661   6.647   6.729 -1.1169 -1.0403 -1.4440
   25CHL1  H12B 2989   0.695   6.474   6.746  2.4899 -0.4118 -0.8506
   25CHL1   C11 2990   0.774   6.603   6.904 -0.9809 -0.1251 -0.1925
   25CHL1  H11A 2991   0.802   6.711   6.906 -0.3607 -0.2739 -0.5557
   25CHL1  H11B 2992   0.686   6.583   6.969  0.1088 -1.3516  0.9547
   25CHL1    C9 2993   0.874   6.496   6.955  0.7149 -0.6563 -0.4019
   25CHL1    H9 2994   0.828   6.396   6.941 -0.8683  0.1963 -1.6338
   25CHL1   C10 2995   0.911   6.513   7.108  0.3231 -0.0887  0.4923
   25CHL1   C19 2996   0.936   6.668   7.137 -1.1960 -0.6129  0.9806
   25CHL1  H19A 2997   0.986   6.685   7.235 -0.2615  0.7887  0.2954
   25CHL1  H19B 2998   1.003   6.713   7.060 -0.7395  0.3793  1.9246
   25CHL1  H19C 2999   0.848   6.734   7.126 -0.5266  0.0046 -1.4613
   25CHL1    C1 3000   0.790   6.477   7.199  0.6892 -0.0611  0.4354
   25CHL1   H1A 3001   0.692   6.525   7.178 -1.0501 -1.9194  3.5909
   25CHL1   H1B 3002   0.773   6.372   7.167 -0.3084 -0.1060  1.0786
   25CHL1    C2 3003   0.827   6.475   7.350  0.4845 -0.1440  0.4717
   25CHL1   H2A 3004   0.735   6.443   7.405  0.3189  0.6295  0.6635
   25CHL1   H2B 3005   0.840   6.582   7.375 -0.1654  0.5411 -1.8289
   25CHL1   C20 3006   0.777   6.596   6.411 -0.6863 -0.2853 -0.1517
   25CHL1   H20 3007   0.829   6.694   6.413  0.3486 -0.6608 -3.0610
   25CHL1   C21 3008   0.626   6.608   6.443  0.2838  0.0191 -0.1731
   25CHL1  H21A 3009   0.607   6.641   6.548  0.3297  0.0816 -0.1841
   25CHL1  H21B 3010   0.580   6.508   6.435  1.3606 -0.6634  1.5016
   25CHL1  H21C 3011   0.575   6.679   6.375  0.2593  0.6597  0.4892
   25CHL1   C22 3012   0.803   6.541   6.274  0.3592  0.2595 -0.6038
   25CHL1  H22A 3013   0.901   6.491   6.255  0.0814 -0.7347  0.4709
   25CHL1  H22B 3014   0.737   6.454   6.252  0.5990  0.3336 -1.6470
   25CHL1   C23 3015   0.782   6.653   6.163  0.2556 -0.0726 -0.2034
   25CHL1  H23A 3016   0.677   6.688   6.171 -0.5116 -2.2397 -0.1274
   25CHL1  H23B 3017   0.857   6.732   6.183  1.0922 -1.0576  0.6860
   25CHL1   C24 3018   0.807   6.604   6.025 -0.5167  0.0625  0.6034
   25CHL1  H24A 3019   0.806   6.494   6.039  2.3250 -0.0532  0.5088
   25CHL1  H24B 3020   0.729   6.639   5.954 -0.2356 -1.6557 -0.5964
   25CHL1   C25 3021   0.952   6.630   5.963  0.6086  0.5884  0.7382
   25CHL1   H25 3022   1.020   6.588   6.040 -1.3743 -0.8347  1.8298
   25CHL1   C26 3023   0.977   6.546   5.834 -0.0017  0.1915  0.3419
   25CHL1  H26A 3024   1.080   6.579   5.807  0.9738 -0.5394  2.8974
   25CHL1  H26B 3025   0.986   6.438   5.860 -2.5969 -0.3335 -0.6387
   25CHL1  H26C 3026   0.914   6.567   5.745 -0.5657 -1.1554  0.3967
   25CHL1   C27 3027   1.001   6.768   5.932 -0.0224 -0.2330  0.0586
   25CHL1  H27A 3028   1.096   6.779   5.877  0.1663  0.4775  0.5143
   25CHL1  H27B 3029   0.931   6.820   5.862  1.0074  0.1601 -0.7030
   25CHL1  H27C 3030   1.015   6.824   6.027  2.1921  1.1853 -1.0285
   26CHL1    C3 3031   5.936   2.009   6.652  0.4409  0.7724  0.4590
   26CHL1    H3 3032   5.910   2.112   6.618  1.7405 -0.2429 -4.3426
   26CHL1    O3 3033   5.906   2.011   6.791  0.1362  1.1021 -0.1224
   26CHL1   H3' 3034   5.922   1.920   6.818  0.7332  0.5930 -2.0087
   26CHL1    C4 3035   5.842   1.908   6.581 -0.0427  0.2588 -0.4962
   26CHL1   H4A 3036   5.829   1.812   6.637  1.3795  0.3644  0.0527
   26CHL1   H4B 3037   5.742   1.955   6.594 -0.0254 -0.1854  1.5938
   26CHL1    C5 3038   5.873   1.892   6.432 -0.2435  0.8939  0.0448
   26CHL1    C6 3039   5.787   1.913   6.334  0.1834  0.1899 -0.0197
   26CHL1    H6 3040   5.682   1.934   6.357  0.0764 -0.8049  0.4692
   26CHL1    C7 3041   5.814   1.899   6.186 -0.0021  0.9731 -0.0679
   26CHL1   H7A 3042   5.738   1.833   6.138  1.4481 -0.9310  0.1204
   26CHL1   H7B 3043   5.804   1.993   6.128 -1.1574 -0.4513 -2.3108
   26CHL1    C8 3044   5.954   1.838   6.148  0.1930 -0.5546 -0.2049
   26CHL1    H8 3045   5.934   1.729   6.154 -0.0714 -0.4708  0.4719
   26CHL1   C14 3046   5.991   1.884   6.015 -0.6936 -0.7640 -0.1114
   26CHL1   H14 3047   5.994   1.995   6.019 -0.6114 -0.7552 -0.4059
   26CHL1   C15 3048   5.889   1.853   5.896  0.2676  0.2958  0.2060
   26CHL1  H15A 3049   5.846   1.751   5.904  0.2392  0.1768 -1.1562
   26CHL1  H15B 3050   5.808   1.929   5.897 -1.9312 -1.7979 -1.9945
   26CHL1   C16 3051   5.980   1.869   5.768  0.3230  0.2783  0.3297
   26CHL1  H16A 3052   5.981   1.774   5.711 -1.1274  0.1816  0.4192
   26CHL1  H16B 3053   5.945   1.951   5.701 -0.7646 -0.6398 -0.2585
   26CHL1   C17 3054   6.124   1.897   5.819  0.0159 -0.1946 -0.4097
   26CHL1   H17 3055   6.138   2.007   5.826 -1.9226 -0.0074  2.1189
   26CHL1   C13 3056   6.130   1.843   5.963  0.0416  0.3724 -0.0414
   26CHL1   C18 3057   6.130   1.685   5.947 -0.3461  0.7545 -0.4185
   26CHL1  H18A 3058   6.081   1.639   6.035  0.6515  0.6592  0.1072
   26CHL1  H18B 3059   6.065   1.647   5.865 -1.8577 -1.2752  1.6254
   26CHL1  H18C 3060   6.235   1.649   5.947 -0.7330 -0.4353  0.6265
   26CHL1   C12 3061   6.236   1.895   6.063  0.4712 -0.1918 -0.0765
   26CHL1  H12A 3062   6.338   1.854   6.047  0.7238 -0.8776  2.8275
   26CHL1  H12B 3063   6.240   2.002   6.035  1.0169 -0.0945  0.3644
   26CHL1   C11 3064   6.204   1.876   6.207 -0.2248 -0.4755 -0.1976
   26CHL1  H11A 3065   6.236   1.774   6.236 -0.7229 -0.3943  0.6979
   26CHL1  H11B 3066   6.280   1.937   6.260  0.7794 -1.5326 -0.3799
   26CHL1    C9 3067   6.057   1.905   6.247 -0.2168  0.2100 -0.8080
   26CHL1    H9 3068   6.049   2.014   6.229 -0.6769 -0.1336 -2.9207
   26CHL1   C10 3069   6.024   1.872   6.397 -0.5194 -0.8215 -0.1015
   26CHL1   C19 3070   6.059   1.727   6.417  0.5940  0.0427  0.3023
   26CHL1  H19A 3071   6.169   1.719   6.403  0.7826  0.2978  1.5721
   26CHL1  H19B 3072   6.032   1.692   6.519  0.0444  0.1197  0.1858
   26CHL1  H19C 3073   6.004   1.668   6.341  1.2203  0.7409 -0.7191
   26CHL1    C1 3074   6.115   1.957   6.481 -0.2931 -0.0237  0.4635
   26CHL1   H1A 3075   6.213   1.904   6.477 -0.5710 -0.4774 -0.6579
   26CHL1   H1B 3076   6.123   2.059   6.438 -0.7859 -1.9826 -5.0370
   26CHL1    C2 3077   6.079   1.975   6.635 -0.5867  0.1123  0.6100
   26CHL1   H2A 3078   6.155   2.047   6.671 -0.0600 -0.0371 -0.1584
   26CHL1   H2B 3079   6.107   1.880   6.686  2.4644 -0.4879 -1.8676
   26CHL1   C20 3080   6.228   1.860   5.718 -0.0288  0.4667 -0.0478
   26CHL1   H20 3081   6.235   1.753   5.690  3.3536  0.9443 -1.4917
   26CHL1   C21 3082   6.373   1.891   5.761 -0.2680  0.0224 -0.5365
   26CHL1  H21A 3083   6.443   1.882   5.675  1.1971  0.1730  0.5975
   26CHL1  H21B 3084   6.420   1.819   5.832  1.5343 -0.1919 -1.8786
   26CHL1  H21C 3085   6.379   1.998   5.791 -0.1398  0.7792 -3.0757
   26CHL1   C22 3086   6.209   1.952   5.587 -0.6103 -0.4596  0.3598
   26CHL1  H22A 3087   6.106   1.973   5.550 -0.0047  2.5586  0.1438
   26CHL1  H22B 3088   6.257   2.045   5.624 -2.7818  0.9614 -0.2193
   26CHL1   C23 3089   6.285   1.911   5.464  0.0416 -0.1636  0.3587
   26CHL1  H23A 3090   6.257   1.982   5.383 -1.2408  0.6139  1.4544
   26CHL1  H23B 3091   6.396   1.913   5.466  0.0540  1.9850  0.0066
   26CHL1   C24 3092   6.250   1.776   5.411 -0.1444 -0.9582  0.3525
   26CHL1  H24A 3093   6.325   1.701   5.445  2.6864  0.9821 -1.1308
   26CHL1  H24B 3094   6.141   1.758   5.418 -0.5209  1.5481  2.1661
   26CHL1   C25 3095   6.264   1.774   5.258 -0.1190  0.7247 -0.3299
   26CHL1   H25 3096   6.196   1.854   5.222 -0.5934 -0.9447 -3.5383
   26CHL1   C26 3097   6.407   1.804   5.211 -0.8406 -0.4072 -0.7418
   26CHL1  H26A 3098   6.400   1.831   5.103 -0.6617 -2.8652 -1.4392
   26CHL1  H26B 3099   6.448   1.886   5.274 -1.2230 -1.8501  1.4899
   26CHL1  H26C 3100   6.470   1.721   5.248  0.9405  0.7816 -0.9974
   26CHL1   C27 3101   6.212   1.646   5.185  0.7043  0.5904 -0.6894
   26CHL1  H27A 3102   6.104   1.625   5.198  1.1694 -1.7066 -0.2145
   26CHL1  H27B 3103   6.216   1.656   5.074 -0.7051  2.6214 -0.6115
   26CHL1  H27C 3104   6.269   1.554   5.209 -0.5363  0.3475  1.5678
   27CHL1    C3 3105   4.230   2.273   6.717  0.5368  0.0809 -0.4657
   27CHL1    H3 3106   4.177   2.175   6.714 -0.3013  0.5343 -0.7552
   27CHL1    O3 3107   4.266   2.300   6.854 -0.3672 -0.6037  0.2438
   27CHL1   H3' 3108   4.181   2.287   6.897  0.9081 -1.1851  2.8038
   27CHL1    C4 3109   4.360   2.262   6.625 -0.0113 -1.0277 -0.0333
   27CHL1   H4A 3110   4.414   2.355   6.650 -0.8809 -0.4896 -0.1250
   27CHL1   H4B 3111   4.424   2.181   6.666  1.1135  1.3661  3.3159
   27CHL1    C5 3112   4.321   2.244   6.479  0.4420 -0.4405  0.2062
   27CHL1    C6 3113   4.367   2.135   6.409  0.7084  0.2466 -0.1928
   27CHL1    H6 3114   4.429   2.057   6.456 -0.6239 -2.3076 -2.4332
   27CHL1    C7 3115   4.336   2.117   6.264  0.1029  0.1098  0.6410
   27CHL1   H7A 3116   4.425   2.073   6.214  0.3841  0.7162  0.5971
   27CHL1   H7B 3117   4.245   2.055   6.257  0.9037 -1.3915  2.5615
   27CHL1    C8 3118   4.299   2.251   6.204  0.8847  0.6517  0.0987
   27CHL1    H8 3119   4.392   2.312   6.190  2.6014 -1.6080  1.0754
   27CHL1   C14 3120   4.234   2.217   6.071 -0.5304  0.1272  0.0707
   27CHL1   H14 3121   4.138   2.167   6.097 -0.3613  0.3520  1.1760
   27CHL1   C15 3122   4.309   2.115   5.973  0.1834 -0.3638  0.2164
   27CHL1  H15A 3123   4.419   2.127   5.981  0.1301 -0.3226  1.0224
   27CHL1  H15B 3124   4.286   2.008   5.990 -0.7792 -0.0627  0.9214
   27CHL1   C16 3125   4.248   2.151   5.839  0.9914 -0.0451 -0.2266
   27CHL1  H16A 3126   4.331   2.174   5.768 -1.3015  0.9660 -2.7782
   27CHL1  H16B 3127   4.176   2.081   5.792 -1.3112  1.8561  0.2838
   27CHL1   C17 3128   4.159   2.275   5.861 -0.1001 -0.6552  0.7576
   27CHL1   H17 3129   4.051   2.254   5.875 -0.3875  0.3487  0.1779
   27CHL1   C13 3130   4.205   2.343   5.996  0.1655 -0.1180  0.3127
   27CHL1   C18 3131   4.341   2.425   5.965 -0.3903 -0.2275 -0.3611
   27CHL1  H18A 3132   4.385   2.461   6.061  0.3002  0.8738 -1.0668
   27CHL1  H18B 3133   4.421   2.368   5.913  0.3372  1.3911 -1.0954
   27CHL1  H18C 3134   4.311   2.516   5.908 -1.7158 -1.1131 -1.1221
   27CHL1   C12 3135   4.093   2.426   6.067 -0.3586  0.4890  0.1722
   27CHL1  H12A 3136   4.081   2.519   6.008  1.5483  1.5307  1.3086
   27CHL1  H12B 3137   4.000   2.366   6.070 -1.5892  2.2505 -0.9813
   27CHL1   C11 3138   4.150   2.460   6.209  0.7442 -0.4746 -0.5212
   27CHL1  H11A 3139   4.234   2.532   6.199 -0.5046  1.0983  0.0143
   27CHL1  H11B 3140   4.073   2.516   6.267  0.2700 -0.4986 -1.1167
   27CHL1    C9 3141   4.199   2.332   6.285  0.3700  0.1556 -0.1504
   27CHL1    H9 3142   4.107   2.270   6.293 -0.1850  0.9683 -0.1106
   27CHL1   C10 3143   4.233   2.357   6.430 -0.7458 -0.1105 -0.1645
   27CHL1   C19 3144   4.310   2.496   6.437  0.5520 -0.0682  0.5680
   27CHL1  H19A 3145   4.250   2.583   6.402  2.7195  1.9123  1.5427
   27CHL1  H19B 3146   4.340   2.508   6.543  0.3714 -2.8606  1.0021
   27CHL1  H19C 3147   4.402   2.492   6.376  1.5778  1.8529  1.8832
   27CHL1    C1 3148   4.102   2.356   6.512 -0.4587  0.0615  0.3531
   27CHL1   H1A 3149   4.044   2.445   6.480  0.6448  0.6148 -0.1601
   27CHL1   H1B 3150   4.035   2.269   6.500  0.4861 -0.8388  1.2824
   27CHL1    C2 3151   4.130   2.378   6.663 -0.7607  0.1376 -0.4339
   27CHL1   H2A 3152   4.044   2.395   6.730 -2.0682  0.9956 -2.2524
   27CHL1   H2B 3153   4.189   2.472   6.662  1.0079 -0.9087 -0.1359
   27CHL1   C20 3154   4.159   2.361   5.730  0.1092  0.9110 -0.3139
   27CHL1   H20 3155   4.261   2.396   5.704  0.6767  0.1810  0.8171
   27CHL1   C21 3156   4.076   2.490   5.743  0.6842 -0.0494  0.1030
   27CHL1  H21A 3157   4.128   2.564   5.808 -0.1504  1.0004 -0.4014
   27CHL1  H21B 3158   3.983   2.461   5.797  0.8066 -0.2390  0.2153
   27CHL1  H21C 3159   4.048   2.537   5.647 -0.6352 -0.3828  0.3024
   27CHL1   C22 3160   4.099   2.283   5.613 -0.2436  0.3358 -0.4774
   27CHL1  H22A 3161   4.161   2.192   5.602  1.1808  1.2991 -0.6793
   27CHL1  H22B 3162   3.993   2.262   5.639 -0.0286 -2.0169 -1.2838
   27CHL1   C23 3163   4.105   2.338   5.470 -0.5397 -0.8241 -0.1001
   27CHL1  H23A 3164   4.065   2.258   5.404  0.9584 -0.0252 -2.0742
   27CHL1  H23B 3165   4.045   2.431   5.461 -0.3765 -0.4880  1.8330
   27CHL1   C24 3166   4.249   2.369   5.423 -0.2546  0.1690  0.0396
   27CHL1  H24A 3167   4.297   2.448   5.485  0.0623 -0.7077  0.9335
   27CHL1  H24B 3168   4.306   2.275   5.438 -0.7052  0.1420  1.8782
   27CHL1   C25 3169   4.266   2.394   5.279  0.9044 -0.5761  1.2080
   27CHL1   H25 3170   4.371   2.371   5.253 -0.1458 -2.6966 -1.5721
   27CHL1   C26 3171   4.183   2.305   5.185  0.7824 -0.2290 -0.1822
   27CHL1  H26A 3172   4.223   2.307   5.082  1.1460  1.7945 -0.0303
   27CHL1  H26B 3173   4.192   2.206   5.236  1.7456  0.6210  1.3752
   27CHL1  H26C 3174   4.079   2.343   5.197  0.1908 -1.7918 -0.0845
   27CHL1   C27 3175   4.235   2.545   5.243  0.1617  0.0592 -0.1056
   27CHL1  H27A 3176   4.139   2.578   5.288  1.9753  4.1579  1.2228
   27CHL1  H27B 3177   4.225   2.561   5.134  3.4263  3.1045 -0.1382
   27CHL1  H27C 3178   4.304   2.616   5.293  0.2760  1.1622 -1.7583
   28CHL1    C3 3179   2.032   0.233   7.504 -0.1942  0.7086 -0.2887
   28CHL1    H3 3180   2.064   0.336   7.478 -2.0882  1.7300  1.1866
   28CHL1    O3 3181   2.047   0.208   7.644 -0.3794 -0.1225  0.2547
   28CHL1   H3' 3182   1.971   0.247   7.688 -0.3592 -0.5363  0.6729
   28CHL1    C4 3183   1.886   0.226   7.454  0.2936 -0.1713  0.2839
   28CHL1   H4A 3184   1.837   0.129   7.479  1.6832 -0.9213  0.1638
   28CHL1   H4B 3185   1.822   0.302   7.503  0.2392  0.6433 -1.0180
   28CHL1    C5 3186   1.883   0.231   7.303  0.3818 -0.2611 -0.3031
   28CHL1    C6 3187   1.804   0.320   7.246  0.5269 -0.8621  0.1155
   28CHL1    H6 3188   1.737   0.383   7.307 -0.0484 -1.8674  0.5349
   28CHL1    C7 3189   1.781   0.330   7.093 -0.0195  0.2179 -0.5714
   28CHL1   H7A 3190   1.673   0.336   7.066 -0.3892  0.5101  0.8950
   28CHL1   H7B 3191   1.827   0.427   7.063  1.1992  0.1520  0.9638
   28CHL1    C8 3192   1.836   0.209   7.022 -0.3531  0.0163 -0.4301
   28CHL1    H8 3193   1.761   0.128   7.035  1.0853 -1.0795  1.4819
   28CHL1   C14 3194   1.850   0.247   6.873 -0.1370 -0.0135 -0.2528
   28CHL1   H14 3195   1.926   0.328   6.872 -0.9977  1.2684  5.1532
   28CHL1   C15 3196   1.736   0.309   6.801  0.3498 -0.2317  0.1778
   28CHL1  H15A 3197   1.645   0.249   6.823 -0.3084 -0.9739 -3.8653
   28CHL1  H15B 3198   1.717   0.417   6.818  0.5789  0.0947 -1.5054
   28CHL1   C16 3199   1.761   0.282   6.655  0.1526 -0.3071 -1.1856
   28CHL1  H16A 3200   1.677   0.237   6.599 -0.3034 -1.4047  0.3299
   28CHL1  H16B 3201   1.764   0.382   6.607  0.8760  0.0239 -0.4671
   28CHL1   C17 3202   1.889   0.197   6.648  0.0089  0.2215 -0.0233
   28CHL1   H17 3203   1.976   0.265   6.635 -0.3627  0.8206  0.5425
   28CHL1   C13 3204   1.900   0.130   6.786  0.6248  0.2716  0.4561
   28CHL1   C18 3205   1.803   0.009   6.789  0.2448  0.1789  0.2282
   28CHL1  H18A 3206   1.776  -0.025   6.891 -2.3902  0.1828 -0.4128
   28CHL1  H18B 3207   1.702   0.029   6.749 -0.5474  1.1422  2.5516
   28CHL1  H18C 3208   1.851  -0.076   6.737 -0.5616 -0.1220 -0.0332
   28CHL1   C12 3209   2.039   0.084   6.834  0.6773 -0.3764 -0.6968
   28CHL1  H12A 3210   2.057  -0.014   6.785  0.7455 -0.1179 -1.1865
   28CHL1  H12B 3211   2.118   0.156   6.804  0.3880 -0.3447 -1.3939
   28CHL1   C11 3212   2.042   0.053   6.983  0.3958  0.6305  0.4018
   28CHL1  H11A 3213   1.987  -0.043   6.989  2.0397 -0.5924 -2.2251
   28CHL1  H11B 3214   2.151   0.040   7.001  0.7151 -0.0362 -1.7392
   28CHL1    C9 3215   1.975   0.159   7.075 -0.5410 -0.3861  0.2732
   28CHL1    H9 3216   2.041   0.248   7.071  0.3254 -0.9029  2.1445
   28CHL1   C10 3217   1.972   0.134   7.225  0.9735  0.8743  0.3822
   28CHL1   C19 3218   1.902  -0.001   7.255  0.1709 -0.5437  0.5632
   28CHL1  H19A 3219   1.964  -0.081   7.208  2.8147  0.2211  2.5592
   28CHL1  H19B 3220   1.901  -0.024   7.363 -3.4026  0.8623  0.9791
   28CHL1  H19C 3221   1.796  -0.010   7.223  0.5539 -1.9682 -0.4482
   28CHL1    C1 3222   2.116   0.141   7.282  0.1401  0.1774 -0.0049
   28CHL1   H1A 3223   2.166   0.059   7.225 -1.1222 -0.5063 -0.1559
   28CHL1   H1B 3224   2.159   0.237   7.245  1.3932 -0.0484  0.8119
   28CHL1    C2 3225   2.127   0.124   7.431 -0.1784 -0.3335 -0.1026
   28CHL1   H2A 3226   2.230   0.139   7.470 -0.2605  0.6485 -0.2449
   28CHL1   H2B 3227   2.098   0.028   7.478  2.6028 -1.1894  0.0100
   28CHL1   C20 3228   1.891   0.096   6.527  0.1430  0.1492 -0.0773
   28CHL1   H20 3229   1.817   0.015   6.542  0.8168 -0.8577 -1.8852
   28CHL1   C21 3230   2.028   0.028   6.497 -0.5254 -0.1160  0.2600
   28CHL1  H21A 3231   2.036  -0.060   6.565 -0.5173  0.3675  0.8909
   28CHL1  H21B 3232   2.121   0.085   6.516  0.3715 -0.8119 -1.7491
   28CHL1  H21C 3233   2.036  -0.006   6.392  1.3552  0.3775  0.2237
   28CHL1   C22 3234   1.849   0.168   6.396  0.2020  0.8132 -0.0013
   28CHL1  H22A 3235   1.860   0.105   6.305 -0.8276 -0.6970  0.8815
   28CHL1  H22B 3236   1.739   0.187   6.393 -0.2479 -1.3845 -3.1989
   28CHL1   C23 3237   1.925   0.286   6.353 -0.4329 -0.5565 -0.2338
   28CHL1  H23A 3238   1.903   0.369   6.423  1.5849  0.8764 -1.1746
   28CHL1  H23B 3239   2.033   0.260   6.366 -0.5846 -0.9709  0.2466
   28CHL1   C24 3240   1.892   0.337   6.212 -0.0154 -0.0695  0.4654
   28CHL1  H24A 3241   1.782   0.348   6.205 -0.0729 -0.0337  1.3035
   28CHL1  H24B 3242   1.934   0.440   6.202  1.3188  0.1816  5.7447
   28CHL1   C25 3243   1.949   0.260   6.094  0.4632 -0.0673 -0.5871
   28CHL1   H25 3244   1.913   0.156   6.109  2.0338 -0.3520  1.8983
   28CHL1   C26 3245   1.903   0.317   5.962  0.6013 -0.2866  0.1675
   28CHL1  H26A 3246   1.921   0.426   5.969 -1.2012  0.1056 -0.6985
   28CHL1  H26B 3247   1.967   0.286   5.877 -0.5370  1.0364 -1.2366
   28CHL1  H26C 3248   1.794   0.309   5.944  0.6669  0.1269 -0.4790
   28CHL1   C27 3249   2.098   0.250   6.095 -0.3490 -0.0368 -0.1266
   28CHL1  H27A 3250   2.135   0.355   6.105  1.4904 -0.8705  3.5426
   28CHL1  H27B 3251   2.147   0.185   6.170 -1.1874 -1.4653 -0.7689
   28CHL1  H27C 3252   2.138   0.207   6.000  2.0844  1.3269  0.1919
   29CHL1    C3 3253   3.624   3.560   6.924 -0.2289 -0.6504 -0.2133
   29CHL1    H3 3254   3.684   3.652   6.908 -2.1904  0.5208 -1.1686
   29CHL1    O3 3255   3.607   3.529   7.061 -0.0084  0.1082 -0.6273
   29CHL1   H3' 3256   3.690   3.485   7.079 -0.4695 -0.5097  0.0127
   29CHL1    C4 3257   3.483   3.575   6.854 -0.6130 -0.5204  0.1810
   29CHL1   H4A 3258   3.415   3.489   6.875 -2.9701  1.3862  0.8760
   29CHL1   H4B 3259   3.426   3.659   6.900 -0.7111 -0.4203 -0.1207
   29CHL1    C5 3260   3.501   3.604   6.703  0.5959 -0.2921 -0.8845
   29CHL1    C6 3261   3.444   3.710   6.642 -0.4374  0.3037 -0.4517
   29CHL1    H6 3262   3.393   3.779   6.711  1.1922  0.2648  0.8618
   29CHL1    C7 3263   3.443   3.727   6.492  0.4397  0.1243  0.5797
   29CHL1   H7A 3264   3.342   3.754   6.456 -0.4109 -0.7234  2.2035
   29CHL1   H7B 3265   3.507   3.814   6.465  0.1907  1.5018  3.8892
   29CHL1    C8 3266   3.491   3.597   6.410 -0.2760 -0.6588  0.3370
   29CHL1    H8 3267   3.407   3.525   6.403  0.4358 -1.5887  1.1718
   29CHL1   C14 3268   3.532   3.644   6.270 -0.5170  0.8214 -0.0326
   29CHL1   H14 3269   3.628   3.698   6.284  0.7374 -1.4350  0.6155
   29CHL1   C15 3270   3.442   3.743   6.191 -0.1149 -0.2779  0.0155
   29CHL1  H15A 3271   3.343   3.693   6.180  0.4824 -1.5168  0.0928
   29CHL1  H15B 3272   3.451   3.837   6.249 -0.0739  0.3024 -0.9066
   29CHL1   C16 3273   3.497   3.734   6.049 -0.7422  0.3367 -0.3780
   29CHL1  H16A 3274   3.416   3.719   5.974 -1.8186 -1.4461  1.0537
   29CHL1  H16B 3275   3.554   3.822   6.013  0.6255 -1.0211 -1.7049
   29CHL1   C17 3276   3.591   3.611   6.040 -0.0317 -0.4248  0.4430
   29CHL1   H17 3277   3.693   3.654   6.034 -0.3876  0.2186 -1.6063
   29CHL1   C13 3278   3.564   3.529   6.174 -0.3484  0.3220  0.1002
   29CHL1   C18 3279   3.442   3.427   6.172 -0.4581 -0.7094 -0.3985
   29CHL1  H18A 3280   3.427   3.372   6.267 -1.2153 -1.0423 -0.7070
   29CHL1  H18B 3281   3.352   3.478   6.131 -0.9716 -1.1805  0.1336
   29CHL1  H18C 3282   3.471   3.353   6.095  3.1467  1.9053 -1.8696
   29CHL1   C12 3283   3.690   3.465   6.235 -0.5401  0.2866 -0.1397
   29CHL1  H12A 3284   3.716   3.370   6.184 -1.5365 -0.3172  0.4579
   29CHL1  H12B 3285   3.781   3.527   6.216  1.4294 -1.8792  1.6611
   29CHL1   C11 3286   3.672   3.423   6.383  0.2312  0.0353 -0.8967
   29CHL1  H11A 3287   3.606   3.334   6.389 -0.1319  0.3006 -0.9244
   29CHL1  H11B 3288   3.765   3.395   6.437  0.5697 -0.5622 -1.7650
   29CHL1    C9 3289   3.608   3.534   6.479  0.6888  0.2330  0.0401
   29CHL1    H9 3290   3.692   3.606   6.491  0.3698  0.7694 -0.8489
   29CHL1   C10 3291   3.570   3.487   6.631 -0.1598 -0.1958 -0.1946
   29CHL1   C19 3292   3.477   3.360   6.622 -0.2021 -0.2817  0.5451
   29CHL1  H19A 3293   3.531   3.274   6.576  0.1438  0.0969  0.2306
   29CHL1  H19B 3294   3.454   3.332   6.727  1.5752 -0.4849  0.9098
   29CHL1  H19C 3295   3.383   3.379   6.566  1.4720  1.4616 -1.9236
   29CHL1    C1 3296   3.700   3.450   6.711 -0.3350  0.7354 -0.2010
   29CHL1   H1A 3297   3.728   3.350   6.672 -1.7982  0.7394 -1.3702
   29CHL1   H1B 3298   3.788   3.514   6.690  0.7201 -1.3371 -2.6458
   29CHL1    C2 3299   3.694   3.441   6.863  0.5628 -0.5140  0.4589
   29CHL1   H2A 3300   3.793   3.433   6.912  0.6143 -1.2664  0.2431
   29CHL1   H2B 3301   3.628   3.359   6.897 -0.2689  0.0643  0.2722
   29CHL1   C20 3302   3.576   3.526   5.910 -0.1268 -0.0962  0.3412
   29CHL1   H20 3303   3.472   3.487   5.914 -0.8629  1.2463 -2.7104
   29CHL1   C21 3304   3.686   3.426   5.904 -0.4057  0.0892 -0.0624
   29CHL1  H21A 3305   3.785   3.464   5.934 -1.0713 -0.8454  3.7960
   29CHL1  H21B 3306   3.693   3.351   5.822 -0.6086  1.3105 -1.2317
   29CHL1  H21C 3307   3.684   3.353   5.988  2.7331 -0.6209 -0.4743
   29CHL1   C22 3308   3.580   3.610   5.781  0.1620 -0.1443 -0.0820
   29CHL1  H22A 3309   3.519   3.699   5.809  0.8256 -0.3785  2.3397
   29CHL1  H22B 3310   3.681   3.653   5.763 -1.0450  3.5675  0.9347
   29CHL1   C23 3311   3.524   3.542   5.650 -0.1187  0.2744  0.0186
   29CHL1  H23A 3312   3.559   3.442   5.617 -0.0682  1.0715 -2.5567
   29CHL1  H23B 3313   3.413   3.541   5.658 -0.1919  0.1515 -0.9522
   29CHL1   C24 3314   3.540   3.633   5.516  0.0042  0.7838 -0.5810
   29CHL1  H24A 3315   3.478   3.724   5.531 -3.8057 -1.9894  2.2362
   29CHL1  H24B 3316   3.648   3.657   5.527 -0.0095 -0.1675  2.5231
   29CHL1   C25 3317   3.503   3.569   5.383  0.8982  0.7314 -0.1244
   29CHL1   H25 3318   3.536   3.463   5.383 -0.2139  0.3583 -0.8572
   29CHL1   C26 3319   3.353   3.562   5.361 -0.1417 -0.3302 -0.4570
   29CHL1  H26A 3320   3.314   3.665   5.375 -0.8793 -0.8256  1.6034
   29CHL1  H26B 3321   3.328   3.518   5.262 -1.8530  0.4625 -0.4202
   29CHL1  H26C 3322   3.308   3.502   5.444  0.8723 -1.1635 -0.4924
   29CHL1   C27 3323   3.576   3.646   5.273 -0.4143 -0.3691 -0.1480
   29CHL1  H27A 3324   3.551   3.596   5.177 -0.6597 -0.7375  0.0986
   29CHL1  H27B 3325   3.522   3.743   5.269 -1.1718 -0.8017 -0.6595
   29CHL1  H27C 3326   3.685   3.663   5.275 -0.6645  1.3556  1.1638
   30CHL1    C3 3327   4.714   3.543   6.725  0.1108 -0.5675  0.8862
   30CHL1    H3 3328   4.778   3.590   6.646  1.1947 -1.3353  1.2802
   30CHL1    O3 3329   4.774   3.548   6.854  0.3324 -0.6605  0.2329
   30CHL1   H3' 3330   4.710   3.506   6.912 -2.1589  2.9727  0.4286
   30CHL1    C4 3331   4.570   3.608   6.723 -0.3929 -0.1562  0.0327
   30CHL1   H4A 3332   4.515   3.542   6.794  0.6775 -0.6908  0.3880
   30CHL1   H4B 3333   4.569   3.708   6.771  1.9857 -0.1263  0.1226
   30CHL1    C5 3334   4.493   3.587   6.592 -0.5893 -0.0141 -0.2436
   30CHL1    C6 3335   4.441   3.692   6.525 -0.5979 -0.9826  0.0941
   30CHL1    H6 3336   4.444   3.798   6.556  0.3482 -0.4914 -1.5290
   30CHL1    C7 3337   4.357   3.684   6.399 -0.0750 -0.6215  0.1347
   30CHL1   H7A 3338   4.268   3.745   6.425 -0.8231 -1.6850  0.1115
   30CHL1   H7B 3339   4.398   3.745   6.315 -0.5373  0.7489  0.8607
   30CHL1    C8 3340   4.324   3.539   6.361  0.0494 -0.2046 -0.6696
   30CHL1    H8 3341   4.244   3.498   6.426 -0.1679  0.2761 -0.6361
   30CHL1   C14 3342   4.282   3.541   6.220 -0.0417 -0.9654 -0.5582
   30CHL1   H14 3343   4.365   3.591   6.165 -1.5431 -0.1575 -2.1699
   30CHL1   C15 3344   4.165   3.638   6.181  0.5597  0.7833  0.8473
   30CHL1  H15A 3345   4.084   3.621   6.255  1.3776  3.4587  2.4727
   30CHL1  H15B 3346   4.201   3.743   6.179  1.4387  0.4857 -0.4883
   30CHL1   C16 3347   4.139   3.591   6.039  0.0252 -0.1776  0.5963
   30CHL1  H16A 3348   4.033   3.580   6.009 -0.1559  2.0989  0.2298
   30CHL1  H16B 3349   4.176   3.674   5.975  1.8545 -0.7257  0.8961
   30CHL1   C17 3350   4.213   3.452   6.008  0.6905  0.2690  1.0556
   30CHL1   H17 3351   4.305   3.488   5.957 -0.5770  0.0107 -1.6319
   30CHL1   C13 3352   4.254   3.407   6.152 -0.6679 -0.5090  0.1960
   30CHL1   C18 3353   4.135   3.335   6.233  0.3011 -0.0106 -0.4926
   30CHL1  H18A 3354   4.050   3.407   6.224  0.0751 -0.4303 -1.9619
   30CHL1  H18B 3355   4.106   3.239   6.186 -0.3756 -0.4513  0.7665
   30CHL1  H18C 3356   4.164   3.314   6.338 -1.5248  1.7090  0.4340
   30CHL1   C12 3357   4.379   3.317   6.160  0.2206 -0.2728  0.9829
   30CHL1  H12A 3358   4.360   3.212   6.131  2.5613 -0.2367 -1.0103
   30CHL1  H12B 3359   4.458   3.364   6.097 -0.9406  0.1524 -0.1834
   30CHL1   C11 3360   4.437   3.307   6.304 -0.9113 -0.4920 -0.2704
   30CHL1  H11A 3361   4.371   3.243   6.366 -3.1271  2.1139  0.2597
   30CHL1  H11B 3362   4.534   3.254   6.297 -1.1256 -1.2664  1.9354
   30CHL1    C9 3363   4.445   3.445   6.385  0.0836  0.1156 -0.0123
   30CHL1    H9 3364   4.532   3.493   6.336  1.1072 -1.7929 -0.1584
   30CHL1   C10 3365   4.489   3.438   6.534 -0.9773 -0.0243 -0.0360
   30CHL1   C19 3366   4.393   3.356   6.628 -0.6953  0.1213  0.2658
   30CHL1  H19A 3367   4.292   3.402   6.626  0.0339  1.8832  1.1342
   30CHL1  H19B 3368   4.381   3.254   6.586  0.4990  0.9228 -2.1979
   30CHL1  H19C 3369   4.426   3.332   6.731  0.6088 -0.7538 -0.3332
   30CHL1    C1 3370   4.635   3.377   6.543  0.8015 -0.0989  0.4696
   30CHL1   H1A 3371   4.637   3.268   6.521  0.4013 -0.3247  1.4827
   30CHL1   H1B 3372   4.682   3.419   6.452 -2.3800  0.0441 -1.2417
   30CHL1    C2 3373   4.703   3.399   6.680 -0.2068 -0.0481  0.8149
   30CHL1   H2A 3374   4.805   3.356   6.673 -0.3225 -0.3355  0.8875
   30CHL1   H2B 3375   4.646   3.350   6.762 -1.1397  0.8287  0.7139
   30CHL1   C20 3376   4.140   3.346   5.924 -0.2973 -0.1572 -0.0004
   30CHL1   H20 3377   4.054   3.305   5.982  1.0307  0.4125  2.5045
   30CHL1   C21 3378   4.241   3.233   5.893 -0.6692  0.3566  0.3714
   30CHL1  H21A 3379   4.229   3.176   5.798  1.1751 -2.8425  1.8850
   30CHL1  H21B 3380   4.239   3.159   5.976  0.8053  0.3184  0.3955
   30CHL1  H21C 3381   4.343   3.276   5.891  0.2223 -1.6269 -1.9820
   30CHL1   C22 3382   4.083   3.411   5.795 -0.2981 -0.3477 -0.3298
   30CHL1  H22A 3383   4.028   3.327   5.748 -0.3908 -1.3791  1.5299
   30CHL1  H22B 3384   4.005   3.478   5.837  0.8519 -0.5996  2.4165
   30CHL1   C23 3385   4.184   3.488   5.704  0.4839  0.1507 -0.7323
   30CHL1  H23A 3386   4.220   3.570   5.770 -1.0544  0.0106  0.3186
   30CHL1  H23B 3387   4.267   3.421   5.674  1.2096 -0.8938  3.0798
   30CHL1   C24 3388   4.110   3.537   5.582  0.3236  0.0924  0.3228
   30CHL1  H24A 3389   4.060   3.445   5.544  0.5788 -0.0105  0.2327
   30CHL1  H24B 3390   4.042   3.620   5.612  0.9405  1.4200 -1.7034
   30CHL1   C25 3391   4.209   3.598   5.479  0.3009  0.2741 -0.5556
   30CHL1   H25 3392   4.286   3.520   5.460  0.9906  0.4953  1.1508
   30CHL1   C26 3393   4.129   3.630   5.356 -0.1310  0.0756 -0.1866
   30CHL1  H26A 3394   4.190   3.685   5.281 -1.1728  1.7430  0.1368
   30CHL1  H26B 3395   4.078   3.544   5.307  0.9444  0.1033 -1.4231
   30CHL1  H26C 3396   4.050   3.705   5.373  0.0938  0.7507 -1.9287
   30CHL1   C27 3397   4.298   3.711   5.528  0.6001  0.1822  0.1709
   30CHL1  H27A 3398   4.368   3.744   5.448  1.4848 -1.1575  0.3612
   30CHL1  H27B 3399   4.235   3.800   5.549 -0.1954 -0.3189 -0.0858
   30CHL1  H27C 3400   4.354   3.691   5.622  2.4651  0.1054 -0.9075
   31CHL1    C3 3401   3.068   5.149   6.945 -1.2684  1.2754 -0.4334
   31CHL1    H3 3402   3.175   5.177   6.944 -0.4356 -1.3666  1.8425
   31CHL1    O3 3403   3.022   5.159   7.080  0.3074  0.1981  0.4991
   31CHL1   H3' 3404   2.951   5.224   7.075 -3.0623 -3.2417 -1.2410
   31CHL1    C4 3405   2.986   5.238   6.853 -0.2629  0.3850 -0.1839
   31CHL1   H4A 3406   2.878   5.213   6.862  0.1277 -1.1365  0.4455
   31CHL1   H4B 3407   3.003   5.343   6.886 -0.5987 -0.5907  3.4929
   31CHL1    C5 3408   3.021   5.223   6.706 -0.4537 -0.3051 -0.1795
   31CHL1    C6 3409   3.048   5.332   6.628 -0.0873  0.0849 -0.1539
   31CHL1    H6 3410   3.047   5.437   6.661  1.0846  0.9572 -2.6229
   31CHL1    C7 3411   3.090   5.321   6.486 -0.8235  0.7118  0.7307
   31CHL1   H7A 3412   3.025   5.379   6.417 -2.3820 -2.1260 -0.3880
   31CHL1   H7B 3413   3.200   5.332   6.473 -0.8395  1.4050  1.1444
   31CHL1    C8 3414   3.044   5.179   6.424 -0.2975  0.2939  0.9329
   31CHL1    H8 3415   2.933   5.182   6.418 -0.3145 -1.2391 -0.0679
   31CHL1   C14 3416   3.110   5.159   6.286 -0.0419  0.2550 -0.0312
   31CHL1   H14 3417   3.217   5.156   6.315  0.2133  1.2006 -0.8244
   31CHL1   C15 3418   3.103   5.266   6.176 -0.0259 -0.3560  0.2770
   31CHL1  H15A 3419   3.006   5.320   6.180 -0.0479 -0.1934 -1.6380
   31CHL1  H15B 3420   3.183   5.343   6.185  0.7568 -1.1681  0.4232
   31CHL1   C16 3421   3.114   5.189   6.049 -0.6327  0.0397 -0.1400
   31CHL1  H16A 3422   3.020   5.193   5.990 -1.0471  1.2267  0.5503
   31CHL1  H16B 3423   3.200   5.226   5.988 -1.5396  1.2659 -0.7117
   31CHL1   C17 3424   3.146   5.037   6.091 -0.3122  0.5432  0.3596
   31CHL1   H17 3425   3.255   5.023   6.106 -0.4580  0.6010  1.5761
   31CHL1   C13 3426   3.075   5.023   6.228 -0.0823  0.3996  0.7129
   31CHL1   C18 3427   2.920   5.014   6.198  0.3956 -0.9335  0.4080
   31CHL1  H18A 3428   2.898   5.086   6.116 -1.7433  1.6055  2.9731
   31CHL1  H18B 3429   2.889   4.909   6.177  1.9573 -1.1132 -1.2436
   31CHL1  H18C 3430   2.863   5.063   6.280  1.5634  0.5730  0.3574
   31CHL1   C12 3431   3.124   4.904   6.302 -0.3510  0.1601  0.6893
   31CHL1  H12A 3432   3.098   4.809   6.250  3.7104 -0.1873 -1.0928
   31CHL1  H12B 3433   3.233   4.919   6.316 -0.7651  3.3680  1.2122
   31CHL1   C11 3434   3.071   4.915   6.447  0.9185  0.3478 -0.2101
   31CHL1  H11A 3435   2.963   4.893   6.435  1.0999  0.2445 -1.8677
   31CHL1  H11B 3436   3.114   4.831   6.506  0.3466 -0.2316 -0.6181
   31CHL1    C9 3437   3.082   5.060   6.515  0.3978  0.6687 -0.5625
   31CHL1    H9 3438   3.192   5.057   6.530  0.5185 -0.9165 -1.5524
   31CHL1   C10 3439   3.022   5.075   6.662 -0.2721 -0.5404 -0.1232
   31CHL1   C19 3440   2.882   5.012   6.658 -0.4370 -0.4214  0.3359
   31CHL1  H19A 3441   2.819   5.022   6.750 -1.6044  1.1242 -0.5866
   31CHL1  H19B 3442   2.820   5.060   6.579  1.8550 -0.8484 -1.8317
   31CHL1  H19C 3443   2.884   4.905   6.628 -1.7690  0.3600 -3.0340
   31CHL1    C1 3444   3.107   4.988   6.761  0.4924  0.4736 -0.2365
   31CHL1   H1A 3445   3.098   4.880   6.738 -0.9010  0.6746 -0.7256
   31CHL1   H1B 3446   3.214   5.016   6.757  0.4222  1.0398  1.3303
   31CHL1    C2 3447   3.057   5.000   6.902  0.6503 -0.2611  0.0838
   31CHL1   H2A 3448   3.121   4.930   6.961  0.5049 -0.6662 -0.2327
   31CHL1   H2B 3449   2.950   4.971   6.912  0.5068 -0.1737 -1.1213
   31CHL1   C20 3450   3.113   4.937   5.975 -0.0991  0.1841 -1.0506
   31CHL1   H20 3451   3.004   4.941   5.950 -0.9025  0.9970  2.1104
   31CHL1   C21 3452   3.149   4.789   6.009  0.3746  0.1823  0.4844
   31CHL1  H21A 3453   3.249   4.789   6.057  0.3824 -0.2611  0.4711
   31CHL1  H21B 3454   3.148   4.728   5.916 -0.9290 -1.0837  1.2785
   31CHL1  H21C 3455   3.077   4.738   6.076 -0.9708  0.0717 -0.9809
   31CHL1   C22 3456   3.178   4.993   5.846 -0.1072  0.5382 -0.0727
   31CHL1  H22A 3457   3.133   5.092   5.823 -0.5781  0.5603  0.8986
   31CHL1  H22B 3458   3.286   5.013   5.860  0.0234  1.0941 -1.6761
   31CHL1   C23 3459   3.151   4.912   5.716 -0.1439  0.2194  0.7346
   31CHL1  H23A 3460   3.188   4.807   5.728  0.2041 -0.1540 -2.6251
   31CHL1  H23B 3461   3.040   4.908   5.711 -0.2131  1.7946  0.6461
   31CHL1   C24 3462   3.217   4.984   5.597 -0.2457  0.1842  0.6868
   31CHL1  H24A 3463   3.208   5.094   5.608 -0.8818  0.3701 -1.3787
   31CHL1  H24B 3464   3.325   4.962   5.602 -0.3190 -1.2122 -2.1152
   31CHL1   C25 3465   3.177   4.934   5.454 -0.2661  0.5230 -0.7409
   31CHL1   H25 3466   3.069   4.956   5.458 -0.0860  1.2806  0.4543
   31CHL1   C26 3467   3.234   5.024   5.345  0.0351  0.3960  0.2748
   31CHL1  H26A 3468   3.191   5.126   5.357  1.9543  1.6067 -2.1324
   31CHL1  H26B 3469   3.345   5.035   5.343 -0.1168  2.3519  0.7619
   31CHL1  H26C 3470   3.207   4.982   5.246 -1.9581 -0.5841  1.1945
   31CHL1   C27 3471   3.207   4.782   5.427 -0.0543 -0.2685 -0.0459
   31CHL1  H27A 3472   3.158   4.712   5.498 -1.0711  0.5854  0.1326
   31CHL1  H27B 3473   3.165   4.747   5.330 -1.7547  0.7375  0.2679
   31CHL1  H27C 3474   3.316   4.768   5.418  0.1139 -0.7592  2.1572
   32CHL1    C3 3475   0.159   2.910   6.951 -0.1060 -0.4914 -0.1388
   32CHL1    H3 3476   0.218   2.824   6.913 -0.0377 -0.1105 -0.9033
   32CHL1    O3 3477   0.186   2.945   7.085  0.1013  0.3660 -0.1956
   32CHL1   H3' 3478   0.121   3.011   7.108  1.0306  0.9693  0.7757
   32CHL1    C4 3479   0.199   3.035   6.865 -0.0083 -0.2165 -0.2474
   32CHL1   H4A 3480   0.144   3.120   6.912 -0.3381 -0.8858  0.5979
   32CHL1   H4B 3481   0.305   3.062   6.883  0.6175 -2.6367  0.0166
   32CHL1    C5 3482   0.166   3.011   6.720 -0.8392 -0.0265  0.1961
   32CHL1    C6 3483   0.261   3.022   6.622 -0.1063  0.5023 -0.7376
   32CHL1    H6 3484   0.359   3.059   6.655 -0.2495  0.1328  0.1253
   32CHL1    C7 3485   0.243   3.000   6.476 -0.0928 -0.0918  0.0063
   32CHL1   H7A 3486   0.301   3.074   6.418  0.9099 -0.7992  0.0745
   32CHL1   H7B 3487   0.267   2.894   6.451  1.0409 -0.3679  2.0702
   32CHL1    C8 3488   0.097   3.005   6.440 -0.5982  0.2872 -0.1051
   32CHL1    H8 3489   0.062   3.110   6.443 -2.0013 -0.0927 -1.7264
   32CHL1   C14 3490   0.069   2.964   6.289 -0.1352 -0.2641 -0.0286
   32CHL1   H14 3491   0.126   2.870   6.273  0.1330 -0.0230 -0.5287
   32CHL1   C15 3492   0.124   3.059   6.183 -0.4362  0.4428  0.3406
   32CHL1  H15A 3493   0.088   3.162   6.207 -1.6628  0.2183 -0.4461
   32CHL1  H15B 3494   0.232   3.048   6.160 -1.1235  0.0702 -3.4366
   32CHL1   C16 3495   0.045   3.020   6.050  0.0376 -0.5423  0.8909
   32CHL1  H16A 3496   0.004   3.117   6.014 -0.8432 -0.4973  1.9442
   32CHL1  H16B 3497   0.116   2.976   5.977 -0.1735  0.3646  0.1187
   32CHL1   C17 3498  -0.063   2.915   6.099  0.0820 -0.6534 -0.0404
   32CHL1   H17 3499  -0.009   2.817   6.097 -1.5862 -1.6122  0.2746
   32CHL1   C13 3500  -0.076   2.948   6.250  0.8316 -0.2201  0.4167
   32CHL1   C18 3501  -0.161   3.080   6.245 -0.0295 -0.3318  0.2129
   32CHL1  H18A 3502  -0.147   3.150   6.160  0.2911 -0.6123  0.0302
   32CHL1  H18B 3503  -0.267   3.050   6.233  0.7326 -3.6255  0.7247
   32CHL1  H18C 3504  -0.144   3.147   6.331 -0.3592  0.3868 -0.2696
   32CHL1   C12 3505  -0.140   2.846   6.342 -0.0801  0.3544 -0.2589
   32CHL1  H12A 3506  -0.244   2.820   6.313  0.6177  0.3076 -3.0148
   32CHL1  H12B 3507  -0.088   2.748   6.333 -1.5649 -0.5144  0.3984
   32CHL1   C11 3508  -0.133   2.894   6.488  0.7367  0.3732  0.2566
   32CHL1  H11A 3509  -0.195   2.985   6.504  1.2054  0.5009  1.3869
   32CHL1  H11B 3510  -0.173   2.806   6.543 -1.2932  1.3411  0.4381
   32CHL1    C9 3511   0.015   2.924   6.532  0.6305  0.2427  0.9972
   32CHL1    H9 3512   0.058   2.822   6.532 -1.1983 -0.6585 -2.4119
   32CHL1   C10 3513   0.027   2.969   6.682  0.9919 -0.2631 -0.5032
   32CHL1   C19 3514  -0.066   3.087   6.706  0.0182  0.3003  0.0924
   32CHL1  H19A 3515  -0.048   3.173   6.637  3.1741 -1.3450 -1.3579
   32CHL1  H19B 3516  -0.170   3.051   6.718 -0.0112  1.1454  3.5467
   32CHL1  H19C 3517  -0.047   3.138   6.803 -1.3574  0.8813  0.0814
   32CHL1    C1 3518  -0.016   2.851   6.788 -0.0390  0.0409  0.1717
   32CHL1   H1A 3519  -0.126   2.838   6.778 -0.1435  1.0531 -0.0991
   32CHL1   H1B 3520   0.040   2.764   6.747  3.4216  1.9747  0.3551
   32CHL1    C2 3521   0.011   2.888   6.932  0.6489 -1.2436 -0.5659
   32CHL1   H2A 3522  -0.014   2.799   6.993  0.2656 -0.6133  0.2131
   32CHL1   H2B 3523  -0.048   2.980   6.951 -1.0715 -2.6708  1.5020
   32CHL1   C20 3524  -0.191   2.897   6.017  0.4428  0.0464 -0.9271
   32CHL1   H20 3525  -0.274   2.963   6.049 -1.8055 -2.7019 -0.7403
   32CHL1   C21 3526  -0.247   2.748   6.033 -0.6488 -0.1886  0.6698
   32CHL1  H21A 3527  -0.215   2.701   6.129  2.2851 -2.9551 -1.4704
   32CHL1  H21B 3528  -0.204   2.688   5.950 -1.6939 -0.3120  0.1983
   32CHL1  H21C 3529  -0.357   2.753   6.017 -0.5013  2.5317  0.0003
   32CHL1   C22 3530  -0.167   2.933   5.867 -0.1893  0.1175 -0.5160
   32CHL1  H22A 3531  -0.141   3.041   5.864  1.6425  0.0746  4.3816
   32CHL1  H22B 3532  -0.071   2.883   5.842 -0.6117 -0.4939 -0.9478
   32CHL1   C23 3533  -0.280   2.904   5.762 -0.0864  0.2816  0.3402
   32CHL1  H23A 3534  -0.309   2.797   5.756 -1.1940  0.5983 -0.3302
   32CHL1  H23B 3535  -0.371   2.956   5.800 -1.4136 -0.4903 -1.6331
   32CHL1   C24 3536  -0.258   2.961   5.619  0.0054 -0.0860 -0.0046
   32CHL1  H24A 3537  -0.233   3.067   5.642  0.0452  0.1387 -1.0719
   32CHL1  H24B 3538  -0.172   2.910   5.571  1.2591 -1.1892  3.1399
   32CHL1   C25 3539  -0.390   2.960   5.540 -0.1947 -0.3837  0.5944
   32CHL1   H25 3540  -0.455   3.032   5.595  1.7928 -0.0525  2.6580
   32CHL1   C26 3541  -0.361   3.008   5.393 -0.2387 -0.1281  1.1334
   32CHL1  H26A 3542  -0.285   2.949   5.338  0.3538  0.5251  1.2404
   32CHL1  H26B 3543  -0.455   2.997   5.335 -0.6261  0.1865  1.6891
   32CHL1  H26C 3544  -0.340   3.117   5.389 -2.5157  0.3556  0.5104
   32CHL1   C27 3545  -0.450   2.819   5.539 -0.5682 -0.3908 -0.0847
   32CHL1  H27A 3546  -0.474   2.796   5.645  2.1594  1.2698  0.9918
   32CHL1  H27B 3547  -0.547   2.823   5.485 -0.4500 -1.3429 -0.3784
   32CHL1  H27C 3548  -0.392   2.739   5.488 -0.3441 -0.5151  0.3624
   33CHL1    C3 3549   3.442   2.618   6.953 -0.0655  0.4580 -0.3531
   33CHL1    H3 3550   3.428   2.508   6.954 -0.7323  0.5344 -0.6062
   33CHL1    O3 3551   3.442   2.657   7.087 -0.5746  0.3893  0.8594
   33CHL1   H3' 3552   3.461   2.751   7.076  1.4347 -0.1999 -1.4948
   33CHL1    C4 3553   3.576   2.659   6.880  1.3591 -0.0462  0.1498
   33CHL1   H4A 3554   3.578   2.770   6.884 -0.3146  0.0352 -0.3646
   33CHL1   H4B 3555   3.662   2.614   6.933  1.0188 -1.2258 -0.2750
   33CHL1    C5 3556   3.572   2.607   6.736  0.1965  0.1729  0.2019
   33CHL1    C6 3557   3.669   2.524   6.686 -0.3155 -0.4579  0.4731
   33CHL1    H6 3558   3.757   2.493   6.744 -0.1044  2.1923  1.7369
   33CHL1    C7 3559   3.669   2.468   6.546 -0.8206 -0.0915 -0.4924
   33CHL1   H7A 3560   3.767   2.496   6.501  1.5282 -0.7361  3.6785
   33CHL1   H7B 3561   3.635   2.363   6.555 -0.0294 -0.2568  1.0898
   33CHL1    C8 3562   3.573   2.547   6.454  0.2156  0.0482 -0.0860
   33CHL1    H8 3563   3.619   2.647   6.439 -0.3591  0.4213  0.5454
   33CHL1   C14 3564   3.558   2.468   6.317 -0.0947 -0.1994  0.3492
   33CHL1   H14 3565   3.517   2.368   6.342 -1.8884  0.3781 -0.1650
   33CHL1   C15 3566   3.673   2.425   6.227 -0.5276  0.3568  0.4557
   33CHL1  H15A 3567   3.740   2.512   6.209  0.8168 -0.5063  1.1623
   33CHL1  H15B 3568   3.736   2.344   6.268  0.3561 -0.1109 -1.7209
   33CHL1   C16 3569   3.609   2.371   6.098 -0.4407 -0.2827  0.7133
   33CHL1  H16A 3570   3.663   2.400   6.005 -0.2477  0.2997  1.0071
   33CHL1  H16B 3571   3.615   2.260   6.105  3.6288 -0.1113  2.2796
   33CHL1   C17 3572   3.463   2.429   6.092  0.5589  0.6259 -0.0062
   33CHL1   H17 3573   3.396   2.342   6.113 -1.0986  1.4521 -1.6851
   33CHL1   C13 3574   3.461   2.530   6.215  0.8954 -0.0389  0.2854
   33CHL1   C18 3575   3.499   2.672   6.174 -0.0330  0.9417  0.3058
   33CHL1  H18A 3576   3.538   2.721   6.266 -4.7245  0.6943  2.6938
   33CHL1  H18B 3577   3.589   2.677   6.110  0.8794  1.9603  1.5944
   33CHL1  H18C 3578   3.414   2.728   6.129 -2.4253 -2.8040 -0.2144
   33CHL1   C12 3579   3.325   2.544   6.291  0.3784 -0.2396 -0.0397
   33CHL1  H12A 3580   3.240   2.588   6.234 -0.6430 -1.9597  0.0938
   33CHL1  H12B 3581   3.288   2.443   6.319 -0.8678 -0.0693 -1.0102
   33CHL1   C11 3582   3.335   2.634   6.414 -0.1803  0.7557 -0.2303
   33CHL1  H11A 3583   3.359   2.738   6.385  0.7687  0.3899 -0.8158
   33CHL1  H11B 3584   3.236   2.647   6.462 -1.1034  2.8069 -2.5149
   33CHL1    C9 3585   3.431   2.573   6.517 -0.0511  0.1834  0.1710
   33CHL1    H9 3586   3.392   2.472   6.542  0.0918  0.1179  0.1313
   33CHL1   C10 3587   3.447   2.647   6.650 -0.0369 -0.2104  0.1709
   33CHL1   C19 3588   3.474   2.794   6.626 -0.1994 -0.3013 -0.0951
   33CHL1  H19A 3589   3.561   2.809   6.559  1.2931  1.2380  2.0527
   33CHL1  H19B 3590   3.385   2.836   6.574  1.2850  1.3781 -1.4108
   33CHL1  H19C 3591   3.476   2.862   6.714 -0.6142  0.0839 -0.3759
   33CHL1    C1 3592   3.319   2.625   6.730  0.8063 -0.3302 -0.3001
   33CHL1   H1A 3593   3.236   2.682   6.684  0.6008  0.7080  1.2667
   33CHL1   H1B 3594   3.298   2.517   6.718  0.6972 -0.0822 -2.8365
   33CHL1    C2 3595   3.320   2.674   6.877  0.2341 -0.7957  0.1834
   33CHL1   H2A 3596   3.226   2.653   6.931 -0.0107 -0.0092  0.0654
   33CHL1   H2B 3597   3.334   2.783   6.887  1.7120 -0.9572  0.1162
   33CHL1   C20 3598   3.411   2.476   5.955  0.2728  0.0606 -0.1353
   33CHL1   H20 3599   3.478   2.559   5.924  1.1718 -1.2409 -1.8690
   33CHL1   C21 3600   3.267   2.526   5.947  0.1044 -0.4541 -0.1311
   33CHL1  H21A 3601   3.203   2.437   5.962  0.0174 -0.3327  0.2347
   33CHL1  H21B 3602   3.248   2.569   5.846 -3.2354  2.2946  1.4457
   33CHL1  H21C 3603   3.241   2.603   6.023 -1.4364  1.7621 -2.6941
   33CHL1   C22 3604   3.428   2.364   5.844  0.3168  0.0401 -0.6347
   33CHL1  H22A 3605   3.526   2.314   5.862 -0.4061 -0.6036  1.7888
   33CHL1  H22B 3606   3.345   2.294   5.864 -1.2627  2.0511  0.1942
   33CHL1   C23 3607   3.429   2.406   5.697  0.3803 -0.2355  0.2923
   33CHL1  H23A 3608   3.431   2.322   5.625  0.8119 -0.3281  0.4100
   33CHL1  H23B 3609   3.343   2.468   5.665 -0.6061 -0.6145  2.0784
   33CHL1   C24 3610   3.559   2.484   5.664  0.1597 -0.0178  0.1622
   33CHL1  H24A 3611   3.558   2.572   5.732  2.8825  0.1803  0.0518
   33CHL1  H24B 3612   3.651   2.424   5.680 -1.1206 -2.5202 -1.2545
   33CHL1   C25 3613   3.563   2.526   5.513 -0.1108 -0.1294  0.4893
   33CHL1   H25 3614   3.524   2.445   5.448 -2.4672  1.4272 -0.1769
   33CHL1   C26 3615   3.470   2.646   5.480 -0.2133 -0.0231 -1.0497
   33CHL1  H26A 3616   3.365   2.626   5.509  0.3577 -1.8220 -0.0979
   33CHL1  H26B 3617   3.502   2.742   5.527  0.4063 -0.1101 -1.2815
   33CHL1  H26C 3618   3.469   2.672   5.372 -0.7719  3.7913 -0.2921
   33CHL1   C27 3619   3.702   2.561   5.475 -1.2138 -0.1783  0.2462
   33CHL1  H27A 3620   3.740   2.636   5.548 -0.0706 -0.7959  0.3023
   33CHL1  H27B 3621   3.760   2.467   5.484 -1.3218 -0.2811 -0.1219
   33CHL1  H27C 3622   3.723   2.601   5.373 -1.2238  0.5245  0.5161
   34CHL1    C3 3623   4.448   5.628   7.093 -0.3044  0.6197 -0.3885
   34CHL1    H3 3624   4.405   5.729   7.074  0.6611  1.0227 -0.4851
   34CHL1    O3 3625   4.424   5.593   7.227  0.2488 -0.0326 -0.0668
   34CHL1   H3' 3626   4.488   5.525   7.250 -0.4373 -1.1025 -1.1946
   34CHL1    C4 3627   4.373   5.525   6.999  0.4926 -0.6052 -0.1832
   34CHL1   H4A 3628   4.374   5.427   7.051  1.0497  0.3963  1.8064
   34CHL1   H4B 3629   4.269   5.563   6.995  0.4306 -0.6620  0.7807
   34CHL1    C5 3630   4.420   5.525   6.854  0.2488  0.1765 -0.0546
   34CHL1    C6 3631   4.326   5.541   6.760 -0.4789 -0.3821 -0.2822
   34CHL1    H6 3632   4.223   5.555   6.796 -0.4230  2.8024 -1.0669
   34CHL1    C7 3633   4.353   5.532   6.611 -0.2030 -0.6320 -0.1276
   34CHL1   H7A 3634   4.287   5.455   6.566  1.4096 -0.6399 -2.6179
   34CHL1   H7B 3635   4.329   5.630   6.563 -0.2022 -0.7523 -0.3725
   34CHL1    C8 3636   4.495   5.489   6.584 -0.0032 -0.6705  0.2348
   34CHL1    H8 3637   4.501   5.378   6.588  0.5746 -0.6148  1.5210
   34CHL1   C14 3638   4.536   5.540   6.443  0.5691  0.2948 -0.8081
   34CHL1   H14 3639   4.539   5.651   6.456  1.3245  0.3487 -1.3434
   34CHL1   C15 3640   4.429   5.508   6.331  0.3457 -0.3204 -0.7543
   34CHL1  H15A 3641   4.413   5.399   6.347 -1.3564  0.0562  0.3456
   34CHL1  H15B 3642   4.333   5.563   6.329  1.6012  1.9384 -1.6913
   34CHL1   C16 3643   4.518   5.534   6.208  0.3590 -0.1485 -0.2311
   34CHL1  H16A 3644   4.516   5.437   6.154 -3.4568 -0.1406 -0.3602
   34CHL1  H16B 3645   4.463   5.608   6.145 -0.0478 -0.2120  0.0502
   34CHL1   C17 3646   4.662   5.570   6.253 -0.4089  0.3041  0.2244
   34CHL1   H17 3647   4.670   5.680   6.264 -1.5720  0.8530 -3.3217
   34CHL1   C13 3648   4.675   5.508   6.393  0.1255  0.3602 -0.1086
   34CHL1   C18 3649   4.697   5.356   6.379 -0.2462 -0.2037 -0.1149
   34CHL1  H18A 3650   4.682   5.312   6.479  2.8460 -0.7281  0.2306
   34CHL1  H18B 3651   4.622   5.315   6.307 -0.8962 -3.3215  2.1431
   34CHL1  H18C 3652   4.796   5.326   6.340 -0.5555 -0.6236 -0.5868
   34CHL1   C12 3653   4.768   5.577   6.492 -0.6418  0.5585  0.4036
   34CHL1  H12A 3654   4.871   5.550   6.460 -1.4123 -0.3823 -1.4588
   34CHL1  H12B 3655   4.749   5.687   6.490  0.4301  0.7759  0.9947
   34CHL1   C11 3656   4.740   5.538   6.639 -0.3878  0.5080 -0.1344
   34CHL1  H11A 3657   4.773   5.432   6.645 -0.1068  0.3265 -3.0552
   34CHL1  H11B 3658   4.790   5.608   6.709 -3.5078 -0.3718  3.2335
   34CHL1    C9 3659   4.592   5.553   6.682 -0.5721 -0.1115  0.5966
   34CHL1    H9 3660   4.566   5.661   6.673  1.0498  0.1868 -1.1452
   34CHL1   C10 3661   4.570   5.520   6.827 -0.1397  0.8466 -0.5961
   34CHL1   C19 3662   4.621   5.379   6.858 -0.2402 -0.2750  0.2333
   34CHL1  H19A 3663   4.731   5.392   6.865 -0.1320 -0.3710 -1.0605
   34CHL1  H19B 3664   4.577   5.327   6.945 -0.9434  0.9974  0.6696
   34CHL1  H19C 3665   4.603   5.315   6.768  0.8298 -1.0373  0.5448
   34CHL1    C1 3666   4.645   5.618   6.922  0.5307  0.3701  0.4202
   34CHL1   H1A 3667   4.755   5.610   6.926  0.5506  0.7514  3.7684
   34CHL1   H1B 3668   4.643   5.723   6.885  1.5015 -0.3158 -1.7450
   34CHL1    C2 3669   4.606   5.621   7.066  0.9802  1.5761  0.0202
   34CHL1   H2A 3670   4.650   5.703   7.126 -0.4529  0.8230  2.2199
   34CHL1   H2B 3671   4.635   5.524   7.111  1.4910  2.4562  1.6734
   34CHL1   C20 3672   4.764   5.544   6.141  1.1850  0.1240 -0.1624
   34CHL1   H20 3673   4.766   5.434   6.127  2.6215 -0.1494  1.8514
   34CHL1   C21 3674   4.905   5.593   6.170 -0.2700 -0.3964 -0.0510
   34CHL1  H21A 3675   4.945   5.559   6.268  0.6231 -1.4495 -0.7465
   34CHL1  H21B 3676   4.928   5.701   6.154 -0.8758 -0.4057 -1.1026
   34CHL1  H21C 3677   4.972   5.553   6.089  1.1531  2.1034 -0.2112
   34CHL1   C22 3678   4.716   5.593   6.003  0.6921  0.2545 -0.0010
   34CHL1  H22A 3679   4.635   5.532   5.956  1.3919 -0.6634 -0.0368
   34CHL1  H22B 3680   4.681   5.696   6.026 -0.1944 -0.2752  1.1120
   34CHL1   C23 3681   4.826   5.602   5.898 -0.4222 -0.2849  0.1272
   34CHL1  H23A 3682   4.902   5.675   5.933 -0.4038  0.1859 -0.8716
   34CHL1  H23B 3683   4.871   5.502   5.878 -0.9965 -1.8611  5.3106
   34CHL1   C24 3684   4.771   5.651   5.758 -0.2922  0.5900 -0.4359
   34CHL1  H24A 3685   4.696   5.578   5.721  0.1322 -0.0800  0.0026
   34CHL1  H24B 3686   4.733   5.754   5.770  2.9541  1.8425  0.1179
   34CHL1   C25 3687   4.882   5.668   5.653 -0.0269  0.5013  0.4158
   34CHL1   H25 3688   4.960   5.735   5.695 -0.2196  1.3283 -0.5085
   34CHL1   C26 3689   4.955   5.537   5.601 -0.1747  0.3145 -0.0183
   34CHL1  H26A 3690   5.025   5.557   5.518 -3.0418  1.8356 -2.2649
   34CHL1  H26B 3691   5.006   5.486   5.686 -0.9480 -1.5614 -0.6224
   34CHL1  H26C 3692   4.878   5.464   5.569 -0.7191  0.4698  0.8782
   34CHL1   C27 3693   4.829   5.747   5.532 -0.6373  0.3814  0.2673
   34CHL1  H27A 3694   4.913   5.773   5.463 -0.6474  0.8987  0.4442
   34CHL1  H27B 3695   4.764   5.680   5.472 -0.7058  0.6558  0.0322
   34CHL1  H27C 3696   4.774   5.842   5.552  1.7790  2.3622 -1.7027
   35CHL1    C3 3697   0.079   5.270   6.894  0.6160  0.0222 -0.0307
   35CHL1    H3 3698  -0.029   5.246   6.884  0.4213  0.6575  0.5267
   35CHL1    O3 3699   0.106   5.275   7.031  0.8711 -0.1530 -0.1839
   35CHL1   H3' 3700   0.075   5.357   7.069 -0.0449 -0.9991  0.9415
   35CHL1    C4 3701   0.165   5.176   6.814 -0.9985  0.3917  0.3786
   35CHL1   H4A 3702   0.266   5.213   6.843 -0.3770 -1.4531  0.7271
   35CHL1   H4B 3703   0.164   5.077   6.864  2.9808  1.1294  2.3745
   35CHL1    C5 3704   0.135   5.181   6.665  0.2400  1.0098  0.7154
   35CHL1    C6 3705   0.097   5.069   6.596  0.0681  0.1287 -0.1176
   35CHL1    H6 3706   0.094   4.971   6.646 -1.4489 -0.2187 -0.7967
   35CHL1    C7 3707   0.060   5.068   6.454 -0.3808 -0.2208  0.2529
   35CHL1   H7A 3708   0.101   4.977   6.404 -0.3633  0.3696 -0.8437
   35CHL1   H7B 3709  -0.050   5.059   6.446 -0.3723 -0.4133  0.3529
   35CHL1    C8 3710   0.110   5.188   6.375  0.0950 -0.2180 -0.9006
   35CHL1    H8 3711   0.217   5.167   6.352  0.1920 -0.9204  0.1321
   35CHL1   C14 3712   0.032   5.194   6.248 -0.0915 -0.8275 -0.7380
   35CHL1   H14 3713  -0.075   5.210   6.275  0.4506 -0.2331  1.2329
   35CHL1   C15 3714   0.030   5.071   6.165 -0.3439 -0.1088 -0.6572
   35CHL1  H15A 3715   0.128   5.020   6.181 -0.1143  0.3946 -0.4241
   35CHL1  H15B 3716  -0.052   5.005   6.200 -0.5205  0.7404  0.6057
   35CHL1   C16 3717   0.014   5.124   6.018 -0.1245 -0.4402  0.5276
   35CHL1  H16A 3718   0.101   5.093   5.957 -1.2951  0.6080 -1.8045
   35CHL1  H16B 3719  -0.063   5.080   5.952  0.3140 -0.1931 -0.1616
   35CHL1   C17 3720  -0.003   5.278   6.034 -0.0901 -0.6642 -0.3524
   35CHL1   H17 3721  -0.112   5.280   6.056 -0.2463 -3.7235 -0.3842
   35CHL1   C13 3722   0.079   5.313   6.156 -0.3964 -0.8603  0.1906
   35CHL1   C18 3723   0.234   5.303   6.114  0.0883 -0.0895  0.0004
   35CHL1  H18A 3724   0.304   5.337   6.193 -0.0044  0.0189  0.0366
   35CHL1  H18B 3725   0.253   5.199   6.082 -1.9802 -0.9671  1.3463
   35CHL1  H18C 3726   0.255   5.366   6.026 -0.9574  2.2525  1.3267
   35CHL1   C12 3727   0.035   5.435   6.232  0.1641 -0.4397  0.5281
   35CHL1  H12A 3728   0.083   5.519   6.178 -0.9961  0.7935  1.3587
   35CHL1  H12B 3729  -0.071   5.468   6.230  0.7735  1.6097 -0.3342
   35CHL1   C11 3730   0.098   5.440   6.368  0.2543 -0.7955  0.8099
   35CHL1  H11A 3731   0.208   5.448   6.353  0.5168 -1.8520  2.0387
   35CHL1  H11B 3732   0.060   5.535   6.412 -0.6638  0.0685 -1.6492
   35CHL1    C9 3733   0.077   5.316   6.450 -0.0387 -0.3640 -0.6104
   35CHL1    H9 3734  -0.034   5.310   6.463 -0.0055  0.8056  0.4926
   35CHL1   C10 3735   0.136   5.317   6.600 -0.4345 -0.0848  0.1218
   35CHL1   C19 3736   0.276   5.370   6.582 -0.3639 -0.1404 -0.0228
   35CHL1  H19A 3737   0.333   5.359   6.677 -0.9094  0.6625  0.4044
   35CHL1  H19B 3738   0.322   5.316   6.496 -0.0444  1.3179 -0.8044
   35CHL1  H19C 3739   0.277   5.480   6.566  1.9796 -0.1898 -0.5206
   35CHL1    C1 3740   0.060   5.414   6.700  0.7519 -0.2259 -0.0216
   35CHL1   H1A 3741   0.064   5.513   6.648 -3.3460  0.3680  0.4627
   35CHL1   H1B 3742  -0.047   5.387   6.696  1.5053 -4.0827  1.8618
   35CHL1    C2 3743   0.098   5.415   6.847  0.2411 -0.6661 -0.1435
   35CHL1   H2A 3744   0.027   5.477   6.906  3.0379  0.3651  2.4068
   35CHL1   H2B 3745   0.197   5.463   6.864  0.1050  0.5100 -2.3420
   35CHL1   C20 3746   0.020   5.359   5.906  0.2824 -0.1433 -0.0847
   35CHL1   H20 3747   0.121   5.341   5.862  1.2156  0.2658  1.7466
   35CHL1   C21 3748   0.002   5.513   5.937  0.0710 -0.6818 -0.1746
   35CHL1  H21A 3749  -0.008   5.565   5.840  2.8991  1.3969  0.5335
   35CHL1  H21B 3750   0.096   5.544   5.986  0.6064  0.4176 -1.8113
   35CHL1  H21C 3751  -0.096   5.529   5.988 -0.7899  1.0479 -2.2407
   35CHL1   C22 3752  -0.075   5.315   5.794 -0.4799 -0.1287 -0.6572
   35CHL1  H22A 3753  -0.173   5.287   5.838 -1.5795  0.9095 -2.3612
   35CHL1  H22B 3754  -0.095   5.396   5.720  2.4406 -0.6480 -2.1484
   35CHL1   C23 3755  -0.013   5.217   5.697  0.6326 -0.0304 -0.1010
   35CHL1  H23A 3756   0.083   5.256   5.659  0.7547  0.0496  0.2786
   35CHL1  H23B 3757   0.004   5.121   5.751 -0.7122  1.0864  2.5150
   35CHL1   C24 3758  -0.102   5.209   5.570  0.3813 -0.2925 -0.4702
   35CHL1  H24A 3759  -0.201   5.173   5.605  0.3272 -1.7871 -2.0617
   35CHL1  H24B 3760  -0.107   5.310   5.522  0.5887  0.2942  0.7013
   35CHL1   C25 3761  -0.045   5.130   5.453 -0.1896 -0.4385  0.5803
   35CHL1   H25 3762   0.057   5.171   5.435  0.8529 -2.7033  0.8503
   35CHL1   C26 3763  -0.034   4.982   5.483 -0.1968  0.4052  0.0908
   35CHL1  H26A 3764  -0.135   4.938   5.472 -0.4634  1.3258 -1.3631
   35CHL1  H26B 3765   0.029   4.926   5.410 -3.4146  1.5319 -3.8779
   35CHL1  H26C 3766  -0.000   4.960   5.587 -1.0214 -3.1305 -0.2742
   35CHL1   C27 3767  -0.123   5.152   5.323 -0.1841 -0.4727 -0.6978
   35CHL1  H27A 3768  -0.136   5.260   5.303  2.3660  0.1118  0.4332
   35CHL1  H27B 3769  -0.068   5.098   5.242 -2.2539 -1.2175 -1.6842
   35CHL1  H27C 3770  -0.226   5.113   5.337  0.0945 -0.8480  0.4220
   36CHL1    C3 3771   1.461   3.989   6.988  0.1186  0.2708 -0.4226
   36CHL1    H3 3772   1.530   4.072   6.963  0.4638 -0.1787 -0.9906
   36CHL1    O3 3773   1.456   3.967   7.129  0.5200  0.1012 -0.0714
   36CHL1   H3' 3774   1.547   3.953   7.156  0.5506  0.7050  0.1478
   36CHL1    C4 3775   1.330   4.033   6.921 -0.4946 -0.5209 -0.0411
   36CHL1   H4A 3776   1.243   3.966   6.937 -1.6403  0.6350 -1.0957
   36CHL1   H4B 3777   1.309   4.126   6.979 -0.1192  0.2697 -1.1344
   36CHL1    C5 3778   1.342   4.060   6.772 -0.5518  0.2824 -0.4745
   36CHL1    C6 3779   1.322   4.182   6.725 -0.6109  0.2250 -0.4062
   36CHL1    H6 3780   1.284   4.261   6.791 -1.5553  0.8510 -1.6311
   36CHL1    C7 3781   1.335   4.216   6.579  0.6661 -0.3351 -0.2598
   36CHL1   H7A 3782   1.247   4.272   6.541 -1.1925 -1.6274  1.9258
   36CHL1   H7B 3783   1.422   4.282   6.560 -0.6379  1.5262 -0.0583
   36CHL1    C8 3784   1.334   4.084   6.497 -0.1423 -0.1108  0.5785
   36CHL1    H8 3785   1.236   4.033   6.506 -0.2685  0.0173 -0.0410
   36CHL1   C14 3786   1.368   4.109   6.345  0.2546 -0.0968 -0.2017
   36CHL1   H14 3787   1.462   4.166   6.362 -0.7599  1.1907  1.4106
   36CHL1   C15 3788   1.286   4.219   6.275  0.0706  0.2832 -0.0726
   36CHL1  H15A 3789   1.180   4.191   6.292  0.1780  0.6493  1.2785
   36CHL1  H15B 3790   1.300   4.323   6.312 -0.7241  0.3023  0.1848
   36CHL1   C16 3791   1.328   4.201   6.130 -0.1991 -0.2789 -0.9794
   36CHL1  H16A 3792   1.243   4.182   6.061 -0.0906 -0.5892 -1.0276
   36CHL1  H16B 3793   1.379   4.292   6.090  3.0103 -0.6943  1.7983
   36CHL1   C17 3794   1.430   4.082   6.123 -0.2805  0.1877 -0.1142
   36CHL1   H17 3795   1.524   4.130   6.160 -1.1947  1.1434  1.0483
   36CHL1   C13 3796   1.389   3.991   6.248  0.4660 -0.2028  0.7114
   36CHL1   C18 3797   1.262   3.910   6.213 -0.0813 -0.5536  0.3132
   36CHL1  H18A 3798   1.198   3.981   6.156 -2.1830 -3.3403 -1.0952
   36CHL1  H18B 3799   1.284   3.833   6.135 -1.6246  1.1088 -1.9015
   36CHL1  H18C 3800   1.211   3.865   6.300  0.4524 -2.3968 -0.2799
   36CHL1   C12 3801   1.501   3.908   6.310 -0.2274  0.9740  0.2509
   36CHL1  H12A 3802   1.523   3.821   6.244 -0.3266  0.8907  0.3284
   36CHL1  H12B 3803   1.592   3.972   6.306 -0.0892  0.7341 -0.7584
   36CHL1   C11 3804   1.477   3.867   6.451 -0.0046  0.1848 -0.4072
   36CHL1  H11A 3805   1.382   3.808   6.451 -1.0811  1.7504  1.9417
   36CHL1  H11B 3806   1.560   3.810   6.498 -0.7421  0.2018  0.9823
   36CHL1    C9 3807   1.437   3.983   6.550  0.3522  0.1399 -0.0729
   36CHL1    H9 3808   1.538   4.029   6.563  1.1730 -2.1256  2.3531
   36CHL1   C10 3809   1.392   3.939   6.696 -0.1746 -0.2556  0.9522
   36CHL1   C19 3810   1.276   3.836   6.688 -0.3044  0.2182  0.1294
   36CHL1  H19A 3811   1.238   3.811   6.789  0.9085  0.9262  0.7749
   36CHL1  H19B 3812   1.189   3.870   6.628  0.5639  2.0146 -0.1805
   36CHL1  H19C 3813   1.320   3.745   6.643  1.6486  1.0683  0.2194
   36CHL1    C1 3814   1.516   3.877   6.770 -0.6298 -1.0524  0.0831
   36CHL1   H1A 3815   1.527   3.775   6.727 -0.8743 -1.5292  1.1186
   36CHL1   H1B 3816   1.601   3.943   6.744 -1.5037  0.3877  0.7708
   36CHL1    C2 3817   1.506   3.860   6.923  0.5467  0.1196  0.8379
   36CHL1   H2A 3818   1.604   3.828   6.963 -0.6001 -1.7620  2.3104
   36CHL1   H2B 3819   1.431   3.778   6.935  1.1988 -0.5155  0.6447
   36CHL1   C20 3820   1.447   4.019   5.990 -0.0630  0.0615 -0.2079
   36CHL1   H20 3821   1.369   3.949   5.952  1.1958 -0.1543 -2.5188
   36CHL1   C21 3822   1.574   3.932   6.000 -0.4315  0.7817  0.9335
   36CHL1  H21A 3823   1.546   3.831   6.036 -0.2501  0.4090  0.0638
   36CHL1  H21B 3824   1.657   3.970   6.063 -0.5873  0.1145  1.5620
   36CHL1  H21C 3825   1.617   3.924   5.898 -3.3670  1.1765 -0.4458
   36CHL1   C22 3826   1.458   4.122   5.872 -0.1554  0.2981  0.2386
   36CHL1  H22A 3827   1.365   4.183   5.880  0.4244  1.3369 -0.6222
   36CHL1  H22B 3828   1.544   4.192   5.880 -0.7048  1.5417 -3.0877
   36CHL1   C23 3829   1.463   4.062   5.731  0.2255 -0.1729  0.6794
   36CHL1  H23A 3830   1.554   4.000   5.720  0.5403  0.4736 -0.5360
   36CHL1  H23B 3831   1.377   3.994   5.718 -0.4605  0.6480  0.7870
   36CHL1   C24 3832   1.451   4.170   5.614  0.2064 -0.0753 -0.2091
   36CHL1  H24A 3833   1.384   4.114   5.546 -0.1987 -0.6069  0.6213
   36CHL1  H24B 3834   1.386   4.258   5.633 -0.7299 -0.9381  0.6971
   36CHL1   C25 3835   1.583   4.216   5.555 -0.0024  0.0124 -1.0402
   36CHL1   H25 3836   1.649   4.248   5.638 -1.9854 -0.1611  0.6890
   36CHL1   C26 3837   1.648   4.103   5.480 -0.3948  0.0035  0.2852
   36CHL1  H26A 3838   1.743   4.129   5.429  0.2864  1.3836  2.1583
   36CHL1  H26B 3839   1.673   4.017   5.547 -0.0317  0.0733  0.2413
   36CHL1  H26C 3840   1.593   4.069   5.390  1.5731 -0.6550 -0.7191
   36CHL1   C27 3841   1.559   4.349   5.467 -0.5179 -0.1365  0.0061
   36CHL1  H27A 3842   1.646   4.379   5.404 -0.2196 -0.2867  0.3386
   36CHL1  H27B 3843   1.469   4.336   5.404  0.6873 -0.4190 -1.7472
   36CHL1  H27C 3844   1.541   4.423   5.547  0.6449 -0.7206  0.8537
   37CHL1    C3 3845   6.601   1.409   6.892 -0.3990  0.8669  0.0753
   37CHL1    H3 3846   6.522   1.471   6.845 -0.6030 -1.2136 -2.5245
   37CHL1    O3 3847   6.592   1.443   7.032  0.3616 -0.6931 -0.3477
   37CHL1   H3' 3848   6.668   1.400   7.073  0.2513  0.0670  0.6970
   37CHL1    C4 3849   6.579   1.264   6.860  0.1301 -0.5635  0.1678
   37CHL1   H4A 3850   6.649   1.199   6.917 -0.3594 -0.6589  0.6699
   37CHL1   H4B 3851   6.475   1.235   6.886 -0.9767  2.0635 -0.9575
   37CHL1    C5 3852   6.603   1.236   6.715  0.3849  0.0204 -0.1865
   37CHL1    C6 3853   6.507   1.178   6.639 -0.0577 -0.0944  0.9254
   37CHL1    H6 3854   6.416   1.153   6.694 -1.1459  0.7592 -0.4088
   37CHL1    C7 3855   6.517   1.143   6.494  0.2623  0.0641  0.2679
   37CHL1   H7A 3856   6.484   1.041   6.462 -1.1411  0.0505  1.6151
   37CHL1   H7B 3857   6.462   1.216   6.432  0.1842 -0.6061 -0.4698
   37CHL1    C8 3858   6.664   1.159   6.440 -0.6918 -0.2126 -0.3981
   37CHL1    H8 3859   6.711   1.065   6.479 -2.2464 -1.5582 -1.6064
   37CHL1   C14 3860   6.666   1.169   6.288  0.4031 -0.0909  0.3871
   37CHL1   H14 3861   6.618   1.268   6.273  0.9171  0.0226 -0.5978
   37CHL1   C15 3862   6.591   1.067   6.199 -0.0185  0.0882 -0.2663
   37CHL1  H15A 3863   6.616   0.964   6.232 -1.1008 -0.0340  0.2396
   37CHL1  H15B 3864   6.480   1.066   6.213 -0.3442 -2.3922 -2.4620
   37CHL1   C16 3865   6.643   1.101   6.063 -0.1200  0.6281  0.7431
   37CHL1  H16A 3866   6.676   1.004   6.019 -2.3971  0.1349 -0.0309
   37CHL1  H16B 3867   6.570   1.150   5.995  1.2950  1.4952 -0.2011
   37CHL1   C17 3868   6.773   1.187   6.076 -0.7583  0.2581 -0.0503
   37CHL1   H17 3869   6.734   1.287   6.049 -2.8745 -0.8807 -1.4622
   37CHL1   C13 3870   6.800   1.184   6.222  1.2256  0.2730 -0.3413
   37CHL1   C18 3871   6.881   1.056   6.248 -0.7205 -0.1624  0.9088
   37CHL1  H18A 3872   6.898   1.028   6.354 -1.7019 -0.8892  0.8899
   37CHL1  H18B 3873   6.841   0.968   6.193  0.3907 -0.3995  0.4598
   37CHL1  H18C 3874   6.982   1.072   6.206 -1.0096  0.2982  0.3621
   37CHL1   C12 3875   6.872   1.304   6.283  0.6775  0.0679 -0.1191
   37CHL1  H12A 3876   6.976   1.301   6.242 -0.1436 -2.0875 -2.3099
   37CHL1  H12B 3877   6.821   1.398   6.253 -1.8585 -0.0517  3.3388
   37CHL1   C11 3878   6.877   1.297   6.442  0.0452 -0.4673 -0.1305
   37CHL1  H11A 3879   6.946   1.212   6.459  1.2335  0.5865  0.4178
   37CHL1  H11B 3880   6.919   1.386   6.493  0.4482 -0.2315 -0.8721
   37CHL1    C9 3881   6.738   1.279   6.502  0.0911  0.1712  0.4468
   37CHL1    H9 3882   6.668   1.357   6.464  2.0776  1.9181  0.1479
   37CHL1   C10 3883   6.737   1.280   6.658 -0.0061 -0.6893  0.0476
   37CHL1   C19 3884   6.851   1.189   6.713  0.1199  0.6254  0.3539
   37CHL1  H19A 3885   6.850   1.165   6.821 -1.6820 -1.8353 -0.1116
   37CHL1  H19B 3886   6.851   1.091   6.660 -2.3192  1.2991 -1.0839
   37CHL1  H19C 3887   6.951   1.235   6.699  1.3951 -0.3251  4.8014
   37CHL1    C1 3888   6.771   1.427   6.708  0.0308  0.1255  0.0335
   37CHL1   H1A 3889   6.881   1.442   6.700  0.0559  0.5972  1.1498
   37CHL1   H1B 3890   6.705   1.491   6.646 -2.0457 -2.5525 -0.6992
   37CHL1    C2 3891   6.745   1.455   6.856 -0.4669 -0.5230 -0.2019
   37CHL1   H2A 3892   6.757   1.566   6.860  0.4096 -0.6473  1.6615
   37CHL1   H2B 3893   6.820   1.395   6.912  0.2965 -0.1185 -0.7759
   37CHL1   C20 3894   6.882   1.158   5.968 -0.0113 -0.8665  1.2217
   37CHL1   H20 3895   6.923   1.054   5.973  1.9463 -0.2489 -0.5293
   37CHL1   C21 3896   6.994   1.270   5.980 -0.5342  0.0694  0.2343
   37CHL1  H21A 3897   6.946   1.368   6.001 -1.0629 -0.0774 -0.2400
   37CHL1  H21B 3898   7.058   1.277   5.889 -1.9108  2.2541 -0.6522
   37CHL1  H21C 3899   7.056   1.245   6.068  0.0062  2.3483  0.5722
   37CHL1   C22 3900   6.820   1.157   5.824 -0.2917 -0.3518  0.4438
   37CHL1  H22A 3901   6.730   1.092   5.819  2.0384 -3.7634 -0.9786
   37CHL1  H22B 3902   6.792   1.264   5.809 -0.8409 -0.5879 -0.2947
   37CHL1   C23 3903   6.906   1.104   5.702  0.4783 -0.0424 -0.5303
   37CHL1  H23A 3904   7.007   1.144   5.722  1.5685 -3.0511  0.5372
   37CHL1  H23B 3905   6.911   0.993   5.708 -2.2675 -0.7268 -5.3110
   37CHL1   C24 3906   6.852   1.153   5.567  0.3440  0.1028 -0.7184
   37CHL1  H24A 3907   6.748   1.114   5.561  0.5492 -0.4931 -0.4765
   37CHL1  H24B 3908   6.842   1.264   5.564  0.2864  0.1166 -0.0834
   37CHL1   C25 3909   6.943   1.098   5.456  0.0432 -0.6674 -0.1882
   37CHL1   H25 3910   7.047   1.123   5.485  0.4865 -2.2788 -0.2905
   37CHL1   C26 3911   6.934   0.950   5.441  0.4110 -0.3396  1.1123
   37CHL1  H26A 3912   6.832   0.924   5.404  1.5109 -0.3091 -2.2235
   37CHL1  H26B 3913   7.004   0.910   5.365  1.1483 -0.4362  1.8222
   37CHL1  H26C 3914   6.942   0.885   5.531  0.0462  0.3500  1.6546
   37CHL1   C27 3915   6.914   1.165   5.316 -0.0199 -0.3597 -0.2416
   37CHL1  H27A 3916   6.927   1.275   5.326  0.3305 -0.5543  1.7997
   37CHL1  H27B 3917   6.979   1.123   5.235 -1.5455 -1.2638 -1.0406
   37CHL1  H27C 3918   6.809   1.148   5.286 -1.7258  1.3181  4.0223
   38CHL1    C3 3919   5.101   1.037   6.880  0.1054 -0.9253 -0.1859
   38CHL1    H3 3920   5.167   1.123   6.904  0.4730 -1.0385 -0.7551
   38CHL1    O3 3921   5.040   0.982   6.996 -0.6603  0.2348  0.0998
   38CHL1   H3' 3922   5.113   0.941   7.042 -0.2346  2.4697  1.5589
   38CHL1    C4 3923   4.983   1.082   6.788 -0.1024 -0.1604 -0.1413
   38CHL1   H4A 3924   4.915   0.995   6.782 -2.3028  1.3257  1.7474
   38CHL1   H4B 3925   4.926   1.157   6.846 -0.8518 -1.1367  0.4160
   38CHL1    C5 3926   5.043   1.126   6.653  0.6835  0.0973  0.4950
   38CHL1    C6 3927   5.021   1.252   6.617  0.1431  0.2399  0.4599
   38CHL1    H6 3928   4.961   1.311   6.688  0.1276  1.4983 -0.5500
   38CHL1    C7 3929   5.077   1.311   6.492 -0.3515  0.3374 -0.0134
   38CHL1   H7A 3930   5.006   1.379   6.439 -0.0754  1.3328  0.8657
   38CHL1   H7B 3931   5.153   1.390   6.510 -0.6956  1.0574 -1.5176
   38CHL1    C8 3932   5.131   1.201   6.395  0.4717  0.4683 -0.3237
   38CHL1    H8 3933   5.042   1.146   6.360  0.1464  1.3224 -0.8795
   38CHL1   C14 3934   5.194   1.249   6.270  0.2941  0.1987 -0.8245
   38CHL1   H14 3935   5.283   1.308   6.300  0.4248 -1.1083  1.5333
   38CHL1   C15 3936   5.109   1.344   6.181  0.1201 -0.1135 -0.0746
   38CHL1  H15A 3937   5.011   1.292   6.182  1.3285 -2.5456 -0.4555
   38CHL1  H15B 3938   5.100   1.444   6.229 -0.3098 -0.2828  0.2039
   38CHL1   C16 3939   5.181   1.338   6.045  0.5535 -0.3341 -0.4752
   38CHL1  H16A 3940   5.103   1.330   5.967  0.7518  0.0773 -0.7182
   38CHL1  H16B 3941   5.220   1.442   6.047 -0.9408  0.2496 -0.3317
   38CHL1   C17 3942   5.291   1.232   6.051  0.2175 -0.2126  0.2608
   38CHL1   H17 3943   5.384   1.280   6.087 -0.1686 -0.1821  1.2436
   38CHL1   C13 3944   5.245   1.147   6.174  0.1405  0.2989  0.5944
   38CHL1   C18 3945   5.127   1.052   6.127 -0.9509 -0.4609 -0.3889
   38CHL1  H18A 3946   5.052   1.106   6.067  0.0989  3.4019  1.4754
   38CHL1  H18B 3947   5.163   0.967   6.065  2.0809  1.2658 -1.1857
   38CHL1  H18C 3948   5.073   1.002   6.211  0.1424 -0.5383  0.3005
   38CHL1   C12 3949   5.345   1.061   6.248  0.6368 -1.5437 -0.3405
   38CHL1  H12A 3950   5.399   0.986   6.187  0.4906 -2.6391  0.8437
   38CHL1  H12B 3951   5.416   1.139   6.284 -0.0223 -1.6099  1.1469
   38CHL1   C11 3952   5.279   0.995   6.365  0.3940  0.6961 -0.2830
   38CHL1  H11A 3953   5.198   0.927   6.330  0.0006  0.4627  1.0112
   38CHL1  H11B 3954   5.351   0.932   6.422 -1.6311 -0.8838  0.6535
   38CHL1    C9 3955   5.211   1.092   6.469  0.9456 -0.3711 -0.1102
   38CHL1    H9 3956   5.291   1.152   6.516 -0.7861  1.7769  0.2580
   38CHL1   C10 3957   5.136   1.023   6.584  0.1271 -0.9964 -0.2481
   38CHL1   C19 3958   5.039   0.920   6.527 -0.6624  0.0242  0.5990
   38CHL1  H19A 3959   4.963   0.957   6.454 -1.4316  0.2156  1.4666
   38CHL1  H19B 3960   5.096   0.836   6.482 -2.7107 -2.3138  2.0669
   38CHL1  H19C 3961   4.988   0.870   6.612 -1.3233  0.1794  0.2999
   38CHL1    C1 3962   5.239   0.971   6.685  0.0132 -0.3541  0.6045
   38CHL1   H1A 3963   5.291   0.889   6.630 -2.0383 -1.7511  0.6230
   38CHL1   H1B 3964   5.318   1.044   6.713 -0.4618  1.0822 -1.5382
   38CHL1    C2 3965   5.179   0.923   6.817 -0.2396  0.2978  0.5484
   38CHL1   H2A 3966   5.255   0.893   6.892 -1.7263 -1.7393  1.3144
   38CHL1   H2B 3967   5.115   0.834   6.803 -1.7428  1.1030  1.9134
   38CHL1   C20 3968   5.316   1.168   5.917  0.2472  0.5109  0.5067
   38CHL1   H20 3969   5.218   1.128   5.882 -0.1304 -0.8205  2.8930
   38CHL1   C21 3970   5.427   1.064   5.933 -0.8234  0.8426 -0.3113
   38CHL1  H21A 3971   5.498   1.108   6.007  1.5649 -2.2637 -0.5735
   38CHL1  H21B 3972   5.477   1.031   5.840  0.8158  1.0182  0.4687
   38CHL1  H21C 3973   5.392   0.972   5.985  1.8458 -0.4561 -0.6233
   38CHL1   C22 3974   5.349   1.267   5.799 -0.6044  0.3705  0.0305
   38CHL1  H22A 3975   5.255   1.324   5.784 -0.4423  0.6865  0.2362
   38CHL1  H22B 3976   5.428   1.337   5.833 -2.5635  1.7276  2.0253
   38CHL1   C23 3977   5.395   1.185   5.667 -0.2396 -0.1980  0.1768
   38CHL1  H23A 3978   5.500   1.153   5.685  1.1381  3.1915 -0.9956
   38CHL1  H23B 3979   5.336   1.093   5.647  2.2738 -1.7792 -0.3800
   38CHL1   C24 3980   5.409   1.273   5.539  0.8027  0.3160  0.0650
   38CHL1  H24A 3981   5.308   1.315   5.521  0.5023  0.5255  2.0518
   38CHL1  H24B 3982   5.475   1.354   5.578 -0.9373  1.5173  0.6698
   38CHL1   C25 3983   5.468   1.198   5.420 -0.3409 -0.7713  0.4263
   38CHL1   H25 3984   5.424   1.098   5.439 -3.1959  0.2129 -0.4641
   38CHL1   C26 3985   5.417   1.263   5.285  0.1217 -0.5127 -0.2225
   38CHL1  H26A 3986   5.308   1.281   5.293  0.3818  1.8014 -1.0786
   38CHL1  H26B 3987   5.470   1.361   5.280 -1.6245  0.7180  2.9115
   38CHL1  H26C 3988   5.438   1.203   5.194  4.9486  1.3067 -0.5848
   38CHL1   C27 3989   5.616   1.205   5.409 -0.3694 -0.2353 -0.0591
   38CHL1  H27A 3990   5.653   1.190   5.306  2.8632  2.8137  0.4609
   38CHL1  H27B 3991   5.651   1.305   5.444 -3.3972  0.2099  2.1543
   38CHL1  H27C 3992   5.668   1.124   5.464  2.6203  0.9659 -0.9629
   39CHL1    C3 3993   0.221   1.907   6.765  0.3381  0.5735 -0.1975
   39CHL1    H3 3994   0.116   1.869   6.757  0.6648 -0.2372 -0.7789
   39CHL1    O3 3995   0.263   1.910   6.900  0.3654 -0.4826 -0.4603
   39CHL1   H3' 3996   0.176   1.929   6.936  0.4144 -0.5562 -0.3021
   39CHL1    C4 3997   0.308   1.812   6.690 -0.1193 -0.0223 -0.3213
   39CHL1   H4A 3998   0.416   1.830   6.707 -0.2686 -0.8805  1.8572
   39CHL1   H4B 3999   0.287   1.715   6.740 -0.8484  1.0214  1.4877
   39CHL1    C5 4000   0.289   1.807   6.541  0.2857 -0.1930 -0.0298
   39CHL1    C6 4001   0.274   1.690   6.469 -0.1245 -1.0481 -0.4264
   39CHL1    H6 4002   0.271   1.594   6.522 -3.6595 -0.3167  0.9816
   39CHL1    C7 4003   0.251   1.690   6.325 -0.0232  0.5011  0.1057
   39CHL1   H7A 4004   0.310   1.605   6.287 -1.5501 -1.6915  2.3040
   39CHL1   H7B 4005   0.148   1.655   6.301 -0.9337  1.0777  2.7471
   39CHL1    C8 4006   0.286   1.819   6.253  0.3500  0.5745 -0.0893
   39CHL1    H8 4007   0.397   1.815   6.251  0.3779  0.7395  0.8862
   39CHL1   C14 4008   0.224   1.818   6.109 -0.5569 -0.3157  0.1310
   39CHL1   H14 4009   0.119   1.842   6.137 -0.2710  2.0481 -0.6171
   39CHL1   C15 4010   0.232   1.697   6.023 -0.3629 -0.0693 -0.3167
   39CHL1  H15A 4011   0.334   1.653   6.028 -0.6145 -0.5995  0.4087
   39CHL1  H15B 4012   0.163   1.614   6.051 -1.3387  0.8814  0.1266
   39CHL1   C16 4013   0.211   1.747   5.872  0.1413  0.1122  0.0050
   39CHL1  H16A 4014   0.298   1.715   5.810 -0.2992  0.1280 -0.6300
   39CHL1  H16B 4015   0.114   1.714   5.830 -0.1133  1.0529 -0.1772
   39CHL1   C17 4016   0.204   1.905   5.881  0.5718  0.3431  0.2404
   39CHL1   H17 4017   0.095   1.925   5.884  0.1120 -1.7109 -0.5838
   39CHL1   C13 4018   0.274   1.937   6.015  0.3629  1.3136  0.0286
   39CHL1   C18 4019   0.423   1.925   5.990  0.1316  0.1683  0.1719
   39CHL1  H18A 4020   0.444   2.027   5.952  0.5068  0.6189  1.5172
   39CHL1  H18B 4021   0.484   1.907   6.081  0.3799  0.4983  0.0717
   39CHL1  H18C 4022   0.453   1.846   5.918 -1.0185  0.7317 -0.9603
   39CHL1   C12 4023   0.222   2.059   6.089 -0.0312  1.0507 -0.4960
   39CHL1  H12A 4024   0.257   2.151   6.037  0.2943  1.8349  1.0470
   39CHL1  H12B 4025   0.112   2.052   6.080 -0.1518  0.5957  1.1009
   39CHL1   C11 4026   0.254   2.067   6.238 -0.0290 -0.9228  0.4317
   39CHL1  H11A 4027   0.353   2.118   6.245 -0.2850 -0.2658 -0.5179
   39CHL1  H11B 4028   0.187   2.146   6.277 -0.0728 -1.2713  1.0738
   39CHL1    C9 4029   0.232   1.939   6.321  0.2445  1.1138 -0.2773
   39CHL1    H9 4030   0.121   1.933   6.320  0.3196 -1.3444 -0.2521
   39CHL1   C10 4031   0.279   1.947   6.472  0.4495 -0.8770  0.7071
   39CHL1   C19 4032   0.412   2.011   6.472 -0.4325 -0.0867 -0.1898
   39CHL1  H19A 4033   0.416   2.121   6.477  2.1574 -0.1614  2.5188
   39CHL1  H19B 4034   0.477   1.976   6.556 -0.7374  2.0961  1.0210
   39CHL1  H19C 4035   0.468   1.980   6.381 -0.7546 -1.4128  0.0315
   39CHL1    C1 4036   0.180   2.038   6.558  0.4970  0.0735 -0.0718
   39CHL1   H1A 4037   0.174   2.140   6.514 -0.6229  0.1758  0.2926
   39CHL1   H1B 4038   0.083   1.985   6.552  0.9316 -0.9604  1.4708
   39CHL1    C2 4039   0.222   2.044   6.705  0.0911  0.3987 -0.2058
   39CHL1   H2A 4040   0.153   2.114   6.756 -3.3866 -2.1012 -1.1075
   39CHL1   H2B 4041   0.320   2.094   6.724 -0.5477  1.5624  0.0895
   39CHL1   C20 4042   0.255   1.972   5.752  0.5073  0.3986  0.6096
   39CHL1   H20 4043   0.365   1.961   5.736  0.5537  1.1013  0.4135
   39CHL1   C21 4044   0.228   2.129   5.758  0.0056  0.3798 -0.5321
   39CHL1  H21A 4045   0.290   2.177   5.837 -0.4832 -2.2719  1.6112
   39CHL1  H21B 4046   0.120   2.151   5.775  0.2925  1.5520 -0.0869
   39CHL1  H21C 4047   0.257   2.180   5.664  1.1317  0.0912 -0.3613
   39CHL1   C22 4048   0.197   1.909   5.619  0.2653 -0.8459 -0.9561
   39CHL1  H22A 4049   0.229   1.804   5.604  0.2601 -1.0302  0.2249
   39CHL1  H22B 4050   0.086   1.918   5.623  0.3804  0.5670 -0.3897
   39CHL1   C23 4051   0.229   1.987   5.491  0.1232 -0.1704 -0.8496
   39CHL1  H23A 4052   0.200   2.093   5.505 -0.5951 -0.3469 -0.9867
   39CHL1  H23B 4053   0.335   1.973   5.461  0.0954  0.4616 -1.2506
   39CHL1   C24 4054   0.151   1.923   5.376 -0.2312  0.1374  0.2415
   39CHL1  H24A 4055   0.191   1.822   5.350 -2.2093 -0.2549 -1.5954
   39CHL1  H24B 4056   0.042   1.920   5.398 -0.2908  2.1599  0.3748
   39CHL1   C25 4057   0.159   1.998   5.243 -0.8617 -0.0175 -0.4093
   39CHL1   H25 4058   0.268   1.994   5.221 -1.0843 -1.5091 -1.3756
   39CHL1   C26 4059   0.075   1.935   5.129  0.7616  0.0149  0.0025
   39CHL1  H26A 4060  -0.032   1.965   5.130  0.8555  0.5160 -1.8247
   39CHL1  H26B 4061   0.111   1.960   5.027 -1.7208  0.4373 -0.8590
   39CHL1  H26C 4062   0.077   1.825   5.141  1.8401 -0.0800 -0.9339
   39CHL1   C27 4063   0.127   2.151   5.254  0.3963 -0.2716  0.2200
   39CHL1  H27A 4064   0.199   2.210   5.316 -0.1203  1.6584 -0.9258
   39CHL1  H27B 4065   0.127   2.187   5.149 -0.9194 -0.4092  0.1479
   39CHL1  H27C 4066   0.026   2.157   5.301  1.2445  0.5426  2.0540
   40CHL1    C3 4067   5.634   5.158   7.099  0.1518 -0.6341 -0.5774
   40CHL1    H3 4068   5.597   5.057   7.070 -0.0332 -0.7177 -0.0665
   40CHL1    O3 4069   5.628   5.148   7.243  0.5843 -0.2003  0.0610
   40CHL1   H3' 4070   5.657   5.058   7.261 -0.2884 -0.9712 -2.0897
   40CHL1    C4 4071   5.777   5.192   7.055 -0.6253 -0.1200  0.5715
   40CHL1   H4A 4072   5.807   5.297   7.078  0.4839 -0.8646  2.8143
   40CHL1   H4B 4073   5.858   5.132   7.101  2.9050  2.5370 -1.6413
   40CHL1    C5 4074   5.793   5.171   6.907  0.3319 -0.1757  0.5249
   40CHL1    C6 4075   5.879   5.089   6.846  0.0983  0.0485  0.0426
   40CHL1    H6 4076   5.957   5.043   6.908 -1.2918  1.6172  3.1280
   40CHL1    C7 4077   5.889   5.064   6.696  0.8598 -0.2494 -0.6794
   40CHL1   H7A 4078   5.988   5.079   6.649  0.5654  1.4163 -0.8341
   40CHL1   H7B 4079   5.857   4.960   6.675 -0.6412  0.0957 -0.2429
   40CHL1    C8 4080   5.797   5.173   6.614 -0.1982 -0.1816  0.5197
   40CHL1    H8 4081   5.863   5.261   6.599 -1.5263  0.8765  0.7387
   40CHL1   C14 4082   5.775   5.119   6.470 -0.2704  0.6270  0.7119
   40CHL1   H14 4083   5.713   5.028   6.485 -0.9749  0.7135 -1.2844
   40CHL1   C15 4084   5.901   5.068   6.398 -0.0212 -0.1361  1.1569
   40CHL1  H15A 4085   5.990   5.134   6.396  0.1805 -0.4131 -0.9073
   40CHL1  H15B 4086   5.928   4.970   6.443 -0.5500 -0.2822  1.1701
   40CHL1   C16 4087   5.842   5.045   6.254 -0.2024  0.3820 -0.5408
   40CHL1  H16A 4088   5.925   5.068   6.183 -0.1962 -0.9034 -0.9800
   40CHL1  H16B 4089   5.815   4.939   6.234  0.0348  0.0220  0.9861
   40CHL1   C17 4090   5.715   5.122   6.247  0.5916 -0.9189 -0.3446
   40CHL1   H17 4091   5.625   5.057   6.256 -0.0500  0.1737  1.9585
   40CHL1   C13 4092   5.711   5.216   6.373  0.0942 -0.0234  0.6386
   40CHL1   C18 4093   5.805   5.335   6.345 -0.3401 -0.6763  0.1696
   40CHL1  H18A 4094   5.817   5.403   6.431  3.0343  0.4248 -1.0100
   40CHL1  H18B 4095   5.907   5.312   6.307 -1.5163 -0.5396 -3.4821
   40CHL1  H18C 4096   5.757   5.405   6.273  1.2921 -1.8377 -2.1988
   40CHL1   C12 4097   5.573   5.257   6.435 -0.5761 -0.6626 -0.4330
   40CHL1  H12A 4098   5.523   5.322   6.360  0.8786  1.1609  0.1140
   40CHL1  H12B 4099   5.508   5.168   6.447 -2.2951  0.7760  1.5439
   40CHL1   C11 4100   5.595   5.305   6.581 -0.2053  0.0276  0.2615
   40CHL1  H11A 4101   5.653   5.399   6.572 -0.6722  0.1786 -1.5996
   40CHL1  H11B 4102   5.496   5.333   6.622 -0.7163  0.3192 -1.0952
   40CHL1    C9 4103   5.669   5.208   6.678  0.3540 -0.1223 -0.2372
   40CHL1    H9 4104   5.611   5.113   6.682  1.4142 -0.7638  2.4655
   40CHL1   C10 4105   5.674   5.254   6.829 -1.2836 -1.0679 -0.2964
   40CHL1   C19 4106   5.718   5.403   6.824  0.2957 -0.3678 -0.4184
   40CHL1  H19A 4107   5.807   5.411   6.757  1.2573 -1.1670  0.7183
   40CHL1  H19B 4108   5.646   5.472   6.776 -0.7163 -0.8445  0.3826
   40CHL1  H19C 4109   5.748   5.446   6.922 -0.8795 -1.1380  0.2896
   40CHL1    C1 4110   5.530   5.243   6.887 -0.2195  0.4236 -0.4818
   40CHL1   H1A 4111   5.461   5.316   6.839  1.8809  1.0860 -2.6392
   40CHL1   H1B 4112   5.484   5.145   6.863 -0.2467 -0.4775  2.7941
   40CHL1    C2 4113   5.526   5.254   7.039  0.5492 -0.2065  0.5491
   40CHL1   H2A 4114   5.425   5.240   7.084 -0.2100 -1.1612 -1.3807
   40CHL1   H2B 4115   5.559   5.357   7.065  4.1830 -1.1516  0.1881
   40CHL1   C20 4116   5.692   5.191   6.105  0.3108  0.5341 -0.3047
   40CHL1   H20 4117   5.776   5.263   6.094  1.3390 -0.2753  1.7117
   40CHL1   C21 4118   5.553   5.261   6.097  0.1933  0.1807 -0.3362
   40CHL1  H21A 4119   5.525   5.271   5.990  0.3969 -0.7938 -0.4964
   40CHL1  H21B 4120   5.550   5.359   6.149 -0.6062  0.0966 -0.2016
   40CHL1  H21C 4121   5.479   5.195   6.148 -0.7206 -1.3071 -3.3299
   40CHL1   C22 4122   5.702   5.087   5.991 -0.3249 -0.1168 -0.2645
   40CHL1  H22A 4123   5.802   5.051   6.021  0.1435  0.3957 -1.1717
   40CHL1  H22B 4124   5.622   5.012   6.011  1.5112 -1.8025  1.1880
   40CHL1   C23 4125   5.716   5.147   5.851  0.0221 -0.3106 -0.0728
   40CHL1  H23A 4126   5.621   5.190   5.813 -1.0941 -1.3275  1.4325
   40CHL1  H23B 4127   5.788   5.232   5.852 -2.4392  1.8934 -0.6185
   40CHL1   C24 4128   5.760   5.045   5.735  0.7299 -0.2191 -0.8710
   40CHL1  H24A 4129   5.862   5.007   5.755  0.3135 -1.6928 -1.4164
   40CHL1  H24B 4130   5.684   4.964   5.748  2.9510 -2.3701 -0.5553
   40CHL1   C25 4131   5.746   5.097   5.589 -0.2900  0.9722 -0.2712
   40CHL1   H25 4132   5.827   5.173   5.576  2.0412 -1.5926 -1.6429
   40CHL1   C26 4133   5.769   4.987   5.488  0.1126  0.4616 -0.3171
   40CHL1  H26A 4134   5.869   4.939   5.495  0.5603  1.2565 -1.0706
   40CHL1  H26B 4135   5.687   4.913   5.501 -1.2382  1.4823 -2.4347
   40CHL1  H26C 4136   5.744   5.023   5.386 -1.1621  2.9763  0.7861
   40CHL1   C27 4137   5.616   5.171   5.556 -0.4584 -0.1333  0.1096
   40CHL1  H27A 4138   5.527   5.105   5.563 -0.5163  0.1353  4.9845
   40CHL1  H27B 4139   5.602   5.256   5.625 -1.3554  1.2723 -1.7115
   40CHL1  H27C 4140   5.632   5.224   5.459  1.1471 -0.3555  0.2208
   41CHL1    C3 4141   2.929   4.729   7.260  0.2125  0.0578  0.8827
   41CHL1    H3 4142   2.948   4.833   7.229 -0.5298 -1.0099 -4.0309
   41CHL1    O3 4143   2.913   4.718   7.398 -0.4191 -0.6266  0.5446
   41CHL1   H3' 4144   2.866   4.635   7.406  1.9143 -2.0612  0.2000
   41CHL1    C4 4145   2.793   4.679   7.193 -0.0810  0.3059  0.6300
   41CHL1   H4A 4146   2.771   4.579   7.237  1.7435 -0.2160  0.4322
   41CHL1   H4B 4147   2.711   4.750   7.214  0.3553  0.5652  1.4813
   41CHL1    C5 4148   2.800   4.656   7.042 -0.5497  0.8172 -0.4932
   41CHL1    C6 4149   2.718   4.717   6.958  0.0530 -0.1260 -0.2241
   41CHL1    H6 4150   2.640   4.786   6.993  1.1791  1.0515  0.0242
   41CHL1    C7 4151   2.731   4.700   6.812 -0.1524  0.9759  0.3359
   41CHL1   H7A 4152   2.634   4.701   6.758 -0.0038 -4.0027 -0.4929
   41CHL1   H7B 4153   2.783   4.789   6.771  0.4042 -0.2925 -1.8599
   41CHL1    C8 4154   2.819   4.583   6.759  0.1774  0.3717  0.1400
   41CHL1    H8 4155   2.762   4.488   6.767  1.0504 -0.1476  0.2534
   41CHL1   C14 4156   2.852   4.587   6.616 -0.4492 -0.1737 -0.2060
   41CHL1   H14 4157   2.905   4.681   6.591  2.3263 -1.7682 -0.6943
   41CHL1   C15 4158   2.727   4.586   6.522 -0.8506  0.2470 -0.9014
   41CHL1  H15A 4159   2.658   4.507   6.560  0.1718 -0.3676 -0.2909
   41CHL1  H15B 4160   2.664   4.677   6.532 -0.3328  0.4210  1.3246
   41CHL1   C16 4161   2.794   4.551   6.393 -0.1766 -0.3992  0.0097
   41CHL1  H16A 4162   2.750   4.460   6.346  0.6516 -1.3465  1.0100
   41CHL1  H16B 4163   2.792   4.636   6.322 -0.2293 -0.0423  0.4275
   41CHL1   C17 4164   2.944   4.518   6.420 -0.5617 -0.2238  0.0401
   41CHL1   H17 4165   2.994   4.614   6.397 -1.6211 -0.5212 -4.2054
   41CHL1   C13 4166   2.942   4.480   6.563 -0.2502  0.5995 -0.3501
   41CHL1   C18 4167   2.881   4.337   6.571  0.0343 -0.2435  0.4143
   41CHL1  H18A 4168   2.776   4.344   6.536  0.1409  0.0733  0.1535
   41CHL1  H18B 4169   2.929   4.255   6.514  0.4820  0.8394 -0.8325
   41CHL1  H18C 4170   2.880   4.303   6.677  0.5485  0.1745  0.5592
   41CHL1   C12 4171   3.075   4.486   6.641  0.0361 -0.1329  0.4173
   41CHL1  H12A 4172   3.147   4.410   6.605  2.5557  1.5532  1.5702
   41CHL1  H12B 4173   3.135   4.577   6.620  2.5854 -1.4055  1.6589
   41CHL1   C11 4174   3.051   4.477   6.785 -0.1678  0.8048  0.1672
   41CHL1  H11A 4175   3.017   4.373   6.801 -1.4348  1.2289  0.2903
   41CHL1  H11B 4176   3.144   4.471   6.846 -0.5484  0.5185  0.7356
   41CHL1    C9 4177   2.949   4.580   6.837  0.3376  0.0728  0.4496
   41CHL1    H9 4178   2.996   4.680   6.826  0.9086 -0.3357 -1.0176
   41CHL1   C10 4179   2.928   4.574   6.996 -0.4659 -0.0638 -0.1206
   41CHL1   C19 4180   2.904   4.430   7.040 -0.2332  0.5749  0.4355
   41CHL1  H19A 4181   2.826   4.375   6.982 -1.1513  0.6364  1.5713
   41CHL1  H19B 4182   2.990   4.361   7.051 -1.0215 -0.1750  2.5321
   41CHL1  H19C 4183   2.869   4.420   7.145  1.3075 -0.8769  0.8459
   41CHL1    C1 4184   3.050   4.635   7.058  0.4382 -0.1304 -0.3682
   41CHL1   H1A 4185   3.141   4.580   7.025 -0.7615 -1.4379 -1.6445
   41CHL1   H1B 4186   3.060   4.739   7.021  2.5509 -0.1855 -0.0541
   41CHL1    C2 4187   3.044   4.643   7.218 -0.4886  0.7232  0.3647
   41CHL1   H2A 4188   3.133   4.684   7.270  0.2905  0.0360 -0.4087
   41CHL1   H2B 4189   3.022   4.541   7.258  0.2691  0.5465  0.3378
   41CHL1   C20 4190   3.014   4.424   6.316 -0.3715  0.9319  0.3506
   41CHL1   H20 4191   3.000   4.317   6.341 -0.1467  1.2743  2.0989
   41CHL1   C21 4192   3.167   4.450   6.326 -0.2456 -0.6897 -0.2428
   41CHL1  H21A 4193   3.218   4.373   6.264 -0.4581 -0.9601 -0.0889
   41CHL1  H21B 4194   3.209   4.452   6.429 -0.8592  0.4031 -0.0035
   41CHL1  H21C 4195   3.190   4.550   6.285 -1.7006 -0.0365  0.4760
   41CHL1   C22 4196   2.953   4.424   6.169  0.6364 -0.1512  0.0419
   41CHL1  H22A 4197   2.868   4.353   6.161 -1.0470  1.6559  0.9827
   41CHL1  H22B 4198   2.914   4.527   6.155  0.8313  0.4610  3.1396
   41CHL1   C23 4199   3.049   4.392   6.053  0.0393  0.0811 -0.3782
   41CHL1  H23A 4200   3.121   4.477   6.048 -1.1726  1.2005  0.5382
   41CHL1  H23B 4201   3.110   4.303   6.082 -0.5109 -0.4925 -0.9662
   41CHL1   C24 4202   2.981   4.358   5.919  0.6019  0.0889  1.2328
   41CHL1  H24A 4203   2.903   4.281   5.936 -0.0687  0.8061  1.4560
   41CHL1  H24B 4204   2.924   4.442   5.873 -0.1301 -0.4807  1.0750
   41CHL1   C25 4205   3.079   4.307   5.813  0.0285  0.4573  0.4219
   41CHL1   H25 4206   3.121   4.216   5.861 -0.5039  0.1144  0.2461
   41CHL1   C26 4207   3.009   4.254   5.686 -0.0109  0.3216 -0.1953
   41CHL1  H26A 4208   2.921   4.192   5.713 -2.4269  2.9118 -1.5849
   41CHL1  H26B 4209   2.957   4.338   5.635 -0.1009 -0.0317 -0.6905
   41CHL1  H26C 4210   3.073   4.200   5.613  2.0408  0.9272  1.0738
   41CHL1   C27 4211   3.178   4.414   5.769 -0.0147  0.1828  0.1195
   41CHL1  H27A 4212   3.222   4.470   5.855 -1.6493 -0.7636  1.6341
   41CHL1  H27B 4213   3.251   4.375   5.695 -0.6090 -0.2240 -0.2599
   41CHL1  H27C 4214   3.115   4.492   5.722 -2.3507 -1.9631 -0.5450
   42CHL1    C3 4215   0.951   4.576   7.176 -0.3594  0.1422 -0.3845
   42CHL1    H3 4216   1.036   4.647   7.189 -1.0536  1.0498 -0.6910
   42CHL1    O3 4217   0.897   4.535   7.301 -1.1146 -0.1402  0.2205
   42CHL1   H3' 4218   0.844   4.456   7.286  0.0346 -0.8862 -0.0008
   42CHL1    C4 4219   0.840   4.641   7.100  0.2811 -0.0728  0.0696
   42CHL1   H4A 4220   0.762   4.562   7.099  0.8823 -0.7021 -1.7686
   42CHL1   H4B 4221   0.797   4.723   7.161  0.0933  1.4135 -1.9263
   42CHL1    C5 4222   0.869   4.669   6.956  0.0424  0.1730  0.2732
   42CHL1    C6 4223   0.833   4.786   6.898  0.7626  0.2297  0.1868
   42CHL1    H6 4224   0.793   4.863   6.965  4.0980  0.7722  1.7771
   42CHL1    C7 4225   0.847   4.821   6.750 -0.8406 -0.1580  0.0628
   42CHL1   H7A 4226   0.758   4.876   6.714 -1.3295 -0.2888  1.0314
   42CHL1   H7B 4227   0.935   4.888   6.736 -1.3663  0.2996 -1.2037
   42CHL1    C8 4228   0.872   4.693   6.663 -0.3891 -0.4212  0.8482
   42CHL1    H8 4229   0.776   4.638   6.655 -0.9161  0.6574 -1.0113
   42CHL1   C14 4230   0.924   4.725   6.526 -0.0872  0.0970 -0.0934
   42CHL1   H14 4231   1.018   4.779   6.550 -1.0804  2.6546 -1.6168
   42CHL1   C15 4232   0.839   4.818   6.442 -0.4500 -0.5340  0.8171
   42CHL1  H15A 4233   0.731   4.794   6.453 -0.8597  0.6557 -0.2606
   42CHL1  H15B 4234   0.858   4.925   6.467 -0.5041 -0.2532 -0.2962
   42CHL1   C16 4235   0.882   4.804   6.295 -0.0091 -0.4293 -1.0061
   42CHL1  H16A 4236   0.801   4.761   6.233  0.6296 -2.0662 -0.7579
   42CHL1  H16B 4237   0.926   4.894   6.246 -1.5156  0.9637  0.0913
   42CHL1   C17 4238   0.995   4.693   6.301 -0.4024  0.3220  0.2741
   42CHL1   H17 4239   1.093   4.745   6.308 -0.1745 -0.1022  0.2843
   42CHL1   C13 4240   0.958   4.608   6.428  0.2162 -0.6518 -0.0420
   42CHL1   C18 4241   0.830   4.523   6.401  0.1921 -0.3022 -0.2868
   42CHL1  H18A 4242   0.791   4.481   6.497  1.7524 -1.2245 -0.0334
   42CHL1  H18B 4243   0.748   4.581   6.354  0.4480  2.1519  1.9698
   42CHL1  H18C 4244   0.854   4.443   6.329 -1.3507 -2.0702  1.0679
   42CHL1   C12 4245   1.069   4.525   6.494  0.0914 -0.0408 -0.5594
   42CHL1  H12A 4246   1.080   4.430   6.438 -0.6674  0.9489 -2.4619
   42CHL1  H12B 4247   1.166   4.580   6.492  1.0473 -1.5901  0.7471
   42CHL1   C11 4248   1.031   4.487   6.638  0.3394  0.1292 -0.8453
   42CHL1  H11A 4249   0.940   4.424   6.632 -1.4986  1.9221  3.4569
   42CHL1  H11B 4250   1.110   4.423   6.682 -0.1290 -0.5471 -0.9713
   42CHL1    C9 4251   0.978   4.602   6.735  0.6864 -0.1441 -0.1716
   42CHL1    H9 4252   1.067   4.668   6.747 -0.1168  0.5988  2.4288
   42CHL1   C10 4253   0.937   4.555   6.878  0.1867 -0.4242  0.1722
   42CHL1   C19 4254   0.821   4.445   6.855 -0.7510  0.8455 -0.3893
   42CHL1  H19A 4255   0.750   4.481   6.777 -0.2673  0.7939 -0.8591
   42CHL1  H19B 4256   0.860   4.345   6.827 -0.7228  0.8395 -0.3295
   42CHL1  H19C 4257   0.778   4.416   6.953  1.1223 -1.4151 -0.1659
   42CHL1    C1 4258   1.060   4.500   6.956  0.4291  0.3327 -0.0452
   42CHL1   H1A 4259   1.110   4.412   6.912 -0.4286  0.3450 -1.0931
   42CHL1   H1B 4260   1.139   4.578   6.964  1.4412 -0.6539 -0.1670
   42CHL1    C2 4261   1.008   4.452   7.095  0.0102  0.4608 -0.5302
   42CHL1   H2A 4262   1.093   4.395   7.138  0.6579 -0.7828 -3.2006
   42CHL1   H2B 4263   0.917   4.387   7.092  0.2948  0.0759 -1.1277
   42CHL1   C20 4264   0.998   4.616   6.168  0.4936 -0.0371 -0.4706
   42CHL1   H20 4265   0.893   4.582   6.158 -0.7406  3.3353 -0.1538
   42CHL1   C21 4266   1.094   4.497   6.169 -0.0517 -0.4089 -0.1450
   42CHL1  H21A 4267   1.048   4.409   6.218  2.1276 -1.2204  0.6076
   42CHL1  H21B 4268   1.185   4.525   6.228 -0.7137 -0.1647  0.7789
   42CHL1  H21C 4269   1.113   4.453   6.069  0.6146 -2.0443  0.6633
   42CHL1   C22 4270   1.024   4.703   6.037  0.1199 -0.7682 -0.3290
   42CHL1  H22A 4271   0.977   4.802   6.051 -0.7492 -1.1973 -0.1441
   42CHL1  H22B 4272   1.134   4.709   6.027  0.5526  3.7094  3.6144
   42CHL1   C23 4273   0.967   4.639   5.906 -0.2055  0.0074 -0.6604
   42CHL1  H23A 4274   1.003   4.535   5.898  0.1878  0.1192 -0.3765
   42CHL1  H23B 4275   0.857   4.627   5.912  0.0926 -3.4698 -0.4579
   42CHL1   C24 4276   1.007   4.714   5.773 -0.3445 -0.2676 -0.1965
   42CHL1  H24A 4277   0.959   4.672   5.682 -0.2469 -0.5721 -0.1104
   42CHL1  H24B 4278   0.971   4.818   5.788  0.4873  0.0820 -0.5599
   42CHL1   C25 4279   1.158   4.716   5.743 -0.4734 -0.1429 -0.1667
   42CHL1   H25 4280   1.214   4.757   5.829 -0.7271  1.0725 -0.5602
   42CHL1   C26 4281   1.211   4.581   5.703  0.1463 -0.9537 -0.4367
   42CHL1  H26A 4282   1.319   4.577   5.680  0.8094  3.4630  1.0012
   42CHL1  H26B 4283   1.194   4.500   5.777 -0.6515 -1.6096 -1.3084
   42CHL1  H26C 4284   1.149   4.542   5.620  0.2685 -0.4010 -0.7916
   42CHL1   C27 4285   1.189   4.818   5.637 -0.1699  0.4114  0.3895
   42CHL1  H27A 4286   1.298   4.825   5.618 -0.0970 -2.4558 -0.6675
   42CHL1  H27B 4287   1.151   4.791   5.536 -0.8069  0.1952  0.6746
   42CHL1  H27C 4288   1.150   4.919   5.664 -0.4107  0.5272 -0.3782
   43CHL1    C3 4289   1.965   2.569   6.861  0.6012 -0.4135 -0.3361
   43CHL1    H3 4290   1.937   2.463   6.841  3.4442 -1.0432 -1.3959
   43CHL1    O3 4291   1.949   2.589   6.996  0.2249  0.2099  0.6670
   43CHL1   H3' 4292   1.978   2.679   7.014 -1.6835  0.9808  0.1714
   43CHL1    C4 4293   2.109   2.588   6.817 -0.7978 -0.0614  1.4122
   43CHL1   H4A 4294   2.137   2.685   6.864  0.8302 -0.0047  0.4094
   43CHL1   H4B 4295   2.166   2.508   6.869  0.2038  0.9445  1.9056
   43CHL1    C5 4296   2.127   2.586   6.667 -0.5066  0.3756  0.2006
   43CHL1    C6 4297   2.217   2.514   6.597  0.0194  0.2258 -0.5390
   43CHL1    H6 4298   2.279   2.443   6.654 -0.9912  0.6869  1.2307
   43CHL1    C7 4299   2.238   2.531   6.452  0.1497  0.7942  0.4851
   43CHL1   H7A 4300   2.345   2.546   6.427 -0.5096  1.7633 -2.1068
   43CHL1   H7B 4301   2.212   2.436   6.402  0.7106  0.2392  1.2211
   43CHL1    C8 4302   2.167   2.652   6.381  0.0837  0.5247  0.3527
   43CHL1    H8 4303   2.234   2.739   6.392 -0.9025  1.5696 -1.4530
   43CHL1   C14 4304   2.158   2.622   6.230 -0.4179 -0.5564 -0.1440
   43CHL1   H14 4305   2.090   2.535   6.220  1.8998 -2.2234 -3.8332
   43CHL1   C15 4306   2.289   2.594   6.159 -0.0496  0.0072  0.7253
   43CHL1  H15A 4307   2.361   2.670   6.196 -0.1527  0.3379  0.2597
   43CHL1  H15B 4308   2.332   2.492   6.160  1.4058  0.4261 -2.8886
   43CHL1   C16 4309   2.254   2.625   6.012  0.4500 -0.4759  0.0563
   43CHL1  H16A 4310   2.327   2.698   5.973 -0.5561 -0.3291 -1.6531
   43CHL1  H16B 4311   2.265   2.532   5.952  1.1357 -0.8209  0.6986
   43CHL1   C17 4312   2.101   2.678   6.013  0.3667  0.1027  0.2560
   43CHL1   H17 4313   2.028   2.595   6.002  0.3842 -0.1216  1.6442
   43CHL1   C13 4314   2.089   2.743   6.159 -0.7555  0.2774 -0.1306
   43CHL1   C18 4315   2.171   2.880   6.172 -0.2571  0.3231  0.5105
   43CHL1  H18A 4316   2.129   2.959   6.106  1.2077  1.4758  0.8951
   43CHL1  H18B 4317   2.179   2.910   6.279  1.7283 -0.4182  0.6089
   43CHL1  H18C 4318   2.275   2.862   6.136 -0.6299  0.0584 -0.4789
   43CHL1   C12 4319   1.950   2.762   6.210 -0.0676 -0.0035  0.1851
   43CHL1  H12A 4320   1.895   2.845   6.161  0.8196  0.5882  0.1703
   43CHL1  H12B 4321   1.882   2.674   6.206 -0.8477  0.5221  1.3395
   43CHL1   C11 4322   1.959   2.797   6.365 -0.8486  0.5364 -0.3131
   43CHL1  H11A 4323   2.019   2.890   6.376 -0.2772  0.0247  1.2030
   43CHL1  H11B 4324   1.855   2.804   6.403 -0.8970  1.4939 -0.5792
   43CHL1    C9 4325   2.031   2.682   6.439 -0.2518  0.1878 -0.1843
   43CHL1    H9 4326   1.973   2.589   6.419 -0.8448 -0.1073  2.5115
   43CHL1   C10 4327   2.036   2.692   6.599 -0.0132 -0.2318 -0.4865
   43CHL1   C19 4328   2.071   2.840   6.631 -0.5847  0.1815 -0.1434
   43CHL1  H19A 4329   2.072   2.862   6.740 -1.6715 -0.4789  0.0128
   43CHL1  H19B 4330   2.170   2.868   6.587  0.8176 -2.7263  0.8799
   43CHL1  H19C 4331   1.981   2.897   6.600 -0.7243  0.0432  0.0111
   43CHL1    C1 4332   1.891   2.659   6.645  0.5600  0.3895  0.5447
   43CHL1   H1A 4333   1.808   2.716   6.598  0.8007  0.6793  0.4649
   43CHL1   H1B 4334   1.871   2.553   6.617 -4.6114  0.6310  2.2903
   43CHL1    C2 4335   1.872   2.671   6.795  0.4027 -0.9217  0.3375
   43CHL1   H2A 4336   1.768   2.656   6.829  0.3303  0.5752  0.8654
   43CHL1   H2B 4337   1.892   2.776   6.827  0.4900 -0.1931 -1.8874
   43CHL1   C20 4338   2.076   2.768   5.890 -0.3238 -0.2068 -0.6607
   43CHL1   H20 4339   2.109   2.872   5.913 -1.0192 -0.0906 -0.1840
   43CHL1   C21 4340   1.924   2.777   5.860  0.1345  0.3322 -0.0977
   43CHL1  H21A 4341   1.865   2.784   5.954 -1.4301  2.0091 -1.1331
   43CHL1  H21B 4342   1.893   2.686   5.805  1.0052  0.4633 -0.8301
   43CHL1  H21C 4343   1.898   2.866   5.799  2.3162  1.6105  0.7038
   43CHL1   C22 4344   2.140   2.727   5.759 -0.3638  0.1228 -0.1638
   43CHL1  H22A 4345   2.251   2.727   5.771 -0.4522 -1.5713  1.1112
   43CHL1  H22B 4346   2.106   2.626   5.726 -0.4118  0.2956 -0.6395
   43CHL1   C23 4347   2.128   2.833   5.650 -0.5508  0.0979  0.2173
   43CHL1  H23A 4348   2.021   2.863   5.641 -0.9414 -1.7589 -2.9652
   43CHL1  H23B 4349   2.179   2.924   5.687 -1.5020  0.2161  1.2932
   43CHL1   C24 4350   2.180   2.798   5.504 -0.2863  0.2511  0.3760
   43CHL1  H24A 4351   2.288   2.771   5.509 -1.0001 -2.8836  2.1004
   43CHL1  H24B 4352   2.122   2.708   5.475 -0.5648 -0.2935  2.4383
   43CHL1   C25 4353   2.150   2.900   5.397 -0.2253 -0.5774  0.5679
   43CHL1   H25 4354   2.153   3.000   5.444 -0.3104 -0.5921  0.6061
   43CHL1   C26 4355   2.258   2.890   5.283 -0.7090 -0.5402 -0.1716
   43CHL1  H26A 4356   2.249   2.788   5.239 -0.2071 -0.2923 -0.8590
   43CHL1  H26B 4357   2.240   2.958   5.197 -1.0387  0.4736  0.6670
   43CHL1  H26C 4358   2.360   2.904   5.325  0.5405 -1.3105 -2.7245
   43CHL1   C27 4359   2.010   2.865   5.340 -0.1577  0.0267 -0.0167
   43CHL1  H27A 4360   1.942   2.842   5.425  3.1453 -0.2199  2.8084
   43CHL1  H27B 4361   1.968   2.956   5.293  2.2491  2.0014  1.3663
   43CHL1  H27C 4362   2.007   2.781   5.268  0.1642 -1.7591  1.9543
   44CHL1    C3 4363   2.437   3.230   6.522 -0.3213 -0.2635 -0.0945
   44CHL1    H3 4364   2.418   3.337   6.499  1.2586  0.0638  0.0145
   44CHL1    O3 4365   2.410   3.207   6.657 -0.8349  0.2379  0.5523
   44CHL1   H3' 4366   2.475   3.256   6.708  1.9874 -0.8841 -1.7368
   44CHL1    C4 4367   2.344   3.141   6.437 -0.4482  0.3241  0.2995
   44CHL1   H4A 4368   2.358   3.033   6.457  1.7895  0.0347 -2.2230
   44CHL1   H4B 4369   2.237   3.165   6.453 -1.0796 -0.3439 -2.3481
   44CHL1    C5 4370   2.377   3.163   6.288  0.0079  0.3407  0.0352
   44CHL1    C6 4371   2.291   3.205   6.196 -0.3499 -0.5434 -0.2976
   44CHL1    H6 4372   2.192   3.220   6.241  0.1388  0.6691  0.4094
   44CHL1    C7 4373   2.319   3.224   6.048 -0.6057 -0.4786 -0.0027
   44CHL1   H7A 4374   2.242   3.182   5.981 -0.5725 -1.6128  0.6504
   44CHL1   H7B 4375   2.341   3.331   6.026  0.6483 -0.4383  1.2652
   44CHL1    C8 4376   2.446   3.146   6.017 -0.1606  0.4641  0.5284
   44CHL1    H8 4377   2.414   3.040   6.021  2.5370 -0.5279 -1.4994
   44CHL1   C14 4378   2.494   3.178   5.871  0.5023  0.3539 -0.5924
   44CHL1   H14 4379   2.522   3.286   5.872 -1.3488  0.8891 -0.8121
   44CHL1   C15 4380   2.396   3.162   5.759 -0.0289 -0.0307 -0.6370
   44CHL1  H15A 4381   2.359   3.059   5.773  0.1828 -0.3192 -2.0541
   44CHL1  H15B 4382   2.313   3.234   5.774  1.1160  1.2704 -0.3064
   44CHL1   C16 4383   2.475   3.173   5.632  0.1673  0.4625  0.0749
   44CHL1  H16A 4384   2.429   3.094   5.568 -0.6406  1.6975 -0.9003
   44CHL1  H16B 4385   2.471   3.274   5.587  1.6110 -0.0382 -1.2611
   44CHL1   C17 4386   2.617   3.135   5.676 -0.3599  0.0792 -0.1814
   44CHL1   H17 4387   2.671   3.231   5.669 -0.4850  0.1549 -0.0887
   44CHL1   C13 4388   2.611   3.099   5.831 -0.2510  0.3140 -0.4583
   44CHL1   C18 4389   2.586   2.944   5.850  0.0061 -0.4530 -0.2891
   44CHL1  H18A 4390   2.542   2.911   5.947 -0.4276  0.0078 -0.3254
   44CHL1  H18B 4391   2.510   2.917   5.773 -0.4411 -2.9744  0.9291
   44CHL1  H18C 4392   2.671   2.876   5.829  0.0730  0.3944 -3.1947
   44CHL1   C12 4393   2.724   3.134   5.919 -1.0117 -0.7271 -0.4356
   44CHL1  H12A 4394   2.822   3.088   5.892  0.4143  2.3113 -0.9310
   44CHL1  H12B 4395   2.750   3.242   5.911  0.4572 -1.1593 -2.5683
   44CHL1   C11 4396   2.698   3.105   6.069  0.0125  0.1085 -0.1882
   44CHL1  H11A 4397   2.690   2.994   6.070 -0.2916  0.1303  0.1101
   44CHL1  H11B 4398   2.784   3.138   6.131 -1.2537 -0.2391  1.8705
   44CHL1    C9 4399   2.564   3.173   6.117  0.2551  0.5966 -0.3716
   44CHL1    H9 4400   2.592   3.280   6.108  1.1628  0.3484 -0.6279
   44CHL1   C10 4401   2.531   3.135   6.258  0.2898 -0.1255  0.5531
   44CHL1   C19 4402   2.567   2.984   6.283 -0.1145 -0.0150 -0.8588
   44CHL1  H19A 4403   2.676   2.963   6.278 -0.1599 -0.6289  0.2811
   44CHL1  H19B 4404   2.554   2.978   6.393 -0.5720 -0.2954 -0.9268
   44CHL1  H19C 4405   2.494   2.914   6.236 -0.6695  1.0089 -1.5680
   44CHL1    C1 4406   2.618   3.224   6.351  0.0349  0.8042 -0.5490
   44CHL1   H1A 4407   2.721   3.189   6.328 -0.8582 -1.5101 -1.2695
   44CHL1   H1B 4408   2.594   3.328   6.318  2.6459  1.8815  0.6514
   44CHL1    C2 4409   2.586   3.207   6.499  0.0063 -0.1692 -0.2316
   44CHL1   H2A 4410   2.636   3.285   6.561 -2.0024  0.6857  0.4149
   44CHL1   H2B 4411   2.604   3.107   6.543 -1.6444 -0.3319  0.1176
   44CHL1   C20 4412   2.683   3.036   5.586  0.3281  0.5303 -0.0504
   44CHL1   H20 4413   2.641   2.935   5.605  1.7416 -0.4833 -1.9801
   44CHL1   C21 4414   2.833   3.024   5.627  0.8964  0.0059 -0.0047
   44CHL1  H21A 4415   2.899   2.962   5.562 -2.2731 -3.6336 -0.0749
   44CHL1  H21B 4416   2.835   2.955   5.713  0.2693  1.6032  1.3439
   44CHL1  H21C 4417   2.877   3.123   5.652  0.3265 -0.1358  1.6750
   44CHL1   C22 4418   2.652   3.066   5.441  0.6088 -0.7990  0.4758
   44CHL1  H22A 4419   2.556   3.026   5.402  0.7993 -1.3250  0.5350
   44CHL1  H22B 4420   2.655   3.174   5.417 -0.6856 -0.9126 -0.2935
   44CHL1   C23 4421   2.743   2.998   5.338  0.1959  0.8514 -0.6781
   44CHL1  H23A 4422   2.841   3.050   5.341  0.3128  0.7663 -2.1583
   44CHL1  H23B 4423   2.770   2.898   5.378 -0.4635  0.1346 -1.9389
   44CHL1   C24 4424   2.679   2.988   5.194 -0.7527  0.2336 -0.2959
   44CHL1  H24A 4425   2.598   2.912   5.199 -0.1610 -0.5074 -1.4405
   44CHL1  H24B 4426   2.640   3.086   5.160  1.2220  0.0115 -3.6478
   44CHL1   C25 4427   2.779   2.955   5.077 -0.5386 -0.4258  0.5487
   44CHL1   H25 4428   2.714   2.949   4.987  0.5896  0.5875 -0.3766
   44CHL1   C26 4429   2.881   3.068   5.058  0.1556 -0.3122  0.0527
   44CHL1  H26A 4430   2.948   3.040   4.974  0.5629  0.7945 -0.0024
   44CHL1  H26B 4431   2.839   3.168   5.034 -0.5726 -0.4371  0.7803
   44CHL1  H26C 4432   2.937   3.072   5.154 -1.9789  0.2099  1.3389
   44CHL1   C27 4433   2.843   2.817   5.090  0.7811  0.5797 -0.2694
   44CHL1  H27A 4434   2.772   2.733   5.103  0.7488  0.8135  1.1996
   44CHL1  H27B 4435   2.881   2.799   4.987 -1.8965 -1.5861 -1.0179
   44CHL1  H27C 4436   2.919   2.804   5.169 -0.3416  1.9308  1.1076
   45CHL1    C3 4437   1.954   4.136   6.964 -0.5242 -0.1996 -0.0841
   45CHL1    H3 4438   1.992   4.240   6.960 -1.4994  0.1400 -1.0386
   45CHL1    O3 4439   1.933   4.107   7.097  0.3544 -0.0866 -0.5035
   45CHL1   H3' 4440   2.016   4.125   7.142 -0.2997 -2.0637  1.6893
   45CHL1    C4 4441   1.826   4.146   6.885  0.4408 -0.4070  1.0022
   45CHL1   H4A 4442   1.778   4.046   6.894  0.5813 -0.5534  0.2462
   45CHL1   H4B 4443   1.768   4.225   6.937 -0.0488  0.2118 -0.4157
   45CHL1    C5 4444   1.840   4.177   6.739  0.1447  0.0957 -0.0271
   45CHL1    C6 4445   1.766   4.271   6.681 -0.1811  0.0986  0.1706
   45CHL1    H6 4446   1.704   4.330   6.750 -0.6964 -0.3436  0.1021
   45CHL1    C7 4447   1.773   4.309   6.537  0.6931  0.2338 -0.0466
   45CHL1   H7A 4448   1.672   4.320   6.492  1.2947  1.6236 -1.1358
   45CHL1   H7B 4449   1.814   4.412   6.532 -0.0564  0.5773  0.6600
   45CHL1    C8 4450   1.855   4.212   6.447 -0.1178 -0.4804 -0.9852
   45CHL1    H8 4451   1.792   4.124   6.423 -1.3237  0.4704 -1.3562
   45CHL1   C14 4452   1.894   4.273   6.315  0.3841 -0.3011 -0.1205
   45CHL1   H14 4453   1.973   4.346   6.343  0.1459  0.0793 -0.4365
   45CHL1   C15 4454   1.792   4.351   6.230  0.7297  0.1568  0.4989
   45CHL1  H15A 4455   1.689   4.312   6.245  0.7837  0.2118  1.0457
   45CHL1  H15B 4456   1.789   4.453   6.274  0.9707  1.1244 -1.5934
   45CHL1   C16 4457   1.850   4.356   6.089  0.5510 -0.1828 -0.1958
   45CHL1  H16A 4458   1.773   4.320   6.017  1.8630 -1.0775 -1.2212
   45CHL1  H16B 4459   1.875   4.460   6.061  0.9948 -0.3759 -0.5338
   45CHL1   C17 4460   1.982   4.270   6.094 -0.1417 -0.3018  0.0098
   45CHL1   H17 4461   2.071   4.334   6.111 -1.5224  1.8169 -0.3561
   45CHL1   C13 4462   1.967   4.177   6.222 -0.6414  0.6264  0.3034
   45CHL1   C18 4463   1.869   4.065   6.183  0.7220  0.0300  0.0213
   45CHL1  H18A 4464   1.914   4.008   6.100  0.8574  1.4745 -0.9350
   45CHL1  H18B 4465   1.855   3.991   6.265  2.3793 -2.2291 -1.6291
   45CHL1  H18C 4466   1.777   4.120   6.153  2.5595  1.9305 -2.5042
   45CHL1   C12 4467   2.097   4.135   6.300  0.1026 -0.4265  0.2415
   45CHL1  H12A 4468   2.150   4.056   6.242 -2.3040 -1.8077 -0.2045
   45CHL1  H12B 4469   2.170   4.217   6.311 -0.2844  0.0709 -0.8102
   45CHL1   C11 4470   2.067   4.079   6.437  0.4640 -0.3096 -0.2303
   45CHL1  H11A 4471   2.012   3.987   6.408 -1.6548  1.7434 -3.4094
   45CHL1  H11B 4472   2.150   4.041   6.500 -0.5171  0.3680  1.5477
   45CHL1    C9 4473   1.978   4.164   6.523  0.8913  0.6827 -0.4191
   45CHL1    H9 4474   2.025   4.260   6.554 -2.8530  2.8976 -0.8974
   45CHL1   C10 4475   1.942   4.094   6.656  0.2451 -0.7715 -0.9949
   45CHL1   C19 4476   1.882   3.956   6.629 -0.6828 -0.5271 -0.4946
   45CHL1  H19A 4477   1.850   3.917   6.728  0.4444 -2.3161 -0.7845
   45CHL1  H19B 4478   1.794   3.965   6.562 -1.5641 -0.2455  0.6785
   45CHL1  H19C 4479   1.961   3.888   6.591  0.2367  0.1286  0.1946
   45CHL1    C1 4480   2.070   4.094   6.742 -0.3342  0.2185 -0.1921
   45CHL1   H1A 4481   2.147   4.025   6.700  0.1769  0.5768  0.1392
   45CHL1   H1B 4482   2.115   4.194   6.757  0.0158 -0.1678  1.4898
   45CHL1    C2 4483   2.052   4.042   6.886  0.5242  0.6696  0.5455
   45CHL1   H2A 4484   2.148   4.031   6.941  0.8804 -0.9833 -0.3505
   45CHL1   H2B 4485   2.003   3.943   6.884 -0.5200  1.1260  1.9788
   45CHL1   C20 4486   2.014   4.214   5.953  0.2805  0.0718 -0.0423
   45CHL1   H20 4487   1.946   4.130   5.927 -0.5932  0.1640  1.7776
   45CHL1   C21 4488   2.151   4.150   5.963  0.2870 -0.3017  0.5296
   45CHL1  H21A 4489   2.148   4.060   6.029 -0.0762 -1.2882 -0.7848
   45CHL1  H21B 4490   2.222   4.228   6.000 -2.0563  3.0884 -1.5982
   45CHL1  H21C 4491   2.189   4.112   5.866  1.0043  2.2232 -0.2418
   45CHL1   C22 4492   2.010   4.304   5.830  0.4872 -0.4829 -0.5139
   45CHL1  H22A 4493   1.912   4.355   5.818 -0.1129 -1.7755 -1.3406
   45CHL1  H22B 4494   2.084   4.387   5.842 -1.5019  1.0615  2.1918
   45CHL1   C23 4495   2.029   4.233   5.692  0.2027 -1.0555  0.4271
   45CHL1  H23A 4496   2.137   4.207   5.693  0.3097 -0.6181  0.5239
   45CHL1  H23B 4497   1.955   4.150   5.689 -1.9750  0.6985  2.1128
   45CHL1   C24 4498   1.993   4.321   5.571 -0.5300 -0.4615 -0.2597
   45CHL1  H24A 4499   1.886   4.352   5.582 -0.4449 -0.2782  0.0879
   45CHL1  H24B 4500   2.062   4.408   5.574 -0.7770 -0.1420 -2.3030
   45CHL1   C25 4501   2.010   4.255   5.432 -0.5546 -0.3604  1.2201
   45CHL1   H25 4502   1.942   4.167   5.436  0.3164 -1.2397 -1.4125
   45CHL1   C26 4503   1.963   4.345   5.313  0.0271 -0.1673 -0.6776
   45CHL1  H26A 4504   2.028   4.434   5.297  0.3811 -0.7369 -2.7049
   45CHL1  H26B 4505   1.972   4.282   5.222  1.0521 -2.5959  0.9941
   45CHL1  H26C 4506   1.857   4.372   5.334 -0.2859 -0.7001 -1.5146
   45CHL1   C27 4507   2.156   4.199   5.416 -0.4913 -0.1017  0.1945
   45CHL1  H27A 4508   2.213   4.294   5.401  0.2649 -0.7719 -1.3813
   45CHL1  H27B 4509   2.197   4.141   5.501 -1.8457 -2.0224 -0.3923
   45CHL1  H27C 4510   2.158   4.130   5.329  0.2939 -2.1081  1.7168
   46CHL1    C3 4511   4.401   0.111   6.900 -0.7354  0.3293  0.1086
   46CHL1    H3 4512   4.394   0.011   6.851  0.6690  0.2755 -0.0158
   46CHL1    O3 4513   4.408   0.091   7.044 -0.4374  0.0178  0.7644
   46CHL1   H3' 4514   4.349   0.019   7.063 -1.0689 -0.4097 -2.2909
   46CHL1    C4 4515   4.525   0.177   6.840 -0.3729  0.0720  0.3055
   46CHL1   H4A 4516   4.561   0.259   6.906  1.6650 -1.9311  1.8333
   46CHL1   H4B 4517   4.607   0.104   6.858  1.3339  1.8791  0.2546
   46CHL1    C5 4518   4.515   0.213   6.685 -0.4818 -0.1558 -0.5410
   46CHL1    C6 4519   4.616   0.180   6.604  0.4205  0.0970 -0.0097
   46CHL1    H6 4520   4.699   0.121   6.645 -0.5507 -2.1376 -1.0836
   46CHL1    C7 4521   4.607   0.212   6.458  0.1988  0.3405  1.2682
   46CHL1   H7A 4522   4.694   0.275   6.430 -1.4860  2.7974  1.1868
   46CHL1   H7B 4523   4.598   0.124   6.391 -3.2037  1.4712  0.0209
   46CHL1    C8 4524   4.480   0.301   6.416  0.3988  0.0657  0.4189
   46CHL1    H8 4525   4.514   0.405   6.439 -0.8433  0.2847  1.4019
   46CHL1   C14 4526   4.438   0.287   6.270 -0.1179 -0.7143  0.3234
   46CHL1   H14 4527   4.406   0.183   6.246 -2.3730 -0.2423  1.0223
   46CHL1   C15 4528   4.551   0.315   6.165  1.0433  0.0111  0.1218
   46CHL1  H15A 4529   4.609   0.407   6.182  0.8033 -0.0125  1.1288
   46CHL1  H15B 4530   4.621   0.232   6.139 -0.7206 -1.1217 -1.2474
   46CHL1   C16 4531   4.472   0.315   6.028  0.1832 -0.3421  0.1613
   46CHL1  H16A 4532   4.510   0.394   5.959  0.2809 -0.8956 -0.4276
   46CHL1  H16B 4533   4.486   0.213   5.987  0.2444 -0.3970  0.3218
   46CHL1   C17 4534   4.325   0.342   6.061  0.2296 -0.4328 -0.4777
   46CHL1   H17 4535   4.279   0.242   6.045 -0.5456  0.2294 -2.7521
   46CHL1   C13 4536   4.321   0.367   6.216 -0.0464 -0.6122  0.4992
   46CHL1   C18 4537   4.342   0.522   6.238  0.1172 -0.2258  0.2739
   46CHL1  H18A 4538   4.431   0.579   6.204  0.8478 -0.9206  0.9786
   46CHL1  H18B 4539   4.253   0.584   6.213  0.8779  0.5127 -0.6929
   46CHL1  H18C 4540   4.346   0.535   6.348 -3.1137  3.5095  0.2137
   46CHL1   C12 4541   4.199   0.322   6.295 -0.4702 -0.2499 -0.1725
   46CHL1  H12A 4542   4.110   0.385   6.275 -1.0498 -1.5603 -1.9146
   46CHL1  H12B 4543   4.177   0.217   6.266 -2.7482 -0.2506  1.3378
   46CHL1   C11 4544   4.228   0.324   6.450 -0.3345 -0.5052  0.0203
   46CHL1  H11A 4545   4.225   0.433   6.471  2.1062 -0.5849  1.1706
   46CHL1  H11B 4546   4.140   0.278   6.498 -1.1394  0.2496 -0.7057
   46CHL1    C9 4547   4.362   0.260   6.496  0.4025 -0.1241  0.2622
   46CHL1    H9 4548   4.343   0.151   6.479  1.3111 -0.3485  0.6351
   46CHL1   C10 4549   4.382   0.276   6.648 -0.2935  0.6024 -0.3693
   46CHL1   C19 4550   4.396   0.423   6.694 -0.2605  0.3944 -0.2597
   46CHL1  H19A 4551   4.416   0.446   6.801 -0.5645 -1.7298  0.2971
   46CHL1  H19B 4552   4.488   0.461   6.645  2.3502 -0.9575  3.1308
   46CHL1  H19C 4553   4.306   0.486   6.676 -0.8253 -0.2710  0.1457
   46CHL1    C1 4554   4.263   0.214   6.724 -0.3740  0.2355 -0.2363
   46CHL1   H1A 4555   4.178   0.285   6.715 -0.2440  0.3662 -0.4449
   46CHL1   H1B 4556   4.234   0.119   6.673 -1.4534 -0.9694  2.4587
   46CHL1    C2 4557   4.280   0.191   6.874  0.1399  0.2138  0.0647
   46CHL1   H2A 4558   4.191   0.146   6.924  0.3866 -2.0398 -1.4059
   46CHL1   H2B 4559   4.298   0.290   6.921  1.2727 -0.5129  1.2182
   46CHL1   C20 4560   4.244   0.430   5.963  0.4235 -0.3437 -0.4755
   46CHL1   H20 4561   4.279   0.534   5.978  0.9010 -0.7460  1.4172
   46CHL1   C21 4562   4.094   0.428   5.998 -0.2914 -0.4633 -0.2501
   46CHL1  H21A 4563   4.080   0.468   6.101  1.3790 -1.4667  0.4141
   46CHL1  H21B 4564   4.067   0.320   5.996  2.6682 -1.3017  0.8858
   46CHL1  H21C 4565   4.035   0.497   5.934  1.6003  1.3347 -0.1357
   46CHL1   C22 4566   4.259   0.398   5.813  0.1670 -0.3196  0.0255
   46CHL1  H22A 4567   4.365   0.377   5.789  0.1542 -1.1280  0.6124
   46CHL1  H22B 4568   4.204   0.301   5.807  1.6377 -1.3057  1.3966
   46CHL1   C23 4569   4.199   0.489   5.707 -0.3246 -0.1031  0.4489
   46CHL1  H23A 4570   4.091   0.508   5.729 -1.0442 -0.9255 -2.0505
   46CHL1  H23B 4571   4.250   0.588   5.704 -0.2686 -0.1487 -1.9381
   46CHL1   C24 4572   4.217   0.422   5.570 -0.4855 -0.1339 -0.1060
   46CHL1  H24A 4573   4.323   0.444   5.541 -0.4770 -1.1290 -0.8937
   46CHL1  H24B 4574   4.206   0.313   5.590  0.6094  0.2247  2.8187
   46CHL1   C25 4575   4.130   0.461   5.453 -0.5268  0.3153  0.3870
   46CHL1   H25 4576   4.166   0.408   5.362 -1.0518 -1.2041  1.0461
   46CHL1   C26 4577   3.985   0.402   5.464  0.8791 -0.3289 -0.0837
   46CHL1  H26A 4578   3.922   0.429   5.376  2.0167  0.6691 -0.6205
   46CHL1  H26B 4579   3.991   0.292   5.480  0.4710 -0.2760  0.4585
   46CHL1  H26C 4580   3.940   0.435   5.560  1.1598 -2.0100  0.6577
   46CHL1   C27 4581   4.137   0.613   5.427 -0.3092  0.0300  0.1402
   46CHL1  H27A 4582   4.243   0.642   5.411 -0.7285  2.6671  1.5187
   46CHL1  H27B 4583   4.078   0.628   5.334  0.1511  0.0606 -0.1443
   46CHL1  H27C 4584   4.103   0.683   5.507 -1.0663 -0.6001  0.3928
   47CHL1    C3 4585   6.211   2.280   7.057  0.2445 -1.0104 -0.7882
   47CHL1    H3 4586   6.174   2.176   7.041 -1.0106 -0.6053 -0.5996
   47CHL1    O3 4587   6.181   2.321   7.196 -0.2737  0.2249  0.4730
   47CHL1   H3' 4588   6.087   2.323   7.214  0.0166  0.8507  2.0889
   47CHL1    C4 4589   6.359   2.294   7.025  0.0902 -0.5326  0.4679
   47CHL1   H4A 4590   6.397   2.390   7.065 -0.2015  0.5329 -1.6645
   47CHL1   H4B 4591   6.414   2.221   7.088 -0.2318  0.5312  2.0359
   47CHL1    C5 4592   6.391   2.275   6.874  0.0769  0.0886 -0.1224
   47CHL1    C6 4593   6.475   2.183   6.822 -0.3059  0.2644  0.4560
   47CHL1    H6 4594   6.532   2.113   6.884 -0.8852 -1.8760 -1.2881
   47CHL1    C7 4595   6.506   2.170   6.675 -0.8317 -0.3073 -0.0353
   47CHL1   H7A 4596   6.617   2.176   6.668 -0.7466 -0.7016  0.8411
   47CHL1   H7B 4597   6.475   2.072   6.632 -1.7860  0.2966 -0.7452
   47CHL1    C8 4598   6.449   2.281   6.586 -0.1964  0.1610 -0.1936
   47CHL1    H8 4599   6.522   2.363   6.598  1.2481 -1.4469  3.4526
   47CHL1   C14 4600   6.437   2.238   6.442  0.5373  0.3835  0.4514
   47CHL1   H14 4601   6.347   2.173   6.450  0.1507  0.9930  1.2134
   47CHL1   C15 4602   6.551   2.166   6.373 -0.3587  0.3039  0.2129
   47CHL1  H15A 4603   6.642   2.222   6.403 -0.2274  1.4583 -2.1221
   47CHL1  H15B 4604   6.569   2.065   6.416 -0.9125 -1.0453 -2.4958
   47CHL1   C16 4605   6.530   2.180   6.225  0.3820  0.0726  0.9187
   47CHL1  H16A 4606   6.610   2.235   6.170 -0.4503 -0.4296 -0.8617
   47CHL1  H16B 4607   6.533   2.082   6.173 -1.3225  1.1787 -1.4805
   47CHL1   C17 4608   6.408   2.272   6.205 -0.0209 -0.0214  1.1088
   47CHL1   H17 4609   6.325   2.200   6.217 -0.2088  0.2410  1.4000
   47CHL1   C13 4610   6.393   2.342   6.341  0.9438 -0.0712 -0.0553
   47CHL1   C18 4611   6.486   2.461   6.329 -0.3592  0.2326 -0.9008
   47CHL1  H18A 4612   6.593   2.431   6.321 -0.0692  0.5366  1.3586
   47CHL1  H18B 4613   6.458   2.525   6.242 -3.6881 -0.5448 -0.5169
   47CHL1  H18C 4614   6.474   2.529   6.416 -0.9506 -0.6265 -0.3087
   47CHL1   C12 4615   6.246   2.384   6.386 -0.3791  0.1215  0.7858
   47CHL1  H12A 4616   6.193   2.464   6.330 -2.6847 -0.3433  2.1681
   47CHL1  H12B 4617   6.186   2.291   6.378  1.5168 -1.1104  0.3385
   47CHL1   C11 4618   6.246   2.425   6.532  0.1427 -0.7631 -0.3313
   47CHL1  H11A 4619   6.306   2.517   6.547 -1.5166  0.1180  1.3269
   47CHL1  H11B 4620   6.145   2.467   6.554  0.6785  1.0318 -1.1122
   47CHL1    C9 4621   6.305   2.324   6.634  0.6368  0.5889 -0.6111
   47CHL1    H9 4622   6.242   2.233   6.630 -0.3022  1.2300 -0.6001
   47CHL1   C10 4623   6.299   2.363   6.786  0.1648 -0.3984 -0.2420
   47CHL1   C19 4624   6.350   2.507   6.795 -0.3720  0.2420 -0.2961
   47CHL1  H19A 4625   6.455   2.517   6.761  0.6105 -3.3678  1.1392
   47CHL1  H19B 4626   6.282   2.569   6.733  0.1970 -1.0111 -2.2779
   47CHL1  H19C 4627   6.339   2.560   6.892 -0.8347 -2.0105  0.9838
   47CHL1    C1 4628   6.149   2.359   6.827  0.4839  0.4148  0.7184
   47CHL1   H1A 4629   6.091   2.413   6.749  0.3421 -1.0634 -0.2640
   47CHL1   H1B 4630   6.109   2.257   6.809  0.6982  0.2804  0.9957
   47CHL1    C2 4631   6.117   2.383   6.978  0.0154  0.4105  0.1634
   47CHL1   H2A 4632   6.012   2.370   7.012 -0.1783  1.2944 -0.0620
   47CHL1   H2B 4633   6.149   2.484   7.012 -0.2508  0.9054 -1.0071
   47CHL1   C20 4634   6.396   2.346   6.074  0.3740 -0.4648 -0.4478
   47CHL1   H20 4635   6.476   2.421   6.058  0.5464  0.2329  3.0214
   47CHL1   C21 4636   6.262   2.419   6.066  0.1341  0.2028  0.0092
   47CHL1  H21A 4637   6.254   2.499   6.142 -1.1969 -0.4676  0.5947
   47CHL1  H21B 4638   6.178   2.351   6.089  0.6445 -0.7168 -0.7349
   47CHL1  H21C 4639   6.249   2.473   5.970 -2.9871 -1.2360 -0.4942
   47CHL1   C22 4640   6.419   2.255   5.947  0.3655  0.5189  0.2590
   47CHL1  H22A 4641   6.508   2.191   5.964  0.0328  0.0703  0.3587
   47CHL1  H22B 4642   6.339   2.178   5.932  0.3232  0.8771 -1.6704
   47CHL1   C23 4643   6.460   2.329   5.825 -0.3616  0.1394 -0.5717
   47CHL1  H23A 4644   6.391   2.412   5.800 -0.8498 -0.0819  0.0065
   47CHL1  H23B 4645   6.563   2.365   5.843 -0.6000 -0.8568  3.7298
   47CHL1   C24 4646   6.468   2.248   5.694  0.0448  0.5518 -0.0385
   47CHL1  H24A 4647   6.513   2.148   5.714 -0.1114  0.5009  0.0612
   47CHL1  H24B 4648   6.360   2.230   5.674 -0.3963 -0.1698  2.5974
   47CHL1   C25 4649   6.526   2.320   5.567 -1.0734 -0.5719  0.3933
   47CHL1   H25 4650   6.481   2.422   5.567 -1.8368 -0.8912 -0.3196
   47CHL1   C26 4651   6.683   2.331   5.560 -0.1645 -0.4907 -0.3617
   47CHL1  H26A 4652   6.716   2.399   5.478  3.7468  0.2637  1.5818
   47CHL1  H26B 4653   6.728   2.375   5.652  3.1994 -0.0935 -2.0481
   47CHL1  H26C 4654   6.729   2.231   5.549  1.9362  0.5871 -2.1133
   47CHL1   C27 4655   6.466   2.256   5.441 -0.7015 -0.2383 -0.0527
   47CHL1  H27A 4656   6.492   2.308   5.346  1.8269 -2.3749 -0.6208
   47CHL1  H27B 4657   6.488   2.148   5.448 -1.1546 -0.3895 -0.8218
   47CHL1  H27C 4658   6.355   2.263   5.449 -0.7764 -0.6197 -0.6657
   48CHL1    C3 4659   3.417   5.841   6.905  0.1579 -0.1972  0.8363
   48CHL1    H3 4660   3.345   5.924   6.890 -2.0380 -1.6730  2.4202
   48CHL1    O3 4661   3.417   5.806   7.043 -0.3095  0.3212 -0.1223
   48CHL1   H3' 4662   3.483   5.737   7.050 -0.3944 -0.1710 -3.1103
   48CHL1    C4 4663   3.352   5.730   6.826  0.1625 -0.0921  0.5523
   48CHL1   H4A 4664   3.357   5.626   6.864 -1.3890 -0.4637 -0.1601
   48CHL1   H4B 4665   3.246   5.751   6.853  0.7206  3.0869  0.6431
   48CHL1    C5 4666   3.382   5.738   6.676  0.9614 -0.4342 -0.9887
   48CHL1    C6 4667   3.285   5.704   6.583 -0.0161 -0.0018 -0.7143
   48CHL1    H6 4668   3.182   5.678   6.610  0.6497  0.1244  2.2687
   48CHL1    C7 4669   3.304   5.698   6.436  0.7393 -0.0479 -0.0016
   48CHL1   H7A 4670   3.258   5.607   6.393  0.0951  0.8903 -1.3823
   48CHL1   H7B 4671   3.253   5.785   6.389  0.8059 -0.8297 -1.6085
   48CHL1    C8 4672   3.451   5.701   6.392  0.0443 -0.3251  0.5901
   48CHL1    H8 4673   3.494   5.600   6.408 -1.8211 -1.4314 -0.9574
   48CHL1   C14 4674   3.467   5.723   6.241  0.5330  0.2145 -1.0170
   48CHL1   H14 4675   3.425   5.825   6.229  0.5332  0.1971 -1.1640
   48CHL1   C15 4676   3.396   5.626   6.151 -0.1156 -0.4267  0.3204
   48CHL1  H15A 4677   3.393   5.519   6.179 -1.3977 -1.2828 -2.6525
   48CHL1  H15B 4678   3.290   5.643   6.124  0.1543 -1.7123 -1.7664
   48CHL1   C16 4679   3.472   5.639   6.018 -0.0989  0.0528 -0.2508
   48CHL1  H16A 4680   3.500   5.535   5.990 -2.7888 -0.9013  0.3339
   48CHL1  H16B 4681   3.415   5.692   5.939  2.1931  1.4212 -1.0732
   48CHL1   C17 4682   3.594   5.733   6.046 -0.0049  0.1663  1.0264
   48CHL1   H17 4683   3.564   5.834   6.009 -0.0439 -0.2354 -0.1037
   48CHL1   C13 4684   3.612   5.734   6.195  0.6074 -0.6361 -0.1572
   48CHL1   C18 4685   3.682   5.598   6.237 -0.6872 -0.2961  1.1795
   48CHL1  H18A 4686   3.623   5.517   6.190 -2.1602  1.9458 -1.0060
   48CHL1  H18B 4687   3.782   5.605   6.189 -0.6417 -2.3286  0.8723
   48CHL1  H18C 4688   3.703   5.590   6.346  2.8595  2.4464  0.8869
   48CHL1   C12 4689   3.683   5.854   6.266 -0.0203 -0.3087 -0.2460
   48CHL1  H12A 4690   3.790   5.870   6.240  0.2417 -0.1144  0.9336
   48CHL1  H12B 4691   3.630   5.951   6.259  1.4951  0.6612  1.0804
   48CHL1   C11 4692   3.675   5.830   6.419  0.3810  0.4926  0.0760
   48CHL1  H11A 4693   3.736   5.742   6.446 -1.9596 -0.1476  4.0669
   48CHL1  H11B 4694   3.724   5.916   6.468 -0.1630 -0.4115  2.3455
   48CHL1    C9 4695   3.532   5.806   6.478  0.6727 -0.3920  0.4018
   48CHL1    H9 4696   3.478   5.902   6.464 -0.1975 -0.5391  2.4571
   48CHL1   C10 4697   3.527   5.773   6.630  0.4366  0.0511 -0.1824
   48CHL1   C19 4698   3.621   5.659   6.664 -0.7904 -0.0062  0.5926
   48CHL1  H19A 4699   3.621   5.620   6.768  2.3307 -3.1166 -0.3788
   48CHL1  H19B 4700   3.597   5.568   6.604  1.4624  0.2111 -0.7401
   48CHL1  H19C 4701   3.727   5.683   6.642  0.5924 -4.3231  1.4981
   48CHL1    C1 4702   3.568   5.894   6.715  0.2272  0.3776 -0.6043
   48CHL1   H1A 4703   3.677   5.908   6.696  0.5981 -1.5732 -0.1742
   48CHL1   H1B 4704   3.506   5.979   6.679 -0.0759  0.1522 -0.6163
   48CHL1    C2 4705   3.556   5.877   6.871  0.4853 -0.7977  0.3385
   48CHL1   H2A 4706   3.569   5.976   6.921  0.4382 -1.1733  1.1050
   48CHL1   H2B 4707   3.642   5.815   6.904  0.8886 -0.2753  0.3024
   48CHL1   C20 4708   3.714   5.693   5.947  0.5003  0.2925 -0.5050
   48CHL1   H20 4709   3.756   5.596   5.981  1.1803  0.8359  0.2504
   48CHL1   C21 4710   3.823   5.796   5.966 -0.1075  0.2080  0.1604
   48CHL1  H21A 4711   3.879   5.786   6.061 -2.3582 -2.1059  1.3848
   48CHL1  H21B 4712   3.892   5.800   5.880 -2.3837 -0.5041 -1.8239
   48CHL1  H21C 4713   3.785   5.900   5.967 -0.2395  0.1650  1.1037
   48CHL1   C22 4714   3.663   5.687   5.798 -0.8191  0.4744  0.0266
   48CHL1  H22A 4715   3.596   5.599   5.790  1.1893 -1.2573  1.1784
   48CHL1  H22B 4716   3.598   5.775   5.776  1.0046  2.1745  1.1241
   48CHL1   C23 4717   3.770   5.685   5.683  0.1214  0.8281 -1.1700
   48CHL1  H23A 4718   3.821   5.784   5.688  1.7754 -0.0408 -0.3432
   48CHL1  H23B 4719   3.840   5.601   5.698  2.2233  2.2318 -2.6427
   48CHL1   C24 4720   3.715   5.658   5.551  0.0237  0.6098 -0.3697
   48CHL1  H24A 4721   3.691   5.550   5.541 -1.1201  0.5978  1.9922
   48CHL1  H24B 4722   3.627   5.724   5.540  0.6641  1.9372  1.9007
   48CHL1   C25 4723   3.819   5.691   5.439 -0.5626  0.2900 -0.2748
   48CHL1   H25 4724   3.917   5.645   5.463 -0.8067 -0.4726 -0.7072
   48CHL1   C26 4725   3.769   5.627   5.312  0.4900 -0.1112 -0.1035
   48CHL1  H26A 4726   3.816   5.661   5.217  0.5572  0.4760  0.1308
   48CHL1  H26B 4727   3.784   5.518   5.321 -1.8909 -0.5524 -0.8131
   48CHL1  H26C 4728   3.659   5.645   5.307  0.5942  1.3053  1.7707
   48CHL1   C27 4729   3.844   5.841   5.432  0.0064 -0.2177 -0.1531
   48CHL1  H27A 4730   3.769   5.909   5.386  0.1762 -0.3536 -0.6457
   48CHL1  H27B 4731   3.882   5.890   5.524 -1.0587 -3.9345  2.4969
   48CHL1  H27C 4732   3.933   5.853   5.366  1.1932  0.3219  1.4597
   49CHL1    C3 4733   1.487   2.309   3.405  0.1306 -0.1961  0.3426
   49CHL1    H3 4734   1.588   2.264   3.419 -0.3973 -1.2137  1.0465
   49CHL1    O3 4735   1.474   2.333   3.262  0.2964 -0.4272  0.1505
   49CHL1   H3' 4736   1.445   2.424   3.251  4.0246  0.9586  0.2684
   49CHL1    C4 4737   1.376   2.211   3.461  0.3864 -0.1210 -0.4714
   49CHL1   H4A 4738   1.280   2.261   3.435  0.2752  0.1259  0.3851
   49CHL1   H4B 4739   1.395   2.122   3.397 -0.3185  0.0029 -0.8720
   49CHL1    C5 4740   1.380   2.207   3.616  0.1231  0.3204 -0.2352
   49CHL1    C6 4741   1.398   2.093   3.686  0.1966 -0.2415  0.4085
   49CHL1    H6 4742   1.407   1.992   3.644  0.3638 -0.3964  0.8113
   49CHL1    C7 4743   1.408   2.085   3.831 -0.2436 -0.3867 -0.1970
   49CHL1   H7A 4744   1.349   2.000   3.872  0.2827 -0.9072 -0.5092
   49CHL1   H7B 4745   1.512   2.060   3.861 -0.4743  0.4487  1.4441
   49CHL1    C8 4746   1.370   2.212   3.908  0.3950  0.5410 -0.4317
   49CHL1    H8 4747   1.259   2.213   3.904  0.3654 -1.6739 -1.3410
   49CHL1   C14 4748   1.417   2.200   4.059 -0.3818  0.1356  0.7102
   49CHL1   H14 4749   1.528   2.200   4.053 -0.2131  0.3446  3.0930
   49CHL1   C15 4750   1.378   2.079   4.138  0.2422 -0.5754 -0.2853
   49CHL1  H15A 4751   1.271   2.049   4.128  0.2773 -1.5981  1.8796
   49CHL1  H15B 4752   1.438   1.990   4.113  0.7591 -0.0836 -0.8112
   49CHL1   C16 4753   1.398   2.118   4.284  0.1224  0.1329  0.1856
   49CHL1  H16A 4754   1.308   2.092   4.344  2.1883  0.1408  3.5597
   49CHL1  H16B 4755   1.477   2.054   4.330 -1.9891 -2.1082  0.9409
   49CHL1   C17 4756   1.426   2.268   4.278  0.2451 -0.5841  0.5903
   49CHL1   H17 4757   1.537   2.268   4.285  0.3467 -2.1215 -0.6121
   49CHL1   C13 4758   1.372   2.322   4.142  0.7380  0.1963  0.4462
   49CHL1   C18 4759   1.219   2.324   4.145 -0.7282 -0.6362  0.5487
   49CHL1  H18A 4760   1.164   2.337   4.049 -1.5105 -0.0713  1.0652
   49CHL1  H18B 4761   1.167   2.242   4.199 -0.6269 -0.2859  1.1801
   49CHL1  H18C 4762   1.194   2.420   4.194  0.7240  0.4539 -0.7297
   49CHL1   C12 4763   1.442   2.446   4.078 -0.2014 -0.1727 -0.1324
   49CHL1  H12A 4764   1.423   2.537   4.139 -0.8487 -2.1023  2.7631
   49CHL1  H12B 4765   1.548   2.414   4.084 -0.4104 -0.7368  0.6713
   49CHL1   C11 4766   1.391   2.469   3.931  0.0645  0.1923 -0.2306
   49CHL1  H11A 4767   1.282   2.480   3.947  0.2384  0.8166  0.5645
   49CHL1  H11B 4768   1.428   2.564   3.888 -0.4647 -0.1009 -1.3789
   49CHL1    C9 4769   1.416   2.342   3.844 -0.5394 -0.3359 -0.8350
   49CHL1    H9 4770   1.527   2.337   3.844 -0.3808  2.1767 -0.5664
   49CHL1   C10 4771   1.385   2.345   3.687  0.3223 -0.8154 -0.1971
   49CHL1   C19 4772   1.241   2.413   3.674 -0.6749  0.7085 -0.4880
   49CHL1  H19A 4773   1.240   2.517   3.712 -1.0086  0.2562  0.7819
   49CHL1  H19B 4774   1.207   2.426   3.569  0.9114  0.1138 -1.1104
   49CHL1  H19C 4775   1.169   2.357   3.738 -0.5701  0.0290 -0.9494
   49CHL1    C1 4776   1.500   2.432   3.626  0.3980  0.4410 -0.1579
   49CHL1   H1A 4777   1.493   2.527   3.682  2.2615  0.4242  0.1932
   49CHL1   H1B 4778   1.594   2.388   3.666 -0.6001 -0.6257  1.0935
   49CHL1    C2 4779   1.472   2.443   3.476 -0.2409  0.1124  0.5980
   49CHL1   H2A 4780   1.553   2.508   3.436 -1.0731  0.5889 -0.3708
   49CHL1   H2B 4781   1.376   2.486   3.440 -0.8923 -1.3322  0.5363
   49CHL1   C20 4782   1.366   2.337   4.405 -0.3045  0.8542 -0.3905
   49CHL1   H20 4783   1.256   2.323   4.402 -0.3918  1.5142 -0.4192
   49CHL1   C21 4784   1.412   2.482   4.413 -0.6383 -0.0301 -0.2348
   49CHL1  H21A 4785   1.372   2.518   4.511 -0.5104 -2.3017  0.7268
   49CHL1  H21B 4786   1.377   2.543   4.328 -0.5929 -2.0521 -1.7764
   49CHL1  H21C 4787   1.523   2.482   4.417 -0.1949 -3.2292 -4.5757
   49CHL1   C22 4788   1.422   2.267   4.537 -0.3102  0.5473 -0.0087
   49CHL1  H22A 4789   1.386   2.162   4.537  0.1442  0.3291 -2.5599
   49CHL1  H22B 4790   1.533   2.263   4.530 -0.4063 -1.3147 -1.1525
   49CHL1   C23 4791   1.395   2.330   4.673 -0.1472 -0.4278  0.5540
   49CHL1  H23A 4792   1.458   2.422   4.682 -2.1856  0.9408  1.9748
   49CHL1  H23B 4793   1.293   2.372   4.688  0.0004  0.6525 -1.1829
   49CHL1   C24 4794   1.425   2.242   4.788 -0.7519  0.9095  0.0349
   49CHL1  H24A 4795   1.356   2.154   4.788  2.9570 -2.3546  2.4058
   49CHL1  H24B 4796   1.532   2.214   4.782  0.0215  3.4407  0.9075
   49CHL1   C25 4797   1.416   2.312   4.925 -0.0224 -0.5879 -0.3764
   49CHL1   H25 4798   1.309   2.339   4.933 -0.5037 -2.5885  0.3189
   49CHL1   C26 4799   1.453   2.220   5.036 -0.2791 -0.6392  0.2273
   49CHL1  H26A 4800   1.439   2.266   5.137 -0.8993 -0.1170 -0.0906
   49CHL1  H26B 4801   1.392   2.128   5.036  0.3968 -1.1615  2.5131
   49CHL1  H26C 4802   1.553   2.174   5.026 -0.4921 -1.6857  2.2783
   49CHL1   C27 4803   1.507   2.443   4.944  0.8702  0.5513 -0.0393
   49CHL1  H27A 4804   1.463   2.514   5.018 -2.3502 -0.6045 -0.6616
   49CHL1  H27B 4805   1.603   2.419   4.993  1.4447  1.5430 -0.6645
   49CHL1  H27C 4806   1.524   2.494   4.847  0.8754 -0.6301 -0.6847
   50CHL1    C3 4807   6.243   2.881   3.488  0.5722  0.3871 -0.1219
   50CHL1    H3 4808   6.187   2.797   3.532  1.7370  0.7001  2.0682
   50CHL1    O3 4809   6.269   2.850   3.351  0.5658 -0.1286 -0.1625
   50CHL1   H3' 4810   6.316   2.927   3.320  1.0793  0.2947  1.5536
   50CHL1    C4 4811   6.171   3.019   3.504  0.2492 -0.3164  0.9112
   50CHL1   H4A 4812   6.226   3.095   3.444 -1.7063 -0.1364 -0.7343
   50CHL1   H4B 4813   6.073   3.000   3.456 -0.2507  1.1316  1.3056
   50CHL1    C5 4814   6.163   3.066   3.651 -0.0335  0.0443  0.1535
   50CHL1    C6 4815   6.048   3.115   3.692 -0.2453  0.6038 -0.4117
   50CHL1    H6 4816   5.969   3.116   3.616 -0.5324 -0.7086 -0.1481
   50CHL1    C7 4817   6.025   3.169   3.831  0.2506 -0.0848 -0.3568
   50CHL1   H7A 4818   5.976   3.269   3.834  0.7038  0.2009  3.8668
   50CHL1   H7B 4819   5.952   3.101   3.881 -1.5597  0.7502 -1.7305
   50CHL1    C8 4820   6.152   3.179   3.917  0.5673  0.1302 -0.0432
   50CHL1    H8 4821   6.207   3.274   3.902 -2.1207  1.4449 -2.5658
   50CHL1   C14 4822   6.124   3.164   4.070 -0.4039  0.8972  0.5996
   50CHL1   H14 4823   6.075   3.065   4.080 -0.4557  0.9111  0.4961
   50CHL1   C15 4824   6.013   3.256   4.128 -0.7297  0.2065 -0.4724
   50CHL1  H15A 4825   6.022   3.361   4.093 -0.8159 -0.1821 -1.7121
   50CHL1  H15B 4826   5.911   3.220   4.102  0.4389 -3.5347 -0.4433
   50CHL1   C16 4827   6.038   3.250   4.278  0.3484  0.1062 -0.0125
   50CHL1  H16A 4828   6.031   3.354   4.316 -1.0076  0.3301 -0.7919
   50CHL1  H16B 4829   5.943   3.203   4.313 -0.2367  1.7921  0.7810
   50CHL1   C17 4830   6.174   3.181   4.305 -0.1043 -0.3973 -0.2682
   50CHL1   H17 4831   6.137   3.081   4.336  2.3808 -1.2737  0.0717
   50CHL1   C13 4832   6.246   3.179   4.172 -0.7419 -0.2317 -0.3458
   50CHL1   C18 4833   6.316   3.312   4.141  0.2939 -0.6326  0.7073
   50CHL1  H18A 4834   6.398   3.337   4.213  0.0034 -0.5446  1.0103
   50CHL1  H18B 4835   6.362   3.315   4.040 -0.7785 -0.0768  0.2266
   50CHL1  H18C 4836   6.239   3.391   4.147 -1.4717 -2.3674  3.1148
   50CHL1   C12 4837   6.339   3.060   4.129  0.0885 -0.1029 -0.2921
   50CHL1  H12A 4838   6.425   3.080   4.196 -2.0466 -0.2871  2.7314
   50CHL1  H12B 4839   6.283   2.966   4.149 -1.5823  1.0389  0.5683
   50CHL1   C11 4840   6.377   3.058   3.980  0.1733 -0.2446 -0.2553
   50CHL1  H11A 4841   6.438   3.147   3.954 -0.6868  0.1319 -1.0342
   50CHL1  H11B 4842   6.448   2.975   3.957  1.1135  0.3151  0.5695
   50CHL1    C9 4843   6.249   3.059   3.888 -0.5934  0.2992  0.1452
   50CHL1    H9 4844   6.189   2.966   3.900 -1.3715  0.8259  0.4742
   50CHL1   C10 4845   6.287   3.050   3.741  0.1593 -0.4710  0.0696
   50CHL1   C19 4846   6.378   3.165   3.706  0.0428  0.0520 -0.5322
   50CHL1  H19A 4847   6.343   3.269   3.724 -0.3296 -0.0177 -0.8470
   50CHL1  H19B 4848   6.479   3.169   3.752  1.4274 -1.2289 -3.2589
   50CHL1  H19C 4849   6.411   3.160   3.600 -0.1007  0.0798 -0.5788
   50CHL1    C1 4850   6.358   2.917   3.700  0.4128  0.3572 -0.0191
   50CHL1   H1A 4851   6.455   2.907   3.753  0.6795 -0.2289 -0.5947
   50CHL1   H1B 4852   6.301   2.831   3.743  1.4643 -1.9173 -2.8133
   50CHL1    C2 4853   6.381   2.885   3.552  0.2959  0.1300  0.1036
   50CHL1   H2A 4854   6.433   2.787   3.561 -1.8927 -1.1002  0.3875
   50CHL1   H2B 4855   6.440   2.966   3.505  0.2215  1.3253  1.9656
   50CHL1   C20 4856   6.247   3.250   4.419  0.0009 -0.1126 -0.4422
   50CHL1   H20 4857   6.261   3.352   4.379 -0.9477 -0.5310 -1.9162
   50CHL1   C21 4858   6.388   3.196   4.444  0.4128 -0.0688 -0.1396
   50CHL1  H21A 4859   6.391   3.085   4.440  0.5905 -0.0728  0.0373
   50CHL1  H21B 4860   6.426   3.235   4.541  2.4822 -0.3588 -0.7867
   50CHL1  H21C 4861   6.461   3.218   4.364  1.8420 -0.6074  0.9563
   50CHL1   C22 4862   6.171   3.251   4.548 -0.0551  0.2649  0.2369
   50CHL1  H22A 4863   6.211   3.324   4.621 -1.4185 -0.1712  1.4772
   50CHL1  H22B 4864   6.068   3.289   4.525 -1.5822 -2.6186  1.8254
   50CHL1   C23 4865   6.169   3.114   4.631 -0.0151 -0.7119 -0.5529
   50CHL1  H23A 4866   6.135   3.024   4.575  1.0724 -1.6579  0.2538
   50CHL1  H23B 4867   6.275   3.095   4.658  0.3111  2.1230  0.5035
   50CHL1   C24 4868   6.082   3.133   4.754  0.2896  0.2636 -0.0525
   50CHL1  H24A 4869   6.083   3.241   4.780 -3.7861  0.4293  0.0120
   50CHL1  H24B 4870   5.976   3.118   4.724  0.9712 -1.6588 -1.7302
   50CHL1   C25 4871   6.127   3.038   4.868  0.3327  0.2583  0.8918
   50CHL1   H25 4872   6.166   2.942   4.826  0.1928  0.7107 -0.3026
   50CHL1   C26 4873   6.254   3.078   4.939  0.6911  0.0347  0.1179
   50CHL1  H26A 4874   6.332   3.100   4.863 -1.7832  1.1238 -2.2422
   50CHL1  H26B 4875   6.232   3.170   4.996  0.5689 -0.2897  0.6035
   50CHL1  H26C 4876   6.270   2.998   5.015  2.4550  0.0751 -0.1751
   50CHL1   C27 4877   6.015   3.011   4.964  0.3703  0.1739  0.0773
   50CHL1  H27A 4878   6.039   2.957   5.058  1.7663 -1.4006 -1.1234
   50CHL1  H27B 4879   5.975   3.104   5.011  0.3481 -0.9509  2.3971
   50CHL1  H27C 4880   5.924   2.965   4.920 -0.4573 -0.1843  2.0931
   51CHL1    C3 4881   5.049   3.137   3.674  0.1966 -0.0549 -0.2372
   51CHL1    H3 4882   5.083   3.036   3.642  2.0974  0.9010 -1.3971
   51CHL1    O3 4883   4.996   3.198   3.558 -0.7956  0.5676  0.0622
   51CHL1   H3' 4884   4.943   3.128   3.520  0.6962  0.4508 -2.0003
   51CHL1    C4 4885   4.933   3.125   3.775 -0.0980 -0.4429  0.1574
   51CHL1   H4A 4886   4.876   3.220   3.778 -0.1153 -0.3669 -1.4241
   51CHL1   H4B 4887   4.856   3.052   3.741 -1.0567  0.7426 -0.2728
   51CHL1    C5 4888   4.986   3.086   3.912  0.1127  0.5562  0.1549
   51CHL1    C6 4889   4.925   2.983   3.976 -0.4335  0.0667  0.2975
   51CHL1    H6 4890   4.843   2.931   3.924  1.1119  0.8976 -3.2923
   51CHL1    C7 4891   4.945   2.961   4.124 -0.2199  0.4820 -0.6346
   51CHL1   H7A 4892   4.848   2.933   4.169 -0.9378  1.4813 -1.5106
   51CHL1   H7B 4893   5.011   2.875   4.151 -3.2102 -1.5615  0.7243
   51CHL1    C8 4894   5.009   3.079   4.196  0.2768 -0.4770 -0.3452
   51CHL1    H8 4895   4.935   3.161   4.201 -1.5623 -2.1344  2.3917
   51CHL1   C14 4896   5.052   3.024   4.335 -0.0193 -0.6012  0.6052
   51CHL1   H14 4897   5.132   2.950   4.311  0.3686 -1.1321  3.2308
   51CHL1   C15 4898   4.948   2.951   4.414  0.4538  0.0949 -0.1834
   51CHL1  H15A 4899   4.855   3.011   4.418  0.6368  0.3624  0.0411
   51CHL1  H15B 4900   4.940   2.845   4.381  1.5408  0.3706 -1.3888
   51CHL1   C16 4901   5.006   2.953   4.556 -0.1986 -0.5602 -0.2734
   51CHL1  H16A 4902   4.924   2.989   4.622  1.5709 -1.0020  2.3362
   51CHL1  H16B 4903   5.036   2.856   4.602 -1.0744  0.2327  2.1301
   51CHL1   C17 4904   5.132   3.044   4.554 -0.3185 -0.1060  0.6631
   51CHL1   H17 4905   5.226   2.986   4.541  0.9327  1.3336  2.7420
   51CHL1   C13 4906   5.110   3.131   4.430  0.6852  0.0240 -0.1559
   51CHL1   C18 4907   5.003   3.245   4.464 -0.1263  0.5208  1.1883
   51CHL1  H18A 4908   4.969   3.285   4.366  1.0470 -3.7919 -1.2332
   51CHL1  H18B 4909   4.915   3.195   4.511  0.9171 -1.5269  1.0585
   51CHL1  H18C 4910   5.043   3.319   4.536  0.4759  0.9379  0.4368
   51CHL1   C12 4911   5.234   3.181   4.357 -0.2076 -0.4204  1.3426
   51CHL1  H12A 4912   5.296   3.255   4.414 -0.5627  1.4100 -0.5202
   51CHL1  H12B 4913   5.299   3.091   4.357 -0.2143 -0.4502 -0.6481
   51CHL1   C11 4914   5.211   3.237   4.213  0.0792  0.4283 -0.3895
   51CHL1  H11A 4915   5.169   3.339   4.228  0.4357  0.1253  3.9302
   51CHL1  H11B 4916   5.311   3.250   4.168  0.9392  1.9275  1.7907
   51CHL1    C9 4917   5.129   3.138   4.124  0.5340  0.5160 -0.6461
   51CHL1    H9 4918   5.200   3.054   4.106  2.6567  1.4053  2.6807
   51CHL1   C10 4919   5.089   3.176   3.976 -0.4907  0.4252 -0.6616
   51CHL1   C19 4920   5.033   3.324   3.999 -0.4850 -0.6549 -0.8478
   51CHL1  H19A 4921   4.969   3.359   3.915  1.3459  2.1369 -1.1795
   51CHL1  H19B 4922   4.973   3.332   4.092  1.2368  1.0002  0.1694
   51CHL1  H19C 4923   5.112   3.400   4.013 -1.5111  0.0013  2.0496
   51CHL1    C1 4924   5.206   3.178   3.873 -0.0877 -0.7427  0.7442
   51CHL1   H1A 4925   5.288   3.246   3.904 -0.1040 -0.4365  0.1184
   51CHL1   H1B 4926   5.245   3.074   3.871  0.6467 -0.4901  1.3578
   51CHL1    C2 4927   5.161   3.220   3.734 -1.2641 -1.0290  0.0571
   51CHL1   H2A 4928   5.244   3.221   3.660 -0.3863  1.8463  0.9497
   51CHL1   H2B 4929   5.128   3.326   3.734  0.8152 -0.3017  1.7740
   51CHL1   C20 4930   5.148   3.124   4.682 -0.9715 -0.4538  0.4941
   51CHL1   H20 4931   5.063   3.194   4.692  1.3670  2.5606  0.5084
   51CHL1   C21 4932   5.280   3.207   4.685  0.5710 -0.5685  0.6048
   51CHL1  H21A 4933   5.315   3.218   4.790 -2.7627 -0.0542  1.7821
   51CHL1  H21B 4934   5.242   3.305   4.649  0.4726 -1.3776 -1.6756
   51CHL1  H21C 4935   5.365   3.163   4.628  0.7608 -0.2680  0.6554
   51CHL1   C22 4936   5.147   3.024   4.801  0.1967  0.1492 -0.2873
   51CHL1  H22A 4937   5.128   3.089   4.889 -0.5397 -1.1927  0.5745
   51CHL1  H22B 4938   5.051   2.968   4.792 -0.7265  1.8702 -1.8873
   51CHL1   C23 4939   5.258   2.928   4.816  0.2907 -0.4987 -0.0759
   51CHL1  H23A 4940   5.265   2.851   4.736  2.6942  0.0976 -0.5166
   51CHL1  H23B 4941   5.360   2.969   4.834  0.5292 -2.0412  2.6923
   51CHL1   C24 4942   5.227   2.849   4.948  0.4309  0.1700  0.4806
   51CHL1  H24A 4943   5.122   2.813   4.946 -0.0688  1.2987  2.5727
   51CHL1  H24B 4944   5.293   2.761   4.960 -0.1553 -0.1646  1.3631
   51CHL1   C25 4945   5.245   2.930   5.074  0.8308  0.5845  0.0982
   51CHL1   H25 4946   5.180   3.019   5.087  0.2801 -0.0170  1.7863
   51CHL1   C26 4947   5.217   2.847   5.197 -0.5915  0.1073 -0.1301
   51CHL1  H26A 4948   5.248   2.902   5.288  0.2524  0.2242 -0.4803
   51CHL1  H26B 4949   5.114   2.806   5.204 -0.3307 -0.5987 -0.4032
   51CHL1  H26C 4950   5.278   2.755   5.189 -1.0390 -0.0744 -1.6722
   51CHL1   C27 4951   5.388   2.983   5.087  0.0364  0.0255  0.4134
   51CHL1  H27A 4952   5.403   3.036   5.184  1.5325  2.9446 -1.2530
   51CHL1  H27B 4953   5.468   2.906   5.089 -0.1034 -0.1060  1.1979
   51CHL1  H27C 4954   5.416   3.066   5.018  2.4870 -1.0537 -0.0041
   52CHL1    C3 4955   4.563   5.322   3.704 -0.3290 -0.2198  0.1709
   52CHL1    H3 4956   4.455   5.347   3.718 -0.0059  0.8939  0.8189
   52CHL1    O3 4957   4.589   5.357   3.565 -0.2891  0.2419 -0.4447
   52CHL1   H3' 4958   4.620   5.272   3.534 -4.1115 -1.3353 -0.3750
   52CHL1    C4 4959   4.650   5.406   3.801 -0.1354  0.4133  0.3532
   52CHL1   H4A 4960   4.757   5.393   3.777 -0.1949  0.7850 -0.1323
   52CHL1   H4B 4961   4.627   5.509   3.768  1.4266  0.7668  0.3085
   52CHL1    C5 4962   4.623   5.376   3.945 -0.0126  0.1062 -0.1929
   52CHL1    C6 4963   4.598   5.477   4.032  1.0667  0.2162  0.6813
   52CHL1    H6 4964   4.581   5.580   3.997  2.8049  0.7882  1.4393
   52CHL1    C7 4965   4.579   5.448   4.182  0.5997 -0.3600  0.7129
   52CHL1   H7A 4966   4.645   5.509   4.247 -0.1262 -0.5811  1.6726
   52CHL1   H7B 4967   4.473   5.469   4.207  0.5495 -0.5118  0.6318
   52CHL1    C8 4968   4.607   5.305   4.229 -0.4769  0.4092 -0.4175
   52CHL1    H8 4969   4.718   5.298   4.235 -0.4764  1.4568  1.4726
   52CHL1   C14 4970   4.544   5.260   4.361  0.5167 -0.3878 -0.5645
   52CHL1   H14 4971   4.437   5.238   4.346  0.6235 -1.4050  0.1146
   52CHL1   C15 4972   4.557   5.358   4.479 -0.1109 -0.8317  0.6445
   52CHL1  H15A 4973   4.659   5.403   4.478 -0.6384  0.4073  1.0262
   52CHL1  H15B 4974   4.492   5.447   4.468  1.7285  0.4010 -0.9555
   52CHL1   C16 4975   4.540   5.274   4.600 -0.2746  0.2101 -0.1898
   52CHL1  H16A 4976   4.629   5.281   4.666  0.6041 -2.2496 -0.9977
   52CHL1  H16B 4977   4.464   5.311   4.672  2.0911 -1.4718  3.4581
   52CHL1   C17 4978   4.517   5.129   4.550  0.2258 -0.3052 -0.7573
   52CHL1   H17 4979   4.410   5.104   4.535  0.4627 -1.8541 -0.0809
   52CHL1   C13 4980   4.586   5.121   4.416 -0.6443  0.1733 -0.2366
   52CHL1   C18 4981   4.736   5.130   4.445  0.5101 -0.2244 -0.0279
   52CHL1  H18A 4982   4.787   5.139   4.346 -2.1396 -0.1566 -1.4790
   52CHL1  H18B 4983   4.764   5.218   4.505 -0.1121  0.3399 -0.5529
   52CHL1  H18C 4984   4.778   5.041   4.497 -0.0765 -1.0211 -0.8749
   52CHL1   C12 4985   4.545   5.018   4.309 -0.8168 -0.1664  0.1037
   52CHL1  H12A 4986   4.588   4.918   4.330  1.3545  0.8054  0.5528
   52CHL1  H12B 4987   4.436   5.006   4.292 -0.6401 -0.3298 -0.9764
   52CHL1   C11 4988   4.607   5.055   4.171  0.4253  0.2809  0.0556
   52CHL1  H11A 4989   4.718   5.049   4.167  0.6379  3.3361 -0.6858
   52CHL1  H11B 4990   4.570   4.985   4.092  1.6318  0.0585 -0.3318
   52CHL1    C9 4991   4.571   5.200   4.125  0.6964 -0.4152  0.5068
   52CHL1    H9 4992   4.460   5.191   4.128  0.6240 -0.9203 -1.6312
   52CHL1   C10 4993   4.630   5.229   3.979  0.6886 -0.4513  0.5624
   52CHL1   C19 4994   4.779   5.187   3.971  0.1578  0.2523  0.8308
   52CHL1  H19A 4995   4.832   5.228   3.882  0.3845  0.6000  1.1245
   52CHL1  H19B 4996   4.827   5.225   4.064 -1.4566  2.1212  0.9659
   52CHL1  H19C 4997   4.788   5.077   3.959  4.0060  0.4084  1.0459
   52CHL1    C1 4998   4.544   5.154   3.876 -0.0685 -0.0343 -0.2104
   52CHL1   H1A 4999   4.570   5.047   3.886 -0.9220 -0.2949 -0.7226
   52CHL1   H1B 5000   4.436   5.173   3.891  0.2845  3.7248 -1.1440
   52CHL1    C2 5001   4.582   5.179   3.726 -0.5740  0.2981 -0.1673
   52CHL1   H2A 5002   4.509   5.121   3.666 -0.9881 -0.2140  0.8093
   52CHL1   H2B 5003   4.686   5.142   3.709 -0.2687  0.5440  1.0815
   52CHL1   C20 5004   4.546   5.023   4.665 -0.8481  0.0811  0.3532
   52CHL1   H20 5005   4.655   5.027   4.687 -0.8794 -1.3574  0.9330
   52CHL1   C21 5006   4.520   4.881   4.604  0.2338 -0.0503 -0.3075
   52CHL1  H21A 5007   4.589   4.857   4.520  0.3459 -1.3008  0.1153
   52CHL1  H21B 5008   4.416   4.867   4.569 -0.3384 -1.1339  1.6664
   52CHL1  H21C 5009   4.531   4.808   4.687 -0.5284 -0.5782 -0.6611
   52CHL1   C22 5010   4.473   5.052   4.794  0.4336 -0.0214  0.2472
   52CHL1  H22A 5011   4.497   5.150   4.840 -0.6932  0.1713  0.4580
   52CHL1  H22B 5012   4.365   5.056   4.766  0.7036 -1.2508 -1.0839
   52CHL1   C23 5013   4.501   4.949   4.906  0.9134  0.6360  0.1515
   52CHL1  H23A 5014   4.472   4.847   4.873  0.8824  0.1340  1.6505
   52CHL1  H23B 5015   4.609   4.951   4.931  0.6824  0.0172  1.2798
   52CHL1   C24 5016   4.433   4.986   5.038  0.0501  0.0275 -0.2094
   52CHL1  H24A 5017   4.474   5.084   5.069 -0.6150 -0.5021  2.7013
   52CHL1  H24B 5018   4.325   5.004   5.022 -0.0175  0.0330  0.2264
   52CHL1   C25 5019   4.462   4.888   5.159  0.4084  0.1104  0.0284
   52CHL1   H25 5020   4.570   4.862   5.150  0.3221 -2.3206  3.8756
   52CHL1   C26 5021   4.430   4.943   5.293 -1.0201 -0.7471 -0.2522
   52CHL1  H26A 5022   4.324   4.977   5.290 -1.4859 -2.0542  0.3950
   52CHL1  H26B 5023   4.450   4.856   5.359  1.9131 -0.0197 -0.0351
   52CHL1  H26C 5024   4.496   5.022   5.334 -0.2043 -1.8790  0.6800
   52CHL1   C27 5025   4.388   4.756   5.138 -0.2639 -0.1311 -0.3816
   52CHL1  H27A 5026   4.408   4.704   5.042 -0.2149 -1.3884  0.2879
   52CHL1  H27B 5027   4.413   4.687   5.221  1.8887  0.5631 -0.4187
   52CHL1  H27C 5028   4.280   4.771   5.159 -0.4258 -1.5694 -0.1216
   53CHL1    C3 5029   4.041   5.534   3.554  0.0254 -0.3801  0.3655
   53CHL1    H3 5030   3.933   5.509   3.565 -0.1898  0.0001 -0.7114
   53CHL1    O3 5031   4.059   5.555   3.413 -0.1601  0.1573  0.0027
   53CHL1   H3' 5032   3.976   5.544   3.365 -1.3112 -1.2110  2.1411
   53CHL1    C4 5033   4.074   5.656   3.629 -0.0280  0.2966 -0.6121
   53CHL1   H4A 5034   4.181   5.678   3.608  0.7673 -2.2717  0.3486
   53CHL1   H4B 5035   4.028   5.749   3.590  0.6108  1.3015  0.9372
   53CHL1    C5 5036   4.051   5.636   3.779 -0.3789  0.7126 -0.3168
   53CHL1    C6 5037   3.963   5.703   3.850  0.0009 -1.2399 -0.0971
   53CHL1    H6 5038   3.892   5.770   3.799  0.4056 -1.7588 -1.3967
   53CHL1    C7 5039   3.947   5.698   4.000 -0.2469 -0.5577 -0.0528
   53CHL1   H7A 5040   3.961   5.794   4.055  0.6277 -0.9631  0.4466
   53CHL1   H7B 5041   3.849   5.654   4.029 -0.7164  1.2754  1.2912
   53CHL1    C8 5042   4.065   5.619   4.058 -0.0921  0.6719  0.7743
   53CHL1    H8 5043   4.158   5.680   4.065 -1.4239  3.1341 -1.0671
   53CHL1   C14 5044   4.027   5.581   4.201  0.2624 -0.0190  0.5285
   53CHL1   H14 5045   3.950   5.502   4.190  1.0392 -0.4894 -2.5192
   53CHL1   C15 5046   3.961   5.683   4.290  0.0999  0.2479  0.1359
   53CHL1  H15A 5047   4.011   5.782   4.278 -1.6978  1.0740 -1.2060
   53CHL1  H15B 5048   3.854   5.696   4.262  0.2586 -2.2883 -2.0531
   53CHL1   C16 5049   3.970   5.621   4.431  0.2960 -0.4131  0.3611
   53CHL1  H16A 5050   4.013   5.698   4.498 -0.2964 -0.7631  1.1540
   53CHL1  H16B 5051   3.864   5.599   4.454 -0.1298  2.2310  1.2877
   53CHL1   C17 5052   4.057   5.491   4.420  0.2181 -0.6490 -0.1534
   53CHL1   H17 5053   3.976   5.418   4.399  0.0719 -1.0658  1.6550
   53CHL1   C13 5054   4.135   5.516   4.283 -0.2733  0.2034 -0.1151
   53CHL1   C18 5055   4.249   5.621   4.308  0.0861 -0.5799 -0.4939
   53CHL1  H18A 5056   4.319   5.598   4.391  0.4705  0.0506 -0.6387
   53CHL1  H18B 5057   4.316   5.627   4.219  1.4464  0.0674  0.5382
   53CHL1  H18C 5058   4.218   5.725   4.330  3.7411  0.1311  2.2128
   53CHL1   C12 5059   4.178   5.382   4.213  0.4298 -0.0207 -0.4364
   53CHL1  H12A 5060   4.270   5.352   4.269  1.3214 -0.4371 -2.0728
   53CHL1  H12B 5061   4.111   5.295   4.232  0.1477  0.7314  2.4896
   53CHL1   C11 5062   4.208   5.404   4.058 -0.0168 -0.0273  0.4223
   53CHL1  H11A 5063   4.304   5.454   4.082  0.2739 -1.6291  2.9059
   53CHL1  H11B 5064   4.229   5.310   4.003  0.7541 -0.7394  1.8891
   53CHL1    C9 5065   4.094   5.490   3.983  0.1810 -0.4807  0.7144
   53CHL1    H9 5066   4.009   5.419   3.985  1.2628 -1.8008  1.7844
   53CHL1   C10 5067   4.139   5.521   3.833 -0.0745  0.8487  0.0109
   53CHL1   C19 5068   4.282   5.575   3.838 -0.3026 -0.1061 -0.5550
   53CHL1  H19A 5069   4.280   5.670   3.896  0.1176  2.8459 -4.9108
   53CHL1  H19B 5070   4.364   5.516   3.884 -0.5313  0.7270  1.0103
   53CHL1  H19C 5071   4.309   5.595   3.732 -2.0244  1.2284 -0.7998
   53CHL1    C1 5072   4.130   5.399   3.742 -0.0120  0.8131  0.2016
   53CHL1   H1A 5073   4.212   5.335   3.781 -2.3043 -1.7200  1.1432
   53CHL1   H1B 5074   4.034   5.348   3.767  0.7096 -0.2848  0.8233
   53CHL1    C2 5075   4.140   5.426   3.592  0.6711  0.0198  0.1363
   53CHL1   H2A 5076   4.110   5.331   3.542 -0.9147  0.9002 -0.6642
   53CHL1   H2B 5077   4.243   5.457   3.565  1.4137  0.3607  3.0459
   53CHL1   C20 5078   4.123   5.442   4.548 -0.3122 -0.5235 -0.2049
   53CHL1   H20 5079   4.222   5.485   4.573 -0.4319 -0.7980  0.8046
   53CHL1   C21 5080   4.160   5.293   4.525  0.5042 -0.0513 -0.4071
   53CHL1  H21A 5081   4.215   5.250   4.612 -0.7046 -0.6684  0.0748
   53CHL1  H21B 5082   4.218   5.279   4.431 -0.5560 -0.0660 -1.0766
   53CHL1  H21C 5083   4.068   5.233   4.512  1.1055 -1.2518  0.6369
   53CHL1   C22 5084   4.035   5.462   4.675  0.0314  0.2372 -0.9055
   53CHL1  H22A 5085   4.025   5.572   4.689 -0.1546  0.1339 -0.1830
   53CHL1  H22B 5086   3.935   5.415   4.672 -1.3421  2.7620  1.1502
   53CHL1   C23 5087   4.108   5.398   4.800 -0.8805 -0.5257 -0.1708
   53CHL1  H23A 5088   4.110   5.287   4.794  0.9029 -0.6320  1.5681
   53CHL1  H23B 5089   4.216   5.423   4.802 -1.4678  2.3854  1.5555
   53CHL1   C24 5090   4.054   5.435   4.940 -0.0681  0.2149 -0.0282
   53CHL1  H24A 5091   4.071   5.544   4.950 -1.1248  0.1992  3.3649
   53CHL1  H24B 5092   3.948   5.411   4.966  0.4081 -0.9166  0.9659
   53CHL1   C25 5093   4.141   5.366   5.044  0.3196 -0.5509  0.0438
   53CHL1   H25 5094   4.247   5.394   5.027  0.7250 -0.1969  2.6380
   53CHL1   C26 5095   4.106   5.425   5.184 -0.3224  0.1651 -0.4044
   53CHL1  H26A 5096   4.107   5.535   5.195 -0.8122  0.1249  0.0968
   53CHL1  H26B 5097   4.012   5.381   5.226  0.4082 -0.7022  0.3744
   53CHL1  H26C 5098   4.191   5.387   5.244  1.8110  0.1611 -3.2462
   53CHL1   C27 5099   4.130   5.213   5.041 -0.1645 -0.6064 -0.0497
   53CHL1  H27A 5100   4.177   5.177   4.947  2.1890  0.6510  0.5710
   53CHL1  H27B 5101   4.186   5.163   5.122  0.6094 -0.3329 -0.4011
   53CHL1  H27C 5102   4.028   5.171   5.053  0.6868 -2.4589  1.2031
   54CHL1    C3 5103   5.100   5.051   3.580  0.5662 -0.4456 -0.4701
   54CHL1    H3 5104   5.043   5.141   3.612  0.7028 -0.3609 -0.4619
   54CHL1    O3 5105   5.129   5.069   3.445  0.5833  0.0412  0.2281
   54CHL1   H3' 5106   5.166   4.985   3.416 -1.3677 -0.6645 -0.3573
   54CHL1    C4 5107   5.228   5.044   3.665 -0.0753 -0.1366 -0.4491
   54CHL1   H4A 5108   5.282   4.953   3.632  2.1824  1.1853 -0.6371
   54CHL1   H4B 5109   5.298   5.127   3.644  0.9156 -1.1943 -1.4682
   54CHL1    C5 5110   5.200   5.040   3.816  0.4535  0.7728  0.2721
   54CHL1    C6 5111   5.244   5.135   3.902  0.0819 -0.4750 -0.0800
   54CHL1    H6 5112   5.317   5.209   3.869 -1.2396  1.4570  1.1333
   54CHL1    C7 5113   5.218   5.134   4.049 -0.4432 -0.4822  0.6167
   54CHL1   H7A 5114   5.313   5.162   4.100 -0.6956  1.1481  0.2318
   54CHL1   H7B 5115   5.143   5.213   4.070  0.5896  0.1718  2.0668
   54CHL1    C8 5116   5.177   4.993   4.102  0.0142  0.4058  0.1573
   54CHL1    H8 5117   5.258   4.917   4.093 -1.2413 -1.0298  0.4888
   54CHL1   C14 5118   5.140   5.001   4.251 -0.2506 -0.5670 -0.1797
   54CHL1   H14 5119   5.058   5.076   4.257 -0.2565 -0.3135 -2.4966
   54CHL1   C15 5120   5.252   5.033   4.353 -0.3266  0.7485  0.6349
   54CHL1  H15A 5121   5.339   4.968   4.330 -0.7008  0.0346  1.1976
   54CHL1  H15B 5122   5.277   5.140   4.338 -1.0024  0.6759 -1.2972
   54CHL1   C16 5123   5.174   5.005   4.483 -0.8919 -0.2157 -0.9553
   54CHL1  H16A 5124   5.237   4.974   4.569 -2.9704  0.4464  0.9201
   54CHL1  H16B 5125   5.128   5.092   4.535  2.3156 -0.2456  2.3402
   54CHL1   C17 5126   5.057   4.909   4.451 -0.0709 -0.9899 -0.5217
   54CHL1   H17 5127   4.970   4.977   4.459  1.0116  0.8026 -2.7165
   54CHL1   C13 5128   5.074   4.874   4.305 -0.2791  0.3942 -0.2408
   54CHL1   C18 5129   5.178   4.762   4.307 -0.2695 -0.8272 -0.0976
   54CHL1  H18A 5130   5.133   4.661   4.318  0.0785 -1.0102 -0.3255
   54CHL1  H18B 5131   5.242   4.760   4.216 -0.9729  0.1737 -0.6292
   54CHL1  H18C 5132   5.265   4.785   4.372 -0.7789  1.5345 -0.1809
   54CHL1   C12 5133   4.955   4.832   4.220 -0.5882 -0.1169  0.0318
   54CHL1  H12A 5134   4.910   4.735   4.250 -2.9815  0.3295 -1.8217
   54CHL1  H12B 5135   4.874   4.908   4.220 -0.7439 -0.2480  1.8545
   54CHL1   C11 5136   4.993   4.806   4.073  0.0870  0.4237 -0.1164
   54CHL1  H11A 5137   5.070   4.726   4.063  0.0414  0.3626  0.0123
   54CHL1  H11B 5138   4.910   4.772   4.008 -0.3410  0.6868  0.2896
   54CHL1    C9 5139   5.060   4.930   4.012 -0.0680  0.1180  0.0075
   54CHL1    H9 5140   4.983   5.010   4.006 -1.4568 -1.1144  0.8367
   54CHL1   C10 5141   5.109   4.922   3.862  0.3495  0.6721  0.3331
   54CHL1   C19 5142   5.199   4.800   3.854  0.4508 -0.2055  0.0082
   54CHL1  H19A 5143   5.272   4.790   3.937  1.0064  1.6491 -0.2083
   54CHL1  H19B 5144   5.137   4.708   3.850 -0.6706  0.4529  1.1423
   54CHL1  H19C 5145   5.252   4.801   3.757  1.0979 -1.1997  0.3409
   54CHL1    C1 5146   4.984   4.903   3.768 -0.4054 -0.1945 -0.4731
   54CHL1   H1A 5147   4.945   4.801   3.789 -0.7238  0.0198 -0.0218
   54CHL1   H1B 5148   4.906   4.981   3.782 -0.4877 -0.3805  0.1629
   54CHL1    C2 5149   5.026   4.918   3.614 -0.3970 -0.3373  0.4880
   54CHL1   H2A 5150   4.937   4.916   3.547  0.7903  2.1593 -1.3350
   54CHL1   H2B 5151   5.086   4.828   3.589  0.6589  0.8311 -1.3623
   54CHL1   C20 5152   5.048   4.798   4.556  0.7497 -0.3607  0.2215
   54CHL1   H20 5153   5.137   4.733   4.538  1.6770  0.1134  2.6582
   54CHL1   C21 5154   4.924   4.710   4.535  0.6794  0.7757 -0.1986
   54CHL1  H21A 5155   4.835   4.767   4.571  1.4390  1.3468  0.8085
   54CHL1  H21B 5156   4.933   4.618   4.596 -0.8481  1.0600  0.5168
   54CHL1  H21C 5157   4.905   4.679   4.430 -0.3054  1.8787 -0.3609
   54CHL1   C22 5158   5.052   4.838   4.705  0.1566 -0.0998 -0.6059
   54CHL1  H22A 5159   5.031   4.742   4.757 -1.4685 -0.3399 -1.6671
   54CHL1  H22B 5160   5.152   4.873   4.739  0.4075 -1.3941  0.0444
   54CHL1   C23 5161   4.938   4.947   4.749 -0.0983 -0.0733  0.4746
   54CHL1  H23A 5162   4.973   5.039   4.697  2.3879  0.2287  2.4642
   54CHL1  H23B 5163   4.843   4.904   4.712 -0.7587  3.1881 -2.0869
   54CHL1   C24 5164   4.927   4.948   4.904  0.0183  0.3510  0.1371
   54CHL1  H24A 5165   4.837   5.001   4.942 -1.4230 -3.2623  2.1452
   54CHL1  H24B 5166   4.914   4.841   4.927 -0.5661  0.2545 -0.5969
   54CHL1   C25 5167   5.057   4.978   4.979  0.4351  0.0698 -0.1038
   54CHL1   H25 5168   5.134   4.905   4.946 -1.5995 -2.1368 -0.2227
   54CHL1   C26 5169   5.108   5.124   4.953 -0.3366 -0.0482  0.2523
   54CHL1  H26A 5170   5.020   5.187   4.975 -1.2818 -1.0994 -0.3809
   54CHL1  H26B 5171   5.195   5.151   5.016  0.3460  0.2000 -0.7654
   54CHL1  H26C 5172   5.152   5.148   4.853 -1.0232  0.5553  0.0934
   54CHL1   C27 5173   5.028   4.957   5.131 -0.4241 -0.6043  0.7064
   54CHL1  H27A 5174   5.003   4.850   5.152 -0.7504 -0.4711  1.0115
   54CHL1  H27B 5175   5.115   4.991   5.191  1.4586 -2.0771 -1.0623
   54CHL1  H27C 5176   4.947   5.024   5.167  0.6127  0.9417  0.2454
   55CHL1    C3 5177   4.210   0.879   3.361 -0.2655 -0.2681 -0.4846
   55CHL1    H3 5178   4.309   0.915   3.328 -0.6907  1.1386 -0.2988
   55CHL1    O3 5179   4.157   0.802   3.263 -1.0870 -0.1294  0.0274
   55CHL1   H3' 5180   4.228   0.740   3.244 -1.3625  0.1872 -2.2600
   55CHL1    C4 5181   4.233   0.795   3.490  0.6251  0.0487 -0.0243
   55CHL1   H4A 5182   4.138   0.743   3.513 -0.5754  1.8953 -0.5366
   55CHL1   H4B 5183   4.314   0.721   3.477 -0.1206 -0.9494  0.8621
   55CHL1    C5 5184   4.251   0.874   3.615 -0.0181  0.5203  0.4961
   55CHL1    C6 5185   4.346   0.836   3.698 -0.3454 -0.3958 -0.0949
   55CHL1    H6 5186   4.410   0.750   3.673 -1.0950 -0.7854 -0.7187
   55CHL1    C7 5187   4.364   0.888   3.836  0.2870 -0.2246 -0.2455
   55CHL1   H7A 5188   4.380   0.810   3.914  1.6207  1.5631  1.3696
   55CHL1   H7B 5189   4.462   0.942   3.836 -0.3641  1.0526  1.1627
   55CHL1    C8 5190   4.249   0.982   3.878  0.3014 -0.3687  0.1435
   55CHL1    H8 5191   4.169   0.911   3.908  1.3741 -1.4897  0.4498
   55CHL1   C14 5192   4.295   1.076   3.982 -0.3011 -0.4325 -0.0441
   55CHL1   H14 5193   4.362   1.148   3.930 -1.9780  0.1949 -1.4389
   55CHL1   C15 5194   4.390   1.018   4.084 -0.2176 -0.1943  0.3114
   55CHL1  H15A 5195   4.352   0.916   4.105 -0.7133 -0.3503 -1.2396
   55CHL1  H15B 5196   4.491   1.000   4.041  0.6713 -0.2548  2.2775
   55CHL1   C16 5197   4.389   1.116   4.201 -0.0954 -0.5042 -0.3530
   55CHL1  H16A 5198   4.349   1.075   4.296 -1.2601  1.9808  0.3105
   55CHL1  H16B 5199   4.491   1.138   4.238 -0.2944 -2.9590  1.9765
   55CHL1   C17 5200   4.295   1.229   4.165 -0.0303  0.5134 -0.2719
   55CHL1   H17 5201   4.348   1.303   4.101  0.4133  1.7774  1.4773
   55CHL1   C13 5202   4.198   1.165   4.052 -0.4315  0.6830 -0.7094
   55CHL1   C18 5203   4.092   1.078   4.117 -1.1163  0.4243  0.5036
   55CHL1  H18A 5204   4.118   1.027   4.212  1.8012 -1.7169 -1.3013
   55CHL1  H18B 5205   4.000   1.138   4.137 -1.3310  0.2793 -0.0364
   55CHL1  H18C 5206   4.046   0.998   4.055  1.2953 -0.0341 -0.8125
   55CHL1   C12 5207   4.131   1.249   3.941 -0.1936  0.9391 -0.4016
   55CHL1  H12A 5208   4.062   1.315   3.998 -0.8375 -0.9667  1.1669
   55CHL1  H12B 5209   4.207   1.320   3.902 -3.1288  4.1156 -0.7658
   55CHL1   C11 5210   4.077   1.167   3.825  0.1892  0.1307  0.0229
   55CHL1  H11A 5211   3.989   1.106   3.853  0.7766 -0.4707  0.5981
   55CHL1  H11B 5212   4.042   1.229   3.739  0.8986 -0.5268 -0.7558
   55CHL1    C9 5213   4.193   1.073   3.768  0.5564 -0.3179  0.7549
   55CHL1    H9 5214   4.276   1.139   3.737  0.1159  1.0716  2.4164
   55CHL1   C10 5215   4.152   0.989   3.643  0.4013 -0.2819  0.2794
   55CHL1   C19 5216   4.010   0.926   3.672 -0.5111 -0.0173  0.1940
   55CHL1  H19A 5217   3.928   0.999   3.653  0.4336  0.9752 -0.1643
   55CHL1  H19B 5218   3.992   0.842   3.601 -1.1441  0.4951 -0.2693
   55CHL1  H19C 5219   4.010   0.884   3.775  0.2195 -0.2155  0.1153
   55CHL1    C1 5220   4.147   1.076   3.515  0.0780 -0.3213  0.1792
   55CHL1   H1A 5221   4.076   1.161   3.521  3.3341  2.7165 -0.5619
   55CHL1   H1B 5222   4.249   1.120   3.507  0.7266 -1.9612 -1.1699
   55CHL1    C2 5223   4.119   1.004   3.384 -0.3214  0.1282 -0.3717
   55CHL1   H2A 5224   4.128   1.075   3.299  0.2152  0.9027  0.3239
   55CHL1   H2B 5225   4.013   0.968   3.383 -0.6786  1.1016 -1.9896
   55CHL1   C20 5226   4.227   1.290   4.288 -0.5933 -0.2652 -0.5297
   55CHL1   H20 5227   4.160   1.210   4.326 -1.7360 -0.0213 -1.9214
   55CHL1   C21 5228   4.132   1.415   4.257 -0.4470  0.3379  0.4715
   55CHL1  H21A 5229   4.098   1.458   4.353 -0.7318  1.0649  0.0544
   55CHL1  H21B 5230   4.039   1.377   4.209 -0.2172  1.0989 -0.6013
   55CHL1  H21C 5231   4.181   1.486   4.187  0.7026 -0.8296  0.0553
   55CHL1   C22 5232   4.328   1.336   4.396  0.3061 -0.1012 -0.2894
   55CHL1  H22A 5233   4.272   1.374   4.484  1.8484  2.3635 -0.2831
   55CHL1  H22B 5234   4.390   1.250   4.429  1.0865  0.6249  0.2113
   55CHL1   C23 5235   4.417   1.455   4.349  0.2410  0.1337 -0.7347
   55CHL1  H23A 5236   4.469   1.423   4.256 -0.2825  1.8448 -1.6542
   55CHL1  H23B 5237   4.358   1.545   4.324  0.7773  1.1513  1.4404
   55CHL1   C24 5238   4.519   1.489   4.461  0.5401 -0.4126 -0.5143
   55CHL1  H24A 5239   4.577   1.578   4.428 -1.0854  0.5299 -0.9397
   55CHL1  H24B 5240   4.455   1.519   4.547  1.5941 -4.4236  1.9114
   55CHL1   C25 5241   4.618   1.386   4.500 -0.0808 -0.4584  0.0035
   55CHL1   H25 5242   4.559   1.296   4.528  0.6116 -0.8077  0.3842
   55CHL1   C26 5243   4.715   1.339   4.385  0.3264  0.1783 -0.9205
   55CHL1  H26A 5244   4.659   1.272   4.316  1.4890 -0.3223 -1.4032
   55CHL1  H26B 5245   4.758   1.423   4.326  0.2337  1.9959  1.4772
   55CHL1  H26C 5246   4.797   1.280   4.431  1.2555  0.9534 -1.5616
   55CHL1   C27 5247   4.702   1.436   4.618 -0.2038  0.1492 -0.1356
   55CHL1  H27A 5248   4.768   1.349   4.639  2.5908  2.1087 -0.2104
   55CHL1  H27B 5249   4.772   1.520   4.595  0.7011 -0.9835 -1.7775
   55CHL1  H27C 5250   4.646   1.457   4.711 -0.1362 -0.7371  0.1100
   56CHL1    C3 5251   1.916   0.043   3.865 -0.3096 -0.2349 -0.1009
   56CHL1    H3 5252   2.020   0.015   3.893 -0.4278 -0.7528 -0.1648
   56CHL1    O3 5253   1.895   0.055   3.728  0.4807 -0.4553  0.0376
   56CHL1   H3' 5254   1.800   0.067   3.726  0.7573  2.5036 -0.8442
   56CHL1    C4 5255   1.830  -0.067   3.935 -0.6236  0.4102 -0.3056
   56CHL1   H4A 5256   1.724  -0.055   3.902 -0.6293 -0.2224 -0.5287
   56CHL1   H4B 5257   1.851  -0.171   3.902  0.7273  0.1916  1.1308
   56CHL1    C5 5258   1.834  -0.076   4.086 -0.4198 -0.6416 -0.4724
   56CHL1    C6 5259   1.855  -0.185   4.158 -0.2778 -0.5117 -0.0087
   56CHL1    H6 5260   1.872  -0.282   4.108 -1.2054 -1.0777  0.7377
   56CHL1    C7 5261   1.856  -0.198   4.305  0.3782  0.0222  0.5695
   56CHL1   H7A 5262   1.775  -0.271   4.329  1.1655 -0.2652  2.5281
   56CHL1   H7B 5263   1.955  -0.232   4.340  0.6349  1.5745  1.4516
   56CHL1    C8 5264   1.809  -0.059   4.373 -0.5830 -0.0664 -0.8164
   56CHL1    H8 5265   1.698  -0.056   4.363 -0.6815  2.4359  0.1062
   56CHL1   C14 5266   1.841  -0.067   4.518 -0.4367 -0.1430  0.4812
   56CHL1   H14 5267   1.952  -0.068   4.525 -0.3274  0.5776 -0.7882
   56CHL1   C15 5268   1.804  -0.188   4.606  0.3555 -0.2543  0.1676
   56CHL1  H15A 5269   1.694  -0.198   4.618  0.5651 -2.7562  0.4944
   56CHL1  H15B 5270   1.846  -0.279   4.559  0.4181  0.1694 -0.6257
   56CHL1   C16 5271   1.858  -0.148   4.743 -0.1543  0.3035  0.0196
   56CHL1  H16A 5272   1.792  -0.178   4.826  0.6064  1.0779  0.9254
   56CHL1  H16B 5273   1.958  -0.195   4.756 -0.3652 -0.1650 -0.0443
   56CHL1   C17 5274   1.866   0.015   4.739  0.2274  0.2486  0.4076
   56CHL1   H17 5275   1.975   0.038   4.737  0.5912 -1.4111 -1.7454
   56CHL1   C13 5276   1.812   0.061   4.599  0.1195 -0.3737 -0.2326
   56CHL1   C18 5277   1.657   0.079   4.599 -0.5248  0.0296  0.1409
   56CHL1  H18A 5278   1.630   0.166   4.662 -0.6788  0.8572 -1.0436
   56CHL1  H18B 5279   1.619   0.096   4.496 -1.3495  0.2338  0.4636
   56CHL1  H18C 5280   1.611  -0.011   4.646  0.9939 -1.0712 -0.3903
   56CHL1   C12 5281   1.885   0.184   4.537 -0.5054 -0.5415  0.7293
   56CHL1  H12A 5282   1.874   0.287   4.577  2.1713  0.3411 -0.5956
   56CHL1  H12B 5283   1.994   0.179   4.557 -0.4090  0.2182  0.4401
   56CHL1   C11 5284   1.860   0.194   4.383 -0.0069 -0.6130 -0.4275
   56CHL1  H11A 5285   1.768   0.253   4.362  1.0781  1.5336  0.5392
   56CHL1  H11B 5286   1.932   0.262   4.333  0.4237 -0.8483 -0.1290
   56CHL1    C9 5287   1.868   0.061   4.302 -0.1431  0.2276  0.0727
   56CHL1    H9 5288   1.977   0.040   4.299 -0.1325  0.3488 -0.7411
   56CHL1   C10 5289   1.816   0.063   4.153 -0.1772  0.0583 -0.1244
   56CHL1   C19 5290   1.661   0.103   4.147 -0.0101 -0.5266 -0.5393
   56CHL1  H19A 5291   1.657   0.214   4.156 -1.1550 -0.5696 -0.4091
   56CHL1  H19B 5292   1.628   0.074   4.045  1.3165 -0.0024 -1.1489
   56CHL1  H19C 5293   1.602   0.045   4.221 -1.4513  1.9458  0.3813
   56CHL1    C1 5294   1.908   0.173   4.077  0.1784 -0.3485  0.5227
   56CHL1   H1A 5295   1.885   0.274   4.116 -1.5266  0.0533 -1.3433
   56CHL1   H1B 5296   2.014   0.142   4.092  0.1870 -1.5137 -1.4678
   56CHL1    C2 5297   1.895   0.178   3.921  0.6541  0.6142 -0.4006
   56CHL1   H2A 5298   1.969   0.254   3.889  1.9876 -0.7782 -0.7195
   56CHL1   H2B 5299   1.787   0.202   3.911  0.4060 -0.4991 -0.5307
   56CHL1   C20 5300   1.799   0.084   4.865 -0.4110  0.4263 -0.0399
   56CHL1   H20 5301   1.699   0.036   4.869  0.8295 -2.7016 -2.4868
   56CHL1   C21 5302   1.791   0.236   4.859 -0.0869  0.4549 -0.1066
   56CHL1  H21A 5303   1.882   0.290   4.892  0.8989  0.0779 -2.0556
   56CHL1  H21B 5304   1.716   0.269   4.933 -2.0015  0.6968 -2.0565
   56CHL1  H21C 5305   1.771   0.269   4.755 -0.7389 -2.5725 -1.0508
   56CHL1   C22 5306   1.873   0.046   5.000  0.3199  0.6019 -0.4561
   56CHL1  H22A 5307   1.882  -0.064   4.990 -0.1146  0.3499  1.4653
   56CHL1  H22B 5308   1.975   0.089   5.010  0.7047 -0.8148  3.6283
   56CHL1   C23 5309   1.789   0.066   5.132  0.3308  0.2512 -0.4523
   56CHL1  H23A 5310   1.736   0.164   5.134 -2.7782 -1.3333 -0.2553
   56CHL1  H23B 5311   1.702  -0.001   5.118  0.8309 -1.0256  1.9237
   56CHL1   C24 5312   1.870   0.029   5.262 -0.2626  1.0578 -0.1054
   56CHL1  H24A 5313   1.819   0.018   5.360  2.2268  1.5986  1.3427
   56CHL1  H24B 5314   1.906  -0.076   5.251 -1.6010  0.4569  0.9703
   56CHL1   C25 5315   2.002   0.111   5.275 -0.7303  0.8928 -0.3219
   56CHL1   H25 5316   2.076   0.056   5.212 -1.1274 -1.1722  0.9059
   56CHL1   C26 5317   1.982   0.260   5.241 -0.6742  0.1467  0.5495
   56CHL1  H26A 5318   1.920   0.321   5.310  0.2867 -0.1745  1.7227
   56CHL1  H26B 5319   2.082   0.306   5.233 -0.6355 -0.2494 -2.1613
   56CHL1  H26C 5320   1.940   0.277   5.139  0.2626  0.5012  0.2108
   56CHL1   C27 5321   2.060   0.077   5.417 -0.2666 -0.4138  0.3697
   56CHL1  H27A 5322   2.078  -0.029   5.444  1.9645 -0.0568  0.4655
   56CHL1  H27B 5323   2.161   0.122   5.430 -0.3658 -0.6131  2.0437
   56CHL1  H27C 5324   1.990   0.124   5.488 -1.8128  1.2838 -2.1403
   57CHL1    C3 5325   2.669   6.239   3.699  0.0203  0.8891 -0.2544
   57CHL1    H3 5326   2.640   6.346   3.700 -0.1672  0.8336  0.7744
   57CHL1    O3 5327   2.675   6.211   3.554 -0.1449  0.1543 -0.6082
   57CHL1   H3' 5328   2.603   6.265   3.523 -0.0531  0.2214 -0.7043
   57CHL1    C4 5329   2.807   6.211   3.764 -0.4439  0.6365 -0.1277
   57CHL1   H4A 5330   2.834   6.104   3.747 -2.8229 -0.1603  0.7289
   57CHL1   H4B 5331   2.882   6.267   3.705  0.5263  0.4564  0.8990
   57CHL1    C5 5332   2.803   6.250   3.906  0.5758 -0.1747 -0.1049
   57CHL1    C6 5333   2.894   6.328   3.965  0.2323 -0.5575  0.8743
   57CHL1    H6 5334   2.983   6.360   3.910 -0.5908 -1.5171 -1.1122
   57CHL1    C7 5335   2.889   6.370   4.106 -0.2129 -0.6986 -0.8099
   57CHL1   H7A 5336   2.995   6.382   4.134  0.2075 -1.2604 -2.0693
   57CHL1   H7B 5337   2.855   6.476   4.109 -0.8792 -0.9182 -0.2241
   57CHL1    C8 5338   2.809   6.277   4.193 -0.2801  0.0886 -0.0461
   57CHL1    H8 5339   2.863   6.180   4.192  1.5415  1.0481 -0.2609
   57CHL1   C14 5340   2.798   6.316   4.338 -1.2699 -0.4084 -0.5057
   57CHL1   H14 5341   2.744   6.413   4.340 -0.4323  0.0564  1.1489
   57CHL1   C15 5342   2.929   6.348   4.408 -0.0902  0.0760  0.1938
   57CHL1  H15A 5343   3.002   6.269   4.382 -0.8479 -0.1946 -1.2335
   57CHL1  H15B 5344   2.975   6.445   4.380 -1.2448  0.1461 -1.6120
   57CHL1   C16 5345   2.886   6.337   4.558  0.6936  0.4693  0.3447
   57CHL1  H16A 5346   2.953   6.260   4.602  0.2027 -0.8736 -1.1611
   57CHL1  H16B 5347   2.896   6.432   4.615  0.1334  1.3519 -0.9724
   57CHL1   C17 5348   2.735   6.292   4.565  0.3500  0.1164  1.0485
   57CHL1   H17 5349   2.669   6.381   4.557  1.4082  0.9891  1.8959
   57CHL1   C13 5350   2.716   6.226   4.425  0.6008  0.6195 -0.1139
   57CHL1   C18 5351   2.781   6.086   4.432  0.2201  0.9428  0.3243
   57CHL1  H18A 5352   2.717   6.017   4.492  0.9262  0.4710  0.5397
   57CHL1  H18B 5353   2.775   6.049   4.328 -0.7863  3.1428 -0.4790
   57CHL1  H18C 5354   2.889   6.087   4.457  0.5237 -0.6037 -0.8359
   57CHL1   C12 5355   2.567   6.226   4.371 -0.6980 -0.1715  0.9726
   57CHL1  H12A 5356   2.510   6.150   4.430  2.8186 -2.1727  2.1205
   57CHL1  H12B 5357   2.532   6.330   4.383  2.1005  1.1162 -0.9957
   57CHL1   C11 5358   2.569   6.175   4.217 -0.4086  0.2053  0.7414
   57CHL1  H11A 5359   2.599   6.070   4.235  1.0138  0.2205 -1.1670
   57CHL1  H11B 5360   2.463   6.170   4.183  0.1195  2.4106 -1.5925
   57CHL1    C9 5361   2.668   6.255   4.130  0.5565 -0.0067 -0.1327
   57CHL1    H9 5362   2.633   6.359   4.114  0.8147  0.0662 -0.2186
   57CHL1   C10 5363   2.681   6.190   3.985 -0.4841  0.1129  0.4759
   57CHL1   C19 5364   2.704   6.035   3.989  0.2606 -0.3863  0.4795
   57CHL1  H19A 5365   2.608   5.996   4.029  0.4548 -1.3440  0.0547
   57CHL1  H19B 5366   2.725   5.985   3.892 -1.7153 -2.0211  0.8304
   57CHL1  H19C 5367   2.788   6.004   4.056 -1.1678 -1.4494  1.8589
   57CHL1    C1 5368   2.549   6.218   3.908 -0.5940  0.0834 -0.5406
   57CHL1   H1A 5369   2.465   6.167   3.959 -0.1521  1.1999  1.4362
   57CHL1   H1B 5370   2.525   6.326   3.916  0.1841  0.3227 -1.2749
   57CHL1    C2 5371   2.552   6.174   3.762 -0.2100  0.1692 -0.0761
   57CHL1   H2A 5372   2.455   6.212   3.723 -0.1218  0.6121  0.1300
   57CHL1   H2B 5373   2.560   6.064   3.745  2.6892  0.3985 -0.6757
   57CHL1   C20 5374   2.688   6.234   4.701 -0.6430 -0.0859 -0.5764
   57CHL1   H20 5375   2.750   6.144   4.717 -0.8876 -0.0766  0.4949
   57CHL1   C21 5376   2.546   6.193   4.689  0.1717 -0.2986  0.3229
   57CHL1  H21A 5377   2.508   6.164   4.789 -0.4120  1.4867  0.6604
   57CHL1  H21B 5378   2.528   6.106   4.622 -1.7167  0.1328  0.2173
   57CHL1  H21C 5379   2.479   6.273   4.650 -1.1635 -1.8103 -0.5922
   57CHL1   C22 5380   2.722   6.338   4.819  0.0924 -0.3192  0.3390
   57CHL1  H22A 5381   2.828   6.368   4.806  0.6748 -1.9523  1.0625
   57CHL1  H22B 5382   2.662   6.430   4.806  0.7625 -0.2196 -2.7276
   57CHL1   C23 5383   2.698   6.283   4.961 -0.2756 -0.1699 -0.3026
   57CHL1  H23A 5384   2.596   6.240   4.973  0.4470 -1.2666  2.9707
   57CHL1  H23B 5385   2.766   6.196   4.972  0.1738  0.0025 -1.6554
   57CHL1   C24 5386   2.726   6.397   5.061  0.4062  0.8249  0.0659
   57CHL1  H24A 5387   2.818   6.451   5.030  1.2587  0.4384  1.7895
   57CHL1  H24B 5388   2.639   6.466   5.057  0.6385  1.1609  0.6964
   57CHL1   C25 5389   2.736   6.343   5.206 -0.2566  0.4371 -0.3914
   57CHL1   H25 5390   2.807   6.258   5.200 -1.5839 -0.6341 -2.0735
   57CHL1   C26 5391   2.774   6.457   5.307 -0.3875  0.1845 -0.2967
   57CHL1  H26A 5392   2.684   6.516   5.335  1.2653  2.8419 -0.2063
   57CHL1  H26B 5393   2.828   6.407   5.391 -0.5804 -1.0436 -0.8882
   57CHL1  H26C 5394   2.845   6.533   5.268  1.3227 -0.5020  1.3123
   57CHL1   C27 5395   2.591   6.295   5.251  0.7494 -0.5826  0.9091
   57CHL1  H27A 5396   2.513   6.374   5.249  0.2601 -1.0777 -0.1755
   57CHL1  H27B 5397   2.557   6.212   5.185  0.5118  0.6265 -0.5444
   57CHL1  H27C 5398   2.600   6.265   5.358  1.7202 -0.7023  0.8000
   58CHL1    C3 5399   1.980   2.499   3.517 -0.2485 -0.0856 -0.3397
   58CHL1    H3 5400   1.931   2.401   3.533  0.6105 -0.3028  1.2156
   58CHL1    O3 5401   1.984   2.516   3.376 -0.8522 -0.2673  0.5850
   58CHL1   H3' 5402   1.917   2.581   3.353 -1.0969 -1.4793 -2.5268
   58CHL1    C4 5403   1.910   2.606   3.597 -0.6540 -0.0358 -0.2899
   58CHL1   H4A 5404   1.976   2.691   3.568  0.0782 -1.4162 -3.0617
   58CHL1   H4B 5405   1.808   2.619   3.555 -1.2140  0.3671  1.1367
   58CHL1    C5 5406   1.908   2.572   3.751 -0.0303 -0.6930  0.3727
   58CHL1    C6 5407   1.789   2.577   3.818  0.1799  0.4560 -0.2552
   58CHL1    H6 5408   1.694   2.590   3.765 -1.0599  0.1723  1.8170
   58CHL1    C7 5409   1.781   2.564   3.966  0.7486  0.2937 -0.1641
   58CHL1   H7A 5410   1.709   2.641   4.001 -1.5937 -0.7924 -2.2451
   58CHL1   H7B 5411   1.738   2.466   3.995  1.1546 -0.0032 -0.5423
   58CHL1    C8 5412   1.919   2.576   4.026 -0.2261 -0.2657 -0.3315
   58CHL1    H8 5413   1.947   2.684   4.029  1.2700 -0.6346 -0.3243
   58CHL1   C14 5414   1.906   2.533   4.172  0.4891 -0.1820  0.6378
   58CHL1   H14 5415   1.861   2.432   4.160  0.2719 -0.0300  0.1690
   58CHL1   C15 5416   1.798   2.592   4.264 -0.1262 -0.8915 -0.4880
   58CHL1  H15A 5417   1.813   2.702   4.264  0.0837 -0.9156  0.0256
   58CHL1  H15B 5418   1.696   2.567   4.228 -0.1859  2.2475 -3.0125
   58CHL1   C16 5419   1.835   2.538   4.401 -0.5150  0.7469 -0.4107
   58CHL1  H16A 5420   1.832   2.626   4.468  0.5215 -0.8454  1.8545
   58CHL1  H16B 5421   1.766   2.454   4.423 -0.0124  0.1808 -0.9509
   58CHL1   C17 5422   1.974   2.472   4.387  0.2948  0.1513 -0.0563
   58CHL1   H17 5423   1.942   2.367   4.368  0.4497  0.0337  0.3209
   58CHL1   C13 5424   2.037   2.530   4.259  0.6083  1.0157  0.8971
   58CHL1   C18 5425   2.083   2.677   4.275  0.7642 -1.3302 -0.2479
   58CHL1  H18A 5426   2.193   2.676   4.292  0.7309  0.1650  0.2371
   58CHL1  H18B 5427   2.069   2.741   4.186 -0.6568  1.6120  1.9073
   58CHL1  H18C 5428   2.036   2.720   4.367  3.0520 -0.0523  0.4153
   58CHL1   C12 5429   2.144   2.441   4.182 -0.1753  0.0794 -0.0886
   58CHL1  H12A 5430   2.246   2.453   4.225  0.3811 -0.2758 -1.2584
   58CHL1  H12B 5431   2.106   2.337   4.186  0.7882 -0.4002 -2.1444
   58CHL1   C11 5432   2.158   2.487   4.028 -0.1543 -1.0998 -0.1966
   58CHL1  H11A 5433   2.214   2.582   4.035 -0.4776 -0.8386 -1.0578
   58CHL1  H11B 5434   2.229   2.420   3.975  2.5401  1.8002 -0.5313
   58CHL1    C9 5435   2.024   2.495   3.949  0.3012 -0.4080 -0.1591
   58CHL1    H9 5436   1.978   2.394   3.948 -0.0067 -0.6207  5.0703
   58CHL1   C10 5437   2.042   2.544   3.806  0.8743 -0.6005 -0.5478
   58CHL1   C19 5438   2.129   2.670   3.812  0.0253 -0.2916  0.7819
   58CHL1  H19A 5439   2.233   2.636   3.833 -0.1080 -0.9761  0.3538
   58CHL1  H19B 5440   2.137   2.705   3.707  1.1398 -0.8071  0.6821
   58CHL1  H19C 5441   2.095   2.750   3.882  1.1987  0.9774 -0.0561
   58CHL1    C1 5442   2.116   2.432   3.724  0.6440  0.2363  0.0286
   58CHL1   H1A 5443   2.220   2.434   3.763  0.3560  3.0515  0.8689
   58CHL1   H1B 5444   2.066   2.337   3.754 -0.1666  0.7382  0.3034
   58CHL1    C2 5445   2.123   2.468   3.574  0.6628 -0.4800  0.2228
   58CHL1   H2A 5446   2.160   2.388   3.505 -0.3545  0.6725 -1.7634
   58CHL1   H2B 5447   2.186   2.557   3.556  0.4706 -0.6140 -1.2469
   58CHL1   C20 5448   2.057   2.485   4.512 -0.4898 -0.0338  0.4082
   58CHL1   H20 5449   2.112   2.581   4.505  2.0781 -1.3317  1.4856
   58CHL1   C21 5450   2.174   2.381   4.521  0.0900 -0.1228 -0.4728
   58CHL1  H21A 5451   2.130   2.283   4.547  1.6400 -0.8076 -0.3173
   58CHL1  H21B 5452   2.246   2.418   4.597 -0.7030  1.1864 -0.3199
   58CHL1  H21C 5453   2.242   2.377   4.433  1.7586  1.4332  0.6648
   58CHL1   C22 5454   1.978   2.472   4.644 -0.6890  0.8604  0.7091
   58CHL1  H22A 5455   1.906   2.557   4.637  0.9766  2.1996 -2.2175
   58CHL1  H22B 5456   1.917   2.381   4.628 -2.1500  1.6498  1.5827
   58CHL1   C23 5457   2.061   2.470   4.770  0.2284 -0.8650 -0.0869
   58CHL1  H23A 5458   2.111   2.377   4.803  1.7196 -0.8335 -2.0371
   58CHL1  H23B 5459   2.149   2.538   4.768  1.1086 -1.9537  0.4878
   58CHL1   C24 5460   1.959   2.515   4.887 -0.7529 -0.0895  0.1315
   58CHL1  H24A 5461   1.903   2.605   4.853 -0.5876  0.1170  0.4075
   58CHL1  H24B 5462   1.878   2.439   4.890 -1.7502  0.9729  2.7804
   58CHL1   C25 5463   2.014   2.539   5.028 -0.7764 -0.9990  0.2548
   58CHL1   H25 5464   2.097   2.466   5.041  0.2828 -0.2749 -1.8770
   58CHL1   C26 5465   2.084   2.676   5.021 -0.2663  0.4736  0.5233
   58CHL1  H26A 5466   2.006   2.755   5.021 -0.8641 -0.0679  2.5957
   58CHL1  H26B 5467   2.140   2.684   5.117 -0.1629  1.0755  0.4169
   58CHL1  H26C 5468   2.155   2.675   4.935  2.7021 -0.4369  2.7851
   58CHL1   C27 5469   1.911   2.525   5.137 -0.0107  0.6319  0.1184
   58CHL1  H27A 5470   1.961   2.544   5.234 -0.1703  0.4092  0.2466
   58CHL1  H27B 5471   1.824   2.592   5.121 -1.6426 -0.9782  1.5997
   58CHL1  H27C 5472   1.881   2.418   5.142  1.7010  0.0782 -0.9047
   59CHL1    C3 5473   1.071   1.993   3.202  0.3806  0.3384  0.0468
   59CHL1    H3 5474   1.175   2.016   3.235 -0.2596  0.9377  1.7015
   59CHL1    O3 5475   1.059   1.993   3.062  0.0603 -0.8127  0.0533
   59CHL1   H3' 5476   0.973   1.951   3.052  0.5334 -1.9686  0.5597
   59CHL1    C4 5477   1.042   1.851   3.260  0.2850 -0.1486  0.3179
   59CHL1   H4A 5478   0.951   1.815   3.208 -0.3391 -0.1621  1.3900
   59CHL1   H4B 5479   1.120   1.787   3.213 -1.0917 -0.7299 -1.2984
   59CHL1    C5 5480   1.034   1.841   3.409 -0.2621  0.1934  0.0223
   59CHL1    C6 5481   1.096   1.745   3.478  0.0098 -0.4014  0.0434
   59CHL1    H6 5482   1.167   1.678   3.427  1.4947 -0.3682  1.9378
   59CHL1    C7 5483   1.070   1.724   3.624  0.1438 -0.6426  0.4585
   59CHL1   H7A 5484   1.037   1.620   3.645  2.6841 -1.8269 -0.8826
   59CHL1   H7B 5485   1.165   1.745   3.679 -0.0579  0.8979  0.2686
   59CHL1    C8 5486   0.976   1.826   3.695 -0.6393 -0.6907  0.1554
   59CHL1    H8 5487   0.871   1.788   3.695 -1.6169  1.8292 -0.7018
   59CHL1   C14 5488   1.017   1.852   3.838 -0.0502 -0.0673 -0.8242
   59CHL1   H14 5489   1.120   1.893   3.833  0.1367 -0.4831 -0.4767
   59CHL1   C15 5490   1.030   1.727   3.916  0.6110 -0.1923  0.5784
   59CHL1  H15A 5491   0.942   1.659   3.911 -0.2809  0.8975  1.0517
   59CHL1  H15B 5492   1.125   1.672   3.894 -0.0037 -1.5296  1.1251
   59CHL1   C16 5493   1.036   1.780   4.059 -0.2686  0.3325 -0.2050
   59CHL1  H16A 5494   0.961   1.716   4.111 -1.5074  1.1304 -0.9584
   59CHL1  H16B 5495   1.143   1.769   4.087  0.4040 -0.1274 -2.7322
   59CHL1   C17 5496   0.989   1.933   4.051 -0.2155 -0.5105 -0.0431
   59CHL1   H17 5497   1.085   1.989   4.058 -0.9195  0.9073 -1.2322
   59CHL1   C13 5498   0.922   1.946   3.914 -0.2312  0.4129 -1.7625
   59CHL1   C18 5499   0.781   1.893   3.922  0.0908  0.9230  0.5487
   59CHL1  H18A 5500   0.783   1.793   3.971  1.7795  1.0608  0.8431
   59CHL1  H18B 5501   0.712   1.962   3.975  0.7500  2.4614 -0.5339
   59CHL1  H18C 5502   0.741   1.884   3.819 -0.5055  2.7491  0.5820
   59CHL1   C12 5503   0.929   2.087   3.852 -0.6249 -0.0608  0.4272
   59CHL1  H12A 5504   0.869   2.161   3.909  0.2156 -0.1667  1.4576
   59CHL1  H12B 5505   1.035   2.116   3.841 -0.2052 -1.9759 -1.2120
   59CHL1   C11 5506   0.892   2.073   3.700  0.2493 -0.2553 -0.4069
   59CHL1  H11A 5507   0.787   2.039   3.691  0.3316 -0.5503 -0.2628
   59CHL1  H11B 5508   0.900   2.175   3.657  1.4966  0.9940  2.5150
   59CHL1    C9 5509   0.976   1.965   3.623 -0.1357 -0.5397 -0.2348
   59CHL1    H9 5510   1.079   2.003   3.639  0.1992 -1.2711 -0.5864
   59CHL1   C10 5511   0.944   1.951   3.474 -0.5272  0.6542  0.0397
   59CHL1   C19 5512   0.797   1.923   3.441 -0.0198 -0.1599 -0.2688
   59CHL1  H19A 5513   0.767   1.818   3.461 -0.0358 -0.4252 -1.5918
   59CHL1  H19B 5514   0.732   1.992   3.498 -0.2575  1.7687 -2.6666
   59CHL1  H19C 5515   0.784   1.945   3.332  1.0704  0.0469 -0.3664
   59CHL1    C1 5516   0.976   2.098   3.416 -0.2692 -0.2841  0.0405
   59CHL1   H1A 5517   0.908   2.177   3.454 -0.2283 -0.0123 -0.4430
   59CHL1   H1B 5518   1.067   2.136   3.467  1.1331 -0.8378 -1.9127
   59CHL1    C2 5519   0.985   2.104   3.257 -0.3055 -0.8016 -0.2334
   59CHL1   H2A 5520   1.022   2.203   3.222 -0.6792 -0.7006 -0.3378
   59CHL1   H2B 5521   0.883   2.082   3.219 -2.0505  1.0577  2.9279
   59CHL1   C20 5522   0.916   1.970   4.185 -0.2173  0.1589  0.9961
   59CHL1   H20 5523   0.822   1.910   4.187 -0.6712  0.4331 -3.1652
   59CHL1   C21 5524   0.876   2.114   4.188  0.2741 -0.4428  0.0977
   59CHL1  H21A 5525   0.833   2.142   4.287  2.4522 -0.6684  1.1644
   59CHL1  H21B 5526   0.794   2.130   4.115  0.4280  1.0090  0.2046
   59CHL1  H21C 5527   0.963   2.181   4.168  0.1797  0.2537  1.8847
   59CHL1   C22 5528   0.992   1.936   4.314 -0.3375 -0.0626  1.2101
   59CHL1  H22A 5529   1.054   1.845   4.296  1.8223  1.6307 -0.5389
   59CHL1  H22B 5530   1.059   2.021   4.342 -0.7239 -0.2152  2.6788
   59CHL1   C23 5531   0.886   1.912   4.424 -0.3165  0.2908  0.2973
   59CHL1  H23A 5532   0.803   1.986   4.424 -0.4234  0.1854  1.1567
   59CHL1  H23B 5533   0.844   1.810   4.410  1.8527 -0.8203  1.4270
   59CHL1   C24 5534   0.943   1.922   4.573 -0.0792  0.4762  0.6699
   59CHL1  H24A 5535   0.875   1.852   4.626  0.7187 -1.0294 -0.2260
   59CHL1  H24B 5536   1.048   1.891   4.590 -0.7937 -2.9689 -0.5142
   59CHL1   C25 5537   0.920   2.066   4.636  0.3401  0.2569 -0.1520
   59CHL1   H25 5538   0.818   2.100   4.607 -0.2219 -1.4203 -0.2975
   59CHL1   C26 5539   0.929   2.060   4.787  0.2928 -0.3827 -1.1242
   59CHL1  H26A 5540   0.859   1.988   4.833 -0.4579  0.4420 -0.9536
   59CHL1  H26B 5541   1.035   2.050   4.820  0.5647  2.8871 -0.6611
   59CHL1  H26C 5542   0.892   2.160   4.818 -1.8017 -1.0814 -1.2316
   59CHL1   C27 5543   1.021   2.165   4.588 -0.7121 -0.1068  0.1111
   59CHL1  H27A 5544   1.125   2.126   4.594 -0.6031  0.2297  0.4959
   59CHL1  H27B 5545   1.006   2.183   4.479  0.8553 -2.3580 -0.5522
   59CHL1  H27C 5546   1.000   2.257   4.647 -0.2867  0.2383 -0.2675
   60CHL1    C3 5547   1.954   0.853   3.450 -0.7809  0.2858  0.2504
   60CHL1    H3 5548   1.859   0.870   3.505  0.3843  1.4651  2.0006
   60CHL1    O3 5549   1.919   0.859   3.310 -0.1416  0.1038  0.2969
   60CHL1   H3' 5550   2.002   0.859   3.263  0.2777 -1.3045  0.9661
   60CHL1    C4 5551   2.048   0.970   3.488 -0.7922  0.0063  0.1849
   60CHL1   H4A 5552   2.148   0.965   3.438 -0.9910 -0.6851 -0.1554
   60CHL1   H4B 5553   2.007   1.065   3.448 -1.1130  0.6790  2.0174
   60CHL1    C5 5554   2.068   0.967   3.637 -0.3326  0.2987 -0.5297
   60CHL1    C6 5555   2.025   1.073   3.703  0.3045  0.6537  0.1471
   60CHL1    H6 5556   2.004   1.163   3.643  0.6287  0.0789 -0.8637
   60CHL1    C7 5557   2.043   1.091   3.848  0.2194  0.8640  0.3372
   60CHL1   H7A 5558   2.063   1.199   3.863 -0.4226  1.0697 -0.2426
   60CHL1   H7B 5559   1.948   1.069   3.901 -1.6227  0.1273 -3.0005
   60CHL1    C8 5560   2.151   0.992   3.908  0.3796 -0.1430 -0.1451
   60CHL1    H8 5561   2.253   1.025   3.877 -0.5133  0.9471 -2.1470
   60CHL1   C14 5562   2.156   0.988   4.057  0.4339 -0.1348  0.5252
   60CHL1   H14 5563   2.062   0.939   4.092 -0.9935  0.1099 -2.5978
   60CHL1   C15 5564   2.169   1.130   4.121 -0.1950  0.4142  0.2574
   60CHL1  H15A 5565   2.235   1.181   4.049 -0.7239 -1.0437 -1.3349
   60CHL1  H15B 5566   2.066   1.168   4.135 -0.1936  0.3344  0.4877
   60CHL1   C16 5567   2.236   1.103   4.250 -0.5819  0.0963 -0.3009
   60CHL1  H16A 5568   2.334   1.156   4.251  0.6834 -2.0272 -2.0790
   60CHL1  H16B 5569   2.180   1.145   4.336  0.0563  1.8629 -0.7192
   60CHL1   C17 5570   2.262   0.951   4.265 -0.3044 -0.0142  0.1108
   60CHL1   H17 5571   2.174   0.915   4.322  0.5939 -0.3829  1.3009
   60CHL1   C13 5572   2.271   0.909   4.118 -0.1288 -0.2608  0.6751
   60CHL1   C18 5573   2.408   0.961   4.058 -0.4653  0.3624  0.1822
   60CHL1  H18A 5574   2.488   0.900   4.105 -0.2324  2.2395  2.3714
   60CHL1  H18B 5575   2.419   0.946   3.948  2.1340 -0.5570  0.4954
   60CHL1  H18C 5576   2.433   1.064   4.092  0.2406 -0.2067  1.4660
   60CHL1   C12 5577   2.235   0.764   4.086  0.3218  0.6605  0.6814
   60CHL1  H12A 5578   2.311   0.691   4.121  0.5803 -0.5636 -2.1175
   60CHL1  H12B 5579   2.148   0.744   4.151  0.5313 -3.0209  0.0511
   60CHL1   C11 5580   2.202   0.741   3.934  0.2124 -0.0306  0.1826
   60CHL1  H11A 5581   2.299   0.710   3.889  0.1344 -0.1782  0.1151
   60CHL1  H11B 5582   2.146   0.646   3.923  1.1324 -0.3522 -2.3936
   60CHL1    C9 5583   2.123   0.850   3.863 -0.6209  1.0015  0.2491
   60CHL1    H9 5584   2.015   0.831   3.883  0.0601 -0.5419  3.0059
   60CHL1   C10 5585   2.129   0.845   3.699  0.3727 -0.2943  0.4389
   60CHL1   C19 5586   2.275   0.836   3.651 -0.2156 -0.4338 -0.4262
   60CHL1  H19A 5587   2.332   0.922   3.692 -2.9734  1.2274  0.1884
   60CHL1  H19B 5588   2.319   0.743   3.692  1.4732  0.2014 -0.7126
   60CHL1  H19C 5589   2.282   0.840   3.540 -1.0756 -1.3011 -0.5286
   60CHL1    C1 5590   2.047   0.724   3.644  0.2791 -0.9313 -0.1181
   60CHL1   H1A 5591   2.084   0.626   3.682 -1.3004 -1.8310 -0.8089
   60CHL1   H1B 5592   1.946   0.729   3.692  1.3136 -1.8576  2.3523
   60CHL1    C2 5593   2.029   0.724   3.492 -0.2799  0.1684  0.0615
   60CHL1   H2A 5594   1.962   0.640   3.467 -1.0751  1.2492 -1.5945
   60CHL1   H2B 5595   2.122   0.707   3.434  0.1479 -1.2087  1.0835
   60CHL1   C20 5596   2.387   0.910   4.347  0.8704  0.5041 -0.9128
   60CHL1   H20 5597   2.488   0.902   4.301  1.7144 -2.9015  1.1654
   60CHL1   C21 5598   2.360   0.768   4.396  0.3427  0.1593  0.5038
   60CHL1  H21A 5599   2.257   0.750   4.434 -0.1483 -0.4414 -1.0482
   60CHL1  H21B 5600   2.428   0.747   4.482 -2.3136  2.5042  3.4648
   60CHL1  H21C 5601   2.378   0.700   4.311  0.5237  1.4177 -0.4898
   60CHL1   C22 5602   2.396   1.009   4.465 -0.4573  0.4004 -0.7792
   60CHL1  H22A 5603   2.422   1.107   4.421 -0.8068 -0.0089 -1.9216
   60CHL1  H22B 5604   2.297   1.020   4.514 -0.8035 -0.1354 -1.3488
   60CHL1   C23 5605   2.508   0.968   4.567  0.4757  0.9988 -0.0562
   60CHL1  H23A 5606   2.477   0.876   4.623  0.0003 -0.9723 -3.2913
   60CHL1  H23B 5607   2.590   0.937   4.499  1.1179 -0.4504  1.3029
   60CHL1   C24 5608   2.545   1.083   4.661 -0.4634 -0.0629 -0.0118
   60CHL1  H24A 5609   2.590   1.170   4.608 -3.8667  1.7787 -0.1851
   60CHL1  H24B 5610   2.454   1.131   4.704 -0.2410  0.4452 -0.1058
   60CHL1   C25 5611   2.634   1.041   4.782  0.0204  0.6734 -0.5040
   60CHL1   H25 5612   2.579   0.972   4.850  0.9455  1.2704  0.9042
   60CHL1   C26 5613   2.764   0.977   4.732 -0.7867 -0.7814  0.6148
   60CHL1  H26A 5614   2.745   0.887   4.669 -1.3307  0.4466 -1.0754
   60CHL1  H26B 5615   2.809   1.059   4.672 -0.1634 -0.3201  1.6942
   60CHL1  H26C 5616   2.830   0.947   4.815 -1.3683  0.4907  1.5745
   60CHL1   C27 5617   2.649   1.158   4.880 -0.9689 -0.3087  0.5088
   60CHL1  H27A 5618   2.697   1.247   4.833 -1.9946 -0.5106 -1.0267
   60CHL1  H27B 5619   2.557   1.207   4.920  1.4662  3.2769  2.2535
   60CHL1  H27C 5620   2.708   1.125   4.968 -1.7896 -0.6447  0.9455
   61CHL1    C3 5621   0.717   2.577   3.478 -0.2614 -0.3349 -0.0793
   61CHL1    H3 5622   0.620   2.540   3.516  0.1357  0.4052  1.7609
   61CHL1    O3 5623   0.732   2.568   3.335  0.8169 -0.2101  0.3182
   61CHL1   H3' 5624   0.811   2.620   3.322 -0.1095  0.6648 -2.6883
   61CHL1    C4 5625   0.714   2.724   3.516 -0.1124 -0.6966 -1.0061
   61CHL1   H4A 5626   0.806   2.770   3.474 -0.4333  0.0703 -0.8935
   61CHL1   H4B 5627   0.629   2.775   3.466  1.8794  1.5479 -2.3482
   61CHL1    C5 5628   0.730   2.743   3.668 -0.2382 -0.3217  0.5097
   61CHL1    C6 5629   0.641   2.817   3.733 -0.2258  0.2562  0.0334
   61CHL1    H6 5630   0.563   2.867   3.674 -0.4460 -0.6753 -0.4772
   61CHL1    C7 5631   0.641   2.853   3.881 -0.1167 -0.1311  1.2225
   61CHL1   H7A 5632   0.609   2.955   3.908 -0.2329 -0.0588  0.8234
   61CHL1   H7B 5633   0.560   2.789   3.922 -0.4997 -1.8491 -1.8459
   61CHL1    C8 5634   0.778   2.814   3.941  0.1672  0.6256 -0.0742
   61CHL1    H8 5635   0.854   2.889   3.912 -0.5708  2.0098  1.4265
   61CHL1   C14 5636   0.781   2.813   4.092  0.3727 -0.4241  0.6172
   61CHL1   H14 5637   0.700   2.744   4.122 -0.2719  0.3024  0.5985
   61CHL1   C15 5638   0.739   2.950   4.159  0.3592 -0.1650 -0.6781
   61CHL1  H15A 5639   0.781   3.038   4.107 -0.0464  0.6017  0.2576
   61CHL1  H15B 5640   0.628   2.962   4.153  0.5059  0.4757 -2.9221
   61CHL1   C16 5641   0.806   2.942   4.295 -0.2488 -0.2220 -1.0480
   61CHL1  H16A 5642   0.869   3.033   4.310 -2.2214  1.0466 -0.0093
   61CHL1  H16B 5643   0.724   2.949   4.370 -0.2429 -1.7771 -0.8716
   61CHL1   C17 5644   0.880   2.801   4.305 -0.5071  0.0351  1.0028
   61CHL1   H17 5645   0.797   2.733   4.334  0.1716 -1.2116  0.0739
   61CHL1   C13 5646   0.914   2.766   4.155  0.1541 -0.9812  0.2812
   61CHL1   C18 5647   1.037   2.848   4.114 -0.3894 -0.0024 -0.8249
   61CHL1  H18A 5648   1.057   2.938   4.175  0.0400 -0.4879 -0.2339
   61CHL1  H18B 5649   1.120   2.783   4.151  1.5730  2.9814  0.3804
   61CHL1  H18C 5650   1.049   2.859   4.004  0.1072 -0.4256 -0.8181
   61CHL1   C12 5651   0.936   2.623   4.116 -0.5647  0.1587 -0.6277
   61CHL1  H12A 5652   1.029   2.584   4.162 -0.9778 -0.3333 -0.2042
   61CHL1  H12B 5653   0.851   2.563   4.153 -0.2785 -1.0605 -1.8414
   61CHL1   C11 5654   0.956   2.612   3.967 -0.2552  0.4929 -0.4086
   61CHL1  H11A 5655   1.050   2.664   3.943  0.8475 -0.6197  1.2758
   61CHL1  H11B 5656   0.965   2.504   3.941 -3.7875 -0.1117  0.3178
   61CHL1    C9 5657   0.830   2.675   3.889 -0.0438 -0.2378 -0.4850
   61CHL1    H9 5658   0.744   2.608   3.909  0.0476 -0.0797  0.5069
   61CHL1   C10 5659   0.856   2.673   3.736  0.4355 -0.0153  0.5032
   61CHL1   C19 5660   0.980   2.752   3.689 -0.0516 -0.1385 -0.3661
   61CHL1  H19A 5661   0.987   2.853   3.733  1.4061 -0.9320  1.3281
   61CHL1  H19B 5662   1.067   2.698   3.732 -0.3292  1.5856  2.5526
   61CHL1  H19C 5663   0.992   2.752   3.578  1.5243  0.7535 -0.2243
   61CHL1    C1 5664   0.863   2.522   3.690  0.0880 -0.3617 -0.6887
   61CHL1   H1A 5665   0.957   2.476   3.727 -1.6552 -2.2310  1.7934
   61CHL1   H1B 5666   0.780   2.468   3.741 -0.2869  0.5380 -0.3241
   61CHL1    C2 5667   0.838   2.491   3.543  0.2382 -0.0974 -0.0779
   61CHL1   H2A 5668   0.820   2.382   3.525 -2.2981  0.2752 -0.2042
   61CHL1   H2B 5669   0.927   2.530   3.488 -1.0823 -0.3466 -2.5711
   61CHL1   C20 5670   0.993   2.792   4.415  0.3363  0.2216  0.8718
   61CHL1   H20 5671   1.079   2.844   4.366  2.0242 -3.4099 -0.4078
   61CHL1   C21 5672   1.037   2.647   4.428  0.3570  0.4204  0.0936
   61CHL1  H21A 5673   0.948   2.582   4.448  1.0790 -0.5315  0.2851
   61CHL1  H21B 5674   1.107   2.629   4.512 -0.6223  2.1431  1.3449
   61CHL1  H21C 5675   1.080   2.599   4.338  1.0385  1.6627 -0.2553
   61CHL1   C22 5676   0.966   2.850   4.554  0.0762 -0.3107 -0.8472
   61CHL1  H22A 5677   0.929   2.951   4.526  1.5427  0.3512 -0.5139
   61CHL1  H22B 5678   0.885   2.795   4.606  0.3861  1.1388  1.2809
   61CHL1   C23 5679   1.081   2.842   4.657  0.3569 -0.2124 -0.0189
   61CHL1  H23A 5680   1.081   2.736   4.689 -1.9074 -0.6320 -1.2388
   61CHL1  H23B 5681   1.176   2.871   4.607  1.7823 -0.0341  2.5632
   61CHL1   C24 5682   1.072   2.928   4.788 -0.5023 -0.1972  0.7832
   61CHL1  H24A 5683   1.034   3.026   4.751  0.1339  1.5784  4.3994
   61CHL1  H24B 5684   1.007   2.872   4.859 -0.0189 -1.5709  0.1838
   61CHL1   C25 5685   1.211   2.951   4.869  0.0618  0.5645 -0.5090
   61CHL1   H25 5686   1.287   2.983   4.795 -0.0147  0.1538 -0.7718
   61CHL1   C26 5687   1.202   3.053   4.976  0.7959  0.9459  0.1953
   61CHL1  H26A 5688   1.310   3.072   4.997  1.2928 -0.3268 -1.0444
   61CHL1  H26B 5689   1.144   3.142   4.944 -4.4757 -1.8153  1.0798
   61CHL1  H26C 5690   1.154   3.020   5.071  0.7255 -0.7303 -0.3892
   61CHL1   C27 5691   1.244   2.818   4.928 -0.5806 -0.0598  0.3073
   61CHL1  H27A 5692   1.162   2.769   4.983  0.1893 -1.3092  0.3848
   61CHL1  H27B 5693   1.259   2.750   4.841 -1.8810 -0.6440  0.5285
   61CHL1  H27C 5694   1.338   2.810   4.987 -0.2815 -0.6141 -0.2396
   62CHL1    C3 5695   4.020   2.848   3.330 -0.7469 -0.2645  0.0335
   62CHL1    H3 5696   3.937   2.774   3.323 -1.7147  0.5556  1.9541
   62CHL1    O3 5697   4.057   2.876   3.195  0.1672 -0.2114  0.0440
   62CHL1   H3' 5698   3.974   2.897   3.153 -1.2668 -2.8611  1.2970
   62CHL1    C4 5699   3.980   2.987   3.392  0.4124 -0.1776 -0.1320
   62CHL1   H4A 5700   4.063   3.057   3.369  0.8532  0.4977  3.1036
   62CHL1   H4B 5701   3.896   3.037   3.339  0.4495  0.0901  0.0612
   62CHL1    C5 5702   3.956   2.981   3.543  0.4899  0.5798 -0.0738
   62CHL1    C6 5703   3.842   3.028   3.607  0.1323  0.7236  0.5341
   62CHL1    H6 5704   3.765   3.078   3.546 -0.5670 -0.1792  0.6601
   62CHL1    C7 5705   3.821   3.013   3.757 -0.1184 -0.1038  0.0064
   62CHL1   H7A 5706   3.773   3.109   3.787  0.8916  0.7975 -1.1314
   62CHL1   H7B 5707   3.738   2.942   3.775  0.4641 -0.6440  0.5988
   62CHL1    C8 5708   3.945   2.980   3.842  0.9625 -0.0671  0.0598
   62CHL1    H8 5709   4.013   3.066   3.858  1.3607 -0.1443 -1.1289
   62CHL1   C14 5710   3.898   2.921   3.975 -0.4593  0.2736 -0.1123
   62CHL1   H14 5711   3.833   2.832   3.961  1.6919 -0.9547 -3.0035
   62CHL1   C15 5712   3.796   3.000   4.052 -0.2236 -0.3234 -0.2694
   62CHL1  H15A 5713   3.817   3.107   4.074 -2.7408 -0.2636  2.4265
   62CHL1  H15B 5714   3.701   3.003   3.995  0.3292 -0.4969 -1.2154
   62CHL1   C16 5715   3.792   2.934   4.189 -0.2625  0.4262 -0.4178
   62CHL1  H16A 5716   3.812   3.012   4.265  0.3013  1.2295 -1.3709
   62CHL1  H16B 5717   3.692   2.889   4.208 -0.4639  0.8731 -0.4207
   62CHL1   C17 5718   3.905   2.823   4.191  0.5932 -0.1925 -0.1796
   62CHL1   H17 5719   3.852   2.735   4.147 -0.8778  0.8685 -0.6109
   62CHL1   C13 5720   3.999   2.863   4.076  0.1213  0.1371  0.1577
   62CHL1   C18 5721   4.099   2.964   4.126  0.1110 -0.0711  0.4721
   62CHL1  H18A 5722   4.170   2.910   4.193 -1.4247 -0.8931  1.4873
   62CHL1  H18B 5723   4.152   3.008   4.038 -3.1349  2.4883 -0.3917
   62CHL1  H18C 5724   4.053   3.047   4.183  0.1013  0.1735  0.1125
   62CHL1   C12 5725   4.070   2.753   3.997 -0.5057  0.7060 -0.1875
   62CHL1  H12A 5726   4.156   2.693   4.037 -1.3670 -0.7306 -0.4128
   62CHL1  H12B 5727   3.994   2.673   3.982  0.4510 -0.5801  1.4313
   62CHL1   C11 5728   4.124   2.800   3.861  0.7012 -0.3622  0.3900
   62CHL1  H11A 5729   4.212   2.866   3.877 -0.4084  1.0760  0.7841
   62CHL1  H11B 5730   4.164   2.708   3.813  1.2602  1.0604 -2.0313
   62CHL1    C9 5731   4.024   2.871   3.767  0.0704  1.0695  0.1565
   62CHL1    H9 5732   3.950   2.789   3.753  1.5415 -0.8911  2.9210
   62CHL1   C10 5733   4.072   2.906   3.622  0.8971  0.3013  0.2595
   62CHL1   C19 5734   4.191   3.001   3.634 -0.0499  0.0061  0.7530
   62CHL1  H19A 5735   4.232   3.021   3.533 -0.4018 -0.3381  0.5417
   62CHL1  H19B 5736   4.173   3.098   3.686 -1.0318 -0.1156  0.6675
   62CHL1  H19C 5737   4.272   2.948   3.688  0.6395  0.1999 -0.0654
   62CHL1    C1 5738   4.118   2.777   3.546  0.0141 -0.0947 -0.2789
   62CHL1   H1A 5739   4.205   2.740   3.605  0.3137  2.2145  0.8653
   62CHL1   H1B 5740   4.030   2.710   3.548  0.0371 -0.1166  0.8012
   62CHL1    C2 5741   4.148   2.793   3.394  0.5783  0.4631  0.0233
   62CHL1   H2A 5742   4.153   2.691   3.352 -3.2345  0.3127 -0.4570
   62CHL1   H2B 5743   4.242   2.850   3.379  0.2021  0.6093 -2.0409
   62CHL1   C20 5744   3.970   2.769   4.322  0.1842 -0.1511 -0.3240
   62CHL1   H20 5745   4.056   2.835   4.347  0.3313 -1.1054  1.9014
   62CHL1   C21 5746   4.038   2.630   4.290  0.4244 -0.6985 -0.2233
   62CHL1  H21A 5747   4.070   2.579   4.383  2.8536  0.6285 -0.2466
   62CHL1  H21B 5748   4.140   2.651   4.251 -0.3905  2.7022 -0.8752
   62CHL1  H21C 5749   3.982   2.573   4.214 -0.8931 -0.4511  0.5217
   62CHL1   C22 5750   3.885   2.772   4.450  0.1941  0.5998  0.1472
   62CHL1  H22A 5751   3.869   2.880   4.471 -2.0970  0.1359  1.0570
   62CHL1  H22B 5752   3.788   2.725   4.424  1.3608 -1.0772 -1.4601
   62CHL1   C23 5753   3.944   2.708   4.580  0.8455  0.9388 -0.2827
   62CHL1  H23A 5754   3.953   2.598   4.570  2.8241  0.9173  1.1949
   62CHL1  H23B 5755   4.044   2.751   4.600  1.0119  1.3318 -1.8064
   62CHL1   C24 5756   3.862   2.736   4.709 -0.8921 -0.5009  0.3143
   62CHL1  H24A 5757   3.874   2.843   4.735 -2.0914 -0.4979  0.9358
   62CHL1  H24B 5758   3.755   2.726   4.679 -0.7528  0.5237 -0.5989
   62CHL1   C25 5759   3.894   2.645   4.826  0.6241  0.7673 -0.4639
   62CHL1   H25 5760   3.875   2.544   4.785  3.9231 -0.2511  0.2224
   62CHL1   C26 5761   4.043   2.644   4.872 -0.9883  0.1675 -0.7236
   62CHL1  H26A 5762   4.117   2.623   4.792 -1.5086  0.9085 -1.4212
   62CHL1  H26B 5763   4.059   2.751   4.898 -1.8946  0.4657 -1.3286
   62CHL1  H26C 5764   4.068   2.578   4.957 -0.9503 -1.8188 -2.2049
   62CHL1   C27 5765   3.795   2.674   4.940 -0.4198  0.4204  0.6532
   62CHL1  H27A 5766   3.689   2.653   4.913  0.3065 -1.8154 -0.7416
   62CHL1  H27B 5767   3.816   2.620   5.035  0.2958  2.3372  1.6453
   62CHL1  H27C 5768   3.808   2.782   4.962  0.3136  0.1018  1.9037
   63CHL1    C3 5769   0.224   0.270   3.582 -0.2137  0.2657 -0.1600
   63CHL1    H3 5770   0.120   0.291   3.615 -0.7736 -0.5710 -1.3118
   63CHL1    O3 5771   0.234   0.285   3.439  0.6707 -0.1561 -0.5507
   63CHL1   H3' 5772   0.324   0.312   3.418 -0.1669  0.3932 -4.0680
   63CHL1    C4 5773   0.315   0.377   3.651 -0.0309 -0.4157 -0.1291
   63CHL1   H4A 5774   0.417   0.363   3.608  0.0116 -0.3308 -0.0571
   63CHL1   H4B 5775   0.284   0.477   3.615  1.1163  0.0375  0.1062
   63CHL1    C5 5776   0.320   0.370   3.801  0.5228  0.4187  0.0886
   63CHL1    C6 5777   0.279   0.471   3.878 -0.4822 -0.1421  0.4022
   63CHL1    H6 5778   0.251   0.561   3.821 -1.2329 -0.7581 -0.2313
   63CHL1    C7 5779   0.271   0.457   4.023  0.8661 -0.8498  0.5302
   63CHL1   H7A 5780   0.305   0.554   4.066  1.2443 -1.2094  1.0554
   63CHL1   H7B 5781   0.161   0.452   4.030  1.0107 -1.7381  2.6966
   63CHL1    C8 5782   0.339   0.333   4.089 -1.0633  0.2464 -0.0384
   63CHL1    H8 5783   0.448   0.352   4.087 -0.7565 -1.3702 -0.7790
   63CHL1   C14 5784   0.288   0.311   4.233 -0.1329  0.7488  0.7651
   63CHL1   H14 5785   0.183   0.277   4.232  0.2610 -0.5044 -0.1646
   63CHL1   C15 5786   0.277   0.429   4.332 -0.2258 -0.0111  0.1403
   63CHL1  H15A 5787   0.371   0.488   4.322  0.0590 -0.1055  2.0501
   63CHL1  H15B 5788   0.190   0.498   4.325 -0.8019 -0.6075  1.2221
   63CHL1   C16 5789   0.277   0.361   4.471 -0.7596  0.0849 -0.0391
   63CHL1  H16A 5790   0.373   0.388   4.519  1.0059  0.6990 -3.5492
   63CHL1  H16B 5791   0.188   0.375   4.536 -0.3310  0.3332  0.5039
   63CHL1   C17 5792   0.297   0.202   4.449  0.0602  0.1277 -1.0339
   63CHL1   H17 5793   0.195   0.160   4.449  0.7595 -1.9468 -3.8031
   63CHL1   C13 5794   0.354   0.196   4.306 -0.8519  0.5211  0.7848
   63CHL1   C18 5795   0.508   0.206   4.312 -0.2649 -0.0685 -0.4318
   63CHL1  H18A 5796   0.561   0.226   4.216  1.2791  0.9975  0.5906
   63CHL1  H18B 5797   0.550   0.284   4.380 -1.4377 -0.3206  0.6060
   63CHL1  H18C 5798   0.553   0.106   4.332 -1.5095 -0.7380 -0.9026
   63CHL1   C12 5799   0.315   0.069   4.218  0.9846 -0.0015 -0.1286
   63CHL1  H12A 5800   0.327  -0.032   4.261 -3.2086 -0.8219 -0.5372
   63CHL1  H12B 5801   0.204   0.069   4.214  0.8388  2.2084  1.6897
   63CHL1   C11 5802   0.370   0.083   4.075  0.0694  0.7104  0.7117
   63CHL1  H11A 5803   0.482   0.083   4.072  0.1369 -1.9813 -1.3407
   63CHL1  H11B 5804   0.348  -0.009   4.016  0.9752  1.1885 -0.4188
   63CHL1    C9 5805   0.310   0.210   4.005 -0.0541 -0.4160 -0.8214
   63CHL1    H9 5806   0.200   0.195   4.013 -0.1572  0.0544 -1.2867
   63CHL1   C10 5807   0.346   0.221   3.854  1.0124 -0.9039  0.1998
   63CHL1   C19 5808   0.501   0.191   3.852  0.5924  0.1457  0.0859
   63CHL1  H19A 5809   0.513   0.084   3.880  1.6799  1.0537  3.6220
   63CHL1  H19B 5810   0.537   0.190   3.747  0.1504 -0.9421 -0.0679
   63CHL1  H19C 5811   0.566   0.243   3.926  0.8062 -1.7017  1.2540
   63CHL1    C1 5812   0.266   0.110   3.781 -0.5215 -0.0048 -0.2747
   63CHL1   H1A 5813   0.314   0.015   3.813  0.8443  0.3194 -1.2478
   63CHL1   H1B 5814   0.165   0.102   3.825  0.5607 -5.4976  1.9293
   63CHL1    C2 5815   0.274   0.130   3.624  0.1817  0.5904  0.7094
   63CHL1   H2A 5816   0.217   0.050   3.573 -0.7938  1.4889  0.3584
   63CHL1   H2B 5817   0.383   0.128   3.600  0.2486  2.1445  0.7497
   63CHL1   C20 5818   0.376   0.140   4.565  0.1060 -0.1182 -0.2119
   63CHL1   H20 5819   0.480   0.178   4.570 -0.2032  0.6763  0.3004
   63CHL1   C21 5820   0.384  -0.013   4.540  0.3592  0.4840 -0.0819
   63CHL1  H21A 5821   0.431  -0.075   4.619 -0.2523  0.0532 -0.0466
   63CHL1  H21B 5822   0.435  -0.039   4.445  0.6279  1.3335 -0.1829
   63CHL1  H21C 5823   0.285  -0.063   4.538  0.6831 -0.1447 -0.9946
   63CHL1   C22 5824   0.301   0.167   4.696 -0.2050  0.2213 -0.7921
   63CHL1  H22A 5825   0.321   0.266   4.742  0.1889 -1.3527  2.6825
   63CHL1  H22B 5826   0.191   0.157   4.700 -0.4113  2.3649  2.4439
   63CHL1   C23 5827   0.347   0.069   4.815  0.5547  0.0743 -0.5364
   63CHL1  H23A 5828   0.322  -0.038   4.806 -2.1079  0.5296  0.6425
   63CHL1  H23B 5829   0.458   0.067   4.825  0.5996 -0.3016 -1.0828
   63CHL1   C24 5830   0.283   0.105   4.954 -0.0397  0.3798  0.8386
   63CHL1  H24A 5831   0.314   0.211   4.966 -2.8500  1.3640  0.0401
   63CHL1  H24B 5832   0.174   0.113   4.934  0.2897 -1.1669 -2.3309
   63CHL1   C25 5833   0.328   0.022   5.065  0.1590 -0.1900 -0.1332
   63CHL1   H25 5834   0.319  -0.084   5.032 -1.1424 -0.8141  2.0303
   63CHL1   C26 5835   0.467   0.065   5.113  0.1490 -0.6719  0.2719
   63CHL1  H26A 5836   0.478   0.168   5.153  1.9373 -0.3240 -0.9876
   63CHL1  H26B 5837   0.497  -0.013   5.187  2.9101  0.8680  0.9375
   63CHL1  H26C 5838   0.543   0.065   5.032  1.1544  2.3714  1.0749
   63CHL1   C27 5839   0.218   0.027   5.180  0.1217 -0.1053 -0.3810
   63CHL1  H27A 5840   0.219   0.126   5.231  0.5894 -0.3789  0.1550
   63CHL1  H27B 5841   0.111   0.030   5.149  0.1797 -1.9073 -0.8780
   63CHL1  H27C 5842   0.242  -0.054   5.252  1.5491  1.9358  1.5711
   64CHL1    C3 5843   4.675   4.561   3.669 -0.2400 -0.0163  0.1601
   64CHL1    H3 5844   4.705   4.457   3.643 -0.8221  0.0070 -0.6572
   64CHL1    O3 5845   4.693   4.625   3.544 -0.4345  0.3929  0.7995
   64CHL1   H3' 5846   4.788   4.633   3.534 -0.4587 -0.6351 -0.5625
   64CHL1    C4 5847   4.528   4.568   3.717 -0.1483 -0.3885 -0.2895
   64CHL1   H4A 5848   4.489   4.671   3.705 -0.3099 -0.4967 -0.7269
   64CHL1   H4B 5849   4.475   4.498   3.649 -0.3934  2.7950 -3.6657
   64CHL1    C5 5850   4.516   4.514   3.858  0.4521  0.2128  0.2182
   64CHL1    C6 5851   4.422   4.423   3.884  0.2525 -0.1950  0.2601
   64CHL1    H6 5852   4.365   4.387   3.797 -0.1396  0.0995  0.3932
   64CHL1    C7 5853   4.400   4.367   4.023  1.1742  0.3343  0.6843
   64CHL1   H7A 5854   4.289   4.357   4.030  0.9056 -1.6810 -3.3442
   64CHL1   H7B 5855   4.425   4.259   4.020  1.2435  0.3451  0.8655
   64CHL1    C8 5856   4.461   4.452   4.137 -0.3756  0.6690  0.0593
   64CHL1    H8 5857   4.394   4.540   4.147 -1.4947 -0.2525  0.9507
   64CHL1   C14 5858   4.472   4.366   4.264  0.5865 -0.1876  0.5531
   64CHL1   H14 5859   4.534   4.278   4.236 -0.3966 -0.1925 -1.8214
   64CHL1   C15 5860   4.339   4.302   4.314 -0.7198 -0.3360 -0.5726
   64CHL1  H15A 5861   4.256   4.376   4.315 -1.8334 -1.4955  1.6790
   64CHL1  H15B 5862   4.318   4.221   4.241 -0.5456 -0.3322 -0.6284
   64CHL1   C16 5863   4.381   4.261   4.454 -0.4620  0.7856  0.5462
   64CHL1  H16A 5864   4.300   4.287   4.525 -0.3201  1.7870  0.3544
   64CHL1  H16B 5865   4.409   4.154   4.466  1.1511  1.0233 -0.6827
   64CHL1   C17 5866   4.513   4.337   4.495  0.4056  0.5829  0.6126
   64CHL1   H17 5867   4.592   4.259   4.487 -1.7154 -1.8512  2.0544
   64CHL1   C13 5868   4.533   4.445   4.381 -0.5261 -0.5674  0.7153
   64CHL1   C18 5869   4.443   4.569   4.414 -0.5262 -0.1819  0.1753
   64CHL1  H18A 5870   4.436   4.632   4.323 -1.3399 -1.8694 -0.9734
   64CHL1  H18B 5871   4.338   4.541   4.437 -0.1320 -0.8140  1.3018
   64CHL1  H18C 5872   4.474   4.628   4.503 -1.8541 -1.3125  1.4343
   64CHL1   C12 5873   4.681   4.480   4.355 -0.4581  0.0414  0.3304
   64CHL1  H12A 5874   4.709   4.537   4.446 -0.0497  1.1616 -0.4715
   64CHL1  H12B 5875   4.744   4.389   4.349  0.8453  0.9398 -0.2574
   64CHL1   C11 5876   4.683   4.561   4.224 -0.9178  0.1481 -0.4302
   64CHL1  H11A 5877   4.641   4.662   4.246 -1.3525 -0.0787 -0.2165
   64CHL1  H11B 5878   4.789   4.581   4.198 -0.8675  0.8025  0.2234
   64CHL1    C9 5879   4.607   4.497   4.104 -0.8732 -0.3555  0.1337
   64CHL1    H9 5880   4.667   4.404   4.091  1.4307  1.1452 -0.5509
   64CHL1   C10 5881   4.614   4.572   3.964 -0.1212 -0.2049  0.4584
   64CHL1   C19 5882   4.575   4.720   3.985  1.1601 -0.8994  0.1363
   64CHL1  H19A 5883   4.655   4.768   4.045  0.8213  2.2792 -1.7116
   64CHL1  H19B 5884   4.571   4.783   3.893 -0.2376 -1.6818 -0.3808
   64CHL1  H19C 5885   4.476   4.718   4.036  0.6480 -2.5643 -0.8324
   64CHL1    C1 5886   4.755   4.549   3.906  0.2902  0.2741  0.1058
   64CHL1   H1A 5887   4.833   4.589   3.974  0.3378  0.7181 -0.2039
   64CHL1   H1B 5888   4.776   4.441   3.903  1.6466  0.4994  0.9882
   64CHL1    C2 5889   4.774   4.617   3.774 -0.0071  0.2026 -0.2966
   64CHL1   H2A 5890   4.881   4.601   3.749  0.3856  1.0164  0.7649
   64CHL1   H2B 5891   4.761   4.728   3.780  2.2457  0.4569  0.9833
   64CHL1   C20 5892   4.505   4.377   4.640  0.3163  0.7517 -0.8872
   64CHL1   H20 5893   4.420   4.449   4.647  0.8057  1.1728  1.4845
   64CHL1   C21 5894   4.623   4.471   4.677  1.3886 -0.0613 -0.0108
   64CHL1  H21A 5895   4.621   4.569   4.625 -2.4421 -1.2792 -2.6856
   64CHL1  H21B 5896   4.720   4.419   4.663  0.5696 -1.6142 -0.1839
   64CHL1  H21C 5897   4.610   4.489   4.786  0.5582 -0.7750  0.0198
   64CHL1   C22 5898   4.489   4.258   4.740 -0.1715  0.2243 -0.5884
   64CHL1  H22A 5899   4.414   4.183   4.707 -0.9873  0.1898  1.2206
   64CHL1  H22B 5900   4.587   4.206   4.747 -1.4656 -2.2777 -0.0069
   64CHL1   C23 5901   4.456   4.307   4.880  0.0465 -0.0091  0.0455
   64CHL1  H23A 5902   4.546   4.360   4.919  0.2111  0.9197 -1.5381
   64CHL1  H23B 5903   4.373   4.381   4.888  0.4057  0.2947  1.2286
   64CHL1   C24 5904   4.436   4.182   4.964  0.1482 -0.4071 -0.5315
   64CHL1  H24A 5905   4.372   4.103   4.917 -0.4158 -1.8291  2.4247
   64CHL1  H24B 5906   4.532   4.136   4.994  0.5107  1.1599  0.7871
   64CHL1   C25 5907   4.356   4.197   5.092  0.4475  0.8855 -1.2609
   64CHL1   H25 5908   4.401   4.274   5.159 -1.3647 -0.6542  1.9853
   64CHL1   C26 5909   4.213   4.224   5.070  0.1875 -0.4329 -0.1641
   64CHL1  H26A 5910   4.151   4.233   5.162  0.2280  2.8012 -0.3256
   64CHL1  H26B 5911   4.197   4.320   5.016 -0.2388  0.0542  0.8027
   64CHL1  H26C 5912   4.177   4.139   5.009 -0.8292 -2.3341  2.8655
   64CHL1   C27 5913   4.377   4.072   5.191 -0.1961  0.3971  0.7632
   64CHL1  H27A 5914   4.324   4.089   5.287 -3.0119 -0.8298 -0.4690
   64CHL1  H27B 5915   4.335   3.977   5.151  0.5162 -0.8479  2.7777
   64CHL1  H27C 5916   4.484   4.050   5.212 -0.6518 -1.4095  1.4392
   65CHL1    C3 5917   4.228   0.322   3.679  0.6225 -0.2336  0.0002
   65CHL1    H3 5918   4.337   0.340   3.691  0.3746  0.5055  1.3777
   65CHL1    O3 5919   4.214   0.264   3.553 -0.1716 -0.2141  0.3749
   65CHL1   H3' 5920   4.132   0.300   3.518  0.9078  0.5050 -1.6210
   65CHL1    C4 5921   4.161   0.232   3.786 -0.0139 -0.0982  0.6185
   65CHL1   H4A 5922   4.054   0.213   3.762 -0.4580  2.5792  0.1420
   65CHL1   H4B 5923   4.207   0.131   3.777 -0.9520 -0.4970  0.1027
   65CHL1    C5 5924   4.157   0.280   3.929 -0.2146  0.0021  0.3851
   65CHL1    C6 5925   4.215   0.209   4.031  0.0869 -0.1755  0.0169
   65CHL1    H6 5926   4.265   0.114   4.006  1.2748  0.7635 -1.4053
   65CHL1    C7 5927   4.220   0.249   4.165 -0.2908 -0.2431 -0.1707
   65CHL1   H7A 5928   4.187   0.171   4.238  0.9541  0.6427  1.4073
   65CHL1   H7B 5929   4.320   0.286   4.195 -0.2365  0.7306 -1.4766
   65CHL1    C8 5930   4.129   0.378   4.192  0.3065 -0.0710 -0.4279
   65CHL1    H8 5931   4.020   0.360   4.188 -0.3766  3.2561  0.7120
   65CHL1   C14 5932   4.165   0.436   4.328 -0.3932 -1.3056  0.8605
   65CHL1   H14 5933   4.271   0.467   4.318 -1.1749  2.0247  1.6935
   65CHL1   C15 5934   4.158   0.359   4.453  0.6280  0.2973  0.0958
   65CHL1  H15A 5935   4.058   0.310   4.453  1.0690 -0.6292  0.2302
   65CHL1  H15B 5936   4.224   0.271   4.469 -0.6555 -0.6738  0.1920
   65CHL1   C16 5937   4.170   0.464   4.564 -0.5481 -0.7986 -0.8379
   65CHL1  H16A 5938   4.099   0.445   4.647 -0.9020  0.5585 -0.7998
   65CHL1  H16B 5939   4.266   0.465   4.621 -0.8126  4.0266 -0.0692
   65CHL1   C17 5940   4.160   0.608   4.495  0.5533 -0.5102  0.1514
   65CHL1   H17 5941   4.267   0.635   4.484 -0.3018  2.9108 -0.8960
   65CHL1   C13 5942   4.101   0.576   4.359 -0.2008 -0.5958 -0.1276
   65CHL1   C18 5943   3.949   0.576   4.373  0.4633 -0.8757 -0.6171
   65CHL1  H18A 5944   3.910   0.525   4.283 -2.4876  1.4616 -0.8125
   65CHL1  H18B 5945   3.906   0.521   4.458 -1.4075  0.4787 -0.6327
   65CHL1  H18C 5946   3.914   0.681   4.387  2.9278 -0.4092  3.4746
   65CHL1   C12 5947   4.152   0.680   4.248  0.0884 -0.0414 -0.1423
   65CHL1  H12A 5948   4.091   0.773   4.255 -0.7691 -0.4477 -1.6916
   65CHL1  H12B 5949   4.261   0.700   4.254  0.2164 -1.1288  2.7443
   65CHL1   C11 5950   4.123   0.629   4.112  0.2949  0.4776  0.3197
   65CHL1  H11A 5951   4.015   0.626   4.089  0.4479  0.6974 -0.4790
   65CHL1  H11B 5952   4.164   0.705   4.042 -0.0237 -0.2443 -0.6618
   65CHL1    C9 5953   4.154   0.479   4.080 -0.3530  0.2537 -0.6121
   65CHL1    H9 5954   4.265   0.482   4.088 -0.3775 -1.2376  0.7008
   65CHL1   C10 5955   4.112   0.430   3.946 -0.0134 -0.0867 -0.3772
   65CHL1   C19 5956   3.956   0.450   3.928  0.4655  0.7985  0.0529
   65CHL1  H19A 5957   3.898   0.384   3.996 -1.1981  1.8075 -0.3474
   65CHL1  H19B 5958   3.915   0.552   3.945 -2.2732 -0.4363  1.5521
   65CHL1  H19C 5959   3.921   0.415   3.829 -1.2408 -0.4454  1.0486
   65CHL1    C1 5960   4.184   0.517   3.831 -0.4114  0.3088  0.2612
   65CHL1   H1A 5961   4.144   0.620   3.841  0.2601  0.5888  0.1367
   65CHL1   H1B 5962   4.293   0.525   3.853  0.0556  0.0584 -1.7531
   65CHL1    C2 5963   4.163   0.460   3.689  0.3973  0.4307  0.1020
   65CHL1   H2A 5964   4.223   0.523   3.619  2.5928 -0.6097  0.9281
   65CHL1   H2B 5965   4.055   0.442   3.673  0.4316 -1.9861  1.9072
   65CHL1   C20 5966   4.101   0.721   4.579 -0.4650  0.3662 -0.0811
   65CHL1   H20 5967   3.993   0.702   4.598 -0.5100 -0.7677 -1.3889
   65CHL1   C21 5968   4.128   0.856   4.522 -0.0984  1.0850 -0.4410
   65CHL1  H21A 5969   4.106   0.940   4.591 -0.7711  1.4804 -1.1196
   65CHL1  H21B 5970   4.077   0.882   4.427 -4.0437 -0.8244  0.9526
   65CHL1  H21C 5971   4.239   0.857   4.523  0.0645 -1.9585  2.3319
   65CHL1   C22 5972   4.154   0.719   4.728  0.1893 -0.3957  0.7730
   65CHL1  H22A 5973   4.138   0.617   4.768 -1.5440  0.1566  1.5783
   65CHL1  H22B 5974   4.260   0.749   4.742  0.5205 -1.4922  0.7077
   65CHL1   C23 5975   4.074   0.802   4.822  0.4478 -0.1454 -0.1902
   65CHL1  H23A 5976   4.069   0.906   4.782  0.0606  0.4189  1.2840
   65CHL1  H23B 5977   3.970   0.764   4.826 -0.3906  1.8547 -1.5527
   65CHL1   C24 5978   4.126   0.792   4.967 -0.6020 -0.5062 -0.4157
   65CHL1  H24A 5979   4.104   0.695   5.017 -0.6609 -0.0496  0.4714
   65CHL1  H24B 5980   4.237   0.801   4.959 -0.4586 -1.2178  0.6405
   65CHL1   C25 5981   4.074   0.904   5.053  0.6775 -1.0837 -0.1790
   65CHL1   H25 5982   4.088   0.998   4.996 -0.7454  0.3774  1.7599
   65CHL1   C26 5983   3.930   0.883   5.089  0.7788  0.2282 -0.9750
   65CHL1  H26A 5984   3.871   0.889   4.995  0.4483 -1.7026 -0.9201
   65CHL1  H26B 5985   3.913   0.782   5.131  1.3051 -0.2154 -1.7820
   65CHL1  H26C 5986   3.896   0.959   5.162 -1.5488 -1.9032  0.2875
   65CHL1   C27 5987   4.155   0.931   5.191  0.1530 -1.0226  0.4257
   65CHL1  H27A 5988   4.092   1.007   5.242 -0.4152 -1.3717  0.2539
   65CHL1  H27B 5989   4.168   0.842   5.256  1.0890  0.5015  2.4407
   65CHL1  H27C 5990   4.258   0.971   5.173  0.3243 -2.2089 -1.4713
   66CHL1    C3 5991   3.032   1.438   3.363 -0.3967 -0.5840 -1.0874
   66CHL1    H3 5992   2.970   1.530   3.356 -1.6034 -0.8954  2.9129
   66CHL1    O3 5993   3.036   1.371   3.232 -0.4792 -0.3435 -0.4375
   66CHL1   H3' 5994   3.074   1.434   3.169  1.5812 -0.5896  0.4613
   66CHL1    C4 5995   3.163   1.486   3.411 -0.3454 -0.2536 -0.3240
   66CHL1   H4A 5996   3.240   1.406   3.402 -0.3189 -0.9248  3.8262
   66CHL1   H4B 5997   3.198   1.565   3.341  2.0447  0.6343  1.7219
   66CHL1    C5 5998   3.168   1.524   3.557  0.4052  0.3194  0.2925
   66CHL1    C6 5999   3.227   1.640   3.588 -0.2524 -0.1314  0.1419
   66CHL1    H6 6000   3.269   1.704   3.510 -0.6585  2.1901  1.7281
   66CHL1    C7 6001   3.234   1.693   3.728 -0.8388  0.5003 -0.1083
   66CHL1   H7A 6002   3.341   1.708   3.753  0.0170 -3.3084 -0.8017
   66CHL1   H7B 6003   3.175   1.786   3.743  1.0126  1.5934  0.7710
   66CHL1    C8 6004   3.191   1.593   3.837 -0.1288  0.0727 -0.2609
   66CHL1    H8 6005   3.274   1.520   3.845 -0.1894 -0.2521 -2.1201
   66CHL1   C14 6006   3.174   1.653   3.978 -0.2932  0.4739  0.1154
   66CHL1   H14 6007   3.099   1.734   3.963 -1.0994 -0.0902  0.9811
   66CHL1   C15 6008   3.294   1.726   4.035  0.1706 -0.2895  0.1292
   66CHL1  H15A 6009   3.389   1.669   4.026  1.1306  1.2863 -0.1464
   66CHL1  H15B 6010   3.313   1.819   3.978  1.7933 -0.7192 -0.0832
   66CHL1   C16 6011   3.257   1.758   4.180 -0.1102 -0.1463 -0.3130
   66CHL1  H16A 6012   3.342   1.724   4.243 -2.4531 -1.8585  2.1542
   66CHL1  H16B 6013   3.243   1.867   4.199  0.5127 -0.4464  2.1955
   66CHL1   C17 6014   3.133   1.673   4.207  0.1827  0.1930  0.6175
   66CHL1   H17 6015   3.040   1.731   4.187  0.4678  0.1017 -1.1911
   66CHL1   C13 6016   3.123   1.563   4.088  0.0161  0.9296 -0.9856
   66CHL1   C18 6017   3.224   1.454   4.122  0.1254  0.0376  0.4180
   66CHL1  H18A 6018   3.317   1.499   4.164  0.4953  1.3632 -1.6561
   66CHL1  H18B 6019   3.175   1.385   4.194 -2.2785 -0.8369 -1.8647
   66CHL1  H18C 6020   3.254   1.394   4.033 -0.9554  0.2527 -0.1114
   66CHL1   C12 6021   2.986   1.499   4.050 -0.8692  0.0084 -0.2783
   66CHL1  H12A 6022   2.959   1.421   4.125 -1.0226  0.3626  0.0369
   66CHL1  H12B 6023   2.912   1.581   4.052 -1.0673 -0.1426  2.1774
   66CHL1   C11 6024   3.000   1.430   3.910  0.1470  0.5971 -0.1271
   66CHL1  H11A 6025   3.060   1.338   3.925 -0.4886  0.2177  0.1623
   66CHL1  H11B 6026   2.896   1.399   3.887  0.4035 -0.7563  0.4459
   66CHL1    C9 6027   3.063   1.520   3.800  0.5520  0.0315 -0.1148
   66CHL1    H9 6028   2.997   1.607   3.778  2.2635  0.9413 -1.9690
   66CHL1   C10 6029   3.092   1.446   3.663  0.9866  0.4294 -0.0394
   66CHL1   C19 6030   3.174   1.321   3.692 -0.4245 -0.1189  0.5732
   66CHL1  H19A 6031   3.118   1.238   3.740 -0.7668  0.5082  1.2891
   66CHL1  H19B 6032   3.222   1.283   3.599 -0.1844 -2.8724  1.7246
   66CHL1  H19C 6033   3.271   1.349   3.739 -0.1934  1.4247 -0.7758
   66CHL1    C1 6034   2.952   1.405   3.610  0.1645  0.4679 -0.4953
   66CHL1   H1A 6035   2.898   1.333   3.676 -0.2980  1.1208 -0.1513
   66CHL1   H1B 6036   2.891   1.497   3.600  0.8349  0.9306 -0.3703
   66CHL1    C2 6037   2.970   1.337   3.473 -0.4131 -0.2890  0.0459
   66CHL1   H2A 6038   2.866   1.313   3.444 -0.9590 -0.1378  1.7931
   66CHL1   H2B 6039   3.033   1.246   3.469  1.3184  0.8961 -1.1722
   66CHL1   C20 6040   3.121   1.629   4.353  0.1641 -0.4999  0.1544
   66CHL1   H20 6041   3.194   1.548   4.374 -2.5897 -2.7630  1.7094
   66CHL1   C21 6042   2.985   1.547   4.365  0.0320  0.4170 -0.2954
   66CHL1  H21A 6043   2.903   1.586   4.301  0.0741  0.6352 -0.2172
   66CHL1  H21B 6044   2.943   1.537   4.468 -0.8723  1.2222 -0.5673
   66CHL1  H21C 6045   2.999   1.443   4.329 -2.3056  0.5329 -1.7898
   66CHL1   C22 6046   3.135   1.731   4.470 -0.3937  0.4219  0.5145
   66CHL1  H22A 6047   3.200   1.818   4.446 -0.9107  0.4382 -0.9252
   66CHL1  H22B 6048   3.036   1.779   4.483 -0.1150  0.9418  0.7279
   66CHL1   C23 6049   3.176   1.669   4.603 -0.4418  0.5606 -0.3697
   66CHL1  H23A 6050   3.084   1.614   4.633 -0.5188 -0.2289 -1.9608
   66CHL1  H23B 6051   3.260   1.598   4.585  0.4586  0.5718  3.0562
   66CHL1   C24 6052   3.243   1.761   4.712  0.6800 -0.8028  0.2705
   66CHL1  H24A 6053   3.344   1.798   4.685 -0.3334  1.0824 -1.2056
   66CHL1  H24B 6054   3.186   1.856   4.718  1.5606 -0.1908 -0.6739
   66CHL1   C25 6055   3.247   1.699   4.851  0.2887  0.6339  0.4557
   66CHL1   H25 6056   3.145   1.667   4.879 -0.0984  1.6434  0.2611
   66CHL1   C26 6057   3.331   1.571   4.849 -0.0172  0.0779 -0.5463
   66CHL1  H26A 6058   3.313   1.511   4.941 -1.1389  0.2960 -0.6031
   66CHL1  H26B 6059   3.316   1.512   4.756 -1.1716 -1.3021  0.4769
   66CHL1  H26C 6060   3.438   1.600   4.851 -0.5573  2.2909 -0.1003
   66CHL1   C27 6061   3.287   1.792   4.962 -0.1859  0.0977 -0.3200
   66CHL1  H27A 6062   3.223   1.883   4.964  0.2293  0.3911 -0.3054
   66CHL1  H27B 6063   3.387   1.835   4.940 -0.2257 -0.2377 -1.2036
   66CHL1  H27C 6064   3.290   1.726   5.052  1.0205 -0.7846 -0.9778
   67CHL1    C3 6065   1.230   0.252   3.706 -0.2041 -0.3859  0.2533
   67CHL1    H3 6066   1.270   0.151   3.731  0.9466  0.4524  1.9366
   67CHL1    O3 6067   1.194   0.261   3.570  0.3906  0.6358 -0.1079
   67CHL1   H3' 6068   1.267   0.232   3.515 -0.9054  2.2471 -2.8906
   67CHL1    C4 6069   1.107   0.267   3.797 -0.0362 -0.0796  0.0851
   67CHL1   H4A 6070   1.059   0.362   3.767 -0.7774 -0.8652 -1.3625
   67CHL1   H4B 6071   1.039   0.185   3.763  1.1839 -0.1411 -2.4859
   67CHL1    C5 6072   1.139   0.263   3.941  0.2238 -0.0920 -1.0080
   67CHL1    C6 6073   1.071   0.183   4.021  0.1992 -0.1346 -0.5953
   67CHL1    H6 6074   0.993   0.122   3.973  0.6046  0.5357 -2.1772
   67CHL1    C7 6075   1.080   0.179   4.176  0.4161  0.3327 -0.0109
   67CHL1   H7A 6076   0.980   0.191   4.223 -1.5799  1.4345 -4.0763
   67CHL1   H7B 6077   1.124   0.086   4.219  1.5114  0.9102  0.1485
   67CHL1    C8 6078   1.166   0.299   4.230  0.2987 -0.1020 -0.3363
   67CHL1    H8 6079   1.106   0.393   4.236  2.8566  1.6442 -0.4133
   67CHL1   C14 6080   1.221   0.259   4.368  0.1977 -0.1940 -0.7054
   67CHL1   H14 6081   1.286   0.169   4.367  0.5192  0.0389 -0.8839
   67CHL1   C15 6082   1.116   0.220   4.469 -0.1409  0.0429  0.2034
   67CHL1  H15A 6083   1.031   0.291   4.464 -0.4075 -0.2221  0.7877
   67CHL1  H15B 6084   1.078   0.115   4.477 -0.6952  0.2600  0.4730
   67CHL1   C16 6085   1.188   0.234   4.608  0.1828 -0.0182 -0.1542
   67CHL1  H16A 6086   1.126   0.290   4.682 -2.4394 -2.6145 -0.2065
   67CHL1  H16B 6087   1.194   0.132   4.652  0.0800 -0.5040 -1.2370
   67CHL1   C17 6088   1.324   0.304   4.577  0.7899  0.3248  0.0165
   67CHL1   H17 6089   1.398   0.222   4.564  0.2071 -0.5188  1.8215
   67CHL1   C13 6090   1.298   0.370   4.442  0.0693 -0.0173 -0.3185
   67CHL1   C18 6091   1.209   0.488   4.472 -0.5607 -0.4741 -0.3313
   67CHL1  H18A 6092   1.277   0.564   4.517 -0.5702  0.3246 -1.6384
   67CHL1  H18B 6093   1.162   0.526   4.379  0.9747  2.2049 -0.1064
   67CHL1  H18C 6094   1.137   0.467   4.555  0.9525  0.3757  1.2650
   67CHL1   C12 6095   1.416   0.401   4.348  0.2672 -0.3351 -0.2661
   67CHL1  H12A 6096   1.465   0.494   4.386 -2.5260  0.3383  2.0939
   67CHL1  H12B 6097   1.487   0.316   4.352  0.7062  0.0416  0.0986
   67CHL1   C11 6098   1.367   0.429   4.208  0.2040 -0.6648 -0.8273
   67CHL1  H11A 6099   1.305   0.522   4.211  0.4778 -0.4809 -0.7990
   67CHL1  H11B 6100   1.449   0.464   4.142 -0.4915  0.8027 -0.9602
   67CHL1    C9 6101   1.282   0.325   4.132  0.2426 -0.3940 -1.0938
   67CHL1    H9 6102   1.332   0.226   4.139  1.3258  0.2339  1.0467
   67CHL1   C10 6103   1.241   0.366   3.990  0.0777  0.2441  0.3348
   67CHL1   C19 6104   1.177   0.509   3.974 -0.0990  0.6085  0.3162
   67CHL1  H19A 6105   1.151   0.547   3.873  2.1148  1.0486 -0.1593
   67CHL1  H19B 6106   1.093   0.523   4.045 -0.3509  1.7968 -0.1916
   67CHL1  H19C 6107   1.243   0.587   4.018  1.6698 -1.8906  2.3771
   67CHL1    C1 6108   1.367   0.360   3.899  0.1562 -0.5155  0.8400
   67CHL1   H1A 6109   1.427   0.449   3.926 -1.8957  0.6176  1.8447
   67CHL1   H1B 6110   1.436   0.273   3.911  2.8771  1.4153  0.1940
   67CHL1    C2 6111   1.331   0.371   3.754 -0.0227 -0.1682  0.6530
   67CHL1   H2A 6112   1.419   0.360   3.686 -0.5774  1.1924 -0.3327
   67CHL1   H2B 6113   1.288   0.470   3.726  0.6885 -0.1492 -0.4559
   67CHL1   C20 6114   1.386   0.386   4.698  0.2253 -0.5249 -0.4489
   67CHL1   H20 6115   1.322   0.476   4.713  0.3001 -0.3006 -1.3975
   67CHL1   C21 6116   1.521   0.442   4.661 -0.2062 -0.7970 -0.0569
   67CHL1  H21A 6117   1.601   0.370   4.637  0.2151 -0.2817 -0.2096
   67CHL1  H21B 6118   1.558   0.505   4.745  1.7052 -1.7037 -0.1873
   67CHL1  H21C 6119   1.520   0.513   4.575 -0.0603 -0.2867  0.3570
   67CHL1   C22 6120   1.396   0.304   4.826 -0.5918 -0.7555  0.3939
   67CHL1  H22A 6121   1.294   0.264   4.841 -0.2302 -2.2340 -0.8134
   67CHL1  H22B 6122   1.465   0.217   4.819 -2.2140 -2.0750  0.2978
   67CHL1   C23 6123   1.432   0.377   4.945 -0.0584 -0.0770  0.0990
   67CHL1  H23A 6124   1.539   0.407   4.933  0.7124 -0.9936  3.4189
   67CHL1  H23B 6125   1.365   0.463   4.967  0.1854 -0.5476  3.1286
   67CHL1   C24 6126   1.419   0.289   5.076 -0.6308 -0.0825  0.7126
   67CHL1  H24A 6127   1.311   0.290   5.100 -0.6870 -1.1671  0.5746
   67CHL1  H24B 6128   1.454   0.185   5.057  0.6450  0.2714  1.0311
   67CHL1   C25 6129   1.500   0.342   5.192 -0.3454  0.4917  0.3035
   67CHL1   H25 6130   1.601   0.368   5.154 -0.5433 -0.2084 -0.7599
   67CHL1   C26 6131   1.445   0.472   5.242  0.1203 -0.2586 -0.5049
   67CHL1  H26A 6132   1.506   0.529   5.315  0.0935 -1.7804  0.7565
   67CHL1  H26B 6133   1.421   0.535   5.154  1.0854 -0.9671 -1.2973
   67CHL1  H26C 6134   1.347   0.465   5.294  0.5352  0.0044  0.3297
   67CHL1   C27 6135   1.527   0.240   5.300 -0.2225  0.4109  1.2441
   67CHL1  H27A 6136   1.615   0.267   5.363 -0.5659  1.6021  1.2207
   67CHL1  H27B 6137   1.437   0.225   5.364 -0.9351  0.7255  0.3221
   67CHL1  H27C 6138   1.553   0.142   5.255 -0.4346  1.3723 -1.0771
   68CHL1    C3 6139   6.307   0.602   3.363 -0.2204 -0.3542  0.8367
   68CHL1    H3 6140   6.362   0.697   3.384 -0.5121 -0.2613  1.1697
   68CHL1    O3 6141   6.295   0.591   3.216 -0.1388  0.5837 -0.4404
   68CHL1   H3' 6142   6.231   0.521   3.205  2.0894 -1.9784  1.2632
   68CHL1    C4 6143   6.364   0.470   3.419  0.6937 -0.2872 -0.2514
   68CHL1   H4A 6144   6.314   0.377   3.384  1.0151 -0.8510  0.7498
   68CHL1   H4B 6145   6.463   0.463   3.370  0.1220 -1.3079 -1.3058
   68CHL1    C5 6146   6.372   0.472   3.567 -0.2882  0.6351  0.0074
   68CHL1    C6 6147   6.488   0.458   3.635 -0.1666 -0.1104  0.3255
   68CHL1    H6 6148   6.582   0.448   3.579 -0.4848 -0.6573 -0.1148
   68CHL1    C7 6149   6.494   0.447   3.783  0.1229 -0.8391  0.2282
   68CHL1   H7A 6150   6.560   0.361   3.807  2.2274  0.1603 -1.6077
   68CHL1   H7B 6151   6.548   0.535   3.822  3.4908 -0.4971 -4.3419
   68CHL1    C8 6152   6.355   0.419   3.852 -0.8248  0.2513 -0.6756
   68CHL1    H8 6153   6.323   0.315   3.835 -1.4743  0.4301 -0.5507
   68CHL1   C14 6154   6.371   0.442   4.004  0.8629  0.3215  0.2299
   68CHL1   H14 6155   6.418   0.542   4.017  2.2940 -0.3351  0.2969
   68CHL1   C15 6156   6.458   0.359   4.100  0.1942 -0.1297 -0.0785
   68CHL1  H15A 6157   6.447   0.251   4.075 -0.7241  0.1129 -0.7600
   68CHL1  H15B 6158   6.561   0.391   4.076  0.1116 -1.2749 -2.2757
   68CHL1   C16 6159   6.401   0.397   4.241  0.1145 -0.4778 -0.1346
   68CHL1  H16A 6160   6.388   0.310   4.309  0.9336 -0.7351 -0.3092
   68CHL1  H16B 6161   6.477   0.455   4.298 -0.0448  0.1289 -0.5280
   68CHL1   C17 6162   6.275   0.478   4.225  0.1716 -0.1276 -0.2479
   68CHL1   H17 6163   6.292   0.586   4.242 -0.9014  0.3995 -2.2275
   68CHL1   C13 6164   6.237   0.449   4.080  0.3468  0.1519 -0.2651
   68CHL1   C18 6165   6.166   0.312   4.067 -0.0308  0.2038  0.6143
   68CHL1  H18A 6166   6.154   0.269   3.965  0.5207  0.3793  0.4720
   68CHL1  H18B 6167   6.215   0.234   4.128 -0.3130  0.7240  1.5265
   68CHL1  H18C 6168   6.065   0.317   4.113  1.6069  2.6548  4.5258
   68CHL1   C12 6169   6.154   0.557   4.020  0.1908 -0.1681  0.7628
   68CHL1  H12A 6170   6.052   0.558   4.065 -0.5253 -0.3542 -0.7752
   68CHL1  H12B 6171   6.214   0.649   4.036  1.5931 -0.5049 -2.0067
   68CHL1   C11 6172   6.128   0.532   3.871 -0.3440  0.0229  0.0198
   68CHL1  H11A 6173   6.065   0.440   3.872 -1.4412  0.7376  1.1663
   68CHL1  H11B 6174   6.056   0.607   3.832  0.5306  0.1490 -1.4125
   68CHL1    C9 6175   6.254   0.513   3.791 -0.7255  0.6061 -0.9675
   68CHL1    H9 6176   6.306   0.609   3.806 -3.9016  2.3971 -0.5286
   68CHL1   C10 6177   6.239   0.494   3.638 -0.8666 -0.2265  0.0692
   68CHL1   C19 6178   6.135   0.387   3.613 -0.7604 -0.3998  0.1292
   68CHL1  H19A 6179   6.027   0.409   3.626 -0.4463  2.3159 -1.1998
   68CHL1  H19B 6180   6.147   0.352   3.508 -1.6196  0.1389 -0.1625
   68CHL1  H19C 6181   6.148   0.303   3.684 -2.8376  0.4761  1.6418
   68CHL1    C1 6182   6.183   0.629   3.578  0.8631  0.1845  0.0306
   68CHL1   H1A 6183   6.086   0.657   3.623  1.3095  1.6625  0.1152
   68CHL1   H1B 6184   6.251   0.713   3.604  1.0210  0.5146 -1.3720
   68CHL1    C2 6185   6.170   0.635   3.423 -0.1518  0.4193  0.3260
   68CHL1   H2A 6186   6.121   0.726   3.383 -1.4210  0.1968  1.3469
   68CHL1   H2B 6187   6.113   0.545   3.392 -1.2069  1.0419  0.4312
   68CHL1   C20 6188   6.173   0.455   4.337  0.1215 -0.0166  0.0101
   68CHL1   H20 6189   6.149   0.347   4.336  1.2237 -0.3076  1.4888
   68CHL1   C21 6190   6.045   0.525   4.312 -0.3336 -0.4395  0.2619
   68CHL1  H21A 6191   6.067   0.629   4.278  0.5871 -0.7025  0.0327
   68CHL1  H21B 6192   5.980   0.531   4.402  0.3843  1.0708  0.7242
   68CHL1  H21C 6193   5.998   0.468   4.229  2.3504 -0.3480 -1.4319
   68CHL1   C22 6194   6.236   0.494   4.478 -0.2891  0.0075  0.8820
   68CHL1  H22A 6195   6.335   0.445   4.488  0.5727  1.6348  0.6205
   68CHL1  H22B 6196   6.261   0.602   4.477  1.6585 -0.3859 -1.3945
   68CHL1   C23 6197   6.149   0.457   4.598  0.5624 -0.0944 -0.6167
   68CHL1  H23A 6198   6.212   0.477   4.687 -1.4840  1.2383  0.6175
   68CHL1  H23B 6199   6.067   0.531   4.606  1.2168  0.6994 -1.0196
   68CHL1   C24 6200   6.125   0.310   4.610  0.2205  0.0041 -0.2504
   68CHL1  H24A 6201   6.067   0.266   4.526  3.7222 -4.7390 -0.6074
   68CHL1  H24B 6202   6.226   0.263   4.611  0.1979 -0.0922 -1.2325
   68CHL1   C25 6203   6.065   0.270   4.750  0.3767 -0.0302  0.1152
   68CHL1   H25 6204   5.972   0.327   4.771  1.0223  0.5227  1.6068
   68CHL1   C26 6205   6.028   0.121   4.764 -0.0329 -0.0253  0.2379
   68CHL1  H26A 6206   6.005   0.113   4.872  2.3363  0.4675  0.8397
   68CHL1  H26B 6207   5.940   0.085   4.707 -0.7023 -1.2932  1.9810
   68CHL1  H26C 6208   6.113   0.052   4.746 -0.1791 -0.3315  0.6971
   68CHL1   C27 6209   6.143   0.303   4.882  0.4556 -0.6257  0.2091
   68CHL1  H27A 6210   6.089   0.251   4.964  0.3028 -0.6738  0.0802
   68CHL1  H27B 6211   6.242   0.255   4.878  0.5487 -0.3957 -0.5380
   68CHL1  H27C 6212   6.138   0.413   4.898  0.4979 -0.8398  1.8538
   69CHL1    C3 6213   3.583   4.557   3.573  0.4810  0.2366 -0.0102
   69CHL1    H3 6214   3.582   4.446   3.582  0.1351  0.0156 -2.1649
   69CHL1    O3 6215   3.603   4.579   3.434 -0.4276  0.0796 -1.0573
   69CHL1   H3' 6216   3.617   4.674   3.433 -1.6744  0.5126  3.2378
   69CHL1    C4 6217   3.452   4.617   3.615  0.2549  0.4641  0.3781
   69CHL1   H4A 6218   3.444   4.725   3.590  0.2565  0.4357  0.2524
   69CHL1   H4B 6219   3.370   4.560   3.565  1.4824 -3.1820  2.2449
   69CHL1    C5 6220   3.426   4.599   3.760 -0.3390 -0.2850 -0.3945
   69CHL1    C6 6221   3.321   4.533   3.816  0.5245 -0.3728  0.8433
   69CHL1    H6 6222   3.249   4.491   3.743  3.6009 -1.3282 -1.8956
   69CHL1    C7 6223   3.293   4.535   3.961  0.5608 -0.4340 -0.4823
   69CHL1   H7A 6224   3.186   4.556   3.979  0.4537 -1.8155  0.6749
   69CHL1   H7B 6225   3.299   4.434   4.006 -1.7206 -0.1364  0.6427
   69CHL1    C8 6226   3.376   4.631   4.046 -0.1325  0.6265  0.1843
   69CHL1    H8 6227   3.330   4.731   4.032 -0.2846  0.5199 -0.0735
   69CHL1   C14 6228   3.361   4.588   4.194 -0.5811 -0.1355  0.2462
   69CHL1   H14 6229   3.404   4.486   4.198 -1.8077 -0.6249  1.5148
   69CHL1   C15 6230   3.224   4.579   4.261  0.2116  0.4843 -0.4338
   69CHL1  H15A 6231   3.163   4.664   4.227  0.3717  1.2432  1.0775
   69CHL1  H15B 6232   3.161   4.489   4.243 -2.5817  2.2169  0.2424
   69CHL1   C16 6233   3.257   4.579   4.414 -0.5829 -0.4650 -0.2329
   69CHL1  H16A 6234   3.187   4.660   4.447 -0.4807  0.2126 -1.6112
   69CHL1  H16B 6235   3.233   4.481   4.460  2.1612 -1.1102  0.0026
   69CHL1   C17 6236   3.405   4.611   4.424 -0.5733 -0.4993 -0.2356
   69CHL1   H17 6237   3.459   4.514   4.424  0.3854  0.0135 -1.2551
   69CHL1   C13 6238   3.441   4.677   4.291 -0.3998  0.0479 -0.0214
   69CHL1   C18 6239   3.396   4.828   4.291  0.8295  0.3821 -0.3802
   69CHL1  H18A 6240   3.309   4.833   4.359  1.0672 -0.9876  0.0427
   69CHL1  H18B 6241   3.485   4.879   4.336  0.7278 -0.2332  0.5461
   69CHL1  H18C 6242   3.365   4.865   4.191  0.0141  1.5235  0.2777
   69CHL1   C12 6243   3.590   4.655   4.244  1.2162 -0.1551  0.0558
   69CHL1  H12A 6244   3.649   4.715   4.316  1.6011 -1.0558  0.5020
   69CHL1  H12B 6245   3.608   4.546   4.260 -1.1299 -0.2296  2.9974
   69CHL1   C11 6246   3.615   4.705   4.098  0.1721 -0.0536 -0.6989
   69CHL1  H11A 6247   3.584   4.812   4.095  0.3959  0.0534  0.5517
   69CHL1  H11B 6248   3.719   4.679   4.072  0.3313  1.6328 -1.9562
   69CHL1    C9 6249   3.519   4.634   4.002  0.0095  0.7621  0.0257
   69CHL1    H9 6250   3.556   4.529   4.008  1.7343  1.2735 -1.0465
   69CHL1   C10 6251   3.532   4.668   3.855  0.4157 -0.2117 -0.4607
   69CHL1   C19 6252   3.519   4.824   3.836 -0.2734 -0.2673  0.1730
   69CHL1  H19A 6253   3.596   4.874   3.898 -0.5188 -1.3241  1.3630
   69CHL1  H19B 6254   3.546   4.849   3.731 -2.5399 -0.7357 -0.5825
   69CHL1  H19C 6255   3.416   4.862   3.852 -0.3275  0.3490 -1.4236
   69CHL1    C1 6256   3.675   4.614   3.806  0.8853 -0.0074  0.2777
   69CHL1   H1A 6257   3.753   4.675   3.854 -1.6014  3.3397  0.4018
   69CHL1   H1B 6258   3.687   4.512   3.848  0.3189  0.0583  0.6150
   69CHL1    C2 6259   3.698   4.617   3.654 -0.0851  0.1495  0.3749
   69CHL1   H2A 6260   3.791   4.562   3.629 -0.9164 -0.9721 -0.3424
   69CHL1   H2B 6261   3.715   4.718   3.611 -0.4355  0.2294  0.4208
   69CHL1   C20 6262   3.445   4.679   4.559  0.0369  0.0689 -0.4824
   69CHL1   H20 6263   3.391   4.776   4.570  1.1442  0.4641  2.1854
   69CHL1   C21 6264   3.593   4.718   4.557 -0.2990  0.1377 -0.4068
   69CHL1  H21A 6265   3.654   4.632   4.520  0.8426  0.4091  0.7614
   69CHL1  H21B 6266   3.634   4.745   4.657  0.6703  0.5469 -0.8929
   69CHL1  H21C 6267   3.602   4.812   4.499 -0.4274  1.7516  2.0499
   69CHL1   C22 6268   3.410   4.595   4.678 -0.5303 -0.1972  0.5861
   69CHL1  H22A 6269   3.300   4.580   4.680 -0.7031  0.6800 -0.9435
   69CHL1  H22B 6270   3.459   4.495   4.679 -0.0630  0.0276  0.8837
   69CHL1   C23 6271   3.448   4.665   4.813 -0.0991 -0.2046 -0.2844
   69CHL1  H23A 6272   3.558   4.675   4.825 -0.1319  1.0558 -0.8642
   69CHL1  H23B 6273   3.396   4.763   4.809 -1.3193 -0.8825 -1.9512
   69CHL1   C24 6274   3.400   4.581   4.937  0.0075  1.0279 -0.5688
   69CHL1  H24A 6275   3.290   4.599   4.933 -0.4116 -0.5497  1.6956
   69CHL1  H24B 6276   3.421   4.472   4.924  1.3455  0.8442  2.2974
   69CHL1   C25 6277   3.452   4.624   5.077 -0.1322  0.8497 -0.7376
   69CHL1   H25 6278   3.563   4.611   5.083 -0.0381  1.8999 -0.0120
   69CHL1   C26 6279   3.425   4.771   5.098 -0.0589 -0.1751 -1.0972
   69CHL1  H26A 6280   3.485   4.804   5.186 -1.9875 -0.0303  0.2243
   69CHL1  H26B 6281   3.466   4.832   5.015  1.5265  2.6446  1.5481
   69CHL1  H26C 6282   3.318   4.795   5.115  0.5209  0.8298  1.6445
   69CHL1   C27 6283   3.388   4.534   5.182  0.3030 -0.2252 -0.9343
   69CHL1  H27A 6284   3.432   4.433   5.193 -0.4833 -0.3625  1.6441
   69CHL1  H27B 6285   3.400   4.578   5.283  0.3955 -1.2920 -0.4671
   69CHL1  H27C 6286   3.280   4.514   5.164  0.0039 -0.4967  0.9138
   70CHL1    C3 6287   6.146   1.939   3.525  0.0093 -0.0457 -0.2636
   70CHL1    H3 6288   6.176   1.836   3.554  2.1584  0.4721 -0.4813
   70CHL1    O3 6289   6.133   1.942   3.387  0.4934  0.3238 -0.2435
   70CHL1   H3' 6290   6.091   2.027   3.371 -1.7924 -0.1879  2.1946
   70CHL1    C4 6291   6.013   1.981   3.601  0.2588 -0.3016  0.1988
   70CHL1   H4A 6292   5.981   2.080   3.561  0.8017  0.5982  1.8955
   70CHL1   H4B 6293   5.945   1.897   3.578  0.0801  0.0985 -0.7935
   70CHL1    C5 6294   6.048   1.985   3.749 -0.0181  0.5475 -0.6559
   70CHL1    C6 6295   5.971   1.914   3.839 -0.8978 -0.4652 -0.6516
   70CHL1    H6 6296   5.883   1.860   3.803 -1.1511 -1.8699  1.8806
   70CHL1    C7 6297   5.994   1.916   3.988 -0.1866 -0.2360  0.9176
   70CHL1   H7A 6298   5.893   1.922   4.033 -1.3563  1.1913 -1.6802
   70CHL1   H7B 6299   6.027   1.818   4.027 -1.8048 -0.8951  0.7025
   70CHL1    C8 6300   6.083   2.031   4.035  0.8349  0.4952  0.0569
   70CHL1    H8 6301   6.020   2.120   4.016 -1.6477 -1.2385 -0.3673
   70CHL1   C14 6302   6.131   2.016   4.185 -0.0872  0.2743 -0.5210
   70CHL1   H14 6303   6.186   1.919   4.189  0.7866  0.7647 -0.4773
   70CHL1   C15 6304   6.025   1.990   4.294  0.1337 -0.0945  0.2715
   70CHL1  H15A 6305   5.951   2.071   4.279 -0.0209 -0.2147  0.3730
   70CHL1  H15B 6306   5.964   1.897   4.287 -2.3389  1.3141  1.8414
   70CHL1   C16 6307   6.100   2.010   4.421  0.1438  0.3629 -0.5190
   70CHL1  H16A 6308   6.041   2.079   4.485 -1.5220 -0.1102 -1.4767
   70CHL1  H16B 6309   6.098   1.916   4.480 -1.2951  0.4218 -0.4301
   70CHL1   C17 6310   6.241   2.066   4.382 -0.3812 -0.3344  0.5773
   70CHL1   H17 6311   6.308   1.978   4.377  0.3891  0.2764 -0.0444
   70CHL1   C13 6312   6.222   2.124   4.241 -0.0205 -0.1959 -0.0281
   70CHL1   C18 6313   6.143   2.258   4.250 -0.0680 -0.1014 -0.3138
   70CHL1  H18A 6314   6.088   2.262   4.346  1.3954 -0.4627  0.5803
   70CHL1  H18B 6315   6.216   2.342   4.256 -0.5379  0.1954  2.5208
   70CHL1  H18C 6316   6.061   2.257   4.175 -3.0368  0.5218  2.6798
   70CHL1   C12 6317   6.343   2.138   4.143  0.2981 -0.8854 -0.0170
   70CHL1  H12A 6318   6.409   2.222   4.171 -0.6451  0.4679 -1.6750
   70CHL1  H12B 6319   6.401   2.043   4.148 -0.1283 -1.2231 -1.0247
   70CHL1   C11 6320   6.301   2.167   3.994  0.1546 -0.1625 -0.4402
   70CHL1  H11A 6321   6.265   2.272   3.996 -0.0081 -0.2234 -0.0626
   70CHL1  H11B 6322   6.386   2.162   3.923  1.2268 -1.3603  0.8764
   70CHL1    C9 6323   6.200   2.060   3.939  0.5105  0.1187 -0.4668
   70CHL1    H9 6324   6.260   1.966   3.941 -0.1758 -0.3115  0.1408
   70CHL1   C10 6325   6.163   2.073   3.789  0.7218 -0.1429  0.2854
   70CHL1   C19 6326   6.118   2.219   3.763  0.0961  0.5736 -0.1753
   70CHL1  H19A 6327   6.035   2.243   3.832  1.4575 -1.1683  2.2454
   70CHL1  H19B 6328   6.207   2.286   3.768  1.6017 -1.3074 -0.1620
   70CHL1  H19C 6329   6.076   2.234   3.662 -0.7556  3.4227  0.5285
   70CHL1    C1 6330   6.293   2.044   3.714 -0.2321 -0.0826  0.1453
   70CHL1   H1A 6331   6.361   2.130   3.729 -1.7055  1.1527 -0.0086
   70CHL1   H1B 6332   6.342   1.951   3.751 -1.0120 -0.1974  0.9291
   70CHL1    C2 6333   6.262   2.028   3.557 -0.4424 -0.0601  0.0545
   70CHL1   H2A 6334   6.356   1.998   3.506 -0.8709  3.6173 -3.3730
   70CHL1   H2B 6335   6.236   2.124   3.508  2.3239 -0.7418 -3.1351
   70CHL1   C20 6336   6.293   2.155   4.492 -0.3659  0.2854 -0.2055
   70CHL1   H20 6337   6.225   2.240   4.511 -0.8140  0.5708 -2.7162
   70CHL1   C21 6338   6.427   2.214   4.442 -0.3875 -0.4280  0.1228
   70CHL1  H21A 6339   6.501   2.136   4.414  1.2113  0.2841  2.0866
   70CHL1  H21B 6340   6.482   2.280   4.514  0.8460  2.4247 -3.1344
   70CHL1  H21C 6341   6.409   2.289   4.362 -0.5147  1.0434  1.4561
   70CHL1   C22 6342   6.303   2.078   4.635 -0.2893 -0.3182 -0.5171
   70CHL1  H22A 6343   6.200   2.043   4.657 -1.2287  2.2189 -0.4895
   70CHL1  H22B 6344   6.378   1.997   4.625 -0.1439  0.0475 -3.2906
   70CHL1   C23 6345   6.341   2.174   4.750 -0.3191  0.4150  0.5360
   70CHL1  H23A 6346   6.451   2.174   4.764 -0.0943 -1.8882 -0.6834
   70CHL1  H23B 6347   6.309   2.279   4.734 -1.6427  0.0427  0.5873
   70CHL1   C24 6348   6.283   2.131   4.888 -0.1067 -0.3035  0.7960
   70CHL1  H24A 6349   6.178   2.107   4.860 -0.0380  1.0750 -0.8054
   70CHL1  H24B 6350   6.329   2.037   4.924 -0.4728 -1.1867 -0.9536
   70CHL1   C25 6351   6.294   2.234   5.000  0.2835 -0.7923  0.3235
   70CHL1   H25 6352   6.255   2.332   4.964  2.0164 -0.9387 -2.2816
   70CHL1   C26 6353   6.220   2.174   5.121  0.1938 -0.3822 -1.0753
   70CHL1  H26A 6354   6.274   2.085   5.161  0.3090 -0.8207 -2.1684
   70CHL1  H26B 6355   6.231   2.244   5.207  1.2881 -0.6393 -0.9843
   70CHL1  H26C 6356   6.114   2.160   5.091  0.3146  0.2049 -1.8147
   70CHL1   C27 6357   6.444   2.262   5.037 -0.3738  0.6633 -0.2229
   70CHL1  H27A 6358   6.454   2.335   5.120 -0.2165 -0.5116  0.8348
   70CHL1  H27B 6359   6.494   2.173   5.082  1.4463  0.2065 -2.9108
   70CHL1  H27C 6360   6.505   2.312   4.958  1.2903 -1.5595 -0.4549
   71CHL1    C3 6361   5.600   0.444   3.498 -0.4364 -0.3300 -0.1876
   71CHL1    H3 6362   5.590   0.334   3.488  1.3693 -0.5968  0.6404
   71CHL1    O3 6363   5.600   0.507   3.375 -0.1452  0.9267  0.4116
   71CHL1   H3' 6364   5.688   0.493   3.338 -0.2540  0.7990  0.1965
   71CHL1    C4 6365   5.479   0.502   3.581  0.5242 -0.8408  0.6247
   71CHL1   H4A 6366   5.494   0.612   3.584 -2.2713 -0.4012  1.9566
   71CHL1   H4B 6367   5.383   0.490   3.526  1.9036  0.5366 -2.3312
   71CHL1    C5 6368   5.479   0.455   3.727 -0.7349 -0.4727  0.1966
   71CHL1    C6 6369   5.365   0.395   3.773  0.1784 -0.7966 -0.0421
   71CHL1    H6 6370   5.279   0.380   3.706 -1.3619 -0.8256  1.8500
   71CHL1    C7 6371   5.354   0.362   3.918  0.3061  0.2389 -0.1921
   71CHL1   H7A 6372   5.253   0.387   3.956 -0.5055 -0.9530 -1.4874
   71CHL1   H7B 6373   5.365   0.251   3.926 -1.4266 -0.1862 -2.7282
   71CHL1    C8 6374   5.461   0.434   4.011  0.3657 -0.5465 -0.1798
   71CHL1    H8 6375   5.427   0.540   4.020 -1.2681 -0.7891 -2.5239
   71CHL1   C14 6376   5.472   0.374   4.154  0.3899 -0.0860  0.6106
   71CHL1   H14 6377   5.508   0.270   4.139  0.3936  0.0190 -0.1695
   71CHL1   C15 6378   5.339   0.341   4.229  0.4455 -0.1848 -0.0043
   71CHL1  H15A 6379   5.275   0.431   4.220  0.4353 -0.0183  1.4331
   71CHL1  H15B 6380   5.275   0.258   4.192  0.1561  0.3809 -0.8028
   71CHL1   C16 6381   5.374   0.332   4.380 -0.5660  0.2617  0.3558
   71CHL1  H16A 6382   5.317   0.402   4.445  2.6056  2.0505  1.4266
   71CHL1  H16B 6383   5.369   0.228   4.417  0.3278  1.0120  2.7624
   71CHL1   C17 6384   5.528   0.362   4.383 -0.4679 -0.1545  0.3482
   71CHL1   H17 6385   5.574   0.263   4.361 -1.1059 -0.6185  1.0411
   71CHL1   C13 6386   5.563   0.438   4.254  0.5276 -0.6930  0.0576
   71CHL1   C18 6387   5.517   0.584   4.281 -0.0647  0.7395  0.0722
   71CHL1  H18A 6388   5.418   0.588   4.330  0.1480  3.5133  0.4233
   71CHL1  H18B 6389   5.589   0.623   4.355  1.0671 -2.8178  1.0580
   71CHL1  H18C 6390   5.505   0.646   4.189 -1.5518  1.2968  0.6141
   71CHL1   C12 6391   5.701   0.434   4.194 -0.1469  0.1917 -0.0512
   71CHL1  H12A 6392   5.783   0.478   4.255 -0.5421  0.6467  0.1562
   71CHL1  H12B 6393   5.721   0.325   4.194 -0.4474  0.1310  0.4383
   71CHL1   C11 6394   5.704   0.492   4.048  0.2317 -0.3762  0.2124
   71CHL1  H11A 6395   5.687   0.602   4.060  0.8663 -0.2156 -0.3186
   71CHL1  H11B 6396   5.811   0.488   4.019  0.5127  0.0374  1.1496
   71CHL1    C9 6397   5.603   0.430   3.951  0.1617 -0.5644 -0.2080
   71CHL1    H9 6398   5.616   0.320   3.952 -2.7965 -1.0703  2.6066
   71CHL1   C10 6399   5.608   0.479   3.804 -0.0747  0.3036  0.0673
   71CHL1   C19 6400   5.617   0.628   3.822  0.4406 -0.1129 -0.3248
   71CHL1  H19A 6401   5.535   0.670   3.884  1.8605  0.6283  1.1210
   71CHL1  H19B 6402   5.712   0.665   3.867  0.0680  3.8241 -2.2723
   71CHL1  H19C 6403   5.622   0.685   3.726 -0.6089  0.5254 -0.0095
   71CHL1    C1 6404   5.727   0.420   3.722 -1.0880 -0.2466 -0.0589
   71CHL1   H1A 6405   5.819   0.455   3.773 -1.0977  2.0891 -1.5238
   71CHL1   H1B 6406   5.717   0.310   3.738 -2.3903  0.1023  1.7225
   71CHL1    C2 6407   5.732   0.461   3.571  0.4175 -0.0426  0.9558
   71CHL1   H2A 6408   5.815   0.409   3.519  0.4362  0.1892  0.7510
   71CHL1   H2B 6409   5.752   0.571   3.568  1.1100 -0.1880 -0.9426
   71CHL1   C20 6410   5.585   0.400   4.523  0.6822  0.3242  0.3854
   71CHL1   H20 6411   5.558   0.505   4.548 -0.4766 -0.0838  0.9247
   71CHL1   C21 6412   5.733   0.380   4.528 -0.0705 -0.0866 -0.5481
   71CHL1  H21A 6413   5.745   0.274   4.498 -0.3329 -0.5057  0.7573
   71CHL1  H21B 6414   5.775   0.397   4.630  1.0814 -0.1100 -1.0048
   71CHL1  H21C 6415   5.791   0.450   4.465  0.9837  0.5538  1.0846
   71CHL1   C22 6416   5.521   0.298   4.627 -0.5075  0.1535  0.2734
   71CHL1  H22A 6417   5.410   0.297   4.624 -0.4852 -0.5390 -1.6493
   71CHL1  H22B 6418   5.548   0.192   4.605 -2.5954 -0.7351  1.6570
   71CHL1   C23 6419   5.558   0.344   4.763  0.1368 -0.2487 -0.2816
   71CHL1  H23A 6420   5.648   0.289   4.797 -0.6872 -1.6141 -0.2378
   71CHL1  H23B 6421   5.575   0.454   4.767  0.5423 -0.2933 -0.7527
   71CHL1   C24 6422   5.436   0.309   4.858 -0.0603  0.1512 -0.3735
   71CHL1  H24A 6423   5.347   0.373   4.840 -0.7803 -0.7480 -0.0724
   71CHL1  H24B 6424   5.402   0.205   4.838 -0.1442  0.6146 -3.0978
   71CHL1   C25 6425   5.469   0.321   5.010 -0.4104  0.1026 -0.9925
   71CHL1   H25 6426   5.565   0.267   5.025  2.3450  4.2952 -1.7579
   71CHL1   C26 6427   5.500   0.465   5.061  0.7700 -0.7112  0.5265
   71CHL1  H26A 6428   5.504   0.475   5.172  1.7088  2.3553  0.3130
   71CHL1  H26B 6429   5.599   0.502   5.026  0.5915 -1.4673 -0.8335
   71CHL1  H26C 6430   5.419   0.535   5.032  0.7557 -0.5671  0.9027
   71CHL1   C27 6431   5.355   0.260   5.091 -0.3670  0.0834  0.1980
   71CHL1  H27A 6432   5.384   0.246   5.197  0.2265 -0.6713 -0.0498
   71CHL1  H27B 6433   5.266   0.326   5.096 -0.9155 -0.6179 -0.1339
   71CHL1  H27C 6434   5.336   0.163   5.041  0.1096  0.5818 -1.0169
   72CHL1    C3 6435   1.859   4.120   3.354  0.0104 -0.2998  0.1894
   72CHL1    H3 6436   1.769   4.056   3.348 -0.2107 -0.0639  0.9288
   72CHL1    O3 6437   1.895   4.144   3.219  0.6091 -0.4102 -1.0790
   72CHL1   H3' 6438   1.925   4.235   3.227 -3.6871  1.0536  1.2530
   72CHL1    C4 6439   1.805   4.251   3.415 -0.0733 -0.3436 -0.4852
   72CHL1   H4A 6440   1.876   4.337   3.414 -0.4647 -0.0011 -2.1636
   72CHL1   H4B 6441   1.721   4.278   3.347  0.8566 -0.5820 -1.7669
   72CHL1    C5 6442   1.771   4.240   3.560 -0.6868 -0.5329  0.2397
   72CHL1    C6 6443   1.652   4.275   3.608  0.0300  0.1817 -0.7277
   72CHL1    H6 6444   1.570   4.303   3.540 -0.0785 -0.3805 -0.8350
   72CHL1    C7 6445   1.622   4.272   3.758  0.5147 -0.4738  0.1122
   72CHL1   H7A 6446   1.554   4.355   3.786  0.0672 -0.1987 -1.6792
   72CHL1   H7B 6447   1.576   4.174   3.783  1.0125 -0.7187  0.0722
   72CHL1    C8 6448   1.747   4.275   3.849  0.2042 -0.0733 -0.1132
   72CHL1    H8 6449   1.787   4.378   3.835 -0.7967  0.1098 -1.9045
   72CHL1   C14 6450   1.719   4.237   3.986  0.0480 -0.1307 -0.6633
   72CHL1   H14 6451   1.710   4.127   3.978 -0.3946 -0.0568 -1.2753
   72CHL1   C15 6452   1.597   4.299   4.058 -0.1783 -0.3125 -0.4235
   72CHL1  H15A 6453   1.594   4.410   4.047 -1.9650  0.0002  2.3622
   72CHL1  H15B 6454   1.509   4.248   4.012 -2.0257  1.2710  1.1437
   72CHL1   C16 6455   1.621   4.254   4.209  0.7051 -0.3053  0.1128
   72CHL1  H16A 6456   1.600   4.338   4.278  0.1265  1.0650 -1.6723
   72CHL1  H16B 6457   1.556   4.167   4.235  0.7197  0.0729  1.4698
   72CHL1   C17 6458   1.767   4.208   4.228 -0.6232  0.2815  0.0028
   72CHL1   H17 6459   1.769   4.097   4.223  0.2640  0.2249  1.0379
   72CHL1   C13 6460   1.835   4.240   4.092 -0.4027  0.1514 -0.2783
   72CHL1   C18 6461   1.911   4.379   4.089  0.5757 -0.0998  0.3211
   72CHL1  H18A 6462   1.848   4.463   4.124 -0.2834 -0.8037  0.5016
   72CHL1  H18B 6463   2.001   4.370   4.154 -0.1973 -2.9360  1.1397
   72CHL1  H18C 6464   1.939   4.399   3.984 -0.6777 -0.3942 -0.0909
   72CHL1   C12 6465   1.940   4.127   4.037  0.9012  0.0699  0.1597
   72CHL1  H12A 6466   2.028   4.126   4.104 -0.0949 -0.9071  1.4980
   72CHL1  H12B 6467   1.898   4.028   4.065  0.5687  0.5150  1.3200
   72CHL1   C11 6468   1.973   4.144   3.889 -0.2692  0.3677 -0.4893
   72CHL1  H11A 6469   2.052   4.222   3.876 -0.8502  0.7745 -1.6471
   72CHL1  H11B 6470   2.008   4.048   3.847 -0.3055  0.1085  0.0604
   72CHL1    C9 6471   1.851   4.179   3.793 -0.5140 -1.2256 -0.2598
   72CHL1    H9 6472   1.796   4.083   3.785 -0.8003 -1.0896  0.0719
   72CHL1   C10 6473   1.893   4.201   3.646  0.1622 -0.1768 -0.7609
   72CHL1   C19 6474   2.003   4.309   3.634 -0.3815  0.6060 -0.8955
   72CHL1  H19A 6475   1.945   4.401   3.655 -2.3201 -1.0079  1.5536
   72CHL1  H19B 6476   2.078   4.297   3.716 -2.5992  0.2464  1.2241
   72CHL1  H19C 6477   2.041   4.310   3.530  1.4192  0.6737 -0.2687
   72CHL1    C1 6478   1.939   4.062   3.589  0.1630  0.0189  0.1487
   72CHL1   H1A 6479   2.030   4.027   3.643  0.8077  3.2135  1.3556
   72CHL1   H1B 6480   1.863   3.981   3.591 -1.2841  1.2897 -0.5094
   72CHL1    C2 6481   1.971   4.058   3.437 -0.3494  0.6765 -0.5239
   72CHL1   H2A 6482   1.992   3.954   3.404  1.3494  0.1945  1.8136
   72CHL1   H2B 6483   2.065   4.112   3.415  1.5381 -1.7623  0.9580
   72CHL1   C20 6484   1.826   4.245   4.364  0.6071  0.3377 -0.3853
   72CHL1   H20 6485   1.834   4.356   4.363  0.1882  0.3777  0.1896
   72CHL1   C21 6486   1.964   4.176   4.378 -0.2626 -0.4450 -0.0711
   72CHL1  H21A 6487   2.007   4.216   4.472 -2.3868  0.3451  0.6286
   72CHL1  H21B 6488   2.034   4.210   4.299  0.4366  2.6866  1.7095
   72CHL1  H21C 6489   1.949   4.066   4.385 -1.7205 -0.2580  0.1141
   72CHL1   C22 6490   1.725   4.217   4.483 -0.1717 -0.0466  0.3775
   72CHL1  H22A 6491   1.630   4.273   4.468  2.2326  4.2182 -0.1253
   72CHL1  H22B 6492   1.719   4.107   4.501 -0.2916 -0.5229 -2.2551
   72CHL1   C23 6493   1.776   4.275   4.619  0.4299  0.1282 -0.3579
   72CHL1  H23A 6494   1.860   4.222   4.668 -0.9215 -0.7600  1.0780
   72CHL1  H23B 6495   1.824   4.374   4.599  2.5472 -1.0824 -1.6510
   72CHL1   C24 6496   1.660   4.289   4.714 -0.3089 -0.0142 -0.4608
   72CHL1  H24A 6497   1.590   4.367   4.677  1.0893  0.9272 -1.2192
   72CHL1  H24B 6498   1.597   4.198   4.716  2.1544 -1.8100  1.0152
   72CHL1   C25 6499   1.700   4.300   4.857 -0.3358 -0.7417 -0.3264
   72CHL1   H25 6500   1.801   4.346   4.870  0.5061 -2.5078 -0.3155
   72CHL1   C26 6501   1.608   4.385   4.933 -0.7564  0.7709 -0.3284
   72CHL1  H26A 6502   1.506   4.342   4.942 -0.3112 -0.2727 -0.0943
   72CHL1  H26B 6503   1.635   4.404   5.039 -0.7205 -1.9848  0.2185
   72CHL1  H26C 6504   1.607   4.491   4.898 -1.1557  1.2116  0.9910
   72CHL1   C27 6505   1.722   4.159   4.918 -0.1314 -0.6102  0.1962
   72CHL1  H27A 6506   1.634   4.094   4.896  1.3376 -2.6725  0.1272
   72CHL1  H27B 6507   1.810   4.108   4.874  1.4877  2.3942 -0.2947
   72CHL1  H27C 6508   1.749   4.181   5.023  1.0231  0.6125 -0.3334
   73CHL1    C3 6509   4.188   4.877   3.717  0.4606 -0.0706  0.1371
   73CHL1    H3 6510   4.280   4.832   3.760 -0.1014 -1.4431 -0.0761
   73CHL1    O3 6511   4.190   4.890   3.577 -0.5504  0.9340 -0.4840
   73CHL1   H3' 6512   4.141   4.969   3.554 -0.3103  1.4233  0.6332
   73CHL1    C4 6513   4.067   4.794   3.752  1.1662  0.0709 -1.2480
   73CHL1   H4A 6514   3.977   4.852   3.723 -0.3542  1.0270  4.2561
   73CHL1   H4B 6515   4.092   4.703   3.693 -0.6243  0.2448 -2.3363
   73CHL1    C5 6516   4.054   4.782   3.902  0.3208  0.2856  0.2701
   73CHL1    C6 6517   4.061   4.659   3.947 -0.3047 -0.0129 -0.6289
   73CHL1    H6 6518   4.057   4.576   3.875  1.3643 -0.4570 -0.2589
   73CHL1    C7 6519   4.053   4.619   4.097  0.1358 -0.0904 -0.1841
   73CHL1   H7A 6520   3.989   4.531   4.120 -0.9809  0.3230 -1.5864
   73CHL1   H7B 6521   4.151   4.576   4.127  2.0449  2.2748 -2.5196
   73CHL1    C8 6522   4.031   4.740   4.194  0.4558 -0.5302  0.0384
   73CHL1    H8 6523   3.924   4.767   4.194  0.8451  1.2592  1.8476
   73CHL1   C14 6524   4.068   4.710   4.334 -0.0290 -0.2955 -0.5108
   73CHL1   H14 6525   4.174   4.680   4.340  0.5198  1.7047  2.3393
   73CHL1   C15 6526   3.991   4.594   4.401  0.6424 -0.6133 -0.1076
   73CHL1  H15A 6527   3.884   4.602   4.371  1.3650  1.6108 -2.4701
   73CHL1  H15B 6528   4.024   4.495   4.363  0.7583  0.2024 -2.2801
   73CHL1   C16 6529   4.020   4.620   4.548  0.1271  0.6287  0.6488
   73CHL1  H16A 6530   3.921   4.603   4.594 -0.3159 -1.1070 -0.8414
   73CHL1  H16B 6531   4.099   4.551   4.586  0.2733  0.2365 -0.3384
   73CHL1   C17 6532   4.072   4.769   4.570 -0.3996 -0.5239  0.2452
   73CHL1   H17 6533   4.182   4.758   4.573 -0.0758  1.7881 -0.8427
   73CHL1   C13 6534   4.047   4.833   4.431  0.0282  0.6868  0.3814
   73CHL1   C18 6535   3.897   4.884   4.423  0.6326  0.4692 -0.0628
   73CHL1  H18A 6536   3.890   4.980   4.478 -1.5758  1.3027 -1.6693
   73CHL1  H18B 6537   3.869   4.906   4.318  0.3776  0.9706  0.1071
   73CHL1  H18C 6538   3.830   4.808   4.469  0.0625  1.9533  1.6633
   73CHL1   C12 6539   4.146   4.942   4.384  0.0269  0.4970 -0.1009
   73CHL1  H12A 6540   4.154   5.028   4.454  3.2268 -0.0847  0.4216
   73CHL1  H12B 6541   4.247   4.897   4.394 -1.2304 -2.1837  1.8396
   73CHL1   C11 6542   4.122   4.983   4.241 -0.6457 -0.5059  0.3665
   73CHL1  H11A 6543   4.023   5.032   4.242  0.6129  2.2202  1.1976
   73CHL1  H11B 6544   4.195   5.056   4.199 -0.8142 -1.2660 -1.3413
   73CHL1    C9 6545   4.108   4.859   4.139 -0.0049 -0.1389 -0.4619
   73CHL1    H9 6546   4.215   4.827   4.146  0.3723  1.2164  0.5374
   73CHL1   C10 6547   4.071   4.904   3.993  0.6633 -0.4346  0.0005
   73CHL1   C19 6548   3.936   4.982   3.980 -0.2170  0.1499  0.1164
   73CHL1  H19A 6549   3.918   5.024   3.878 -2.0062 -1.8639 -0.4510
   73CHL1  H19B 6550   3.852   4.929   4.029 -0.5285  0.3447 -0.2035
   73CHL1  H19C 6551   3.959   5.074   4.039 -1.1563  0.5726 -0.1585
   73CHL1    C1 6552   4.187   4.994   3.933 -0.3083 -0.8935  0.2390
   73CHL1   H1A 6553   4.183   5.096   3.976 -1.5876 -0.5445 -0.6568
   73CHL1   H1B 6554   4.286   4.952   3.962 -0.6406 -2.4937 -0.7799
   73CHL1    C2 6555   4.184   5.020   3.783 -0.2340 -0.4276  0.1315
   73CHL1   H2A 6556   4.283   5.058   3.749  0.7740 -2.2845  0.8376
   73CHL1   H2B 6557   4.102   5.086   3.749 -0.2590 -1.2780 -1.5905
   73CHL1   C20 6558   4.017   4.842   4.693  0.4605 -0.1212 -0.4201
   73CHL1   H20 6559   3.907   4.858   4.684  0.5554  0.1635 -1.1014
   73CHL1   C21 6560   4.087   4.974   4.718 -0.3096  0.4316 -0.8882
   73CHL1  H21A 6561   4.198   4.966   4.710 -0.1727 -3.3863  1.8672
   73CHL1  H21B 6562   4.061   5.020   4.815  0.7488  0.8436 -0.7816
   73CHL1  H21C 6563   4.057   5.043   4.636 -2.3949 -0.9545 -1.3780
   73CHL1   C22 6564   4.052   4.748   4.818  0.4433 -0.0685  0.3779
   73CHL1  H22A 6565   4.011   4.648   4.790  0.9354 -1.1484  3.1514
   73CHL1  H22B 6566   4.163   4.744   4.822  1.0142  2.7715 -4.6265
   73CHL1   C23 6567   3.987   4.791   4.943  1.0994  0.2342 -0.7093
   73CHL1  H23A 6568   4.033   4.875   5.001  2.2125 -0.9066  0.1298
   73CHL1  H23B 6569   3.879   4.814   4.933  1.1469  0.0551 -1.7221
   73CHL1   C24 6570   4.009   4.677   5.051  0.2076  0.4385  0.1152
   73CHL1  H24A 6571   3.969   4.586   5.001  0.2911  1.3566 -1.7155
   73CHL1  H24B 6572   4.116   4.647   5.051 -0.4976 -2.3243  0.2653
   73CHL1   C25 6573   3.951   4.703   5.189 -0.2734  0.2844  0.6588
   73CHL1   H25 6574   3.955   4.812   5.212 -0.7935  0.3983  0.2399
   73CHL1   C26 6575   3.807   4.653   5.205  0.0299  0.4809 -0.2522
   73CHL1  H26A 6576   3.816   4.543   5.198 -1.9785  0.0104  2.8286
   73CHL1  H26B 6577   3.764   4.683   5.302  1.4564  1.1508  0.2051
   73CHL1  H26C 6578   3.743   4.696   5.124 -0.8167  0.3117  0.3251
   73CHL1   C27 6579   4.040   4.636   5.297  0.4831  0.4084  0.0417
   73CHL1  H27A 6580   4.139   4.686   5.292 -0.0894  1.5231 -0.4189
   73CHL1  H27B 6581   3.999   4.637   5.401  0.4630 -1.8698  0.1180
   73CHL1  H27C 6582   4.053   4.529   5.269  2.8549  0.6325  0.0627
   74CHL1    C3 6583   4.994   0.223   3.186 -0.0201  0.1193  0.0522
   74CHL1    H3 6584   5.101   0.191   3.195  0.2122  0.4486 -1.3729
   74CHL1    O3 6585   4.957   0.249   3.052 -0.0150  0.4581  0.2063
   74CHL1   H3' 6586   5.032   0.305   3.031 -0.3006  0.4141 -1.0249
   74CHL1    C4 6587   4.904   0.116   3.243  0.3520  0.7213  1.0908
   74CHL1   H4A 6588   4.798   0.131   3.214  0.0776  0.6437  2.0154
   74CHL1   H4B 6589   4.936   0.023   3.193 -0.8489  1.8584 -2.0299
   74CHL1    C5 6590   4.923   0.093   3.392 -0.3011 -0.1634 -0.1587
   74CHL1    C6 6591   4.960  -0.023   3.452 -0.3728 -0.3462 -0.0828
   74CHL1    H6 6592   4.975  -0.115   3.394  2.3236 -0.4750  0.6601
   74CHL1    C7 6593   4.977  -0.050   3.601 -0.3719  0.1624 -0.4252
   74CHL1   H7A 6594   4.911  -0.136   3.627 -0.8942  0.1143 -1.8530
   74CHL1   H7B 6595   5.083  -0.076   3.620 -0.8982 -1.3730  0.6260
   74CHL1    C8 6596   4.919   0.067   3.688 -0.5651  0.2405  0.4860
   74CHL1    H8 6597   4.809   0.052   3.693 -0.6957  1.1270  0.5543
   74CHL1   C14 6598   4.984   0.058   3.829 -0.5788 -0.1748  0.0188
   74CHL1   H14 6599   5.094   0.071   3.816 -0.6674  0.3952 -0.1589
   74CHL1   C15 6600   4.973  -0.075   3.906 -0.2795 -0.4417  0.3184
   74CHL1  H15A 6601   4.867  -0.110   3.902 -0.1059 -0.9590  0.0786
   74CHL1  H15B 6602   5.032  -0.157   3.859  0.2126 -0.2627  0.6148
   74CHL1   C16 6603   5.021  -0.041   4.045 -0.1595 -0.0806 -0.0942
   74CHL1  H16A 6604   4.957  -0.083   4.125  2.8429 -0.2634  2.4066
   74CHL1  H16B 6605   5.129  -0.066   4.058 -0.1255  0.8026  1.5413
   74CHL1   C17 6606   5.022   0.121   4.056  0.0308  0.0293  1.0267
   74CHL1   H17 6607   5.132   0.139   4.051  0.4123 -1.5662  2.6210
   74CHL1   C13 6608   4.947   0.165   3.928 -0.1507 -0.3598 -0.1453
   74CHL1   C18 6609   4.797   0.155   3.945 -0.8071 -0.5860 -0.9612
   74CHL1  H18A 6610   4.763   0.063   3.999 -0.1822 -0.0843  0.3272
   74CHL1  H18B 6611   4.764   0.245   4.001  1.1687  0.8276 -1.9752
   74CHL1  H18C 6612   4.746   0.160   3.847 -0.8109  1.2801 -0.8831
   74CHL1   C12 6613   4.979   0.302   3.861  0.3068  0.3899  0.5979
   74CHL1  H12A 6614   4.953   0.380   3.937  0.3793 -0.3700  1.4226
   74CHL1  H12B 6615   5.090   0.306   3.854  0.3296  2.6808  1.2747
   74CHL1   C11 6616   4.917   0.326   3.714 -0.3650  0.6233 -0.2440
   74CHL1  H11A 6617   4.808   0.341   3.726 -0.9165 -2.2646 -0.9513
   74CHL1  H11B 6618   4.955   0.421   3.670  0.1459  1.4549  1.8486
   74CHL1    C9 6619   4.952   0.207   3.621  0.0461 -0.6757  0.1720
   74CHL1    H9 6620   5.063   0.201   3.613 -0.0129 -1.1312 -0.3324
   74CHL1   C10 6621   4.907   0.225   3.474  0.6719 -0.4519  0.0708
   74CHL1   C19 6622   4.753   0.248   3.482 -0.3867  0.0363  0.2270
   74CHL1  H19A 6623   4.716   0.267   3.379  1.7470  0.5499 -0.4816
   74CHL1  H19B 6624   4.704   0.162   3.532  0.9293 -0.5554  0.5248
   74CHL1  H19C 6625   4.739   0.344   3.536  2.9172  0.7867 -0.0159
   74CHL1    C1 6626   4.970   0.355   3.407  0.4599  0.4252 -0.6665
   74CHL1   H1A 6627   4.928   0.439   3.466  0.6074 -1.4670  2.3611
   74CHL1   H1B 6628   5.079   0.355   3.428 -0.1628  1.4279  3.4400
   74CHL1    C2 6629   4.967   0.359   3.254  0.3960  0.3688 -0.2890
   74CHL1   H2A 6630   5.040   0.435   3.218  1.2563  0.7856  2.1486
   74CHL1   H2B 6631   4.866   0.390   3.218 -1.0605 -3.4060  0.0598
   74CHL1   C20 6632   4.969   0.166   4.188  0.5738  0.7614  0.6912
   74CHL1   H20 6633   4.863   0.135   4.201  1.1540 -3.7216 -2.8219
   74CHL1   C21 6634   4.991   0.319   4.206  0.1613 -0.2346  0.8467
   74CHL1  H21A 6635   5.097   0.344   4.184  0.5086 -1.7478  0.7116
   74CHL1  H21B 6636   4.956   0.345   4.308 -0.4871 -3.9009  1.7273
   74CHL1  H21C 6637   4.921   0.373   4.139  0.2832  0.2524  1.1091
   74CHL1   C22 6638   5.041   0.100   4.302 -0.6634  0.5662  0.2628
   74CHL1  H22A 6639   5.059  -0.009   4.288  0.8344  0.8806 -0.4698
   74CHL1  H22B 6640   5.139   0.153   4.306 -1.3968  2.0268 -0.3857
   74CHL1   C23 6641   4.977   0.113   4.443 -0.6671  0.3747 -0.1726
   74CHL1  H23A 6642   4.888   0.179   4.451 -1.1615  0.1513 -2.8990
   74CHL1  H23B 6643   4.949   0.005   4.449  0.6741  0.0542  0.9006
   74CHL1   C24 6644   5.065   0.132   4.567 -0.0429  0.1004  0.2710
   74CHL1  H24A 6645   5.127   0.042   4.587  0.6863  0.3243 -0.8743
   74CHL1  H24B 6646   5.137   0.215   4.547 -0.9062  0.5244 -1.2441
   74CHL1   C25 6647   4.996   0.152   4.702  0.3634 -0.1055  0.7429
   74CHL1   H25 6648   4.943   0.249   4.693 -1.0093 -0.8054  1.0537
   74CHL1   C26 6649   4.892   0.040   4.723  0.5342  1.0861 -0.0851
   74CHL1  H26A 6650   4.818   0.044   4.640  0.6294 -0.5881 -0.2872
   74CHL1  H26B 6651   4.936  -0.061   4.735  0.7131  1.3284  1.5743
   74CHL1  H26C 6652   4.824   0.048   4.811  0.2433  0.0647 -0.2023
   74CHL1   C27 6653   5.086   0.160   4.816 -1.0752 -0.2833  0.5537
   74CHL1  H27A 6654   5.172   0.089   4.811 -0.4050  0.5409 -0.0144
   74CHL1  H27B 6655   5.132   0.261   4.811 -3.4478  0.9349  1.6916
   74CHL1  H27C 6656   5.041   0.158   4.917  1.4228  1.7550  1.8491
   75CHL1    C3 6657   2.978   4.281   3.659 -0.4438  0.6459  0.3607
   75CHL1    H3 6658   3.085   4.312   3.661 -0.4529  0.8735 -1.1286
   75CHL1    O3 6659   2.935   4.260   3.524 -0.2085 -0.0161 -0.8895
   75CHL1   H3' 6660   2.958   4.339   3.475 -0.3364 -0.9985 -2.6258
   75CHL1    C4 6661   2.957   4.139   3.725  0.0669 -0.0162  0.6144
   75CHL1   H4A 6662   2.856   4.108   3.691  0.4347 -0.4927 -0.0749
   75CHL1   H4B 6663   3.043   4.078   3.691 -0.5514 -0.4400 -0.2200
   75CHL1    C5 6664   2.956   4.144   3.876  0.4694 -0.1246 -0.2628
   75CHL1    C6 6665   3.024   4.049   3.953  0.2869 -0.5727  0.7268
   75CHL1    H6 6666   3.068   3.965   3.897 -2.6174 -2.7577  1.5182
   75CHL1    C7 6667   3.015   4.052   4.094 -0.7103  0.1394 -0.6841
   75CHL1   H7A 6668   2.997   3.947   4.125 -1.2728 -0.6321 -3.4056
   75CHL1   H7B 6669   3.114   4.080   4.137 -0.7147  1.2725 -1.3846
   75CHL1    C8 6670   2.914   4.150   4.166 -0.1908  0.8930  0.6758
   75CHL1    H8 6671   2.814   4.103   4.158 -0.9506  2.5128  0.3837
   75CHL1   C14 6672   2.960   4.183   4.309  0.4357 -0.3417 -0.4560
   75CHL1   H14 6673   3.053   4.243   4.299 -0.2828  0.8357 -0.1844
   75CHL1   C15 6674   3.002   4.068   4.394  0.4372 -0.0391  0.2060
   75CHL1  H15A 6675   2.928   3.986   4.388 -0.9987  1.1834  0.6615
   75CHL1  H15B 6676   3.103   4.026   4.377  0.2559 -0.3381 -0.1532
   75CHL1   C16 6677   3.004   4.128   4.534  0.1841  0.1260 -0.5246
   75CHL1  H16A 6678   2.937   4.065   4.596 -0.2413  1.9514  0.9186
   75CHL1  H16B 6679   3.102   4.128   4.587 -0.8493 -1.3661  1.5554
   75CHL1   C17 6680   2.931   4.270   4.530  0.1140 -0.7445  0.4310
   75CHL1   H17 6681   3.007   4.348   4.508 -2.2829  0.8738 -3.0117
   75CHL1   C13 6682   2.855   4.270   4.389  0.4168  0.7244 -1.0754
   75CHL1   C18 6683   2.723   4.183   4.411 -0.3284 -0.6297  0.0240
   75CHL1  H18A 6684   2.742   4.098   4.479  1.4649 -2.3681 -2.4774
   75CHL1  H18B 6685   2.641   4.243   4.456 -1.7950 -3.9696  2.1246
   75CHL1  H18C 6686   2.683   4.145   4.315 -0.1734  1.0143 -0.7355
   75CHL1   C12 6687   2.841   4.399   4.316  0.1260 -0.6733 -0.1055
   75CHL1  H12A 6688   2.761   4.456   4.367  1.7121  1.5031  0.0931
   75CHL1  H12B 6689   2.924   4.472   4.320 -1.1526  1.1526 -3.1334
   75CHL1   C11 6690   2.805   4.378   4.170 -0.5917 -0.1375  0.3569
   75CHL1  H11A 6691   2.701   4.350   4.145 -0.0715 -1.2487 -0.6832
   75CHL1  H11B 6692   2.830   4.474   4.119 -0.0733 -0.2781  0.3368
   75CHL1    C9 6693   2.905   4.282   4.095 -0.3433 -0.5138 -0.5418
   75CHL1    H9 6694   2.999   4.341   4.099  0.5037 -1.4583 -3.6407
   75CHL1   C10 6695   2.878   4.261   3.938  0.4079  0.4940  0.1806
   75CHL1   C19 6696   2.720   4.220   3.922 -0.5340 -0.1502  0.3483
   75CHL1  H19A 6697   2.691   4.136   3.988  0.8834 -1.3332 -0.4612
   75CHL1  H19B 6698   2.648   4.303   3.937 -0.9403 -0.7329  1.8235
   75CHL1  H19C 6699   2.711   4.200   3.814 -0.3797 -0.2841  0.3602
   75CHL1    C1 6700   2.922   4.393   3.869  0.5883  0.1501 -0.1628
   75CHL1   H1A 6701   2.857   4.472   3.911 -0.5130 -1.5319  1.4149
   75CHL1   H1B 6702   3.031   4.406   3.887  0.9650 -1.5436 -1.0930
   75CHL1    C2 6703   2.892   4.390   3.718  0.3426 -0.3846  0.2296
   75CHL1   H2A 6704   2.919   4.489   3.675 -0.9372 -0.1849 -0.1703
   75CHL1   H2B 6705   2.783   4.380   3.701  0.3246  1.2926 -0.9317
   75CHL1   C20 6706   2.855   4.313   4.655  0.3345  0.2453  0.2372
   75CHL1   H20 6707   2.770   4.242   4.663 -0.1288  0.6834 -0.7035
   75CHL1   C21 6708   2.805   4.457   4.628  0.0331  0.4768 -0.0338
   75CHL1  H21A 6709   2.727   4.460   4.548 -1.2188 -0.7730  1.0791
   75CHL1  H21B 6710   2.891   4.526   4.616 -0.1145  0.7633  0.5769
   75CHL1  H21C 6711   2.759   4.486   4.725 -1.6572  0.5166 -0.8055
   75CHL1   C22 6712   2.938   4.310   4.783  0.1133  0.5864  0.9167
   75CHL1  H22A 6713   2.995   4.215   4.793 -1.1323 -0.3690 -0.6351
   75CHL1  H22B 6714   3.008   4.396   4.791  1.8131 -0.8286  2.0308
   75CHL1   C23 6715   2.852   4.315   4.910  0.2936 -0.2570  0.0809
   75CHL1  H23A 6716   2.788   4.405   4.911  0.2653 -0.2756  1.0000
   75CHL1  H23B 6717   2.782   4.229   4.909  0.1209 -0.1956  2.4034
   75CHL1   C24 6718   2.940   4.309   5.038  0.2024  0.5263 -0.8159
   75CHL1  H24A 6719   2.984   4.207   5.040 -1.2926 -0.1376 -0.3122
   75CHL1  H24B 6720   3.023   4.383   5.032  2.2908 -1.6703 -0.8780
   75CHL1   C25 6721   2.864   4.324   5.178  0.5580  0.1777  0.2395
   75CHL1   H25 6722   2.820   4.426   5.172  0.2697  0.1200  1.1785
   75CHL1   C26 6723   2.746   4.226   5.190 -0.2863  0.4829  0.7321
   75CHL1  H26A 6724   2.783   4.122   5.173 -1.2649  0.0902  0.9094
   75CHL1  H26B 6725   2.712   4.224   5.296  1.6969  3.8021  1.5635
   75CHL1  H26C 6726   2.664   4.248   5.118  0.8838  0.5691 -0.5988
   75CHL1   C27 6727   2.963   4.310   5.292  0.1375  0.2569 -0.1174
   75CHL1  H27A 6728   2.916   4.319   5.392 -0.6242  0.0061 -0.4438
   75CHL1  H27B 6729   3.008   4.209   5.286  0.2742  0.3635 -1.2450
   75CHL1  H27C 6730   3.033   4.395   5.277  0.3885 -0.0266 -0.5715
   76CHL1    C3 6731   1.522   5.506   3.732  0.5541  0.5523  0.7244
   76CHL1    H3 6732   1.624   5.498   3.776  1.1098 -1.5113 -0.7639
   76CHL1    O3 6733   1.528   5.488   3.590  0.1091  0.2579 -0.0417
   76CHL1   H3' 6734   1.437   5.489   3.560  0.9108 -1.4512 -2.9431
   76CHL1    C4 6735   1.438   5.398   3.791  0.4649  0.0468  1.1202
   76CHL1   H4A 6736   1.333   5.399   3.755  0.3310 -1.3484  1.4325
   76CHL1   H4B 6737   1.483   5.298   3.773  1.8067  0.9907 -1.4981
   76CHL1    C5 6738   1.423   5.408   3.942 -0.0112 -0.1254 -0.6364
   76CHL1    C6 6739   1.469   5.310   4.028 -0.0041 -0.1138  0.2400
   76CHL1    H6 6740   1.504   5.215   3.986 -3.4111 -1.6851  0.6379
   76CHL1    C7 6741   1.459   5.316   4.173 -0.0319  0.8853  0.7170
   76CHL1   H7A 6742   1.423   5.223   4.221  1.7819 -0.5077 -0.4743
   76CHL1   H7B 6743   1.554   5.336   4.227 -0.4760 -0.7083  2.1580
   76CHL1    C8 6744   1.362   5.435   4.215 -0.2013 -0.0183  0.3562
   76CHL1    H8 6745   1.257   5.405   4.195 -0.7371  1.4800  0.7799
   76CHL1   C14 6746   1.382   5.449   4.364  0.1961  0.4661 -0.1556
   76CHL1   H14 6747   1.486   5.488   4.374 -0.0106  1.4256 -1.5431
   76CHL1   C15 6748   1.384   5.326   4.446  0.1078 -0.7203  0.0781
   76CHL1  H15A 6749   1.318   5.243   4.414  0.3160 -0.5436 -0.8235
   76CHL1  H15B 6750   1.487   5.285   4.449 -0.5193 -2.3097  1.2970
   76CHL1   C16 6751   1.354   5.385   4.588 -0.3512  0.0886  0.1008
   76CHL1  H16A 6752   1.258   5.342   4.623  0.1330 -0.6006  0.6043
   76CHL1  H16B 6753   1.425   5.362   4.670 -1.4533 -0.2000  0.9963
   76CHL1   C17 6754   1.330   5.543   4.577  0.0772  0.8788 -0.2985
   76CHL1   H17 6755   1.430   5.592   4.582  1.1269 -0.7928 -2.6238
   76CHL1   C13 6756   1.296   5.555   4.429  0.2533 -0.6793 -0.3277
   76CHL1   C18 6757   1.141   5.538   4.399 -0.1672 -0.0555 -0.0844
   76CHL1  H18A 6758   1.098   5.635   4.431  0.5638 -0.1235  1.1634
   76CHL1  H18B 6759   1.109   5.510   4.296  0.2887  1.4508 -0.6583
   76CHL1  H18C 6760   1.103   5.457   4.466 -0.0667  0.5782  0.7505
   76CHL1   C12 6761   1.341   5.684   4.361 -0.9557 -0.7185  0.4787
   76CHL1  H12A 6762   1.286   5.775   4.391  0.1250  0.4391 -0.9350
   76CHL1  H12B 6763   1.442   5.719   4.393 -1.7659  2.0265  0.2649
   76CHL1   C11 6764   1.327   5.685   4.206  0.2420 -0.3236 -0.6912
   76CHL1  H11A 6765   1.218   5.683   4.184 -0.4271  0.2799  2.1056
   76CHL1  H11B 6766   1.368   5.779   4.163 -0.3008 -0.0094 -0.5378
   76CHL1    C9 6767   1.394   5.565   4.148  0.1721 -0.3508 -0.7274
   76CHL1    H9 6768   1.502   5.579   4.172  0.2244 -1.3504 -0.3139
   76CHL1   C10 6769   1.379   5.550   3.993 -0.3653  0.1419 -0.1072
   76CHL1   C19 6770   1.234   5.562   3.950 -0.2650  0.2640 -0.5132
   76CHL1  H19A 6771   1.171   5.487   4.002  0.6753  0.1162  0.4392
   76CHL1  H19B 6772   1.193   5.664   3.967 -0.1210  0.4453 -1.1993
   76CHL1  H19C 6773   1.228   5.559   3.839  1.4491  0.8591 -0.6434
   76CHL1    C1 6774   1.460   5.663   3.922 -0.0340  0.6647  0.2699
   76CHL1   H1A 6775   1.400   5.753   3.946  0.1707  1.0962 -0.7712
   76CHL1   H1B 6776   1.563   5.680   3.959 -1.1617  1.2459  3.4413
   76CHL1    C2 6777   1.469   5.646   3.771  0.2542 -0.5977 -0.2768
   76CHL1   H2A 6778   1.536   5.722   3.725 -1.0634 -0.7639 -2.6349
   76CHL1   H2B 6779   1.372   5.643   3.717  0.9431  0.5524 -1.6285
   76CHL1   C20 6780   1.236   5.588   4.676  0.1113  0.3207 -0.2829
   76CHL1   H20 6781   1.131   5.554   4.663 -1.0277  2.0855  2.9847
   76CHL1   C21 6782   1.205   5.743   4.672 -0.1800 -0.2629 -0.1776
   76CHL1  H21A 6783   1.112   5.763   4.729  1.9947  2.6767  2.6676
   76CHL1  H21B 6784   1.186   5.783   4.570  2.2731  3.9710  0.8118
   76CHL1  H21C 6785   1.285   5.806   4.715 -1.0678  3.0564 -2.9706
   76CHL1   C22 6786   1.268   5.549   4.826 -0.6705  0.0763  1.1115
   76CHL1  H22A 6787   1.270   5.438   4.814  2.4420  0.2957 -2.6644
   76CHL1  H22B 6788   1.366   5.585   4.866 -2.0750  2.8810  2.2157
   76CHL1   C23 6789   1.161   5.587   4.925  0.5326 -0.5123  0.4018
   76CHL1  H23A 6790   1.164   5.696   4.943 -1.0608 -0.4347  0.3214
   76CHL1  H23B 6791   1.060   5.562   4.884  1.2957  0.1774 -2.0456
   76CHL1   C24 6792   1.178   5.508   5.057 -0.4422  0.2158 -0.1827
   76CHL1  H24A 6793   1.178   5.400   5.032 -0.9808  0.1944 -0.0996
   76CHL1  H24B 6794   1.283   5.525   5.091  0.4978  2.2236 -3.6111
   76CHL1   C25 6795   1.092   5.535   5.183  0.3772  0.0125  0.6049
   76CHL1   H25 6796   0.987   5.501   5.176 -0.6421  2.6236  1.8270
   76CHL1   C26 6797   1.154   5.446   5.292  0.0709  0.1944 -0.5911
   76CHL1  H26A 6798   1.264   5.457   5.308  0.3532 -1.0066 -1.5418
   76CHL1  H26B 6799   1.104   5.462   5.390  0.0012  0.1544 -0.6197
   76CHL1  H26C 6800   1.133   5.339   5.272  2.4876 -0.6099  0.7013
   76CHL1   C27 6801   1.076   5.683   5.214  1.3510  0.9541  0.3524
   76CHL1  H27A 6802   1.017   5.729   5.132 -2.5677 -0.3756  2.1876
   76CHL1  H27B 6803   1.018   5.688   5.308 -1.6108  0.4194 -1.3076
   76CHL1  H27C 6804   1.169   5.737   5.238  0.3945  1.8092  2.2949
   77SOPE     N 6805   5.771   4.383   7.889  0.4864  0.2751 -0.0593
   77SOPE   HN1 6806   5.817   4.445   7.819  1.0563  0.4253  0.4323
   77SOPE   HN2 6807   5.791   4.424   7.982  2.2885  0.7996 -0.6290
   77SOPE   HN3 6808   5.824   4.294   7.896 -1.9204 -1.1376  1.9704
   77SOPE   C12 6809   5.621   4.362   7.852 -0.2847  0.9215 -0.8205
   77SOPE  H12A 6810   5.569   4.312   7.936 -1.0631  1.7824 -0.7839
   77SOPE  H12B 6811   5.620   4.286   7.771 -0.4999 -2.6180  2.2046
   77SOPE   C11 6812   5.548   4.493   7.811  0.0339 -0.5429 -0.3325
   77SOPE  H11A 6813   5.555   4.560   7.899  1.3349 -1.2292  0.1212
   77SOPE  H11B 6814   5.442   4.469   7.789  0.0879 -2.1921  0.9748
   77SOPE     P 6815   5.572   4.685   7.636 -0.0675 -0.0056  0.0665
   77SOPE   O13 6816   5.691   4.766   7.610 -0.2399  0.0376  0.3232
   77SOPE   O14 6817   5.470   4.749   7.718 -0.4245 -0.1787 -0.2679
   77SOPE   O12 6818   5.614   4.554   7.696  0.0111  0.2722  0.1180
   77SOPE   O11 6819   5.518   4.659   7.496 -0.5903  0.2703  0.3260
   77SOPE    C1 6820   5.536   4.531   7.438  0.4028  0.5931 -0.5782
   77SOPE    HA 6821   5.459   4.512   7.360 -0.5757 -3.3026  1.0571
   77SOPE    HB 6822   5.509   4.456   7.515 -0.3556  2.8728  1.4766
   77SOPE    C2 6823   5.674   4.511   7.365  0.5099  0.9561 -0.1581
   77SOPE    HS 6824   5.749   4.499   7.446  1.7494  0.3258 -1.3556
   77SOPE   O21 6825   5.693   4.625   7.275 -0.5309  0.2664  0.1481
   77SOPE   C21 6826   5.810   4.621   7.209  0.5616  0.6653  0.2953
   77SOPE   O22 6827   5.902   4.544   7.229 -0.0196  0.1929  0.3088
   77SOPE   C22 6828   5.815   4.749   7.121 -0.6648  0.5209  0.3661
   77SOPE   H2R 6829   5.875   4.819   7.182  2.3533 -0.7254 -0.9726
   77SOPE   H2S 6830   5.719   4.801   7.101 -1.5055 -1.5878 -1.5981
   77SOPE    C3 6831   5.676   4.371   7.298  0.9080 -0.3937 -1.0028
   77SOPE    HX 6832   5.635   4.297   7.370  1.1208 -1.1836 -1.6773
   77SOPE    HY 6833   5.780   4.333   7.287  0.7005 -1.8745  1.4459
   77SOPE   O31 6834   5.602   4.376   7.174  0.3949  0.7126 -0.0120
   77SOPE   C31 6835   5.516   4.275   7.149 -0.7550  0.0408  0.1488
   77SOPE   O32 6836   5.503   4.178   7.226 -0.0601 -0.3117  0.4755
   77SOPE   C32 6837   5.454   4.286   7.011 -0.6563 -0.3804 -0.5534
   77SOPE   H2X 6838   5.540   4.334   6.958  0.4414  0.2368  1.6559
   77SOPE   H2Y 6839   5.366   4.352   7.023  0.3173  0.7354  0.6902
   77SOPE   C23 6840   5.888   4.737   6.986  0.1655 -0.1818  0.3510
   77SOPE   H3R 6841   5.991   4.694   6.988  0.6064  0.8166  0.1340
   77SOPE   H3S 6842   5.901   4.843   6.954  0.0881  0.0655  1.1162
   77SOPE   C24 6843   5.809   4.659   6.879  0.0821 -0.0038 -0.0244
   77SOPE   H4R 6844   5.789   4.557   6.918  0.9621 -0.3142 -0.3580
   77SOPE   H4S 6845   5.711   4.711   6.866  0.2239  1.1002  2.6439
   77SOPE   C25 6846   5.885   4.661   6.747 -0.1831  0.5705  0.1947
   77SOPE   H5R 6847   5.931   4.761   6.732  0.3160  0.4587  0.9522
   77SOPE   H5S 6848   5.972   4.592   6.750  0.9418  1.9788  0.9527
   77SOPE   C26 6849   5.804   4.644   6.618 -0.0957  0.4672 -0.2461
   77SOPE   H6R 6850   5.744   4.551   6.613  0.3766  0.1501 -0.0717
   77SOPE   H6S 6851   5.732   4.729   6.621  0.3411  0.8181  0.8913
   77SOPE   C27 6852   5.895   4.662   6.495 -0.7989 -0.0976 -0.5459
   77SOPE   H7R 6853   5.942   4.763   6.494 -0.3552 -0.1730  2.4546
   77SOPE   H7S 6854   5.975   4.586   6.498 -0.1144  0.5134 -2.1521
   77SOPE   C28 6855   5.815   4.657   6.363  0.2062 -0.5843 -0.0493
   77SOPE   H8R 6856   5.730   4.727   6.373  1.3295  0.6127  2.0166
   77SOPE   H8S 6857   5.871   4.695   6.275 -2.4941 -0.5390 -1.8542
   77SOPE   C29 6858   5.764   4.525   6.326  0.0995  0.5556  0.1600
   77SOPE   H91 6859   5.779   4.451   6.406 -2.1538  0.0372  0.1632
   77SOPE  C210 6860   5.732   4.481   6.201  0.6240  0.0330  0.0575
   77SOPE  H101 6861   5.713   4.374   6.183  1.4923 -0.3951  1.5223
   77SOPE  C211 6862   5.738   4.560   6.074 -0.9522  0.8086  1.0449
   77SOPE  H11R 6863   5.743   4.671   6.085  0.3489  1.2974 -3.0030
   77SOPE  H11S 6864   5.647   4.534   6.017  1.5327 -1.9184 -2.0398
   77SOPE  C212 6865   5.865   4.527   5.988 -0.1694 -0.0537 -0.1935
   77SOPE  H12R 6866   5.860   4.420   5.959  1.3212 -0.3835  0.7017
   77SOPE  H12S 6867   5.957   4.532   6.049  1.0801  1.3498 -2.0802
   77SOPE  C213 6868   5.876   4.622   5.872 -0.5011  0.2463  0.3148
   77SOPE  H13R 6869   5.902   4.725   5.906  0.4373  0.9378 -2.2512
   77SOPE  H13S 6870   5.774   4.639   5.831 -0.5028  1.7271  0.8633
   77SOPE  C214 6871   5.975   4.573   5.769  0.4053  0.5153 -0.6577
   77SOPE  H14R 6872   6.068   4.541   5.821  0.4395  0.2464 -0.8830
   77SOPE  H14S 6873   6.003   4.665   5.713  0.6151  1.2644  0.6267
   77SOPE  C215 6874   5.921   4.470   5.678  0.1514 -0.0373 -0.5110
   77SOPE  H15R 6875   5.854   4.410   5.743  0.6980  1.6990  1.8022
   77SOPE  H15S 6876   6.000   4.405   5.637  0.7838 -0.8291  1.8282
   77SOPE  C216 6877   5.827   4.528   5.569 -0.4697 -0.1780  0.1625
   77SOPE  H16R 6878   5.883   4.601   5.507 -3.0496  1.2270 -0.6422
   77SOPE  H16S 6879   5.751   4.589   5.623 -1.1128 -1.6819  1.0455
   77SOPE  C217 6880   5.768   4.426   5.466  0.5487  0.0071 -0.6654
   77SOPE  H17R 6881   5.703   4.358   5.525  1.7300  1.0480  2.0327
   77SOPE  H17S 6882   5.844   4.363   5.414  0.7460 -0.2385 -0.0939
   77SOPE  C218 6883   5.686   4.487   5.362 -0.2125 -0.0082 -0.2511
   77SOPE  H18R 6884   5.735   4.582   5.332  0.8738 -0.5532 -0.2692
   77SOPE  H18S 6885   5.586   4.517   5.401 -0.3501 -1.1924  0.3645
   77SOPE  H18T 6886   5.678   4.421   5.272 -0.7390 -0.2607 -0.0246
   77SOPE   C33 6887   5.417   4.152   6.951  0.3672 -0.2438  0.1764
   77SOPE   H3X 6888   5.315   4.122   6.981  0.9253 -1.6919  0.7228
   77SOPE   H3Y 6889   5.479   4.068   6.988 -0.8371 -0.4061  1.9165
   77SOPE   C34 6890   5.434   4.156   6.795  0.2998 -0.0971 -0.0859
   77SOPE   H4X 6891   5.424   4.057   6.745  2.9069 -1.5056  1.9034
   77SOPE   H4Y 6892   5.542   4.173   6.774  0.9861 -0.9659  2.3736
   77SOPE   C35 6893   5.378   4.268   6.711 -0.1002  0.5696 -1.0588
   77SOPE   H5X 6894   5.407   4.364   6.758  2.6713 -0.9008  0.4737
   77SOPE   H5Y 6895   5.267   4.268   6.714 -0.1502  2.2471 -1.5554
   77SOPE   C36 6896   5.422   4.259   6.567 -0.2964 -0.0163  0.5992
   77SOPE   H6X 6897   5.417   4.153   6.533 -0.9315  0.6199 -1.4582
   77SOPE   H6Y 6898   5.526   4.299   6.568  0.6602 -2.3620  0.7736
   77SOPE   C37 6899   5.331   4.341   6.478 -0.7350  0.4142 -0.8746
   77SOPE   H7X 6900   5.317   4.442   6.524 -1.7037 -0.1767  0.1726
   77SOPE   H7Y 6901   5.230   4.296   6.475 -0.4462 -0.3196  0.1183
   77SOPE   C38 6902   5.381   4.345   6.333  0.2567  0.2273 -0.6076
   77SOPE   H8X 6903   5.491   4.335   6.329  0.1289 -1.1836 -1.2318
   77SOPE   H8Y 6904   5.360   4.448   6.295  0.9922  0.0268 -1.6242
   77SOPE   C39 6905   5.307   4.252   6.240  0.2104 -0.4410  0.3244
   77SOPE   H9X 6906   5.202   4.232   6.272 -0.0138 -0.3724 -0.3526
   77SOPE   H9Y 6907   5.350   4.150   6.254 -2.4964 -1.3893  2.7392
   77SOPE  C310 6908   5.300   4.286   6.090 -0.6719 -0.0553  0.3892
   77SOPE  H10X 6909   5.405   4.305   6.061 -0.3955  1.3185  2.1012
   77SOPE  H10Y 6910   5.250   4.384   6.070  0.6713  0.4702 -0.5680
   77SOPE  C311 6911   5.224   4.181   6.000  0.0538 -0.1263 -0.4648
   77SOPE  H11X 6912   5.116   4.187   6.023  0.2073  2.4321 -0.0995
   77SOPE  H11Y 6913   5.241   4.075   6.027 -2.6932 -0.9368 -1.5300
   77SOPE  C312 6914   5.227   4.214   5.851 -0.2353 -0.1615 -0.1496
   77SOPE  H12X 6915   5.329   4.249   5.825  0.0146 -0.9669 -0.2710
   77SOPE  H12Y 6916   5.154   4.293   5.822 -1.0966 -1.5307 -1.9641
   77SOPE  C313 6917   5.190   4.085   5.775 -0.4189  0.3229  0.8084
   77SOPE  H13X 6918   5.084   4.063   5.797  0.1394 -1.3230  2.0887
   77SOPE  H13Y 6919   5.264   4.010   5.812  2.1020  1.2409 -1.9588
   77SOPE  C314 6920   5.213   4.092   5.625  0.4041  0.5816 -0.3153
   77SOPE  H14X 6921   5.307   4.147   5.604  0.4537  0.7208  0.2504
   77SOPE  H14Y 6922   5.132   4.154   5.581  0.3437  0.3205 -0.5707
   77SOPE  C315 6923   5.212   3.952   5.557 -0.0776  0.0266 -0.2885
   77SOPE  H15X 6924   5.106   3.918   5.564  0.1461 -0.3850  1.8266
   77SOPE  H15Y 6925   5.281   3.890   5.618 -1.1562 -0.9786 -0.0459
   77SOPE  C316 6926   5.248   3.943   5.414 -0.4422  0.2973 -0.2404
   77SOPE  H16X 6927   5.354   3.968   5.391 -0.5889 -0.6398 -2.1492
   77SOPE  H16Y 6928   5.190   4.015   5.353 -1.4727  1.2528  1.7736
   77SOPE  C317 6929   5.231   3.794   5.361 -0.5338  0.4427 -0.6991
   77SOPE  H17X 6930   5.250   3.799   5.252  0.2381  0.4674 -0.5692
   77SOPE  H17Y 6931   5.132   3.748   5.378 -0.7952  0.8876 -0.9959
   77SOPE  C318 6932   5.325   3.693   5.424  1.0857 -0.5627  0.0634
   77SOPE  H18X 6933   5.425   3.736   5.446  1.4009 -0.6949 -1.0305
   77SOPE  H18Y 6934   5.335   3.602   5.360 -0.7880  1.1687 -2.9503
   77SOPE  H18Z 6935   5.285   3.657   5.521  3.5349 -0.8781  1.0195
   78SOPE     N 6936   4.232   5.731   7.366  0.3412 -0.0294  0.1847
   78SOPE   HN1 6937   4.278   5.668   7.297  1.5771  0.8081  0.2138
   78SOPE   HN2 6938   4.247   5.683   7.457  0.3529 -1.3878 -0.4957
   78SOPE   HN3 6939   4.130   5.736   7.346  0.4386 -0.8279 -0.5892
   78SOPE   C12 6940   4.294   5.869   7.360 -0.4316 -0.4270  0.0786
   78SOPE  H12A 6941   4.251   5.916   7.269 -1.4151 -1.3315  0.0558
   78SOPE  H12B 6942   4.403   5.867   7.343 -0.2997  1.0047  0.6635
   78SOPE   C11 6943   4.265   5.952   7.485 -0.5642 -0.5154 -0.7142
   78SOPE  H11A 6944   4.156   5.944   7.506  0.0018 -0.8485  2.6540
   78SOPE  H11B 6945   4.307   6.054   7.473 -1.7668  0.3002  1.4394
   78SOPE     P 6946   4.494   5.882   7.616 -0.3083 -0.4661  0.5641
   78SOPE   O13 6947   4.534   5.744   7.588 -0.1177  0.4985  0.2443
   78SOPE   O14 6948   4.539   5.939   7.747 -0.2980 -0.4033 -0.1368
   78SOPE   O12 6949   4.333   5.893   7.600  0.3002  0.6119 -0.4235
   78SOPE   O11 6950   4.544   5.969   7.501 -0.3979  0.0057  0.5025
   78SOPE    C1 6951   4.603   6.096   7.518 -0.1452 -0.1730  0.3000
   78SOPE    HA 6952   4.712   6.082   7.529 -0.3198 -1.0605  1.0513
   78SOPE    HB 6953   4.560   6.151   7.605 -1.0459 -1.2732  0.5789
   78SOPE    C2 6954   4.594   6.194   7.402  0.4675  0.2722 -0.3596
   78SOPE    HS 6955   4.488   6.217   7.378 -0.6724 -3.8818 -0.0077
   78SOPE   O21 6956   4.660   6.136   7.288  0.4065  0.1577 -0.0009
   78SOPE   C21 6957   4.584   6.079   7.193  0.2780  0.6588 -0.2802
   78SOPE   O22 6958   4.463   6.059   7.204  0.0032  0.6366  0.6163
   78SOPE   C22 6959   4.665   6.035   7.073  1.0258 -0.2707  0.3668
   78SOPE   H2R 6960   4.721   5.939   7.084  2.1553 -0.0456 -2.5894
   78SOPE   H2S 6961   4.746   6.110   7.070 -0.0470  0.9619  1.2197
   78SOPE    C3 6962   4.659   6.332   7.435 -0.5378  0.5840  0.0878
   78SOPE    HX 6963   4.757   6.302   7.478 -0.1606  1.4055 -0.1780
   78SOPE    HY 6964   4.615   6.395   7.515 -1.9537 -1.3379  0.9029
   78SOPE   O31 6965   4.702   6.407   7.318  0.1826  0.4049 -0.6155
   78SOPE   C31 6966   4.599   6.453   7.249 -0.8463 -0.0725 -0.1534
   78SOPE   O32 6967   4.481   6.445   7.282  0.1781 -0.0079  0.0266
   78SOPE   C32 6968   4.657   6.512   7.121  0.1430  0.1012 -0.1543
   78SOPE   H2X 6969   4.766   6.527   7.137  0.4726 -0.1338 -1.9431
   78SOPE   H2Y 6970   4.616   6.615   7.123 -0.4826 -0.1202 -0.9900
   78SOPE   C23 6971   4.582   6.036   6.940 -1.1689  0.0982 -0.5622
   78SOPE   H3R 6972   4.533   6.135   6.924  0.5721  0.9744 -0.7068
   78SOPE   H3S 6973   4.509   5.953   6.945  0.3029 -1.1990  0.0800
   78SOPE   C24 6974   4.670   6.010   6.815 -0.3652 -0.5484 -0.0704
   78SOPE   H4R 6975   4.735   6.100   6.810 -0.5700 -0.3369  0.8967
   78SOPE   H4S 6976   4.731   5.918   6.829 -0.7851 -1.1171 -1.7567
   78SOPE   C25 6977   4.587   6.010   6.687 -0.1083 -0.7356  0.5486
   78SOPE   H5R 6978   4.529   5.917   6.670  3.0350 -2.8855  0.7387
   78SOPE   H5S 6979   4.518   6.096   6.702  1.0535  0.2107  0.5634
   78SOPE   C26 6980   4.670   6.045   6.557  0.8091 -0.7868 -0.3854
   78SOPE   H6R 6981   4.688   6.153   6.544 -0.5311 -0.4032  0.7382
   78SOPE   H6S 6982   4.769   5.997   6.575  0.8515 -1.3329 -1.9710
   78SOPE   C27 6983   4.605   5.997   6.426  0.4720 -0.2645 -0.1813
   78SOPE   H7R 6984   4.558   5.899   6.452 -1.9382  1.4837  2.7753
   78SOPE   H7S 6985   4.531   6.068   6.383  1.5494  1.4096  0.6235
   78SOPE   C28 6986   4.712   5.984   6.319  0.5758  0.2008 -0.4857
   78SOPE   H8R 6987   4.795   5.937   6.376 -1.0617 -0.8381  1.1664
   78SOPE   H8S 6988   4.670   5.915   6.243  3.9119 -0.2534 -2.0906
   78SOPE   C29 6989   4.760   6.117   6.263 -0.3978  0.2704 -0.6891
   78SOPE   H91 6990   4.763   6.198   6.338 -0.1581 -0.7169  0.4075
   78SOPE  C210 6991   4.784   6.139   6.133 -0.3602  0.5604 -0.3866
   78SOPE  H101 6992   4.810   6.242   6.105  0.3985  0.3854 -0.3494
   78SOPE  C211 6993   4.780   6.033   6.023  0.5710 -0.5810  0.0254
   78SOPE  H11R 6994   4.705   6.071   5.951 -0.0903  2.2268  2.0108
   78SOPE  H11S 6995   4.747   5.931   6.052  0.7996 -0.5308  0.4766
   78SOPE  C212 6996   4.920   6.024   5.963  0.0470 -0.1383  0.6673
   78SOPE  H12R 6997   4.949   5.918   5.944  0.9116  0.4383 -1.5080
   78SOPE  H12S 6998   5.001   6.069   6.023 -0.7984  0.8569  1.0903
   78SOPE  C213 6999   4.931   6.088   5.821  0.4890 -0.3769 -0.5389
   78SOPE  H13R 7000   4.919   6.198   5.826 -0.0018 -0.4737  0.6809
   78SOPE  H13S 7001   4.844   6.041   5.771  0.7225 -0.4180 -0.9067
   78SOPE  C214 7002   5.054   6.045   5.744  0.2042 -0.2525  0.0873
   78SOPE  H14R 7003   5.038   5.937   5.726  0.1195 -0.0423 -1.1518
   78SOPE  H14S 7004   5.145   6.061   5.805  1.8470 -0.1855 -2.2789
   78SOPE  C215 7005   5.080   6.116   5.610  0.5755 -0.2063  0.0209
   78SOPE  H15R 7006   5.004   6.081   5.536 -0.6710  1.2018  0.5882
   78SOPE  H15S 7007   5.182   6.094   5.572  0.3047  0.9932 -1.4838
   78SOPE  C216 7008   5.072   6.271   5.622 -0.0638  0.9611  0.1698
   78SOPE  H16R 7009   5.154   6.306   5.687 -0.1634 -0.7414  1.2857
   78SOPE  H16S 7010   4.974   6.315   5.651  0.2333  0.4466  2.0581
   78SOPE  C217 7011   5.102   6.327   5.480  0.7296  0.1827 -0.0949
   78SOPE  H17R 7012   5.044   6.263   5.410 -2.3944 -0.0304  2.4828
   78SOPE  H17S 7013   5.210   6.307   5.460  0.7632  0.9120 -0.7018
   78SOPE  C218 7014   5.067   6.478   5.465  0.1091 -0.0278 -0.7406
   78SOPE  H18R 7015   4.959   6.480   5.489 -0.0568 -2.4269 -1.0473
   78SOPE  H18S 7016   5.087   6.513   5.362 -1.2759  0.8631 -0.7297
   78SOPE  H18T 7017   5.135   6.528   5.538  1.1368 -1.4281 -0.6899
   78SOPE   C33 7018   4.603   6.443   7.004 -0.3815 -0.0220 -0.2443
   78SOPE   H3X 7019   4.502   6.488   6.994  0.8083  2.9992  0.1681
   78SOPE   H3Y 7020   4.600   6.333   7.018 -0.0912  0.1846  1.6509
   78SOPE   C34 7021   4.675   6.474   6.869 -0.5630  0.1408  0.3421
   78SOPE   H4X 7022   4.781   6.441   6.872 -0.2618  1.1401  1.8810
   78SOPE   H4Y 7023   4.700   6.582   6.858  0.4721 -0.2638 -1.6567
   78SOPE   C35 7024   4.611   6.420   6.741  0.2763  0.1024  0.1506
   78SOPE   H5X 7025   4.518   6.477   6.725  0.3237  0.0125 -0.4861
   78SOPE   H5Y 7026   4.594   6.311   6.753 -0.7450  0.2573  0.1560
   78SOPE   C36 7027   4.702   6.434   6.611  0.5799 -0.7830  0.3402
   78SOPE   H6X 7028   4.782   6.357   6.607 -0.2252 -1.6587  0.7320
   78SOPE   H6Y 7029   4.756   6.531   6.616  0.0552 -0.2440 -2.7860
   78SOPE   C37 7030   4.627   6.448   6.478  0.3946 -0.3571 -0.6398
   78SOPE   H7X 7031   4.553   6.529   6.495  0.0395 -0.8099  0.0200
   78SOPE   H7Y 7032   4.568   6.355   6.464  1.3127 -1.0427 -0.0542
   78SOPE   C38 7033   4.709   6.485   6.358 -0.7856 -0.4596  0.9790
   78SOPE   H8X 7034   4.790   6.411   6.339 -2.8195 -2.9505  1.5450
   78SOPE   H8Y 7035   4.771   6.574   6.383  0.7465 -1.3199  0.3673
   78SOPE   C39 7036   4.645   6.498   6.221  0.0452  0.5796  0.4463
   78SOPE   H9X 7037   4.545   6.544   6.238  0.5735  1.5149  1.1624
   78SOPE   H9Y 7038   4.610   6.398   6.190 -1.8307  1.1921  0.4334
   78SOPE  C310 7039   4.726   6.572   6.110  0.5717  0.3629 -0.0739
   78SOPE  H10X 7040   4.819   6.519   6.083  0.0745  0.5982 -2.4885
   78SOPE  H10Y 7041   4.757   6.673   6.144  1.9581 -1.1295  3.4763
   78SOPE  C311 7042   4.627   6.584   5.992  0.5071 -0.1592 -0.3858
   78SOPE  H11X 7043   4.536   6.643   6.016 -0.0266 -1.2690  0.4536
   78SOPE  H11Y 7044   4.599   6.478   5.972 -0.7923  0.1736 -0.4366
   78SOPE  C312 7045   4.699   6.642   5.870  0.9547 -0.0212 -1.0715
   78SOPE  H12X 7046   4.794   6.585   5.865  2.3069  2.0210 -0.2551
   78SOPE  H12Y 7047   4.726   6.746   5.899 -0.0158  0.3120 -1.3369
   78SOPE  C313 7048   4.609   6.635   5.747 -0.0323  0.3899  0.3540
   78SOPE  H13X 7049   4.525   6.708   5.751  0.3760  0.9980 -1.4055
   78SOPE  H13Y 7050   4.570   6.532   5.737  2.3115 -0.4103 -1.4611
   78SOPE  C314 7051   4.688   6.669   5.615 -0.1018 -0.4191 -0.4977
   78SOPE  H14X 7052   4.620   6.636   5.534  0.8244 -2.7277 -0.4044
   78SOPE  H14Y 7053   4.786   6.617   5.620  1.8651  2.7329 -2.5797
   78SOPE  C315 7054   4.709   6.825   5.611 -1.1316 -0.3821  0.3906
   78SOPE  H15X 7055   4.793   6.844   5.681  0.2942 -3.3093 -0.3409
   78SOPE  H15Y 7056   4.627   6.897   5.632  0.0578  0.8131  1.0968
   78SOPE  C316 7057   4.767   6.874   5.474 -0.0039 -0.0716  0.3318
   78SOPE  H16X 7058   4.849   6.806   5.443  0.2230 -0.4903  1.8091
   78SOPE  H16Y 7059   4.801   6.975   5.505 -1.6945  0.5194  0.3513
   78SOPE  C317 7060   4.661   6.885   5.368 -0.6266 -0.0914  0.2116
   78SOPE  H17X 7061   4.610   6.983   5.378 -2.0487 -0.5827 -1.7005
   78SOPE  H17Y 7062   4.579   6.811   5.368 -3.6803  3.0038 -1.1865
   78SOPE  C318 7063   4.726   6.884   5.221 -0.2429 -0.5987  0.6693
   78SOPE  H18X 7064   4.759   6.782   5.192 -0.5248 -0.5684  0.2457
   78SOPE  H18Y 7065   4.810   6.957   5.215 -1.2675  0.6832  1.4092
   78SOPE  H18Z 7066   4.652   6.918   5.146 -0.3467  2.3465  1.9469
   79SOPE     N 7067   0.933   2.973   7.770 -0.1217 -0.4921  0.2340
   79SOPE   HN1 7068   1.002   2.923   7.710 -0.9281 -0.5999 -0.6251
   79SOPE   HN2 7069   0.867   3.029   7.713  1.6494  0.5010 -0.9408
   79SOPE   HN3 7070   0.999   3.032   7.825  0.0466  0.4030 -0.8975
   79SOPE   C12 7071   0.865   2.873   7.850  0.0204  0.3250 -0.2799
   79SOPE  H12A 7072   0.780   2.915   7.907 -0.5905 -0.8397 -0.3005
   79SOPE  H12B 7073   0.933   2.837   7.930  1.7422  1.7764 -1.0193
   79SOPE   C11 7074   0.814   2.748   7.765 -0.1852 -0.4435 -0.0437
   79SOPE  H11A 7075   0.752   2.790   7.683  0.2073 -2.2734 -1.3286
   79SOPE  H11B 7076   0.740   2.693   7.827 -1.1901 -0.6221 -1.3715
   79SOPE     P 7077   0.933   2.521   7.710  0.0541  0.3739  0.4276
   79SOPE   O13 7078   0.847   2.470   7.820 -0.0253  0.3885 -0.2064
   79SOPE   O14 7079   1.073   2.476   7.698 -0.1742  0.6582 -0.0002
   79SOPE   O12 7080   0.924   2.676   7.703 -0.7377 -0.5381 -0.4346
   79SOPE   O11 7081   0.864   2.481   7.570 -0.1365  0.1659  0.0500
   79SOPE    C1 7082   0.757   2.549   7.502  0.4436 -0.5412  0.1295
   79SOPE    HA 7083   0.701   2.625   7.561  0.2852  0.4604 -1.2496
   79SOPE    HB 7084   0.688   2.471   7.464  1.4380 -1.9038  1.0135
   79SOPE    C2 7085   0.822   2.628   7.386  0.4293  0.4809  0.3460
   79SOPE    HS 7086   0.746   2.607   7.308  1.8030 -2.6558 -0.3087
   79SOPE   O21 7087   0.955   2.577   7.344  0.7494  0.0186 -0.0521
   79SOPE   C21 7088   0.950   2.478   7.258  0.4730  0.1861  0.4011
   79SOPE   O22 7089   0.843   2.436   7.202  0.1532 -0.9908 -0.5419
   79SOPE   C22 7090   1.076   2.403   7.259  0.8080  0.4239 -0.2158
   79SOPE   H2R 7091   1.064   2.320   7.186 -0.2120 -0.2839  0.7259
   79SOPE   H2S 7092   1.090   2.369   7.363 -0.3615  0.0811 -0.1516
   79SOPE    C3 7093   0.818   2.781   7.398 -0.5281 -0.2301 -0.2661
   79SOPE    HX 7094   0.898   2.802   7.472 -0.0482  0.9516 -1.0841
   79SOPE    HY 7095   0.719   2.814   7.438 -0.0579  0.1615  0.6005
   79SOPE   O31 7096   0.833   2.851   7.270 -0.9073 -0.9214  0.6503
   79SOPE   C31 7097   0.951   2.899   7.243  0.3689 -0.1221 -0.4452
   79SOPE   O32 7098   1.052   2.881   7.311 -0.4132  0.1303  0.2976
   79SOPE   C32 7099   0.946   2.960   7.109  0.3475 -0.0629  0.0409
   79SOPE   H2X 7100   0.875   3.044   7.116  0.0507 -0.1042 -1.9385
   79SOPE   H2Y 7101   0.896   2.891   7.038  4.0429 -0.9479 -1.9572
   79SOPE   C23 7102   1.195   2.495   7.217 -0.1298 -0.0305 -0.6033
   79SOPE   H3R 7103   1.276   2.419   7.215 -1.4839 -1.8009  3.1560
   79SOPE   H3S 7104   1.222   2.564   7.300  0.5707 -1.2082  0.1805
   79SOPE   C24 7105   1.167   2.578   7.090 -0.1648  0.8663  0.0640
   79SOPE   H4R 7106   1.092   2.657   7.109 -2.1033 -0.8721 -0.0623
   79SOPE   H4S 7107   1.265   2.620   7.059 -0.9403  3.3450  0.7516
   79SOPE   C25 7108   1.127   2.486   6.974  0.4866 -0.2632  0.0437
   79SOPE   H5R 7109   1.201   2.403   6.974  2.8335  1.7168 -0.6290
   79SOPE   H5S 7110   1.021   2.451   6.976  0.2775  0.3882  0.8202
   79SOPE   C26 7111   1.142   2.546   6.835 -0.2154 -0.6689  0.0007
   79SOPE   H6R 7112   1.244   2.582   6.811  0.1450 -3.1335 -2.7378
   79SOPE   H6S 7113   1.125   2.465   6.761  0.1665 -2.0383  1.3574
   79SOPE   C27 7114   1.040   2.659   6.808  0.0295 -0.4269 -0.4290
   79SOPE   H7R 7115   0.939   2.624   6.837 -0.3552  2.0103  1.5666
   79SOPE   H7S 7116   1.053   2.751   6.870  2.2799 -1.5090  0.8224
   79SOPE   C28 7117   1.027   2.697   6.662 -0.5540 -0.7366  0.4087
   79SOPE   H8R 7118   0.952   2.779   6.658  0.9361  0.6408 -2.7036
   79SOPE   H8S 7119   1.121   2.742   6.623 -1.6990  0.8697 -0.6222
   79SOPE   C29 7120   0.977   2.579   6.575  0.3895 -0.8092 -0.3995
   79SOPE   H91 7121   0.894   2.527   6.625  1.3042 -0.8333  1.1440
   79SOPE  C210 7122   1.031   2.531   6.463 -0.0539  0.6042  0.4489
   79SOPE  H101 7123   0.964   2.461   6.412 -0.9136  1.5343  0.2825
   79SOPE  C211 7124   1.158   2.581   6.389  0.4276  0.2135  0.1249
   79SOPE  H11R 7125   1.244   2.512   6.406  2.2723  1.5027 -3.0985
   79SOPE  H11S 7126   1.197   2.683   6.408 -1.3567  0.6785  1.5623
   79SOPE  C212 7127   1.143   2.581   6.233 -0.0345  0.4713  0.5327
   79SOPE  H12R 7128   1.096   2.487   6.197  2.5005 -1.5722  2.1795
   79SOPE  H12S 7129   1.246   2.596   6.196  0.0331  1.1157  0.9712
   79SOPE  C213 7130   1.058   2.693   6.169 -0.0639  0.7109  0.1210
   79SOPE  H13R 7131   1.082   2.789   6.219  0.6600  0.0929  0.9879
   79SOPE  H13S 7132   0.950   2.678   6.186  0.2592 -2.4189 -0.0760
   79SOPE  C214 7133   1.094   2.713   6.017 -0.2690 -0.1303  0.1872
   79SOPE  H14R 7134   1.201   2.737   5.999 -0.1151 -1.0150 -0.1177
   79SOPE  H14S 7135   1.044   2.800   5.970  1.7746  1.5121  0.8682
   79SOPE  C215 7136   1.063   2.590   5.930  0.1427  0.6517  0.3572
   79SOPE  H15R 7137   0.959   2.556   5.953 -0.4967  0.9939 -1.7886
   79SOPE  H15S 7138   1.138   2.524   5.979 -1.7742 -1.3951  0.7426
   79SOPE  C216 7139   1.083   2.624   5.782 -0.0684  0.1284 -0.4523
   79SOPE  H16R 7140   1.188   2.643   5.752 -0.0641  0.3363 -0.3112
   79SOPE  H16S 7141   1.031   2.722   5.776  0.5100  0.3780 -1.6867
   79SOPE  C217 7142   0.995   2.530   5.694 -0.0864  0.6526 -0.4861
   79SOPE  H17R 7143   0.888   2.553   5.713 -0.2402  0.4890 -1.1231
   79SOPE  H17S 7144   1.009   2.427   5.731 -0.1754  1.1829  1.0861
   79SOPE  C218 7145   1.024   2.536   5.548  0.5159  0.3429  0.3712
   79SOPE  H18R 7146   0.953   2.461   5.507  0.7121 -0.0580  0.7561
   79SOPE  H18S 7147   1.125   2.492   5.532 -0.6891 -2.1231 -0.9652
   79SOPE  H18T 7148   1.010   2.637   5.505 -1.3940  0.4320  1.1218
   79SOPE   C33 7149   1.081   3.017   7.060 -0.3885 -0.2141 -0.0137
   79SOPE   H3X 7150   1.150   2.937   7.025  0.2578 -0.4985  1.7903
   79SOPE   H3Y 7151   1.129   3.075   7.142  0.0803  0.3354 -0.6682
   79SOPE   C34 7152   1.062   3.116   6.942 -0.2222 -0.1968  0.1757
   79SOPE   H4X 7153   1.163   3.158   6.921  0.0569 -0.3180  1.2544
   79SOPE   H4Y 7154   0.987   3.196   6.956  0.3210  0.3557  0.0004
   79SOPE   C35 7155   1.036   3.038   6.812 -0.1588  0.0764 -0.4895
   79SOPE   H5X 7156   0.936   2.990   6.816 -1.7792  3.2955  2.5199
   79SOPE   H5Y 7157   1.118   2.963   6.812 -0.7237 -0.5779 -2.1806
   79SOPE   C36 7158   1.051   3.131   6.694 -0.8243  0.0472  0.1075
   79SOPE   H6X 7159   1.151   3.177   6.708 -1.1222  0.4453  1.0022
   79SOPE   H6Y 7160   0.996   3.227   6.699 -1.5148 -0.1392 -2.4388
   79SOPE   C37 7161   1.036   3.060   6.555 -0.4420 -0.3176  0.2079
   79SOPE   H7X 7162   0.945   2.997   6.566  0.2567 -1.0344  2.1231
   79SOPE   H7Y 7163   1.119   2.989   6.539 -0.4777 -0.5277  0.9141
   79SOPE   C38 7164   1.042   3.161   6.436  0.5649  0.3680  0.3978
   79SOPE   H8X 7165   1.144   3.203   6.427  1.1200 -1.3988 -3.3786
   79SOPE   H8Y 7166   0.959   3.235   6.442  0.0081 -0.2092 -0.0099
   79SOPE   C39 7167   1.012   3.084   6.306  0.3900 -0.1940  0.6929
   79SOPE   H9X 7168   0.913   3.035   6.315  0.5854 -0.6837  0.2058
   79SOPE   H9Y 7169   1.081   2.999   6.293  0.7654  0.0156  1.2687
   79SOPE  C310 7170   1.006   3.181   6.187  0.0856  0.2848 -0.7432
   79SOPE  H10X 7171   1.106   3.230   6.189  0.1015  0.2393 -0.3660
   79SOPE  H10Y 7172   0.940   3.265   6.218  1.2829  0.6084  1.0905
   79SOPE  C311 7173   0.967   3.119   6.046 -0.4868 -0.1351 -0.2547
   79SOPE  H11X 7174   0.865   3.077   6.035 -0.3561 -0.5878  0.2393
   79SOPE  H11Y 7175   1.025   3.025   6.030 -0.3774 -0.0440 -0.3940
   79SOPE  C312 7176   1.009   3.218   5.937  0.2211  0.1925  0.2432
   79SOPE  H12X 7177   1.118   3.220   5.916 -0.0690  0.1057 -1.4509
   79SOPE  H12Y 7178   0.980   3.323   5.956 -0.6348  0.8594 -3.7816
   79SOPE  C313 7179   0.957   3.183   5.799  0.6458  0.0970  0.6930
   79SOPE  H13X 7180   0.846   3.183   5.803  0.6816 -0.5083  2.4379
   79SOPE  H13Y 7181   0.988   3.079   5.773  0.0303  0.4115 -1.4687
   79SOPE  C314 7182   1.003   3.274   5.689 -0.0141 -0.7879  0.3726
   79SOPE  H14X 7183   1.112   3.295   5.686 -0.5344  2.2350 -0.2596
   79SOPE  H14Y 7184   0.960   3.375   5.707  0.5650 -0.5204  0.2747
   79SOPE  C315 7185   0.960   3.224   5.549 -0.6223  0.2176  0.2018
   79SOPE  H15X 7186   0.951   3.311   5.481  0.5065  0.3492  0.1972
   79SOPE  H15Y 7187   0.858   3.179   5.552 -0.4284 -0.3626 -1.0514
   79SOPE  C316 7188   1.065   3.128   5.474 -0.5943  0.5537 -0.0962
   79SOPE  H16X 7189   1.165   3.176   5.467 -0.0483 -0.6871 -1.1158
   79SOPE  H16Y 7190   1.016   3.121   5.374 -1.9616 -1.1532  0.6533
   79SOPE  C317 7191   1.076   2.982   5.521  0.5882  0.1232  0.1393
   79SOPE  H17X 7192   0.986   2.946   5.574  0.1932 -0.5218 -0.9346
   79SOPE  H17Y 7193   1.156   2.979   5.598  1.8675 -0.8791 -1.1589
   79SOPE  C318 7194   1.120   2.873   5.418  0.4292 -0.7981 -0.3027
   79SOPE  H18X 7195   1.159   2.780   5.464  2.6417 -0.1206 -0.6910
   79SOPE  H18Y 7196   1.209   2.913   5.366 -0.9239  1.3242 -1.1771
   79SOPE  H18Z 7197   1.044   2.840   5.344 -1.1021 -1.2092  1.3820
   80SOPE     N 7198   5.290   3.631   7.625  0.6365  0.5919 -0.2791
   80SOPE   HN1 7199   5.371   3.568   7.610  1.2316  1.2048  0.2621
   80SOPE   HN2 7200   5.246   3.616   7.718 -0.4315  1.1904 -0.6630
   80SOPE   HN3 7201   5.213   3.614   7.557  0.0511  2.2218 -0.0762
   80SOPE   C12 7202   5.336   3.773   7.631 -0.3185  0.2316 -0.3412
   80SOPE  H12A 7203   5.392   3.799   7.539  0.0505  1.1714  0.1321
   80SOPE  H12B 7204   5.417   3.775   7.707  1.0874 -1.1312 -1.7326
   80SOPE   C11 7205   5.226   3.871   7.669 -0.1367  0.7758 -0.4258
   80SOPE  H11A 7206   5.237   3.977   7.637  1.0512  0.9569  0.5397
   80SOPE  H11B 7207   5.225   3.871   7.780  1.8743  1.8353 -0.3700
   80SOPE     P 7208   4.968   3.878   7.676  0.4781 -0.2119  0.5231
   80SOPE   O13 7209   5.003   3.990   7.771  0.0169  0.4887 -0.0904
   80SOPE   O14 7210   4.900   3.761   7.737  0.3317  0.3505  0.3039
   80SOPE   O12 7211   5.103   3.836   7.608 -0.3821 -0.0409  0.4477
   80SOPE   O11 7212   4.883   3.945   7.556  0.0802 -0.2223 -0.3830
   80SOPE    C1 7213   4.839   3.867   7.449  0.5315 -0.1389 -0.2690
   80SOPE    HA 7214   4.784   3.778   7.486  0.3773 -0.6749 -1.7361
   80SOPE    HB 7215   4.920   3.818   7.391 -0.5540 -2.0690 -0.2453
   80SOPE    C2 7216   4.742   3.945   7.356 -0.7669 -0.3269 -0.0045
   80SOPE    HS 7217   4.675   3.868   7.310  0.6155 -2.8590  1.9851
   80SOPE   O21 7218   4.817   4.023   7.259 -0.0953  0.7439 -0.4071
   80SOPE   C21 7219   4.872   3.947   7.168 -0.5770  0.5827  0.1190
   80SOPE   O22 7220   4.866   3.826   7.157 -0.0401  0.0491 -0.3405
   80SOPE   C22 7221   4.944   4.038   7.069 -0.1911  0.2003  0.2618
   80SOPE   H2R 7222   5.038   4.064   7.122 -1.2501 -0.2978  2.5377
   80SOPE   H2S 7223   4.871   4.119   7.048  0.3059  0.1501 -1.9022
   80SOPE    C3 7224   4.650   4.045   7.441 -0.1190 -0.8446  0.2467
   80SOPE    HX 7225   4.716   4.114   7.497  0.5169 -2.1206  1.1257
   80SOPE    HY 7226   4.590   3.990   7.517 -0.2828 -2.4872 -1.0013
   80SOPE   O31 7227   4.563   4.112   7.352  0.5347 -0.0579 -0.7855
   80SOPE   C31 7228   4.479   4.192   7.418  0.2763  0.2355  0.0755
   80SOPE   O32 7229   4.495   4.226   7.532 -1.0071  0.1847 -0.1744
   80SOPE   C32 7230   4.372   4.237   7.312  0.8924  0.2730 -0.6668
   80SOPE   H2X 7231   4.296   4.287   7.374  1.3190 -0.4441  0.4658
   80SOPE   H2Y 7232   4.333   4.143   7.268  2.0871  0.1942 -1.6381
   80SOPE   C23 7233   4.966   3.975   6.929 -0.2405  0.4496 -0.1908
   80SOPE   H3R 7234   4.990   3.868   6.939 -0.6441  0.2424 -1.2743
   80SOPE   H3S 7235   5.052   4.030   6.885  1.7939 -2.0884  0.4497
   80SOPE   C24 7236   4.841   3.993   6.839 -0.0768 -0.0473 -0.1123
   80SOPE   H4R 7237   4.750   3.946   6.881 -0.0552 -0.6454 -0.7238
   80SOPE   H4S 7238   4.822   4.102   6.832  0.8238  0.1958  0.8171
   80SOPE   C25 7239   4.876   3.949   6.706 -0.0756  0.4668  0.2384
   80SOPE   H5R 7240   4.969   3.997   6.669  1.7406 -2.0561  1.2148
   80SOPE   H5S 7241   4.900   3.840   6.705  0.5031  0.5825  0.8525
   80SOPE   C26 7242   4.772   3.988   6.599 -0.4515  0.3738 -0.8115
   80SOPE   H6R 7243   4.672   3.959   6.637  1.0191 -3.1141  0.8544
   80SOPE   H6S 7244   4.782   4.093   6.566 -1.3206  0.4884 -0.7156
   80SOPE   C27 7245   4.793   3.888   6.481 -0.3594  0.2212 -0.0915
   80SOPE   H7R 7246   4.898   3.888   6.445  0.4119 -1.3888  1.9553
   80SOPE   H7S 7247   4.783   3.787   6.527  1.2920 -0.2378 -0.6694
   80SOPE   C28 7248   4.695   3.907   6.368 -0.2703 -0.2573  0.3663
   80SOPE   H8R 7249   4.596   3.917   6.418  0.0002 -0.6289  0.9852
   80SOPE   H8S 7250   4.708   4.004   6.316 -1.9190 -0.3358 -0.2443
   80SOPE   C29 7251   4.679   3.781   6.279 -0.3705  0.0376 -0.2086
   80SOPE   H91 7252   4.695   3.682   6.324 -0.2461 -0.1254 -0.6066
   80SOPE  C210 7253   4.664   3.785   6.145  0.1615 -0.0207 -0.1911
   80SOPE  H101 7254   4.644   3.689   6.096  3.1042 -0.7232 -0.1756
   80SOPE  C211 7255   4.640   3.896   6.040 -0.5646  0.7110 -0.5751
   80SOPE  H11R 7256   4.643   3.998   6.083  4.0104  0.0820  1.2066
   80SOPE  H11S 7257   4.541   3.878   5.992 -1.5844  0.3749  1.5478
   80SOPE  C212 7258   4.750   3.897   5.932 -0.1626  0.3450 -0.2020
   80SOPE  H12R 7259   4.847   3.878   5.983  0.4970  0.7185 -1.2732
   80SOPE  H12S 7260   4.756   3.996   5.882  0.0567  1.2391  1.5442
   80SOPE  C213 7261   4.721   3.792   5.822 -0.0349 -0.0274  0.4986
   80SOPE  H13R 7262   4.646   3.829   5.749 -0.9171 -0.2302  1.2907
   80SOPE  H13S 7263   4.683   3.701   5.873 -1.7192  0.6977  0.6078
   80SOPE  C214 7264   4.852   3.764   5.749  0.8309  0.1772 -0.4146
   80SOPE  H14R 7265   4.929   3.722   5.818 -1.2608 -3.0772  0.1323
   80SOPE  H14S 7266   4.891   3.857   5.703  2.5068  0.3600  1.2352
   80SOPE  C215 7267   4.841   3.655   5.642 -0.1576 -0.1038 -0.0160
   80SOPE  H15R 7268   4.796   3.563   5.684 -0.5852 -0.0792 -0.4186
   80SOPE  H15S 7269   4.938   3.635   5.591  0.5894  1.4774  0.7229
   80SOPE  C216 7270   4.743   3.690   5.530  0.3826  0.1090  0.2763
   80SOPE  H16R 7271   4.793   3.768   5.468  0.1112 -0.2412 -0.3939
   80SOPE  H16S 7272   4.646   3.729   5.567  0.4984 -0.7896  1.5629
   80SOPE  C217 7273   4.708   3.568   5.444 -0.3442 -0.0218  0.0676
   80SOPE  H17R 7274   4.614   3.594   5.392 -0.4879  2.8472  1.5717
   80SOPE  H17S 7275   4.692   3.483   5.514  0.0440  1.2897  1.8168
   80SOPE  C218 7276   4.812   3.531   5.333 -0.6061 -0.2558 -0.7276
   80SOPE  H18R 7277   4.910   3.512   5.381  0.1431  0.6424 -1.8529
   80SOPE  H18S 7278   4.830   3.609   5.256 -0.8898  2.5524  1.9107
   80SOPE  H18T 7279   4.789   3.435   5.281 -0.0517  0.0497 -1.5554
   80SOPE   C33 7280   4.407   4.338   7.202 -0.3000  0.3031 -0.0251
   80SOPE   H3X 7281   4.329   4.333   7.123  0.7166  3.0446 -1.2968
   80SOPE   H3Y 7282   4.506   4.314   7.158 -1.0376  1.6208 -2.5953
   80SOPE   C34 7283   4.437   4.481   7.252  0.5026  0.1275  0.4883
   80SOPE   H4X 7284   4.522   4.475   7.323  0.9125 -1.2780 -0.0945
   80SOPE   H4Y 7285   4.352   4.523   7.310  0.8854  2.8416 -0.7294
   80SOPE   C35 7286   4.455   4.570   7.123 -0.1113 -0.0393 -0.4038
   80SOPE   H5X 7287   4.510   4.526   7.037  1.3573  2.2774 -0.7213
   80SOPE   H5Y 7288   4.493   4.670   7.152  0.8426 -0.4027 -0.3601
   80SOPE   C36 7289   4.318   4.600   7.056 -1.1110 -0.0541  0.0095
   80SOPE   H6X 7290   4.244   4.616   7.138 -0.2706  0.4509  0.6865
   80SOPE   H6Y 7291   4.285   4.518   6.989 -1.7640 -0.3943  0.7336
   80SOPE   C37 7292   4.322   4.731   6.969 -0.1548 -0.1423  0.3173
   80SOPE   H7X 7293   4.381   4.804   7.028 -0.8518  0.2255  0.5689
   80SOPE   H7Y 7294   4.216   4.759   6.953 -0.1381 -0.6734 -0.8361
   80SOPE   C38 7295   4.401   4.717   6.840 -0.3236  0.3892 -0.5457
   80SOPE   H8X 7296   4.493   4.658   6.862  0.7556  2.5297  0.9933
   80SOPE   H8Y 7297   4.432   4.819   6.808  1.0509  0.7128  1.6157
   80SOPE   C39 7298   4.323   4.670   6.720  0.1822 -0.0102 -0.0688
   80SOPE   H9X 7299   4.234   4.735   6.713  1.7468  2.6423  2.3398
   80SOPE   H9Y 7300   4.291   4.564   6.733  0.2021  0.0873  0.8385
   80SOPE  C310 7301   4.413   4.663   6.595  0.2437 -0.5766  0.6339
   80SOPE  H10X 7302   4.508   4.611   6.617  1.8444  1.2579 -1.5923
   80SOPE  H10Y 7303   4.432   4.767   6.562  0.9119 -0.7096  0.5990
   80SOPE  C311 7304   4.338   4.595   6.484  0.3969 -0.3739 -0.1782
   80SOPE  H11X 7305   4.239   4.641   6.467  0.1905  0.3352  2.4897
   80SOPE  H11Y 7306   4.328   4.487   6.509  1.9925 -1.1345 -2.4472
   80SOPE  C312 7307   4.421   4.598   6.361 -0.5745 -0.3631 -0.6743
   80SOPE  H12X 7308   4.511   4.533   6.365 -0.4185 -0.3323 -2.6847
   80SOPE  H12Y 7309   4.459   4.701   6.341 -0.9247 -0.0559  0.1900
   80SOPE  C313 7310   4.352   4.573   6.228  0.1509  0.0596 -0.0203
   80SOPE  H13X 7311   4.254   4.624   6.228  0.0835 -0.0621  0.6460
   80SOPE  H13Y 7312   4.325   4.466   6.215 -1.4450  0.5547 -0.9743
   80SOPE  C314 7313   4.438   4.615   6.115 -0.5438  0.1912  0.0047
   80SOPE  H14X 7314   4.535   4.561   6.111  0.3420  1.7727 -1.5057
   80SOPE  H14Y 7315   4.460   4.723   6.122  1.0935 -0.0071 -1.3488
   80SOPE  C315 7316   4.381   4.608   5.973  0.6230 -0.0461 -0.1205
   80SOPE  H15X 7317   4.292   4.674   5.964 -1.3462 -2.5553 -0.2044
   80SOPE  H15Y 7318   4.353   4.502   5.955  0.1475  0.1402 -0.5050
   80SOPE  C316 7319   4.473   4.662   5.864 -0.4284  0.0184 -0.6344
   80SOPE  H16X 7320   4.567   4.603   5.853  0.2897  0.6769  1.4265
   80SOPE  H16Y 7321   4.512   4.760   5.899  1.0579 -0.8857  0.3856
   80SOPE  C317 7322   4.411   4.674   5.722 -0.0171 -0.2263  0.1823
   80SOPE  H17X 7323   4.490   4.736   5.674  0.3066  0.9391  2.1283
   80SOPE  H17Y 7324   4.312   4.722   5.731  0.4145  0.3556  2.2096
   80SOPE  C318 7325   4.395   4.532   5.656  0.2355  0.5057 -0.1389
   80SOPE  H18X 7326   4.353   4.465   5.734 -1.2717  4.1267  2.4384
   80SOPE  H18Y 7327   4.493   4.491   5.624 -0.0197 -0.3545  0.1473
   80SOPE  H18Z 7328   4.328   4.539   5.567 -1.4205  0.0030  1.0202
   81SOPE     N 7329   1.837   5.841   8.268 -0.2335  0.3724 -0.5542
   81SOPE   HN1 7330   1.933   5.803   8.256  0.2789  0.8183  1.6785
   81SOPE   HN2 7331   1.841   5.903   8.352 -0.1913 -0.7961  0.3288
   81SOPE   HN3 7332   1.771   5.762   8.281 -1.0660  1.2977  1.2354
   81SOPE   C12 7333   1.790   5.925   8.153  0.3174 -0.0863  0.1716
   81SOPE  H12A 7334   1.681   5.946   8.160 -0.0217 -0.5934 -2.6250
   81SOPE  H12B 7335   1.808   5.869   8.059  0.8045  2.8797 -1.6106
   81SOPE   C11 7336   1.865   6.055   8.140  0.3743 -0.2709 -0.1548
   81SOPE  H11A 7337   1.845   6.110   8.235  0.7910 -1.3205  0.5636
   81SOPE  H11B 7338   1.812   6.104   8.056 -1.1670 -1.7041 -0.0647
   81SOPE     P 7339   2.089   6.139   8.041  0.2952 -0.3637  0.5216
   81SOPE   O13 7340   2.232   6.115   8.049 -0.6393  0.0334 -1.2486
   81SOPE   O14 7341   2.056   6.271   8.097  0.3746  0.5291  0.5622
   81SOPE   O12 7342   2.004   6.031   8.109 -0.1513  1.4345 -0.0139
   81SOPE   O11 7343   2.038   6.133   7.893  0.0217 -0.0723 -0.4785
   81SOPE    C1 7344   2.018   6.018   7.817  0.0666 -0.1384 -0.2285
   81SOPE    HA 7345   1.911   6.010   7.792 -0.4683 -1.2288  2.1192
   81SOPE    HB 7346   2.033   5.926   7.877 -2.1841  0.9952  2.2570
   81SOPE    C2 7347   2.099   6.023   7.687 -0.3340  0.6838  0.0427
   81SOPE    HS 7348   2.203   6.036   7.723  1.0996 -1.2455 -2.9956
   81SOPE   O21 7349   2.052   6.140   7.607  0.0221 -0.1616  0.1061
   81SOPE   C21 7350   2.146   6.183   7.529 -0.4206 -0.4143 -0.4137
   81SOPE   O22 7351   2.261   6.148   7.531  0.0701 -0.8550 -0.1822
   81SOPE   C22 7352   2.097   6.308   7.448  0.4212  0.2663  0.4010
   81SOPE   H2R 7353   2.055   6.377   7.525 -2.0441 -0.4050 -0.2552
   81SOPE   H2S 7354   2.009   6.286   7.384  2.4700 -0.5661 -2.2984
   81SOPE    C3 7355   2.083   5.880   7.615 -0.1389 -0.8196  0.0103
   81SOPE    HX 7356   1.976   5.849   7.617 -0.1217 -1.0196 -1.1985
   81SOPE    HY 7357   2.124   5.805   7.685 -1.7252 -1.4632  0.2983
   81SOPE   O31 7358   2.148   5.886   7.486 -0.4102  0.1118 -0.4324
   81SOPE   C31 7359   2.279   5.869   7.480 -0.3527  0.5647 -0.2145
   81SOPE   O32 7360   2.351   5.852   7.575  0.1322 -0.2345 -0.3415
   81SOPE   C32 7361   2.328   5.893   7.338  0.2946  0.3052  0.0523
   81SOPE   H2X 7362   2.412   5.965   7.353  0.2420  0.0960  1.5209
   81SOPE   H2Y 7363   2.248   5.940   7.277 -0.7883  0.7597  1.7536
   81SOPE   C23 7364   2.204   6.381   7.363 -0.6812  0.5384  0.2743
   81SOPE   H3R 7365   2.294   6.415   7.418 -0.1410 -0.3035 -0.0624
   81SOPE   H3S 7366   2.148   6.471   7.331 -0.6258 -0.4433 -2.9951
   81SOPE   C24 7367   2.257   6.308   7.240 -0.4474  0.6177 -0.2465
   81SOPE   H4R 7368   2.322   6.382   7.189 -0.7404 -0.9202 -3.0601
   81SOPE   H4S 7369   2.330   6.229   7.267 -2.1184 -1.5157 -1.6142
   81SOPE   C25 7370   2.151   6.246   7.146 -0.0909 -0.2626 -0.0493
   81SOPE   H5R 7371   2.107   6.155   7.192  0.0971 -0.3100  0.0362
   81SOPE   H5S 7372   2.065   6.315   7.127 -0.7134 -1.5199 -2.1841
   81SOPE   C26 7373   2.217   6.212   7.010  0.0688  1.7697  0.4081
   81SOPE   H6R 7374   2.282   6.297   6.980 -1.0588  2.7022  0.5232
   81SOPE   H6S 7375   2.285   6.127   7.031 -0.7585  0.2560 -2.5271
   81SOPE   C27 7376   2.120   6.182   6.899  0.4857  0.5312  0.1315
   81SOPE   H7R 7377   2.173   6.113   6.830  0.6925 -0.3880  1.1927
   81SOPE   H7S 7378   2.019   6.153   6.935  0.1201  1.8325  0.1874
   81SOPE   C28 7379   2.077   6.309   6.819 -0.1777  0.3297  0.2552
   81SOPE   H8R 7380   2.028   6.377   6.892 -0.0829 -0.9450  1.5559
   81SOPE   H8S 7381   2.157   6.361   6.764 -1.2488  0.4054 -1.2964
   81SOPE   C29 7382   1.965   6.264   6.724 -0.2933  0.5169 -0.0012
   81SOPE   H91 7383   1.883   6.225   6.786  0.1605 -0.7503 -0.1770
   81SOPE  C210 7384   1.954   6.283   6.592  0.4960 -0.0756 -0.0868
   81SOPE  H101 7385   1.865   6.244   6.542  0.7705 -1.2978  0.3476
   81SOPE  C211 7386   2.061   6.341   6.495  0.6187  0.2753 -0.1782
   81SOPE  H11R 7387   2.140   6.397   6.551 -1.4282  3.9494 -0.6425
   81SOPE  H11S 7388   2.010   6.413   6.428  2.5868  1.1275 -0.8575
   81SOPE  C212 7389   2.130   6.237   6.411 -0.5257 -0.6379  0.2140
   81SOPE  H12R 7390   2.068   6.183   6.336  0.0241 -1.8254  0.5835
   81SOPE  H12S 7391   2.170   6.167   6.488 -1.8491  0.7872  2.2914
   81SOPE  C213 7392   2.255   6.297   6.341 -0.2848  0.0072 -0.0417
   81SOPE  H13R 7393   2.323   6.209   6.343 -1.2222 -0.7389 -0.3131
   81SOPE  H13S 7394   2.305   6.388   6.380  0.3476  0.3369 -1.5422
   81SOPE  C214 7395   2.232   6.307   6.193 -0.3336  0.3924  0.0897
   81SOPE  H14R 7396   2.208   6.210   6.144 -1.8737  1.2474 -0.9610
   81SOPE  H14S 7397   2.331   6.339   6.156 -0.0946  1.3793  1.4791
   81SOPE  C215 7398   2.131   6.413   6.145  0.3036  0.0895  0.8767
   81SOPE  H15R 7399   2.150   6.505   6.205  0.2310 -0.8593  2.4167
   81SOPE  H15S 7400   2.029   6.377   6.173 -0.1017 -1.7793 -2.4869
   81SOPE  C216 7401   2.145   6.444   5.996  0.0936  0.3056 -0.2015
   81SOPE  H16R 7402   2.141   6.355   5.929  1.8795 -0.8058  1.0679
   81SOPE  H16S 7403   2.246   6.486   5.979  0.8513 -1.8063 -1.3376
   81SOPE  C217 7404   2.044   6.540   5.941 -0.1457 -0.7481  0.4477
   81SOPE  H17R 7405   2.033   6.620   6.019  2.2934 -0.0942  0.2155
   81SOPE  H17S 7406   1.947   6.489   5.927 -0.9953  1.2769 -1.6578
   81SOPE  C218 7407   2.082   6.610   5.813  0.1847  0.5933  0.8276
   81SOPE  H18R 7408   2.085   6.539   5.728  0.4405  3.3147 -1.5862
   81SOPE  H18S 7409   2.186   6.648   5.828  0.6345 -0.5044  0.6239
   81SOPE  H18T 7410   2.022   6.701   5.797  0.2027  0.7129  1.4041
   81SOPE   C33 7411   2.401   5.766   7.271  0.2375 -0.3014  0.2823
   81SOPE   H3X 7412   2.345   5.671   7.281  0.8211 -0.5635  1.1877
   81SOPE   H3Y 7413   2.500   5.767   7.323  0.0593  1.0008  0.6408
   81SOPE   C34 7414   2.428   5.791   7.116 -0.5198  0.1461 -0.8043
   81SOPE   H4X 7415   2.517   5.738   7.076 -0.0224  0.1108  0.2986
   81SOPE   H4Y 7416   2.421   5.900   7.098 -0.4788  0.1053 -1.0630
   81SOPE   C35 7417   2.301   5.729   7.036  0.1528  0.1630  1.0793
   81SOPE   H5X 7418   2.208   5.752   7.093 -0.5857  1.1322 -0.4268
   81SOPE   H5Y 7419   2.311   5.618   7.036 -1.0746 -0.0536 -1.7619
   81SOPE   C36 7420   2.277   5.779   6.897  0.0538  0.1475  0.1818
   81SOPE   H6X 7421   2.270   5.890   6.898  0.5978  0.1989  2.4327
   81SOPE   H6Y 7422   2.186   5.737   6.848  1.2431 -1.2922 -0.8756
   81SOPE   C37 7423   2.382   5.743   6.790  0.4851  0.3715  0.6196
   81SOPE   H7X 7424   2.411   5.636   6.794  1.0826  0.5297  0.5524
   81SOPE   H7Y 7425   2.478   5.795   6.808  0.6483  0.0775  0.5904
   81SOPE   C38 7426   2.332   5.761   6.646  0.3309  0.2806 -0.4027
   81SOPE   H8X 7427   2.234   5.710   6.636  0.6475 -0.4662  0.2760
   81SOPE   H8Y 7428   2.394   5.705   6.572  0.8368  0.2401  0.0427
   81SOPE   C39 7429   2.311   5.911   6.621 -0.5066 -0.0714 -0.3404
   81SOPE   H9X 7430   2.296   5.973   6.712 -0.8663 -1.5326  0.6219
   81SOPE   H9Y 7431   2.225   5.927   6.553  0.3718  0.0926 -1.4378
   81SOPE  C310 7432   2.429   5.975   6.532  0.1608  0.1481 -0.2016
   81SOPE  H10X 7433   2.524   5.957   6.586  0.6219  0.3271 -0.9467
   81SOPE  H10Y 7434   2.414   6.085   6.537  0.8158  0.1961  1.3206
   81SOPE  C311 7435   2.455   5.918   6.392  0.4397  0.1423 -0.1353
   81SOPE  H11X 7436   2.481   5.811   6.401 -1.1985 -0.4368 -1.7404
   81SOPE  H11Y 7437   2.530   5.988   6.349  1.5271 -0.9233 -0.0193
   81SOPE  C312 7438   2.334   5.908   6.308 -0.3233 -0.2694 -0.0846
   81SOPE  H12X 7439   2.279   6.005   6.310  1.9235  1.1668 -2.5547
   81SOPE  H12Y 7440   2.270   5.824   6.342  1.0069 -2.1077 -1.8932
   81SOPE  C313 7441   2.380   5.884   6.166 -0.1507 -0.5324  0.7050
   81SOPE  H13X 7442   2.442   5.792   6.153  0.8102  0.3149 -1.1237
   81SOPE  H13Y 7443   2.444   5.967   6.130 -0.9483  0.1036  0.7185
   81SOPE  C314 7444   2.261   5.878   6.071  0.2390  0.3625 -0.6362
   81SOPE  H14X 7445   2.242   5.985   6.046  0.3063  0.7025  0.6969
   81SOPE  H14Y 7446   2.171   5.833   6.118  0.9753  0.5117  0.9756
   81SOPE  C315 7447   2.281   5.806   5.947  0.5151  0.4639 -0.0451
   81SOPE  H15X 7448   2.251   5.700   5.960  0.1240  0.3363 -1.7460
   81SOPE  H15Y 7449   2.386   5.824   5.916  0.1423  2.2089 -0.4090
   81SOPE  C316 7450   2.195   5.861   5.822 -0.3580  0.3355  0.5855
   81SOPE  H16X 7451   2.236   5.814   5.730  1.4828  2.1286  0.3967
   81SOPE  H16Y 7452   2.208   5.971   5.810  0.7089  0.3553  1.7354
   81SOPE  C317 7453   2.040   5.827   5.842 -0.2678  0.3677 -0.1029
   81SOPE  H17X 7454   2.020   5.838   5.951 -1.2407  1.8378 -0.3942
   81SOPE  H17Y 7455   2.026   5.721   5.812 -0.6869  0.8938 -1.8819
   81SOPE  C318 7456   1.952   5.922   5.761  0.2151  0.0579 -0.5429
   81SOPE  H18X 7457   1.967   5.890   5.655  0.8173  2.3632 -1.2054
   81SOPE  H18Y 7458   1.979   6.029   5.768 -0.3163  0.4538 -3.3531
   81SOPE  H18Z 7459   1.845   5.910   5.789  0.1336 -0.2488 -0.9740
   82SOPE     N 7460   5.413   0.745   7.578 -0.1801 -0.0406  0.4491
   82SOPE   HN1 7461   5.464   0.825   7.536 -1.1813 -0.5496 -1.8929
   82SOPE   HN2 7462   5.379   0.774   7.672  2.1107  1.0032  1.0169
   82SOPE   HN3 7463   5.488   0.675   7.595 -1.0684 -1.0489  0.3857
   82SOPE   C12 7464   5.301   0.699   7.493 -0.3621 -0.4138  0.0415
   82SOPE  H12A 7465   5.206   0.757   7.499  0.5263  0.9866  1.9948
   82SOPE  H12B 7466   5.280   0.596   7.530  1.9052 -1.0399 -0.2474
   82SOPE   C11 7467   5.356   0.697   7.345  0.5013  0.5498 -0.4479
   82SOPE  H11A 7468   5.269   0.668   7.282  0.4423  1.2792 -0.7158
   82SOPE  H11B 7469   5.426   0.612   7.329 -1.9598 -1.7635  0.3212
   82SOPE     P 7470   5.345   0.932   7.243  0.0077  0.0723  0.1009
   82SOPE   O13 7471   5.286   1.013   7.346 -0.0626 -0.2288  0.1279
   82SOPE   O14 7472   5.249   0.874   7.142  0.0158 -0.0190 -0.3542
   82SOPE   O12 7473   5.428   0.814   7.309  0.0465 -0.8099 -0.3184
   82SOPE   O11 7474   5.446   1.019   7.160 -0.0814  0.1521 -0.8341
   82SOPE    C1 7475   5.583   1.036   7.184 -0.5430 -0.0764  0.8588
   82SOPE    HA 7476   5.620   0.990   7.278  0.2654 -0.5269  0.3279
   82SOPE    HB 7477   5.599   1.145   7.197 -1.8542  0.1084  1.1013
   82SOPE    C2 7478   5.660   0.964   7.068  0.1374  0.3940 -0.6005
   82SOPE    HS 7479   5.763   0.976   7.109  0.6247 -0.6003 -1.4779
   82SOPE   O21 7480   5.643   1.046   6.955  0.6655 -0.3334  0.1890
   82SOPE   C21 7481   5.738   1.018   6.866 -0.2867 -0.2172 -0.5139
   82SOPE   O22 7482   5.848   0.968   6.888 -0.2994 -0.0214  0.3815
   82SOPE   C22 7483   5.682   1.050   6.739 -0.0464  0.2561  0.3741
   82SOPE   H2R 7484   5.745   1.133   6.699  0.9310  1.0366  3.2469
   82SOPE   H2S 7485   5.575   1.080   6.744 -0.0816  0.0632  0.8212
   82SOPE    C3 7486   5.624   0.813   7.054  0.2140  0.2028 -0.0898
   82SOPE    HX 7487   5.517   0.819   7.028  0.0340  0.2228  0.6509
   82SOPE    HY 7488   5.626   0.772   7.157  0.9511 -0.1144 -0.2228
   82SOPE   O31 7489   5.697   0.747   6.951 -0.4106 -0.1796  0.2729
   82SOPE   C31 7490   5.789   0.660   6.994  0.1232 -0.6591  0.0601
   82SOPE   O32 7491   5.800   0.610   7.101  0.1112  0.0366  0.0415
   82SOPE   C32 7492   5.889   0.642   6.878 -0.0709 -0.7094 -0.2283
   82SOPE   H2X 7493   5.949   0.734   6.860 -1.0694  0.6219  2.6607
   82SOPE   H2Y 7494   5.833   0.637   6.782  0.1881 -0.5156 -0.3909
   82SOPE   C23 7495   5.685   0.926   6.641 -0.1970  0.3564  0.2764
   82SOPE   H3R 7496   5.595   0.863   6.658 -1.0584  1.1596 -1.0713
   82SOPE   H3S 7497   5.766   0.852   6.660 -1.9476 -1.7700 -0.1642
   82SOPE   C24 7498   5.696   0.966   6.492  0.0283  0.3836  0.6978
   82SOPE   H4R 7499   5.606   1.028   6.473 -1.0604 -1.5000 -0.5208
   82SOPE   H4S 7500   5.782   1.033   6.468 -1.4994  2.4727  0.8220
   82SOPE   C25 7501   5.686   0.849   6.396  0.1694  0.6034  0.3760
   82SOPE   H5R 7502   5.773   0.781   6.406  0.2743  0.7544  0.4843
   82SOPE   H5S 7503   5.589   0.797   6.415  0.0078  0.4960 -0.6551
   82SOPE   C26 7504   5.681   0.890   6.248  0.3982 -0.0245 -0.0058
   82SOPE   H6R 7505   5.599   0.956   6.214 -0.1827 -0.9390 -0.4079
   82SOPE   H6S 7506   5.770   0.956   6.253  0.1304  0.3636 -0.4031
   82SOPE   C27 7507   5.705   0.769   6.155 -0.5637  0.1924 -0.1545
   82SOPE   H7R 7508   5.799   0.724   6.194 -0.8837 -0.5037 -0.1703
   82SOPE   H7S 7509   5.635   0.687   6.180  0.7437 -0.5636  1.2528
   82SOPE   C28 7510   5.704   0.807   6.004  0.4759 -0.3470  0.2682
   82SOPE   H8R 7511   5.697   0.724   5.932  1.5256 -0.1419 -0.0904
   82SOPE   H8S 7512   5.600   0.846   6.000  0.5957 -0.0817 -0.3897
   82SOPE   C29 7513   5.801   0.914   5.967  0.0615  0.0410 -0.1022
   82SOPE   H91 7514   5.813   0.992   6.043 -1.1502  0.6100 -0.4727
   82SOPE  C210 7515   5.895   0.912   5.870  0.0822 -0.3616 -0.8272
   82SOPE  H101 7516   5.957   1.002   5.866 -1.1344  0.5101 -0.5781
   82SOPE  C211 7517   5.929   0.800   5.776  0.3365  0.0209  0.8055
   82SOPE  H11R 7518   5.848   0.725   5.774  1.4392 -1.2064  0.7891
   82SOPE  H11S 7519   6.013   0.749   5.828 -0.9727 -2.3018  0.7580
   82SOPE  C212 7520   5.964   0.847   5.639  0.6428  0.3330  0.4662
   82SOPE  H12R 7521   6.056   0.908   5.653  0.6261  0.2925  0.7591
   82SOPE  H12S 7522   5.886   0.917   5.603 -2.2798 -2.1431  1.5320
   82SOPE  C213 7523   5.989   0.730   5.540 -0.1162 -0.1590 -0.2424
   82SOPE  H13R 7524   5.901   0.663   5.528  0.0075 -0.6682  1.4164
   82SOPE  H13S 7525   6.076   0.671   5.576  1.1351  2.7026  1.8325
   82SOPE  C214 7526   6.046   0.790   5.412  0.4842 -0.2387  0.8391
   82SOPE  H14R 7527   6.115   0.876   5.426 -0.9879  1.1065  0.2218
   82SOPE  H14S 7528   5.963   0.837   5.354  2.1047  1.8402  0.0798
   82SOPE  C215 7529   6.096   0.688   5.303 -0.3269 -0.2364  0.2648
   82SOPE  H15R 7530   6.013   0.638   5.249  0.4374 -0.7738 -0.4541
   82SOPE  H15S 7531   6.161   0.615   5.356 -1.2167 -1.8395 -0.7563
   82SOPE  C216 7532   6.183   0.747   5.196 -0.6293  0.0496  1.2276
   82SOPE  H16R 7533   6.282   0.771   5.242 -1.0627  1.1094  1.6358
   82SOPE  H16S 7534   6.138   0.836   5.148  0.9519  0.1057 -0.2646
   82SOPE  C217 7535   6.214   0.656   5.081  0.4234 -1.2639 -0.1271
   82SOPE  H17R 7536   6.119   0.633   5.029 -0.9461  2.4497  0.3730
   82SOPE  H17S 7537   6.256   0.560   5.117  0.3049 -1.1814  0.2386
   82SOPE  C218 7538   6.305   0.731   4.983  0.1137 -0.5790 -0.3455
   82SOPE  H18R 7539   6.382   0.793   5.033 -1.0587 -0.1993  1.0516
   82SOPE  H18S 7540   6.261   0.808   4.915  0.5909 -0.1150 -0.1373
   82SOPE  H18T 7541   6.361   0.652   4.928  2.7459  0.4789  0.6852
   82SOPE   C33 7542   5.986   0.520   6.895 -0.4311 -0.5115 -0.6659
   82SOPE   H3X 7543   6.012   0.511   7.003  0.9741  1.5411 -0.7807
   82SOPE   H3Y 7544   6.081   0.540   6.841 -0.4584 -1.3433 -1.0293
   82SOPE   C34 7545   5.936   0.382   6.854  0.9206  0.3221 -0.4492
   82SOPE   H4X 7546   5.849   0.373   6.923  0.8498 -1.7569 -0.7550
   82SOPE   H4Y 7547   6.004   0.302   6.891 -0.2990 -0.2715  0.5797
   82SOPE   C35 7548   5.903   0.375   6.700  0.1309 -0.3364 -0.4335
   82SOPE   H5X 7549   5.985   0.323   6.646  1.5129 -0.4556  1.6682
   82SOPE   H5Y 7550   5.902   0.480   6.662 -0.6466 -0.2913 -0.3161
   82SOPE   C36 7551   5.769   0.308   6.665 -0.1281 -0.5025  1.5485
   82SOPE   H6X 7552   5.699   0.328   6.749  1.7018  1.9353  2.6337
   82SOPE   H6Y 7553   5.783   0.199   6.674  1.9663 -0.1294  3.7673
   82SOPE   C37 7554   5.721   0.372   6.534  0.3843  0.4263  0.1704
   82SOPE   H7X 7555   5.728   0.483   6.538  0.7982  0.3688  1.6021
   82SOPE   H7Y 7556   5.610   0.360   6.528 -0.0375  1.1334  4.1722
   82SOPE   C38 7557   5.790   0.323   6.408  0.0202 -0.1374 -0.0957
   82SOPE   H8X 7558   5.762   0.218   6.385  0.3056 -0.3977  0.7180
   82SOPE   H8Y 7559   5.900   0.329   6.423  0.1514 -2.3489  0.2577
   82SOPE   C39 7560   5.764   0.413   6.288  1.4285  0.1693  0.1824
   82SOPE   H9X 7561   5.824   0.507   6.296  0.8084  0.5196  0.8181
   82SOPE   H9Y 7562   5.655   0.434   6.284  0.9199 -2.3693 -1.4775
   82SOPE  C310 7563   5.818   0.364   6.150  0.0283 -0.3156  0.3629
   82SOPE  H10X 7564   5.786   0.257   6.142 -1.7082  0.1864  0.0621
   82SOPE  H10Y 7565   5.928   0.358   6.153  0.0909 -0.7415 -1.5091
   82SOPE  C311 7566   5.764   0.442   6.025  0.1328  0.7771  0.2576
   82SOPE  H11X 7567   5.801   0.546   6.034  0.0107  1.0343 -1.8654
   82SOPE  H11Y 7568   5.654   0.435   6.036  0.1617 -2.1767 -0.3924
   82SOPE  C312 7569   5.805   0.373   5.891  0.1657  0.3483 -0.6161
   82SOPE  H12X 7570   5.777   0.266   5.905 -1.7904  0.9531  0.4015
   82SOPE  H12Y 7571   5.916   0.374   5.889  0.2000 -1.0613 -0.7323
   82SOPE  C313 7572   5.735   0.429   5.772 -0.8944 -0.2448  0.0172
   82SOPE  H13X 7573   5.771   0.533   5.762  1.4753 -0.9972  0.2091
   82SOPE  H13Y 7574   5.624   0.424   5.776 -1.1131  0.8260 -2.4767
   82SOPE  C314 7575   5.789   0.355   5.650 -0.7467  0.5022  0.4450
   82SOPE  H14X 7576   5.776   0.245   5.653  1.2524  0.1909 -0.4516
   82SOPE  H14Y 7577   5.900   0.365   5.643 -0.6260 -0.8809 -0.0733
   82SOPE  C315 7578   5.713   0.410   5.531  0.0122 -0.8172  0.4946
   82SOPE  H15X 7579   5.721   0.521   5.537  1.8100 -0.7988 -1.2531
   82SOPE  H15Y 7580   5.610   0.386   5.564 -1.1056  0.9232 -1.4939
   82SOPE  C316 7581   5.735   0.348   5.393  0.5792 -0.4462  0.3669
   82SOPE  H16X 7582   5.648   0.377   5.332  0.8257 -2.0818 -0.8193
   82SOPE  H16Y 7583   5.737   0.237   5.397 -0.0625 -0.4508  0.5257
   82SOPE  C317 7584   5.852   0.396   5.312  0.2752  0.1024 -0.3956
   82SOPE  H17X 7585   5.942   0.382   5.375 -0.9891 -1.6280  1.1241
   82SOPE  H17Y 7586   5.853   0.506   5.294  2.1177 -0.0371 -1.4797
   82SOPE  C318 7587   5.860   0.333   5.174 -0.4481  0.4469 -0.4602
   82SOPE  H18X 7588   5.758   0.332   5.129 -0.3536 -1.4490 -0.7128
   82SOPE  H18Y 7589   5.891   0.227   5.183 -1.3917  0.1090 -1.0425
   82SOPE  H18Z 7590   5.943   0.375   5.113 -1.4604  3.4537  0.0815
   83SOPE     N 7591   1.969   4.721   2.902  0.5395  0.0734 -0.0112
   83SOPE   HN1 7592   1.953   4.823   2.917 -2.9169  0.0597 -2.6398
   83SOPE   HN2 7593   2.017   4.671   2.980  1.1142  1.7776  0.7884
   83SOPE   HN3 7594   2.030   4.707   2.819 -2.1154  4.3417 -3.1084
   83SOPE   C12 7595   1.829   4.665   2.882 -0.4248 -0.2018  0.2579
   83SOPE  H12A 7596   1.833   4.557   2.905  1.9333 -0.0347  0.9192
   83SOPE  H12B 7597   1.795   4.673   2.777 -2.8408  0.2882  1.0229
   83SOPE   C11 7598   1.729   4.747   2.968 -0.8857  0.0904 -0.4575
   83SOPE  H11A 7599   1.777   4.759   3.067 -0.6510  2.3084 -0.7970
   83SOPE  H11B 7600   1.640   4.684   2.989 -0.9805  0.5616  0.6123
   83SOPE     P 7601   1.717   5.002   2.986 -0.0787 -0.0702  0.5164
   83SOPE   O13 7602   1.663   5.120   2.910 -0.1542 -0.2114 -0.4507
   83SOPE   O14 7603   1.860   5.000   3.015 -0.5221  1.1301  0.3695
   83SOPE   O12 7604   1.689   4.868   2.903  0.3336  0.1717 -0.7242
   83SOPE   O11 7605   1.632   4.982   3.113 -0.4826 -0.2490 -0.5007
   83SOPE    C1 7606   1.512   4.912   3.124  0.3142 -0.6650 -0.7738
   83SOPE    HA 7607   1.522   4.831   3.200 -1.0127 -1.3423 -1.2929
   83SOPE    HB 7608   1.478   4.861   3.031 -2.4002 -1.0851  0.3683
   83SOPE    C2 7609   1.406   5.013   3.181 -0.8725  0.2281  0.8224
   83SOPE    HS 7610   1.416   5.111   3.130 -1.3590  0.7293  1.6752
   83SOPE   O21 7611   1.438   5.031   3.321  0.5937  0.0231 -0.9349
   83SOPE   C21 7612   1.392   5.140   3.374  0.0539  0.5252  0.2082
   83SOPE   O22 7613   1.345   5.237   3.313  0.1465  0.6613 -0.6918
   83SOPE   C22 7614   1.404   5.134   3.528  0.1972  0.1396  0.1696
   83SOPE   H2R 7615   1.335   5.210   3.571 -0.8526 -0.7591  0.1078
   83SOPE   H2S 7616   1.504   5.176   3.555  0.3090  0.7024 -1.0358
   83SOPE    C3 7617   1.272   4.957   3.148 -0.3009  0.4926  0.2319
   83SOPE    HX 7618   1.274   4.947   3.037 -1.2052 -0.1492  0.2573
   83SOPE    HY 7619   1.188   5.027   3.164 -0.2803  0.7440 -0.6926
   83SOPE   O31 7620   1.244   4.828   3.207 -0.0292  0.5526  0.3010
   83SOPE   C31 7621   1.179   4.842   3.322 -0.0542  0.5164  0.9229
   83SOPE   O32 7622   1.126   4.936   3.368  0.1187 -0.3220  0.2320
   83SOPE   C32 7623   1.175   4.705   3.387  0.9393 -0.1182 -0.0238
   83SOPE   H2X 7624   1.103   4.640   3.333  1.7210 -4.2874  3.4064
   83SOPE   H2Y 7625   1.139   4.721   3.491 -0.5775 -3.2346  0.0489
   83SOPE   C23 7626   1.372   4.994   3.583  0.4652 -0.5091 -0.2874
   83SOPE   H3R 7627   1.426   4.907   3.541  1.7463 -0.5664  1.3693
   83SOPE   H3S 7628   1.266   4.965   3.569  0.3552  0.1945 -0.9575
   83SOPE   C24 7629   1.403   4.996   3.738 -0.1943 -0.9215  0.0824
   83SOPE   H4R 7630   1.509   5.012   3.767 -0.9100  0.0106  2.4794
   83SOPE   H4S 7631   1.342   5.074   3.788  0.1901 -1.4867  1.5026
   83SOPE   C25 7632   1.375   4.862   3.810  0.0523  0.5056  0.7847
   83SOPE   H5R 7633   1.267   4.841   3.789  0.3085 -0.7595  0.6430
   83SOPE   H5S 7634   1.440   4.788   3.757 -1.3622  0.9533 -1.7800
   83SOPE   C26 7635   1.409   4.860   3.960 -0.1513 -0.1564  1.0198
   83SOPE   H6R 7636   1.424   4.756   3.995 -2.0014 -0.9152 -0.3339
   83SOPE   H6S 7637   1.497   4.927   3.973 -1.1688  1.8181 -1.4473
   83SOPE   C27 7638   1.293   4.912   4.043 -0.3937 -0.3783 -0.6606
   83SOPE   H7R 7639   1.263   5.015   4.014  1.7206  0.7332  0.8483
   83SOPE   H7S 7640   1.201   4.850   4.037 -1.4479  1.0342  0.0218
   83SOPE   C28 7641   1.324   4.931   4.199  0.4382 -0.3531  0.5395
   83SOPE   H8R 7642   1.432   4.955   4.202  0.9367 -2.1810 -0.8017
   83SOPE   H8S 7643   1.254   5.013   4.227 -1.8988 -2.3599  1.0085
   83SOPE   C29 7644   1.292   4.799   4.273 -0.1036 -0.3401 -0.9395
   83SOPE   H91 7645   1.338   4.709   4.229  0.4830 -0.0645 -0.8893
   83SOPE  C210 7646   1.247   4.789   4.398 -0.5108  0.1464  0.3541
   83SOPE  H101 7647   1.224   4.691   4.442 -0.0956 -0.2279 -0.2568
   83SOPE  C211 7648   1.205   4.886   4.501 -0.4535 -0.3980 -0.0784
   83SOPE  H11R 7649   1.103   4.876   4.543 -1.4018 -2.6452 -2.6380
   83SOPE  H11S 7650   1.203   4.988   4.455 -0.5201 -1.4340 -2.5552
   83SOPE  C212 7651   1.310   4.894   4.615 -0.3626 -0.3958 -0.4423
   83SOPE  H12R 7652   1.412   4.917   4.576  0.0062 -0.8136  0.2560
   83SOPE  H12S 7653   1.314   4.796   4.666 -1.5907 -0.0658  0.3360
   83SOPE  C213 7654   1.266   5.003   4.724 -0.6439  0.1399  1.5271
   83SOPE  H13R 7655   1.157   4.983   4.735 -0.8667 -0.2533 -0.9067
   83SOPE  H13S 7656   1.294   5.106   4.695 -0.8902  0.2519  1.6827
   83SOPE  C214 7657   1.339   4.974   4.861  0.1290  0.5296 -0.2126
   83SOPE  H14R 7658   1.445   5.008   4.856  0.2672  0.3041  0.9895
   83SOPE  H14S 7659   1.350   4.864   4.870  1.8654  0.6132 -1.0512
   83SOPE  C215 7660   1.255   5.016   4.980 -0.1885 -0.5001  0.1318
   83SOPE  H15R 7661   1.156   4.972   4.953  0.5958 -0.9807 -2.1667
   83SOPE  H15S 7662   1.245   5.127   4.984  0.3253 -0.4544  0.2880
   83SOPE  C216 7663   1.310   4.948   5.103 -0.0663  0.2678  0.4005
   83SOPE  H16R 7664   1.394   5.009   5.142  1.3283 -0.0542 -1.8996
   83SOPE  H16S 7665   1.358   4.852   5.074  1.3745  1.5299 -1.6388
   83SOPE  C217 7666   1.223   4.911   5.222  0.0170 -0.8376 -0.9200
   83SOPE  H17R 7667   1.276   4.826   5.270  1.4405 -1.3692 -3.2286
   83SOPE  H17S 7668   1.136   4.854   5.183  0.7455 -2.5118 -0.1780
   83SOPE  C218 7669   1.177   5.022   5.325  0.1152 -0.2068  0.3846
   83SOPE  H18R 7670   1.268   5.078   5.356 -0.8256  2.5168 -1.4172
   83SOPE  H18S 7671   1.125   4.968   5.407  0.3218 -2.4600 -0.8792
   83SOPE  H18T 7672   1.113   5.102   5.283 -1.1273 -0.8187  1.0529
   83SOPE   C33 7673   1.307   4.618   3.394 -0.2684  0.3656 -0.0792
   83SOPE   H3X 7674   1.376   4.670   3.464  0.5294 -0.0624 -0.5256
   83SOPE   H3Y 7675   1.361   4.599   3.298 -0.5119  0.5893 -0.2613
   83SOPE   C34 7676   1.275   4.482   3.466 -0.3027  0.3271  0.3466
   83SOPE   H4X 7677   1.368   4.422   3.463  0.8335  2.0396 -0.0746
   83SOPE   H4Y 7678   1.206   4.431   3.396  0.2951  3.2803 -2.6151
   83SOPE   C35 7679   1.222   4.485   3.611  0.0799 -0.5462 -0.0915
   83SOPE   H5X 7680   1.114   4.513   3.609  0.0534  0.3785  4.3035
   83SOPE   H5Y 7681   1.291   4.549   3.670  0.6272 -0.8556 -0.3912
   83SOPE   C36 7682   1.237   4.339   3.669  0.0281  0.2227 -0.0495
   83SOPE   H6X 7683   1.337   4.295   3.646 -0.0388 -0.5814  1.0878
   83SOPE   H6Y 7684   1.174   4.267   3.613 -1.4736  1.1145  0.4428
   83SOPE   C37 7685   1.200   4.333   3.816  0.5687  0.3685  0.4534
   83SOPE   H7X 7686   1.095   4.367   3.833  0.7107  0.5620  0.9737
   83SOPE   H7Y 7687   1.270   4.398   3.873 -0.4074  0.0457  2.0959
   83SOPE   C38 7688   1.215   4.188   3.885 -0.8458  0.0146  0.6176
   83SOPE   H8X 7689   1.323   4.166   3.870 -0.9073 -1.9999  2.6006
   83SOPE   H8Y 7690   1.147   4.120   3.830 -0.8955 -0.7402  1.5748
   83SOPE   C39 7691   1.198   4.178   4.037 -0.2546 -0.2062 -0.5703
   83SOPE   H9X 7692   1.258   4.090   4.066  2.9091  2.0305  0.2051
   83SOPE   H9Y 7693   1.088   4.164   4.046 -0.3736  1.1601  0.5549
   83SOPE  C310 7694   1.235   4.303   4.115  0.4367 -1.3313  0.5561
   83SOPE  H10X 7695   1.162   4.387   4.104  3.1593  1.0668 -0.5133
   83SOPE  H10Y 7696   1.328   4.347   4.072 -0.0570  0.9558  1.6386
   83SOPE  C311 7697   1.222   4.287   4.269 -0.0402 -0.4819 -0.2999
   83SOPE  H11X 7698   1.277   4.195   4.299  1.1311  0.5031  0.6671
   83SOPE  H11Y 7699   1.119   4.258   4.299  0.1766  0.4160  1.4903
   83SOPE  C312 7700   1.270   4.399   4.366 -0.1153  0.5756  0.2925
   83SOPE  H12X 7701   1.212   4.491   4.345  1.6599  1.2731 -2.0508
   83SOPE  H12Y 7702   1.377   4.416   4.340  0.4298 -2.6524 -0.0805
   83SOPE  C313 7703   1.240   4.359   4.515  0.0781  0.2136  0.1884
   83SOPE  H13X 7704   1.311   4.277   4.539 -0.1292  0.4774  1.7744
   83SOPE  H13Y 7705   1.136   4.322   4.526  0.4306 -0.4361  1.6316
   83SOPE  C314 7706   1.275   4.475   4.603  0.5295  0.4325 -0.4880
   83SOPE  H14X 7707   1.209   4.562   4.586 -0.5854 -0.3179 -0.0598
   83SOPE  H14Y 7708   1.376   4.518   4.586  2.0251 -1.8176  1.8272
   83SOPE  C315 7709   1.278   4.434   4.756  0.2787  0.3404  0.3976
   83SOPE  H15X 7710   1.355   4.355   4.765 -0.5460 -0.7362 -1.4957
   83SOPE  H15Y 7711   1.188   4.376   4.788  0.4146 -1.0676 -1.6001
   83SOPE  C316 7712   1.294   4.560   4.846  0.9231 -0.2370  0.1074
   83SOPE  H16X 7713   1.226   4.643   4.816  2.2952  1.2132  0.8515
   83SOPE  H16Y 7714   1.395   4.601   4.826 -0.5497  3.4293 -0.7157
   83SOPE  C317 7715   1.280   4.539   4.996 -0.1705  0.0542  0.0295
   83SOPE  H17X 7716   1.298   4.633   5.052 -1.5003 -0.2901  1.1003
   83SOPE  H17Y 7717   1.355   4.465   5.032 -0.7986 -0.2905  0.6539
   83SOPE  C318 7718   1.158   4.474   5.047  0.8805 -0.3139 -0.6582
   83SOPE  H18X 7719   1.129   4.383   4.989  0.5369  0.0928 -1.1368
   83SOPE  H18Y 7720   1.072   4.544   5.037  0.4701 -0.9569 -1.9565
   83SOPE  H18Z 7721   1.156   4.456   5.156 -1.6636  0.1171 -0.5652
   84SOPE     N 7722   4.072   1.279   7.286 -0.0315 -0.0562 -0.4381
   84SOPE   HN1 7723   3.979   1.274   7.334 -0.3319 -3.0199 -1.1213
   84SOPE   HN2 7724   4.048   1.299   7.187  0.1121 -2.2778 -0.9700
   84SOPE   HN3 7725   4.121   1.187   7.293  0.1453  0.0178 -0.6928
   84SOPE   C12 7726   4.150   1.395   7.343  0.3807 -0.2197 -0.4702
   84SOPE  H12A 7727   4.255   1.389   7.306  0.9623  0.9322  0.9305
   84SOPE  H12B 7728   4.145   1.380   7.453 -1.3819 -0.5573 -0.5710
   84SOPE   C11 7729   4.084   1.531   7.305 -0.8753  0.2086 -0.2686
   84SOPE  H11A 7730   4.124   1.551   7.204 -0.1914 -1.4605 -0.3597
   84SOPE  H11B 7731   4.125   1.605   7.377  0.0375  1.6605 -2.2141
   84SOPE     P 7732   3.865   1.681   7.299 -0.2992 -0.1337  0.0387
   84SOPE   O13 7733   3.961   1.791   7.317  0.3022 -0.0045 -0.2187
   84SOPE   O14 7734   3.754   1.677   7.394  0.1955  0.3773 -0.2859
   84SOPE   O12 7735   3.940   1.538   7.303 -0.7478 -0.3390  0.3451
   84SOPE   O11 7736   3.814   1.668   7.156 -1.0884  0.3561  0.7136
   84SOPE    C1 7737   3.879   1.595   7.054  0.2892  0.4174 -0.0858
   84SOPE    HA 7738   3.868   1.485   7.048  0.3409  0.4393 -0.7324
   84SOPE    HB 7739   3.989   1.611   7.054  0.2033  1.4752  2.6177
   84SOPE    C2 7740   3.844   1.652   6.911  0.9449 -0.1412  0.2316
   84SOPE    HS 7741   3.746   1.607   6.883  0.5186 -0.1025  1.6088
   84SOPE   O21 7742   3.950   1.617   6.823 -0.2810 -0.1173  0.4537
   84SOPE   C21 7743   3.935   1.493   6.774 -0.3038 -0.1606 -0.3652
   84SOPE   O22 7744   3.841   1.424   6.797  0.2394 -0.0328 -0.3270
   84SOPE   C22 7745   4.052   1.446   6.684 -0.2411  0.2095  0.3675
   84SOPE   H2R 7746   4.146   1.477   6.734 -0.7055  0.7584  0.9257
   84SOPE   H2S 7747   4.036   1.490   6.584  1.4024  1.1555  0.4860
   84SOPE    C3 7748   3.838   1.803   6.927  0.1349  0.5459  1.0002
   84SOPE    HX 7749   3.924   1.857   6.973  0.7653 -0.6749  1.2795
   84SOPE    HY 7750   3.754   1.835   6.992  1.1082  2.4530  1.4052
   84SOPE   O31 7751   3.816   1.858   6.790  0.0136  0.2378  0.0722
   84SOPE   C31 7752   3.876   1.974   6.761  0.6890 -0.9691 -0.4446
   84SOPE   O32 7753   3.920   2.059   6.843  0.1469  0.4069  0.9936
   84SOPE   C32 7754   3.866   1.997   6.614 -0.2486  0.1733  0.4100
   84SOPE   H2X 7755   3.935   2.082   6.593  0.2017  0.5835  3.1646
   84SOPE   H2Y 7756   3.761   2.025   6.589  0.1093  0.3167 -1.0363
   84SOPE   C23 7757   4.052   1.294   6.679 -0.4678  0.7956  0.3184
   84SOPE   H3R 7758   3.957   1.243   6.655 -0.4137  0.4045  0.9306
   84SOPE   H3S 7759   4.090   1.260   6.777  2.0495  1.2275 -0.4202
   84SOPE   C24 7760   4.138   1.241   6.566  0.0484  0.2843 -0.2902
   84SOPE   H4R 7761   4.242   1.279   6.572  0.8101 -1.5078 -1.4163
   84SOPE   H4S 7762   4.137   1.131   6.584 -1.4143  0.2173 -0.6692
   84SOPE   C25 7763   4.073   1.270   6.428  0.0080  0.7013 -0.2834
   84SOPE   H5R 7764   3.976   1.216   6.418 -0.4460  1.8309 -3.0544
   84SOPE   H5S 7765   4.069   1.377   6.399  2.2742  0.6681 -0.8986
   84SOPE   C26 7766   4.150   1.200   6.310  0.1016 -0.8068 -0.2457
   84SOPE   H6R 7767   4.085   1.220   6.222 -0.9173 -2.1843  0.1782
   84SOPE   H6S 7768   4.241   1.263   6.292  1.0189 -1.1545  2.6622
   84SOPE   C27 7769   4.196   1.051   6.330 -0.1847  0.3379  0.3407
   84SOPE   H7R 7770   4.258   1.044   6.422 -0.0692 -0.7841  0.1931
   84SOPE   H7S 7771   4.107   0.990   6.352 -0.7979  0.8762 -0.5892
   84SOPE   C28 7772   4.285   0.995   6.214  0.0869 -0.2407  0.1057
   84SOPE   H8R 7773   4.359   1.071   6.181 -0.9178  1.4059  1.4975
   84SOPE   H8S 7774   4.348   0.912   6.253 -0.1044 -0.9780 -1.0934
   84SOPE   C29 7775   4.219   0.941   6.092  0.1305 -0.9640 -0.2539
   84SOPE   H91 7776   4.163   0.847   6.108 -0.9196 -0.3227 -0.0846
   84SOPE  C210 7777   4.222   0.990   5.967 -0.5210 -0.1099  0.0594
   84SOPE  H101 7778   4.167   0.933   5.891  0.5351  0.2519 -1.0104
   84SOPE  C211 7779   4.298   1.118   5.924 -0.1320  0.0271  0.2882
   84SOPE  H11R 7780   4.408   1.110   5.921 -0.0665  1.0102 -1.5522
   84SOPE  H11S 7781   4.272   1.200   5.994 -0.4359  1.8138 -1.8240
   84SOPE  C212 7782   4.251   1.168   5.780 -0.7727  0.1278 -0.7536
   84SOPE  H12R 7783   4.142   1.187   5.774 -0.6616  1.3880  0.4712
   84SOPE  H12S 7784   4.268   1.083   5.711 -0.6628 -1.2870  0.9410
   84SOPE  C213 7785   4.326   1.296   5.741 -0.1550 -0.1327 -0.3320
   84SOPE  H13R 7786   4.436   1.292   5.761 -0.3347  0.9725  1.0314
   84SOPE  H13S 7787   4.281   1.374   5.807 -0.2109 -1.4020  1.1792
   84SOPE  C214 7788   4.297   1.337   5.602 -0.1950  0.3338  0.1806
   84SOPE  H14R 7789   4.334   1.442   5.594 -1.8853  0.9184 -0.4340
   84SOPE  H14S 7790   4.187   1.352   5.597 -0.0537  1.1667 -0.6793
   84SOPE  C215 7791   4.360   1.249   5.494  0.3330 -0.0030  0.0919
   84SOPE  H15R 7792   4.308   1.276   5.400 -1.3799 -0.7551  0.7781
   84SOPE  H15S 7793   4.365   1.140   5.517  2.5336  0.0346 -0.0194
   84SOPE  C216 7794   4.510   1.288   5.477 -0.0862 -0.2418 -0.0975
   84SOPE  H16R 7795   4.557   1.231   5.395  0.9219  1.2005 -0.5607
   84SOPE  H16S 7796   4.559   1.261   5.573  0.8207  0.8717 -0.2280
   84SOPE  C217 7797   4.547   1.433   5.434  0.0629  0.6670  0.2923
   84SOPE  H17R 7798   4.656   1.456   5.430 -0.0650  1.1511 -0.7471
   84SOPE  H17S 7799   4.506   1.509   5.503 -0.0231 -0.9986  2.1873
   84SOPE  C218 7800   4.476   1.474   5.297 -0.0065  0.1579  0.1034
   84SOPE  H18R 7801   4.491   1.383   5.236 -0.1360 -0.2080  0.6044
   84SOPE  H18S 7802   4.537   1.552   5.246  0.4828 -0.1263  0.2503
   84SOPE  H18T 7803   4.368   1.488   5.320  0.2243 -0.3592  1.6745
   84SOPE   C33 7804   3.909   1.882   6.523 -0.8361  0.1833 -0.2612
   84SOPE   H3X 7805   3.813   1.827   6.508 -2.0555  2.4155 -1.0881
   84SOPE   H3Y 7806   3.988   1.819   6.569  0.6556  0.4100 -2.3445
   84SOPE   C34 7807   3.978   1.925   6.390 -0.3353  0.1100 -0.3151
   84SOPE   H4X 7808   4.015   1.838   6.331  1.8289  1.4871 -1.1255
   84SOPE   H4Y 7809   4.064   1.991   6.411  0.0883  0.3381 -2.5192
   84SOPE   C35 7810   3.878   1.992   6.300 -0.3174  0.1254  0.5068
   84SOPE   H5X 7811   3.884   2.099   6.330  0.7013  0.4026 -0.5918
   84SOPE   H5Y 7812   3.781   1.949   6.331 -0.3289 -0.8190 -0.7446
   84SOPE   C36 7813   3.915   1.979   6.148  0.4476  0.5427 -0.4117
   84SOPE   H6X 7814   3.902   1.875   6.110  1.1528  0.4400 -0.3861
   84SOPE   H6Y 7815   4.023   2.002   6.138  0.6078 -0.5463 -1.4683
   84SOPE   C37 7816   3.836   2.077   6.065  0.1764  0.4902 -0.0495
   84SOPE   H7X 7817   3.845   2.186   6.086 -1.2749  0.3914  1.2089
   84SOPE   H7Y 7818   3.729   2.057   6.084  0.0990  1.0502  0.1141
   84SOPE   C38 7819   3.874   2.042   5.918 -0.0685  0.4149 -0.4444
   84SOPE   H8X 7820   3.845   1.936   5.902 -0.6279  0.1400  1.9408
   84SOPE   H8Y 7821   3.984   2.057   5.913  0.1432 -0.8822 -0.1091
   84SOPE   C39 7822   3.795   2.123   5.815 -0.1421 -0.3843 -0.0735
   84SOPE   H9X 7823   3.828   2.229   5.823 -0.6627 -0.0219 -2.0662
   84SOPE   H9Y 7824   3.691   2.108   5.849 -0.0736  3.0638  2.1574
   84SOPE  C310 7825   3.823   2.060   5.679 -0.1695 -0.3096 -0.2603
   84SOPE  H10X 7826   3.800   1.951   5.676  2.4855 -0.9332 -0.3810
   84SOPE  H10Y 7827   3.932   2.068   5.663 -0.3722 -0.6511 -2.0790
   84SOPE  C311 7828   3.747   2.124   5.564 -0.0218  0.5666 -0.3621
   84SOPE  H11X 7829   3.761   2.234   5.570  0.4074  0.4948 -0.0167
   84SOPE  H11Y 7830   3.637   2.115   5.574  0.0932 -2.9390 -0.9265
   84SOPE  C312 7831   3.785   2.071   5.423 -0.1960 -0.2321 -0.1781
   84SOPE  H12X 7832   3.750   1.967   5.409 -1.0575 -0.0429  0.4999
   84SOPE  H12Y 7833   3.896   2.070   5.416 -0.1156 -0.8617  0.9475
   84SOPE  C313 7834   3.732   2.159   5.312 -0.0545  0.3278 -0.1973
   84SOPE  H13X 7835   3.749   2.267   5.336  0.9951 -0.0577  0.9351
   84SOPE  H13Y 7836   3.624   2.136   5.316  0.3927 -1.8773  2.5661
   84SOPE  C314 7837   3.792   2.121   5.172 -0.4234 -0.6763 -0.1178
   84SOPE  H14X 7838   3.763   2.014   5.165  2.0424 -1.4153  0.1119
   84SOPE  H14Y 7839   3.902   2.118   5.186 -0.0610 -0.2322 -2.4739
   84SOPE  C315 7840   3.744   2.209   5.060  0.2401  0.0633  0.7191
   84SOPE  H15X 7841   3.772   2.174   4.958 -0.7814  4.1146 -1.1596
   84SOPE  H15Y 7842   3.799   2.306   5.068  0.3852 -0.0145  0.6585
   84SOPE  C316 7843   3.595   2.253   5.057 -0.1321 -0.3336  0.7137
   84SOPE  H16X 7844   3.531   2.177   5.108 -0.6589 -0.5860 -0.3069
   84SOPE  H16Y 7845   3.568   2.266   4.950 -0.9263  1.0663  1.0596
   84SOPE  C317 7846   3.568   2.392   5.123 -0.2853  0.0859 -0.2107
   84SOPE  H17X 7847   3.625   2.468   5.067  1.8625  0.5615  2.4164
   84SOPE  H17Y 7848   3.611   2.394   5.225  0.6218 -1.6060 -0.5227
   84SOPE  C318 7849   3.416   2.443   5.132  0.0849  0.1245  0.4924
   84SOPE  H18X 7850   3.360   2.372   5.196  1.2433 -0.2531  1.1140
   84SOPE  H18Y 7851   3.380   2.427   5.028  3.5179 -0.5469 -0.7311
   84SOPE  H18Z 7852   3.411   2.549   5.164 -2.0770  0.5290 -1.0272
   85SOPE     N 7853   5.786   6.077   2.894  0.0367 -0.2129  0.4206
   85SOPE   HN1 7854   5.825   6.157   2.842  0.3444  0.7718  2.0773
   85SOPE   HN2 7855   5.685   6.072   2.867 -0.0225 -0.1911  0.6326
   85SOPE   HN3 7856   5.791   6.114   2.992 -0.9117  1.1550 -0.0128
   85SOPE   C12 7857   5.861   5.947   2.891 -0.2272 -0.2966  0.1261
   85SOPE  H12A 7858   5.903   5.931   2.789  0.1512 -2.5303  0.5756
   85SOPE  H12B 7859   5.798   5.858   2.912 -1.8015  0.0402 -2.7131
   85SOPE   C11 7860   5.985   5.959   2.990  0.3602  0.2633  0.5643
   85SOPE  H11A 7861   6.042   5.865   2.973  1.6509  1.3053 -1.2310
   85SOPE  H11B 7862   5.953   5.959   3.097 -2.0454  3.5723 -0.0121
   85SOPE     P 7863   6.198   6.063   2.885  0.3645 -0.3051 -0.2099
   85SOPE   O13 7864   6.269   6.195   2.893  0.5399 -0.5288 -0.1350
   85SOPE   O14 7865   6.176   6.001   2.757  0.0805 -0.0820  0.2491
   85SOPE   O12 7866   6.056   6.078   2.956 -0.2744 -0.0097 -0.0568
   85SOPE   O11 7867   6.265   5.960   2.985  0.5080  0.3221 -0.7119
   85SOPE    C1 7868   6.341   6.004   3.100  0.3019  0.0199  0.3319
   85SOPE    HA 7869   6.295   6.099   3.136  0.5621  0.1027  0.4466
   85SOPE    HB 7870   6.447   6.020   3.074  0.4679  0.8639  1.4521
   85SOPE    C2 7871   6.320   5.893   3.213 -0.1333  0.6686 -0.3357
   85SOPE    HS 7872   6.212   5.869   3.227 -0.1412  1.4458  1.1916
   85SOPE   O21 7873   6.365   5.934   3.344  0.6174 -0.9245 -0.6795
   85SOPE   C21 7874   6.284   6.011   3.421 -0.3310 -0.4300  0.0457
   85SOPE   O22 7875   6.169   6.038   3.398  0.4575 -0.4608  0.7742
   85SOPE   C22 7876   6.367   6.051   3.545  0.1188  0.0980  0.8650
   85SOPE   H2R 7877   6.440   6.129   3.516  0.5186  0.0225  1.6280
   85SOPE   H2S 7878   6.432   5.964   3.566  0.8963  0.5222  0.2533
   85SOPE    C3 7879   6.392   5.760   3.173  0.1653 -0.8059  0.3231
   85SOPE    HX 7880   6.496   5.794   3.154 -0.5228  1.5719  0.4648
   85SOPE    HY 7881   6.356   5.713   3.079 -1.5760 -3.1922  2.0753
   85SOPE   O31 7882   6.399   5.659   3.277  0.2899  0.0285 -0.2950
   85SOPE   C31 7883   6.294   5.581   3.284  0.6705 -0.4737  0.0264
   85SOPE   O32 7884   6.200   5.589   3.206 -0.5724 -0.1124  0.4196
   85SOPE   C32 7885   6.300   5.489   3.402 -0.6567 -0.0701 -0.3614
   85SOPE   H2X 7886   6.322   5.550   3.491  1.1291  0.4574 -1.1323
   85SOPE   H2Y 7887   6.390   5.424   3.397  0.2742  1.0632  1.1570
   85SOPE   C23 7888   6.285   6.093   3.673 -0.5515 -0.1329  1.0611
   85SOPE   H3R 7889   6.206   6.017   3.695 -0.8123 -0.9749 -2.1943
   85SOPE   H3S 7890   6.226   6.185   3.656 -2.5655 -1.4290  0.6210
   85SOPE   C24 7891   6.373   6.112   3.796  0.0500 -0.2828 -0.7955
   85SOPE   H4R 7892   6.451   6.188   3.773 -0.1755 -0.4672 -2.2880
   85SOPE   H4S 7893   6.317   6.152   3.883  1.4573  0.5455 -0.2359
   85SOPE   C25 7894   6.436   5.986   3.861  0.3896  0.8348  0.1188
   85SOPE   H5R 7895   6.350   5.918   3.879 -0.3541  1.2768 -1.5868
   85SOPE   H5S 7896   6.503   5.935   3.789 -1.1427 -0.1407 -0.6532
   85SOPE   C26 7897   6.512   6.002   3.988 -0.1651  0.5081  0.4790
   85SOPE   H6R 7898   6.568   6.096   3.970 -2.1848  1.9026  1.1455
   85SOPE   H6S 7899   6.444   6.021   4.074 -4.1008 -0.5545 -2.1322
   85SOPE   C27 7900   6.606   5.880   4.036  0.0793  0.4657 -0.4768
   85SOPE   H7R 7901   6.711   5.890   4.001  1.5565 -2.3435  2.6194
   85SOPE   H7S 7902   6.618   5.873   4.146 -1.1573 -0.6544 -0.3939
   85SOPE   C28 7903   6.557   5.736   3.991 -0.3070  0.5836 -0.3863
   85SOPE   H8R 7904   6.522   5.738   3.886 -0.1938 -0.5616 -0.4557
   85SOPE   H8S 7905   6.641   5.663   3.993  0.7042  1.6975  2.0955
   85SOPE   C29 7906   6.440   5.686   4.071  0.1064  0.1647 -0.2328
   85SOPE   H91 7907   6.344   5.706   4.021  0.0990 -1.2297 -0.8116
   85SOPE  C210 7908   6.454   5.620   4.191  0.5786  0.0058  0.1177
   85SOPE  H101 7909   6.361   5.587   4.239 -0.0736  1.0327 -0.3949
   85SOPE  C211 7910   6.580   5.587   4.260  0.1061  0.4626  0.3358
   85SOPE  H11R 7911   6.566   5.616   4.366  2.0841  2.2622  0.1822
   85SOPE  H11S 7912   6.670   5.649   4.236  0.1729  0.0663 -0.4813
   85SOPE  C212 7913   6.628   5.435   4.248 -0.0639 -0.2256  0.2575
   85SOPE  H12R 7914   6.730   5.430   4.291  0.1173  0.3698 -0.0922
   85SOPE  H12S 7915   6.620   5.413   4.139 -1.8441  0.7891  0.1462
   85SOPE  C213 7916   6.539   5.334   4.329  0.2399  0.9649 -0.0053
   85SOPE  H13R 7917   6.589   5.235   4.337 -1.9460 -0.2981 -1.1671
   85SOPE  H13S 7918   6.453   5.316   4.262 -0.6827 -2.3478  1.8408
   85SOPE  C214 7919   6.486   5.388   4.466  0.6628  1.0818 -0.3409
   85SOPE  H14R 7920   6.395   5.449   4.449 -0.1420 -0.0056 -0.0214
   85SOPE  H14S 7921   6.575   5.440   4.507  1.2699  0.5641 -0.9767
   85SOPE  C215 7922   6.448   5.273   4.562 -0.0656 -0.4048  0.8302
   85SOPE  H15R 7923   6.508   5.182   4.544 -0.5477 -0.8279  1.3216
   85SOPE  H15S 7924   6.343   5.250   4.532  0.2005 -0.2363 -0.2752
   85SOPE  C216 7925   6.471   5.308   4.711  0.2320 -0.5308  0.3223
   85SOPE  H16R 7926   6.400   5.393   4.722  1.8189  1.0150 -0.8750
   85SOPE  H16S 7927   6.569   5.358   4.725  0.1961  0.3986 -2.2097
   85SOPE  C217 7928   6.430   5.189   4.804  0.3616  0.1752  0.1128
   85SOPE  H17R 7929   6.330   5.147   4.777  0.0444 -0.6900  2.3596
   85SOPE  H17S 7930   6.415   5.242   4.901  2.2378 -0.0031  0.5412
   85SOPE  C218 7931   6.532   5.073   4.822  0.3759 -0.3690 -0.0554
   85SOPE  H18R 7932   6.561   5.027   4.726  1.2340  0.6961 -0.3244
   85SOPE  H18S 7933   6.489   4.993   4.887 -1.2436 -0.8385 -1.6172
   85SOPE  H18T 7934   6.622   5.113   4.873  0.1214  1.7655 -1.1879
   85SOPE   C33 7935   6.182   5.390   3.418  0.3179  0.1438 -0.7059
   85SOPE   H3X 7936   6.164   5.332   3.325 -0.4423  0.0319 -0.4974
   85SOPE   H3Y 7937   6.087   5.444   3.437  0.8947  1.2727 -0.9444
   85SOPE   C34 7938   6.203   5.288   3.530  0.0273 -0.2082  0.5525
   85SOPE   H4X 7939   6.286   5.219   3.503  0.5761 -0.5622  2.8910
   85SOPE   H4Y 7940   6.119   5.218   3.548 -0.6249 -0.1044 -1.7525
   85SOPE   C35 7941   6.244   5.342   3.665  0.0184  0.0006 -0.8380
   85SOPE   H5X 7942   6.200   5.290   3.753  2.3182  0.0319  0.3982
   85SOPE   H5Y 7943   6.230   5.452   3.670 -1.4805  0.1328 -4.5423
   85SOPE   C36 7944   6.395   5.329   3.693 -0.2457  0.9944  0.3485
   85SOPE   H6X 7945   6.452   5.368   3.606  1.4111  3.5098  2.3597
   85SOPE   H6Y 7946   6.403   5.219   3.701  0.0112  0.8782 -1.2805
   85SOPE   C37 7947   6.442   5.399   3.823  0.2490  0.2591  0.4955
   85SOPE   H7X 7948   6.366   5.370   3.899 -1.7089 -2.7437 -2.3177
   85SOPE   H7Y 7949   6.425   5.507   3.804 -0.8172  0.4456  2.2610
   85SOPE   C38 7950   6.579   5.363   3.869  0.3006  0.2219  0.1090
   85SOPE   H8X 7951   6.619   5.427   3.951  0.7333  0.1208 -0.0230
   85SOPE   H8Y 7952   6.654   5.384   3.790  0.2192 -1.6154 -0.4988
   85SOPE   C39 7953   6.598   5.222   3.928  0.2324 -0.6752 -0.2804
   85SOPE   H9X 7954   6.564   5.145   3.856 -0.2570 -0.9966  0.2777
   85SOPE   H9Y 7955   6.539   5.223   4.023 -1.3675  2.3734 -1.1759
   85SOPE  C310 7956   6.750   5.190   3.962 -0.2738 -1.2529  0.3011
   85SOPE  H10X 7957   6.787   5.263   4.037 -2.3672 -0.8758  1.0524
   85SOPE  H10Y 7958   6.809   5.212   3.870 -1.5580 -2.2456 -0.7997
   85SOPE  C311 7959   6.764   5.048   4.012  0.8118 -0.6903 -0.1761
   85SOPE  H11X 7960   6.869   5.033   4.047  1.5679  1.7564 -1.2053
   85SOPE  H11Y 7961   6.748   4.985   3.921 -2.8641 -0.7077  0.3396
   85SOPE  C312 7962   6.668   5.004   4.122  0.2744 -0.6237  0.5881
   85SOPE  H12X 7963   6.563   5.018   4.089  0.1910 -0.1532  1.0229
   85SOPE  H12Y 7964   6.689   5.085   4.195 -0.0327 -0.5527  0.6003
   85SOPE  C313 7965   6.687   4.866   4.181 -0.0391 -0.3368 -0.1944
   85SOPE  H13X 7966   6.795   4.847   4.198 -0.4658 -1.0914  2.0185
   85SOPE  H13Y 7967   6.659   4.803   4.094  0.9294  1.1327 -1.6198
   85SOPE  C314 7968   6.618   4.851   4.311  0.1978 -0.3452  0.4656
   85SOPE  H14X 7969   6.667   4.910   4.391  1.4807 -0.2867 -0.3351
   85SOPE  H14Y 7970   6.614   4.740   4.318 -0.6930 -0.5585 -2.0413
   85SOPE  C315 7971   6.470   4.898   4.301 -0.4705  0.2775 -0.1335
   85SOPE  H15X 7972   6.416   4.853   4.215 -1.1944  1.2267 -0.1872
   85SOPE  H15Y 7973   6.469   5.007   4.281  1.5631  0.1097 -1.3242
   85SOPE  C316 7974   6.387   4.882   4.429 -0.3101  0.6594  0.5342
   85SOPE  H16X 7975   6.446   4.902   4.521 -0.4284 -1.4673  1.1354
   85SOPE  H16Y 7976   6.347   4.778   4.432 -0.2985  0.4930 -2.2440
   85SOPE  C317 7977   6.258   4.969   4.421 -0.8207  0.0836  0.0164
   85SOPE  H17X 7978   6.189   4.941   4.339 -0.1021 -1.1350 -0.2043
   85SOPE  H17Y 7979   6.295   5.073   4.413 -1.7048  0.5262  1.3290
   85SOPE  C318 7980   6.174   4.970   4.547 -0.3534  0.2649 -0.7556
   85SOPE  H18X 7981   6.076   5.018   4.526 -0.1289  0.0659 -2.4440
   85SOPE  H18Y 7982   6.219   5.031   4.628  0.6283  1.3122 -2.0381
   85SOPE  H18Z 7983   6.152   4.868   4.586 -1.1912  0.7124 -0.0315
   86SOPE     N 7984   3.423   0.335   2.961  0.0507  0.3847 -0.6145
   86SOPE   HN1 7985   3.520   0.352   2.927  0.7758 -0.7920  0.7399
   86SOPE   HN2 7986   3.414   0.386   3.051 -1.2861 -0.3121 -0.3209
   86SOPE   HN3 7987   3.403   0.234   2.976 -0.3080  0.3186 -1.4514
   86SOPE   C12 7988   3.326   0.399   2.867  0.1652  0.7011 -0.1446
   86SOPE  H12A 7989   3.227   0.391   2.917 -0.1905 -1.7646 -1.0890
   86SOPE  H12B 7990   3.319   0.335   2.777  1.3409 -0.5772  0.6344
   86SOPE   C11 7991   3.381   0.538   2.842  0.8325 -0.4095  0.5727
   86SOPE  H11A 7992   3.404   0.591   2.938  3.8803  2.4217 -1.4805
   86SOPE  H11B 7993   3.297   0.604   2.813  0.7963 -0.1849  1.1597
   86SOPE     P 7994   3.633   0.551   2.780 -0.4060  0.1074 -0.2663
   86SOPE   O13 7995   3.652   0.687   2.842  0.0983  0.4300 -0.2351
   86SOPE   O14 7996   3.716   0.520   2.663  0.2350 -0.2044  0.2204
   86SOPE   O12 7997   3.484   0.538   2.738  0.3850  0.2550  0.3892
   86SOPE   O11 7998   3.658   0.437   2.886  0.0169 -0.0223  0.5694
   86SOPE    C1 7999   3.724   0.468   3.014 -0.0863  0.5170  0.3220
   86SOPE    HA 8000   3.648   0.496   3.091  0.6590 -1.4670  1.8903
   86SOPE    HB 8001   3.789   0.556   2.997 -0.4192  0.2821 -2.5903
   86SOPE    C2 8002   3.814   0.352   3.063 -0.0871 -0.6450 -0.2357
   86SOPE    HS 8003   3.871   0.306   2.979  0.5098 -1.1447  0.4239
   86SOPE   O21 8004   3.730   0.250   3.115  0.1146  0.4657  0.0991
   86SOPE   C21 8005   3.780   0.126   3.105  0.3339  0.2961  0.6165
   86SOPE   O22 8006   3.889   0.097   3.066  0.0975 -0.4995  0.0049
   86SOPE   C22 8007   3.673   0.023   3.140  0.2048  0.2182 -0.4022
   86SOPE   H2R 8008   3.723  -0.063   3.189 -2.4077 -0.7314  0.7794
   86SOPE   H2S 8009   3.624  -0.001   3.043 -1.3334  1.2126  0.0966
   86SOPE    C3 8010   3.928   0.398   3.159  0.3781  0.3618 -0.5032
   86SOPE    HX 8011   4.004   0.448   3.097  1.0346  1.1243  0.8606
   86SOPE    HY 8012   3.975   0.312   3.212  1.3199  1.5210  0.5964
   86SOPE   O31 8013   3.887   0.497   3.252 -0.0285 -0.5468  0.2808
   86SOPE   C31 8014   3.928   0.490   3.376 -0.0194 -0.2650 -0.4837
   86SOPE   O32 8015   3.992   0.400   3.424 -0.4957  0.0007  0.6036
   86SOPE   C32 8016   3.884   0.608   3.452 -0.2794 -0.6883 -0.5943
   86SOPE   H2X 8017   3.913   0.704   3.404  1.2681  0.3653  2.1782
   86SOPE   H2Y 8018   3.936   0.616   3.550  0.1555  1.9676 -0.9690
   86SOPE   C23 8019   3.576   0.070   3.247  0.0846 -0.2749  0.4798
   86SOPE   H3R 8020   3.497  -0.005   3.268 -0.0705 -0.7575 -1.6471
   86SOPE   H3S 8021   3.533   0.160   3.198 -0.4857  0.0635  1.5603
   86SOPE   C24 8022   3.651   0.097   3.375 -0.1490 -0.6129  0.2643
   86SOPE   H4R 8023   3.713   0.013   3.412  1.6694  1.2331  1.6179
   86SOPE   H4S 8024   3.707   0.192   3.360  0.0030 -0.9112 -1.1872
   86SOPE   C25 8025   3.560   0.120   3.496 -0.4512 -0.2578  0.0770
   86SOPE   H5R 8026   3.627   0.159   3.576  2.2236 -2.6281 -0.8287
   86SOPE   H5S 8027   3.487   0.200   3.472  0.5471  0.8816  0.7097
   86SOPE   C26 8028   3.491  -0.008   3.549 -0.2675 -0.2481 -0.0844
   86SOPE   H6R 8029   3.447  -0.065   3.464 -0.0409  0.7724 -0.9088
   86SOPE   H6S 8030   3.567  -0.076   3.592  1.2676  1.5222  0.0883
   86SOPE   C27 8031   3.398   0.016   3.673  0.1812  0.6553  0.5182
   86SOPE   H7R 8032   3.460   0.059   3.755  1.5918 -0.4327  0.0690
   86SOPE   H7S 8033   3.322   0.090   3.640 -1.0772 -1.5864 -1.9749
   86SOPE   C28 8034   3.332  -0.110   3.729 -0.2826 -0.0436 -0.1043
   86SOPE   H8R 8035   3.296  -0.175   3.646  2.2085 -1.8443  0.1103
   86SOPE   H8S 8036   3.412  -0.168   3.780  0.6963  2.3770  1.2343
   86SOPE   C29 8037   3.214  -0.084   3.814  0.0095 -0.1195 -0.5005
   86SOPE   H91 8038   3.117  -0.069   3.763 -1.0153  0.9881  1.6466
   86SOPE  C210 8039   3.213  -0.071   3.948  0.0127 -0.0882 -0.1810
   86SOPE  H101 8040   3.117  -0.057   4.001  1.0831 -1.6470  2.3301
   86SOPE  C211 8041   3.325  -0.077   4.044 -0.1199  0.4241 -0.8100
   86SOPE  H11R 8042   3.311   0.007   4.116  1.2486 -1.3762  1.7020
   86SOPE  H11S 8043   3.421  -0.054   3.993 -0.0934 -1.2238 -1.5800
   86SOPE  C212 8044   3.342  -0.196   4.137 -0.4046 -0.0577  0.4442
   86SOPE  H12R 8045   3.374  -0.278   4.068  1.0717  0.9518 -0.1257
   86SOPE  H12S 8046   3.241  -0.221   4.175 -0.8909  0.6138 -0.3635
   86SOPE  C213 8047   3.440  -0.173   4.248  0.4792  0.4970  0.1657
   86SOPE  H13R 8048   3.434  -0.070   4.291 -1.8345  1.1189 -1.3952
   86SOPE  H13S 8049   3.539  -0.191   4.202  0.7959  1.1702  0.5628
   86SOPE  C214 8050   3.416  -0.271   4.361  0.6479 -0.1176  0.2225
   86SOPE  H14R 8051   3.428  -0.378   4.332 -1.1696 -0.5172  0.7864
   86SOPE  H14S 8052   3.308  -0.265   4.388  0.2014 -1.0017 -1.2591
   86SOPE  C215 8053   3.497  -0.234   4.485  0.7397  0.4225 -0.7480
   86SOPE  H15R 8054   3.485  -0.125   4.503 -1.5212  0.2487 -0.9227
   86SOPE  H15S 8055   3.604  -0.261   4.469  0.9477 -0.3271  1.5298
   86SOPE  C216 8056   3.461  -0.309   4.613 -0.1774  0.5223 -0.2044
   86SOPE  H16R 8057   3.478  -0.417   4.592 -0.7755  0.4454 -0.3178
   86SOPE  H16S 8058   3.353  -0.298   4.636  0.1326  1.5446  0.8374
   86SOPE  C217 8059   3.537  -0.268   4.735  0.1684  0.2728  0.2640
   86SOPE  H17R 8060   3.518  -0.159   4.746 -1.0079  0.2517 -1.2793
   86SOPE  H17S 8061   3.642  -0.289   4.707 -0.9788 -1.9186 -3.0436
   86SOPE  C218 8062   3.499  -0.337   4.859  0.2123 -0.4100 -0.0091
   86SOPE  H18R 8063   3.580  -0.318   4.932  0.8787 -0.7493 -0.6390
   86SOPE  H18S 8064   3.490  -0.446   4.840  0.2091 -0.5169  0.5948
   86SOPE  H18T 8065   3.403  -0.308   4.905  0.0211 -1.8720  0.5683
   86SOPE   C33 8066   3.738   0.592   3.472  1.1731  0.3228  0.1812
   86SOPE   H3X 8067   3.678   0.588   3.379  1.3706  2.0175 -0.0391
   86SOPE   H3Y 8068   3.692   0.679   3.523 -2.5006 -1.7928  0.8697
   86SOPE   C34 8069   3.706   0.476   3.571 -0.3053  0.0191 -0.1915
   86SOPE   H4X 8070   3.802   0.432   3.606 -0.5998 -0.4615  0.0253
   86SOPE   H4Y 8071   3.660   0.400   3.504  2.5821 -1.4227 -0.7064
   86SOPE   C35 8072   3.623   0.504   3.701  0.3185  0.5070  0.6271
   86SOPE   H5X 8073   3.532   0.566   3.688 -0.0313 -0.0855  0.1898
   86SOPE   H5Y 8074   3.693   0.573   3.753  1.9644 -0.3616 -0.3537
   86SOPE   C36 8075   3.591   0.372   3.779 -0.1124 -1.1143 -0.6203
   86SOPE   H6X 8076   3.683   0.311   3.765  0.9535  0.3890 -0.4302
   86SOPE   H6Y 8077   3.499   0.326   3.736 -0.5183  0.8708 -1.9975
   86SOPE   C37 8078   3.567   0.391   3.927 -0.1582 -0.3939  0.6527
   86SOPE   H7X 8079   3.471   0.443   3.947 -0.0978 -0.1150  0.2214
   86SOPE   H7Y 8080   3.658   0.426   3.982  0.6440 -2.6260  0.8552
   86SOPE   C38 8081   3.538   0.257   3.995  0.1761  0.9102 -0.5441
   86SOPE   H8X 8082   3.627   0.192   3.988  0.1448  0.5233  1.7424
   86SOPE   H8Y 8083   3.459   0.207   3.934  2.3801 -4.2923  0.2966
   86SOPE   C39 8084   3.499   0.282   4.139 -0.2429  0.0597 -0.1643
   86SOPE   H9X 8085   3.432   0.199   4.171 -0.5578  0.7015  0.8703
   86SOPE   H9Y 8086   3.443   0.376   4.155 -0.5382  0.1904 -1.8033
   86SOPE  C310 8087   3.619   0.286   4.232  0.4567 -0.4603 -0.3488
   86SOPE  H10X 8088   3.658   0.388   4.253 -0.0921 -0.5163  1.0545
   86SOPE  H10Y 8089   3.710   0.236   4.192 -0.3366 -0.4605 -2.2821
   86SOPE  C311 8090   3.580   0.221   4.368  0.4077 -0.6536 -0.2983
   86SOPE  H11X 8091   3.532   0.123   4.347 -0.3102 -0.4470  0.2959
   86SOPE  H11Y 8092   3.499   0.280   4.417 -0.1164 -0.8015 -0.9730
   86SOPE  C312 8093   3.690   0.219   4.479  0.4197 -0.4429 -0.7024
   86SOPE  H12X 8094   3.724   0.324   4.490 -0.0109 -0.1713 -1.8384
   86SOPE  H12Y 8095   3.768   0.153   4.435  2.3235  2.3196 -1.7582
   86SOPE  C313 8096   3.633   0.168   4.611  0.3132  0.4956  0.7884
   86SOPE  H13X 8097   3.576   0.074   4.600  1.0765  0.0196  0.7854
   86SOPE  H13Y 8098   3.563   0.244   4.651 -0.5536 -1.0861  2.4010
   86SOPE  C314 8099   3.745   0.144   4.715 -0.0032  0.5638  0.3830
   86SOPE  H14X 8100   3.832   0.103   4.659 -0.9917 -0.5487 -0.3969
   86SOPE  H14Y 8101   3.707   0.077   4.795 -2.3437  0.3278 -0.8369
   86SOPE  C315 8102   3.795   0.265   4.777 -1.0164  0.2252 -0.4171
   86SOPE  H15X 8103   3.714   0.322   4.826 -1.6929  1.0105 -2.3389
   86SOPE  H15Y 8104   3.850   0.330   4.705 -3.2789  0.1020 -2.3882
   86SOPE  C316 8105   3.900   0.233   4.885 -0.2521 -0.0666  0.2384
   86SOPE  H16X 8106   3.987   0.184   4.837 -0.3128 -0.1798  0.2448
   86SOPE  H16Y 8107   3.850   0.165   4.957  1.5665 -0.9470  0.7272
   86SOPE  C317 8108   3.946   0.360   4.954 -0.4174 -0.5716 -0.2677
   86SOPE  H17X 8109   3.856   0.420   4.979 -1.4489 -0.6833 -3.3102
   86SOPE  H17Y 8110   4.023   0.417   4.896 -0.7044  0.2695  0.1633
   86SOPE  C318 8111   4.005   0.321   5.091 -0.1818  0.2462  0.4322
   86SOPE  H18X 8112   4.087   0.247   5.081  0.3525  0.8742  0.0916
   86SOPE  H18Y 8113   3.923   0.271   5.148 -0.6915  1.6504  0.9829
   86SOPE  H18Z 8114   4.054   0.398   5.154  2.2292 -2.8745  2.6918
   87SOPE     N 8115   3.608   5.766   2.963 -0.3934  0.3528  0.1851
   87SOPE   HN1 8116   3.606   5.794   3.063  1.7885  2.1802 -0.2277
   87SOPE   HN2 8117   3.708   5.771   2.935 -0.4971  1.3599 -0.0414
   87SOPE   HN3 8118   3.545   5.827   2.909  0.0506  0.3019 -0.3952
   87SOPE   C12 8119   3.568   5.619   2.962  0.6513 -0.2684  0.2952
   87SOPE  H12A 8120   3.530   5.581   2.864  2.2895  0.2307 -0.5747
   87SOPE  H12B 8121   3.489   5.609   3.039  1.0945  1.5275  1.0470
   87SOPE   C11 8122   3.689   5.536   2.989 -0.1849 -0.5527 -0.4800
   87SOPE  H11A 8123   3.775   5.560   2.923 -0.1336 -0.5683 -0.4188
   87SOPE  H11B 8124   3.666   5.431   2.962  0.1421 -1.3411  1.9840
   87SOPE     P 8125   3.789   5.452   3.217  0.0151 -0.0332 -0.1546
   87SOPE   O13 8126   3.930   5.432   3.184  0.6467  0.3108 -0.9120
   87SOPE   O14 8127   3.694   5.335   3.233  0.3899 -0.2769 -0.0194
   87SOPE   O12 8128   3.725   5.556   3.121  0.2027 -0.2911  0.0976
   87SOPE   O11 8129   3.793   5.533   3.351  0.2974 -0.6596  0.7228
   87SOPE    C1 8130   3.673   5.589   3.412 -0.6353 -0.5871 -0.0784
   87SOPE    HA 8131   3.691   5.582   3.521  1.6455  2.3114 -0.1581
   87SOPE    HB 8132   3.581   5.531   3.390 -1.8865  0.9881  0.8508
   87SOPE    C2 8133   3.647   5.744   3.379 -0.2582 -0.1653 -0.0531
   87SOPE    HS 8134   3.602   5.746   3.278  1.2342 -2.2798 -0.8162
   87SOPE   O21 8135   3.771   5.824   3.390  0.0206  0.1452 -0.2060
   87SOPE   C21 8136   3.832   5.852   3.272  0.0033  0.7219 -0.3371
   87SOPE   O22 8137   3.781   5.845   3.163 -0.2969 -0.6634 -0.4205
   87SOPE   C22 8138   3.975   5.876   3.300 -0.3647  0.0005  0.5446
   87SOPE   H2R 8139   4.033   5.895   3.207  1.3847  1.2687  1.8374
   87SOPE   H2S 8140   4.022   5.789   3.351 -2.0424 -0.0661  2.0701
   87SOPE    C3 8141   3.541   5.815   3.470 -0.9512  0.3842  0.5492
   87SOPE    HX 8142   3.451   5.750   3.464 -0.5570 -0.3108  1.7479
   87SOPE    HY 8143   3.513   5.911   3.422 -2.1026  1.0532  2.4422
   87SOPE   O31 8144   3.592   5.844   3.602  0.0199  0.6549  0.2328
   87SOPE   C31 8145   3.553   5.754   3.691 -0.2432 -0.3247 -0.2948
   87SOPE   O32 8146   3.491   5.653   3.669 -0.4116  0.8017  0.2961
   87SOPE   C32 8147   3.583   5.809   3.837  0.1718 -0.2098 -0.5566
   87SOPE   H2X 8148   3.501   5.876   3.871  0.1785 -1.6597  2.5984
   87SOPE   H2Y 8149   3.678   5.866   3.842 -0.2718  0.5213 -0.1869
   87SOPE   C23 8150   3.996   5.991   3.398 -0.8240 -0.3710 -0.3494
   87SOPE   H3R 8151   3.928   5.964   3.481 -0.8510  0.4241 -0.1005
   87SOPE   H3S 8152   3.961   6.083   3.345  0.1464 -0.3280 -0.9494
   87SOPE   C24 8153   4.141   6.011   3.439 -0.2450 -0.3013 -0.4950
   87SOPE   H4R 8154   4.169   5.910   3.474 -0.4398  0.2592  1.3783
   87SOPE   H4S 8155   4.200   6.033   3.347  1.7151 -1.5852  0.3983
   87SOPE   C25 8156   4.159   6.121   3.540  0.6528  0.4275 -0.5566
   87SOPE   H5R 8157   4.265   6.153   3.553  0.4647  0.5706  0.8269
   87SOPE   H5S 8158   4.100   6.213   3.517  0.1404 -0.2353 -1.9933
   87SOPE   C26 8159   4.113   6.069   3.682  0.3005  0.4063 -0.3247
   87SOPE   H6R 8160   4.003   6.050   3.691  0.3664  0.7496  2.0617
   87SOPE   H6S 8161   4.167   5.976   3.709 -3.8328 -2.1919  0.0174
   87SOPE   C27 8162   4.146   6.178   3.790 -0.7962  0.3868  0.1423
   87SOPE   H7R 8163   4.256   6.189   3.802 -0.8373  2.9460 -1.1328
   87SOPE   H7S 8164   4.103   6.275   3.754 -1.7000 -0.6176 -1.6449
   87SOPE   C28 8165   4.073   6.158   3.924 -0.1160  0.1946  0.3011
   87SOPE   H8R 8166   4.059   6.260   3.966  1.8776  0.6738 -0.0683
   87SOPE   H8S 8167   3.972   6.121   3.899 -0.5678  1.0025  0.8716
   87SOPE   C29 8168   4.137   6.067   4.019  0.5749  0.2969 -0.6382
   87SOPE   H91 8169   4.154   5.967   3.976 -0.4858  0.6355 -1.9351
   87SOPE  C210 8170   4.154   6.096   4.150  0.5171  0.1906  0.2283
   87SOPE  H101 8171   4.210   6.022   4.210 -0.4948 -0.6511  0.1405
   87SOPE  C211 8172   4.131   6.231   4.215 -0.1673  0.3739 -0.1783
   87SOPE  H11R 8173   4.031   6.233   4.265 -0.9706  1.7433 -1.7627
   87SOPE  H11S 8174   4.113   6.317   4.147 -0.2597  0.6417  0.1804
   87SOPE  C212 8175   4.240   6.268   4.310 -0.0269  0.2441 -0.3361
   87SOPE  H12R 8176   4.227   6.371   4.350  0.8892 -0.3833  1.7106
   87SOPE  H12S 8177   4.340   6.272   4.260 -1.1638  0.9095 -2.7316
   87SOPE  C213 8178   4.268   6.183   4.435  0.0657 -1.0427 -0.6226
   87SOPE  H13R 8179   4.246   6.074   4.431  0.2820 -1.1854  1.3543
   87SOPE  H13S 8180   4.209   6.233   4.514  3.6220  0.5570  1.2480
   87SOPE  C214 8181   4.418   6.183   4.463 -0.0963 -0.1160 -0.8017
   87SOPE  H14R 8182   4.456   6.285   4.483 -0.7152 -0.4221  2.5431
   87SOPE  H14S 8183   4.466   6.130   4.377  0.5695 -0.5238 -0.1825
   87SOPE  C215 8184   4.453   6.086   4.573  0.2912 -0.6049 -0.3236
   87SOPE  H15R 8185   4.556   6.052   4.552  0.5262 -2.4507  3.0148
   87SOPE  H15S 8186   4.396   5.992   4.556 -0.5743 -0.5489  1.8681
   87SOPE  C216 8187   4.412   6.126   4.715 -0.2692 -0.1683  0.3717
   87SOPE  H16R 8188   4.316   6.181   4.718 -0.0132  0.5639 -2.3606
   87SOPE  H16S 8189   4.496   6.183   4.760 -1.3574  1.7586  0.0681
   87SOPE  C217 8190   4.408   6.013   4.810  0.0509  0.0518  0.0632
   87SOPE  H17R 8191   4.487   5.935   4.818 -0.1455 -0.2131 -0.5050
   87SOPE  H17S 8192   4.319   5.958   4.770  0.6495 -0.2648 -0.8727
   87SOPE  C218 8193   4.361   6.057   4.957 -0.1709 -0.3541  0.8909
   87SOPE  H18R 8194   4.441   6.125   4.994  1.1662 -0.5684 -1.3749
   87SOPE  H18S 8195   4.359   5.970   5.026 -0.8552 -0.3685  0.8576
   87SOPE  H18T 8196   4.268   6.117   4.956 -0.3067 -0.3397  4.4785
   87SOPE   C33 8197   3.572   5.700   3.947 -0.8580 -0.2274 -0.3533
   87SOPE   H3X 8198   3.635   5.610   3.932 -1.7102 -1.2382  1.6970
   87SOPE   H3Y 8199   3.466   5.668   3.936 -1.3028  1.3019 -0.7314
   87SOPE   C34 8200   3.588   5.752   4.093  0.0883  0.0899 -0.3208
   87SOPE   H4X 8201   3.531   5.847   4.102  0.3981  0.1316  1.5342
   87SOPE   H4Y 8202   3.694   5.782   4.104  0.5003 -0.6061 -2.0109
   87SOPE   C35 8203   3.568   5.638   4.203 -0.6482 -0.2966 -0.1441
   87SOPE   H5X 8204   3.654   5.570   4.194  0.7850  1.3832  0.3014
   87SOPE   H5Y 8205   3.475   5.585   4.173 -1.0089  0.2730 -0.0715
   87SOPE   C36 8206   3.561   5.695   4.339 -0.6413 -0.6837 -1.0402
   87SOPE   H6X 8207   3.499   5.786   4.349  0.7158  0.1504  0.2777
   87SOPE   H6Y 8208   3.662   5.716   4.380 -1.3595  1.9245 -0.4162
   87SOPE   C37 8209   3.494   5.602   4.443  0.2507  0.1154 -1.3412
   87SOPE   H7X 8210   3.543   5.503   4.463 -0.1649  0.4513  1.8888
   87SOPE   H7Y 8211   3.397   5.572   4.399 -0.1333 -0.9779  0.1522
   87SOPE   C38 8212   3.463   5.670   4.581 -0.3189 -0.1802 -0.7711
   87SOPE   H8X 8213   3.395   5.603   4.637 -0.2419 -0.2330 -0.7399
   87SOPE   H8Y 8214   3.397   5.755   4.556 -1.0577 -0.2870  0.7689
   87SOPE   C39 8215   3.578   5.715   4.677  0.4193  0.3776  0.4716
   87SOPE   H9X 8216   3.660   5.766   4.621  1.6017  0.0949  1.8564
   87SOPE   H9Y 8217   3.614   5.623   4.729 -1.1098 -0.3234  0.3197
   87SOPE  C310 8218   3.531   5.815   4.783  0.3058 -0.0702 -0.2068
   87SOPE  H10X 8219   3.481   5.905   4.742  0.8787  0.9536  1.2523
   87SOPE  H10Y 8220   3.615   5.862   4.839 -1.4663 -0.6731  3.2823
   87SOPE  C311 8221   3.447   5.742   4.887 -0.1416  0.4615  0.5771
   87SOPE  H11X 8222   3.504   5.660   4.936  0.7599 -0.0672 -1.2584
   87SOPE  H11Y 8223   3.366   5.687   4.835  0.0637 -0.1683  0.9076
   87SOPE  C312 8224   3.392   5.842   4.990 -0.2800  0.0196 -0.0559
   87SOPE  H12X 8225   3.340   5.927   4.940 -1.3499  0.2532  1.3768
   87SOPE  H12Y 8226   3.473   5.881   5.056  1.2781 -1.0185 -1.2883
   87SOPE  C313 8227   3.282   5.787   5.088  0.7225  0.0196  0.0612
   87SOPE  H13X 8228   3.199   5.754   5.022  2.3960  0.2659 -2.3022
   87SOPE  H13Y 8229   3.230   5.869   5.141  0.4236  0.6454 -1.1710
   87SOPE  C314 8230   3.328   5.698   5.208 -0.5174  0.0388  0.0773
   87SOPE  H14X 8231   3.435   5.717   5.230 -0.5880  0.8293 -0.2306
   87SOPE  H14Y 8232   3.319   5.593   5.174 -0.2532  0.2139 -0.5456
   87SOPE  C315 8233   3.261   5.733   5.338  0.6655 -0.3536  0.4775
   87SOPE  H15X 8234   3.152   5.711   5.329 -0.0484  2.8626 -0.3645
   87SOPE  H15Y 8235   3.274   5.841   5.362  1.6590  0.6706 -3.8543
   87SOPE  C316 8236   3.325   5.666   5.461 -0.5791  0.0851 -0.4272
   87SOPE  H16X 8237   3.436   5.663   5.457 -0.5554 -0.5702  0.4519
   87SOPE  H16Y 8238   3.301   5.558   5.451 -0.8711 -0.1553  2.0584
   87SOPE  C317 8239   3.284   5.707   5.602 -0.2078  0.5033  0.1993
   87SOPE  H17X 8240   3.323   5.811   5.613  1.1424 -0.1952  2.8411
   87SOPE  H17Y 8241   3.349   5.651   5.673  1.0869  0.3404 -1.0693
   87SOPE  C318 8242   3.132   5.680   5.615 -0.0090 -0.0350  0.3651
   87SOPE  H18X 8243   3.107   5.710   5.719 -1.8484 -0.2634  0.0236
   87SOPE  H18Y 8244   3.118   5.570   5.611 -0.3324  0.0284 -0.7790
   87SOPE  H18Z 8245   3.070   5.732   5.538  0.3179  0.7608  0.6320
   88SOPE     N 8246   4.694   1.325   2.480  0.6892 -0.6852 -0.0349
   88SOPE   HN1 8247   4.686   1.248   2.411  0.6395 -2.3656  1.7750
   88SOPE   HN2 8248   4.613   1.321   2.545  1.9021  2.8087  1.9667
   88SOPE   HN3 8249   4.707   1.422   2.445  1.7940 -1.0650 -0.7185
   88SOPE   C12 8250   4.811   1.302   2.575 -0.2609  0.6886 -0.2783
   88SOPE  H12A 8251   4.905   1.345   2.533  1.1835 -0.5789  1.5227
   88SOPE  H12B 8252   4.830   1.193   2.583  0.8276  1.0008  2.0649
   88SOPE   C11 8253   4.789   1.362   2.711  0.4430  0.2447  0.1163
   88SOPE  H11A 8254   4.870   1.337   2.783  0.4126 -3.2667 -0.8891
   88SOPE  H11B 8255   4.701   1.313   2.757  1.3884 -0.1961  1.5315
   88SOPE     P 8256   4.889   1.605   2.703  0.3100  0.3441 -0.0061
   88SOPE   O13 8257   4.838   1.726   2.754  0.0891 -0.2174 -0.8610
   88SOPE   O14 8258   4.958   1.602   2.567 -0.1493 -0.4226  0.1977
   88SOPE   O12 8259   4.768   1.502   2.710 -0.3209 -0.0264  0.1819
   88SOPE   O11 8260   4.994   1.555   2.807 -0.1298 -0.3867 -0.1677
   88SOPE    C1 8261   4.975   1.574   2.948  0.8631 -0.7963 -0.1499
   88SOPE    HA 8262   4.871   1.550   2.979  0.9327  0.8834  1.6039
   88SOPE    HB 8263   4.996   1.681   2.970  2.1995 -0.6539 -1.8876
   88SOPE    C2 8264   5.092   1.495   3.019 -0.2266  0.8487  0.3776
   88SOPE    HS 8265   5.064   1.389   3.005 -0.5017  0.9349  0.2706
   88SOPE   O21 8266   5.094   1.540   3.156 -0.4181  0.4899  0.1637
   88SOPE   C21 8267   5.111   1.439   3.242  0.2630 -0.3140 -0.7702
   88SOPE   O22 8268   5.106   1.321   3.209  0.4438 -0.2245 -0.0171
   88SOPE   C22 8269   5.123   1.498   3.380  0.5841 -0.2007  0.1148
   88SOPE   H2R 8270   5.034   1.559   3.403 -0.7967 -2.2713  0.5568
   88SOPE   H2S 8271   5.217   1.557   3.375 -0.8185  2.1224 -0.1621
   88SOPE    C3 8272   5.228   1.519   2.947 -0.3554 -0.5377  0.1429
   88SOPE    HX 8273   5.233   1.628   2.928 -2.9078 -0.2939  0.5718
   88SOPE    HY 8274   5.224   1.465   2.850 -2.2740  2.4166 -1.5813
   88SOPE   O31 8275   5.351   1.499   3.025  0.6030  0.4713 -0.4364
   88SOPE   C31 8276   5.391   1.379   3.027  0.5163  0.7940  0.0921
   88SOPE   O32 8277   5.348   1.289   2.959  0.6495 -0.5127  0.7315
   88SOPE   C32 8278   5.507   1.349   3.125 -0.4468  0.1087 -0.8443
   88SOPE   H2X 8279   5.533   1.440   3.183 -0.3894 -0.8640  0.7045
   88SOPE   H2Y 8280   5.599   1.310   3.078 -1.2427 -0.6864 -1.7926
   88SOPE   C23 8281   5.146   1.385   3.486  0.3808 -0.4149  0.3881
   88SOPE   H3R 8282   5.170   1.430   3.585  0.3903 -0.1125  0.2489
   88SOPE   H3S 8283   5.243   1.336   3.462 -0.3889 -1.2755 -1.1140
   88SOPE   C24 8284   5.026   1.293   3.508  0.3727 -0.3332 -0.1975
   88SOPE   H4R 8285   4.935   1.356   3.510 -0.3185 -1.3460  1.3611
   88SOPE   H4S 8286   5.017   1.223   3.422  1.2474 -0.3260 -0.3114
   88SOPE   C25 8287   5.035   1.216   3.640  0.3752  0.3228 -0.2537
   88SOPE   H5R 8288   4.949   1.146   3.646 -0.4805  1.4736  2.2927
   88SOPE   H5S 8289   5.120   1.145   3.629  0.7563  0.8522 -0.7736
   88SOPE   C26 8290   5.035   1.289   3.771  0.0288 -0.3428 -0.3031
   88SOPE   H6R 8291   4.961   1.372   3.777  0.7293  0.4841 -2.1876
   88SOPE   H6S 8292   5.009   1.213   3.847 -2.9277 -0.1658 -1.0188
   88SOPE   C27 8293   5.169   1.323   3.827 -0.3403  0.2652 -0.3354
   88SOPE   H7R 8294   5.239   1.237   3.824  1.8844  1.8016  2.7675
   88SOPE   H7S 8295   5.216   1.402   3.764  0.9787  0.8485  1.3305
   88SOPE   C28 8296   5.167   1.386   3.966 -0.2792  0.1318 -0.1932
   88SOPE   H8R 8297   5.122   1.486   3.943 -0.6786  0.3500  1.4056
   88SOPE   H8S 8298   5.101   1.329   4.035 -1.0333  1.4362  0.2123
   88SOPE   C29 8299   5.299   1.409   4.042  0.4092  0.2122 -0.1222
   88SOPE   H91 8300   5.347   1.507   4.037 -1.8846  1.4170  0.1524
   88SOPE  C210 8301   5.349   1.325   4.134  0.4362  0.1046 -0.0033
   88SOPE  H101 8302   5.446   1.355   4.176  0.0421  0.0210  0.9963
   88SOPE  C211 8303   5.293   1.187   4.152  0.5055  1.1667  1.0593
   88SOPE  H11R 8304   5.380   1.121   4.171  0.0383  0.1959 -0.0800
   88SOPE  H11S 8305   5.251   1.149   4.057  1.8671 -1.0267  1.2706
   88SOPE  C212 8306   5.190   1.184   4.263 -0.4535  0.3669  0.3017
   88SOPE  H12R 8307   5.122   1.097   4.248  0.3860 -0.1873 -0.3836
   88SOPE  H12S 8308   5.127   1.275   4.266 -0.3819  0.4136  3.5974
   88SOPE  C213 8309   5.248   1.161   4.401 -0.1541  0.3062  0.3369
   88SOPE  H13R 8310   5.329   1.234   4.420 -1.0229  1.4600 -0.2876
   88SOPE  H13S 8311   5.287   1.057   4.406  0.3179  0.3598 -1.5516
   88SOPE  C214 8312   5.139   1.169   4.508  0.1671 -0.0156 -0.0455
   88SOPE  H14R 8313   5.056   1.099   4.482 -0.9491  0.6746  1.5233
   88SOPE  H14S 8314   5.089   1.268   4.504  0.7252  0.2821  0.3034
   88SOPE  C215 8315   5.182   1.149   4.648 -0.0787 -0.5513 -0.0260
   88SOPE  H15R 8316   5.257   1.229   4.666 -0.8142  0.3480 -0.8849
   88SOPE  H15S 8317   5.237   1.052   4.651  0.7218 -0.0910  0.7967
   88SOPE  C216 8318   5.064   1.148   4.750 -0.6774 -0.4695  0.0356
   88SOPE  H16R 8319   4.986   1.081   4.708 -0.8815 -0.0490 -0.2751
   88SOPE  H16S 8320   5.026   1.253   4.756 -1.5051 -0.6998 -0.8937
   88SOPE  C217 8321   5.105   1.117   4.895  0.9376  0.7156  0.2805
   88SOPE  H17R 8322   5.185   1.186   4.930  1.1731  1.4414 -1.6069
   88SOPE  H17S 8323   5.144   1.013   4.891  3.5058  1.6028  0.1140
   88SOPE  C218 8324   4.987   1.123   4.989  0.8312  0.2283 -0.0889
   88SOPE  H18R 8325   5.015   1.079   5.087  1.2139  0.5001 -0.0743
   88SOPE  H18S 8326   4.898   1.072   4.948  0.1441  1.9976 -0.8980
   88SOPE  H18T 8327   4.956   1.226   5.013 -2.6783 -0.5095 -0.9785
   88SOPE   C33 8328   5.461   1.245   3.227  0.0574  0.5684  0.3346
   88SOPE   H3X 8329   5.472   1.142   3.188  0.2447  0.4935  0.5832
   88SOPE   H3Y 8330   5.350   1.236   3.237  0.0497 -0.1016 -0.2951
   88SOPE   C34 8331   5.516   1.260   3.363 -0.4741  0.0287 -0.0180
   88SOPE   H4X 8332   5.478   1.354   3.409 -0.8357  0.2305 -0.7261
   88SOPE   H4Y 8333   5.627   1.256   3.355 -0.5720 -1.8966 -0.9621
   88SOPE   C35 8334   5.481   1.139   3.458 -0.6109  0.4369 -0.1288
   88SOPE   H5X 8335   5.528   1.048   3.416 -2.9331 -0.4592 -0.9193
   88SOPE   H5Y 8336   5.375   1.116   3.479 -0.2079 -1.5772 -0.1177
   88SOPE   C36 8337   5.557   1.164   3.591 -0.2047 -0.1025 -0.6100
   88SOPE   H6X 8338   5.531   1.259   3.642  1.1073 -1.1363  2.1379
   88SOPE   H6Y 8339   5.666   1.174   3.573 -0.0395  0.3543  0.5992
   88SOPE   C37 8340   5.541   1.052   3.697 -0.0696  0.1659  0.6871
   88SOPE   H7X 8341   5.593   0.960   3.663 -1.3922 -0.4200  0.1527
   88SOPE   H7Y 8342   5.432   1.033   3.705 -0.4067  0.8084 -1.6116
   88SOPE   C38 8343   5.599   1.092   3.835  0.6273  1.0631  0.1275
   88SOPE   H8X 8344   5.549   1.184   3.872 -0.9435  0.7237 -1.0860
   88SOPE   H8Y 8345   5.706   1.121   3.827  0.6491  2.0541  2.8291
   88SOPE   C39 8346   5.586   0.982   3.935 -0.2714  0.1207 -0.5738
   88SOPE   H9X 8347   5.598   0.878   3.896 -3.3388 -2.2924  4.0042
   88SOPE   H9Y 8348   5.479   0.975   3.966 -0.2870 -1.8312 -0.9504
   88SOPE  C310 8349   5.665   1.008   4.056 -0.7403 -0.1466 -0.1095
   88SOPE  H10X 8350   5.675   1.113   4.090  0.6108  0.3976 -2.0192
   88SOPE  H10Y 8351   5.767   0.973   4.028 -0.5502  0.6533 -0.4608
   88SOPE  C311 8352   5.635   0.923   4.181 -0.2315 -0.1598 -0.2458
   88SOPE  H11X 8353   5.652   0.813   4.179 -1.0581 -0.2995  0.1977
   88SOPE  H11Y 8354   5.525   0.912   4.187 -0.1912 -1.2351 -1.1833
   88SOPE  C312 8355   5.692   0.969   4.316 -0.3459  0.7599 -0.5330
   88SOPE  H12X 8356   5.636   1.057   4.355  0.9948  1.0225  0.9086
   88SOPE  H12Y 8357   5.795   1.007   4.300 -0.0474  1.6617  2.8467
   88SOPE  C313 8358   5.690   0.868   4.427  0.0351 -0.0710 -0.5708
   88SOPE  H13X 8359   5.740   0.775   4.390 -0.2055  0.3491 -2.0212
   88SOPE  H13Y 8360   5.587   0.837   4.454  0.5528  0.0318  1.6805
   88SOPE  C314 8361   5.768   0.924   4.548  0.4516 -0.2648  0.2247
   88SOPE  H14X 8362   5.719   1.012   4.594  0.1823 -0.3384  0.0773
   88SOPE  H14Y 8363   5.864   0.962   4.506 -0.4559  1.8775 -0.0294
   88SOPE  C315 8364   5.802   0.804   4.637  0.0520  0.0404 -0.9748
   88SOPE  H15X 8365   5.831   0.704   4.601 -2.9591 -0.9944 -0.8194
   88SOPE  H15Y 8366   5.712   0.780   4.699  1.2973 -1.4320  0.3522
   88SOPE  C316 8367   5.915   0.844   4.745  0.1294 -0.0791 -0.1463
   88SOPE  H16X 8368   5.913   0.955   4.750  2.6133  0.0390 -0.2767
   88SOPE  H16Y 8369   6.014   0.820   4.701 -0.1829 -1.8085  0.0262
   88SOPE  C317 8370   5.884   0.780   4.883  0.7308  0.2139 -0.1792
   88SOPE  H17X 8371   5.797   0.834   4.926 -0.4759 -1.5394 -0.3304
   88SOPE  H17Y 8372   5.970   0.802   4.951  0.3868 -0.7225  0.5909
   88SOPE  C318 8373   5.863   0.624   4.877 -0.2238  0.2096 -0.0637
   88SOPE  H18X 8374   5.780   0.603   4.807 -0.7487  2.5549 -0.2178
   88SOPE  H18Y 8375   5.839   0.586   4.979 -0.0229  2.1787  0.7748
   88SOPE  H18Z 8376   5.948   0.564   4.837  0.4746 -0.1676  1.8356
   89SAPC     N 8377   5.956   2.237   7.649  0.1138  0.2927  0.5668
   89SAPC   C12 8378   5.873   2.363   7.669  0.2951 -0.3854 -0.7059
   89SAPC  H12A 8379   5.924   2.443   7.719 -2.9043  0.7446  0.9973
   89SAPC  H12B 8380   5.781   2.349   7.723 -0.9653  2.6368 -1.8450
   89SAPC   C13 8381   5.994   2.184   7.783 -0.5342 -0.0409 -0.4756
   89SAPC  H13A 8382   6.046   2.257   7.843 -3.0712  1.5520 -0.0623
   89SAPC  H13B 8383   5.904   2.152   7.833 -1.5791  0.0965 -2.2025
   89SAPC  H13C 8384   6.056   2.096   7.783  0.3970  0.5921 -0.8780
   89SAPC   C14 8385   5.878   2.122   7.591 -0.1060  0.0981  0.6750
   89SAPC  H14A 8386   5.821   2.080   7.672 -0.7361  0.9575  0.6957
   89SAPC  H14B 8387   5.813   2.157   7.512  2.3838 -0.3577 -1.7154
   89SAPC  H14C 8388   5.948   2.055   7.544  0.4510 -0.1575  1.8243
   89SAPC   C15 8389   6.080   2.272   7.561  0.5872  0.0308  0.0687
   89SAPC  H15A 8390   6.155   2.328   7.614  2.4280 -2.0178 -0.2085
   89SAPC  H15B 8391   6.124   2.180   7.526  0.3462  0.4476 -1.4149
   89SAPC  H15C 8392   6.059   2.328   7.471  0.7616  0.9732  0.6057
   89SAPC   C11 8393   5.837   2.422   7.531 -0.4872 -0.7829 -0.1054
   89SAPC  H11A 8394   5.925   2.467   7.480 -2.0299  0.9050 -1.4324
   89SAPC  H11B 8395   5.769   2.509   7.546 -2.7453 -2.8401  2.7547
   89SAPC     P 8396   5.781   2.363   7.279  0.1005  0.2833 -0.0641
   89SAPC   O13 8397   5.915   2.316   7.255 -0.0532  0.2967  0.2572
   89SAPC   O14 8398   5.666   2.306   7.201  0.1862 -0.3679  0.6531
   89SAPC   O12 8399   5.764   2.339   7.435 -0.1056 -0.4300 -0.3330
   89SAPC   O11 8400   5.776   2.520   7.260 -0.2346 -0.1399 -0.6265
   89SAPC    C1 8401   5.642   2.569   7.296 -0.1218 -0.1532 -0.2546
   89SAPC    HA 8402   5.566   2.528   7.226  0.5532 -0.1129 -1.0173
   89SAPC    HB 8403   5.615   2.559   7.404  0.5899 -0.8679 -0.1313
   89SAPC    C2 8404   5.637   2.727   7.272 -0.4436  0.3640 -0.2570
   89SAPC    HS 8405   5.529   2.751   7.267 -0.3692  0.6228 -0.7651
   89SAPC   O21 8406   5.699   2.768   7.139 -0.5978  0.1401  0.1185
   89SAPC   C21 8407   5.670   2.700   7.035 -0.2757  0.7318  1.4170
   89SAPC   O22 8408   5.565   2.637   7.021 -0.5984  0.0018  0.3863
   89SAPC   C22 8409   5.777   2.730   6.928  0.5444  0.2536 -0.1397
   89SAPC   H2R 8410   5.721   2.773   6.842  2.3262 -0.4939 -1.7731
   89SAPC   H2S 8411   5.856   2.800   6.963  1.0182  0.2485 -1.1607
   89SAPC    C3 8412   5.716   2.796   7.384  0.1582  0.0203  0.2860
   89SAPC    HX 8413   5.816   2.749   7.387  0.2171  0.1077 -0.1721
   89SAPC    HY 8414   5.661   2.777   7.478 -0.4702  2.6920  0.5622
   89SAPC   O31 8415   5.717   2.937   7.362  0.1359 -0.0790  0.4513
   89SAPC   C31 8416   5.814   2.991   7.294  0.1453  0.3440 -0.5881
   89SAPC   O32 8417   5.925   2.945   7.268 -0.2971 -0.3106  0.0828
   89SAPC   C32 8418   5.758   3.126   7.253  0.0446  0.0987  0.3331
   89SAPC   H2X 8419   5.806   3.205   7.315 -0.5853  0.6841  0.0834
   89SAPC   H2Y 8420   5.650   3.143   7.267  0.2847  5.0101 -1.7952
   89SAPC   C23 8421   5.851   2.609   6.879 -0.6739  0.2983 -0.7785
   89SAPC   H3R 8422   5.916   2.582   6.965 -1.7061 -0.5041 -0.2138
   89SAPC   H3S 8423   5.922   2.618   6.794  0.9826  1.5551  0.6708
   89SAPC   C24 8424   5.763   2.494   6.850 -0.5256  0.1436 -0.0929
   89SAPC   H4R 8425   5.721   2.456   6.946  0.4142  0.3165  0.4074
   89SAPC   H4S 8426   5.833   2.413   6.821 -0.4010 -0.9709  2.9457
   89SAPC   C25 8427   5.657   2.528   6.740 -0.4403  0.1334 -0.8814
   89SAPC   H5R 8428   5.588   2.608   6.773 -0.6597 -0.0479 -0.8999
   89SAPC   C26 8429   5.641   2.466   6.621  0.3920  0.6514 -0.4358
   89SAPC   H6R 8430   5.569   2.505   6.547 -0.8065  0.3802  0.5605
   89SAPC   C27 8431   5.733   2.361   6.571  0.2015  1.0853  0.0434
   89SAPC   H7R 8432   5.672   2.298   6.503  0.6484  0.5474  0.1361
   89SAPC   H7S 8433   5.766   2.285   6.645  0.9861  1.5935  0.2233
   89SAPC   C28 8434   5.845   2.434   6.503 -0.1881 -0.0532  0.1180
   89SAPC   H8R 8435   5.885   2.519   6.561 -2.4615  0.6874  0.7047
   89SAPC   C29 8436   5.902   2.401   6.383  0.9590 -0.9506  0.1875
   89SAPC   H9R 8437   5.972   2.470   6.333  0.4685 -1.3853 -1.1453
   89SAPC  C210 8438   5.873   2.282   6.288 -0.3367  0.9612 -0.5107
   89SAPC  H10R 8439   5.865   2.182   6.334  4.6067  0.6752  0.3282
   89SAPC  H10S 8440   5.963   2.277   6.222 -0.3100 -1.8976 -0.3401
   89SAPC  C211 8441   5.753   2.317   6.206  0.4500  0.2901 -0.8531
   89SAPC  H11R 8442   5.665   2.334   6.270 -0.2757  1.6810 -2.1410
   89SAPC  C212 8443   5.743   2.329   6.073 -0.0053  0.1897  0.2939
   89SAPC  H12R 8444   5.647   2.366   6.035 -0.1993  2.0534  2.3966
   89SAPC  C213 8445   5.848   2.320   5.971 -0.3672  0.2515  0.1166
   89SAPC  H13R 8446   5.929   2.256   6.015 -0.5164 -0.6514 -0.8823
   89SAPC  H13S 8447   5.882   2.424   5.952 -0.1811  0.2285  0.3086
   89SAPC  C214 8448   5.808   2.243   5.844  0.1730 -0.2807 -0.1458
   89SAPC  H14R 8449   5.707   2.199   5.848  0.1819 -0.4493 -1.3130
   89SAPC  C215 8450   5.877   2.231   5.733 -0.1396  0.5382 -0.7173
   89SAPC  H15R 8451   5.830   2.187   5.643  1.6800  0.2756 -1.5973
   89SAPC  C216 8452   6.008   2.297   5.711 -0.2997  0.4524  0.5121
   89SAPC  H16R 8453   6.070   2.220   5.661 -1.8727 -0.2362 -0.4539
   89SAPC  H16S 8454   6.053   2.324   5.809 -1.4420  1.5062  0.7674
   89SAPC  C217 8455   6.000   2.432   5.632 -0.1680  0.0012  0.1626
   89SAPC  H17R 8456   6.100   2.479   5.623 -0.3967  0.6407  0.8679
   89SAPC  H17S 8457   5.933   2.501   5.688 -2.9841  0.3515 -3.2964
   89SAPC  C218 8458   5.952   2.405   5.486 -0.6211 -0.2156 -1.1804
   89SAPC  H18R 8459   5.849   2.362   5.488 -0.5701 -0.2945  0.1553
   89SAPC  H18S 8460   6.021   2.329   5.444  1.0271  0.5173  0.1109
   89SAPC  C219 8461   5.941   2.522   5.389  0.7868  0.7717 -0.7034
   89SAPC  H19R 8462   6.030   2.588   5.400  1.0136  0.1948  1.3892
   89SAPC  H19S 8463   5.852   2.587   5.408  0.8253  1.3409 -2.2933
   89SAPC  C220 8464   5.924   2.475   5.251  0.0288  0.1327 -0.1532
   89SAPC  H20R 8465   5.896   2.557   5.181 -1.5347  0.4882  0.8303
   89SAPC  H20S 8466   5.845   2.399   5.236  0.9315 -0.8523 -0.0906
   89SAPC  H20T 8467   6.016   2.428   5.210 -0.9791  0.5511 -3.1554
   89SAPC   C33 8468   5.770   3.150   7.105 -0.1203 -0.1531  0.1281
   89SAPC   H3X 8469   5.683   3.216   7.086  0.2606  0.0563 -0.9458
   89SAPC   H3Y 8470   5.740   3.053   7.059  1.0957  0.0191 -1.0837
   89SAPC   C34 8471   5.898   3.208   7.045 -0.5977 -0.0689 -0.6408
   89SAPC   H4X 8472   5.986   3.153   7.084 -0.3392  0.9540  0.2507
   89SAPC   H4Y 8473   5.912   3.312   7.081 -2.2759 -0.6486  1.9690
   89SAPC   C35 8474   5.914   3.199   6.888 -0.7874 -0.8012  0.2206
   89SAPC   H5X 8475   5.830   3.244   6.831  1.4877 -0.6413 -3.3315
   89SAPC   H5Y 8476   5.923   3.094   6.854  1.0348  0.0878 -2.3753
   89SAPC   C36 8477   6.047   3.265   6.839  0.0744  0.2190 -0.4004
   89SAPC   H6X 8478   6.132   3.226   6.899  0.5159  1.3160 -0.2752
   89SAPC   H6Y 8479   6.036   3.373   6.864 -2.1570 -0.5606  2.4729
   89SAPC   C37 8480   6.061   3.230   6.693 -0.1287 -0.7283 -0.1504
   89SAPC   H7X 8481   5.964   3.261   6.649 -0.7050  2.7373  3.1213
   89SAPC   H7Y 8482   6.062   3.119   6.682 -0.9296 -0.6295 -1.3497
   89SAPC   C38 8483   6.185   3.278   6.626 -0.1567 -0.7162  0.1779
   89SAPC   H8X 8484   6.270   3.269   6.697  1.4926 -0.7028 -1.7133
   89SAPC   H8Y 8485   6.157   3.385   6.609 -3.1106 -1.4720 -0.3130
   89SAPC   C39 8486   6.205   3.212   6.487 -0.2647  0.5914  0.1918
   89SAPC   H9X 8487   6.253   3.113   6.501 -0.0320  0.6780  0.0160
   89SAPC   H9Y 8488   6.282   3.275   6.436  1.4815 -1.5339  0.0633
   89SAPC  C310 8489   6.075   3.203   6.394 -0.0865 -0.8046 -0.6355
   89SAPC  H10X 8490   6.010   3.290   6.415  0.9450 -0.5114  1.6567
   89SAPC  H10Y 8491   6.008   3.118   6.422 -2.5348  1.6314  1.4375
   89SAPC  C311 8492   6.098   3.186   6.242 -0.5073  0.7089 -1.0208
   89SAPC  H11X 8493   6.143   3.088   6.214 -3.7825 -1.8789  1.7873
   89SAPC  H11Y 8494   6.170   3.266   6.215  1.2478  0.6739  2.9266
   89SAPC  C312 8495   5.969   3.213   6.169  0.1259 -0.0342 -0.0607
   89SAPC  H12X 8496   5.918   3.310   6.185 -0.5418 -0.4795  0.5883
   89SAPC  H12Y 8497   5.900   3.129   6.194  2.6621 -2.7555 -1.5949
   89SAPC  C313 8498   5.995   3.214   6.019  0.5761  0.6411  0.3422
   89SAPC  H13X 8499   5.897   3.191   5.971  0.7786 -3.0005  1.3543
   89SAPC  H13Y 8500   6.073   3.139   5.994  3.3432  3.1675  0.8530
   89SAPC  C314 8501   6.031   3.357   5.965 -0.8975  0.2537 -0.1159
   89SAPC  H14X 8502   6.069   3.423   6.046 -2.3763 -0.2791  1.0591
   89SAPC  H14Y 8503   5.944   3.413   5.925 -0.9161  1.0976  1.0753
   89SAPC  C315 8504   6.137   3.356   5.851  0.5984 -0.7908 -0.3753
   89SAPC  H15X 8505   6.237   3.319   5.885  0.5981 -0.0947  0.4024
   89SAPC  H15Y 8506   6.152   3.460   5.815  1.5317 -0.5851  0.5505
   89SAPC  C316 8507   6.075   3.284   5.730 -0.5068 -0.5840  0.0244
   89SAPC  H16X 8508   5.965   3.300   5.724 -0.1144  2.7565 -0.0481
   89SAPC  H16Y 8509   6.082   3.173   5.734 -2.8286 -0.7652  0.5524
   89SAPC  C317 8510   6.127   3.343   5.595  0.9879 -0.0223 -0.0804
   89SAPC  H17X 8511   6.098   3.270   5.517 -1.0557 -1.9239  2.2788
   89SAPC  H17Y 8512   6.234   3.366   5.615  0.4015  1.0276  2.1845
   89SAPC  C318 8513   6.046   3.473   5.564 -0.2494  0.3756  0.5801
   89SAPC  H18X 8514   6.089   3.529   5.478  0.9448  1.7497  2.0239
   89SAPC  H18Y 8515   6.053   3.537   5.654 -2.5847 -0.2709  1.2745
   89SAPC  H18Z 8516   5.941   3.441   5.549  0.1419  0.1044 -2.2291
   90SAPC     N 8517   4.724   4.239   7.857 -0.6003  0.0801  0.4780
   90SAPC   C12 8518   4.819   4.212   7.742  0.1628  0.5201  0.8327
   90SAPC  H12A 8519   4.774   4.130   7.689 -0.3949  0.4683  1.3629
   90SAPC  H12B 8520   4.911   4.171   7.780  0.4220  1.3261  1.0979
   90SAPC   C13 8521   4.584   4.272   7.816 -0.2104 -0.0699  0.8378
   90SAPC  H13A 8522   4.528   4.190   7.775 -3.4580  0.4824  3.7608
   90SAPC  H13B 8523   4.525   4.308   7.898  0.1624 -0.5308  1.3165
   90SAPC  H13C 8524   4.582   4.345   7.736 -1.8571 -1.3558 -0.3652
   90SAPC   C14 8525   4.719   4.108   7.942 -0.3134 -0.6958 -0.1844
   90SAPC  H14A 8526   4.663   4.116   8.034 -0.9429 -0.4640 -0.5835
   90SAPC  H14B 8527   4.699   4.020   7.882  2.4559 -0.3086 -1.8270
   90SAPC  H14C 8528   4.818   4.077   7.972 -0.7250 -1.5748  0.3099
   90SAPC   C15 8529   4.770   4.349   7.947  0.8890 -0.9124  0.2363
   90SAPC  H15A 8530   4.696   4.356   8.025 -1.1621 -2.3573 -1.4734
   90SAPC  H15B 8531   4.870   4.332   7.984  0.5163 -0.0170  1.7436
   90SAPC  H15C 8532   4.782   4.435   7.883 -0.1305 -0.6191  0.4244
   90SAPC   C11 8533   4.856   4.338   7.650 -0.2768  0.1107  0.2830
   90SAPC  H11A 8534   4.763   4.374   7.601 -0.4302  0.6252  0.9286
   90SAPC  H11B 8535   4.930   4.307   7.573 -2.0454  1.9497 -2.2999
   90SAPC     P 8536   5.071   4.457   7.747 -0.0752  0.6913 -0.0868
   90SAPC   O13 8537   5.094   4.592   7.800  0.3555  1.1668  0.7211
   90SAPC   O14 8538   5.108   4.343   7.831 -0.2023 -0.1612 -0.0053
   90SAPC   O12 8539   4.916   4.453   7.722  0.7089  0.5845 -0.0062
   90SAPC   O11 8540   5.143   4.449   7.604 -0.1228 -0.0860 -0.2981
   90SAPC    C1 8541   5.153   4.564   7.516 -0.1324 -0.1021  1.1388
   90SAPC    HA 8542   5.185   4.654   7.573 -1.9144  1.5163 -0.3008
   90SAPC    HB 8543   5.234   4.547   7.441 -0.8271  2.5268 -0.3338
   90SAPC    C2 8544   5.021   4.593   7.448  0.0566  0.0404  0.9101
   90SAPC    HS 8545   4.939   4.617   7.519 -1.7159 -1.4095 -0.5509
   90SAPC   O21 8546   4.991   4.488   7.354 -0.3552  0.7901  0.6432
   90SAPC   C21 8547   4.866   4.472   7.331  0.5172 -0.1102  0.2753
   90SAPC   O22 8548   4.766   4.530   7.377  0.1928 -0.2569 -0.3225
   90SAPC   C22 8549   4.845   4.359   7.232  0.0792  0.4172  0.6716
   90SAPC   H2R 8550   4.932   4.292   7.220 -1.2889 -1.5180  0.9845
   90SAPC   H2S 8551   4.763   4.297   7.275  0.5683  0.1763  1.2610
   90SAPC    C3 8552   5.034   4.722   7.354 -1.0202  0.4165  0.8038
   90SAPC    HX 8553   5.019   4.806   7.425 -3.6020  0.8686 -0.2003
   90SAPC    HY 8554   4.945   4.728   7.288  0.1800  0.6669 -0.8589
   90SAPC   O31 8555   5.158   4.727   7.264  0.4410 -0.5482  0.0881
   90SAPC   C31 8556   5.234   4.834   7.285  0.1946 -0.4155 -0.2581
   90SAPC   O32 8557   5.221   4.904   7.386 -0.1120  0.1342 -0.0764
   90SAPC   C32 8558   5.342   4.857   7.169  0.6190  0.3717 -1.1188
   90SAPC   H2X 8559   5.440   4.808   7.190 -0.1715 -0.6615  0.2831
   90SAPC   H2Y 8560   5.370   4.964   7.162  0.4733  0.6988  1.9806
   90SAPC   C23 8561   4.785   4.399   7.099  0.5161 -0.1105  0.3259
   90SAPC   H3R 8562   4.699   4.459   7.136  1.4626  0.6479  1.3825
   90SAPC   H3S 8563   4.748   4.311   7.043 -1.0443  1.1449 -0.7393
   90SAPC   C24 8564   4.869   4.492   7.009  0.0718 -0.5547 -1.0340
   90SAPC   H4R 8565   4.893   4.585   7.065  1.8135 -1.2141 -0.6323
   90SAPC   H4S 8566   4.793   4.537   6.942 -0.4540 -1.9691 -1.4166
   90SAPC   C25 8567   4.991   4.435   6.951 -0.3736  0.3234 -0.4003
   90SAPC   H5R 8568   5.045   4.386   7.033 -0.3069  2.2771  0.7639
   90SAPC   C26 8569   5.017   4.410   6.820 -0.3128 -0.3603  1.0677
   90SAPC   H6R 8570   5.111   4.358   6.794  0.3323  0.5715  1.4608
   90SAPC   C27 8571   4.932   4.450   6.703  0.3081 -0.4748 -0.0128
   90SAPC   H7R 8572   4.891   4.548   6.735  0.6430 -1.2177  2.9703
   90SAPC   H7S 8573   4.842   4.386   6.695  1.1071 -1.4946 -1.1546
   90SAPC   C28 8574   5.005   4.469   6.567  0.2709 -0.1554  0.3105
   90SAPC   H8R 8575   5.095   4.532   6.562  0.3410 -0.3675 -2.5297
   90SAPC   C29 8576   4.961   4.433   6.452  0.2863  0.1031  0.3622
   90SAPC   H9R 8577   5.025   4.454   6.364 -0.0777  1.1561  0.3367
   90SAPC  C210 8578   4.835   4.362   6.411 -0.3570  0.0041  0.4703
   90SAPC  H10R 8579   4.768   4.438   6.366  1.0843 -0.1683 -2.1594
   90SAPC  H10S 8580   4.793   4.320   6.505 -1.0288 -2.7919 -1.0076
   90SAPC  C211 8581   4.858   4.246   6.319  0.3386  0.2623  0.0989
   90SAPC  H11R 8582   4.939   4.179   6.351  0.3006  0.7333  1.2052
   90SAPC  C212 8583   4.801   4.232   6.195  0.3002 -0.0208 -0.2032
   90SAPC  H12R 8584   4.826   4.145   6.132 -0.5703  1.4808 -2.7938
   90SAPC  C213 8585   4.700   4.329   6.133 -0.0560  0.2073  0.3411
   90SAPC  H13R 8586   4.743   4.424   6.097  1.1250  0.9830  3.4872
   90SAPC  H13S 8587   4.628   4.352   6.214  0.0820  2.2384 -0.0825
   90SAPC  C214 8588   4.625   4.279   6.011 -0.1272  0.1383 -0.4437
   90SAPC  H14R 8589   4.524   4.238   6.026  0.2112 -0.7571 -0.5268
   90SAPC  C215 8590   4.666   4.285   5.886  0.0576  0.5026  0.7543
   90SAPC  H15R 8591   4.595   4.251   5.809 -0.0466  1.1745  0.5453
   90SAPC  C216 8592   4.794   4.340   5.816  0.7018 -0.1366  0.0732
   90SAPC  H16R 8593   4.868   4.374   5.892  0.6868 -1.3454  0.6484
   90SAPC  H16S 8594   4.770   4.426   5.751  0.4588 -0.9526 -0.9421
   90SAPC  C217 8595   4.850   4.248   5.711 -0.1831 -0.4146  0.3512
   90SAPC  H17R 8596   4.867   4.154   5.768 -1.5694 -0.0315  1.4808
   90SAPC  H17S 8597   4.943   4.299   5.680 -0.1156 -0.5196  0.3820
   90SAPC  C218 8598   4.755   4.233   5.588  0.2772 -0.0173 -0.4212
   90SAPC  H18R 8599   4.704   4.332   5.581  4.0905  2.0868 -1.4836
   90SAPC  H18S 8600   4.686   4.148   5.606  0.4148 -0.8044 -3.1041
   90SAPC  C219 8601   4.820   4.199   5.458  0.0733  0.5877  0.2529
   90SAPC  H19R 8602   4.918   4.253   5.454 -0.1114  1.0829  1.7310
   90SAPC  H19S 8603   4.759   4.229   5.371  0.2504  2.1022  0.6177
   90SAPC  C220 8604   4.847   4.050   5.444  0.4241  0.2255  0.2250
   90SAPC  H20R 8605   4.896   4.034   5.346 -0.5843 -3.5262  0.1950
   90SAPC  H20S 8606   4.749   3.998   5.443 -0.5812  2.0347 -0.0689
   90SAPC  H20T 8607   4.905   4.004   5.528 -1.3179  0.5783  1.6855
   90SAPC   C33 8608   5.290   4.805   7.034  0.4773 -0.0508  0.3586
   90SAPC   H3X 8609   5.190   4.852   7.022  0.0101 -0.9656  0.5238
   90SAPC   H3Y 8610   5.272   4.695   7.036 -1.0075  0.1299 -0.8095
   90SAPC   C34 8611   5.363   4.855   6.910 -0.6687 -0.2397 -0.6789
   90SAPC   H4X 8612   5.472   4.840   6.924 -0.6947 -1.9461 -1.9477
   90SAPC   H4Y 8613   5.348   4.963   6.889  0.5095  0.0287 -0.1801
   90SAPC   C35 8614   5.318   4.781   6.783  0.1818  0.3788 -0.0980
   90SAPC   H5X 8615   5.207   4.773   6.785  0.0859  1.2466  2.6549
   90SAPC   H5Y 8616   5.360   4.679   6.792 -0.8277 -0.2735 -2.2066
   90SAPC   C36 8617   5.374   4.849   6.661  0.7867 -0.2630  0.0202
   90SAPC   H6X 8618   5.484   4.834   6.652  0.4928 -1.6916 -1.7580
   90SAPC   H6Y 8619   5.345   4.956   6.666 -1.5075 -0.6423 -2.7285
   90SAPC   C37 8620   5.311   4.799   6.523  0.5785  0.5690 -0.1355
   90SAPC   H7X 8621   5.204   4.829   6.517 -0.0705 -1.7791 -1.4689
   90SAPC   H7Y 8622   5.299   4.689   6.534  1.4792  0.6145  1.6690
   90SAPC   C38 8623   5.397   4.836   6.405  0.0084 -0.1315 -0.0747
   90SAPC   H8X 8624   5.492   4.779   6.414 -0.7027 -1.0826  2.0914
   90SAPC   H8Y 8625   5.411   4.946   6.404 -1.6472  0.1050 -0.0379
   90SAPC   C39 8626   5.334   4.808   6.267  0.3082  0.3511  0.5122
   90SAPC   H9X 8627   5.226   4.834   6.262 -0.8029 -2.9339  3.3518
   90SAPC   H9Y 8628   5.322   4.699   6.248  0.6911  0.3450  0.2950
   90SAPC  C310 8629   5.423   4.875   6.158  0.3478 -0.2140 -0.0935
   90SAPC  H10X 8630   5.525   4.833   6.147 -0.8226 -3.1216 -0.8206
   90SAPC  H10Y 8631   5.418   4.986   6.165  0.0728 -0.1239 -1.4465
   90SAPC  C311 8632   5.375   4.849   6.015  0.8765  0.5658  0.1490
   90SAPC  H11X 8633   5.446   4.884   5.936 -1.1816 -0.2033 -2.1826
   90SAPC  H11Y 8634   5.278   4.901   6.001  1.3362  1.2187 -0.7415
   90SAPC  C312 8635   5.357   4.701   5.983  0.3046 -0.6908  0.4572
   90SAPC  H12X 8636   5.266   4.659   6.031  0.5951 -2.3976 -0.3807
   90SAPC  H12Y 8637   5.447   4.648   6.023  1.9730  1.6701  0.0259
   90SAPC  C313 8638   5.347   4.677   5.827  0.4178 -0.0166 -0.1257
   90SAPC  H13X 8639   5.375   4.767   5.770  2.5752 -0.1428  0.6342
   90SAPC  H13Y 8640   5.244   4.644   5.798  0.9788 -0.1731 -2.0641
   90SAPC  C314 8641   5.459   4.581   5.771  0.4353 -0.1936 -0.6142
   90SAPC  H14X 8642   5.462   4.478   5.812 -0.2904 -0.6400 -1.6346
   90SAPC  H14Y 8643   5.560   4.619   5.800  0.9219 -2.1626  0.4516
   90SAPC  C315 8644   5.445   4.558   5.619  0.0241 -0.0171 -0.3540
   90SAPC  H15X 8645   5.530   4.495   5.584  1.4937  0.6963  1.6888
   90SAPC  H15Y 8646   5.459   4.658   5.574  1.7336  0.1690  0.4928
   90SAPC  C316 8647   5.308   4.509   5.564  0.1089  0.4393 -0.5451
   90SAPC  H16X 8648   5.242   4.595   5.541 -1.7115 -0.4325  1.1022
   90SAPC  H16Y 8649   5.264   4.435   5.634 -0.6576  0.9201 -0.5066
   90SAPC  C317 8650   5.326   4.428   5.437  0.5668 -0.4769  0.2521
   90SAPC  H17X 8651   5.377   4.336   5.474 -1.9873 -1.5699  1.2965
   90SAPC  H17Y 8652   5.397   4.478   5.368  1.9578 -1.4640  0.8955
   90SAPC  C318 8653   5.196   4.392   5.375  0.4663 -0.2715  0.7475
   90SAPC  H18X 8654   5.125   4.362   5.455 -2.2848  2.4202 -0.4821
   90SAPC  H18Y 8655   5.201   4.311   5.300 -0.1815  0.3153  0.0574
   90SAPC  H18Z 8656   5.155   4.481   5.323  0.9169 -0.7330 -0.4356
   91SAPC     N 8657   2.905   6.287   7.973  0.0994 -0.4072 -0.2819
   91SAPC   C12 8658   3.053   6.273   8.005  0.2535  0.2836  0.3763
   91SAPC  H12A 8659   3.082   6.170   7.994  0.0449  0.3334 -0.7959
   91SAPC  H12B 8660   3.065   6.299   8.109  0.1912 -2.2152  1.0544
   91SAPC   C13 8661   2.828   6.237   8.086 -0.0475  0.5327 -0.5261
   91SAPC  H13A 8662   2.725   6.221   8.058 -0.2515 -0.7342  0.7802
   91SAPC  H13B 8663   2.869   6.140   8.110  1.6176  1.1983 -0.5629
   91SAPC  H13C 8664   2.811   6.305   8.168 -0.9421  0.7820 -0.9052
   91SAPC   C14 8665   2.869   6.430   7.970 -0.7482  0.2136  0.2682
   91SAPC  H14A 8666   2.763   6.441   7.984 -0.8182  0.2083 -0.2534
   91SAPC  H14B 8667   2.936   6.480   8.040  0.3464  0.0164 -0.6125
   91SAPC  H14C 8668   2.913   6.468   7.879 -0.4789 -3.1478 -1.1246
   91SAPC   C15 8669   2.871   6.224   7.846 -0.2225 -0.7239 -0.1462
   91SAPC  H15A 8670   2.874   6.117   7.858  1.9839 -0.6916  0.0527
   91SAPC  H15B 8671   2.774   6.246   7.804 -0.5240 -0.3692  0.7183
   91SAPC  H15C 8672   2.939   6.247   7.765 -0.6352  1.3271  0.0367
   91SAPC   C11 8673   3.156   6.371   7.930  0.0962  0.4901  0.0474
   91SAPC  H11A 8674   3.258   6.354   7.971 -0.3954  2.1186  2.0865
   91SAPC  H11B 8675   3.119   6.469   7.965 -1.4138  0.7739 -2.1228
   91SAPC     P 8676   3.129   6.476   7.693 -0.0001 -0.1942  0.0992
   91SAPC   O13 8677   3.021   6.569   7.735 -0.0863 -0.0734  0.1755
   91SAPC   O14 8678   3.262   6.525   7.671 -0.2402 -0.5939  0.1060
   91SAPC   O12 8679   3.134   6.349   7.787  0.1937 -0.3661  0.2447
   91SAPC   O11 8680   3.092   6.411   7.547  0.0904 -0.7092  0.0228
   91SAPC    C1 8681   3.048   6.500   7.440  0.0027 -0.2705 -0.6623
   91SAPC    HA 8682   2.953   6.454   7.405 -1.4241  1.7261  0.3914
   91SAPC    HB 8683   3.022   6.601   7.479  0.8737 -0.0280 -0.6947
   91SAPC    C2 8684   3.155   6.512   7.330 -0.4800  0.1736 -0.5096
   91SAPC    HS 8685   3.108   6.562   7.243  0.1401 -0.0656 -0.9939
   91SAPC   O21 8686   3.217   6.384   7.296  0.1460 -0.4031 -0.0074
   91SAPC   C21 8687   3.135   6.308   7.217 -0.3689 -0.7513 -0.5680
   91SAPC   O22 8688   3.025   6.346   7.190  0.2222  0.5473  0.3175
   91SAPC   C22 8689   3.222   6.199   7.156  0.2093 -0.0307  0.0461
   91SAPC   H2R 8690   3.291   6.249   7.085  0.5775 -1.5005 -0.6857
   91SAPC   H2S 8691   3.278   6.148   7.237 -2.5580 -0.5817  1.7632
   91SAPC    C3 8692   3.268   6.609   7.372 -0.9038  0.0117 -0.6231
   91SAPC    HX 8693   3.337   6.556   7.441 -0.9583 -0.5298 -0.9795
   91SAPC    HY 8694   3.230   6.702   7.420  0.1456  0.0287  0.2158
   91SAPC   O31 8695   3.345   6.659   7.258  0.3394  0.4434  0.3185
   91SAPC   C31 8696   3.457   6.595   7.234 -0.0284  0.0310  0.6364
   91SAPC   O32 8697   3.518   6.527   7.316 -0.2364  0.2133  0.2416
   91SAPC   C32 8698   3.493   6.612   7.089 -0.1559  0.3125  0.1687
   91SAPC   H2X 8699   3.602   6.591   7.079  0.1935  2.0050  0.0568
   91SAPC   H2Y 8700   3.486   6.721   7.067  2.2984  0.6060  0.5630
   91SAPC   C23 8701   3.131   6.095   7.078  0.0530  0.3975  0.5410
   91SAPC   H3R 8702   3.039   6.067   7.133  1.7806 -1.3474  2.7444
   91SAPC   H3S 8703   3.195   6.004   7.072  1.0781  1.0657  1.0324
   91SAPC   C24 8704   3.097   6.146   6.938 -0.5981  0.0154  0.3855
   91SAPC   H4R 8705   3.186   6.204   6.905  1.5070 -0.0263  5.1967
   91SAPC   H4S 8706   3.009   6.214   6.945 -0.3122  0.6612 -1.4831
   91SAPC   C25 8707   3.070   6.030   6.847 -0.3706 -0.3111  0.3034
   91SAPC   H5R 8708   2.992   5.959   6.879 -0.3752 -0.3659  0.1717
   91SAPC   C26 8709   3.120   6.028   6.721 -0.3257  0.3210 -0.9389
   91SAPC   H6R 8710   3.109   5.939   6.657  1.9276 -2.5064  2.2363
   91SAPC   C27 8711   3.222   6.123   6.655 -0.5514  0.4855 -0.2003
   91SAPC   H7R 8712   3.297   6.050   6.617 -2.5698  0.1887 -4.0842
   91SAPC   H7S 8713   3.282   6.186   6.725  0.9935  0.7333 -1.6674
   91SAPC   C28 8714   3.165   6.209   6.547  0.4855 -0.4317  0.0858
   91SAPC   H8R 8715   3.093   6.285   6.578 -0.6087 -0.5124 -2.0865
   91SAPC   C29 8716   3.191   6.205   6.418  0.8143  0.2396 -0.2968
   91SAPC   H9R 8717   3.165   6.292   6.355 -0.2765  0.7280  0.8055
   91SAPC  C210 8718   3.272   6.103   6.351 -0.4664  0.1195  0.3632
   91SAPC  H10R 8719   3.205   6.029   6.302  0.1498  0.7217 -1.4550
   91SAPC  H10S 8720   3.333   6.047   6.424  1.1685 -0.0998 -1.1127
   91SAPC  C211 8721   3.369   6.162   6.251 -0.1689  0.5101  0.5230
   91SAPC  H11R 8722   3.429   6.246   6.290 -0.1426  0.6342  0.2182
   91SAPC  C212 8723   3.358   6.161   6.111 -0.0911  0.2212 -0.1396
   91SAPC  H12R 8724   3.436   6.206   6.048 -0.2977  0.8412  0.0427
   91SAPC  C213 8725   3.269   6.074   6.030  0.1666 -0.1824 -0.1201
   91SAPC  H13R 8726   3.283   5.970   6.067  1.5801  0.0698  0.0873
   91SAPC  H13S 8727   3.318   6.068   5.931  0.6845 -1.4721  0.2020
   91SAPC  C214 8728   3.133   6.133   6.034  0.3324  0.3953 -0.0419
   91SAPC  H14R 8729   3.087   6.140   6.134  2.6005  2.7577  0.9464
   91SAPC  C215 8730   3.065   6.173   5.923 -0.6024  0.0698  0.1532
   91SAPC  H15R 8731   2.969   6.227   5.926  0.3757  2.0102 -1.2411
   91SAPC  C216 8732   3.118   6.162   5.785  0.0742  0.1010  0.0734
   91SAPC  H16R 8733   3.146   6.057   5.760 -0.2150  0.0362  0.0222
   91SAPC  H16S 8734   3.205   6.231   5.780  0.2872  0.1060  2.6038
   91SAPC  C217 8735   3.018   6.220   5.690  0.2816  0.3743 -0.0173
   91SAPC  H17R 8736   3.029   6.331   5.692  3.0075  0.1651  0.8644
   91SAPC  H17S 8737   2.913   6.188   5.706  0.5551  0.2666  1.8129
   91SAPC  C218 8738   3.051   6.197   5.541 -0.4588  0.4326  1.1425
   91SAPC  H18R 8739   3.161   6.197   5.524 -0.4850  0.6969  0.9641
   91SAPC  H18S 8740   2.994   6.272   5.482 -0.4353 -1.0197 -0.8377
   91SAPC  C219 8741   2.996   6.065   5.482 -0.0962 -0.5832  0.0143
   91SAPC  H19R 8742   2.886   6.075   5.487 -0.2350 -2.2801  2.4585
   91SAPC  H19S 8743   3.021   5.982   5.553 -0.8202 -2.1794 -1.5170
   91SAPC  C220 8744   3.029   6.022   5.344  0.3397  0.2757  0.0456
   91SAPC  H20R 8745   3.108   5.944   5.348  0.4091  0.3387 -0.0868
   91SAPC  H20S 8746   3.072   6.107   5.288  1.2002  1.3859  2.2755
   91SAPC  H20T 8747   2.936   5.987   5.294  1.3897 -0.0281 -1.7980
   91SAPC   C33 8748   3.411   6.541   6.977  0.5324 -0.2261  0.0219
   91SAPC   H3X 8749   3.307   6.581   6.985 -0.3067 -2.3933  0.5607
   91SAPC   H3Y 8750   3.397   6.432   6.990  0.4540 -0.3996 -1.3940
   91SAPC   C34 8751   3.466   6.589   6.843  0.7264  0.5440  0.4254
   91SAPC   H4X 8752   3.568   6.544   6.843 -0.2241 -1.7742 -0.3011
   91SAPC   H4Y 8753   3.477   6.699   6.842  2.7058  0.4082 -1.8546
   91SAPC   C35 8754   3.385   6.537   6.723  0.1241  0.2235 -0.0946
   91SAPC   H5X 8755   3.291   6.594   6.737 -0.4673 -0.1102 -2.3036
   91SAPC   H5Y 8756   3.358   6.430   6.735 -3.2714  1.1011  1.0994
   91SAPC   C36 8757   3.446   6.570   6.592  0.2520 -0.7193 -0.4722
   91SAPC   H6X 8758   3.542   6.514   6.595 -0.1562 -1.3724  2.3085
   91SAPC   H6Y 8759   3.478   6.677   6.589  2.0572 -1.2066  0.0367
   91SAPC   C37 8760   3.365   6.541   6.470 -0.0403 -0.1501 -0.4495
   91SAPC   H7X 8761   3.273   6.601   6.480  0.5412  0.5164  1.5120
   91SAPC   H7Y 8762   3.345   6.432   6.482  0.7712 -0.3979 -1.2805
   91SAPC   C38 8763   3.438   6.579   6.342 -0.9056 -0.2684 -0.0654
   91SAPC   H8X 8764   3.538   6.531   6.340 -0.3095  0.5148  3.4095
   91SAPC   H8Y 8765   3.490   6.676   6.352 -0.5670 -0.5251  0.8622
   91SAPC   C39 8766   3.359   6.568   6.217  0.1828 -0.2880  0.4919
   91SAPC   H9X 8767   3.311   6.666   6.200  0.8965  0.1905  1.1781
   91SAPC   H9Y 8768   3.288   6.485   6.235  1.5044 -1.3600  0.9623
   91SAPC  C310 8769   3.429   6.534   6.086  0.5016  0.1495  0.2940
   91SAPC  H10X 8770   3.505   6.457   6.113  0.4983  0.0927  0.1426
   91SAPC  H10Y 8771   3.475   6.627   6.047 -2.0249  0.8403 -1.2905
   91SAPC  C311 8772   3.327   6.488   5.985 -0.4270  0.3083  0.2988
   91SAPC  H11X 8773   3.245   6.562   5.975  0.0116  0.5292 -2.2541
   91SAPC  H11Y 8774   3.280   6.398   6.030  1.7410 -2.4724 -2.5741
   91SAPC  C312 8775   3.377   6.447   5.844  0.5637  0.2095 -0.4593
   91SAPC  H12X 8776   3.368   6.336   5.838 -0.5981  0.2790 -0.3561
   91SAPC  H12Y 8777   3.484   6.475   5.840  0.3979  0.8189 -0.6870
   91SAPC  C313 8778   3.297   6.512   5.738  0.0364 -0.1507  0.2256
   91SAPC  H13X 8779   3.291   6.622   5.753 -0.2597 -0.0213 -0.7659
   91SAPC  H13Y 8780   3.195   6.471   5.755  0.7709 -2.5744 -0.8665
   91SAPC  C314 8781   3.346   6.488   5.594 -0.6059 -0.4452 -0.0144
   91SAPC  H14X 8782   3.355   6.378   5.579 -1.5409 -0.4396 -0.6830
   91SAPC  H14Y 8783   3.446   6.533   5.580 -0.2459 -0.2263  2.6736
   91SAPC  C315 8784   3.264   6.563   5.484 -0.2660 -0.1733 -0.0531
   91SAPC  H15X 8785   3.260   6.670   5.515  1.8254  0.0436 -0.3726
   91SAPC  H15Y 8786   3.162   6.521   5.473  0.2034 -1.4417  0.2938
   91SAPC  C316 8787   3.323   6.569   5.341 -0.1669  0.0089 -0.6561
   91SAPC  H16X 8788   3.411   6.503   5.328  0.0854 -0.2394  1.7685
   91SAPC  H16Y 8789   3.358   6.664   5.295 -0.2404 -0.7197 -2.2927
   91SAPC  C317 8790   3.223   6.506   5.238  0.1697 -0.1474  0.1972
   91SAPC  H17X 8791   3.139   6.579   5.235  1.7077  1.6810 -0.0019
   91SAPC  H17Y 8792   3.189   6.406   5.273 -3.3656  0.8541  0.1139
   91SAPC  C318 8793   3.287   6.481   5.102 -0.7624  0.2599  0.2039
   91SAPC  H18X 8794   3.215   6.424   5.040 -1.0967  0.1369  0.7032
   91SAPC  H18Y 8795   3.377   6.416   5.114  0.3377  1.9004  1.2870
   91SAPC  H18Z 8796   3.322   6.578   5.061  2.5086 -0.5753  0.7356
   92SAPC     N 8797   2.419   5.423   8.047 -0.3082  0.2413  0.1455
   92SAPC   C12 8798   2.514   5.437   7.929 -0.5784 -0.0814 -0.7498
   92SAPC  H12A 8799   2.505   5.540   7.898 -3.5949 -0.2133 -0.6226
   92SAPC  H12B 8800   2.480   5.375   7.847 -0.7554  0.2567 -0.9334
   92SAPC   C13 8801   2.290   5.466   8.010 -0.1100  0.1832  0.7615
   92SAPC  H13A 8802   2.252   5.392   7.941  0.9432 -0.4124  0.8028
   92SAPC  H13B 8803   2.221   5.462   8.094 -0.5459 -0.5667  0.3774
   92SAPC  H13C 8804   2.299   5.568   7.976  1.4542 -0.0819  0.3039
   92SAPC   C14 8805   2.402   5.279   8.074 -0.0363 -1.2612 -0.6211
   92SAPC  H14A 8806   2.494   5.251   8.121 -0.1727  1.5792  1.6350
   92SAPC  H14B 8807   2.334   5.258   8.155  1.3991 -0.5457  0.8109
   92SAPC  H14C 8808   2.385   5.222   7.983 -0.0213 -0.5301 -1.0956
   92SAPC   C15 8809   2.461   5.495   8.163  0.1263 -0.1951  0.2783
   92SAPC  H15A 8810   2.462   5.599   8.135 -2.1506 -0.2402 -0.2030
   92SAPC  H15B 8811   2.389   5.489   8.244  0.5100  0.0446  0.6429
   92SAPC  H15C 8812   2.556   5.457   8.199 -0.2564 -0.3475  1.1600
   92SAPC   C11 8813   2.658   5.407   7.970 -0.4542 -0.3036  0.3107
   92SAPC  H11A 8814   2.663   5.300   8.002 -2.7170 -0.9833 -1.3049
   92SAPC  H11B 8815   2.684   5.461   8.064  0.4732 -2.5331  1.4216
   92SAPC     P 8816   2.790   5.575   7.803 -0.2209 -0.1847  0.1350
   92SAPC   O13 8817   2.668   5.630   7.737  0.2148 -0.1683 -0.8756
   92SAPC   O14 8818   2.854   5.667   7.901  0.1567 -0.1378 -0.0620
   92SAPC   O12 8819   2.751   5.434   7.859  0.3512  0.0868 -0.1606
   92SAPC   O11 8820   2.897   5.548   7.686 -0.2752 -0.2235  0.4465
   92SAPC    C1 8821   2.875   5.427   7.607 -0.0104  0.7147 -0.3591
   92SAPC    HA 8822   2.903   5.336   7.664  0.6033  0.9054 -0.3477
   92SAPC    HB 8823   2.770   5.420   7.572 -0.7432 -0.8322  1.9138
   92SAPC    C2 8824   2.950   5.423   7.468 -0.1641  0.2012 -0.6436
   92SAPC    HS 8825   3.053   5.406   7.505 -1.0280 -2.5376  0.7457
   92SAPC   O21 8826   2.931   5.540   7.393 -0.0335  0.3261 -0.5430
   92SAPC   C21 8827   3.006   5.566   7.290  0.1252 -0.3690  0.3889
   92SAPC   O22 8828   3.097   5.498   7.248  0.2431  0.5758  0.1186
   92SAPC   C22 8829   2.954   5.697   7.230  0.6331 -0.4461 -0.0624
   92SAPC   H2R 8830   2.843   5.700   7.226  0.6107 -0.8196  0.2179
   92SAPC   H2S 8831   2.971   5.786   7.294 -0.5625  1.4679 -2.2536
   92SAPC    C3 8832   2.906   5.299   7.386 -0.1995 -0.2712 -0.4796
   92SAPC    HX 8833   2.912   5.216   7.460 -0.8902  1.3356  1.4945
   92SAPC    HY 8834   2.972   5.277   7.300 -1.0116  0.2019 -1.2434
   92SAPC   O31 8835   2.762   5.308   7.344  0.0309 -0.7460 -0.4622
   92SAPC   C31 8836   2.732   5.326   7.218 -0.7310  0.6251 -0.3246
   92SAPC   O32 8837   2.822   5.342   7.131  0.4489 -0.2100 -0.6585
   92SAPC   C32 8838   2.584   5.312   7.200 -0.3542 -0.1677  0.4535
   92SAPC   H2X 8839   2.533   5.364   7.284 -1.1824  0.9110 -0.6780
   92SAPC   H2Y 8840   2.566   5.203   7.207 -1.7838 -0.1938 -2.2458
   92SAPC   C23 8841   3.014   5.717   7.092  0.3683 -0.4739 -0.2363
   92SAPC   H3R 8842   3.122   5.740   7.105  0.0077 -0.3188  4.0066
   92SAPC   H3S 8843   2.978   5.819   7.066  0.8490 -0.4551 -0.8441
   92SAPC   C24 8844   3.001   5.620   6.975 -0.0830 -0.5324  0.3983
   92SAPC   H4R 8845   3.044   5.520   6.997  0.6209  0.0184  1.6512
   92SAPC   H4S 8846   3.061   5.652   6.888 -0.7071 -1.1479 -0.2750
   92SAPC   C25 8847   2.856   5.612   6.942 -0.1548  0.1727  0.3489
   92SAPC   H5R 8848   2.795   5.555   7.013 -1.5256 -1.5118 -2.0550
   92SAPC   C26 8849   2.804   5.650   6.819 -0.5896 -0.1042  0.1767
   92SAPC   H6R 8850   2.696   5.638   6.803 -1.0086  0.3050  2.3623
   92SAPC   C27 8851   2.875   5.718   6.710  0.9080  0.0407 -0.5300
   92SAPC   H7R 8852   2.882   5.642   6.629  0.0505 -0.0325 -0.5413
   92SAPC   H7S 8853   2.973   5.761   6.740  1.5197 -1.0247 -0.9497
   92SAPC   C28 8854   2.804   5.844   6.657  0.4156  0.6268  0.3342
   92SAPC   H8R 8855   2.760   5.907   6.737 -1.3730 -0.3472  0.1789
   92SAPC   C29 8856   2.812   5.901   6.536 -0.5771 -0.0408  1.1343
   92SAPC   H9R 8857   2.759   5.995   6.515  0.2962  0.4089  0.9309
   92SAPC  C210 8858   2.879   5.837   6.413  0.0192  0.2987  0.1864
   92SAPC  H10R 8859   2.967   5.775   6.441 -0.8517 -0.8286  0.5305
   92SAPC  H10S 8860   2.915   5.915   6.344  0.9281 -2.5065 -2.7419
   92SAPC  C211 8861   2.785   5.735   6.348  0.8451 -0.7220  0.0521
   92SAPC  H11R 8862   2.759   5.645   6.407  0.6755 -0.1649  0.8372
   92SAPC  C212 8863   2.742   5.735   6.217  0.6309  0.5918 -1.1401
   92SAPC  H12R 8864   2.668   5.658   6.189  0.4980  0.0475  0.6205
   92SAPC  C213 8865   2.760   5.833   6.114 -0.5311  0.1361 -0.1555
   92SAPC  H13R 8866   2.772   5.931   6.166  2.0633  0.8257 -1.8667
   92SAPC  H13S 8867   2.669   5.855   6.055 -0.9971  0.4479  0.6647
   92SAPC  C214 8868   2.887   5.800   6.033 -0.4137 -0.2214  0.4650
   92SAPC  H14R 8869   2.975   5.772   6.092 -1.7201 -2.9503  1.2847
   92SAPC  C215 8870   2.886   5.795   5.897 -0.2029 -0.7856 -0.8236
   92SAPC  H15R 8871   2.978   5.770   5.843 -1.0213 -3.4217 -1.1287
   92SAPC  C216 8872   2.768   5.816   5.804  0.4020  0.5425 -0.1161
   92SAPC  H16R 8873   2.762   5.924   5.779 -1.1327  0.4695 -0.1436
   92SAPC  H16S 8874   2.668   5.799   5.848 -0.4767  0.7987 -1.9606
   92SAPC  C217 8875   2.795   5.738   5.679  0.1395  0.0998  0.0979
   92SAPC  H17R 8876   2.847   5.642   5.701 -1.0031 -0.7464 -0.7504
   92SAPC  H17S 8877   2.853   5.801   5.608 -1.2554 -0.5420 -1.7004
   92SAPC  C218 8878   2.659   5.698   5.616 -1.3828  0.2067 -0.1950
   92SAPC  H18R 8879   2.599   5.790   5.599 -1.3816  0.4851  1.2356
   92SAPC  H18S 8880   2.599   5.631   5.681  2.4561 -2.0550  1.3442
   92SAPC  C219 8881   2.686   5.623   5.486  0.6620  0.8477  0.3711
   92SAPC  H19R 8882   2.594   5.568   5.457  0.9536  1.4557 -1.9606
   92SAPC  H19S 8883   2.772   5.554   5.500  1.0635  1.3052  0.2088
   92SAPC  C220 8884   2.728   5.722   5.373  0.2809  0.3153 -0.1439
   92SAPC  H20R 8885   2.658   5.808   5.364 -0.7016 -0.5469 -0.9815
   92SAPC  H20S 8886   2.726   5.664   5.279  0.0558 -0.0482  0.0837
   92SAPC  H20T 8887   2.832   5.757   5.389  1.0130 -1.1184 -1.5465
   92SAPC   C33 8888   2.534   5.379   7.073  0.2816 -0.1788  0.1501
   92SAPC   H3X 8889   2.579   5.479   7.060  1.3899 -0.8606 -1.6437
   92SAPC   H3Y 8890   2.424   5.392   7.085  0.5273  2.0709  0.3457
   92SAPC   C34 8891   2.567   5.305   6.944  0.0577 -0.1782 -0.0655
   92SAPC   H4X 8892   2.507   5.212   6.937 -0.4294  0.0447  0.9672
   92SAPC   H4Y 8893   2.671   5.267   6.939  0.2534  0.3427 -0.0855
   92SAPC   C35 8894   2.548   5.389   6.818 -0.4080 -0.2558  0.2652
   92SAPC   H5X 8895   2.633   5.460   6.810 -0.6560  0.0265  0.0802
   92SAPC   H5Y 8896   2.451   5.441   6.836 -0.8322 -0.7206 -0.5853
   92SAPC   C36 8897   2.558   5.294   6.698  0.1476  0.2649  0.0059
   92SAPC   H6X 8898   2.470   5.227   6.704 -0.0002  0.3647 -0.8485
   92SAPC   H6Y 8899   2.653   5.236   6.706 -0.1740 -0.1796  0.7429
   92SAPC   C37 8900   2.550   5.373   6.565  0.2431  0.3152 -0.3034
   92SAPC   H7X 8901   2.615   5.462   6.573 -1.3802  1.6704 -1.5522
   92SAPC   H7Y 8902   2.452   5.423   6.554  1.7307  3.2074 -1.2732
   92SAPC   C38 8903   2.590   5.291   6.446 -0.6993  0.5641 -0.0431
   92SAPC   H8X 8904   2.518   5.206   6.438 -2.1689  1.8000 -0.4546
   92SAPC   H8Y 8905   2.681   5.236   6.476  0.8207  2.0906 -1.6262
   92SAPC   C39 8906   2.610   5.355   6.311 -0.6737 -0.2733  0.2401
   92SAPC   H9X 8907   2.694   5.428   6.314 -1.0248  0.1255  0.3725
   92SAPC   H9Y 8908   2.523   5.414   6.275 -0.3496 -0.3027 -0.6103
   92SAPC  C310 8909   2.643   5.275   6.182  0.2761  0.0313 -0.5716
   92SAPC  H10X 8910   2.549   5.227   6.147  0.0766 -0.0732  0.0954
   92SAPC  H10Y 8911   2.720   5.199   6.208 -0.8886 -1.1373 -0.4443
   92SAPC  C311 8912   2.698   5.368   6.067  0.2125  0.2292 -0.1531
   92SAPC  H11X 8913   2.789   5.417   6.107  1.0467  1.2895 -3.0505
   92SAPC  H11Y 8914   2.623   5.443   6.034  0.7468  1.1730  0.7489
   92SAPC  C312 8915   2.741   5.300   5.937 -0.6591  0.3340 -0.5633
   92SAPC  H12X 8916   2.648   5.258   5.893 -0.5426  0.3957 -0.8683
   92SAPC  H12Y 8917   2.804   5.213   5.965  1.7234  2.7457  2.3364
   92SAPC  C313 8918   2.822   5.386   5.842  0.5697  0.5777 -0.2751
   92SAPC  H13X 8919   2.904   5.430   5.903 -0.8956 -1.3253  3.3644
   92SAPC  H13Y 8920   2.761   5.462   5.790 -0.5816 -2.0775 -3.1929
   92SAPC  C314 8921   2.898   5.313   5.735 -0.4962  0.2376  0.5185
   92SAPC  H14X 8922   2.953   5.228   5.781 -2.2994 -0.2108  1.9656
   92SAPC  H14Y 8923   2.975   5.375   5.684  1.7889 -2.6459  0.1616
   92SAPC  C315 8924   2.813   5.252   5.618 -0.0321 -0.3292 -0.4204
   92SAPC  H15X 8925   2.742   5.329   5.580  0.0428  0.5037  1.0760
   92SAPC  H15Y 8926   2.752   5.167   5.657  0.0581 -0.2009 -0.0006
   92SAPC  C316 8927   2.892   5.189   5.506  0.5495  0.1611 -0.5201
   92SAPC  H16X 8928   2.837   5.100   5.468  2.2243 -0.9700 -0.4064
   92SAPC  H16Y 8929   2.984   5.157   5.560  1.1799  1.3180 -0.8755
   92SAPC  C317 8930   2.918   5.298   5.402  0.1268  0.1387  0.1880
   92SAPC  H17X 8931   3.026   5.302   5.378 -0.2630 -0.2515 -1.8244
   92SAPC  H17Y 8932   2.894   5.400   5.440  1.2507  1.5370 -2.6466
   92SAPC  C318 8933   2.849   5.270   5.269  1.0997 -0.1635 -0.2933
   92SAPC  H18X 8934   2.890   5.331   5.185 -0.4428  0.8383 -0.3780
   92SAPC  H18Y 8935   2.743   5.303   5.281  0.8953 -1.6277  2.6633
   92SAPC  H18Z 8936   2.845   5.160   5.256  2.0135 -0.1930 -0.3801
   93SAPC     N 8937   4.012   5.736   7.792 -0.3321  0.1761  0.2432
   93SAPC   C12 8938   3.974   5.626   7.698  0.3871 -0.4587  1.0033
   93SAPC  H12A 8939   4.002   5.532   7.742 -0.9790 -1.0653  0.6396
   93SAPC  H12B 8940   4.041   5.645   7.615  1.1988  2.7285  2.2484
   93SAPC   C13 8941   3.960   5.714   7.931  0.6192 -1.0626  0.5844
   93SAPC  H13A 8942   3.993   5.794   7.995 -0.0975  1.0472 -1.5534
   93SAPC  H13B 8943   3.853   5.715   7.920  0.5539  0.9980  1.0574
   93SAPC  H13C 8944   3.986   5.615   7.966  1.7020 -0.2902  2.1072
   93SAPC   C14 8945   4.170   5.748   7.808  0.2396  0.7444 -0.1472
   93SAPC  H14A 8946   4.224   5.761   7.715  1.2990  0.7226  0.4489
   93SAPC  H14B 8947   4.194   5.826   7.878 -0.3279  0.7171  0.0812
   93SAPC  H14C 8948   4.208   5.655   7.849 -0.0407  1.0094  0.7353
   93SAPC   C15 8949   3.957   5.869   7.754 -0.8110 -0.4435  0.2763
   93SAPC  H15A 8950   3.976   5.949   7.824  0.5491  1.0722 -1.6781
   93SAPC  H15B 8951   4.003   5.917   7.668 -1.6842  2.2175  1.2012
   93SAPC  H15C 8952   3.851   5.857   7.744 -0.7778 -0.4510 -0.1023
   93SAPC   C11 8953   3.824   5.616   7.655 -0.0839 -0.1156 -0.0776
   93SAPC  H11A 8954   3.763   5.624   7.747 -3.0988 -1.8016 -1.7800
   93SAPC  H11B 8955   3.817   5.514   7.610  1.0967 -1.3081  2.2210
   93SAPC     P 8956   3.831   5.720   7.420 -0.3493 -0.1529 -0.1999
   93SAPC   O13 8957   3.733   5.787   7.326 -1.1590 -0.2011 -0.6212
   93SAPC   O14 8958   3.973   5.757   7.411 -0.2400 -0.3559  0.1826
   93SAPC   O12 8959   3.786   5.718   7.567 -0.4471  0.1447  0.5434
   93SAPC   O11 8960   3.824   5.575   7.384  0.3163  0.0124  0.4898
   93SAPC    C1 8961   3.936   5.501   7.337  0.5875 -0.7936  0.3623
   93SAPC    HA 8962   4.034   5.547   7.358 -0.4754  1.7282  0.1108
   93SAPC    HB 8963   3.943   5.401   7.386  1.6994 -0.4106  1.0214
   93SAPC    C2 8964   3.932   5.478   7.181 -1.3004 -0.0225  0.0369
   93SAPC    HS 8965   4.029   5.440   7.143 -1.2619  0.4025 -0.3036
   93SAPC   O21 8966   3.898   5.603   7.116 -0.6030 -0.2099 -0.3687
   93SAPC   C21 8967   3.999   5.691   7.106 -0.4550 -0.4144  0.4633
   93SAPC   O22 8968   4.117   5.672   7.131  0.3752 -0.3038 -0.0072
   93SAPC   C22 8969   3.938   5.818   7.039 -0.0188  0.1401 -0.6132
   93SAPC   H2R 8970   3.845   5.796   6.983 -0.0099  0.2086 -0.6539
   93SAPC   H2S 8971   3.906   5.883   7.123  1.4350 -0.5382  0.5243
   93SAPC    C3 8972   3.829   5.372   7.149 -0.1944  0.0942  0.6015
   93SAPC    HX 8973   3.733   5.428   7.146 -0.1077  0.2236  0.2192
   93SAPC    HY 8974   3.833   5.294   7.229  4.7683 -1.9452 -1.2352
   93SAPC   O31 8975   3.859   5.308   7.021 -0.4072 -0.3698 -0.3012
   93SAPC   C31 8976   3.819   5.362   6.913  0.4368  0.3216  0.3733
   93SAPC   O32 8977   3.735   5.453   6.907  0.0257 -0.1107  0.1409
   93SAPC   C32 8978   3.882   5.296   6.792 -0.3712 -0.6162 -0.2709
   93SAPC   H2X 8979   3.826   5.203   6.768 -2.3347  0.4793 -0.1404
   93SAPC   H2Y 8980   3.986   5.269   6.821 -0.7956 -1.5057  0.4695
   93SAPC   C23 8981   4.038   5.889   6.949  0.0889  0.4048 -1.0294
   93SAPC   H3R 8982   4.139   5.896   6.994 -0.6097 -1.0436  0.8805
   93SAPC   H3S 8983   3.999   5.993   6.948 -0.2880  0.3029  0.8791
   93SAPC   C24 8984   4.035   5.827   6.814 -0.4645 -0.2382  0.5081
   93SAPC   H4R 8985   3.942   5.862   6.765  0.3992  0.4642 -0.6900
   93SAPC   H4S 8986   4.025   5.717   6.809  0.2207 -0.2594 -0.6999
   93SAPC   C25 8987   4.170   5.850   6.744 -0.2829  0.3857  0.4533
   93SAPC   H5R 8988   4.255   5.808   6.800  0.6042  0.4911 -0.7684
   93SAPC   C26 8989   4.192   5.913   6.630  0.1263  0.3226 -0.2032
   93SAPC   H6R 8990   4.294   5.915   6.589  0.0027 -1.3240 -0.6484
   93SAPC   C27 8991   4.096   5.987   6.540  0.6743  0.6210 -0.9425
   93SAPC   H7R 8992   4.143   6.080   6.500  0.6942  0.9291 -0.2220
   93SAPC   H7S 8993   4.003   6.022   6.590 -0.6462  1.2577 -3.6840
   93SAPC   C28 8994   4.053   5.893   6.432  0.4318  0.3504  0.8123
   93SAPC   H8R 8995   3.996   5.804   6.464  2.4387 -1.1676  0.3290
   93SAPC   C29 8996   4.092   5.887   6.304  0.4007 -0.4728  0.2557
   93SAPC   H9R 8997   4.053   5.804   6.244  1.3848 -0.0334 -1.0214
   93SAPC  C210 8998   4.186   5.986   6.239  0.1448 -0.2902 -0.2017
   93SAPC  H10R 8999   4.228   6.054   6.316 -0.1185 -0.0891 -0.2327
   93SAPC  H10S 9000   4.130   6.052   6.169  0.3407  1.4989  1.2566
   93SAPC  C211 9001   4.299   5.928   6.157  0.2776 -0.2114 -0.8557
   93SAPC  H11R 9002   4.304   5.820   6.173  1.5126 -0.0110  0.3415
   93SAPC  C212 9003   4.390   5.987   6.073  0.2578 -0.1848 -0.5118
   93SAPC  H12R 9004   4.467   5.930   6.019  0.0515 -0.4364 -0.5392
   93SAPC  C213 9005   4.394   6.140   6.064 -0.4510 -0.0526 -0.1351
   93SAPC  H13R 9006   4.500   6.171   6.051 -0.9007  0.4475 -3.6411
   93SAPC  H13S 9007   4.369   6.190   6.161 -2.8873 -0.4116 -0.5023
   93SAPC  C214 9008   4.294   6.197   5.959 -0.7588 -0.0599  0.5580
   93SAPC  H14R 9009   4.198   6.229   6.003 -1.1575 -1.2647  0.5816
   93SAPC  C215 9010   4.312   6.210   5.826  0.6610  0.6497 -0.5977
   93SAPC  H15R 9011   4.230   6.245   5.761 -0.9906 -0.9052  0.5518
   93SAPC  C216 9012   4.425   6.156   5.742 -0.4836 -0.3540 -0.1093
   93SAPC  H16R 9013   4.415   6.048   5.716  0.9117 -0.3025 -0.9771
   93SAPC  H16S 9014   4.516   6.173   5.802  0.1068 -0.9161 -0.8315
   93SAPC  C217 9015   4.423   6.231   5.608 -0.8496 -0.3199  0.7659
   93SAPC  H17R 9016   4.407   6.341   5.618  0.4702 -0.0373  0.0393
   93SAPC  H17S 9017   4.344   6.193   5.540  1.2102  0.3534 -2.2122
   93SAPC  C218 9018   4.561   6.214   5.531  0.3322  0.2163 -0.1224
   93SAPC  H18R 9019   4.603   6.111   5.537  1.1052  0.4631 -1.0677
   93SAPC  H18S 9020   4.635   6.279   5.582  0.1517  1.6706 -1.6120
   93SAPC  C219 9021   4.554   6.248   5.385 -0.4161  0.4263  0.8142
   93SAPC  H19R 9022   4.506   6.347   5.370  0.0698  0.7048  1.0718
   93SAPC  H19S 9023   4.506   6.164   5.331 -0.4410  1.0009 -0.0970
   93SAPC  C220 9024   4.695   6.262   5.317  0.4783  0.1640  0.7469
   93SAPC  H20R 9025   4.755   6.335   5.375  0.7187  0.6770 -0.1255
   93SAPC  H20S 9026   4.694   6.296   5.211 -0.2309  0.8730  0.9768
   93SAPC  H20T 9027   4.742   6.161   5.315  1.1489  0.4677  1.0303
   93SAPC   C33 9028   3.888   5.392   6.667 -0.7885 -0.4783  0.1438
   93SAPC   H3X 9029   3.935   5.487   6.699  1.6285 -1.5990  0.1221
   93SAPC   H3Y 9030   3.785   5.416   6.632 -1.1415 -1.2858  0.5747
   93SAPC   C34 9031   3.970   5.331   6.557 -0.1074  0.3169  0.2350
   93SAPC   H4X 9032   3.913   5.242   6.522  0.6226 -0.5061  1.0833
   93SAPC   H4Y 9033   4.070   5.312   6.603  0.0558  3.7501  1.6692
   93SAPC   C35 9034   3.986   5.431   6.441  0.5940  0.1630  0.1862
   93SAPC   H5X 9035   4.049   5.521   6.459 -0.2836  0.8219  0.0956
   93SAPC   H5Y 9036   3.886   5.465   6.405  0.5555 -0.0579  0.0825
   93SAPC   C36 9037   4.041   5.355   6.316  0.1525 -1.0145  0.6759
   93SAPC   H6X 9038   3.989   5.257   6.305 -0.6811 -0.4896 -0.2438
   93SAPC   H6Y 9039   4.146   5.330   6.340  1.3548  2.7219 -0.0842
   93SAPC   C37 9040   4.017   5.431   6.186  0.2501  0.2089 -0.1517
   93SAPC   H7X 9041   4.046   5.537   6.203 -1.0675  0.6859 -0.7455
   93SAPC   H7Y 9042   3.909   5.433   6.159  0.2597  1.0493 -0.1705
   93SAPC   C38 9043   4.102   5.385   6.066 -0.0724  0.0483 -0.7259
   93SAPC   H8X 9044   4.069   5.285   6.032 -1.0978 -0.5514  1.8034
   93SAPC   H8Y 9045   4.203   5.376   6.111 -1.0072  1.7422  1.9807
   93SAPC   C39 9046   4.092   5.481   5.945  0.8774  0.3004  0.1918
   93SAPC   H9X 9047   4.102   5.585   5.982 -0.6950 -0.0409  1.7241
   93SAPC   H9Y 9048   3.993   5.473   5.894  1.2915  0.7036 -0.7036
   93SAPC  C310 9049   4.194   5.454   5.835 -0.0297  0.1144 -0.1572
   93SAPC  H10X 9050   4.179   5.350   5.799  0.0422  0.6816 -1.9031
   93SAPC  H10Y 9051   4.294   5.473   5.880  0.0171 -0.2454 -0.1071
   93SAPC  C311 9052   4.161   5.529   5.702  0.0653 -0.2306  0.2984
   93SAPC  H11X 9053   4.146   5.638   5.720 -1.9537 -0.6266  1.3383
   93SAPC  H11Y 9054   4.060   5.499   5.667  0.6289  0.1685 -1.8238
   93SAPC  C312 9055   4.270   5.524   5.590  0.5625 -0.3046 -0.8265
   93SAPC  H12X 9056   4.284   5.420   5.554  0.2209  0.0534 -2.0347
   93SAPC  H12Y 9057   4.366   5.565   5.628 -1.1908  0.6085  3.0402
   93SAPC  C313 9058   4.226   5.602   5.470 -0.5407  0.7060  0.4717
   93SAPC  H13X 9059   4.183   5.701   5.499  1.5825  1.4593  1.2251
   93SAPC  H13Y 9060   4.152   5.540   5.414  0.6364  0.4670 -0.8707
   93SAPC  C314 9061   4.339   5.628   5.371 -0.6112 -0.0262 -0.2373
   93SAPC  H14X 9062   4.294   5.669   5.278 -1.4701  0.9873  0.5959
   93SAPC  H14Y 9063   4.397   5.538   5.341  2.5989  2.3924 -1.9484
   93SAPC  C315 9064   4.440   5.731   5.436 -0.2999  0.2992 -0.2014
   93SAPC  H15X 9065   4.539   5.685   5.457 -1.8767 -2.4645  1.7718
   93SAPC  H15Y 9066   4.402   5.768   5.533  2.3618 -1.2444  1.5288
   93SAPC  C316 9067   4.459   5.856   5.347 -0.3386 -0.0231 -0.3746
   93SAPC  H16X 9068   4.530   5.920   5.404  0.5535 -1.2158 -0.1059
   93SAPC  H16Y 9069   4.366   5.915   5.330  0.5428  1.4120 -0.3274
   93SAPC  C317 9070   4.525   5.822   5.209  0.6631  0.4561  0.2091
   93SAPC  H17X 9071   4.441   5.795   5.142  0.0458  0.3669  1.0079
   93SAPC  H17Y 9072   4.594   5.738   5.227 -1.2636 -0.8844  1.7610
   93SAPC  C318 9073   4.611   5.935   5.166  0.4886 -0.4469  0.0208
   93SAPC  H18X 9074   4.643   5.923   5.060 -1.4786 -1.8969 -0.4728
   93SAPC  H18Y 9075   4.701   5.940   5.230  1.3628  0.2689 -1.2258
   93SAPC  H18Z 9076   4.562   6.035   5.165  0.0992 -0.6259  0.4999
   94SAPC     N 9077   2.868   4.938   7.710  0.0741  0.5981 -0.6247
   94SAPC   C12 9078   2.807   5.069   7.756 -0.0638  0.2860 -0.3335
   94SAPC  H12A 9079   2.879   5.147   7.773  0.3589 -0.2937  0.6232
   94SAPC  H12B 9080   2.761   5.044   7.851 -3.2845  0.2264 -1.7837
   94SAPC   C13 9081   2.940   4.958   7.582 -0.4260 -0.1594 -0.4229
   94SAPC  H13A 9082   2.947   4.863   7.532 -1.3974 -0.6041  0.2580
   94SAPC  H13B 9083   2.867   5.010   7.522 -3.1394 -3.0084  0.1454
   94SAPC  H13C 9084   3.036   5.008   7.588  0.3374 -1.7414  1.2578
   94SAPC   C14 9085   2.957   4.893   7.822 -0.4853  0.1973 -0.6770
   94SAPC  H14A 9086   2.896   4.868   7.908  1.5178 -0.5640  0.5880
   94SAPC  H14B 9087   3.020   4.812   7.788 -1.9641 -1.1062 -0.4647
   94SAPC  H14C 9088   3.014   4.976   7.859 -1.5530  0.7515 -0.2218
   94SAPC   C15 9089   2.767   4.820   7.695 -0.8645 -0.5066 -0.0008
   94SAPC  H15A 9090   2.718   4.785   7.785  1.0837  0.6892  1.5862
   94SAPC  H15B 9091   2.686   4.848   7.629 -0.4929  0.4853 -0.0492
   94SAPC  H15C 9092   2.806   4.731   7.647  1.2399 -0.7154  1.9395
   94SAPC   C11 9093   2.691   5.139   7.682  0.0716 -0.4408  0.1617
   94SAPC  H11A 9094   2.717   5.181   7.582 -0.7424  0.9564  0.5100
   94SAPC  H11B 9095   2.657   5.227   7.741  1.6128  0.1089  0.2689
   94SAPC     P 9096   2.442   5.046   7.713 -0.2336 -0.2622  0.0993
   94SAPC   O13 9097   2.381   4.917   7.679  0.9692 -0.1891 -0.0978
   94SAPC   O14 9098   2.455   5.094   7.852 -0.2431  0.4080 -0.5568
   94SAPC   O12 9099   2.580   5.051   7.638 -0.1065 -0.7639 -0.4524
   94SAPC   O11 9100   2.356   5.150   7.635  0.4831  0.0120 -0.1690
   94SAPC    C1 9101   2.376   5.176   7.496 -0.3087 -0.3945  0.3124
   94SAPC    HA 9102   2.348   5.281   7.470 -2.3596 -0.9353  0.2310
   94SAPC    HB 9103   2.478   5.159   7.454  0.2232  0.5324  1.1534
   94SAPC    C2 9104   2.299   5.074   7.412  0.1331 -0.3898 -0.2126
   94SAPC    HS 9105   2.319   4.982   7.470 -2.3271 -1.2508 -0.6195
   94SAPC   O21 9106   2.343   5.073   7.276 -0.0909  0.1303 -0.0956
   94SAPC   C21 9107   2.344   4.951   7.209  0.0545 -0.3009 -1.0882
   94SAPC   O22 9108   2.336   4.843   7.270  0.3173 -0.7059  0.4046
   94SAPC   C22 9109   2.385   4.974   7.058  0.5796  0.0500 -0.3528
   94SAPC   H2R 9110   2.316   5.052   7.019 -1.3318 -1.6583 -0.5248
   94SAPC   H2S 9111   2.496   4.983   7.052  1.0030 -1.2421  3.2004
   94SAPC    C3 9112   2.145   5.090   7.421 -0.2455  0.0538 -1.1757
   94SAPC    HX 9113   2.138   5.093   7.532  0.2887  2.3780 -1.1705
   94SAPC    HY 9114   2.087   5.000   7.390 -0.7411 -0.0186 -0.1090
   94SAPC   O31 9115   2.095   5.209   7.369 -0.1483 -0.3039  0.6918
   94SAPC   C31 9116   2.052   5.206   7.248 -0.1293  0.1963  0.8966
   94SAPC   O32 9117   2.055   5.107   7.172 -0.2635 -0.1972  0.3083
   94SAPC   C32 9118   2.011   5.347   7.196 -0.3577  0.0275  0.3545
   94SAPC   H2X 9119   2.093   5.417   7.222  0.4778 -1.1249  0.8973
   94SAPC   H2Y 9120   1.917   5.384   7.243 -0.7509 -0.1632 -0.2739
   94SAPC   C23 9121   2.352   4.839   6.987  0.1588 -0.0655  0.2872
   94SAPC   H3R 9122   2.244   4.826   7.012 -0.2597  0.8131 -0.9702
   94SAPC   H3S 9123   2.402   4.749   7.030  1.4436  0.8296  0.7164
   94SAPC   C24 9124   2.391   4.826   6.836  0.8979  0.0007  0.0674
   94SAPC   H4R 9125   2.379   4.718   6.813  1.1869 -0.1511  0.6114
   94SAPC   H4S 9126   2.496   4.862   6.826  0.7505 -0.1274 -2.7803
   94SAPC   C25 9127   2.283   4.921   6.769 -0.5954  0.5549 -0.0741
   94SAPC   H5R 9128   2.185   4.932   6.818 -0.9212 -0.9146 -0.3589
   94SAPC   C26 9129   2.318   4.982   6.650 -0.2996 -0.1105 -0.3706
   94SAPC   H6R 9130   2.258   5.066   6.612  0.5138  1.1227  0.9150
   94SAPC   C27 9131   2.444   4.962   6.576  0.4486  0.1648  0.3909
   94SAPC   H7R 9132   2.531   4.978   6.644  2.8635  2.9699 -2.9783
   94SAPC   H7S 9133   2.446   5.040   6.496  0.2606  1.4892  1.6328
   94SAPC   C28 9134   2.467   4.832   6.497  0.0937 -0.1583 -0.4481
   94SAPC   H8R 9135   2.450   4.739   6.554 -1.8449  0.8732  0.7802
   94SAPC   C29 9136   2.509   4.817   6.368 -0.2521 -0.1716  0.0367
   94SAPC   H9R 9137   2.524   4.715   6.331 -0.9995 -0.2527 -0.0528
   94SAPC  C210 9138   2.541   4.925   6.273 -0.5762  0.2795 -0.0331
   94SAPC  H10R 9139   2.632   4.912   6.212 -1.4622  0.8859 -1.5376
   94SAPC  H10S 9140   2.578   5.017   6.324  0.5433 -1.1213  1.8186
   94SAPC  C211 9141   2.433   4.969   6.178 -0.1487 -0.4596 -0.1349
   94SAPC  H11R 9142   2.367   5.047   6.218  1.6644  0.1249  1.9739
   94SAPC  C212 9143   2.428   4.923   6.053  0.5910 -1.4275 -0.4218
   94SAPC  H12R 9144   2.343   4.957   5.992  0.5989 -0.1256  0.2645
   94SAPC  C213 9145   2.520   4.826   5.993 -0.5619 -0.1527  0.3991
   94SAPC  H13R 9146   2.470   4.764   5.916 -3.7574  0.1223  2.1017
   94SAPC  H13S 9147   2.548   4.746   6.066  0.7851 -0.2290 -0.1707
   94SAPC  C214 9148   2.645   4.893   5.936  0.6147  0.3375  0.0515
   94SAPC  H14R 9149   2.643   5.003   5.941  0.5391  0.3962 -0.9313
   94SAPC  C215 9150   2.741   4.832   5.857  0.8616 -0.3303  0.5710
   94SAPC  H15R 9151   2.825   4.891   5.817 -0.1876 -0.4635 -2.0612
   94SAPC  C216 9152   2.771   4.684   5.832 -0.6652  0.1035  0.3280
   94SAPC  H16R 9153   2.700   4.620   5.890  0.6922 -0.4361  1.4492
   94SAPC  H16S 9154   2.874   4.657   5.861  0.4291  1.1574 -2.2614
   94SAPC  C217 9155   2.771   4.646   5.679 -0.0608 -0.1963  0.1266
   94SAPC  H17R 9156   2.664   4.652   5.649  0.3141 -0.3724 -1.3209
   94SAPC  H17S 9157   2.800   4.541   5.658  1.9720  0.0263  1.5472
   94SAPC  C218 9158   2.853   4.731   5.585  0.4035  0.4792  0.4769
   94SAPC  H18R 9159   2.960   4.711   5.606  0.1715 -0.4917  0.7318
   94SAPC  H18S 9160   2.840   4.841   5.598  3.9921  1.5116 -2.7536
   94SAPC  C219 9161   2.837   4.690   5.433 -0.0161  0.2542 -0.6967
   94SAPC  H19R 9162   2.873   4.587   5.413  0.5757  0.4795 -0.7986
   94SAPC  H19S 9163   2.902   4.754   5.370 -0.1330  0.7372 -0.3289
   94SAPC  C220 9164   2.693   4.684   5.375  0.6222  0.5536 -0.1524
   94SAPC  H20R 9165   2.636   4.752   5.442  1.4381  1.5165 -0.4224
   94SAPC  H20S 9166   2.656   4.579   5.386 -1.1185  1.2467  1.2187
   94SAPC  H20T 9167   2.704   4.700   5.266  0.2381 -2.5925 -0.7420
   94SAPC   C33 9168   1.994   5.339   7.042 -0.6751 -0.0333  0.3376
   94SAPC   H3X 9169   1.921   5.417   7.013  0.6283  1.1199  0.0411
   94SAPC   H3Y 9170   1.950   5.245   7.000 -0.0579  0.8013 -2.3910
   94SAPC   C34 9171   2.129   5.372   6.971 -0.2473  0.1605 -0.0505
   94SAPC   H4X 9172   2.211   5.308   7.010  0.8977  1.5453 -0.1093
   94SAPC   H4Y 9173   2.143   5.480   6.991 -0.9725  0.0084  1.4463
   94SAPC   C35 9174   2.121   5.365   6.813  0.7759 -0.2238  0.0703
   94SAPC   H5X 9175   2.100   5.263   6.775 -2.8112  0.7222 -0.8498
   94SAPC   H5Y 9176   2.217   5.413   6.786  0.0601  0.1545 -1.9639
   94SAPC   C36 9177   2.016   5.460   6.745 -0.0447  0.3699 -0.2317
   94SAPC   H6X 9178   2.030   5.568   6.770  0.6512  0.6131 -1.5875
   94SAPC   H6Y 9179   1.921   5.433   6.797  1.7213 -1.2096  2.3689
   94SAPC   C37 9180   2.002   5.426   6.595  0.1966 -0.3786 -0.1586
   94SAPC   H7X 9181   1.925   5.487   6.544  0.9633  0.2701 -0.5767
   94SAPC   H7Y 9182   1.982   5.319   6.572 -1.2297 -0.3201  0.7548
   94SAPC   C38 9183   2.120   5.456   6.507 -0.2440 -0.2198  0.0424
   94SAPC   H8X 9184   2.213   5.404   6.538  0.0749 -1.3916 -2.5825
   94SAPC   H8Y 9185   2.125   5.566   6.502  0.1404 -0.2374 -4.3015
   94SAPC   C39 9186   2.080   5.413   6.359 -0.4378 -0.3710 -0.0064
   94SAPC   H9X 9187   2.025   5.497   6.312  0.2682 -0.4720 -1.0509
   94SAPC   H9Y 9188   2.019   5.321   6.351  1.1476 -1.3444 -1.7852
   94SAPC  C310 9189   2.200   5.379   6.278 -0.4125 -0.4195 -0.2642
   94SAPC  H10X 9190   2.275   5.328   6.343 -0.6767  1.3672  1.5351
   94SAPC  H10Y 9191   2.254   5.472   6.250 -0.5709 -0.0978  0.4606
   94SAPC  C311 9192   2.171   5.302   6.154 -0.2655 -0.5839  0.4385
   94SAPC  H11X 9193   2.068   5.261   6.162 -1.0670  1.5715  2.4893
   94SAPC  H11Y 9194   2.255   5.231   6.139  0.0716 -0.1775  0.3941
   94SAPC  C312 9195   2.185   5.394   6.032  0.3548 -0.5244  0.5169
   94SAPC  H12X 9196   2.283   5.444   6.042  0.2280  0.0361 -0.9420
   94SAPC  H12Y 9197   2.106   5.472   6.038  2.4130  1.7085  0.1668
   94SAPC  C313 9198   2.163   5.324   5.897 -0.5038  0.2764 -0.3053
   94SAPC  H13X 9199   2.149   5.404   5.822  2.2079  2.7355  1.5750
   94SAPC  H13Y 9200   2.079   5.252   5.908 -0.2602 -0.0266 -0.4000
   94SAPC  C314 9201   2.298   5.259   5.855  0.3791 -0.5566 -0.0650
   94SAPC  H14X 9202   2.306   5.170   5.920  0.7661 -0.4123  0.0907
   94SAPC  H14Y 9203   2.384   5.328   5.871  0.4135 -0.5483 -0.2735
   94SAPC  C315 9204   2.315   5.222   5.707  0.2601 -0.3820 -0.4678
   94SAPC  H15X 9205   2.307   5.307   5.636 -2.5905 -0.9187 -0.9059
   94SAPC  H15Y 9206   2.230   5.155   5.684 -0.5496  0.2142  0.7183
   94SAPC  C316 9207   2.454   5.161   5.677  0.4621  0.6044  0.2658
   94SAPC  H16X 9208   2.466   5.081   5.753  1.8584 -0.3082 -0.8662
   94SAPC  H16Y 9209   2.538   5.231   5.692  1.1412 -0.6847  2.9670
   94SAPC  C317 9210   2.478   5.110   5.533 -0.1169  0.5540  0.3059
   94SAPC  H17X 9211   2.395   5.041   5.508  0.4858 -0.2423  0.4497
   94SAPC  H17Y 9212   2.572   5.049   5.533  0.9491  2.0791 -1.5469
   94SAPC  C318 9213   2.486   5.214   5.433  0.1072  0.0162  0.5593
   94SAPC  H18X 9214   2.523   5.179   5.334 -1.1028 -0.1737  0.1545
   94SAPC  H18Y 9215   2.538   5.301   5.478 -0.8225 -1.1173  4.1645
   94SAPC  H18Z 9216   2.382   5.249   5.413 -1.1880 -3.7680 -0.2155
   95SAPC     N 9217   2.886   1.844   2.562 -0.1492  0.3969  0.3028
   95SAPC   C12 9218   2.984   1.821   2.669 -0.1574 -0.3283 -0.4337
   95SAPC  H12A 9219   3.002   1.916   2.717 -2.5325  0.5493 -1.1673
   95SAPC  H12B 9220   3.079   1.795   2.623  1.4900  0.2181  2.4010
   95SAPC   C13 9221   2.768   1.911   2.617 -0.3832  0.3649 -0.7540
   95SAPC  H13A 9222   2.690   1.939   2.548 -1.0200  1.1746  0.2531
   95SAPC  H13B 9223   2.726   1.847   2.693 -2.4405 -1.5400 -3.3257
   95SAPC  H13C 9224   2.798   2.005   2.661  0.9551  0.2762 -1.4266
   95SAPC   C14 9225   2.953   1.923   2.454  0.1222  0.2152 -0.0452
   95SAPC  H14A 9226   3.055   1.890   2.441  0.4150  0.6809  0.9727
   95SAPC  H14B 9227   2.892   1.900   2.367 -0.2109 -2.0207  0.7189
   95SAPC  H14C 9228   2.948   2.028   2.478 -1.8975  0.1083  0.2089
   95SAPC   C15 9229   2.837   1.714   2.498 -1.0274 -0.7129 -0.3953
   95SAPC  H15A 9230   2.793   1.652   2.575  0.6846 -2.5162 -0.7926
   95SAPC  H15B 9231   2.759   1.735   2.427 -1.2584  0.8502  0.2793
   95SAPC  H15C 9232   2.919   1.660   2.451  0.3375  1.2119 -0.3568
   95SAPC   C11 9233   2.947   1.731   2.793 -0.3841  0.2141  0.0079
   95SAPC  H11A 9234   3.031   1.744   2.864 -0.7974  0.2838  0.4845
   95SAPC  H11B 9235   2.953   1.625   2.760 -0.1981 -0.1709  1.2186
   95SAPC     P 9236   2.810   1.847   2.975  0.0391 -0.1260 -0.1953
   95SAPC   O13 9237   2.911   1.950   2.975  0.5355  0.0327 -0.3268
   95SAPC   O14 9238   2.667   1.887   2.991  0.0498  0.0982  0.2676
   95SAPC   O12 9239   2.814   1.767   2.841  0.0660  0.9320  0.1324
   95SAPC   O11 9240   2.848   1.744   3.091 -0.4083  0.4659 -0.1363
   95SAPC    C1 9241   2.773   1.629   3.114  0.2649  0.7220 -0.0275
   95SAPC    HA 9242   2.716   1.583   3.031 -0.2635 -0.5485  0.9957
   95SAPC    HB 9243   2.832   1.544   3.155 -1.4374 -1.2777 -1.5021
   95SAPC    C2 9244   2.658   1.660   3.221  0.4409 -0.7016 -0.1429
   95SAPC    HS 9245   2.586   1.740   3.193  1.1782  0.7406  1.9500
   95SAPC   O21 9246   2.733   1.702   3.338 -0.5317 -0.1069 -0.0240
   95SAPC   C21 9247   2.677   1.790   3.413  0.3086  0.0943 -0.3814
   95SAPC   O22 9248   2.572   1.854   3.387 -0.4663  0.0824 -0.3768
   95SAPC   C22 9249   2.755   1.810   3.540  0.2602 -0.5322 -0.3499
   95SAPC   H2R 9250   2.802   1.712   3.563 -2.6364 -1.9434 -0.0374
   95SAPC   H2S 9251   2.830   1.891   3.529 -0.8777  1.0268  2.3602
   95SAPC    C3 9252   2.565   1.531   3.246 -0.7874 -0.1081  0.6900
   95SAPC    HX 9253   2.635   1.447   3.262  0.8707  1.0481 -0.2290
   95SAPC    HY 9254   2.502   1.517   3.155 -1.0020 -0.6059  0.9116
   95SAPC   O31 9255   2.499   1.539   3.371  0.3420  0.2450  0.4775
   95SAPC   C31 9256   2.374   1.585   3.365  0.3321  0.2963 -0.0834
   95SAPC   O32 9257   2.309   1.611   3.266  0.5267  0.6053  0.6476
   95SAPC   C32 9258   2.340   1.634   3.507  0.3057 -0.1269 -0.5012
   95SAPC   H2X 9259   2.361   1.742   3.513  0.1013 -0.1791  2.1213
   95SAPC   H2Y 9260   2.415   1.590   3.576  1.7324  1.7030 -0.8229
   95SAPC   C23 9261   2.674   1.841   3.672 -0.0600  0.7192 -0.4453
   95SAPC   H3R 9262   2.568   1.814   3.656  0.3801 -0.7270 -1.0632
   95SAPC   H3S 9263   2.671   1.951   3.687 -1.1993  0.4573  1.6042
   95SAPC   C24 9264   2.738   1.781   3.802  0.6287  0.6646 -0.1130
   95SAPC   H4R 9265   2.814   1.855   3.837 -0.1661  1.6580 -0.4337
   95SAPC   H4S 9266   2.795   1.687   3.786  1.1443  0.7143  1.3281
   95SAPC   C25 9267   2.631   1.750   3.903 -0.0150 -0.0899 -0.1762
   95SAPC   H5R 9268   2.554   1.683   3.862  0.5442  0.0184 -1.4742
   95SAPC   C26 9269   2.617   1.798   4.028  0.5179  0.4124 -0.3954
   95SAPC   H6R 9270   2.532   1.769   4.091  0.0325 -2.1524 -2.0921
   95SAPC   C27 9271   2.724   1.878   4.093 -0.1354 -0.3991 -0.0091
   95SAPC   H7R 9272   2.735   1.981   4.053  1.4001  1.5339  4.7158
   95SAPC   H7S 9273   2.818   1.822   4.072  0.4453  0.2343  0.8543
   95SAPC   C28 9274   2.714   1.883   4.237  0.0219 -0.3890 -0.9945
   95SAPC   H8R 9275   2.654   1.810   4.294  0.1484 -0.6101 -1.1440
   95SAPC   C29 9276   2.773   1.979   4.310  0.1648 -0.7111  0.6950
   95SAPC   H9R 9277   2.740   1.983   4.415 -2.5348 -0.8601 -0.0712
   95SAPC  C210 9278   2.863   2.088   4.253 -0.1442 -0.5695 -0.3512
   95SAPC  H10R 9279   2.806   2.179   4.224  1.6397  0.2856 -1.3902
   95SAPC  H10S 9280   2.909   2.055   4.157 -0.3870 -1.5302 -0.1452
   95SAPC  C211 9281   2.968   2.135   4.347  0.1087  0.2103  0.0260
   95SAPC  H11R 9282   2.950   2.115   4.454 -0.5633  2.3281  0.3617
   95SAPC  C212 9283   3.066   2.221   4.312  0.1632  0.6646  0.2250
   95SAPC  H12R 9284   3.131   2.252   4.395 -1.8434  1.1158  1.7173
   95SAPC  C213 9285   3.100   2.275   4.176 -0.4584 -0.6860 -0.0348
   95SAPC  H13R 9286   3.147   2.374   4.193 -0.1505 -0.8975  0.3675
   95SAPC  H13S 9287   3.014   2.277   4.106 -0.5633 -0.2101  0.1053
   95SAPC  C214 9288   3.224   2.196   4.130 -0.6719 -0.1024 -0.8032
   95SAPC  H14R 9289   3.282   2.158   4.215 -0.9168 -0.4949 -0.8087
   95SAPC  C215 9290   3.272   2.157   4.005 -0.7937 -0.8041  0.1517
   95SAPC  H15R 9291   3.373   2.113   4.001 -0.6802 -0.4880 -3.2471
   95SAPC  C216 9292   3.216   2.200   3.870  0.0872 -0.5378 -0.8632
   95SAPC  H16R 9293   3.134   2.274   3.882  0.9552  0.1524  1.1567
   95SAPC  H16S 9294   3.177   2.110   3.817 -0.1256 -0.8927 -0.1096
   95SAPC  C217 9295   3.321   2.275   3.779  0.0028  0.0851 -0.0918
   95SAPC  H17R 9296   3.411   2.213   3.762  1.3176  2.2325 -1.3814
   95SAPC  H17S 9297   3.356   2.365   3.835  1.4220  0.3420 -1.3543
   95SAPC  C218 9298   3.251   2.313   3.650 -0.0766  0.7955  0.4777
   95SAPC  H18R 9299   3.148   2.343   3.678 -0.7256  0.8732 -1.8305
   95SAPC  H18S 9300   3.233   2.222   3.589 -2.5492  0.1422  2.0305
   95SAPC  C219 9301   3.312   2.417   3.563  0.0876 -0.6362  0.5495
   95SAPC  H19R 9302   3.421   2.396   3.551  0.4447  1.4833 -0.2160
   95SAPC  H19S 9303   3.299   2.513   3.617 -0.0655  0.1600 -0.8613
   95SAPC  C220 9304   3.255   2.433   3.424 -0.2601  0.6505  0.8229
   95SAPC  H20R 9305   3.261   2.336   3.369 -0.8983 -0.3754  2.4804
   95SAPC  H20S 9306   3.313   2.503   3.361  0.6938 -1.0050 -0.2366
   95SAPC  H20T 9307   3.146   2.454   3.430 -0.6560 -0.7858 -0.5406
   95SAPC   C33 9308   2.185   1.602   3.532 -0.3417  0.7286 -0.3085
   95SAPC   H3X 9309   2.182   1.491   3.529 -2.8342  0.5138  3.4370
   95SAPC   H3Y 9310   2.127   1.631   3.441  0.9220  1.1977 -0.9944
   95SAPC   C34 9311   2.143   1.647   3.667  0.8265 -0.1391 -0.1431
   95SAPC   H4X 9312   2.035   1.624   3.678  1.1215 -0.7879  1.7420
   95SAPC   H4Y 9313   2.143   1.757   3.684  0.3260 -0.2176  0.3845
   95SAPC   C35 9314   2.232   1.594   3.776  0.1496  0.6218 -0.1985
   95SAPC   H5X 9315   2.340   1.623   3.772  1.2584 -2.4521  2.8333
   95SAPC   H5Y 9316   2.245   1.484   3.764  1.0706  0.7694 -0.6716
   95SAPC   C36 9317   2.181   1.633   3.912 -0.2706 -0.0464  0.3023
   95SAPC   H6X 9318   2.167   1.743   3.918  2.5391  0.6607 -2.7829
   95SAPC   H6Y 9319   2.248   1.607   3.997 -0.0010  0.4476  0.2435
   95SAPC   C37 9320   2.053   1.552   3.941 -1.2659  0.2025  0.9392
   95SAPC   H7X 9321   2.052   1.453   3.892 -0.3055  0.8753 -0.4997
   95SAPC   H7Y 9322   1.968   1.600   3.888 -0.8331  0.3746  0.3993
   95SAPC   C38 9323   2.002   1.543   4.081  0.0993 -0.7181 -0.6908
   95SAPC   H8X 9324   2.050   1.457   4.133 -1.4482 -0.3552  1.4880
   95SAPC   H8Y 9325   1.896   1.513   4.081 -0.6501  1.4594  2.0514
   95SAPC   C39 9326   2.021   1.667   4.168  0.3296 -0.7952 -0.7098
   95SAPC   H9X 9327   1.947   1.733   4.118  0.4011 -0.8434 -0.8806
   95SAPC   H9Y 9328   2.124   1.709   4.167 -0.0336  0.2618  1.2840
   95SAPC  C310 9329   1.969   1.646   4.312 -0.1980  0.2067 -0.3007
   95SAPC  H10X 9330   1.869   1.599   4.312  0.1048 -0.4554  0.1652
   95SAPC  H10Y 9331   1.960   1.744   4.365  2.5046  0.4527 -0.1354
   95SAPC  C311 9332   2.058   1.558   4.397 -0.1670  0.6986  0.6776
   95SAPC  H11X 9333   2.157   1.610   4.399 -0.3001  1.3986 -3.0847
   95SAPC  H11Y 9334   2.067   1.458   4.350  0.0823  1.1797 -0.3201
   95SAPC  C312 9335   1.997   1.536   4.535 -0.4312 -0.0570  0.4971
   95SAPC  H12X 9336   2.063   1.459   4.581  1.3065  1.8855  1.4272
   95SAPC  H12Y 9337   1.895   1.495   4.519 -1.2051  2.0739 -0.3944
   95SAPC  C313 9338   2.003   1.652   4.629 -0.1679  0.1277  0.3814
   95SAPC  H13X 9339   1.910   1.713   4.617 -0.8095 -1.1320 -1.4767
   95SAPC  H13Y 9340   2.091   1.718   4.612 -0.0201 -0.3384 -0.7019
   95SAPC  C314 9341   2.014   1.617   4.777  0.3992  0.3261  0.1915
   95SAPC  H14X 9342   2.014   1.709   4.840  1.2474  0.9954 -0.7505
   95SAPC  H14Y 9343   2.121   1.589   4.788  0.3333 -0.6389 -1.4025
   95SAPC  C315 9344   1.919   1.514   4.821 -0.1097 -0.3457  0.0083
   95SAPC  H15X 9345   1.951   1.426   4.760  2.1023  1.6207 -1.8749
   95SAPC  H15Y 9346   1.825   1.552   4.775 -0.1587 -0.7222 -0.2140
   95SAPC  C316 9347   1.904   1.486   4.969 -0.1627 -0.6719 -0.3364
   95SAPC  H16X 9348   1.873   1.580   5.019 -3.3284 -0.9095 -1.6288
   95SAPC  H16Y 9349   2.009   1.464   5.001  0.1847  1.0124 -0.2664
   95SAPC  C317 9350   1.794   1.379   4.989  0.6945  0.7737  0.4108
   95SAPC  H17X 9351   1.817   1.287   4.932  0.7172 -0.0962  1.7596
   95SAPC  H17Y 9352   1.696   1.414   4.950  0.7239 -1.3392 -1.7742
   95SAPC  C318 9353   1.781   1.343   5.137 -0.2301  0.0687  0.3639
   95SAPC  H18X 9354   1.722   1.248   5.138 -0.1348  0.0048  0.1464
   95SAPC  H18Y 9355   1.732   1.428   5.188  0.0560  1.5022 -1.6540
   95SAPC  H18Z 9356   1.880   1.319   5.181 -0.5960 -1.8365  0.2607
   96SAPC     N 9357   6.159   5.256   2.462  0.7646  0.2935 -0.4918
   96SAPC   C12 9358   6.209   5.281   2.602 -0.4268 -0.6543  0.1435
   96SAPC  H12A 9359   6.288   5.354   2.597  0.6745 -1.8451 -0.5192
   96SAPC  H12B 9360   6.263   5.193   2.634  0.0975 -1.0897 -1.8365
   96SAPC   C13 9361   6.039   5.165   2.464  0.1751  0.6566 -0.2591
   96SAPC  H13A 9362   5.972   5.196   2.543 -1.0482 -0.2445 -0.9019
   96SAPC  H13B 9363   5.989   5.162   2.368  0.1409 -3.8444 -0.3135
   96SAPC  H13C 9364   6.064   5.062   2.482 -3.0063 -0.1304  0.2020
   96SAPC   C14 9365   6.133   5.384   2.397  0.3030 -0.2289  0.6611
   96SAPC  H14A 9366   6.080   5.437   2.475 -0.7891 -1.9894  1.1952
   96SAPC  H14B 9367   6.226   5.432   2.372 -0.7365  0.8871 -1.3148
   96SAPC  H14C 9368   6.069   5.379   2.309  3.0422 -0.4134 -1.4514
   96SAPC   C15 9369   6.260   5.198   2.367 -0.3193 -0.1324  0.5081
   96SAPC  H15A 9370   6.213   5.183   2.271  2.0649 -0.0224 -0.7395
   96SAPC  H15B 9371   6.341   5.267   2.349  0.8716 -1.6148 -0.0572
   96SAPC  H15C 9372   6.294   5.104   2.409  0.0181 -0.8635 -1.2910
   96SAPC   C11 9373   6.103   5.323   2.708 -0.3917  0.6665 -0.1603
   96SAPC  H11A 9374   6.067   5.427   2.689 -1.5223  0.5146  0.9814
   96SAPC  H11B 9375   6.148   5.326   2.809 -2.6656 -2.5650  1.1109
   96SAPC     P 9376   5.857   5.314   2.768  0.0330 -0.0211 -0.1622
   96SAPC   O13 9377   5.817   5.410   2.663  0.1956  0.3878  0.3764
   96SAPC   O14 9378   5.762   5.205   2.811 -0.4341 -0.0962 -0.2230
   96SAPC   O12 9379   5.992   5.236   2.717 -0.1020  0.3605 -0.2784
   96SAPC   O11 9380   5.906   5.399   2.892  0.3534 -0.5045  0.0833
   96SAPC    C1 9381   5.941   5.326   3.008  0.6414  0.7540  0.8260
   96SAPC    HA 9382   5.969   5.220   2.991  1.0581  1.1224 -0.9679
   96SAPC    HB 9383   6.038   5.360   3.050  1.7791 -4.0021  2.6865
   96SAPC    C2 9384   5.835   5.326   3.118 -0.2202  0.8034  0.8626
   96SAPC    HS 9385   5.746   5.288   3.064  0.6102  1.5447 -1.1261
   96SAPC   O21 9386   5.827   5.459   3.173 -0.3154 -0.7312 -0.4899
   96SAPC   C21 9387   5.732   5.535   3.133 -0.5724 -0.5794  0.1650
   96SAPC   O22 9388   5.660   5.523   3.038 -0.0533 -0.3469 -0.2986
   96SAPC   C22 9389   5.715   5.669   3.210 -0.1420 -0.0295  0.0657
   96SAPC   H2R 9390   5.664   5.742   3.144 -0.8906 -0.4562  0.1505
   96SAPC   H2S 9391   5.653   5.641   3.298  0.8692  1.6846  1.3942
   96SAPC    C3 9392   5.877   5.219   3.230 -0.6033 -0.4312 -0.0035
   96SAPC    HX 9393   5.976   5.263   3.253 -1.1295  0.6043  0.3431
   96SAPC    HY 9394   5.883   5.116   3.187  2.4610  0.1029 -1.1004
   96SAPC   O31 9395   5.794   5.236   3.348 -0.5312  0.3628 -0.1963
   96SAPC   C31 9396   5.821   5.139   3.434  0.0004  0.3132 -0.0418
   96SAPC   O32 9397   5.900   5.047   3.412  0.3109 -0.6635 -0.1828
   96SAPC   C32 9398   5.718   5.134   3.549  0.4570 -0.1255 -0.0284
   96SAPC   H2X 9399   5.626   5.079   3.521  0.2904 -0.6940  1.5158
   96SAPC   H2Y 9400   5.694   5.234   3.590  2.2540 -0.4348  2.0177
   96SAPC   C23 9401   5.848   5.715   3.276  0.4277 -0.4651 -0.3146
   96SAPC   H3R 9402   5.928   5.714   3.199  1.5778 -0.8710  0.8443
   96SAPC   H3S 9403   5.881   5.629   3.339  2.3718 -0.0490 -0.6922
   96SAPC   C24 9404   5.847   5.854   3.346  0.1290  0.2006 -0.3245
   96SAPC   H4R 9405   5.807   5.923   3.268  2.7535  0.7108 -1.3499
   96SAPC   H4S 9406   5.950   5.896   3.352 -0.7172  2.5342 -0.9840
   96SAPC   C25 9407   5.763   5.861   3.473  0.9160  0.6518 -0.0844
   96SAPC   H5R 9408   5.656   5.843   3.454  0.4297  0.2570  2.6116
   96SAPC   C26 9409   5.807   5.835   3.595 -0.1793 -0.4509  0.1042
   96SAPC   H6R 9410   5.737   5.849   3.679  0.6518 -0.8025  0.8771
   96SAPC   C27 9411   5.953   5.813   3.638 -0.1389  0.2804 -0.4502
   96SAPC   H7R 9412   5.964   5.874   3.730 -0.5244 -0.5814  0.1849
   96SAPC   H7S 9413   6.026   5.847   3.562 -0.6843 -0.4571 -1.3312
   96SAPC   C28 9414   5.974   5.665   3.665 -0.2460 -0.2258 -0.3159
   96SAPC   H8R 9415   5.953   5.592   3.586  2.8048 -1.1459 -0.4150
   96SAPC   C29 9416   6.002   5.603   3.783 -1.2734 -0.3093  0.2688
   96SAPC   H9R 9417   5.999   5.493   3.785 -0.9823 -0.3490  2.7990
   96SAPC  C210 9418   6.022   5.672   3.911  0.3717 -0.0765  0.0663
   96SAPC  H10R 9419   6.096   5.754   3.903  2.6158 -2.0095 -0.3019
   96SAPC  H10S 9420   6.071   5.597   3.978  0.8868  1.2381  1.2186
   96SAPC  C211 9421   5.896   5.720   3.977  0.0901  0.0940  0.0887
   96SAPC  H11R 9422   5.801   5.683   3.935 -0.3529  0.2425  0.9450
   96SAPC  C212 9423   5.900   5.789   4.093 -0.1173  0.6681 -0.9317
   96SAPC  H12R 9424   5.806   5.813   4.146  0.2793  0.2101 -0.0035
   96SAPC  C213 9425   6.029   5.829   4.161  0.4122  0.6051 -0.2382
   96SAPC  H13R 9426   6.082   5.905   4.100  2.0606  1.0139  1.5825
   96SAPC  H13S 9427   6.101   5.744   4.164  0.6579  0.3826 -5.0900
   96SAPC  C214 9428   6.015   5.889   4.291 -0.2466 -0.4882 -0.9569
   96SAPC  H14R 9429   5.939   5.840   4.354  0.4810 -0.4070 -0.0008
   96SAPC  C215 9430   6.081   5.996   4.344  0.1979  0.3004  0.1523
   96SAPC  H15R 9431   6.047   6.028   4.443 -0.9002  0.5298 -0.2783
   96SAPC  C216 9432   6.191   6.082   4.290 -0.3416 -0.0049  0.0041
   96SAPC  H16R 9433   6.155   6.186   4.279 -0.9404 -0.2602 -0.5316
   96SAPC  H16S 9434   6.233   6.049   4.192  0.9457 -1.0320  0.8610
   96SAPC  C217 9435   6.313   6.085   4.384  0.7494 -0.2447  0.4873
   96SAPC  H17R 9436   6.282   6.141   4.475  0.1990  0.1386  0.0776
   96SAPC  H17S 9437   6.393   6.148   4.338  3.8473 -2.8504  1.9669
   96SAPC  C218 9438   6.367   5.944   4.425  0.3653  0.5362 -0.4724
   96SAPC  H18R 9439   6.401   5.896   4.331 -1.7924 -1.0645 -0.4941
   96SAPC  H18S 9440   6.290   5.873   4.460  0.2603  0.8594 -0.0356
   96SAPC  C219 9441   6.475   5.957   4.531  1.2441 -0.2808  0.2276
   96SAPC  H19R 9442   6.431   6.009   4.619 -0.8697  1.4954 -1.7386
   96SAPC  H19S 9443   6.565   6.010   4.495  0.1661  2.0962  0.8349
   96SAPC  C220 9444   6.531   5.818   4.572  0.1111 -0.0887 -0.3977
   96SAPC  H20R 9445   6.450   5.742   4.583  1.4186 -1.5429 -0.5059
   96SAPC  H20S 9446   6.600   5.831   4.658 -2.3139 -1.8965  1.9993
   96SAPC  H20T 9447   6.595   5.784   4.488  2.2480 -1.3763  1.6061
   96SAPC   C33 9448   5.755   5.039   3.675 -0.3173  0.4860  0.2292
   96SAPC   H3X 9449   5.838   5.065   3.744  0.1715 -0.1859 -0.1014
   96SAPC   H3Y 9450   5.782   4.938   3.639 -1.2456  0.3564 -0.1263
   96SAPC   C34 9451   5.628   5.015   3.759  0.9073 -0.3353 -0.1232
   96SAPC   H4X 9452   5.556   4.958   3.697  0.3430 -0.8166  0.9359
   96SAPC   H4Y 9453   5.581   5.111   3.789  0.3452 -0.4421 -0.6687
   96SAPC   C35 9454   5.653   4.937   3.889 -0.1239  0.6588  0.0639
   96SAPC   H5X 9455   5.735   4.982   3.949  0.3011  0.3336 -0.2693
   96SAPC   H5Y 9456   5.685   4.839   3.846  0.6537  1.6301 -1.6635
   96SAPC   C36 9457   5.527   4.920   3.985 -0.4808 -0.0250  0.6841
   96SAPC   H6X 9458   5.455   4.850   3.937 -1.0069 -0.3230  1.8694
   96SAPC   H6Y 9459   5.479   5.021   3.992  0.2827  0.5779 -1.8176
   96SAPC   C37 9460   5.562   4.879   4.122 -0.5338 -0.6304  0.3378
   96SAPC   H7X 9461   5.467   4.861   4.177 -0.2862 -1.1988  0.5901
   96SAPC   H7Y 9462   5.614   4.963   4.174  1.5668 -1.9802  0.5631
   96SAPC   C38 9463   5.652   4.757   4.129 -0.0211  0.1585  0.5990
   96SAPC   H8X 9464   5.749   4.781   4.081  0.9773 -0.4279  2.2262
   96SAPC   H8Y 9465   5.598   4.676   4.074  0.2392  0.0493  0.5032
   96SAPC   C39 9466   5.683   4.716   4.274 -0.3173  0.0975 -0.4039
   96SAPC   H9X 9467   5.705   4.806   4.335  2.6793  0.6992 -2.1705
   96SAPC   H9Y 9468   5.778   4.660   4.273  1.4552  2.8966 -1.8038
   96SAPC  C310 9469   5.568   4.633   4.335  0.0074  0.4861 -0.4447
   96SAPC  H10X 9470   5.576   4.543   4.270  2.8115  0.1754  0.2232
   96SAPC  H10Y 9471   5.475   4.693   4.328  0.1612  1.0429  1.6557
   96SAPC  C311 9472   5.593   4.579   4.480  0.2146  0.2270 -0.2685
   96SAPC  H11X 9473   5.684   4.516   4.483  0.6587  0.5582 -3.2553
   96SAPC  H11Y 9474   5.499   4.526   4.507  0.0276  0.5281 -0.3181
   96SAPC  C312 9475   5.597   4.688   4.591 -0.7574  0.1108  0.7898
   96SAPC  H12X 9476   5.678   4.758   4.562 -0.2038 -0.9750 -0.4141
   96SAPC  H12Y 9477   5.635   4.633   4.679 -0.2900 -1.9478 -0.6241
   96SAPC  C313 9478   5.473   4.777   4.613  0.0770  0.3675  0.9665
   96SAPC  H13X 9479   5.399   4.700   4.645  0.3280 -0.4961 -0.4435
   96SAPC  H13Y 9480   5.445   4.820   4.515  0.5905 -0.9054  0.2326
   96SAPC  C314 9481   5.475   4.872   4.731  0.4303  0.1993  0.2797
   96SAPC  H14X 9482   5.377   4.924   4.741  0.6402  0.9207 -1.1076
   96SAPC  H14Y 9483   5.562   4.940   4.720  1.7181 -1.5089 -0.5150
   96SAPC  C315 9484   5.488   4.803   4.866  1.0144  0.9497  0.4011
   96SAPC  H15X 9485   5.580   4.741   4.879  1.3157  1.7921  2.8760
   96SAPC  H15Y 9486   5.401   4.736   4.874  0.6612  1.4332  0.6734
   96SAPC  C316 9487   5.483   4.901   4.989 -0.5843  0.1123 -0.9750
   96SAPC  H16X 9488   5.397   4.970   4.979  0.5161  2.4758  3.3083
   96SAPC  H16Y 9489   5.575   4.962   5.001  0.2459 -1.2064 -0.3584
   96SAPC  C317 9490   5.459   4.834   5.124  0.1504 -0.1648  0.6234
   96SAPC  H17X 9491   5.543   4.765   5.147 -0.1415 -0.5932  0.4131
   96SAPC  H17Y 9492   5.363   4.778   5.120 -1.0546  1.8612 -0.9396
   96SAPC  C318 9493   5.445   4.930   5.237  0.3189 -0.4961  0.0024
   96SAPC  H18X 9494   5.338   4.942   5.265  0.2207  1.6592 -1.1483
   96SAPC  H18Y 9495   5.482   5.031   5.209  0.2742 -0.4969 -0.0612
   96SAPC  H18Z 9496   5.499   4.898   5.329 -1.0626 -1.2093  0.5886
   97SAPC     N 9497   0.167   4.908   2.766 -0.9630  0.2389  0.2033
   97SAPC   C12 9498   0.067   4.905   2.879  0.2597  0.6820  0.9703
   97SAPC  H12A 9499   0.088   4.817   2.938 -0.5722 -1.8228 -2.1829
   97SAPC  H12B 9500  -0.030   4.889   2.835  1.5398  1.2764 -2.3797
   97SAPC   C13 9501   0.135   5.017   2.661 -0.0245  0.5650  0.4281
   97SAPC  H13A 9502   0.034   5.017   2.624  1.0498  0.5296 -2.8391
   97SAPC  H13B 9503   0.147   5.117   2.701 -2.0664  0.9140  0.2842
   97SAPC  H13C 9504   0.197   5.011   2.573  0.0198  2.7179  0.2498
   97SAPC   C14 9505   0.309   4.939   2.815  0.4391 -0.0722 -0.5867
   97SAPC  H14A 9506   0.379   4.957   2.734 -0.0936 -2.6970 -1.7166
   97SAPC  H14B 9507   0.309   5.017   2.890  1.5461  0.4099 -1.0620
   97SAPC  H14C 9508   0.349   4.851   2.861 -0.7742  0.0908  0.8634
   97SAPC   C15 9509   0.153   4.778   2.692 -0.6263 -0.4011 -0.4897
   97SAPC  H15A 9510   0.198   4.769   2.594  0.5824 -1.4570  0.1307
   97SAPC  H15B 9511   0.202   4.703   2.753  1.6299  0.5401 -1.0613
   97SAPC  H15C 9512   0.049   4.754   2.677 -0.1434 -3.4892  0.2539
   97SAPC   C11 9513   0.059   5.025   2.968  0.2602  0.7355  1.2402
   97SAPC  H11A 9514   0.160   5.061   2.997  1.5751 -3.0751  1.9416
   97SAPC  H11B 9515   0.014   4.997   3.066 -1.3516 -0.3728  0.2316
   97SAPC     P 9516  -0.178   5.103   2.909 -0.0519 -0.0042 -0.1199
   97SAPC   O13 9517  -0.249   5.196   2.820 -0.3428  0.1475  0.3320
   97SAPC   O14 9518  -0.214   4.961   2.892  0.3290  0.4863 -0.1314
   97SAPC   O12 9519  -0.018   5.127   2.907  0.7196 -0.0235  0.0771
   97SAPC   O11 9520  -0.206   5.150   3.061  0.2357 -0.1622 -0.0756
   97SAPC    C1 9521  -0.152   5.271   3.117  0.1679 -0.0273 -0.1505
   97SAPC    HA 9522  -0.104   5.329   3.035  2.2558 -1.4469 -0.0060
   97SAPC    HB 9523  -0.234   5.337   3.150  0.8275  0.1391  1.2193
   97SAPC    C2 9524  -0.033   5.244   3.220 -0.2692  0.0853  0.2462
   97SAPC    HS 9525   0.046   5.188   3.165  0.7475 -0.0073  1.7275
   97SAPC   O21 9526  -0.090   5.187   3.340 -0.2181 -0.2490 -0.0017
   97SAPC   C21 9527  -0.021   5.082   3.394 -0.0703 -0.3881  0.3043
   97SAPC   O22 9528   0.079   5.037   3.346 -0.1605  0.0805 -0.4094
   97SAPC   C22 9529  -0.093   5.027   3.521 -0.2081  0.4873  0.8553
   97SAPC   H2R 9530  -0.070   5.098   3.604 -0.1128 -1.2709  2.3919
   97SAPC   H2S 9531  -0.202   5.038   3.503 -0.4312 -1.7786  0.5102
   97SAPC    C3 9532   0.038   5.374   3.252 -0.6594  0.1102 -0.5948
   97SAPC    HX 9533  -0.041   5.448   3.279  0.9309  0.6541  3.2165
   97SAPC    HY 9534   0.084   5.396   3.153  1.4818  0.1724  0.3472
   97SAPC   O31 9535   0.128   5.353   3.363 -0.4335  0.1074  0.1120
   97SAPC   C31 9536   0.246   5.310   3.316  0.3867 -0.2949 -0.7828
   97SAPC   O32 9537   0.278   5.291   3.203  0.1768 -0.0087 -0.1278
   97SAPC   C32 9538   0.334   5.300   3.432 -0.2125 -0.2972  0.4376
   97SAPC   H2X 9539   0.274   5.312   3.525 -1.7601  0.7467 -0.6297
   97SAPC   H2Y 9540   0.396   5.392   3.431 -0.6511  0.0186  1.2220
   97SAPC   C23 9541  -0.052   4.879   3.546  0.2521 -0.0269 -0.9596
   97SAPC   H3R 9542  -0.073   4.851   3.651  1.6657  1.7264 -0.1631
   97SAPC   H3S 9543   0.059   4.867   3.544  0.0107 -3.2210 -0.0480
   97SAPC   C24 9544  -0.104   4.770   3.451 -0.8061 -0.2858  0.1771
   97SAPC   H4R 9545  -0.063   4.799   3.353 -0.6246  1.2261  0.6719
   97SAPC   H4S 9546  -0.214   4.772   3.434 -0.5103  0.2974 -1.8692
   97SAPC   C25 9547  -0.068   4.626   3.480  0.2197 -0.4247 -0.4179
   97SAPC   H5R 9548   0.023   4.594   3.428  0.7160 -0.0295  0.1838
   97SAPC   C26 9549  -0.136   4.537   3.561 -0.8919 -0.5713  0.1027
   97SAPC   H6R 9550  -0.083   4.444   3.588  5.0840  2.0379 -1.0061
   97SAPC   C27 9551  -0.269   4.560   3.630 -0.7005 -0.3800 -0.1863
   97SAPC   H7R 9552  -0.310   4.472   3.683 -1.8823 -0.2931 -0.9280
   97SAPC   H7S 9553  -0.354   4.583   3.562 -1.4468 -1.8296  0.2020
   97SAPC   C28 9554  -0.254   4.672   3.730  0.5080 -0.2716  0.0684
   97SAPC   H8R 9555  -0.246   4.772   3.685 -2.3578 -0.1470 -0.3457
   97SAPC   C29 9556  -0.255   4.669   3.867 -0.3235 -0.1998 -0.3052
   97SAPC   H9R 9557  -0.242   4.760   3.926  0.5967  0.0171 -0.8332
   97SAPC  C210 9558  -0.273   4.545   3.961 -0.4956 -0.5396  0.2060
   97SAPC  H10R 9559  -0.243   4.453   3.907 -1.7097 -0.2256 -1.0499
   97SAPC  H10S 9560  -0.382   4.533   3.977 -0.5400  0.8001  1.0980
   97SAPC  C211 9561  -0.213   4.555   4.100  0.4612  0.4227 -0.7701
   97SAPC  H11R 9562  -0.104   4.541   4.093  0.7265  1.9400 -0.1156
   97SAPC  C212 9563  -0.271   4.573   4.223  0.1497  0.1604 -0.4420
   97SAPC  H12R 9564  -0.212   4.566   4.316  1.0809 -2.2148 -1.1612
   97SAPC  C213 9565  -0.420   4.599   4.246 -0.9629 -0.2892  0.0354
   97SAPC  H13R 9566  -0.473   4.628   4.153  0.3661  2.2418 -0.0203
   97SAPC  H13S 9567  -0.431   4.693   4.303 -1.5733  0.0485 -0.6346
   97SAPC  C214 9568  -0.490   4.492   4.326 -0.5903 -0.0377 -0.1531
   97SAPC  H14R 9569  -0.451   4.475   4.428 -2.6849 -1.5916  0.4713
   97SAPC  C215 9570  -0.613   4.446   4.295  0.3615 -0.5866 -0.4065
   97SAPC  H15R 9571  -0.677   4.392   4.366  1.1784  0.3483  1.0987
   97SAPC  C216 9572  -0.667   4.459   4.160  0.3884 -0.6778  0.1653
   97SAPC  H16R 9573  -0.592   4.424   4.086 -1.5396 -1.5579 -1.4789
   97SAPC  H16S 9574  -0.700   4.560   4.127 -1.5513 -1.3609 -0.1672
   97SAPC  C217 9575  -0.810   4.399   4.132  0.0119 -0.2953 -0.8790
   97SAPC  H17R 9576  -0.898   4.437   4.189 -0.7389 -0.6562 -1.7783
   97SAPC  H17S 9577  -0.801   4.291   4.155 -0.7442  0.0696  1.4491
   97SAPC  C218 9578  -0.853   4.427   3.980 -0.6231  0.0778  0.3651
   97SAPC  H18R 9579  -0.769   4.392   3.917  1.6329 -0.3035  3.3606
   97SAPC  H18S 9580  -0.876   4.535   3.971  0.2075  0.4061  1.8845
   97SAPC  C219 9581  -0.970   4.342   3.941  0.6987  0.9977  0.9188
   97SAPC  H19R 9582  -1.065   4.367   3.994 -0.5253 -0.1174 -0.6728
   97SAPC  H19S 9583  -0.952   4.233   3.931 -2.3704  0.5224 -0.8289
   97SAPC  C220 9584  -0.997   4.372   3.787 -0.4456 -0.3002  0.1872
   97SAPC  H20R 9585  -1.050   4.469   3.780  0.2405  0.0170 -0.8272
   97SAPC  H20S 9586  -1.065   4.307   3.729 -2.0588  2.4368 -1.1722
   97SAPC  H20T 9587  -0.903   4.368   3.728 -0.0868 -1.3241  0.7955
   97SAPC   C33 9588   0.431   5.182   3.428 -0.4896 -1.0613 -0.0406
   97SAPC   H3X 9589   0.500   5.189   3.342  0.6036  0.7537  0.9304
   97SAPC   H3Y 9590   0.367   5.090   3.424 -1.0765 -0.7908  1.9207
   97SAPC   C34 9591   0.526   5.176   3.550 -0.0682  0.5100 -0.2348
   97SAPC   H4X 9592   0.620   5.234   3.537  0.7905 -0.5187  1.0444
   97SAPC   H4Y 9593   0.566   5.072   3.550  0.2950  0.6453 -0.6086
   97SAPC   C35 9594   0.476   5.223   3.691  0.1667  0.7817  0.3385
   97SAPC   H5X 9595   0.373   5.188   3.709 -0.2733  1.1419 -1.2825
   97SAPC   H5Y 9596   0.472   5.333   3.709  1.6887  0.6479  1.6943
   97SAPC   C36 9597   0.562   5.180   3.814  0.0531  0.4203 -0.0340
   97SAPC   H6X 9598   0.665   5.222   3.802 -0.8452  2.6031 -0.6378
   97SAPC   H6Y 9599   0.566   5.070   3.829  0.6835  0.6043  1.3282
   97SAPC   C37 9600   0.495   5.247   3.935 -0.5503 -1.2017  0.0294
   97SAPC   H7X 9601   0.387   5.225   3.936 -0.9719  0.6323  1.6979
   97SAPC   H7Y 9602   0.495   5.358   3.927 -0.7492 -1.3334 -2.0845
   97SAPC   C38 9603   0.566   5.212   4.068  0.0039  0.2875 -0.7388
   97SAPC   H8X 9604   0.676   5.226   4.061 -0.1871  1.7424 -1.1273
   97SAPC   H8Y 9605   0.534   5.106   4.080 -0.1468  0.0844 -2.6399
   97SAPC   C39 9606   0.516   5.289   4.190  0.8434  0.1553  0.2822
   97SAPC   H9X 9607   0.499   5.398   4.172 -0.1081 -0.2296 -1.3421
   97SAPC   H9Y 9608   0.586   5.280   4.276 -0.9046  3.3493  2.2367
   97SAPC  C310 9609   0.373   5.236   4.242 -0.1189 -0.1159  0.0935
   97SAPC  H10X 9610   0.377   5.127   4.225 -1.9377 -0.1591 -0.2641
   97SAPC  H10Y 9611   0.292   5.270   4.175 -2.3334 -3.0783  1.0554
   97SAPC  C311 9612   0.337   5.271   4.385 -0.0597 -0.1693  0.1409
   97SAPC  H11X 9613   0.305   5.377   4.380  0.5162 -0.0041 -0.1699
   97SAPC  H11Y 9614   0.435   5.268   4.439 -0.4030 -1.0957  0.7385
   97SAPC  C312 9615   0.243   5.172   4.457 -0.0433 -0.2568  0.1486
   97SAPC  H12X 9616   0.288   5.071   4.448 -1.5308 -0.8727 -0.7779
   97SAPC  H12Y 9617   0.148   5.162   4.401 -0.1267 -0.9852  0.4149
   97SAPC  C313 9618   0.213   5.197   4.604  0.2346 -0.0296 -0.7557
   97SAPC  H13X 9619   0.111   5.239   4.614  1.1956  2.6564 -1.3107
   97SAPC  H13Y 9620   0.277   5.280   4.642 -0.2688  0.3809 -0.7988
   97SAPC  C314 9621   0.233   5.088   4.707 -0.3615  0.5512  0.6107
   97SAPC  H14X 9622   0.188   4.995   4.666  3.2789 -1.5293  0.9361
   97SAPC  H14Y 9623   0.179   5.114   4.801 -1.9841  1.2892 -0.4756
   97SAPC  C315 9624   0.374   5.073   4.759 -0.3607  0.3186  0.2466
   97SAPC  H15X 9625   0.402   5.173   4.800 -2.3694  1.4074 -0.8729
   97SAPC  H15Y 9626   0.426   5.048   4.664  1.6470  1.0238  1.1029
   97SAPC  C316 9627   0.398   4.977   4.877  0.6009 -0.5010  0.5284
   97SAPC  H16X 9628   0.505   4.966   4.903  0.6996  1.8125  1.2582
   97SAPC  H16Y 9629   0.349   4.881   4.850  0.6430 -0.1700 -0.7973
   97SAPC  C317 9630   0.345   5.024   5.005 -0.4928  0.1885  0.3985
   97SAPC  H17X 9631   0.234   5.019   5.005 -0.5700 -1.4308 -3.0202
   97SAPC  H17Y 9632   0.388   5.126   5.018  3.0673 -1.2780  1.1864
   97SAPC  C318 9633   0.400   4.955   5.138  0.5338  0.6006  0.9757
   97SAPC  H18X 9634   0.343   4.859   5.145 -0.8869  1.2262 -1.0069
   97SAPC  H18Y 9635   0.372   5.017   5.225  3.2358  1.9687  0.9633
   97SAPC  H18Z 9636   0.510   4.938   5.146  0.8845  2.8033  1.3633
   98SAPC     N 9637   0.334   3.416   2.647 -0.1734  0.3994 -0.9424
   98SAPC   C12 9638   0.368   3.519   2.758  0.0922 -0.2560  0.2719
   98SAPC  H12A 9639   0.276   3.565   2.790 -1.2594 -2.2796 -0.4753
   98SAPC  H12B 9640   0.421   3.600   2.710  0.3198 -0.5988 -0.0640
   98SAPC   C13 9641   0.461   3.379   2.572 -0.2325  0.6153  0.1307
   98SAPC  H13A 9642   0.433   3.293   2.512  0.4547 -0.3351  1.1226
   98SAPC  H13B 9643   0.506   3.459   2.516 -0.0489  1.6934  1.7508
   98SAPC  H13C 9644   0.539   3.347   2.641  0.8326  4.5781  1.0135
   98SAPC   C14 9645   0.278   3.291   2.715  0.7330 -0.7529 -1.2350
   98SAPC  H14A 9646   0.349   3.235   2.773 -0.0885 -1.8800 -1.2694
   98SAPC  H14B 9647   0.206   3.328   2.787  0.9542  1.1371 -1.9269
   98SAPC  H14C 9648   0.229   3.226   2.644 -0.9378  2.4587 -3.2890
   98SAPC   C15 9649   0.226   3.469   2.554 -0.5786 -0.4301 -0.5010
   98SAPC  H15A 9650   0.128   3.455   2.596 -1.1399 -0.2793 -1.7388
   98SAPC  H15B 9651   0.247   3.570   2.523 -0.6155 -0.4687 -0.6487
   98SAPC  H15C 9652   0.229   3.410   2.464  2.1056  0.3737 -1.0247
   98SAPC   C11 9653   0.440   3.482   2.888 -0.3935 -0.6683  0.2796
   98SAPC  H11A 9654   0.373   3.405   2.930 -1.9895 -1.1788 -2.8486
   98SAPC  H11B 9655   0.440   3.579   2.942  0.9517  1.6935 -3.5303
   98SAPC     P 9656   0.613   3.290   2.882  0.8459 -0.2532  0.2582
   98SAPC   O13 9657   0.495   3.214   2.915  0.8069  0.2606  0.1166
   98SAPC   O14 9658   0.684   3.243   2.764  0.6317  0.2451  0.0827
   98SAPC   O12 9659   0.574   3.438   2.865  0.0888 -0.1724 -0.0802
   98SAPC   O11 9660   0.710   3.281   3.003 -0.3672 -0.4541  0.2974
   98SAPC    C1 9661   0.752   3.408   3.068  0.1173  1.0689 -0.6225
   98SAPC    HA 9662   0.855   3.440   3.041  0.0449  1.3434 -0.5705
   98SAPC    HB 9663   0.683   3.494   3.055  0.8278  1.8611  0.6423
   98SAPC    C2 9664   0.775   3.391   3.223 -0.2077  0.2242  0.2646
   98SAPC    HS 9665   0.853   3.317   3.251 -2.9329 -2.2338  1.9860
   98SAPC   O21 9666   0.652   3.358   3.285 -0.4070 -0.0554 -0.2315
   98SAPC   C21 9667   0.612   3.239   3.281  0.1468 -0.8586 -0.7957
   98SAPC   O22 9668   0.680   3.138   3.256 -0.1960  0.1165  0.0767
   98SAPC   C22 9669   0.478   3.217   3.347  0.0644 -0.1760 -0.2850
   98SAPC   H2R 9670   0.433   3.311   3.384  0.0328 -0.0717 -0.5898
   98SAPC   H2S 9671   0.414   3.167   3.270  1.7806 -0.4554 -1.5988
   98SAPC    C3 9672   0.830   3.524   3.276  0.0876 -0.2447  0.4628
   98SAPC    HX 9673   0.768   3.613   3.253 -0.1667  0.0873  2.2611
   98SAPC    HY 9674   0.926   3.557   3.231 -1.2149  0.9120 -1.6029
   98SAPC   O31 9675   0.854   3.520   3.417 -0.2455  0.0795 -0.2390
   98SAPC   C31 9676   0.797   3.611   3.492  0.4541 -0.0146  0.3451
   98SAPC   O32 9677   0.716   3.690   3.452 -0.1528 -0.2146  0.1193
   98SAPC   C32 9678   0.829   3.601   3.637  0.2891 -0.1420 -0.2652
   98SAPC   H2X 9679   0.940   3.614   3.634  0.2929 -0.3116 -1.3652
   98SAPC   H2Y 9680   0.800   3.501   3.674 -0.9514  0.3687  0.1863
   98SAPC   C23 9681   0.476   3.137   3.483  0.0579  0.5812 -0.2913
   98SAPC   H3R 9682   0.504   3.031   3.465 -0.6994  0.3931 -0.3974
   98SAPC   H3S 9683   0.375   3.145   3.529  0.4905  1.9932  0.4505
   98SAPC   C24 9684   0.575   3.196   3.588 -0.0361 -0.3491  0.2439
   98SAPC   H4R 9685   0.681   3.190   3.553  0.4282 -0.8358  1.6627
   98SAPC   H4S 9686   0.566   3.137   3.682 -2.4182 -1.4862 -0.6125
   98SAPC   C25 9687   0.537   3.337   3.628  0.2557 -0.3971  0.4170
   98SAPC   H5R 9688   0.522   3.414   3.551 -0.6860  0.4805  1.4403
   98SAPC   C26 9689   0.528   3.383   3.749  0.0360 -0.8156 -0.5381
   98SAPC   H6R 9690   0.514   3.491   3.767 -0.2832 -0.6275 -1.8511
   98SAPC   C27 9691   0.553   3.319   3.881 -0.0618  0.2567 -0.5405
   98SAPC   H7R 9692   0.578   3.211   3.884 -0.6326  0.1432  0.7346
   98SAPC   H7S 9693   0.459   3.333   3.938  1.8230  2.5085  2.3251
   98SAPC   C28 9694   0.651   3.393   3.967 -0.1482  0.4067 -0.5000
   98SAPC   H8R 9695   0.705   3.477   3.920 -0.2152  0.0483 -1.2297
   98SAPC   C29 9696   0.669   3.368   4.097 -0.3914  0.5511 -0.4783
   98SAPC   H9R 9697   0.732   3.435   4.156  1.3728 -1.1287 -0.3819
   98SAPC  C210 9698   0.616   3.252   4.185  0.5405 -0.4741 -0.6866
   98SAPC  H10R 9699   0.699   3.213   4.248 -1.0617 -0.1533  1.7819
   98SAPC  H10S 9700   0.579   3.164   4.128  1.8292 -1.5949  0.1380
   98SAPC  C211 9701   0.510   3.311   4.278  0.4146 -0.0523 -0.7867
   98SAPC  H11R 9702   0.440   3.383   4.233  0.7054  0.4883 -0.3828
   98SAPC  C212 9703   0.476   3.278   4.404 -0.3102  0.1163  0.2958
   98SAPC  H12R 9704   0.388   3.320   4.456 -0.6401  1.3305 -1.1905
   98SAPC  C213 9705   0.535   3.164   4.482  0.2369 -0.8605  0.6883
   98SAPC  H13R 9706   0.595   3.092   4.423 -0.3100 -2.6745  2.2385
   98SAPC  H13S 9707   0.450   3.097   4.508 -0.6713 -0.9804 -2.2317
   98SAPC  C214 9708   0.609   3.214   4.606 -0.1029 -1.2035 -0.3023
   98SAPC  H14R 9709   0.687   3.291   4.597 -0.0834 -1.4324 -2.8007
   98SAPC  C215 9710   0.589   3.166   4.729  0.1162 -0.0139 -0.3560
   98SAPC  H15R 9711   0.649   3.208   4.811  0.9172 -1.1133 -0.3611
   98SAPC  C216 9712   0.495   3.053   4.772  0.5876 -0.5642 -0.1463
   98SAPC  H16R 9713   0.510   2.956   4.720 -1.7156 -0.3725 -1.2915
   98SAPC  H16S 9714   0.389   3.081   4.756  0.9356  0.1163 -1.4202
   98SAPC  C217 9715   0.524   3.012   4.920  0.9214 -0.8384  0.1569
   98SAPC  H17R 9716   0.439   2.951   4.957 -2.0702  2.5383 -0.5545
   98SAPC  H17S 9717   0.518   3.099   4.989  0.1880  0.3737 -1.3643
   98SAPC  C218 9718   0.662   2.942   4.933  0.3944  0.0627 -0.1453
   98SAPC  H18R 9719   0.748   3.010   4.914  0.4447  0.9154  2.6805
   98SAPC  H18S 9720   0.672   2.864   4.856  0.3604  0.0271 -0.1136
   98SAPC  C219 9721   0.675   2.887   5.077 -0.5402 -0.0111 -0.1524
   98SAPC  H19R 9722   0.591   2.816   5.097 -0.7332 -0.3565 -2.0323
   98SAPC  H19S 9723   0.676   2.974   5.146  1.5245  0.1801 -0.3808
   98SAPC  C220 9724   0.811   2.820   5.104 -0.3205 -1.2632 -0.1621
   98SAPC  H20R 9725   0.886   2.900   5.123 -1.2468 -0.6874  1.2359
   98SAPC  H20S 9726   0.841   2.755   5.019 -0.2222 -0.1757 -0.9836
   98SAPC  H20T 9727   0.797   2.758   5.195  0.5704  0.9169  1.5442
   98SAPC   C33 9728   0.755   3.707   3.729 -0.0104 -0.1246 -0.3584
   98SAPC   H3X 9729   0.768   3.674   3.834 -2.4581 -1.2890 -0.3660
   98SAPC   H3Y 9730   0.644   3.712   3.722 -0.1333 -1.6207  0.0775
   98SAPC   C34 9731   0.811   3.850   3.702  0.7100  0.4916  0.5271
   98SAPC   H4X 9732   0.757   3.916   3.773 -1.1001 -0.0215 -0.3053
   98SAPC   H4Y 9733   0.776   3.869   3.598 -0.3488 -3.6594 -0.0332
   98SAPC   C35 9734   0.963   3.870   3.710 -0.0086 -0.2085  0.2955
   98SAPC   H5X 9735   0.989   3.978   3.702  2.4688 -0.6342  1.5954
   98SAPC   H5Y 9736   1.003   3.807   3.627 -0.9368  0.3860 -0.6335
   98SAPC   C36 9737   1.011   3.822   3.852 -0.2144 -0.2422 -0.6074
   98SAPC   H6X 9738   1.121   3.838   3.855  0.0688 -2.1346  1.1392
   98SAPC   H6Y 9739   0.986   3.714   3.851 -0.6133 -0.1744  0.6761
   98SAPC   C37 9740   0.955   3.902   3.972 -0.9172  0.5750 -0.5552
   98SAPC   H7X 9741   0.844   3.892   3.971 -0.9648 -0.5706  2.5930
   98SAPC   H7Y 9742   0.991   4.007   3.967  0.7692 -0.0263 -1.8830
   98SAPC   C38 9743   1.003   3.851   4.109  0.5802 -0.1949  0.4191
   98SAPC   H8X 9744   1.002   3.934   4.184 -0.3775 -0.0867  0.2988
   98SAPC   H8Y 9745   1.107   3.814   4.109  0.0502 -1.7382 -0.3289
   98SAPC   C39 9746   0.915   3.736   4.164  0.3104  0.0969 -1.0789
   98SAPC   H9X 9747   0.963   3.660   4.228 -3.1724 -2.1525 -0.8874
   98SAPC   H9Y 9748   0.877   3.674   4.080 -1.9434  0.2122 -0.1954
   98SAPC  C310 9749   0.802   3.792   4.259  0.2804  0.6908  0.6244
   98SAPC  H10X 9750   0.740   3.868   4.207 -0.1327  0.7219  1.1563
   98SAPC  H10Y 9751   0.856   3.863   4.326 -0.4999  1.0549  0.8757
   98SAPC  C311 9752   0.717   3.693   4.337 -0.5815 -0.0937 -0.0692
   98SAPC  H11X 9753   0.775   3.599   4.345 -1.3378 -0.6431 -0.8463
   98SAPC  H11Y 9754   0.623   3.675   4.281 -0.3811 -2.7569  0.3460
   98SAPC  C312 9755   0.681   3.742   4.477  0.3633  0.2761 -0.2323
   98SAPC  H12X 9756   0.619   3.834   4.469  2.2850  1.6961  0.1420
   98SAPC  H12Y 9757   0.773   3.780   4.529  0.3047 -0.9171  0.7938
   98SAPC  C313 9758   0.620   3.632   4.568 -0.0394 -0.4662  0.2452
   98SAPC  H13X 9759   0.703   3.565   4.602 -0.2026  0.1183  1.8799
   98SAPC  H13Y 9760   0.542   3.575   4.513 -1.0560  0.9419  0.1745
   98SAPC  C314 9761   0.574   3.697   4.699  0.3107  0.4378 -0.2356
   98SAPC  H14X 9762   0.481   3.757   4.689  1.0246  2.5262  3.7155
   98SAPC  H14Y 9763   0.653   3.758   4.748 -0.2839 -1.8020  3.9891
   98SAPC  C315 9764   0.529   3.589   4.803 -0.5198 -0.2796  0.0915
   98SAPC  H15X 9765   0.620   3.533   4.833  1.1933  1.2725 -1.9299
   98SAPC  H15Y 9766   0.454   3.526   4.749 -1.6225 -0.0074  1.2469
   98SAPC  C316 9767   0.461   3.650   4.926 -0.3048  0.3283  0.7300
   98SAPC  H16X 9768   0.434   3.571   4.999 -0.2086  0.7566  1.2404
   98SAPC  H16Y 9769   0.357   3.684   4.907 -0.8784 -1.5860  0.2428
   98SAPC  C317 9770   0.540   3.753   5.005  0.1826  0.2568  0.0786
   98SAPC  H17X 9771   0.542   3.844   4.942 -1.3178  0.3884  0.1825
   98SAPC  H17Y 9772   0.642   3.719   5.033  0.5274  0.2327 -1.1763
   98SAPC  C318 9773   0.466   3.797   5.132 -0.3106 -0.3520  0.0911
   98SAPC  H18X 9774   0.518   3.875   5.192 -3.2073  1.4439  0.4689
   98SAPC  H18Y 9775   0.437   3.705   5.188 -0.3939 -0.3140  0.1103
   98SAPC  H18Z 9776   0.371   3.844   5.098 -0.1533 -0.7681 -0.9721
   99SAPC     N 9777   0.958   2.101   2.654  0.1112  0.0131  0.6568
   99SAPC   C12 9778   0.806   2.087   2.690 -0.5954  0.0240  0.2062
   99SAPC  H12A 9779   0.778   2.188   2.719  0.1533  0.2193  0.2620
   99SAPC  H12B 9780   0.795   2.027   2.779 -0.6802  2.4746  1.9690
   99SAPC   C13 9781   0.969   2.211   2.552 -0.6372 -0.3630 -0.1061
   99SAPC  H13A 9782   1.074   2.228   2.531 -0.9823  1.1792 -0.7722
   99SAPC  H13B 9783   0.912   2.191   2.463  1.0251 -0.5618 -1.1769
   99SAPC  H13C 9784   0.928   2.306   2.584  0.7835 -0.3585  1.9240
   99SAPC   C14 9785   1.037   2.144   2.765  0.4116 -0.0135  0.1393
   99SAPC  H14A 9786   1.049   2.070   2.842  0.8577  1.0124  1.0750
   99SAPC  H14B 9787   1.138   2.159   2.728 -0.2009  0.6610 -1.3538
   99SAPC  H14C 9788   1.013   2.242   2.804  3.0699  1.6836 -2.0512
   99SAPC   C15 9789   1.009   1.981   2.586  0.7891 -0.0784  0.0162
   99SAPC  H15A 9790   1.066   2.006   2.497 -2.3467 -1.9687 -2.7676
   99SAPC  H15B 9791   1.070   1.915   2.646  0.0582 -1.0729 -0.3109
   99SAPC  H15C 9792   0.924   1.921   2.557  0.4414 -0.1969  1.2355
   99SAPC   C11 9793   0.716   2.038   2.583  0.4675 -0.0352 -0.6306
   99SAPC  H11A 9794   0.747   2.079   2.484 -0.6286 -1.5317 -1.6381
   99SAPC  H11B 9795   0.614   2.078   2.599 -0.1261 -1.4362 -0.7882
   99SAPC     P 9796   0.634   1.804   2.671 -0.3282 -0.0992 -0.1557
   99SAPC   O13 9797   0.496   1.783   2.613 -0.3173 -0.3149  1.1643
   99SAPC   O14 9798   0.702   1.678   2.701 -0.2547 -0.4484 -0.8488
   99SAPC   O12 9799   0.721   1.892   2.573 -0.0971  0.1878  0.4877
   99SAPC   O11 9800   0.633   1.886   2.806  0.0594 -0.6097  0.0473
   99SAPC    C1 9801   0.522   1.949   2.865 -0.0990  0.5237  0.6459
   99SAPC    HA 9802   0.486   2.037   2.808 -1.4483 -0.1366  0.4336
   99SAPC    HB 9803   0.437   1.878   2.875 -0.0268  0.4386  0.6579
   99SAPC    C2 9804   0.570   1.980   3.012 -0.5695  0.2264 -0.0481
   99SAPC    HS 9805   0.654   2.053   3.004 -2.5049  2.5520 -0.3937
   99SAPC   O21 9806   0.603   1.858   3.083  0.3186  0.1262  0.5822
   99SAPC   C21 9807   0.723   1.815   3.061 -0.3643  0.5955 -0.2620
   99SAPC   O22 9808   0.817   1.878   3.015  0.4995 -0.1227 -0.2196
   99SAPC   C22 9809   0.731   1.669   3.119  0.0823  0.2265  0.0426
   99SAPC   H2R 9810   0.743   1.678   3.229  0.4832  2.3254 -0.1278
   99SAPC   H2S 9811   0.635   1.618   3.099  0.7739 -0.3605 -2.0025
   99SAPC    C3 9812   0.468   2.049   3.094  0.0392  0.0986  0.4388
   99SAPC    HX 9813   0.382   1.984   3.122 -1.4858  2.0369  0.4243
   99SAPC    HY 9814   0.420   2.132   3.038  0.9595  0.9518  0.8847
   99SAPC   O31 9815   0.539   2.111   3.201  0.4247 -0.5795 -0.4032
   99SAPC   C31 9816   0.453   2.165   3.289 -0.3678 -0.2461  0.4041
   99SAPC   O32 9817   0.335   2.151   3.286  0.2854 -0.2854 -0.5858
   99SAPC   C32 9818   0.528   2.243   3.396 -0.0170  0.0791 -0.7780
   99SAPC   H2X 9819   0.481   2.343   3.382 -0.0531  0.0711 -0.7160
   99SAPC   H2Y 9820   0.637   2.251   3.376  0.5036 -1.5929  1.1316
   99SAPC   C23 9821   0.853   1.584   3.078 -0.2560  0.3139 -0.5442
   99SAPC   H3R 9822   0.937   1.657   3.077 -0.3268  0.3957 -0.6138
   99SAPC   H3S 9823   0.847   1.539   2.976 -2.4739  0.4966 -0.5476
   99SAPC   C24 9824   0.884   1.474   3.181 -0.2930 -0.1545 -0.2337
   99SAPC   H4R 9825   0.914   1.530   3.272  2.9872 -2.0311 -0.0059
   99SAPC   H4S 9826   0.975   1.413   3.162  1.0746  1.7093 -0.0507
   99SAPC   C25 9827   0.772   1.378   3.207 -0.5788 -0.4567 -0.5064
   99SAPC   H5R 9828   0.714   1.344   3.119 -0.5379 -0.8759 -0.3752
   99SAPC   C26 9829   0.725   1.334   3.326 -0.2783 -0.9944 -0.1828
   99SAPC   H6R 9830   0.643   1.260   3.325  0.1403 -1.4604 -0.5408
   99SAPC   C27 9831   0.777   1.385   3.464 -0.2530 -0.4850 -0.7616
   99SAPC   H7R 9832   0.887   1.400   3.456 -0.4650  3.7114  1.1070
   99SAPC   H7S 9833   0.752   1.311   3.544 -0.8297  0.7934  0.2943
   99SAPC   C28 9834   0.719   1.523   3.489  0.8187  0.2291 -0.1512
   99SAPC   H8R 9835   0.726   1.595   3.406  2.6955 -1.0448 -1.1603
   99SAPC   C29 9836   0.665   1.560   3.603  0.4860  0.4967  0.0698
   99SAPC   H9R 9837   0.632   1.665   3.607 -1.0555  0.0402  0.1145
   99SAPC  C210 9838   0.649   1.477   3.729  0.1281 -0.1131 -0.1385
   99SAPC  H10R 9839   0.584   1.388   3.713  0.4702 -0.3597 -0.1665
   99SAPC  H10S 9840   0.578   1.534   3.794  0.4243  2.8998 -2.2464
   99SAPC  C211 9841   0.776   1.453   3.807  0.2156 -0.0503 -0.6710
   99SAPC  H11R 9842   0.869   1.479   3.755 -0.8942  3.9666 -0.9671
   99SAPC  C212 9843   0.776   1.417   3.938 -0.2352  0.4453 -0.1497
   99SAPC  H12R 9844   0.869   1.407   3.995 -0.5697 -1.6584  0.0990
   99SAPC  C213 9845   0.662   1.396   4.038  0.9685  0.1116  0.8967
   99SAPC  H13R 9846   0.568   1.416   3.981  0.8827 -1.9999  0.2152
   99SAPC  H13S 9847   0.668   1.476   4.114  1.5388  0.9210  0.0175
   99SAPC  C214 9848   0.644   1.265   4.100  0.2604  0.1326  0.2251
   99SAPC  H14R 9849   0.660   1.179   4.032  2.0967  0.8816 -0.3727
   99SAPC  C215 9850   0.612   1.248   4.230 -0.0424  0.5062 -0.3566
   99SAPC  H15R 9851   0.612   1.145   4.268  0.8799  0.5479 -0.2363
   99SAPC  C216 9852   0.572   1.350   4.328 -0.0184 -0.3824  0.4469
   99SAPC  H16R 9853   0.496   1.307   4.396 -0.8862  0.6843  0.1846
   99SAPC  H16S 9854   0.519   1.429   4.270  1.6710 -1.6039 -3.0772
   99SAPC  C217 9855   0.688   1.408   4.414 -0.3050  0.7253 -0.2961
   99SAPC  H17R 9856   0.638   1.491   4.469  0.5155  1.8532 -1.2131
   99SAPC  H17S 9857   0.775   1.451   4.360  0.4052 -1.1788 -0.7383
   99SAPC  C218 9858   0.743   1.316   4.527  0.6759  0.2492  0.5336
   99SAPC  H18R 9859   0.836   1.368   4.561 -0.6479  1.4331  2.5912
   99SAPC  H18S 9860   0.760   1.218   4.479 -2.4457 -0.0802 -0.1404
   99SAPC  C219 9861   0.642   1.275   4.637 -0.6027  0.5272  0.4845
   99SAPC  H19R 9862   0.542   1.247   4.598 -0.0746 -0.3371 -0.2901
   99SAPC  H19S 9863   0.605   1.359   4.700 -1.4165  0.2212  0.4344
   99SAPC  C220 9864   0.693   1.160   4.723  0.0925 -0.2898 -0.3438
   99SAPC  H20R 9865   0.769   1.191   4.798 -0.7708  0.7086  0.1424
   99SAPC  H20S 9866   0.710   1.069   4.662 -0.7809 -0.7296  0.0464
   99SAPC  H20T 9867   0.605   1.136   4.788  0.0403  2.8961  0.9625
   99SAPC   C33 9868   0.507   2.181   3.542  0.1326 -0.4397  1.1189
   99SAPC   H3X 9869   0.552   2.080   3.540 -1.7753 -1.3279 -0.2045
   99SAPC   H3Y 9870   0.400   2.156   3.563 -0.1394  0.6628  1.1440
   99SAPC   C34 9871   0.536   2.279   3.658 -0.0239 -0.3617  0.1848
   99SAPC   H4X 9872   0.460   2.360   3.652  2.0535  1.5579 -3.1489
   99SAPC   H4Y 9873   0.634   2.326   3.637  0.1360 -1.4424 -1.7822
   99SAPC   C35 9874   0.539   2.219   3.796 -0.6210  0.0817  0.0596
   99SAPC   H5X 9875   0.615   2.139   3.795  1.9829  2.4028 -0.3894
   99SAPC   H5Y 9876   0.441   2.171   3.814  0.7699 -2.1563  2.1775
   99SAPC   C36 9877   0.574   2.320   3.909 -0.2979  0.2991 -1.1000
   99SAPC   H6X 9878   0.522   2.417   3.890  0.4944  1.0504  0.3762
   99SAPC   H6Y 9879   0.681   2.348   3.916 -0.2730 -0.2021  2.4193
   99SAPC   C37 9880   0.537   2.276   4.053 -0.4963 -0.6409 -0.2221
   99SAPC   H7X 9881   0.575   2.173   4.067  0.5050 -0.8919 -3.7261
   99SAPC   H7Y 9882   0.428   2.262   4.068 -0.3523 -3.0942 -1.0596
   99SAPC   C38 9883   0.617   2.361   4.151  0.3157  0.0654 -0.3126
   99SAPC   H8X 9884   0.590   2.468   4.135  1.4776  0.5528  0.7910
   99SAPC   H8Y 9885   0.727   2.361   4.142  0.5253  2.3079  1.3681
   99SAPC   C39 9886   0.597   2.327   4.300  0.3672 -0.2967  0.0491
   99SAPC   H9X 9887   0.614   2.219   4.316 -0.4395 -0.7237 -1.6976
   99SAPC   H9Y 9888   0.496   2.345   4.341  0.8182  2.0157  0.2784
   99SAPC  C310 9889   0.708   2.398   4.378 -0.4681  0.1754 -1.0748
   99SAPC  H10X 9890   0.724   2.501   4.340  0.7048  0.5301  0.2938
   99SAPC  H10Y 9891   0.806   2.347   4.367 -1.2517 -1.3775 -1.1402
   99SAPC  C311 9892   0.666   2.419   4.525 -0.0806  0.2840  0.5342
   99SAPC  H11X 9893   0.651   2.316   4.563  0.7961 -0.3182 -0.6660
   99SAPC  H11Y 9894   0.574   2.481   4.524  1.3630  2.7594  4.1731
   99SAPC  C312 9895   0.754   2.497   4.620 -0.4952 -0.1422 -0.1577
   99SAPC  H12X 9896   0.746   2.599   4.575 -2.8871  0.1828  0.8439
   99SAPC  H12Y 9897   0.857   2.460   4.602 -0.1620  0.2924  0.7927
   99SAPC  C313 9898   0.705   2.493   4.765 -0.6334  0.4051 -0.2840
   99SAPC  H13X 9899   0.695   2.384   4.785  1.4612  0.2437  0.0530
   99SAPC  H13Y 9900   0.607   2.539   4.790 -0.2020  2.4059 -2.0004
   99SAPC  C314 9901   0.807   2.554   4.853  0.1861  0.0859 -0.2032
   99SAPC  H14X 9902   0.782   2.551   4.961  3.5626 -3.4180  0.6876
   99SAPC  H14Y 9903   0.820   2.662   4.829  0.1868 -0.0545 -0.8653
   99SAPC  C315 9904   0.949   2.485   4.854 -0.3417 -0.4989  0.2489
   99SAPC  H15X 9905   0.995   2.512   4.757 -0.7839 -0.8456 -0.0622
   99SAPC  H15Y 9906   0.941   2.374   4.865 -1.1287 -0.3741  0.9927
   99SAPC  C316 9907   1.046   2.530   4.965  0.0331  0.6781 -0.6328
   99SAPC  H16X 9908   1.025   2.634   5.000  1.6283 -0.1634  3.3232
   99SAPC  H16Y 9909   1.149   2.539   4.924  0.4572 -2.9147 -0.6861
   99SAPC  C317 9910   1.057   2.442   5.087  0.7992  0.2916  0.1610
   99SAPC  H17X 9911   1.091   2.337   5.071  0.0903  0.2639 -1.2963
   99SAPC  H17Y 9912   0.951   2.431   5.117  0.3424  1.9219 -0.7082
   99SAPC  C318 9913   1.132   2.513   5.197  0.2408  0.0732 -0.1225
   99SAPC  H18X 9914   1.092   2.616   5.212  0.7864  0.2866 -0.1030
   99SAPC  H18Y 9915   1.240   2.520   5.175  0.4581  3.0299  1.4182
   99SAPC  H18Z 9916   1.114   2.448   5.285  1.1045 -2.6925 -1.8860
  100SAPC     N 9917   6.136   6.421   2.640 -0.1715  0.7312 -0.5947
  100SAPC   C12 9918   6.059   6.410   2.768  0.2250  0.2142 -0.3658
  100SAPC  H12A 9919   6.105   6.337   2.834 -2.7047 -1.9977 -0.5677
  100SAPC  H12B 9920   5.960   6.375   2.742 -1.0228  1.2780  2.4583
  100SAPC   C13 9921   6.148   6.282   2.573  0.1689 -0.0313 -0.4018
  100SAPC  H13A 9922   6.204   6.295   2.482  0.2480  2.6843 -0.0490
  100SAPC  H13B 9923   6.199   6.221   2.646 -0.4310  2.3446  2.1594
  100SAPC  H13C 9924   6.053   6.235   2.552 -0.9414  0.6407  2.6233
  100SAPC   C14 9925   6.072   6.504   2.530  0.7861  0.0024  0.5638
  100SAPC  H14A 9926   5.981   6.459   2.495  0.6035  1.7444 -1.3851
  100SAPC  H14B 9927   6.050   6.602   2.570  0.3118  0.0204  0.2732
  100SAPC  H14C 9928   6.144   6.526   2.452  1.0327  0.6025  0.9574
  100SAPC   C15 9929   6.275   6.469   2.676 -0.6224 -0.6306 -0.6102
  100SAPC  H15A 9930   6.285   6.573   2.703  0.5541 -0.9524  0.3016
  100SAPC  H15B 9931   6.310   6.424   2.768 -0.7620 -0.1773 -0.3317
  100SAPC  H15C 9932   6.351   6.454   2.601  1.3598  2.8381  0.4997
  100SAPC   C11 9933   6.035   6.537   2.853  0.2125 -0.4644  0.5444
  100SAPC  H11A 9934   6.132   6.587   2.878 -0.6033  1.4655  0.0097
  100SAPC  H11B 9935   5.989   6.509   2.950 -0.9110  0.2931  0.2476
  100SAPC     P 9936   5.804   6.666   2.810  0.2263 -0.1215 -0.1356
  100SAPC   O13 9937   5.759   6.794   2.747  0.1620 -0.6893 -0.4231
  100SAPC   O14 9938   5.722   6.546   2.773  0.3290  0.0628  0.0207
  100SAPC   O12 9939   5.953   6.635   2.776 -0.0973 -0.0848 -0.8138
  100SAPC   O11 9940   5.795   6.689   2.967 -0.2413 -0.4009 -0.0181
  100SAPC    C1 9941   5.864   6.797   3.040  0.0932  0.9104  0.0015
  100SAPC    HA 9942   5.971   6.772   3.053  0.0208 -1.4833 -2.9447
  100SAPC    HB 9943   5.841   6.897   2.999  2.3298  1.0676 -0.9671
  100SAPC    C2 9944   5.801   6.799   3.184  0.3304 -0.4016 -0.6519
  100SAPC    HS 9945   5.839   6.891   3.234 -0.7282 -1.6421  2.7833
  100SAPC   O21 9946   5.850   6.690   3.263  0.8977 -0.5208 -0.8983
  100SAPC   C21 9947   5.970   6.713   3.318  0.2749  0.1744 -0.6026
  100SAPC   O22 9948   6.035   6.819   3.314  0.2143 -0.5767 -0.2873
  100SAPC   C22 9949   6.007   6.576   3.378  0.1036 -0.5011 -1.1195
  100SAPC   H2R 9950   5.979   6.500   3.301 -0.6043 -1.1288 -0.2675
  100SAPC   H2S 9951   6.116   6.574   3.399  0.1500  0.9539 -1.1324
  100SAPC    C3 9952   5.639   6.806   3.183  0.1100  0.1597  0.1492
  100SAPC    HX 9953   5.588   6.746   3.104 -1.4905  0.7209  0.7018
  100SAPC    HY 9954   5.617   6.908   3.145 -1.7522  0.0093  0.7180
  100SAPC   O31 9955   5.577   6.796   3.312 -0.0618  0.5713  0.7240
  100SAPC   C31 9956   5.525   6.670   3.343  0.0100 -0.4639  0.0545
  100SAPC   O32 9957   5.547   6.567   3.285  0.6021  0.3795  0.1293
  100SAPC   C32 9958   5.414   6.697   3.442 -0.4826 -0.2507  0.3905
  100SAPC   H2X 9959   5.326   6.665   3.383 -0.6953  0.2080  0.4609
  100SAPC   H2Y 9960   5.390   6.801   3.471  1.3488 -0.0923  1.5560
  100SAPC   C23 9961   5.934   6.545   3.516 -0.0581  0.3569 -0.4235
  100SAPC   H3R 9962   5.967   6.444   3.549 -2.1795 -0.1932  0.1859
  100SAPC   H3S 9963   5.831   6.546   3.475  0.2142  1.4742 -1.1301
  100SAPC   C24 9964   5.950   6.651   3.618 -0.5246 -0.2939 -0.5161
  100SAPC   H4R 9965   5.873   6.643   3.698  1.2464  2.0217  1.5892
  100SAPC   H4S 9966   5.932   6.750   3.571  0.8255  1.4429  2.3293
  100SAPC   C25 9967   6.086   6.660   3.687  0.1884 -0.3887  0.1150
  100SAPC   H5R 9968   6.164   6.708   3.627  0.8507 -2.0020 -0.3844
  100SAPC   C26 9969   6.104   6.649   3.817  0.1148 -0.5171  0.2795
  100SAPC   H6R 9970   6.205   6.637   3.859  0.4287 -4.5463 -1.2324
  100SAPC   C27 9971   6.001   6.614   3.918  0.1297  0.8739 -0.1252
  100SAPC   H7R 9972   6.056   6.587   4.011 -1.4364 -0.7060  0.3929
  100SAPC   H7S 9973   5.968   6.516   3.877 -1.2926  1.4830 -0.4802
  100SAPC   C28 9974   5.892   6.711   3.956 -0.0250 -0.1018  0.3587
  100SAPC   H8R 9975   5.853   6.777   3.878 -2.4120 -2.6318 -0.7768
  100SAPC   C29 9976   5.835   6.719   4.079  0.1866  0.3867  0.3679
  100SAPC   H9R 9977   5.765   6.799   4.110  1.4455  0.5032  3.1883
  100SAPC  C210 9978   5.867   6.620   4.195 -0.1022 -1.0392 -0.2772
  100SAPC  H10R 9979   5.931   6.533   4.169  0.0052 -1.2951  0.8095
  100SAPC  H10S 9980   5.774   6.576   4.236 -0.9700 -1.4972 -2.5668
  100SAPC  C211 9981   5.940   6.697   4.301  0.5284 -0.1794  0.8938
  100SAPC  H11R 9982   5.922   6.805   4.296 -0.5376 -0.3728  0.3128
  100SAPC  C212 9983   6.037   6.644   4.382 -0.1586 -0.6258 -0.5354
  100SAPC  H12R 9984   6.083   6.702   4.464  0.4780 -0.5993 -0.9040
  100SAPC  C213 9985   6.069   6.495   4.398  0.1762 -0.1967  0.3521
  100SAPC  H13R 9986   6.033   6.442   4.307  1.9543 -0.7172 -0.0828
  100SAPC  H13S 9987   5.996   6.456   4.472 -0.5206  1.9776  0.8738
  100SAPC  C214 9988   6.216   6.463   4.422  0.6182  0.0695  0.1473
  100SAPC  H14R 9989   6.276   6.449   4.331 -2.1368 -4.8773 -1.2935
  100SAPC  C215 9990   6.287   6.430   4.534  0.9639  0.0863 -0.4125
  100SAPC  H15R 9991   6.395   6.415   4.518  0.8137 -2.0877  0.1827
  100SAPC  C216 9992   6.243   6.431   4.678 -0.6285  0.1001 -0.5201
  100SAPC  H16R 9993   6.133   6.443   4.683 -0.4563  2.1572 -0.7118
  100SAPC  H16S 9994   6.291   6.515   4.733  1.5518 -0.1633 -1.9000
  100SAPC  C217 9995   6.294   6.293   4.743  0.2676  0.4931  0.0542
  100SAPC  H17R 9996   6.404   6.279   4.740  0.5665  2.6515 -1.7985
  100SAPC  H17S 9997   6.256   6.211   4.679  1.0688 -0.4642  0.7714
  100SAPC  C218 9998   6.252   6.266   4.890  0.3601 -0.0139  0.5958
  100SAPC  H18R 9999   6.141   6.266   4.896  0.3082 -0.4249 -0.2975
  100SAPC  H18S10000   6.300   6.346   4.951 -0.2261  0.3713  0.5623
  100SAPC  C21910001   6.318   6.135   4.943  0.0736  0.0919 -0.2434
  100SAPC  H19R10002   6.427   6.145   4.927 -0.1143  2.3737 -0.4060
  100SAPC  H19S10003   6.262   6.054   4.890 -2.0578 -1.7550  4.3052
  100SAPC  C22010004   6.285   6.118   5.093  0.9239 -0.1913 -0.2884
  100SAPC  H20R10005   6.178   6.106   5.117  0.4797  0.3088 -1.9040
  100SAPC  H20S10006   6.324   6.205   5.151 -0.4727  0.1355  0.1937
  100SAPC  H20T10007   6.326   6.023   5.134 -3.5714 -0.5379  4.4055
  100SAPC   C3310008   5.422   6.604   3.565 -0.3634  0.0051  0.1254
  100SAPC   H3X10009   5.489   6.516   3.555 -1.2616 -0.6379 -0.4227
  100SAPC   H3Y10010   5.323   6.553   3.575 -0.0229 -0.6655  0.1631
  100SAPC   C3410011   5.453   6.676   3.695 -0.3003 -0.1428 -0.4107
  100SAPC   H4X10012   5.376   6.752   3.719  1.2442  1.0864  0.9371
  100SAPC   H4Y10013   5.543   6.737   3.672 -0.7864 -0.4117 -3.4218
  100SAPC   C3510014   5.476   6.574   3.818  0.1627 -0.4234  0.4533
  100SAPC   H5X10015   5.582   6.542   3.817 -0.2630 -1.9005 -1.3709
  100SAPC   H5Y10016   5.422   6.481   3.793  0.1733 -0.2654 -0.1693
  100SAPC   C3610017   5.420   6.614   3.958  0.4654  0.7608 -0.6303
  100SAPC   H6X10018   5.324   6.670   3.960  0.5806  0.9355  0.2533
  100SAPC   H6Y10019   5.488   6.694   3.995 -0.6847  0.7204  1.7029
  100SAPC   C3710020   5.421   6.488   4.053 -0.6716 -0.9418  0.1362
  100SAPC   H7X10021   5.517   6.434   4.045 -0.2678 -0.4655  1.5967
  100SAPC   H7Y10022   5.330   6.427   4.035 -0.5761 -0.3941 -2.7343
  100SAPC   C3810023   5.429   6.526   4.208 -0.6053 -0.1827  0.3821
  100SAPC   H8X10024   5.364   6.613   4.229  1.7881  1.2303  2.6188
  100SAPC   H8Y10025   5.523   6.586   4.218 -1.6294  1.2703  1.6796
  100SAPC   C3910026   5.423   6.410   4.298  0.1746  0.7115 -0.3807
  100SAPC   H9X10027   5.498   6.333   4.272  1.4629  1.5655  0.6537
  100SAPC   H9Y10028   5.330   6.351   4.286  2.0365 -2.7998  1.0323
  100SAPC  C31010029   5.437   6.445   4.443 -0.8654  0.1890 -0.6296
  100SAPC  H10X10030   5.389   6.540   4.475  1.6055  0.7182  2.0371
  100SAPC  H10Y10031   5.544   6.453   4.473 -0.1900 -0.3429 -2.7719
  100SAPC  C31110032   5.373   6.339   4.526 -0.1001  0.4719  0.7908
  100SAPC  H11X10033   5.437   6.249   4.539  1.7290  1.5410 -0.3813
  100SAPC  H11Y10034   5.288   6.296   4.469  0.9968 -0.2886 -0.3180
  100SAPC  C31210035   5.329   6.387   4.663  0.3666 -0.2780 -0.4129
  100SAPC  H12X10036   5.269   6.304   4.709  1.3531  0.7335  2.9848
  100SAPC  H12Y10037   5.252   6.464   4.643 -0.2859 -1.2591 -1.8935
  100SAPC  C31310038   5.434   6.443   4.761  0.3901  0.2566 -0.5743
  100SAPC  H13X10039   5.485   6.529   4.713 -0.5673  0.0443 -2.0443
  100SAPC  H13Y10040   5.519   6.375   4.780  0.5838  0.0791 -2.0070
  100SAPC  C31410041   5.375   6.464   4.899  0.3047  0.2747 -0.3638
  100SAPC  H14X10042   5.319   6.371   4.922  3.2833 -1.6197 -0.1794
  100SAPC  H14Y10043   5.311   6.554   4.906  0.4493  0.4685 -1.4140
  100SAPC  C31510044   5.499   6.463   4.999  1.2556  0.2189  0.7559
  100SAPC  H15X10045   5.574   6.527   4.949 -2.0216  3.0109 -1.0625
  100SAPC  H15Y10046   5.530   6.357   5.010 -2.7284 -1.0618  1.4342
  100SAPC  C31610047   5.476   6.526   5.134 -0.2761  0.0866 -0.3482
  100SAPC  H16X10048   5.394   6.472   5.185 -0.1020  0.2885  0.1502
  100SAPC  H16Y10049   5.435   6.629   5.128 -1.5294 -0.3323  0.6127
  100SAPC  C31710050   5.608   6.537   5.217  0.3746  0.0119  0.2965
  100SAPC  H17X10051   5.679   6.599   5.158 -0.6606  0.3185 -0.6645
  100SAPC  H17Y10052   5.649   6.435   5.236  0.3191 -0.6759 -2.7229
  100SAPC  C31810053   5.590   6.611   5.356  0.0630 -0.0538  0.1543
  100SAPC  H18X10054   5.690   6.626   5.402 -0.5231  0.6922  1.2155
  100SAPC  H18Y10055   5.530   6.542   5.420  0.5965 -0.6163  0.0561
  100SAPC  H18Z10056   5.538   6.708   5.341  1.8844  0.9168 -0.1235
  101OSM      N10057   4.724   2.782   7.741  0.1640 -0.3356 -0.2189
  101OSM    C1510058   4.584   2.819   7.764  0.0157  0.7117 -0.1262
  101OSM   H15A10059   4.552   2.788   7.862  0.2771  0.0003 -0.2608
  101OSM   H15B10060   4.530   2.757   7.695  2.5282 -0.8084 -0.8676
  101OSM   H15C10061   4.563   2.921   7.736 -0.6678  0.5979 -0.0404
  101OSM    C1410062   4.784   2.885   7.651 -0.1039 -0.7028 -0.2524
  101OSM   H14A10063   4.814   2.977   7.699  0.0446  0.5121 -2.5148
  101OSM   H14B10064   4.714   2.897   7.570 -2.0315  1.2199  1.5487
  101OSM   H14C10065   4.872   2.840   7.608 -0.3244  0.2652 -1.8120
  101OSM    C1310066   4.792   2.768   7.873  0.2689 -0.1852 -0.7049
  101OSM   H13A10067   4.813   2.863   7.921 -1.4704  1.0322 -2.2144
  101OSM   H13B10068   4.888   2.719   7.869 -0.3823 -1.6680  0.8131
  101OSM   H13C10069   4.736   2.711   7.946 -1.2237  3.1296  0.9714
  101OSM    C1210070   4.732   2.645   7.671  0.7324  0.2525 -0.0830
  101OSM   H12A10071   4.683   2.568   7.729  0.4304  0.7964  0.4041
  101OSM   H12B10072   4.837   2.619   7.663  0.6439  0.1238 -0.9005
  101OSM    C1110073   4.678   2.633   7.528 -0.4336  0.0698 -0.3158
  101OSM   H11A10074   4.703   2.527   7.503 -2.2139 -0.8281  1.4398
  101OSM   H11B10075   4.739   2.700   7.464  0.0585  0.1329  0.2212
  101OSM      P10076   4.430   2.545   7.547  0.1208 -0.2299 -0.0336
  101OSM    O1310077   4.470   2.485   7.674  0.1438 -0.0527 -0.2381
  101OSM    O1410078   4.289   2.600   7.533  0.1027  0.3529 -0.2354
  101OSM    O1110079   4.458   2.436   7.437  0.2753 -0.1477 -0.0765
  101OSM    O1210080   4.535   2.665   7.515  0.3166  0.9446 -0.5079
  101OSM    C1S10081   4.475   2.479   7.301  0.6515 -0.6467 -0.8228
  101OSM    H1S10082   4.569   2.536   7.283 -0.6030  0.7049 -3.6936
  101OSM    H1T10083   4.392   2.540   7.259  0.5340 -1.0732 -1.2135
  101OSM     NF10084   4.497   2.423   7.070 -0.4086 -0.4125 -0.1969
  101OSM    HNF10085   4.413   2.407   7.019 -0.2184  1.6226 -1.2550
  101OSM    C2S10086   4.491   2.361   7.200  0.4682  0.5295 -0.5543
  101OSM    H2S10087   4.586   2.311   7.229 -1.1174 -1.0402  2.2725
  101OSM    C3S10088   4.373   2.253   7.227  0.5482 -0.6863 -0.4438
  101OSM    H3S10089   4.273   2.296   7.210  0.1838 -0.2158  2.4667
  101OSM     O310090   4.358   2.204   7.363  0.3390  0.0430  0.0199
  101OSM    HO310091   4.408   2.269   7.413 -1.6446  0.0450  2.1269
  101OSM    C4S10092   4.395   2.141   7.131 -0.2868  0.7158 -0.6171
  101OSM    H4S10093   4.321   2.141   7.049 -1.1138  0.1457  0.1038
  101OSM    C5S10094   4.437   2.017   7.171  0.7847 -0.1069  0.0583
  101OSM    H5S10095   4.453   1.996   7.277 -2.4594  0.1828  0.7009
  101OSM    C6S10096   4.439   1.885   7.099  0.1580  0.7179 -0.1333
  101OSM    H6S10097   4.371   1.805   7.134  1.0325 -0.7214 -1.6113
  101OSM    H6T10098   4.536   1.833   7.090 -0.5538 -1.1152  1.9562
  101OSM    C7S10099   4.387   1.901   6.951  0.2379 -0.0012  0.0738
  101OSM    H7S10100   4.448   1.971   6.890 -0.0758 -1.8548 -2.5662
  101OSM    H7T10101   4.283   1.941   6.951  0.0813 -0.3668  1.7859
  101OSM    C8S10102   4.396   1.778   6.858 -0.3523  0.1332 -0.0625
  101OSM    H8S10103   4.337   1.698   6.907 -0.3801  1.2180  1.8033
  101OSM    H8T10104   4.498   1.735   6.865 -0.6357 -0.3424  1.5770
  101OSM    C9S10105   4.341   1.800   6.718 -0.0443 -0.5680  0.6110
  101OSM    H9S10106   4.370   1.888   6.658  1.3688 -0.4218  1.4481
  101OSM    H9T10107   4.230   1.800   6.721 -0.2111  2.4573 -1.6206
  101OSM   C10S10108   4.372   1.668   6.626  0.1414 -0.3066 -0.2862
  101OSM   H10S10109   4.326   1.582   6.678 -2.2314  1.7884  1.3521
  101OSM   H10T10110   4.483   1.663   6.622  0.3987  0.4100  2.7989
  101OSM   C11S10111   4.316   1.690   6.483 -0.1301  0.1646 -0.2318
  101OSM   H11S10112   4.360   1.778   6.432 -0.0825  0.0418 -0.4047
  101OSM   H11T10113   4.207   1.712   6.489 -0.1267 -0.1321  1.5382
  101OSM   C12S10114   4.352   1.565   6.392 -0.2045 -0.2046 -0.6419
  101OSM   H12S10115   4.296   1.476   6.428 -2.5330  1.3190 -0.3476
  101OSM   H12T10116   4.457   1.533   6.413 -0.0175  0.0106 -1.2245
  101OSM   C13S10117   4.328   1.577   6.236  0.2852 -0.3360 -0.4022
  101OSM   H13S10118   4.220   1.589   6.211  0.2439  1.0522  0.3195
  101OSM   H13T10119   4.359   1.484   6.184  1.5509  1.3898 -3.0054
  101OSM   C14S10120   4.413   1.678   6.157 -0.3836  0.6515 -0.5644
  101OSM   H14S10121   4.515   1.648   6.191 -0.6053  0.5184 -0.0081
  101OSM   H14T10122   4.388   1.783   6.185 -0.5695  0.0003  1.9568
  101OSM   C15S10123   4.411   1.656   6.010  0.0293  0.0891 -0.1162
  101OSM   H15S10124   4.305   1.653   5.975  0.1905 -1.2111 -0.5387
  101OSM   H15T10125   4.454   1.559   5.978  0.3802  0.1653  0.1224
  101OSM   C16S10126   4.496   1.755   5.930 -0.0122  0.1085  0.5888
  101OSM   H16S10127   4.603   1.744   5.955 -0.4262 -0.7179  2.1052
  101OSM   H16T10128   4.460   1.858   5.950 -1.1053 -0.1864  0.2580
  101OSM   C17S10129   4.484   1.726   5.778 -0.9062 -0.2269 -0.5510
  101OSM   H17S10130   4.380   1.757   5.758 -0.1839  0.8526 -3.1192
  101OSM   H17T10131   4.497   1.617   5.761  3.4321 -0.2664  1.6108
  101OSM   C18S10132   4.584   1.807   5.691  0.4734  0.3283 -0.5669
  101OSM   H18S10133   4.687   1.775   5.719 -0.1422  0.2793  1.8673
  101OSM   H18T10134   4.581   1.915   5.714 -2.6679  0.0344  0.8320
  101OSM   H18U10135   4.569   1.789   5.582 -0.2230  0.4948 -0.5037
  101OSM    C1F10136   4.595   2.492   7.019  1.0046 -0.7007  0.5156
  101OSM     OF10137   4.699   2.505   7.077 -0.2728 -0.5029  0.3202
  101OSM    C2F10138   4.575   2.551   6.882  0.1209 -0.1214 -0.0213
  101OSM    H2F10139   4.530   2.651   6.901 -1.3867 -0.8264  0.2954
  101OSM    H2G10140   4.492   2.501   6.828 -0.9562  1.8918 -0.3195
  101OSM    C3F10141   4.712   2.568   6.810 -0.3834  0.6367  0.3996
  101OSM    H3F10142   4.774   2.477   6.828 -0.4375  0.4926 -0.1287
  101OSM    H3G10143   4.765   2.655   6.855  0.0373  1.3244 -1.3627
  101OSM    C4F10144   4.700   2.589   6.665 -0.2336 -0.3165 -0.1320
  101OSM    H4F10145   4.641   2.682   6.650 -0.3353 -0.3051  0.3443
  101OSM    H4G10146   4.650   2.508   6.607  0.0257  0.3515 -1.3344
  101OSM    C5F10147   4.839   2.616   6.614 -0.3648 -0.1826 -0.7597
  101OSM    H5F10148   4.921   2.549   6.649 -1.4103 -0.7276  0.7408
  101OSM    H5G10149   4.874   2.711   6.659  1.7149 -0.7839 -1.0070
  101OSM    C6F10150   4.850   2.615   6.455 -0.1535  0.2299 -1.1297
  101OSM    H6F10151   4.803   2.522   6.417  0.3680 -0.3559 -0.3477
  101OSM    H6G10152   4.956   2.603   6.425  0.3603  2.7649 -0.5292
  101OSM    C7F10153   4.786   2.731   6.365 -0.2023  0.4584  0.3318
  101OSM    H7F10154   4.843   2.823   6.391  1.7399 -0.6832  0.3780
  101OSM    H7G10155   4.679   2.744   6.392 -0.1526  1.5617  0.0358
  101OSM    C8F10156   4.810   2.700   6.212 -0.2161 -0.6739 -0.7162
  101OSM    H8F10157   4.776   2.794   6.163  1.1603 -0.2290 -0.8688
  101OSM    H8G10158   4.743   2.619   6.176  0.3082 -2.0557  1.2504
  101OSM    C9F10159   4.958   2.678   6.185  0.0355 -0.1875 -0.4384
  101OSM    H9F10160   5.001   2.592   6.239  2.5686  0.8719 -0.6088
  101OSM   C10F10161   5.034   2.734   6.094  0.4009 -0.3792 -0.0552
  101OSM   H10F10162   5.141   2.713   6.105  1.1452  2.3271 -1.1811
  101OSM   C11F10163   4.996   2.840   5.987 -0.9634 -0.7261  0.3111
  101OSM   H11F10164   5.011   2.943   6.025  0.3589 -1.1138  0.8819
  101OSM   H11G10165   4.887   2.833   5.967 -1.2139  3.1498 -0.3590
  101OSM   C12F10166   5.081   2.831   5.850  0.5257 -0.8812  0.7337
  101OSM   H12F10167   5.182   2.871   5.869  1.2340 -1.8681 -0.7671
  101OSM   H12G10168   5.028   2.904   5.785  0.7628 -0.8492  0.5793
  101OSM   C13F10169   5.066   2.690   5.787  0.4665  0.2967 -0.4688
  101OSM   H13F10170   4.962   2.657   5.806 -0.6674  3.7455 -0.0388
  101OSM   H13G10171   5.142   2.618   5.826 -1.4947 -1.0669  1.0156
  101OSM   C14F10172   5.089   2.708   5.635  0.0783  0.2233  0.1952
  101OSM   H14F10173   5.196   2.725   5.608  0.0333  0.4333  0.1435
  101OSM   H14G10174   5.023   2.789   5.598 -0.2943  0.1722  0.7451
  101OSM   C15F10175   5.058   2.584   5.557  0.0427  0.2666  0.1992
  101OSM   H15F10176   4.951   2.557   5.567 -0.0908  1.3465  2.1548
  101OSM   H15G10177   5.116   2.492   5.582 -0.6905 -0.8775 -1.9802
  101OSM   C16F10178   5.077   2.615   5.401 -0.4068  0.4504 -0.3524
  101OSM   H16F10179   5.181   2.649   5.382  0.1250 -0.3453  0.9396
  101OSM   H16G10180   5.007   2.695   5.369  0.3559  0.4976 -1.9495
  101OSM   C17F10181   5.050   2.494   5.303 -0.1682  0.6912 -0.3340
  101OSM   H17F10182   4.943   2.476   5.283 -0.4587  2.2550 -0.2835
  101OSM   H17G10183   5.103   2.400   5.332  2.5365  0.8929 -3.9145
  101OSM   C18F10184   5.106   2.523   5.158 -1.0686  0.3688 -0.1566
  101OSM   H18F10185   5.111   2.427   5.101  3.4424 -0.7477  1.6727
  101OSM   H18G10186   5.213   2.550   5.157 -0.8808 -0.3654 -0.5129
  101OSM   H18H10187   5.052   2.593   5.091 -0.2290  0.4457 -0.7751
  102OSM      N10188   0.024   2.373   7.649  0.4305  0.1917 -0.2144
  102OSM    C1510189   0.002   2.437   7.787  0.0188 -0.1852  0.7500
  102OSM   H15A10190  -0.099   2.422   7.821 -0.1025  1.3812  1.1531
  102OSM   H15B10191   0.025   2.542   7.774 -0.9467 -0.0688 -0.1217
  102OSM   H15C10192   0.076   2.409   7.860  0.6757  4.5073  2.2005
  102OSM    C1410193   0.025   2.226   7.675  0.2029  0.3686  0.0556
  102OSM   H14A10194   0.035   2.171   7.583  1.1920  0.8602 -0.1351
  102OSM   H14B10195  -0.069   2.192   7.717  1.3085 -2.6846  0.2674
  102OSM   H14C10196   0.103   2.203   7.746  0.1512 -2.5856 -0.7146
  102OSM    C1310197  -0.099   2.383   7.574  0.3816  0.5460 -0.3453
  102OSM   H13A10198  -0.167   2.322   7.631  1.1343 -0.5672 -0.6132
  102OSM   H13B10199  -0.091   2.323   7.485 -1.7864 -2.1913  1.1234
  102OSM   H13C10200  -0.124   2.486   7.554 -0.2766  0.2168 -1.3218
  102OSM    C1210201   0.139   2.425   7.566  0.8110 -0.3317  0.7683
  102OSM   H12A10202   0.123   2.529   7.545 -0.7024 -0.4339  1.2795
  102OSM   H12B10203   0.141   2.388   7.465 -0.0154 -0.5183  0.8155
  102OSM    C1110204   0.275   2.392   7.621  0.7220  0.6696 -0.5064
  102OSM   H11A10205   0.345   2.407   7.536  0.6158  2.7100 -0.2789
  102OSM   H11B10206   0.279   2.283   7.644 -0.6520  0.5656 -0.6819
  102OSM      P10207   0.348   2.616   7.739  0.2930 -0.0855 -0.1520
  102OSM    O1310208   0.222   2.682   7.784 -0.3273  0.3941 -0.4223
  102OSM    O1410209   0.474   2.624   7.822  0.0779  0.3010  0.4183
  102OSM    O1110210   0.390   2.651   7.592  0.2330  0.6161  0.2675
  102OSM    O1210211   0.319   2.463   7.733 -0.0818 -0.1104 -0.3311
  102OSM    C1S10212   0.361   2.778   7.532  0.2016  0.3262  0.5544
  102OSM    H1S10213   0.408   2.858   7.593  0.3701 -0.0696  0.9504
  102OSM    H1T10214   0.252   2.797   7.517 -0.3683 -0.8114  2.8041
  102OSM     NF10215   0.388   2.919   7.319 -0.0932 -0.4359  0.1146
  102OSM    HNF10216   0.334   2.939   7.237  0.4115  0.6072  0.0188
  102OSM    C2S10217   0.413   2.787   7.384  0.0376 -0.0102 -0.1699
  102OSM    H2S10218   0.522   2.768   7.394 -0.2239 -1.2948  0.4528
  102OSM    C3S10219   0.364   2.682   7.277 -0.0186 -0.3167 -0.0926
  102OSM    H3S10220   0.259   2.714   7.262  0.6071  1.5954 -0.7497
  102OSM     O310221   0.373   2.551   7.319 -0.1130  0.5940 -0.6452
  102OSM    HO310222   0.376   2.557   7.414 -1.5069  0.5540 -0.5804
  102OSM    C4S10223   0.428   2.704   7.146 -0.6088 -0.1401 -0.5243
  102OSM    H4S10224   0.379   2.776   7.078 -0.4288 -0.0522 -0.5609
  102OSM    C5S10225   0.536   2.634   7.105 -0.6701  0.1571  0.6370
  102OSM    H5S10226   0.579   2.556   7.169  0.6912 -0.2112 -0.6811
  102OSM    C6S10227   0.599   2.634   6.970 -0.4550 -0.2774  0.2637
  102OSM    H6S10228   0.553   2.549   6.915  0.0132 -0.1592 -0.3300
  102OSM    H6T10229   0.704   2.609   6.994  0.1166 -0.5962 -2.2364
  102OSM    C7S10230   0.580   2.755   6.880 -0.1866 -0.6147 -0.0719
  102OSM    H7S10231   0.626   2.845   6.927  2.5726 -1.0456 -1.6734
  102OSM    H7T10232   0.471   2.776   6.873  0.1929  1.1080 -1.5890
  102OSM    C8S10233   0.644   2.735   6.744  0.9877 -0.0634  0.3338
  102OSM    H8S10234   0.603   2.646   6.691  0.7304 -0.6910  1.5424
  102OSM    H8T10235   0.750   2.712   6.765  1.2088  2.6807  2.8225
  102OSM    C9S10236   0.642   2.868   6.663  0.7535 -0.2612 -0.6237
  102OSM    H9S10237   0.704   2.945   6.714  0.4315 -0.4390  0.0407
  102OSM    H9T10238   0.537   2.905   6.665 -0.2318 -2.8216  2.0581
  102OSM   C10S10239   0.690   2.866   6.524  0.1333 -0.3342  1.0811
  102OSM   H10S10240   0.797   2.836   6.521  0.7531  1.4201  3.2867
  102OSM   H10T10241   0.692   2.963   6.469 -0.2601 -0.5080  0.7521
  102OSM   C11S10242   0.615   2.776   6.419  0.4228 -0.4960  0.0288
  102OSM   H11S10243   0.508   2.802   6.421  0.4887 -0.0545 -1.2322
  102OSM   H11T10244   0.632   2.672   6.456  0.6836 -1.4454 -2.5835
  102OSM   C12S10245   0.676   2.775   6.274  0.0104 -0.3097  0.6450
  102OSM   H12S10246   0.640   2.678   6.234  1.3316  0.0077 -1.4909
  102OSM   H12T10247   0.783   2.754   6.295  0.1591 -0.7507 -0.4843
  102OSM   C13S10248   0.640   2.886   6.174 -0.1949 -0.5203 -1.1318
  102OSM   H13S10249   0.694   2.974   6.216 -1.7445  0.6841 -1.5737
  102OSM   H13T10250   0.530   2.901   6.169 -0.1560  0.1427 -0.3169
  102OSM   C14S10251   0.706   2.854   6.035  0.6441 -0.0030  0.4399
  102OSM   H14S10252   0.669   2.750   6.018  0.0036  0.5227 -1.8265
  102OSM   H14T10253   0.815   2.871   6.040  0.9296 -1.3635 -0.6171
  102OSM   C15S10254   0.652   2.935   5.918  0.4121  0.1561 -0.2789
  102OSM   H15S10255   0.698   3.036   5.923  3.4781 -1.1856  2.0672
  102OSM   H15T10256   0.543   2.954   5.912  0.9866  4.5031  0.2956
  102OSM   C16S10257   0.699   2.872   5.786 -0.0558  0.3052  0.1140
  102OSM   H16S10258   0.623   2.794   5.763  0.3689  0.0438 -0.4298
  102OSM   H16T10259   0.795   2.818   5.788 -0.9336 -1.2973  0.8823
  102OSM   C17S10260   0.690   2.964   5.665 -0.5283  0.4709 -0.1673
  102OSM   H17S10261   0.783   3.026   5.661 -0.9251  1.0205 -1.2468
  102OSM   H17T10262   0.595   3.020   5.676 -1.7101 -1.5168  0.2090
  102OSM   C18S10263   0.687   2.875   5.540  0.1165 -0.1044  0.1499
  102OSM   H18S10264   0.756   2.788   5.541 -0.0841 -0.3013 -1.2154
  102OSM   H18T10265   0.697   2.929   5.443 -0.7504 -1.5578 -0.7772
  102OSM   H18U10266   0.583   2.840   5.527  0.3845 -0.4239 -1.2304
  102OSM    C1F10267   0.438   3.029   7.380 -0.6164  0.6920  0.8598
  102OSM     OF10268   0.522   3.022   7.469  0.0669 -0.1003 -0.0732
  102OSM    C2F10269   0.391   3.154   7.321 -0.1836 -0.2982 -0.5239
  102OSM    H2F10270   0.349   3.219   7.400 -0.0123  2.1446 -2.3337
  102OSM    H2G10271   0.304   3.126   7.257 -1.5809 -2.2549  2.0201
  102OSM    C3F10272   0.502   3.241   7.255  0.7994 -0.3126 -0.2023
  102OSM    H3F10273   0.577   3.260   7.335  0.6703 -1.4569  0.2081
  102OSM    H3G10274   0.458   3.341   7.239 -1.3707 -0.4350  3.6225
  102OSM    C4F10275   0.551   3.162   7.130  0.2620 -0.4549 -0.2346
  102OSM    H4F10276   0.469   3.111   7.076 -0.5175  0.2994  0.2174
  102OSM    H4G10277   0.621   3.087   7.173  0.9870  0.5689  0.4043
  102OSM    C5F10278   0.636   3.256   7.034  0.1787  0.2186 -0.2712
  102OSM    H5F10279   0.735   3.281   7.078 -0.8031  2.1771  1.0082
  102OSM    H5G10280   0.581   3.351   7.020 -0.4533  0.0217  0.7584
  102OSM    C6F10281   0.654   3.190   6.898 -0.3957  0.2546 -0.0238
  102OSM    H6F10282   0.556   3.157   6.860  0.3147 -0.6581 -1.1323
  102OSM    H6G10283   0.724   3.104   6.903 -1.9088 -1.1056 -1.5088
  102OSM    C7F10284   0.714   3.292   6.802 -0.0613  0.4320  0.5078
  102OSM    H7F10285   0.821   3.302   6.831  0.4118  2.3252 -1.6196
  102OSM    H7G10286   0.674   3.395   6.818  0.1159  0.4089  1.1270
  102OSM    C8F10287   0.704   3.255   6.646  0.1928 -0.1180  0.1187
  102OSM    H8F10288   0.758   3.159   6.625  1.6869  0.8995 -0.9293
  102OSM    H8G10289   0.760   3.332   6.589 -0.4895  1.9818  2.1404
  102OSM    C9F10290   0.562   3.251   6.594  0.3986  0.1155  0.1778
  102OSM    H9F10291   0.483   3.209   6.659 -0.1307  2.5615  1.2232
  102OSM   C10F10292   0.527   3.280   6.470  0.0423 -0.1619  0.2899
  102OSM   H10F10293   0.427   3.265   6.428  0.1889 -1.1394  0.2508
  102OSM   C11F10294   0.612   3.350   6.365  0.2388 -0.3178 -0.1444
  102OSM   H11F10295   0.719   3.350   6.393  0.7015  0.2745 -1.7857
  102OSM   H11G10296   0.582   3.455   6.349 -2.2865 -1.4212 -4.2865
  102OSM   C12F10297   0.606   3.280   6.227  0.1577  0.2168  0.3092
  102OSM   H12F10298   0.625   3.172   6.246  0.1960  0.1659 -0.0203
  102OSM   H12G10299   0.679   3.311   6.150  0.8099  0.6190  1.0777
  102OSM   C13F10300   0.473   3.311   6.156  0.8377 -0.1361  0.2218
  102OSM   H13F10301   0.473   3.421   6.169  2.0210 -0.2754  1.6713
  102OSM   H13G10302   0.387   3.266   6.210 -0.2019  0.2255 -1.0925
  102OSM   C14F10303   0.488   3.257   6.016  0.3887 -0.5342  0.1216
  102OSM   H14F10304   0.517   3.150   6.017 -0.4765 -0.7785 -0.1328
  102OSM   H14G10305   0.567   3.304   5.953  0.6382 -2.1930 -0.8550
  102OSM   C15F10306   0.352   3.269   5.934 -0.3118  0.5419  0.4243
  102OSM   H15F10307   0.340   3.372   5.895 -1.4809  0.3693  0.3042
  102OSM   H15G10308   0.260   3.269   5.996 -0.9406 -1.1079 -0.4516
  102OSM   C16F10309   0.350   3.149   5.835 -0.1533  0.7819  0.3245
  102OSM   H16F10310   0.350   3.056   5.895 -2.2289 -1.2679 -2.5953
  102OSM   H16G10311   0.429   3.150   5.757  0.1668 -1.1347  0.5889
  102OSM   C17F10312   0.217   3.150   5.759 -0.3289 -0.0188 -0.2751
  102OSM   H17F10313   0.228   3.240   5.694  1.9126 -0.3852 -0.5121
  102OSM   H17G10314   0.133   3.166   5.830  0.4828  0.5971  0.5762
  102OSM   C18F10315   0.191   3.037   5.663 -0.2451  0.8310  0.3733
  102OSM   H18F10316   0.097   3.060   5.610  0.1644  0.2292 -0.6402
  102OSM   H18G10317   0.167   2.948   5.725 -0.0532 -0.8265 -1.8163
  102OSM   H18H10318   0.264   3.003   5.586  0.0135  0.6894  0.6758
  103OSM      N10319   1.879   2.867   7.930 -0.0559  0.5793 -0.3289
  103OSM    C1510320   1.946   2.748   8.010  0.2458  0.0321  0.0550
  103OSM   H15A10321   1.970   2.776   8.111  1.4687  1.6354 -0.6459
  103OSM   H15B10322   2.032   2.701   7.964  0.6403 -1.8480  2.5195
  103OSM   H15C10323   1.875   2.666   8.014 -0.5315  0.7491  1.7391
  103OSM    C1410324   1.767   2.907   8.018 -0.6935 -0.0219 -0.2260
  103OSM   H14A10325   1.706   2.985   7.974 -0.3337  0.0316 -0.6466
  103OSM   H14B10326   1.812   2.934   8.113  0.0297 -3.4226  0.5236
  103OSM   H14C10327   1.706   2.825   8.051  0.7207 -0.9162  0.2497
  103OSM    C1310328   1.973   2.972   7.907  0.8631 -0.8117 -0.0191
  103OSM   H13A10329   2.063   2.942   7.854  2.3026  1.2061  1.1353
  103OSM   H13B10330   2.003   3.026   7.996 -1.4488  0.8454 -0.1907
  103OSM   H13C10331   1.928   3.049   7.847  1.7343 -0.0915  0.2338
  103OSM    C1210332   1.822   2.821   7.796  0.3329  0.4465 -0.3547
  103OSM   H12A10333   1.769   2.908   7.759 -0.9307 -0.2905 -0.3346
  103OSM   H12B10334   1.758   2.736   7.814  1.1995 -0.4221 -1.2154
  103OSM    C1110335   1.913   2.766   7.679 -0.2569  0.3428 -0.8387
  103OSM   H11A10336   1.980   2.847   7.645 -1.0486  1.6473  0.5680
  103OSM   H11B10337   1.858   2.737   7.587 -0.9787 -0.3131 -0.2206
  103OSM      P10338   1.925   2.515   7.750  0.5696  0.4046  0.2858
  103OSM    O1310339   2.027   2.425   7.809  0.1480 -0.2181  0.7023
  103OSM    O1410340   1.799   2.541   7.825  0.2064 -0.2283  0.3224
  103OSM    O1110341   1.887   2.461   7.602 -1.2315 -1.0826  0.3189
  103OSM    O1210342   1.997   2.656   7.727  0.1683 -0.1812  0.5757
  103OSM    C1S10343   1.973   2.462   7.491 -0.1695 -0.5172 -0.5109
  103OSM    H1S10344   2.056   2.389   7.506  0.9385  0.7034 -0.4957
  103OSM    H1T10345   2.010   2.562   7.461 -1.7948  0.0883 -0.5528
  103OSM     NF10346   1.981   2.392   7.260  0.4108 -0.4756  0.0748
  103OSM    HNF10347   2.009   2.460   7.193  3.1870 -1.9033 -0.3846
  103OSM    C2S10348   1.890   2.425   7.363  0.3427  1.1190  0.5324
  103OSM    H2S10349   1.825   2.336   7.376  0.2243  0.3451 -3.8640
  103OSM    C3S10350   1.786   2.538   7.325 -0.3498  1.0371 -0.0155
  103OSM    H3S10351   1.841   2.633   7.315 -0.2974  0.8695 -1.5780
  103OSM     O310352   1.693   2.559   7.428 -0.5027 -0.0401  0.6122
  103OSM    HO310353   1.745   2.528   7.502  0.2117 -1.1788 -0.3310
  103OSM    C4S10354   1.713   2.508   7.200 -0.0450  0.3045 -0.0165
  103OSM    H4S10355   1.765   2.560   7.118 -1.8167  0.1803 -1.2660
  103OSM    C5S10356   1.591   2.455   7.179  0.3121  0.3725 -0.2991
  103OSM    H5S10357   1.520   2.436   7.261  0.7470  0.7291  0.1656
  103OSM    C6S10358   1.539   2.457   7.039  0.8499  0.1674 -0.6752
  103OSM    H6S10359   1.542   2.560   6.998 -1.6344  0.3339 -0.5498
  103OSM    H6T10360   1.431   2.435   7.027  1.1057 -0.2731 -2.4914
  103OSM    C7S10361   1.611   2.369   6.939  0.0511  0.3801  0.0757
  103OSM    H7S10362   1.584   2.264   6.966 -1.8858  0.3005 -1.8080
  103OSM    H7T10363   1.720   2.382   6.955  0.5122 -3.1320  0.5996
  103OSM    C8S10364   1.553   2.385   6.794 -0.7572 -0.2981 -0.5581
  103OSM    H8S10365   1.570   2.493   6.770 -0.2253  0.4395  2.7177
  103OSM    H8T10366   1.446   2.355   6.796 -0.2106 -2.3207  1.4692
  103OSM    C9S10367   1.629   2.291   6.704 -0.2016 -0.4960  0.4436
  103OSM    H9S10368   1.617   2.187   6.742 -0.7036 -1.0544 -1.1811
  103OSM    H9T10369   1.736   2.321   6.707 -0.9305  2.4847 -0.1599
  103OSM   C10S10370   1.588   2.308   6.550  0.2748 -0.3759  0.1403
  103OSM   H10S10371   1.477   2.313   6.549  0.2863 -0.0431  0.3419
  103OSM   H10T10372   1.616   2.216   6.494 -1.2970 -2.0719  1.9944
  103OSM   C11S10373   1.637   2.442   6.496 -0.1172  0.1319  0.6412
  103OSM   H11S10374   1.747   2.447   6.514 -0.3842  2.4460  2.1806
  103OSM   H11T10375   1.583   2.518   6.557 -0.5175 -0.4344  0.9959
  103OSM   C12S10376   1.603   2.471   6.349 -0.2970  0.1061 -0.0978
  103OSM   H12S10377   1.624   2.578   6.326  2.4439 -0.8401 -2.5377
  103OSM   H12T10378   1.492   2.472   6.345 -0.4599  1.2070  2.5136
  103OSM   C13S10379   1.687   2.388   6.254 -0.2373 -0.0858  0.0153
  103OSM   H13S10380   1.694   2.285   6.295  3.0613  0.1479  0.2878
  103OSM   H13T10381   1.793   2.418   6.267  0.6300 -0.6357 -4.1460
  103OSM   C14S10382   1.642   2.366   6.113 -0.5131  0.3699  0.1946
  103OSM   H14S10383   1.546   2.311   6.101 -0.8192  0.7912  0.6834
  103OSM   H14T10384   1.717   2.302   6.062 -0.0775 -1.0484  2.4536
  103OSM   C15S10385   1.645   2.490   6.033  0.2938  0.4650  0.3479
  103OSM   H15S10386   1.742   2.544   6.021 -0.5075  1.4776 -2.4232
  103OSM   H15T10387   1.578   2.557   6.091  1.2949  0.2948  1.7659
  103OSM   C16S10388   1.581   2.467   5.896 -0.1535 -0.0116 -0.2585
  103OSM   H16S10389   1.622   2.376   5.848 -2.0516 -1.2538  0.3643
  103OSM   H16T10390   1.609   2.541   5.818  1.0525  1.4676  1.4918
  103OSM   C17S10391   1.429   2.446   5.892  0.0933 -0.3805  0.1670
  103OSM   H17S10392   1.391   2.542   5.933  1.5728  1.0768 -1.6583
  103OSM   H17T10393   1.400   2.370   5.968  1.1540  0.6742  1.7108
  103OSM   C18S10394   1.370   2.405   5.760  0.3024  0.3370  0.5979
  103OSM   H18S10395   1.426   2.321   5.713  0.5169  1.0023 -0.3790
  103OSM   H18T10396   1.364   2.487   5.685 -0.4917  0.1734  0.4804
  103OSM   H18U10397   1.269   2.362   5.776 -0.2576  1.2736 -0.2415
  103OSM    C1F10398   2.064   2.286   7.257  0.1846  0.5477 -0.3693
  103OSM     OF10399   2.039   2.188   7.327  0.1885 -0.5478 -0.1173
  103OSM    C2F10400   2.183   2.279   7.169  0.1192  0.4380  0.7843
  103OSM    H2F10401   2.257   2.209   7.213 -0.2895 -0.0102  0.7719
  103OSM    H2G10402   2.222   2.382   7.154 -0.7301  1.3223  3.9246
  103OSM    C3F10403   2.127   2.214   7.042  0.1736 -0.1124  0.1134
  103OSM    H3F10404   2.209   2.215   6.968 -0.8544 -0.8449 -1.0859
  103OSM    H3G10405   2.053   2.281   6.991  1.3680  1.2317  0.0791
  103OSM    C4F10406   2.091   2.068   7.059 -0.6926  0.0184 -0.2727
  103OSM    H4F10407   1.998   2.048   7.116 -1.5207  2.1542 -0.7776
  103OSM    H4G10408   2.170   2.017   7.117 -0.0863  1.8550  0.5906
  103OSM    C5F10409   2.053   2.000   6.926  0.0383  0.2452 -0.3687
  103OSM    H5F10410   2.040   1.890   6.934 -3.1967  0.4222 -1.5189
  103OSM    H5G10411   2.139   2.016   6.857  0.4540 -3.0208 -0.7932
  103OSM    C6F10412   1.936   2.052   6.848 -0.0918 -0.1565  0.3455
  103OSM    H6F10413   1.949   2.161   6.835  0.5841 -0.3373 -0.5986
  103OSM    H6G10414   1.839   2.043   6.902 -1.3120  1.5751 -1.4350
  103OSM    C7F10415   1.914   2.000   6.699  0.1925  0.1479 -0.9451
  103OSM    H7F10416   1.807   2.022   6.677 -0.2512 -1.9346 -1.0734
  103OSM    H7G10417   1.921   1.890   6.712 -0.3190  0.4421  3.0011
  103OSM    C8F10418   2.000   2.049   6.593  0.0785  0.4012 -0.1542
  103OSM    H8F10419   1.982   1.989   6.501  0.5223  1.1973 -0.7782
  103OSM    H8G10420   2.107   2.034   6.617  0.1929  2.8664  1.2260
  103OSM    C9F10421   1.987   2.198   6.557  0.2332 -0.0318 -0.3537
  103OSM    H9F10422   1.982   2.274   6.637  1.4240  0.7441 -0.9781
  103OSM   C10F10423   1.971   2.239   6.429  0.5430  0.5408  0.2310
  103OSM   H10F10424   1.960   2.346   6.407  2.3930  0.0547 -3.8861
  103OSM   C11F10425   1.981   2.148   6.306 -0.8621  0.1750  1.2390
  103OSM   H11F10426   1.879   2.125   6.269 -0.0846 -1.3486 -0.0816
  103OSM   H11G10427   2.021   2.046   6.321 -3.4169 -1.1219 -0.1723
  103OSM   C12F10428   2.071   2.208   6.191  0.5750  0.1090 -0.0663
  103OSM   H12F10429   2.177   2.214   6.225  0.2248 -0.8945  1.2663
  103OSM   H12G10430   2.038   2.313   6.172 -0.1498 -0.1402 -0.2039
  103OSM   C13F10431   2.063   2.133   6.056  0.3965 -0.7799 -0.1864
  103OSM   H13F10432   1.992   2.049   6.069  0.6285 -1.0029 -0.3312
  103OSM   H13G10433   2.163   2.093   6.027  1.4263  1.5313 -0.0331
  103OSM   C14F10434   2.000   2.230   5.949 -0.6242 -0.1163 -0.0490
  103OSM   H14F10435   2.046   2.331   5.952  0.2993 -0.5430  0.8753
  103OSM   H14G10436   1.892   2.249   5.961  0.0339  4.2037  0.7321
  103OSM   C15F10437   2.020   2.178   5.806 -0.4606  0.1292  0.1014
  103OSM   H15F10438   1.936   2.110   5.779 -1.8571  0.9675  2.0837
  103OSM   H15G10439   2.115   2.122   5.790 -1.0587 -0.5770 -1.1769
  103OSM   C16F10440   2.028   2.303   5.720 -0.8315 -0.0563 -0.3644
  103OSM   H16F10441   2.098   2.280   5.636 -0.3473 -0.4154  0.1316
  103OSM   H16G10442   2.084   2.384   5.771  0.6747 -0.5841 -1.0793
  103OSM   C17F10443   1.898   2.357   5.669 -0.2527  0.1205 -0.2263
  103OSM   H17F10444   1.843   2.411   5.749  1.3409 -0.0942  1.0745
  103OSM   H17G10445   1.846   2.262   5.643 -0.7399  0.0193  1.0500
  103OSM   C18F10446   1.911   2.441   5.542  0.1310 -0.6159 -0.4398
  103OSM   H18F10447   1.976   2.383   5.473  0.7754  1.2590 -1.5006
  103OSM   H18G10448   1.957   2.539   5.568  1.0697 -1.4175  1.0840
  103OSM   H18H10449   1.810   2.454   5.500 -1.7669  2.6262  4.2892
  104OSM      N10450   0.049   4.658   7.909  0.3938 -0.2405  0.7697
  104OSM    C1510451   0.026   4.612   8.048 -0.6508  0.2617  0.5131
  104OSM   H15A10452   0.112   4.555   8.079  0.4805  1.7083  0.1390
  104OSM   H15B10453  -0.066   4.556   8.058 -1.6429  1.9612  1.2248
  104OSM   H15C10454   0.026   4.697   8.114  1.4162  0.7015  0.0210
  104OSM    C1410455  -0.057   4.757   7.874 -0.6457  0.1514  0.7825
  104OSM   H14A10456  -0.030   4.807   7.782 -0.7717  1.2473  1.3175
  104OSM   H14B10457  -0.056   4.835   7.949 -0.5212  1.4468 -0.5217
  104OSM   H14C10458  -0.160   4.725   7.868 -0.9186  1.1708 -0.2508
  104OSM    C1310459   0.178   4.724   7.911 -0.0191 -0.1208 -0.7949
  104OSM   H13A10460   0.255   4.653   7.940 -0.5410 -0.1705  0.5253
  104OSM   H13B10461   0.172   4.805   7.982  1.3723 -0.2536 -0.4990
  104OSM   H13C10462   0.201   4.768   7.815  1.5882  0.5947 -0.1247
  104OSM    C1210463   0.048   4.542   7.802  0.1109 -0.3690  0.0626
  104OSM   H12A10464   0.151   4.513   7.793 -0.0322 -0.5983 -1.0263
  104OSM   H12B10465   0.012   4.584   7.709 -0.1052 -1.5146 -0.3904
  104OSM    C1110466  -0.033   4.419   7.835 -0.0369  0.1581 -0.2164
  104OSM   H11A10467   0.020   4.356   7.910 -1.2092 -1.9377 -1.0571
  104OSM   H11B10468  -0.034   4.355   7.744  1.8867  0.5347 -0.5432
  104OSM      P10469  -0.283   4.489   7.779  0.4826  0.3450  0.4260
  104OSM    O1310470  -0.377   4.376   7.776  0.3826 -0.1890  0.2008
  104OSM    O1410471  -0.337   4.625   7.808 -0.3714 -0.1080  0.6069
  104OSM    O1110472  -0.230   4.501   7.636  0.1525  0.7019 -0.3287
  104OSM    O1210473  -0.164   4.452   7.879  0.1265 -0.5539  0.0853
  104OSM    C1S10474  -0.256   4.391   7.542  0.1967 -0.1435  0.1899
  104OSM    H1S10475  -0.361   4.357   7.547  0.6074 -1.3326  3.8287
  104OSM    H1T10476  -0.202   4.300   7.577 -0.3746 -0.7921 -0.6027
  104OSM     NF10477  -0.246   4.334   7.305  0.1908 -0.4766  0.2545
  104OSM    HNF10478  -0.179   4.261   7.293 -0.6122 -1.6389  2.3125
  104OSM    C2S10479  -0.207   4.439   7.400 -0.3713 -0.1483  0.4369
  104OSM    H2S10480  -0.262   4.532   7.374 -0.4244  0.0628  1.2622
  104OSM    C3S10481  -0.065   4.480   7.397  0.1734 -0.0554  0.4716
  104OSM    H3S10482  -0.004   4.390   7.419  1.2750  1.0143  2.1139
  104OSM     O310483  -0.031   4.580   7.493  0.3269  0.1267 -0.2411
  104OSM    HO310484  -0.106   4.584   7.552 -0.5468  1.6774 -1.3954
  104OSM    C4S10485  -0.030   4.537   7.266 -0.2101 -0.6423 -0.3563
  104OSM    H4S10486  -0.083   4.633   7.253  2.0925  0.8470  0.6444
  104OSM    C5S10487   0.044   4.478   7.177 -0.4057  0.6505  0.4837
  104OSM    H5S10488   0.074   4.373   7.197 -0.7902 -0.1323 -2.5443
  104OSM    C6S10489   0.070   4.518   7.034  0.5733 -0.5952  0.3564
  104OSM    H6S10490   0.119   4.432   6.984  1.0061  0.5883 -1.3654
  104OSM    H6T10491   0.145   4.600   7.032  0.4696 -0.5119 -1.2340
  104OSM    C7S10492  -0.057   4.577   6.971  0.5168  0.7633 -0.0132
  104OSM    H7S10493  -0.092   4.669   7.024  0.7253  1.2679 -0.7380
  104OSM    H7T10494  -0.139   4.505   6.988  1.0880  0.4019  1.4168
  104OSM    C8S10495  -0.026   4.617   6.826  0.1570 -0.0855 -0.4360
  104OSM    H8S10496   0.061   4.686   6.833 -0.9229  1.1417  2.4064
  104OSM    H8T10497  -0.118   4.668   6.792  0.2254 -1.0775 -2.1868
  104OSM    C9S10498   0.005   4.499   6.736  0.4201 -0.3696 -0.1953
  104OSM    H9S10499  -0.090   4.441   6.733 -0.4658  0.7733  2.7526
  104OSM    H9T10500   0.081   4.443   6.793 -0.7874 -0.4746  1.3701
  104OSM   C10S10501   0.064   4.541   6.596 -0.2477 -0.0288  0.1445
  104OSM   H10S10502   0.121   4.449   6.570  0.4685  0.4105  0.1185
  104OSM   H10T10503   0.137   4.623   6.610 -1.1480  1.1537 -1.7016
  104OSM   C11S10504  -0.036   4.584   6.489  0.7594  0.3515  0.3269
  104OSM   H11S10505  -0.083   4.679   6.524 -0.8818  0.9263 -3.0311
  104OSM   H11T10506  -0.120   4.512   6.478  2.6972 -2.0227  0.3614
  104OSM   C12S10507   0.041   4.596   6.357  0.0993 -0.2213 -0.2790
  104OSM   H12S10508   0.056   4.494   6.315 -1.1166 -0.8519  0.7416
  104OSM   H12T10509   0.140   4.641   6.378 -0.6764  1.1654  0.5562
  104OSM   C13S10510  -0.044   4.678   6.263 -0.4465  0.7290  0.0276
  104OSM   H13S10511  -0.039   4.777   6.311 -0.1291  1.3532 -1.2486
  104OSM   H13T10512  -0.151   4.647   6.263 -0.5400  0.9533  1.7501
  104OSM   C14S10513  -0.006   4.664   6.112  0.8345  0.3084 -0.0238
  104OSM   H14S10514  -0.067   4.582   6.067 -0.2000  0.6299  0.7463
  104OSM   H14T10515   0.099   4.629   6.112  0.8183  0.2625 -0.2725
  104OSM   C15S10516  -0.018   4.785   6.021 -0.6385 -0.0538  0.1450
  104OSM   H15S10517   0.070   4.852   6.033 -0.5627 -0.1817  0.3011
  104OSM   H15T10518  -0.101   4.850   6.058 -0.5713  0.7788 -1.1177
  104OSM   C16S10519  -0.039   4.742   5.873  0.0603  0.5539  0.3781
  104OSM   H16S10520  -0.008   4.829   5.812 -0.6378  1.0815  0.7691
  104OSM   H16T10521  -0.144   4.712   5.854  0.5160 -1.1679  0.3876
  104OSM   C17S10522   0.062   4.641   5.822  0.0394  0.2228 -0.4018
  104OSM   H17S10523   0.041   4.548   5.879 -2.3040  0.6524 -0.4753
  104OSM   H17T10524   0.169   4.657   5.845 -0.4630  0.3495  2.1822
  104OSM   C18S10525   0.057   4.612   5.675  0.1694  0.2133 -0.7610
  104OSM   H18S10526   0.032   4.707   5.624 -0.8231  0.2260 -0.2630
  104OSM   H18T10527  -0.027   4.544   5.647 -0.5400  0.1079  1.4239
  104OSM   H18U10528   0.157   4.569   5.651  0.9954  1.2323  0.7176
  104OSM    C1F10529  -0.374   4.321   7.269  0.1493 -0.5192  0.1273
  104OSM     OF10530  -0.450   4.399   7.327  0.0528  0.6652 -0.9137
  104OSM    C2F10531  -0.421   4.214   7.169 -0.4471 -0.0148  0.8626
  104OSM    H2F10532  -0.530   4.197   7.183 -0.3835 -2.9334 -1.3800
  104OSM    H2G10533  -0.358   4.123   7.166  2.2552  1.7536  0.2191
  104OSM    C3F10534  -0.397   4.272   7.030  0.4927  0.1027  0.2133
  104OSM    H3F10535  -0.434   4.191   6.964 -1.4097  1.8271 -0.9580
  104OSM    H3G10536  -0.290   4.298   7.015 -0.2747  3.1023 -0.9189
  104OSM    C4F10537  -0.479   4.404   7.007 -0.0921  0.2033  0.0305
  104OSM    H4F10538  -0.463   4.472   7.092 -2.6937 -0.2259  0.9640
  104OSM    H4G10539  -0.587   4.378   7.010 -0.2760  0.9956  0.3080
  104OSM    C5F10540  -0.454   4.468   6.867 -0.1082  0.3650 -0.4287
  104OSM    H5F10541  -0.349   4.501   6.857  0.1366  0.5502  1.9825
  104OSM    H5G10542  -0.527   4.552   6.862 -0.8191 -0.2875 -1.2650
  104OSM    C6F10543  -0.495   4.369   6.750 -0.0111  0.2842  0.1003
  104OSM    H6F10544  -0.603   4.345   6.752 -0.4404  1.5414 -2.6913
  104OSM    H6G10545  -0.426   4.282   6.755  0.2682  0.4156 -1.1578
  104OSM    C7F10546  -0.463   4.435   6.612  0.6199 -0.0102 -0.8825
  104OSM    H7F10547  -0.354   4.451   6.605  0.5334  0.2888 -1.6533
  104OSM    H7G10548  -0.513   4.535   6.617  0.6619 -0.0345  0.6754
  104OSM    C8F10549  -0.518   4.352   6.493 -0.0461  0.1021 -0.4068
  104OSM    H8F10550  -0.537   4.411   6.401 -0.8574 -0.1795 -0.4270
  104OSM    H8G10551  -0.622   4.327   6.521  0.0761  1.1083  1.0630
  104OSM    C9F10552  -0.432   4.228   6.471  0.7327  0.0037 -0.2437
  104OSM    H9F10553  -0.396   4.174   6.559 -0.2315  0.9357  0.7546
  104OSM   C10F10554  -0.369   4.206   6.353  0.0423 -0.2237 -0.1853
  104OSM   H10F10555  -0.308   4.115   6.344  0.9905  0.1186  2.0649
  104OSM   C11F10556  -0.412   4.269   6.221  0.0195 -0.1710 -0.1426
  104OSM   H11F10557  -0.517   4.305   6.231 -0.2050 -1.0398  0.8083
  104OSM   H11G10558  -0.412   4.191   6.142 -2.2773  0.2223 -0.5944
  104OSM   C12F10559  -0.318   4.381   6.170  0.4996 -0.1183 -0.0451
  104OSM   H12F10560  -0.210   4.359   6.180  1.0317  2.5815  0.9416
  104OSM   H12G10561  -0.326   4.468   6.238  3.2723  0.8975 -0.8614
  104OSM   C13F10562  -0.365   4.414   6.025 -0.4173 -0.3896  0.0426
  104OSM   H13F10563  -0.325   4.514   5.998  0.8631 -1.0581 -0.6177
  104OSM   H13G10564  -0.476   4.414   6.025 -0.4676 -0.0296  2.8825
  104OSM   C14F10565  -0.297   4.328   5.915 -0.1001  0.4550  0.1279
  104OSM   H14F10566  -0.298   4.218   5.928 -0.0963  0.0615 -2.6295
  104OSM   H14G10567  -0.196   4.371   5.930 -0.6691  1.2886  1.9649
  104OSM   C15F10568  -0.346   4.353   5.770  0.1570  0.2784 -0.3157
  104OSM   H15F10569  -0.321   4.455   5.733  0.8807  0.0699 -0.4240
  104OSM   H15G10570  -0.454   4.328   5.773  0.4897 -1.1543  0.4221
  104OSM   C16F10571  -0.245   4.274   5.676  0.9592  0.0540 -0.4261
  104OSM   H16F10572  -0.239   4.166   5.703 -0.2341 -0.1536 -0.9583
  104OSM   H16G10573  -0.142   4.314   5.684  1.0551 -0.4596  1.5856
  104OSM   C17F10574  -0.277   4.292   5.527  0.2791 -0.9662 -0.1927
  104OSM   H17F10575  -0.270   4.402   5.509  0.3673 -0.7330  1.1919
  104OSM   H17G10576  -0.378   4.252   5.504 -0.1509 -0.1647  0.2685
  104OSM   C18F10577  -0.181   4.219   5.435 -0.5910  0.1483 -0.2348
  104OSM   H18F10578  -0.077   4.257   5.443  0.2339 -1.6756 -1.4224
  104OSM   H18G10579  -0.202   4.240   5.328 -1.4159  2.2725  0.3008
  104OSM   H18H10580  -0.183   4.110   5.461 -0.1064 -0.2124 -1.6285
  105OSM      N10581   2.534   3.645   7.333  0.3010 -0.5319 -0.1823
  105OSM    C1510582   2.541   3.565   7.463 -0.5389  0.2670  0.6835
  105OSM   H15A10583   2.579   3.467   7.437 -1.7681 -0.2747  0.8739
  105OSM   H15B10584   2.448   3.568   7.518  0.5443  3.0691  2.5918
  105OSM   H15C10585   2.605   3.620   7.530 -1.6467  2.2977  0.1438
  105OSM    C1410586   2.511   3.795   7.366  0.4693 -0.0329  0.0760
  105OSM   H14A10587   2.591   3.837   7.425  1.5334 -0.0493 -1.2920
  105OSM   H14B10588   2.414   3.814   7.408  0.8611  1.5651  0.3113
  105OSM   H14C10589   2.518   3.848   7.272 -2.5208 -2.7910 -1.9112
  105OSM    C1310590   2.668   3.636   7.276 -0.1820  0.2532 -0.8403
  105OSM   H13A10591   2.682   3.702   7.191  0.2432  1.3671  0.0723
  105OSM   H13B10592   2.706   3.538   7.249  2.0585 -0.5087  3.9944
  105OSM   H13C10593   2.743   3.674   7.344 -0.2295 -4.0495  1.9767
  105OSM    C1210594   2.433   3.588   7.240  0.8919 -0.6835  1.1676
  105OSM   H12A10595   2.426   3.660   7.159 -0.2225 -2.1701 -0.1350
  105OSM   H12B10596   2.338   3.597   7.290  0.6630  0.6763  0.5328
  105OSM    C1110597   2.439   3.446   7.189 -0.0464 -0.4539  1.1027
  105OSM   H11A10598   2.537   3.423   7.141 -0.7478 -0.1711 -0.4981
  105OSM   H11B10599   2.364   3.439   7.108 -0.1720  0.9822  1.0838
  105OSM      P10600   2.267   3.292   7.330 -0.0033  0.0811 -0.2891
  105OSM    O1310601   2.293   3.184   7.425 -0.5221 -0.3467  0.0650
  105OSM    O1410602   2.170   3.399   7.364  0.1003  0.2817  0.0809
  105OSM    O1110603   2.209   3.228   7.195 -0.0231  0.4067 -0.1764
  105OSM    O1210604   2.418   3.346   7.291 -0.3349 -0.0939 -0.5909
  105OSM    C1S10605   2.289   3.149   7.110 -0.1924  0.1551 -0.2930
  105OSM    H1S10606   2.323   3.058   7.164 -1.8072  0.3222  1.0966
  105OSM    H1T10607   2.375   3.205   7.067 -1.3205  1.6750 -0.6462
  105OSM     NF10608   2.281   3.056   6.873  0.2985 -0.0869 -0.7072
  105OSM    HNF10609   2.305   3.116   6.796 -0.2294  0.7049 -0.2665
  105OSM    C2S10610   2.197   3.117   6.983 -0.0435 -0.2861  0.1179
  105OSM    H2S10611   2.131   3.036   7.019  0.1968 -0.1476  0.8853
  105OSM    C3S10612   2.114   3.239   6.921  0.5863 -0.1018  0.0170
  105OSM    H3S10613   2.195   3.308   6.886  0.8066 -1.3607 -2.1500
  105OSM     O310614   2.045   3.321   7.014 -0.0182 -0.7944 -0.3253
  105OSM    HO310615   2.076   3.291   7.100  1.6522  0.4838 -0.4190
  105OSM    C4S10616   2.034   3.219   6.792  0.1024 -0.1781  0.4247
  105OSM    H4S10617   2.077   3.237   6.693 -2.1358  0.9095 -0.4233
  105OSM    C5S10618   1.917   3.160   6.789  0.4686 -0.0850 -0.3032
  105OSM    H5S10619   1.877   3.124   6.885 -1.7331 -0.0966 -1.1689
  105OSM    C6S10620   1.825   3.135   6.666  0.8956  0.4514 -0.3220
  105OSM    H6S10621   1.725   3.182   6.681  0.5718 -0.3143 -0.0138
  105OSM    H6T10622   1.820   3.024   6.656  0.7661  0.0298  3.2017
  105OSM    C7S10623   1.887   3.178   6.527 -0.1901 -0.3667 -0.5287
  105OSM    H7S10624   1.992   3.140   6.534 -0.3083 -0.3851  2.0716
  105OSM    H7T10625   1.903   3.288   6.525  0.3031 -0.4391 -0.8837
  105OSM    C8S10626   1.818   3.140   6.398  0.0541 -0.1272  0.4097
  105OSM    H8S10627   1.716   3.182   6.405  0.2578  0.3903  0.3195
  105OSM    H8T10628   1.813   3.031   6.377 -2.7480  0.2893 -1.6181
  105OSM    C9S10629   1.891   3.216   6.284  0.5329  0.2936  0.3789
  105OSM    H9S10630   1.995   3.179   6.292  0.1533 -0.7098  0.7800
  105OSM    H9T10631   1.887   3.327   6.294 -0.4517  0.3545 -0.5304
  105OSM   C10S10632   1.851   3.181   6.130  0.1238 -0.9701 -0.6493
  105OSM   H10S10633   1.745   3.204   6.106  0.9037  0.1749 -3.3987
  105OSM   H10T10634   1.868   3.071   6.128  2.1870 -0.7141  0.2684
  105OSM   C11S10635   1.922   3.258   6.026 -0.2009 -0.2702  0.3279
  105OSM   H11S10636   2.032   3.253   6.042  0.3542  1.2648 -2.4242
  105OSM   H11T10637   1.918   3.369   6.027  0.5859 -0.2334  1.3550
  105OSM   C12S10638   1.901   3.199   5.894  0.3646  0.4591 -0.0556
  105OSM   H12S10639   1.793   3.190   5.870  0.6402  0.5278 -1.3640
  105OSM   H12T10640   1.938   3.094   5.890  2.8162  1.3129 -2.4992
  105OSM   C13S10641   1.988   3.266   5.787  0.0557  0.5421 -0.0760
  105OSM   H13S10642   2.090   3.224   5.804 -0.7246 -1.3495  0.1636
  105OSM   H13T10643   1.994   3.377   5.783 -1.2566  0.7616  2.2166
  105OSM   C14S10644   1.958   3.229   5.641  0.6661  0.2884  0.4866
  105OSM   H14S10645   1.862   3.273   5.604 -0.1556 -2.0077 -0.3084
  105OSM   H14T10646   1.935   3.121   5.633 -0.8862  0.4928  1.5725
  105OSM   C15S10647   2.068   3.246   5.540 -0.2478  0.2231 -0.4735
  105OSM   H15S10648   2.057   3.173   5.457 -1.0328 -0.5777  0.3118
  105OSM   H15T10649   2.158   3.211   5.596  0.5526  0.6419 -1.4664
  105OSM   C16S10650   2.109   3.387   5.493  0.2716 -0.0235 -0.0141
  105OSM   H16S10651   2.124   3.458   5.577  0.8487 -0.8419  0.5945
  105OSM   H16T10652   2.031   3.429   5.426  2.0629  1.1494 -1.4604
  105OSM   C17S10653   2.244   3.393   5.422  0.1427  0.5119  0.0568
  105OSM   H17S10654   2.327   3.378   5.493 -0.6047 -2.4794  0.4612
  105OSM   H17T10655   2.240   3.500   5.394 -0.1394  0.9619  1.7201
  105OSM   C18S10656   2.273   3.299   5.299 -1.2015  0.1896 -0.2625
  105OSM   H18S10657   2.309   3.196   5.321  1.2526  0.9280 -0.5607
  105OSM   H18T10658   2.366   3.338   5.253 -0.3384  0.3335  1.5315
  105OSM   H18U10659   2.189   3.307   5.226 -0.5762 -0.5482 -1.0808
  105OSM    C1F10660   2.336   2.940   6.885 -0.1967  0.5321  0.1714
  105OSM     OF10661   2.290   2.865   6.970  0.0425  0.1243 -0.5149
  105OSM    C2F10662   2.452   2.906   6.792 -0.7948 -0.5820  0.3460
  105OSM    H2F10663   2.543   2.963   6.820 -1.2163  0.1841  0.1661
  105OSM    H2G10664   2.429   2.928   6.686 -0.7089 -0.4873  0.3469
  105OSM    C3F10665   2.476   2.753   6.799 -0.0778 -0.1696 -0.3060
  105OSM    H3F10666   2.391   2.694   6.759  1.0837 -1.3308 -1.1327
  105OSM    H3G10667   2.495   2.715   6.902  1.2338 -0.1478 -0.5237
  105OSM    C4F10668   2.592   2.702   6.714 -0.6819  0.2133 -0.2225
  105OSM    H4F10669   2.624   2.599   6.743 -0.1389  0.2747 -0.5974
  105OSM    H4G10670   2.681   2.766   6.729 -2.8449  3.2721  0.3616
  105OSM    C5F10671   2.560   2.688   6.561  0.1378  0.1726 -0.2154
  105OSM    H5F10672   2.538   2.793   6.531  2.1291  1.1837  1.6640
  105OSM    H5G10673   2.475   2.618   6.541 -0.4579  0.9259 -0.3551
  105OSM    C6F10674   2.683   2.645   6.483 -0.3752 -0.6587  0.2234
  105OSM    H6F10675   2.741   2.561   6.528  2.2224  1.0506  0.2241
  105OSM    H6G10676   2.755   2.729   6.475  0.3986 -1.3326  0.0267
  105OSM    C7F10677   2.646   2.610   6.340  0.2195 -0.5615 -0.2392
  105OSM    H7F10678   2.585   2.692   6.295  0.2120 -0.3509  0.1518
  105OSM    H7G10679   2.572   2.527   6.344  1.9140 -2.1034  0.4713
  105OSM    C8F10680   2.765   2.548   6.258 -0.4398  0.3343 -0.4988
  105OSM    H8F10681   2.733   2.549   6.151  0.1833 -3.0762 -0.8342
  105OSM    H8G10682   2.766   2.440   6.283 -2.1382  0.1859 -0.8911
  105OSM    C9F10683   2.898   2.618   6.268 -0.2733  0.7261  0.2815
  105OSM    H9F10684   2.948   2.585   6.360 -0.8124  1.9948  1.0595
  105OSM   C10F10685   2.954   2.723   6.205  0.1329 -0.7840  0.2636
  105OSM   H10F10686   3.057   2.758   6.226  0.2246 -0.7216 -0.2812
  105OSM   C11F10687   2.890   2.806   6.098  0.2223 -0.2302 -0.2753
  105OSM   H11F10688   2.903   2.909   6.137  2.3076 -0.3384 -0.5507
  105OSM   H11G10689   2.782   2.789   6.083  0.1276  0.4215 -0.3744
  105OSM   C12F10690   2.964   2.799   5.962 -0.4857 -0.1334 -0.3977
  105OSM   H12F10691   3.072   2.826   5.960 -0.9021  1.7553  0.3575
  105OSM   H12G10692   2.918   2.879   5.900 -0.3900 -0.0773 -0.3976
  105OSM   C13F10693   2.937   2.667   5.886  0.2836 -0.1049 -0.0448
  105OSM   H13F10694   2.831   2.636   5.891  0.5283 -0.9169  0.3463
  105OSM   H13G10695   2.995   2.590   5.941 -0.9489 -0.2405  1.1101
  105OSM   C14F10696   2.982   2.674   5.739 -0.3690 -0.5766 -0.4790
  105OSM   H14F10697   3.080   2.725   5.730 -0.5607 -0.5036 -2.9855
  105OSM   H14G10698   2.905   2.733   5.685 -0.2099 -2.6216 -3.1826
  105OSM   C15F10699   3.017   2.541   5.677  0.3047 -0.5491 -0.0631
  105OSM   H15F10700   2.926   2.477   5.680 -0.4415  0.4787 -0.2427
  105OSM   H15G10701   3.096   2.492   5.738 -0.3202 -0.1671  1.0752
  105OSM   C16F10702   3.058   2.568   5.531 -0.4931  0.3832 -0.3871
  105OSM   H16F10703   3.160   2.612   5.524 -1.7505  3.9615  1.1558
  105OSM   H16G10704   2.992   2.650   5.493 -1.6619 -0.3052  0.1008
  105OSM   C17F10705   3.038   2.451   5.445 -1.1512 -0.2326 -0.2463
  105OSM   H17F10706   3.037   2.490   5.341 -0.2606  2.4701  0.6840
  105OSM   H17G10707   2.952   2.385   5.470 -0.7709 -1.0107 -0.9273
  105OSM   C18F10708   3.166   2.362   5.443 -1.0166 -0.2594  0.3716
  105OSM   H18F10709   3.248   2.436   5.433 -0.9488 -0.0526  2.1098
  105OSM   H18G10710   3.170   2.295   5.355  1.7633 -0.4503  0.5805
  105OSM   H18H10711   3.174   2.309   5.541 -1.0980 -0.7929  0.0916
  106OSM      N10712   0.147   3.325   7.741 -0.3507  0.5040 -0.4099
  106OSM    C1510713   0.228   3.451   7.769 -0.0604  0.2583  0.2999
  106OSM   H15A10714   0.296   3.470   7.688  1.3839 -3.3201  0.4894
  106OSM   H15B10715   0.296   3.441   7.853 -0.0138 -2.4915  0.0139
  106OSM   H15C10716   0.169   3.537   7.796  0.7398  0.2490  2.2618
  106OSM    C1410717   0.088   3.277   7.867 -0.1551 -0.3361  0.3934
  106OSM   H14A10718   0.022   3.192   7.857 -1.5722  0.9616 -2.4571
  106OSM   H14B10719   0.023   3.358   7.897  0.6915 -0.2294  2.0331
  106OSM   H14C10720   0.162   3.268   7.945  1.7662  0.0956 -1.3033
  106OSM    C1310721   0.035   3.362   7.647  0.2191 -0.5435 -0.1731
  106OSM   H13A10722  -0.032   3.440   7.682  1.4316  0.4423  0.0493
  106OSM   H13B10723  -0.028   3.279   7.618  1.2257 -1.5764  0.5342
  106OSM   H13C10724   0.079   3.387   7.552  0.5603 -2.3594 -0.5211
  106OSM    C1210725   0.240   3.229   7.674 -0.5154 -0.3494  0.7295
  106OSM   H12A10726   0.320   3.194   7.738  1.2694 -0.4043 -1.3736
  106OSM   H12B10727   0.288   3.286   7.595 -0.4148 -0.4174  0.7413
  106OSM    C1110728   0.163   3.110   7.605  1.0663  0.1750  0.9235
  106OSM   H11A10729   0.238   3.048   7.550  0.2397  0.3668 -0.4597
  106OSM   H11B10730   0.102   3.161   7.527 -1.5111  0.3382  2.9570
  106OSM      P10731  -0.053   2.984   7.669  0.2965 -0.1777  0.3420
  106OSM    O1310732  -0.099   2.877   7.763  0.0890 -0.5221  0.2159
  106OSM    O1410733  -0.143   3.102   7.648  0.4291  0.5372 -0.0269
  106OSM    O1110734  -0.040   2.917   7.529 -0.5518  0.2935  0.5294
  106OSM    O1210735   0.090   3.033   7.706 -0.2210  0.0467  0.2056
  106OSM    C1S10736  -0.163   2.892   7.449  0.6818  0.2534  0.7937
  106OSM    H1S10737  -0.209   2.991   7.428  0.8099  0.4077  1.2286
  106OSM    H1T10738  -0.230   2.829   7.512 -1.0093 -0.8550 -1.9591
  106OSM     NF10739  -0.227   2.812   7.222  0.0312 -0.2791 -0.2625
  106OSM    HNF10740  -0.252   2.719   7.195  2.5893 -1.1797  0.1255
  106OSM    C2S10741  -0.118   2.816   7.322  0.5819 -0.8335  0.3902
  106OSM    H2S10742  -0.045   2.888   7.280  0.2817 -1.0008 -0.4358
  106OSM    C3S10743  -0.054   2.682   7.357  0.2727 -0.4905 -0.2614
  106OSM    H3S10744  -0.139   2.618   7.388  0.3755 -1.6026 -2.1138
  106OSM     O310745   0.039   2.676   7.468  0.1228 -0.8844  0.2957
  106OSM    HO310746   0.025   2.758   7.517  0.0527 -1.8033  1.8995
  106OSM    C4S10747   0.012   2.628   7.245  0.2341 -0.1226  0.7785
  106OSM    H4S10748   0.067   2.705   7.189  0.8776 -1.5232 -0.5847
  106OSM    C5S10749  -0.016   2.512   7.188  0.1638  0.4716 -0.2538
  106OSM    H5S10750  -0.105   2.454   7.216 -1.2990  1.3880 -2.7240
  106OSM    C6S10751   0.045   2.438   7.067  0.4347  0.3068  0.4930
  106OSM    H6S10752  -0.037   2.395   7.006  1.6640 -0.2990 -0.7743
  106OSM    H6T10753   0.101   2.347   7.099 -0.8727 -1.9005 -2.9199
  106OSM    C7S10754   0.134   2.526   6.980 -0.3283  0.4727  0.2333
  106OSM    H7S10755   0.224   2.548   7.042 -0.5267  2.7296 -0.2170
  106OSM    H7T10756   0.070   2.609   6.946 -0.9715 -0.4198 -0.7972
  106OSM    C8S10757   0.159   2.444   6.851  0.3711  0.2033 -0.8018
  106OSM    H8S10758   0.058   2.445   6.805  1.3364  2.0568 -3.1145
  106OSM    H8T10759   0.180   2.336   6.866 -1.3007 -0.1905 -1.1265
  106OSM    C9S10760   0.267   2.504   6.767  1.0307 -0.2628  0.0427
  106OSM    H9S10761   0.368   2.462   6.789  1.8402  1.1986 -0.7166
  106OSM    H9T10762   0.274   2.614   6.781 -2.6765  0.4577 -2.3676
  106OSM   C10S10763   0.228   2.488   6.621  0.6164  0.6265 -0.6185
  106OSM   H10S10764   0.140   2.554   6.610 -0.2821 -0.1249  1.6185
  106OSM   H10T10765   0.207   2.380   6.604 -0.4447  0.8854 -1.0133
  106OSM   C11S10766   0.347   2.524   6.539  0.3038  0.4067  0.1270
  106OSM   H11S10767   0.429   2.461   6.579  0.0502 -0.2477 -0.3670
  106OSM   H11T10768   0.376   2.630   6.558  1.3917  0.1295  0.0494
  106OSM   C12S10769   0.325   2.504   6.386 -0.1034  0.0009 -0.4860
  106OSM   H12S10770   0.320   2.396   6.362  0.3498  0.1309 -1.1960
  106OSM   H12T10771   0.415   2.548   6.337  1.1402 -0.8714  0.9430
  106OSM   C13S10772   0.201   2.585   6.322 -0.2795 -0.3610 -0.3317
  106OSM   H13S10773   0.207   2.690   6.357 -1.5431 -0.3286 -0.1735
  106OSM   H13T10774   0.106   2.547   6.366 -1.0151  2.1941  0.4699
  106OSM   C14S10775   0.201   2.587   6.167 -0.2494 -0.4434  0.5076
  106OSM   H14S10776   0.107   2.634   6.130  0.0529 -2.0345 -2.5993
  106OSM   H14T10777   0.200   2.486   6.122 -0.1968 -0.0891 -0.3045
  106OSM   C15S10778   0.323   2.667   6.105  0.1349 -0.8278 -0.0575
  106OSM   H15S10779   0.419   2.618   6.134 -0.1422 -1.5632 -0.3506
  106OSM   H15T10780   0.324   2.771   6.143  2.7775 -1.6227  2.4032
  106OSM   C16S10781   0.320   2.668   5.951  0.1295 -0.3832 -0.0591
  106OSM   H16S10782   0.419   2.697   5.911 -0.4923  1.8942 -0.0767
  106OSM   H16T10783   0.248   2.739   5.906  0.0914 -1.6721 -2.1888
  106OSM   C17S10784   0.272   2.529   5.889  0.4508 -0.0680 -0.1735
  106OSM   H17S10785   0.164   2.522   5.910  0.2172 -0.9514 -1.5764
  106OSM   H17T10786   0.317   2.442   5.942  0.0423 -1.3352 -1.8183
  106OSM   C18S10787   0.304   2.517   5.747  0.1919 -0.3524 -0.4453
  106OSM   H18S10788   0.414   2.520   5.731  0.3242 -0.4843  0.4021
  106OSM   H18T10789   0.247   2.591   5.688 -2.5453 -2.3074 -0.4242
  106OSM   H18U10790   0.271   2.416   5.716 -1.0972 -1.2942  3.4285
  106OSM    C1F10791  -0.286   2.921   7.169  0.4429  0.3300 -0.4996
  106OSM     OF10792  -0.245   3.037   7.175  0.0201 -0.0158 -0.1052
  106OSM    C2F10793  -0.406   2.884   7.093  0.6805 -0.4090 -0.2117
  106OSM    H2F10794  -0.492   2.948   7.120 -0.2374 -1.1196 -1.3465
  106OSM    H2G10795  -0.430   2.780   7.124  1.7253 -0.8174 -0.7315
  106OSM    C3F10796  -0.387   2.893   6.944 -0.0662 -0.3698  0.6902
  106OSM    H3F10797  -0.290   2.846   6.916  0.4241  1.5209 -1.0002
  106OSM    H3G10798  -0.368   2.999   6.918  2.6943 -1.7091 -3.8041
  106OSM    C4F10799  -0.502   2.847   6.848  0.3249 -0.6116 -0.2391
  106OSM    H4F10800  -0.587   2.907   6.886  1.1120 -0.0407  0.6602
  106OSM    H4G10801  -0.532   2.741   6.864 -3.3119  0.3389  0.1373
  106OSM    C5F10802  -0.472   2.872   6.701 -1.4838 -0.4213  0.7478
  106OSM    H5F10803  -0.379   2.822   6.668 -0.2475  2.5843 -0.7576
  106OSM    H5G10804  -0.443   2.977   6.678  0.8008 -0.9404  0.9938
  106OSM    C6F10805  -0.584   2.836   6.612 -0.0165  0.0792 -0.0976
  106OSM    H6F10806  -0.671   2.905   6.618  0.2616  0.3773  0.7220
  106OSM    H6G10807  -0.610   2.731   6.639  1.3847 -0.4089 -0.5818
  106OSM    C7F10808  -0.529   2.833   6.463  0.1258  0.6417  0.3479
  106OSM    H7F10809  -0.434   2.776   6.455  0.2118  0.8244  0.0587
  106OSM    H7G10810  -0.518   2.942   6.445  0.6235  0.3180 -1.5035
  106OSM    C8F10811  -0.628   2.771   6.367 -0.0766  0.0546 -0.5469
  106OSM    H8F10812  -0.726   2.823   6.373 -0.2897 -0.4934  1.9360
  106OSM    H8G10813  -0.647   2.667   6.402  0.3158  0.4465  0.9319
  106OSM    C9F10814  -0.562   2.758   6.231 -0.0389 -0.1140 -0.0192
  106OSM    H9F10815  -0.463   2.709   6.232  0.0608  0.0885  0.0841
  106OSM   C10F10816  -0.634   2.768   6.115  0.6556  0.1780 -0.1823
  106OSM   H10F10817  -0.576   2.771   6.022  0.7317  2.8628 -0.1112
  106OSM   C11F10818  -0.781   2.812   6.103  0.2266 -0.2766 -0.4245
  106OSM   H11F10819  -0.788   2.905   6.044  1.1384  0.0965  0.0358
  106OSM   H11G10820  -0.824   2.837   6.203  0.4378  0.0668 -0.4195
  106OSM   C12F10821  -0.854   2.699   6.030 -0.2976  0.2451 -0.0601
  106OSM   H12F10822  -0.961   2.721   6.052 -0.6021 -2.3936  1.5648
  106OSM   H12G10823  -0.845   2.599   6.079  0.9122 -0.0133 -0.7847
  106OSM   C13F10824  -0.829   2.699   5.873  0.1953  0.3871 -0.5972
  106OSM   H13F10825  -0.730   2.652   5.855  1.0169  1.2005  1.4074
  106OSM   H13G10826  -0.837   2.805   5.842 -1.7588  0.0462 -1.4163
  106OSM   C14F10827  -0.941   2.626   5.791 -0.3804 -0.4260  0.0543
  106OSM   H14F10828  -1.036   2.640   5.846  1.2507 -0.5899  3.2006
  106OSM   H14G10829  -0.924   2.516   5.789 -1.1876 -0.5745  0.9417
  106OSM   C15F10830  -0.952   2.674   5.653 -0.3903 -0.5084  0.6013
  106OSM   H15F10831  -0.852   2.682   5.605 -1.3724  2.2051 -1.2124
  106OSM   H15G10832  -0.984   2.779   5.670  2.2346  0.0864  2.6096
  106OSM   C16F10833  -1.052   2.599   5.568  0.0300  0.9005  0.4097
  106OSM   H16F10834  -1.145   2.569   5.621  1.3490 -2.7829  0.8951
  106OSM   H16G10835  -1.020   2.497   5.540 -5.2530 -1.7049  2.4988
  106OSM   C17F10836  -1.083   2.677   5.435 -0.2379  0.0113 -0.2497
  106OSM   H17F10837  -1.102   2.607   5.351 -1.2529 -0.3633  0.2757
  106OSM   H17G10838  -1.002   2.747   5.403 -1.6087  1.5120 -0.6023
  106OSM   C18F10839  -1.197   2.785   5.442 -0.0355  0.0650  0.0581
  106OSM   H18F10840  -1.165   2.841   5.533  1.6354 -2.7988  1.3700
  106OSM   H18G10841  -1.295   2.737   5.465  0.3102 -0.3394  0.7042
  106OSM   H18H10842  -1.195   2.836   5.343  0.2576 -1.1924 -0.6018
  107OSM      N10843   0.680   5.147   7.875  0.4835 -0.2054  0.2321
  107OSM    C1510844   0.816   5.088   7.834 -0.1170  0.7578 -0.0652
  107OSM   H15A10845   0.884   5.156   7.784  0.7800 -1.0417 -1.4169
  107OSM   H15B10846   0.790   5.017   7.757  0.7950  0.5669 -0.2093
  107OSM   H15C10847   0.860   5.037   7.919  0.0045 -0.7031 -0.9640
  107OSM    C1410848   0.603   5.162   7.752 -0.1360 -0.7510  0.3771
  107OSM   H14A10849   0.497   5.148   7.765 -0.4753 -0.5916 -1.8186
  107OSM   H14B10850   0.635   5.082   7.686 -0.9450 -0.2630 -0.6288
  107OSM   H14C10851   0.623   5.258   7.707 -0.7408 -1.8492 -2.4668
  107OSM    C1310852   0.605   5.051   7.966  0.1079  0.2121  0.1164
  107OSM   H13A10853   0.569   4.964   7.914  0.7129  0.0960 -0.1180
  107OSM   H13B10854   0.520   5.095   8.016  0.5826  2.1965 -0.7291
  107OSM   H13C10855   0.670   5.011   8.043  1.3362 -2.0083 -1.9426
  107OSM    C1210856   0.691   5.279   7.956 -0.2118 -0.6333  0.0612
  107OSM   H12A10857   0.747   5.254   8.045  0.5547 -1.3392 -0.6065
  107OSM   H12B10858   0.596   5.323   7.983  0.2942 -0.1462  1.1089
  107OSM    C1110859   0.767   5.401   7.885 -0.0247 -0.9841 -0.2692
  107OSM   H11A10860   0.757   5.487   7.955 -1.5264 -0.3930 -1.1506
  107OSM   H11B10861   0.698   5.435   7.805  1.4165  1.5799 -0.5336
  107OSM      P10862   1.026   5.419   7.909 -0.1137 -0.1601  0.0390
  107OSM    O1310863   1.012   5.563   7.907  0.1468 -0.4554  0.1110
  107OSM    O1410864   1.054   5.359   8.042 -0.7825 -0.3877  0.0242
  107OSM    O1110865   1.139   5.393   7.801 -0.3895  0.1357 -0.0632
  107OSM    O1210866   0.896   5.369   7.837  0.0873  0.0773 -0.2174
  107OSM    C1S10867   1.190   5.268   7.755  0.2863  0.1397 -0.7494
  107OSM    H1S10868   1.109   5.192   7.760  0.9138 -0.4830  1.4905
  107OSM    H1T10869   1.269   5.234   7.826  0.0201  0.0610 -0.4879
  107OSM     NF10870   1.264   5.156   7.553 -0.4906 -0.3729 -0.2227
  107OSM    HNF10871   1.354   5.125   7.523 -1.1579 -2.2411 -0.4595
  107OSM    C2S10872   1.237   5.287   7.614  0.0687  0.1948  0.5756
  107OSM    H2S10873   1.160   5.336   7.552  1.9131 -0.1257 -2.1396
  107OSM    C3S10874   1.357   5.382   7.601  0.0774 -0.0285 -0.0726
  107OSM    H3S10875   1.451   5.341   7.644  0.8796  3.4522  1.9458
  107OSM     O310876   1.331   5.509   7.664 -0.5302  0.0008  0.3000
  107OSM    HO310877   1.255   5.495   7.721 -0.4146 -2.8387 -0.0910
  107OSM    C4S10878   1.390   5.418   7.456  0.5056  0.2597 -0.1878
  107OSM    H4S10879   1.336   5.505   7.418 -2.4667 -1.3140  0.0839
  107OSM    C5S10880   1.480   5.348   7.384  0.3402 -0.6916 -0.3263
  107OSM    H5S10881   1.535   5.266   7.433 -2.7286 -0.3851  4.2811
  107OSM    C6S10882   1.536   5.384   7.249 -0.1670 -0.5239 -0.1540
  107OSM    H6S10883   1.593   5.303   7.200 -1.1366 -1.6258  0.4981
  107OSM    H6T10884   1.611   5.466   7.263  0.7820 -1.7210  2.2221
  107OSM    C7S10885   1.434   5.449   7.151 -0.2309  0.4475 -0.2096
  107OSM    H7S10886   1.392   5.541   7.199  2.3814 -0.4562  4.4186
  107OSM    H7T10887   1.347   5.384   7.129 -0.5315  0.5075  0.7633
  107OSM    C8S10888   1.500   5.485   7.019 -0.3116 -0.0425  0.0141
  107OSM    H8S10889   1.608   5.508   7.030 -0.4694  2.5936 -2.5674
  107OSM    H8T10890   1.451   5.571   6.968 -2.6710 -1.9238 -1.0972
  107OSM    C9S10891   1.508   5.365   6.924 -0.0695  0.0673 -0.2784
  107OSM    H9S10892   1.405   5.328   6.904  0.0441 -1.0599  1.0931
  107OSM    H9T10893   1.542   5.274   6.978 -2.5325 -0.0381  1.2420
  107OSM   C10S10894   1.576   5.414   6.796 -0.5933 -0.3174  0.4061
  107OSM   H10S10895   1.686   5.408   6.814 -0.6980 -1.4993  0.7465
  107OSM   H10T10896   1.545   5.519   6.780 -0.4204 -0.2600  0.4530
  107OSM   C11S10897   1.532   5.338   6.663  0.4008  0.0118 -0.0357
  107OSM   H11S10898   1.421   5.333   6.658  0.4459 -0.0647 -2.4124
  107OSM   H11T10899   1.576   5.236   6.670 -0.9801 -0.4963  1.7908
  107OSM   C12S10900   1.592   5.402   6.537 -0.0360 -0.2877 -0.2220
  107OSM   H12S10901   1.698   5.421   6.566  0.5476 -1.0832 -1.7173
  107OSM   H12T10902   1.541   5.498   6.518 -0.2700  0.1553  2.3149
  107OSM   C13S10903   1.588   5.309   6.414 -0.6332 -0.5735 -0.6684
  107OSM   H13S10904   1.484   5.296   6.376 -0.6333 -0.7757 -0.5983
  107OSM   H13T10905   1.640   5.218   6.451 -1.5352 -0.8523 -0.0562
  107OSM   C14S10906   1.663   5.373   6.299  0.1125 -0.1460 -0.4040
  107OSM   H14S10907   1.651   5.299   6.217  0.5934 -3.1877  2.0883
  107OSM   H14T10908   1.774   5.374   6.312 -0.0861 -0.0972  1.5887
  107OSM   C15S10909   1.603   5.506   6.258 -0.1801  0.0586 -0.0545
  107OSM   H15S10910   1.607   5.589   6.332  0.1312 -0.1098  0.1165
  107OSM   H15T10911   1.493   5.491   6.248 -0.2910  1.2643 -1.0139
  107OSM   C16S10912   1.653   5.566   6.130  0.0359  0.3299  0.1744
  107OSM   H16S10913   1.637   5.492   6.049  0.2006  0.6988 -0.2004
  107OSM   H16T10914   1.756   5.607   6.145 -0.8704  1.8641  3.0138
  107OSM   C17S10915   1.583   5.689   6.072  0.6774 -0.8239  0.4092
  107OSM   H17S10916   1.597   5.773   6.143  1.1164 -0.3841 -0.1841
  107OSM   H17T10917   1.474   5.665   6.068 -0.1401  2.5422 -0.8832
  107OSM   C18S10918   1.638   5.732   5.936 -0.9425 -0.3744 -0.0268
  107OSM   H18S10919   1.610   5.668   5.850 -0.4197  0.2345 -0.6596
  107OSM   H18T10920   1.747   5.747   5.943 -0.5639 -1.5925 -2.3612
  107OSM   H18U10921   1.609   5.832   5.898  1.0058  0.6876  1.1092
  107OSM    C1F10922   1.170   5.070   7.535 -0.7676  0.7472 -0.0699
  107OSM     OF10923   1.055   5.102   7.551 -0.1579 -0.5876  0.0433
  107OSM    C2F10924   1.214   4.933   7.500 -0.1638  0.0858 -0.2408
  107OSM    H2F10925   1.182   4.867   7.583 -1.1640  1.5613  0.5967
  107OSM    H2G10926   1.325   4.928   7.497 -0.1381  0.6596 -0.3173
  107OSM    C3F10927   1.162   4.889   7.361  0.0551 -0.2722 -0.1789
  107OSM    H3F10928   1.059   4.928   7.349  0.5373  0.9677 -0.3875
  107OSM    H3G10929   1.155   4.778   7.361  1.4561 -0.3797  0.4591
  107OSM    C4F10930   1.254   4.935   7.245  0.2350  0.9127 -0.1273
  107OSM    H4F10931   1.349   4.877   7.241 -0.6951 -0.6069 -2.5338
  107OSM    H4G10932   1.279   5.042   7.263  2.6499  0.7156 -1.8326
  107OSM    C5F10933   1.180   4.918   7.117  0.0621  0.0668  0.4893
  107OSM    H5F10934   1.092   4.986   7.129 -1.0663 -1.4779  1.3242
  107OSM    H5G10935   1.137   4.816   7.118 -1.9500  0.8661  1.8716
  107OSM    C6F10936   1.251   4.979   6.990 -0.8858  0.0791  0.7553
  107OSM    H6F10937   1.340   4.914   6.971 -1.0939 -0.1962  0.7040
  107OSM    H6G10938   1.290   5.081   7.005  0.4131 -0.1730 -0.6246
  107OSM    C7F10939   1.163   4.969   6.868  0.5634 -0.5602 -0.0132
  107OSM    H7F10940   1.070   5.026   6.885  0.6528  0.5751 -2.8331
  107OSM    H7G10941   1.128   4.864   6.859  1.6394 -0.9055 -0.2637
  107OSM    C8F10942   1.239   5.024   6.747  0.3998  1.1331  0.0144
  107OSM    H8F10943   1.291   5.118   6.776  0.0055  1.4805 -0.3945
  107OSM    H8G10944   1.162   5.052   6.672 -0.1709  2.2923  1.0099
  107OSM    C9F10945   1.341   4.934   6.686  0.4328  0.4268 -0.2946
  107OSM    H9F10946   1.391   4.865   6.756  1.4959  0.5893 -0.8789
  107OSM   C10F10947   1.383   4.934   6.558  0.4412  0.0855  0.8809
  107OSM   H10F10948   1.458   4.862   6.523 -0.7323 -1.5456  1.5733
  107OSM   C11F10949   1.329   5.024   6.452 -0.2091  0.8173  0.2340
  107OSM   H11F10950   1.383   5.120   6.463  0.8700 -0.0386  3.6959
  107OSM   H11G10951   1.218   5.036   6.459 -0.2352  1.9177 -1.5371
  107OSM   C12F10952   1.362   4.978   6.312 -0.7735 -0.4405  0.5487
  107OSM   H12F10953   1.347   4.868   6.303 -1.4392 -0.3188  0.1174
  107OSM   H12G10954   1.472   4.991   6.302 -0.9216  0.0264 -0.5717
  107OSM   C13F10955   1.295   5.055   6.198  0.3637  0.0210 -0.2112
  107OSM   H13F10956   1.299   5.166   6.204  1.6291  0.0668 -1.3865
  107OSM   H13G10957   1.189   5.022   6.191  0.2580  0.4809 -0.9809
  107OSM   C14F10958   1.369   5.030   6.060 -0.4789  0.6509 -0.7934
  107OSM   H14F10959   1.383   4.921   6.045  1.5027  0.6931  0.3256
  107OSM   H14G10960   1.472   5.072   6.059 -0.3307  0.2949 -1.0925
  107OSM   C15F10961   1.305   5.086   5.938  0.4067  1.2384 -0.5429
  107OSM   H15F10962   1.213   5.024   5.926 -0.0367  0.8233  3.6407
  107OSM   H15G10963   1.368   5.074   5.847 -0.2138  1.0724 -0.9616
  107OSM   C16F10964   1.277   5.237   5.947 -1.0004  0.1395 -0.0605
  107OSM   H16F10965   1.213   5.264   6.033 -1.2966 -0.9027  0.0513
  107OSM   H16G10966   1.226   5.267   5.853 -0.9730 -1.1190 -0.4904
  107OSM   C17F10967   1.406   5.330   5.942 -0.4926  0.1262  0.0343
  107OSM   H17F10968   1.479   5.319   6.025  0.8667  1.6473 -0.9032
  107OSM   H17G10969   1.378   5.436   5.962  0.5395  0.5853 -0.8529
  107OSM   C18F10970   1.494   5.326   5.816  0.7885  0.0598 -0.3045
  107OSM   H18F10971   1.588   5.381   5.834  0.8257  0.1174 -0.6642
  107OSM   H18G10972   1.438   5.358   5.725 -1.4931 -1.6409  0.3899
  107OSM   H18H10973   1.534   5.223   5.800 -1.4817 -1.0486  0.6561
  108OSM      N10974   3.276   0.192   7.855  0.4498 -0.1332  0.0657
  108OSM    C1510975   3.402   0.141   7.911  0.2281  0.3882  0.3306
  108OSM   H15A10976   3.412   0.034   7.918 -0.7293  0.3485  1.3310
  108OSM   H15B10977   3.424   0.188   8.005  1.9864 -0.9441  0.6286
  108OSM   H15C10978   3.490   0.174   7.858 -1.2135  1.3406 -1.6289
  108OSM    C1410979   3.274   0.165   7.714  0.1143 -0.2216 -0.6135
  108OSM   H14A10980   3.281   0.060   7.690  0.3314 -0.7788  1.6350
  108OSM   H14B10981   3.355   0.213   7.662  0.8095 -1.6216 -0.8472
  108OSM   H14C10982   3.185   0.207   7.671 -0.2030  0.1192  0.3393
  108OSM    C1310983   3.167   0.116   7.917  0.0016 -0.7515  0.0802
  108OSM   H13A10984   3.176   0.009   7.927 -1.7237 -0.8409  0.9746
  108OSM   H13B10985   3.078   0.140   7.860  0.2070  1.8547  0.7307
  108OSM   H13C10986   3.140   0.152   8.015 -2.0692 -1.9959  0.0319
  108OSM    C1210987   3.253   0.347   7.885 -0.5893  0.5357 -0.0578
  108OSM   H12A10988   3.231   0.354   7.991  0.2432  0.4496  0.1259
  108OSM   H12B10989   3.163   0.372   7.831 -1.1930 -0.8964  0.2503
  108OSM    C1110990   3.372   0.439   7.845  0.4815 -0.7264 -0.5108
  108OSM   H11A10991   3.447   0.423   7.925 -0.2340  1.9645  0.8041
  108OSM   H11B10992   3.330   0.542   7.845 -3.4452 -2.1374 -1.0379
  108OSM      P10993   3.373   0.463   7.578  0.4100 -0.1735  0.1212
  108OSM    O1310994   3.398   0.607   7.583 -0.4076  0.3900  0.6994
  108OSM    O1410995   3.435   0.380   7.472  0.1836  0.5526  0.1508
  108OSM    O1110996   3.214   0.448   7.573 -0.1047 -0.3025 -0.4776
  108OSM    O1210997   3.422   0.399   7.715 -0.0586 -0.5158  0.3744
  108OSM    C1S10998   3.138   0.524   7.475  0.5453  0.6134  0.0428
  108OSM    H1S10999   3.178   0.626   7.457 -1.2646  1.0807 -1.7215
  108OSM    H1T11000   3.040   0.558   7.515  0.5915  2.1359 -1.0378
  108OSM     NF11001   3.087   0.537   7.230 -0.1474 -0.0922  0.0175
  108OSM    HNF11002   2.991   0.559   7.215  0.3887  1.5605 -1.3391
  108OSM    C2S11003   3.114   0.446   7.340  0.2748  0.2798  0.0371
  108OSM    H2S11004   3.210   0.394   7.322 -0.7653 -2.0640  0.8737
  108OSM    C3S11005   3.009   0.329   7.358 -0.3817 -0.6364 -0.8949
  108OSM    H3S11006   2.916   0.390   7.362  1.6378  2.8233 -1.9728
  108OSM     O311007   3.029   0.257   7.484 -0.4058  0.1088  0.6050
  108OSM    HO311008   3.100   0.310   7.521  1.0999 -0.4973 -1.2672
  108OSM    C4S11009   3.003   0.235   7.236 -0.5129  0.3191 -0.5742
  108OSM    H4S11010   3.088   0.165   7.230  0.0307  0.9120  0.0130
  108OSM    C5S11011   2.902   0.235   7.150  0.4414  0.3930  0.1291
  108OSM    H5S11012   2.820   0.303   7.179  1.0779  1.4499 -0.4891
  108OSM    C6S11013   2.886   0.154   7.021  0.2969  0.5668 -0.5920
  108OSM    H6S11014   2.894   0.211   6.926  0.3843  0.2733 -0.7633
  108OSM    H6T11015   2.782   0.114   7.025  0.9895 -1.4830 -1.2894
  108OSM    C7S11016   2.978   0.023   7.028  0.0783 -0.0824  0.1498
  108OSM    H7S11017   2.931  -0.026   7.117  0.7031  1.5173  1.4225
  108OSM    H7T11018   3.081   0.060   7.048  0.6970 -1.4141 -0.4993
  108OSM    C8S11019   2.964  -0.067   6.905 -0.2883  0.3118  0.0777
  108OSM    H8S11020   2.872  -0.125   6.925 -0.2316 -0.3073 -1.3809
  108OSM    H8T11021   3.038  -0.149   6.915 -0.4384  0.3624  1.9952
  108OSM    C9S11022   2.990  -0.004   6.771  0.4982  0.4465  0.3866
  108OSM    H9S11023   3.088   0.047   6.774  1.4920 -1.3536  4.4399
  108OSM    H9T11024   2.909   0.070   6.751  0.7182  0.7991  0.7927
  108OSM   C10S11025   2.983  -0.094   6.649  0.3619  0.3212 -0.4663
  108OSM   H10S11026   2.881  -0.138   6.648 -0.7066  2.6140 -1.3752
  108OSM   H10T11027   3.066  -0.167   6.650  1.3072  1.3617 -0.8301
  108OSM   C11S11028   3.000  -0.017   6.521  0.1975 -0.3373  0.3012
  108OSM   H11S11029   3.096   0.038   6.526  0.1280 -0.2540  0.7090
  108OSM   H11T11030   2.918   0.056   6.509  0.3783 -0.0757  0.6550
  108OSM   C12S11031   3.000  -0.103   6.389 -0.1425  0.0747  0.0587
  108OSM   H12S11032   2.923  -0.182   6.405  0.3206 -0.6962 -1.2837
  108OSM   H12T11033   3.092  -0.163   6.369 -0.4835 -1.1516  1.9453
  108OSM   C13S11034   2.980  -0.004   6.274  0.2138  0.0601 -0.5652
  108OSM   H13S11035   3.060   0.073   6.276  1.3071 -1.0468  1.1463
  108OSM   H13T11036   2.879   0.040   6.272 -0.2727 -1.0516 -1.3420
  108OSM   C14S11037   2.978  -0.073   6.138  0.1825  0.1676 -0.3660
  108OSM   H14S11038   2.882  -0.120   6.109  1.2221 -1.0282 -2.0357
  108OSM   H14T11039   3.067  -0.137   6.120  0.7548  0.0155  2.4298
  108OSM   C15S11040   2.981   0.035   6.028 -0.1771 -0.0910  0.0687
  108OSM   H15S11041   3.084   0.075   6.017 -0.3076  0.1842 -0.1674
  108OSM   H15T11042   2.927   0.130   6.049 -0.5848 -0.0570 -1.0546
  108OSM   C16S11043   2.931  -0.026   5.892 -0.2039  0.4697  0.8911
  108OSM   H16S11044   2.830  -0.068   5.914 -0.0399  0.4619  1.6508
  108OSM   H16T11045   2.998  -0.112   5.869 -1.1857 -0.7255  2.2846
  108OSM   C17S11046   2.914   0.071   5.773 -0.6204  0.4672  0.5516
  108OSM   H17S11047   3.002   0.139   5.776  1.5593 -2.1070 -0.9499
  108OSM   H17T11048   2.826   0.139   5.779 -0.6957  0.3289  1.0262
  108OSM   C18S11049   2.902  -0.001   5.639 -0.2025 -0.3837  0.5051
  108OSM   H18S11050   2.994  -0.049   5.600  0.9149  2.0723 -0.0111
  108OSM   H18T11051   2.883   0.076   5.562 -1.8215  0.5366  1.7410
  108OSM   H18U11052   2.822  -0.078   5.645 -0.2099 -0.3853  0.3831
  108OSM    C1F11053   3.186   0.618   7.181  0.3600  0.0416  0.6157
  108OSM     OF11054   3.304   0.605   7.212  0.2471  0.1959  0.4490
  108OSM    C2F11055   3.138   0.740   7.099 -0.4050  0.4588  0.5495
  108OSM    H2F11056   3.179   0.833   7.143 -0.7573  0.4136  0.9817
  108OSM    H2G11057   3.029   0.743   7.121 -0.4613  2.1075  0.1824
  108OSM    C3F11058   3.166   0.731   6.940 -0.0422  0.3626 -0.2801
  108OSM    H3F11059   3.117   0.637   6.907  1.6503  0.1595 -2.4267
  108OSM    H3G11060   3.276   0.721   6.923  0.4841  0.1045  2.7599
  108OSM    C4F11061   3.109   0.850   6.867 -0.4801 -0.1921 -0.2409
  108OSM    H4F11062   3.170   0.941   6.882  0.1411 -0.5864 -0.3342
  108OSM    H4G11063   3.010   0.877   6.909 -1.0099  1.4731 -2.3697
  108OSM    C5F11064   3.088   0.827   6.718 -0.4423  0.3443 -0.1656
  108OSM    H5F11065   3.046   0.925   6.687 -0.0494  0.6399  0.2168
  108OSM    H5G11066   3.006   0.754   6.699  0.3292 -0.7287  0.5159
  108OSM    C6F11067   3.217   0.815   6.635 -0.0724 -0.4618  0.1628
  108OSM    H6F11068   3.285   0.730   6.657  0.9215  0.3849  0.4395
  108OSM    H6G11069   3.271   0.912   6.624  0.7785 -1.2104 -5.6852
  108OSM    C7F11070   3.151   0.793   6.494 -0.3129 -0.0340 -0.2541
  108OSM    H7F11071   3.073   0.872   6.482  1.1401  1.4656 -0.2015
  108OSM    H7G11072   3.120   0.688   6.476 -0.6883  0.3936 -2.4213
  108OSM    C8F11073   3.247   0.841   6.378  0.3693  0.0474  0.4148
  108OSM    H8F11074   3.349   0.798   6.393  0.5827 -0.5728 -2.2478
  108OSM    H8G11075   3.263   0.951   6.377  1.9130 -0.1042 -2.3584
  108OSM    C9F11076   3.172   0.804   6.251 -0.3256  0.6978  0.2567
  108OSM    H9F11077   3.063   0.792   6.259  0.0834 -3.4708  2.1537
  108OSM   C10F11078   3.233   0.755   6.142  0.1802 -0.1013  0.8349
  108OSM   H10F11079   3.172   0.744   6.052  0.2346  0.4425  0.7302
  108OSM   C11F11080   3.378   0.743   6.123 -0.3251  0.3290  0.0196
  108OSM   H11F11081   3.408   0.638   6.105  0.5339  0.8936 -2.2427
  108OSM   H11G11082   3.437   0.767   6.214 -1.3449 -2.5197  1.5311
  108OSM   C12F11083   3.421   0.827   6.007 -0.8288  0.1220 -0.3331
  108OSM   H12F11084   3.531   0.838   6.010 -0.5834 -1.1821 -2.3302
  108OSM   H12G11085   3.381   0.930   6.011 -1.2354  0.0225 -1.5048
  108OSM   C13F11086   3.373   0.776   5.878 -0.7138  0.8394  0.3254
  108OSM   H13F11087   3.262   0.777   5.871 -0.8024  0.5237  1.3458
  108OSM   H13G11088   3.405   0.671   5.860 -1.4061  0.7475 -0.4193
  108OSM   C14F11089   3.432   0.856   5.761 -0.4436  0.3828 -0.4415
  108OSM   H14F11090   3.542   0.872   5.754  0.0971 -1.4171  2.2402
  108OSM   H14G11091   3.387   0.957   5.772  1.1013  0.8852  1.8633
  108OSM   C15F11092   3.382   0.789   5.630 -0.1986 -0.5019  0.2241
  108OSM   H15F11093   3.272   0.800   5.624 -0.2186  0.3940  1.7009
  108OSM   H15G11094   3.404   0.681   5.642 -0.9408 -0.6041  0.7128
  108OSM   C16F11095   3.455   0.846   5.504 -0.1973 -0.0262 -0.6659
  108OSM   H16F11096   3.435   0.776   5.420 -1.9646  0.0471 -0.3582
  108OSM   H16G11097   3.566   0.845   5.505 -0.2077 -0.4648  0.1988
  108OSM   C17F11098   3.398   0.985   5.470  0.2897 -0.7804  0.6028
  108OSM   H17F11099   3.452   1.051   5.541 -1.1247 -0.3418  1.3221
  108OSM   H17G11100   3.291   1.003   5.497  0.0301  0.2248 -1.0081
  108OSM   C18F11101   3.432   1.029   5.328  0.2309  0.2829 -0.3817
  108OSM   H18F11102   3.409   0.949   5.254  2.6113 -0.9810  0.1635
  108OSM   H18G11103   3.541   1.049   5.330  0.9756 -3.1591  1.2104
  108OSM   H18H11104   3.393   1.130   5.303  0.3887  0.0836 -1.4821
  109OSM      N11105   4.606   2.203   7.825  0.1707 -0.1711  0.5538
  109OSM    C1511106   4.647   2.315   7.907  0.1204 -0.4982 -0.1970
  109OSM   H15A11107   4.741   2.359   7.876 -0.9196  2.2855  0.2825
  109OSM   H15B11108   4.668   2.283   8.009  1.9218 -1.5996 -0.8581
  109OSM   H15C11109   4.579   2.398   7.900  0.2357 -0.4176 -0.3529
  109OSM    C1411110   4.690   2.079   7.866  0.0860 -0.3574 -0.4461
  109OSM   H14A11111   4.795   2.095   7.849 -0.3449 -0.0828 -3.3203
  109OSM   H14B11112   4.650   1.996   7.810  0.6928 -0.6098 -0.5139
  109OSM   H14C11113   4.675   2.056   7.970  1.3643  1.1112  0.0961
  109OSM    C1311114   4.459   2.157   7.843 -0.5563 -0.0248  0.2732
  109OSM   H13A11115   4.448   2.098   7.932 -1.6296 -1.5409 -0.8140
  109OSM   H13B11116   4.427   2.084   7.770  1.6758 -1.2191  0.4020
  109OSM   H13C11117   4.381   2.230   7.858 -1.0786 -0.8438  1.6822
  109OSM    C1211118   4.628   2.232   7.677 -0.1615  0.5110  0.4172
  109OSM   H12A11119   4.586   2.329   7.653 -0.2098  0.5911  0.8178
  109OSM   H12B11120   4.581   2.151   7.622  0.3117  0.2269  0.4320
  109OSM    C1111121   4.768   2.249   7.619  0.0170  0.3170  0.1148
  109OSM   H11A11122   4.758   2.286   7.514  0.2846  1.9576  0.6461
  109OSM   H11B11123   4.816   2.149   7.616  0.3982  0.3915  2.1850
  109OSM      P11124   4.996   2.376   7.663  0.2434 -0.1259  0.3155
  109OSM    O1311125   5.005   2.520   7.676 -0.3956 -0.4419 -0.3121
  109OSM    O1411126   5.088   2.288   7.743  0.0830  0.5612 -0.0390
  109OSM    O1111127   4.997   2.326   7.512  0.0112 -0.0129 -0.4840
  109OSM    O1211128   4.842   2.341   7.702 -0.1229 -0.4642  0.0452
  109OSM    C1S11129   4.986   2.418   7.404 -0.1817 -0.0860 -0.0695
  109OSM    H1S11130   5.078   2.480   7.407 -0.0076 -0.3767  1.1775
  109OSM    H1T11131   4.908   2.496   7.412  1.6269  1.9820 -1.3129
  109OSM     NF11132   4.995   2.447   7.168 -0.0378  0.7499 -0.2112
  109OSM    HNF11133   4.904   2.461   7.130 -1.4377  3.7970  3.6179
  109OSM    C2S11134   4.987   2.344   7.267  0.2166 -0.2708 -0.7843
  109OSM    H2S11135   5.085   2.291   7.272 -0.2626 -1.0857  1.0430
  109OSM    C3S11136   4.884   2.232   7.254  0.1078  0.4250  0.2509
  109OSM    H3S11137   4.780   2.268   7.263  0.7978  2.9383 -0.8644
  109OSM     O311138   4.900   2.132   7.353 -0.3516  0.1281  0.2833
  109OSM    HO311139   4.950   2.176   7.422  1.2438 -1.0329 -0.0624
  109OSM    C4S11140   4.893   2.176   7.111  0.2612 -0.1671 -0.2152
  109OSM    H4S11141   4.990   2.126   7.094  0.3839 -0.2658  0.7001
  109OSM    C5S11142   4.787   2.163   7.028 -0.1355 -0.1851  0.7167
  109OSM    H5S11143   4.687   2.193   7.063 -0.8762 -1.4170 -0.2291
  109OSM    C6S11144   4.800   2.094   6.893  0.4134 -0.2110 -0.5682
  109OSM    H6S11145   4.727   2.015   6.868  1.3995 -1.2641 -0.1830
  109OSM    H6T11146   4.901   2.050   6.881  1.4499  1.9671 -0.3162
  109OSM    C7S11147   4.786   2.191   6.776  0.1678  0.8704 -0.1798
  109OSM    H7S11148   4.872   2.260   6.786  0.7793  0.1444 -0.3546
  109OSM    H7T11149   4.690   2.245   6.789  0.0821  0.5301  0.7347
  109OSM    C8S11150   4.809   2.127   6.638  0.4959  0.3812 -0.2007
  109OSM    H8S11151   4.717   2.072   6.611  1.1258  0.0983 -1.8577
  109OSM    H8T11152   4.893   2.054   6.636 -1.9020 -2.5916 -1.2870
  109OSM    C9S11153   4.827   2.228   6.527  0.0800  0.2203  0.1450
  109OSM    H9S11154   4.881   2.318   6.565 -0.2362 -1.0422  3.9962
  109OSM    H9T11155   4.730   2.265   6.488 -0.6090 -0.8361  0.8116
  109OSM   C10S11156   4.911   2.180   6.406 -0.5058  0.1994  0.9506
  109OSM   H10S11157   4.852   2.096   6.364 -2.6162  2.2377 -0.4458
  109OSM   H10T11158   5.016   2.147   6.423  0.0479  1.7600  0.7571
  109OSM   C11S11159   4.911   2.299   6.291  0.2000  0.0805 -0.1024
  109OSM   H11S11160   4.980   2.380   6.325  2.4458 -2.4943  1.9147
  109OSM   H11T11161   4.807   2.336   6.284 -0.2179 -0.2507  3.0467
  109OSM   C12S11162   4.958   2.256   6.156  0.0049 -0.2236  0.7298
  109OSM   H12S11163   5.066   2.231   6.159 -0.6355 -3.4056  0.7963
  109OSM   H12T11164   4.947   2.337   6.081 -0.6971  0.6911  1.7847
  109OSM   C13S11165   4.883   2.135   6.102 -0.5995 -0.1704 -0.2199
  109OSM   H13S11166   4.899   2.037   6.153  1.3956 -0.7007 -1.7109
  109OSM   H13T11167   4.917   2.115   5.998  1.6860 -1.1265  0.6335
  109OSM   C14S11168   4.735   2.152   6.088 -0.8764 -0.6688  0.4190
  109OSM   H14S11169   4.696   2.156   6.192 -2.1036  1.9845 -0.0713
  109OSM   H14T11170   4.692   2.071   6.026 -0.2134  0.4634 -1.5993
  109OSM   C15S11171   4.689   2.284   6.031 -0.5083  0.1325 -0.6865
  109OSM   H15S11172   4.698   2.366   6.105  3.2680 -2.6946  2.4312
  109OSM   H15T11173   4.580   2.266   6.032 -0.3721 -0.8523  1.2319
  109OSM   C16S11174   4.738   2.325   5.889 -0.2490 -0.2854  0.8781
  109OSM   H16S11175   4.847   2.348   5.890  0.1369 -1.7745 -1.1278
  109OSM   H16T11176   4.679   2.416   5.867  0.2265  0.6675  3.2673
  109OSM   C17S11177   4.719   2.218   5.786 -0.4015  0.7705 -0.0992
  109OSM   H17S11178   4.609   2.210   5.788 -0.3739  0.4244  0.0007
  109OSM   H17T11179   4.761   2.122   5.824  0.6376  1.4423  0.5140
  109OSM   C18S11180   4.765   2.260   5.652 -0.2552 -0.0669  0.5039
  109OSM   H18S11181   4.874   2.282   5.658 -0.6018  2.3243 -0.6426
  109OSM   H18T11182   4.721   2.354   5.612  0.4478 -0.5004 -1.4101
  109OSM   H18U11183   4.734   2.195   5.568  1.9702  1.8170 -1.9562
  109OSM    C1F11184   5.095   2.524   7.135  0.3595 -0.6116  0.1533
  109OSM     OF11185   5.209   2.496   7.161  0.1938 -0.1309 -0.9318
  109OSM    C2F11186   5.059   2.635   7.049  0.2047 -0.5146  0.4183
  109OSM    H2F11187   5.052   2.731   7.105 -2.7573 -0.7306  0.6248
  109OSM    H2G11188   4.958   2.613   7.008  0.4967  0.3350 -0.8069
  109OSM    C3F11189   5.158   2.660   6.932  0.2261 -0.2623  0.0647
  109OSM    H3F11190   5.261   2.688   6.963 -0.3003  2.6506 -0.4997
  109OSM    H3G11191   5.123   2.740   6.863  0.9603  0.0967  0.0970
  109OSM    C4F11192   5.166   2.537   6.841  0.0867 -0.1372  0.1528
  109OSM    H4F11193   5.064   2.520   6.800 -0.0682  0.1802  0.4061
  109OSM    H4G11194   5.183   2.446   6.902 -2.5587 -1.8797 -1.4777
  109OSM    C5F11195   5.270   2.553   6.732 -0.0957  0.1328  0.2414
  109OSM    H5F11196   5.263   2.468   6.660 -1.6854 -0.8281  1.4767
  109OSM    H5G11197   5.377   2.547   6.763  0.5415 -2.2895 -1.9631
  109OSM    C6F11198   5.259   2.680   6.648  0.1249  0.6255  0.0955
  109OSM    H6F11199   5.275   2.765   6.717  1.1034  0.7500 -0.2679
  109OSM    H6G11200   5.153   2.683   6.613  0.2367 -0.1752 -0.3365
  109OSM    C7F11201   5.352   2.691   6.528 -0.7555 -0.3780  0.4200
  109OSM    H7F11202   5.456   2.689   6.567 -1.0809  2.5675  1.7553
  109OSM    H7G11203   5.341   2.794   6.487 -0.2734 -0.0362  1.1274
  109OSM    C8F11204   5.320   2.589   6.418  0.2384  0.1988  0.5935
  109OSM    H8F11205   5.215   2.600   6.385  0.6082  1.4747 -0.2496
  109OSM    H8G11206   5.331   2.486   6.459  1.1124 -0.6298 -1.5565
  109OSM    C9F11207   5.421   2.593   6.302  0.1772 -0.4984 -0.5375
  109OSM    H9F11208   5.513   2.652   6.319  1.0235 -0.5443 -3.9827
  109OSM   C10F11209   5.415   2.518   6.189 -0.5949 -0.8137 -0.3764
  109OSM   H10F11210   5.500   2.536   6.121  0.3650  1.3045  1.2706
  109OSM   C11F11211   5.294   2.426   6.152  0.3972 -0.5006  0.5380
  109OSM   H11F11212   5.199   2.482   6.137  0.4243 -0.1509  1.5982
  109OSM   H11G11213   5.275   2.347   6.227  0.8272 -0.9862  0.1485
  109OSM   C12F11214   5.336   2.349   6.021  1.2750  0.7400 -0.0795
  109OSM   H12F11215   5.249   2.282   6.005  1.2694  0.7818 -0.2263
  109OSM   H12G11216   5.430   2.292   6.037  0.8396 -0.3048 -1.0771
  109OSM   C13F11217   5.363   2.439   5.900 -0.2484  0.3785  0.2600
  109OSM   H13F11218   5.463   2.487   5.907 -0.3487  0.6192  0.0537
  109OSM   H13G11219   5.289   2.518   5.923  0.1217  0.8589 -0.1967
  109OSM   C14F11220   5.329   2.382   5.758 -0.0286  0.6088  0.2870
  109OSM   H14F11221   5.330   2.466   5.686 -1.4398 -1.1280 -1.8969
  109OSM   H14G11222   5.224   2.346   5.761  0.5227 -1.2735 -1.1956
  109OSM   C15F11223   5.418   2.260   5.718  0.6247 -0.6328 -0.2539
  109OSM   H15F11224   5.385   2.162   5.759 -1.2879  0.5759  1.2484
  109OSM   H15G11225   5.520   2.283   5.757  0.4596  2.2712 -1.2992
  109OSM   C16F11226   5.426   2.271   5.565 -0.5721  0.1700  0.6372
  109OSM   H16F11227   5.460   2.371   5.531 -2.1669  0.5024 -0.0951
  109OSM   H16G11228   5.320   2.257   5.535 -1.3430 -0.4452  3.3857
  109OSM   C17F11229   5.515   2.161   5.507  0.2109  0.1818  0.2792
  109OSM   H17F11230   5.485   2.061   5.545 -3.6248  0.7315 -0.8726
  109OSM   H17G11231   5.620   2.182   5.538  0.2801 -0.1825  0.2887
  109OSM   C18F11232   5.509   2.162   5.353  0.1487  0.9334 -0.4200
  109OSM   H18F11233   5.527   2.262   5.309  0.8049  1.1088  0.2396
  109OSM   H18G11234   5.405   2.128   5.334 -0.4640  1.7387  1.3027
  109OSM   H18H11235   5.584   2.089   5.316  0.0456  1.3695 -1.5514
  110OSM      N11236   0.866   4.192   8.221 -0.0343  0.5245 -0.5285
  110OSM    C1511237   0.835   4.326   8.276  0.4732  0.1601  0.3211
  110OSM   H15A11238   0.889   4.397   8.214  1.5227 -1.4336 -0.6748
  110OSM   H15B11239   0.870   4.342   8.377 -2.1372  1.0347  1.1482
  110OSM   H15C11240   0.730   4.347   8.269 -0.1588 -1.7581  2.8838
  110OSM    C1411241   1.000   4.154   8.269  0.3396 -0.2986  0.9613
  110OSM   H14A11242   1.019   4.048   8.266  0.4722 -0.2587  0.2098
  110OSM   H14B11243   1.007   4.180   8.374  0.2542 -1.5294  1.2862
  110OSM   H14C11244   1.077   4.208   8.217  1.4387 -1.0934  1.7339
  110OSM    C1311245   0.768   4.093   8.282  0.4688 -0.0962  0.8256
  110OSM   H13A11246   0.800   4.091   8.386  1.6889  1.0076  0.4885
  110OSM   H13B11247   0.769   3.991   8.247 -3.8114 -0.5307  1.3538
  110OSM   H13C11248   0.665   4.127   8.282  1.1038  1.9994  2.3044
  110OSM    C1211249   0.845   4.198   8.070 -0.2898 -1.0745 -0.1265
  110OSM   H12A11250   0.743   4.230   8.051 -0.6099 -2.2666 -0.5517
  110OSM   H12B11251   0.859   4.097   8.033 -0.0349 -0.4780 -1.7296
  110OSM    C1111252   0.935   4.292   7.985  0.8669 -0.2356 -0.1170
  110OSM   H11A11253   0.921   4.271   7.877  1.6161  0.9159 -0.4567
  110OSM   H11B11254   1.039   4.259   8.009  0.3649 -1.3259  0.6515
  110OSM      P11255   1.038   4.529   8.023 -0.0629  0.1703 -0.5111
  110OSM    O1311256   0.981   4.657   8.058 -0.5697 -0.0462 -0.8915
  110OSM    O1411257   1.148   4.474   8.106 -0.1961  0.0871 -0.3175
  110OSM    O1111258   1.076   4.526   7.874  0.1266  0.5135 -0.3932
  110OSM    O1211259   0.915   4.430   8.011 -0.3791  0.1218  0.6575
  110OSM    C1S11260   0.973   4.559   7.770 -0.6396 -0.1250 -0.1697
  110OSM    H1S11261   0.904   4.637   7.808 -0.1102 -0.8959  2.5893
  110OSM    H1T11262   0.910   4.469   7.753 -1.5895  0.5267 -0.2007
  110OSM     NF11263   0.937   4.660   7.539  0.2205 -0.1252 -0.0730
  110OSM    HNF11264   0.919   4.598   7.463  0.5933 -1.6253  1.0135
  110OSM    C2S11265   1.042   4.598   7.633  1.1741  0.2283  0.6408
  110OSM    H2S11266   1.114   4.678   7.660  1.0527  0.4215  0.3926
  110OSM    C3S11267   1.120   4.479   7.578  0.9343  0.3729 -0.2138
  110OSM    H3S11268   1.046   4.407   7.536  0.5968  2.2169 -3.0108
  110OSM     O311269   1.195   4.405   7.675  0.6257 -0.2485 -0.1061
  110OSM    HO311270   1.187   4.455   7.757  0.6606  0.0406 -0.2766
  110OSM    C4S11271   1.201   4.530   7.468 -1.0544  0.2793 -0.4902
  110OSM    H4S11272   1.152   4.525   7.369  1.8928  1.1318 -2.0909
  110OSM    C5S11273   1.328   4.577   7.470  0.1287 -0.6960 -0.2683
  110OSM    H5S11274   1.380   4.577   7.567 -0.0528 -1.6050 -0.1623
  110OSM    C6S11275   1.419   4.623   7.356 -0.0544  0.7816  0.0760
  110OSM    H6S11276   1.516   4.578   7.387 -0.0824 -0.4068 -1.4507
  110OSM    H6T11277   1.432   4.733   7.359  2.7104  0.5485 -0.4800
  110OSM    C7S11278   1.373   4.579   7.210 -0.0270 -0.6399 -0.4309
  110OSM    H7S11279   1.287   4.647   7.190  2.0658  2.0318 -0.9396
  110OSM    H7T11280   1.343   4.472   7.213 -2.8352  0.0337 -1.1444
  110OSM    C8S11281   1.483   4.614   7.101 -0.7428  0.5897  0.5012
  110OSM    H8S11282   1.572   4.552   7.128 -0.4169 -0.2082 -2.1324
  110OSM    H8T11283   1.519   4.719   7.105 -0.4505  0.5356 -0.5348
  110OSM    C9S11284   1.425   4.572   6.965 -0.0220 -0.0772  0.4790
  110OSM    H9S11285   1.354   4.653   6.936  0.8890 -0.1712 -2.3480
  110OSM    H9T11286   1.378   4.472   6.971  1.2097 -0.8157 -1.4521
  110OSM   C10S11287   1.533   4.565   6.852  0.5461 -0.2110  0.2134
  110OSM   H10S11288   1.620   4.499   6.873  1.9018  0.9505 -1.3723
  110OSM   H10T11289   1.577   4.667   6.844  0.7782 -0.3831 -0.9202
  110OSM   C11S11290   1.470   4.517   6.719 -0.4272  0.2998 -0.5922
  110OSM   H11S11291   1.365   4.550   6.712 -0.4047  0.1118 -2.3670
  110OSM   H11T11292   1.480   4.406   6.711  2.2392  0.4317 -0.2472
  110OSM   C12S11293   1.540   4.592   6.605  0.7148 -0.7868 -0.4942
  110OSM   H12S11294   1.648   4.564   6.605  0.2261 -2.8854  0.8842
  110OSM   H12T11295   1.546   4.700   6.633 -0.1467 -0.5874 -1.0332
  110OSM   C13S11296   1.464   4.574   6.467  0.5660  0.3401  0.7267
  110OSM   H13S11297   1.365   4.624   6.472  0.3892  0.2326 -1.2061
  110OSM   H13T11298   1.440   4.466   6.454  0.5923  0.4507 -0.2615
  110OSM   C14S11299   1.553   4.636   6.351 -0.3449  0.0629  0.3721
  110OSM   H14S11300   1.656   4.595   6.362  0.6706  1.6108 -2.3547
  110OSM   H14T11301   1.560   4.747   6.357  3.9381 -0.0029  0.3116
  110OSM   C15S11302   1.501   4.600   6.214  0.8062  0.1554  0.0155
  110OSM   H15S11303   1.391   4.608   6.207  0.8168  0.3208  0.0462
  110OSM   H15T11304   1.528   4.493   6.200  0.3899 -0.2243  1.8466
  110OSM   C16S11305   1.558   4.696   6.108 -0.7540 -0.2438  0.9827
  110OSM   H16S11306   1.668   4.690   6.103 -0.3485  3.8212  1.6583
  110OSM   H16T11307   1.522   4.799   6.128  2.2436  1.3718 -1.2295
  110OSM   C17S11308   1.511   4.662   5.963 -0.5654 -0.1817 -0.3991
  110OSM   H17S11309   1.401   4.652   5.951 -0.4825 -0.2463 -1.1509
  110OSM   H17T11310   1.550   4.561   5.939 -1.7827 -0.5972 -0.6638
  110OSM   C18S11311   1.570   4.752   5.856 -0.4874  0.0588  0.4782
  110OSM   H18S11312   1.552   4.711   5.755 -1.3516  0.6110  0.3903
  110OSM   H18T11313   1.677   4.778   5.872 -0.6324  0.1741  1.3471
  110OSM   H18U11314   1.512   4.847   5.855 -1.4516 -0.5117 -0.7701
  110OSM    C1F11315   0.866   4.770   7.559  0.1233  0.3872  0.4317
  110OSM     OF11316   0.873   4.845   7.655 -0.2653 -0.0551  0.1309
  110OSM    C2F11317   0.777   4.806   7.442 -0.0108  0.1253 -0.1207
  110OSM    H2F11318   0.729   4.718   7.394  0.4103 -0.4530  0.4962
  110OSM    H2G11319   0.841   4.845   7.360  3.0163 -2.2339  0.9275
  110OSM    C3F11320   0.675   4.923   7.476 -0.2930 -0.1385  0.1961
  110OSM    H3F11321   0.726   5.021   7.488  0.0662 -0.0820 -1.5368
  110OSM    H3G11322   0.615   4.908   7.568 -1.3336 -0.0859 -0.4681
  110OSM    C4F11323   0.578   4.949   7.357 -0.1973  0.0389 -0.3563
  110OSM    H4F11324   0.488   4.999   7.397 -1.0992 -1.8172  0.0506
  110OSM    H4G11325   0.555   4.848   7.315 -2.2581  0.3805 -0.1302
  110OSM    C5F11326   0.662   5.033   7.260 -0.0798  0.1426  0.6283
  110OSM    H5F11327   0.752   4.973   7.236 -0.0668 -0.2080  1.5158
  110OSM    H5G11328   0.682   5.129   7.314 -1.7658  1.0060 -0.1993
  110OSM    C6F11329   0.582   5.064   7.133  0.3982  0.1865  0.3086
  110OSM    H6F11330   0.492   5.125   7.156  0.8893  1.0610 -0.0615
  110OSM    H6G11331   0.560   4.968   7.081  1.7065  0.0939 -0.1203
  110OSM    C7F11332   0.675   5.138   7.030  0.3079 -0.5096  0.6627
  110OSM    H7F11333   0.770   5.081   7.026  0.1669 -0.6920 -0.5723
  110OSM    H7G11334   0.690   5.244   7.061 -0.0533  0.2022 -1.4179
  110OSM    C8F11335   0.611   5.138   6.892  0.2002  0.0894 -0.2135
  110OSM    H8F11336   0.516   5.197   6.895  0.9465  1.2837  1.8122
  110OSM    H8G11337   0.572   5.040   6.858 -0.2185  0.1438  0.0989
  110OSM    C9F11338   0.713   5.194   6.785 -0.0628 -0.4322  0.3136
  110OSM    H9F11339   0.796   5.248   6.834 -0.1033 -0.7916  0.7862
  110OSM   C10F11340   0.704   5.170   6.657 -0.1498 -0.1710 -0.5289
  110OSM   H10F11341   0.762   5.224   6.581 -1.8794 -1.1882 -2.7028
  110OSM   C11F11342   0.594   5.105   6.588 -0.0466  0.7536  0.4761
  110OSM   H11F11343   0.501   5.107   6.649 -0.0420  1.6969  0.4612
  110OSM   H11G11344   0.618   4.998   6.569  1.3362  0.7462  2.0899
  110OSM   C12F11345   0.567   5.173   6.451  0.5106  0.6046  0.2662
  110OSM   H12F11346   0.553   5.283   6.460 -2.0939  0.4619 -1.0526
  110OSM   H12G11347   0.475   5.128   6.407  0.5223  0.2500  0.6007
  110OSM   C13F11348   0.686   5.154   6.354  0.0658  0.7298 -0.6295
  110OSM   H13F11349   0.713   5.046   6.361  0.4859  0.9127  0.9630
  110OSM   H13G11350   0.776   5.211   6.385  0.2834  0.8888 -1.5480
  110OSM   C14F11351   0.656   5.179   6.203  0.2292 -0.2594 -0.2727
  110OSM   H14F11352   0.624   5.285   6.199 -0.1272 -0.0464  3.7372
  110OSM   H14G11353   0.572   5.108   6.185  1.6452 -2.5557  1.4983
  110OSM   C15F11354   0.786   5.145   6.119 -0.1392 -0.4747 -0.6661
  110OSM   H15F11355   0.819   5.039   6.125  1.2480 -0.0232  0.2403
  110OSM   H15G11356   0.873   5.195   6.167 -1.0230  1.7834 -1.3001
  110OSM   C16F11357   0.774   5.198   5.979 -0.0206  0.0326 -0.5704
  110OSM   H16F11358   0.772   5.308   5.987 -0.3056 -0.0611  1.1406
  110OSM   H16G11359   0.687   5.161   5.920 -0.7410  0.9770 -0.1294
  110OSM   C17F11360   0.901   5.158   5.896  0.0473 -0.1048 -0.8756
  110OSM   H17F11361   0.905   5.047   5.883 -4.4387 -0.3345 -1.5587
  110OSM   H17G11362   0.989   5.189   5.956 -0.0778 -1.0358 -0.1797
  110OSM   C18F11363   0.913   5.227   5.760 -0.2782 -0.5115 -0.5379
  110OSM   H18F11364   1.010   5.191   5.717 -0.7488 -1.6082 -0.7156
  110OSM   H18G11365   0.918   5.338   5.765 -0.5415 -0.5493  0.6430
  110OSM   H18H11366   0.827   5.197   5.697  0.9037 -2.2263 -1.4095
  111OSM      N11367   3.315   5.507   8.033  0.2804 -0.3801  0.2032
  111OSM    C1511368   3.244   5.577   8.155 -0.3146 -0.1960  0.4550
  111OSM   H15A11369   3.303   5.570   8.245 -1.0520  0.9705  1.0653
  111OSM   H15B11370   3.143   5.540   8.168  0.1371 -1.2122  1.1919
  111OSM   H15C11371   3.230   5.681   8.128 -0.2587 -0.0957  0.8066
  111OSM    C1411372   3.436   5.583   8.001 -0.3606 -0.1227  0.3787
  111OSM   H14A11373   3.413   5.682   7.965 -0.7344 -1.3881 -3.1976
  111OSM   H14B11374   3.479   5.536   7.914  0.1557  1.9043 -0.5231
  111OSM   H14C11375   3.506   5.598   8.083  0.1637 -2.5853  0.4437
  111OSM    C1311376   3.337   5.364   8.069 -0.3131 -0.1722 -0.2292
  111OSM   H13A11377   3.417   5.360   8.141  0.2345 -2.9684 -0.9028
  111OSM   H13B11378   3.376   5.314   7.982  0.7651  0.6762 -0.2588
  111OSM   H13C11379   3.253   5.307   8.104 -1.4360  0.9685 -0.9738
  111OSM    C1211380   3.215   5.518   7.917 -0.4727 -0.0685  0.1087
  111OSM   H12A11381   3.189   5.620   7.893  0.9868 -0.0268 -1.4746
  111OSM   H12B11382   3.124   5.464   7.941  0.5267 -1.7047  0.3772
  111OSM    C1111383   3.259   5.468   7.776  0.1679 -0.3612 -0.4409
  111OSM   H11A11384   3.338   5.531   7.730 -0.7867  2.0173  0.9472
  111OSM   H11B11385   3.168   5.468   7.711  1.7334  1.4688 -2.8205
  111OSM      P11386   3.227   5.206   7.754 -0.2263  0.0173  0.0036
  111OSM    O1311387   3.306   5.089   7.803 -0.2713 -0.2618 -0.0992
  111OSM    O1411388   3.088   5.230   7.805 -0.4454 -0.1920 -0.1726
  111OSM    O1111389   3.222   5.198   7.595  0.0335 -0.0105 -0.6036
  111OSM    O1211390   3.303   5.333   7.781 -0.9580 -0.0922  0.1630
  111OSM    C1S11391   3.341   5.230   7.525 -0.0089  0.5466  0.3612
  111OSM    H1S11392   3.433   5.206   7.582 -1.1833 -1.8372  1.4120
  111OSM    H1T11393   3.330   5.337   7.498  0.0246  0.4492 -0.0526
  111OSM     NF11394   3.331   5.217   7.283  0.7105 -0.1867 -0.1170
  111OSM    HNF11395   3.236   5.213   7.251  0.0043  1.4183  1.5975
  111OSM    C2S11396   3.357   5.134   7.397 -0.4847  0.0503  0.0089
  111OSM    H2S11397   3.465   5.105   7.402 -0.6141 -0.6659 -1.0009
  111OSM    C3S11398   3.278   4.998   7.406 -0.1489 -0.1697 -0.6653
  111OSM    H3S11399   3.176   5.034   7.383 -0.1497  0.4969  0.2862
  111OSM     O311400   3.252   4.943   7.538  0.0036  0.1794  0.3786
  111OSM    HO311401   3.289   5.011   7.594 -2.2855  1.5431  0.3838
  111OSM    C4S11402   3.318   4.904   7.299 -0.1190 -0.4208 -0.0838
  111OSM    H4S11403   3.278   4.947   7.206  1.3866 -1.5781 -1.3257
  111OSM    C5S11404   3.406   4.799   7.299 -0.2181 -0.3698  0.6456
  111OSM    H5S11405   3.460   4.768   7.389 -0.2994  0.3285  0.9482
  111OSM    C6S11406   3.451   4.719   7.182 -0.6004  0.0612 -0.2387
  111OSM    H6S11407   3.422   4.612   7.196 -2.2817  0.6269  0.8930
  111OSM    H6T11408   3.560   4.711   7.162 -0.8867 -0.5477 -1.7376
  111OSM    C7S11409   3.401   4.782   7.050  0.7469  0.4778 -0.2095
  111OSM    H7S11410   3.422   4.890   7.037  0.3391  0.2618 -3.2753
  111OSM    H7T11411   3.290   4.773   7.053  0.6817  0.8996 -1.1658
  111OSM    C8S11412   3.445   4.695   6.938  0.1558  0.4405  0.5796
  111OSM    H8S11413   3.396   4.596   6.945  0.2822  0.2292 -1.1967
  111OSM    H8T11414   3.554   4.679   6.947  0.2362 -1.2119 -2.2391
  111OSM    C9S11415   3.408   4.754   6.800  0.6218 -0.7594  0.3845
  111OSM    H9S11416   3.449   4.857   6.797 -0.7435 -0.1770  0.9851
  111OSM    H9T11417   3.298   4.761   6.794  0.6669 -0.0299  0.3796
  111OSM   C10S11418   3.468   4.672   6.688  0.0287  0.2657  0.2690
  111OSM   H10S11419   3.421   4.572   6.684  0.1632  0.1588  1.1724
  111OSM   H10T11420   3.574   4.657   6.717  0.4601 -0.3898 -1.4907
  111OSM   C11S11421   3.452   4.758   6.558 -0.2068 -0.1803 -0.6479
  111OSM   H11S11422   3.500   4.856   6.579 -0.9661  0.1924 -0.6118
  111OSM   H11T11423   3.343   4.773   6.547 -0.0989  2.2466  0.7307
  111OSM   C12S11424   3.512   4.684   6.438  0.5468 -0.0020 -0.4670
  111OSM   H12S11425   3.469   4.582   6.424  2.0609 -0.9425  1.2445
  111OSM   H12T11426   3.618   4.669   6.467 -0.4905 -1.2411  3.3884
  111OSM   C13S11427   3.492   4.759   6.313 -0.0833 -0.4750 -0.5944
  111OSM   H13S11428   3.540   4.858   6.327 -1.7861  0.3997 -0.6930
  111OSM   H13T11429   3.383   4.776   6.298 -0.4074 -1.4399  0.4817
  111OSM   C14S11430   3.546   4.682   6.192  0.5627  0.8630 -0.4965
  111OSM   H14S11431   3.488   4.587   6.181 -2.2976  2.5532 -1.1942
  111OSM   H14T11432   3.654   4.659   6.203 -0.0829 -2.3199  0.1903
  111OSM   C15S11433   3.537   4.759   6.064 -0.1658 -0.1433 -0.0184
  111OSM   H15S11434   3.616   4.836   6.063 -0.5111  0.2364  0.9712
  111OSM   H15T11435   3.441   4.811   6.049  0.2868  0.5047 -0.7628
  111OSM   C16S11436   3.544   4.670   5.939 -0.0377 -0.6275  0.0878
  111OSM   H16S11437   3.458   4.601   5.931 -2.4364  2.2486 -0.3769
  111OSM   H16T11438   3.630   4.600   5.945  0.0350 -0.5546 -0.0783
  111OSM   C17S11439   3.542   4.761   5.813 -0.9310  0.4142  0.2943
  111OSM   H17S11440   3.646   4.793   5.792 -0.8848 -0.0076 -0.1327
  111OSM   H17T11441   3.481   4.853   5.830 -2.2907  0.0732 -2.2451
  111OSM   C18S11442   3.484   4.692   5.689 -0.2189  0.5110  0.7890
  111OSM   H18S11443   3.376   4.669   5.704  0.3046 -1.9619  1.1516
  111OSM   H18T11444   3.540   4.597   5.677 -0.6605  0.2902  0.4186
  111OSM   H18U11445   3.499   4.744   5.592 -0.1661 -1.1133 -0.1094
  111OSM    C1F11446   3.412   5.309   7.230  0.7576  0.7256  0.7145
  111OSM     OF11447   3.507   5.346   7.293 -0.5262  1.0586  0.4899
  111OSM    C2F11448   3.393   5.349   7.087 -0.5013  0.6643 -0.5304
  111OSM    H2F11449   3.426   5.454   7.071  0.3619  1.0831  3.0815
  111OSM    H2G11450   3.283   5.339   7.071 -0.7362 -0.3403  1.4196
  111OSM    C3F11451   3.461   5.249   6.994  0.0280 -0.5331 -0.3152
  111OSM    H3F11452   3.425   5.144   7.000  2.3763 -1.4489 -1.0677
  111OSM    H3G11453   3.568   5.244   7.023 -0.3800 -1.2083  1.2043
  111OSM    C4F11454   3.451   5.293   6.855  0.0981 -0.7122 -0.5247
  111OSM    H4F11455   3.507   5.388   6.841 -0.6988  0.0719  1.3490
  111OSM    H4G11456   3.347   5.297   6.817  0.8280  1.0891 -2.5476
  111OSM    C5F11457   3.518   5.195   6.753  0.7006 -0.4568 -0.9310
  111OSM    H5F11458   3.453   5.105   6.751 -0.9254  0.5684  1.5053
  111OSM    H5G11459   3.619   5.163   6.786 -0.7609 -1.3922  3.2276
  111OSM    C6F11460   3.521   5.256   6.612 -0.4065 -0.2871 -0.2953
  111OSM    H6F11461   3.582   5.348   6.618  0.6965 -0.9803 -0.5627
  111OSM    H6G11462   3.423   5.300   6.580 -0.5065  1.5647  2.2788
  111OSM    C7F11463   3.590   5.176   6.504  0.4043  0.5983  0.3312
  111OSM    H7F11464   3.542   5.078   6.489  1.0278  0.0708  1.6374
  111OSM    H7G11465   3.690   5.154   6.547 -0.6861  0.0752  2.7281
  111OSM    C8F11466   3.618   5.253   6.375  0.7987 -0.2133  0.6912
  111OSM    H8F11467   3.695   5.206   6.311  0.7681 -0.0249  0.5154
  111OSM    H8G11468   3.658   5.355   6.396  0.4677  0.3504 -1.2512
  111OSM    C9F11469   3.500   5.270   6.285  0.9972  0.2955  0.2135
  111OSM    H9F11470   3.421   5.337   6.323  0.0142  0.1284 -1.4511
  111OSM   C10F11471   3.484   5.216   6.169 -0.3666  0.3969 -0.2969
  111OSM   H10F11472   3.395   5.227   6.106  0.9520  1.0773 -2.1218
  111OSM   C11F11473   3.578   5.109   6.101 -0.5477 -0.4351  0.7296
  111OSM   H11F11474   3.518   5.024   6.063 -0.0600 -0.9231  1.0537
  111OSM   H11G11475   3.656   5.069   6.169  0.1870  2.1162  1.5140
  111OSM   C12F11476   3.653   5.167   5.971  0.4921 -0.9133  0.1545
  111OSM   H12F11477   3.721   5.085   5.939  1.6608  0.2154 -0.3526
  111OSM   H12G11478   3.709   5.259   5.997 -1.9539  0.9354 -0.7101
  111OSM   C13F11479   3.557   5.221   5.865  0.6820  0.0901  0.6086
  111OSM   H13F11480   3.514   5.317   5.897 -0.1536 -0.4767  1.2162
  111OSM   H13G11481   3.464   5.160   5.859  1.1877 -0.7425  0.9856
  111OSM   C14F11482   3.623   5.262   5.731 -0.5329  0.0716  0.0511
  111OSM   H14F11483   3.721   5.313   5.738 -1.1717  2.2356 -3.6761
  111OSM   H14G11484   3.550   5.337   5.695 -0.0568  0.3504 -0.3496
  111OSM   C15F11485   3.628   5.150   5.626 -0.0792  0.5733 -0.1137
  111OSM   H15F11486   3.535   5.089   5.623 -1.0691  2.0705 -0.9248
  111OSM   H15G11487   3.709   5.079   5.655 -0.0262  1.1042  1.1216
  111OSM   C16F11488   3.660   5.204   5.487 -0.1627  0.4954  0.0502
  111OSM   H16F11489   3.758   5.257   5.488  0.4645 -0.5923  2.4584
  111OSM   H16G11490   3.581   5.267   5.440  0.1555  1.4782  0.7969
  111OSM   C17F11491   3.685   5.087   5.384  0.2696 -0.2836  0.4022
  111OSM   H17F11492   3.591   5.081   5.324 -0.1731  3.4502  0.4846
  111OSM   H17G11493   3.724   4.997   5.436  1.6645  0.4258  0.6196
  111OSM   C18F11494   3.791   5.125   5.272  0.3744  0.0137  0.3533
  111OSM   H18F11495   3.775   5.057   5.185  1.8163  1.6782 -1.2992
  111OSM   H18G11496   3.891   5.129   5.321  0.5497 -1.6908  0.2221
  111OSM   H18H11497   3.762   5.227   5.241 -0.4324  0.0244  1.1150
  112OSM      N11498   0.760   2.081   7.579  0.1337 -0.3174 -0.1118
  112OSM    C1511499   0.822   2.203   7.521  0.0922  0.0196 -0.1095
  112OSM   H15A11500   0.810   2.289   7.584 -0.0015  0.9123 -1.3058
  112OSM   H15B11501   0.772   2.210   7.425  0.3108  0.6518 -0.1780
  112OSM   H15C11502   0.928   2.196   7.501 -0.1249  0.7253 -1.6467
  112OSM    C1411503   0.761   1.967   7.478  0.2111 -0.3509  0.2872
  112OSM   H14A11504   0.694   1.889   7.514  0.3754 -0.4816  0.3130
  112OSM   H14B11505   0.856   1.919   7.463  1.3266  2.1530 -1.2788
  112OSM   H14C11506   0.717   2.004   7.387  0.8542  3.5899  1.4148
  112OSM    C1311507   0.838   2.036   7.693 -0.1519 -0.0736 -0.6095
  112OSM   H13A11508   0.820   1.940   7.738  2.6425 -0.6350 -0.5091
  112OSM   H13B11509   0.826   2.111   7.770  0.2756 -0.7568  0.1417
  112OSM   H13C11510   0.941   2.030   7.658 -0.2372 -1.5127 -0.6520
  112OSM    C1211511   0.615   2.100   7.633 -0.3220  0.0765  0.1011
  112OSM   H12A11512   0.550   2.139   7.556  1.8769 -0.5405 -2.2313
  112OSM   H12B11513   0.627   2.171   7.713  2.5537 -0.8836  0.6318
  112OSM    C1111514   0.546   1.981   7.702 -0.3066  0.2484  0.3008
  112OSM   H11A11515   0.443   2.013   7.728 -0.6328  1.9490 -2.6386
  112OSM   H11B11516   0.599   1.945   7.793  1.2155 -1.0619 -1.0305
  112OSM      P11517   0.397   1.858   7.522  0.1569 -0.2870 -0.0717
  112OSM    O1311518   0.312   1.753   7.580 -0.7311  0.2413  0.1815
  112OSM    O1411519   0.324   1.981   7.488  0.0422  0.0664 -0.8697
  112OSM    O1111520   0.462   1.800   7.395  0.2277 -0.0536 -0.3047
  112OSM    O1211521   0.532   1.877   7.606  0.5170 -0.5441 -0.5785
  112OSM    C1S11522   0.471   1.881   7.287  0.1274  0.5222 -0.2511
  112OSM    H1S11523   0.559   1.948   7.298  0.5723  0.3063 -2.0308
  112OSM    H1T11524   0.384   1.938   7.248 -0.1498  0.3757  0.1471
  112OSM     NF11525   0.530   1.880   7.041  0.3672  1.0166  0.3764
  112OSM    HNF11526   0.454   1.877   6.977  0.3294  0.4106  0.4410
  112OSM    C2S11527   0.504   1.788   7.159 -0.8332 -0.0714 -0.1197
  112OSM    H2S11528   0.593   1.725   7.175  0.3610  1.8363  1.0210
  112OSM    C3S11529   0.387   1.696   7.128  0.4198 -0.3566 -0.2486
  112OSM    H3S11530   0.289   1.746   7.117 -0.6427 -2.3468 -0.2562
  112OSM     O311531   0.360   1.598   7.234 -0.2978 -0.2192 -0.5036
  112OSM    HO311532   0.393   1.634   7.316 -0.6398 -0.1912 -0.3785
  112OSM    C4S11533   0.410   1.622   7.002  0.2490  0.6288  0.7698
  112OSM    H4S11534   0.373   1.670   6.909  0.9609 -0.2151  0.0367
  112OSM    C5S11535   0.497   1.513   6.990  0.7642  0.3423  0.2508
  112OSM    H5S11536   0.551   1.473   7.077  0.7684 -1.6403 -0.6148
  112OSM    C6S11537   0.526   1.429   6.865 -0.5763 -0.0889 -0.3206
  112OSM    H6S11538   0.458   1.341   6.855 -0.6805 -0.1402  0.6873
  112OSM    H6T11539   0.629   1.388   6.866 -1.6759 -3.1956  1.1673
  112OSM    C7S11540   0.530   1.519   6.736 -0.6538  0.1506 -0.7068
  112OSM    H7S11541   0.602   1.604   6.737  1.9319 -1.9037 -1.5075
  112OSM    H7T11542   0.428   1.562   6.731 -0.2542  1.2089 -0.1504
  112OSM    C8S11543   0.559   1.431   6.620  0.1296  0.1752  0.3775
  112OSM    H8S11544   0.528   1.483   6.527 -2.5957 -0.7925  0.6389
  112OSM    H8T11545   0.500   1.337   6.621 -0.4201  0.5046  2.0753
  112OSM    C9S11546   0.708   1.405   6.600  0.6873  0.0127  0.1190
  112OSM    H9S11547   0.737   1.319   6.665 -0.8106 -0.2494  0.4773
  112OSM    H9T11548   0.764   1.492   6.638 -0.0867  0.8558 -0.6147
  112OSM   C10S11549   0.741   1.388   6.453 -0.3599  0.4066 -0.3350
  112OSM   H10S11550   0.726   1.482   6.394 -1.1811  0.0231 -0.7558
  112OSM   H10T11551   0.672   1.316   6.403 -0.7669  2.2454 -2.6296
  112OSM   C11S11552   0.886   1.326   6.445 -1.2360  0.1984 -0.3069
  112OSM   H11S11553   0.879   1.223   6.488 -3.1606 -0.3614 -1.8345
  112OSM   H11T11554   0.955   1.392   6.501 -0.8642  0.9226 -1.5982
  112OSM   C12S11555   0.943   1.329   6.303 -0.2433 -0.1109 -0.0614
  112OSM   H12S11556   1.048   1.295   6.291  0.0304  0.3200  1.0081
  112OSM   H12T11557   0.926   1.432   6.264 -2.1601  0.1048  1.1920
  112OSM   C13S11558   0.870   1.245   6.190 -0.5243  0.8739 -0.0075
  112OSM   H13S11559   0.761   1.264   6.184 -0.5906  0.3563 -0.6081
  112OSM   H13T11560   0.878   1.137   6.216 -1.4281  0.8254  0.1100
  112OSM   C14S11561   0.928   1.257   6.051 -0.1727  0.4392  0.1550
  112OSM   H14S11562   1.032   1.219   6.054 -0.2306  0.3044  0.5704
  112OSM   H14T11563   0.931   1.358   6.004  0.7989  0.6074  0.5607
  112OSM   C15S11564   0.846   1.166   5.960 -0.7634  0.2814 -0.4786
  112OSM   H15S11565   0.749   1.218   5.948  0.3651  2.8062  0.4880
  112OSM   H15T11566   0.829   1.068   6.009 -2.5154  0.1534 -1.2761
  112OSM   C16S11567   0.916   1.156   5.826  0.2791 -0.0359  0.0099
  112OSM   H16S11568   1.016   1.111   5.847  1.0867  1.6203 -0.1323
  112OSM   H16T11569   0.931   1.255   5.778  0.9481 -1.3783 -2.7545
  112OSM   C17S11570   0.837   1.064   5.734  0.3559  0.7183 -0.0843
  112OSM   H17S11571   0.825   0.960   5.769 -0.5463  0.2390 -1.7282
  112OSM   H17T11572   0.887   1.053   5.636 -2.9612 -0.9833 -1.7509
  112OSM   C18S11573   0.692   1.113   5.707 -0.2420 -0.1787 -0.2238
  112OSM   H18S11574   0.653   1.050   5.624  0.5184 -0.8401 -0.0833
  112OSM   H18T11575   0.682   1.215   5.664 -3.1740 -1.2629 -2.4233
  112OSM   H18U11576   0.617   1.100   5.787 -0.8971 -0.9197 -0.9343
  112OSM    C1F11577   0.631   1.967   7.031 -0.2651 -0.0685  0.0614
  112OSM     OF11578   0.726   1.962   7.108 -0.1225 -0.1938  0.1711
  112OSM    C2F11579   0.619   2.073   6.920 -0.2848  0.4428 -1.0544
  112OSM    H2F11580   0.535   2.140   6.949  0.4012  0.2127  1.7973
  112OSM    H2G11581   0.611   2.017   6.824  1.0445 -1.4591 -0.1161
  112OSM    C3F11582   0.753   2.146   6.902 -0.3049 -0.1022  0.2926
  112OSM    H3F11583   0.834   2.071   6.892 -1.9725 -1.8281 -1.2457
  112OSM    H3G11584   0.760   2.218   6.986 -2.3282  3.2514 -2.1329
  112OSM    C4F11585   0.763   2.234   6.771 -0.0139  0.4666  0.5477
  112OSM    H4F11586   0.841   2.313   6.780  1.8332 -1.3108  0.9386
  112OSM    H4G11587   0.660   2.275   6.775  0.4837  1.7588  0.7808
  112OSM    C5F11588   0.784   2.158   6.640  0.4399 -0.1776  0.8594
  112OSM    H5F11589   0.742   2.055   6.644  2.5136 -1.0817  0.7677
  112OSM    H5G11590   0.893   2.146   6.625  0.0833 -2.0802 -0.6175
  112OSM    C6F11591   0.726   2.240   6.525 -0.0007 -0.0222 -0.9061
  112OSM    H6F11592   0.791   2.329   6.511 -2.8159  1.9923 -2.2185
  112OSM    H6G11593   0.622   2.274   6.542  0.1298 -0.1235  0.1410
  112OSM    C7F11594   0.721   2.168   6.393  0.5914 -0.1519  0.5816
  112OSM    H7F11595   0.678   2.074   6.434  3.5657 -1.3720  1.1111
  112OSM    H7G11596   0.821   2.147   6.351 -0.5513 -1.8541 -1.4473
  112OSM    C8F11597   0.630   2.243   6.291 -0.5736 -0.0849  0.4990
  112OSM    H8F11598   0.525   2.257   6.325 -0.4229 -1.0691  1.4074
  112OSM    H8G11599   0.635   2.177   6.201  0.0490  0.3678  0.1968
  112OSM    C9F11600   0.685   2.374   6.252 -0.5213 -0.5918  0.1716
  112OSM    H9F11601   0.673   2.440   6.339 -1.8578 -0.7164  0.1106
  112OSM   C10F11602   0.744   2.416   6.138 -0.7544  0.1357  0.4874
  112OSM   H10F11603   0.785   2.518   6.137  0.2705 -0.2259  1.7313
  112OSM   C11F11604   0.781   2.319   6.020  0.6105 -1.0876 -0.7999
  112OSM   H11F11605   0.797   2.218   6.064  1.7357 -0.9058 -0.7728
  112OSM   H11G11606   0.875   2.336   5.964  0.9872  0.0177  0.1190
  112OSM   C12F11607   0.666   2.317   5.915  0.0611 -0.1326 -0.3710
  112OSM   H12F11608   0.623   2.418   5.899  0.8464  0.0582 -1.4012
  112OSM   H12G11609   0.592   2.249   5.963  1.0826 -1.4871 -0.6217
  112OSM   C13F11610   0.693   2.258   5.773 -0.6834 -0.1977 -0.1011
  112OSM   H13F11611   0.736   2.155   5.775  2.8935  1.1185  2.3776
  112OSM   H13G11612   0.789   2.307   5.748 -0.6578 -0.6614 -0.9619
  112OSM   C14F11613   0.585   2.293   5.674 -0.0125  0.1124 -0.3887
  112OSM   H14F11614   0.575   2.403   5.660 -2.4858  0.5369  3.3594
  112OSM   H14G11615   0.489   2.254   5.714 -0.6002  1.3426 -0.5565
  112OSM   C15F11616   0.618   2.237   5.528  0.6592  0.1146 -0.4423
  112OSM   H15F11617   0.587   2.131   5.528 -0.2077  0.3573 -0.6035
  112OSM   H15G11618   0.726   2.252   5.511  0.4929  1.4931 -0.3932
  112OSM   C16F11619   0.538   2.310   5.423  0.3393  0.2856  0.8514
  112OSM   H16F11620   0.463   2.381   5.464  0.3300  2.6918 -2.9372
  112OSM   H16G11621   0.476   2.249   5.353 -0.2771  1.0571  0.7158
  112OSM   C17F11622   0.626   2.394   5.336 -0.5197 -0.0205 -0.4233
  112OSM   H17F11623   0.694   2.320   5.290 -0.2611  1.0336 -1.8021
  112OSM   H17G11624   0.685   2.473   5.387  1.6900 -1.4260 -0.7038
  112OSM   C18F11625   0.548   2.466   5.231 -0.4534 -0.4722  0.6629
  112OSM   H18F11626   0.482   2.389   5.185 -0.1674 -0.1624 -0.2850
  112OSM   H18G11627   0.611   2.504   5.148 -0.7660 -2.9049 -0.7755
  112OSM   H18H11628   0.486   2.551   5.268 -0.2607  1.2970 -2.6774
  113OSM      N11629   3.279   3.843   7.770 -0.1812 -0.0222 -0.0685
  113OSM    C1511630   3.233   3.702   7.786  0.2001  0.2957  0.0823
  113OSM   H15A11631   3.308   3.625   7.784 -1.0149 -0.9546  0.6597
  113OSM   H15B11632   3.175   3.687   7.696  0.5858  2.4251 -0.5849
  113OSM   H15C11633   3.169   3.684   7.872  0.9589 -1.6660  0.2708
  113OSM    C1411634   3.367   3.867   7.889 -0.4808 -0.3048 -0.2920
  113OSM   H14A11635   3.428   3.782   7.913  0.2059  0.0359 -0.7943
  113OSM   H14B11636   3.306   3.892   7.975  0.2867 -0.0274  0.1841
  113OSM   H14C11637   3.441   3.941   7.861 -1.2297 -0.3494 -2.6383
  113OSM    C1311638   3.347   3.859   7.642  0.6715  0.2281  0.7217
  113OSM   H13A11639   3.419   3.780   7.621  3.6500  3.2463 -1.4522
  113OSM   H13B11640   3.404   3.950   7.645  1.7482 -0.3858 -0.0890
  113OSM   H13C11641   3.282   3.868   7.556  1.6459  0.9094  0.0392
  113OSM    C1211642   3.167   3.946   7.776 -0.6898 -0.0996 -0.4978
  113OSM   H12A11643   3.205   4.045   7.759 -2.6828  0.6397 -0.9303
  113OSM   H12B11644   3.135   3.952   7.879  1.1421 -2.8198  0.3380
  113OSM    C1111645   3.047   3.943   7.676  0.0534 -0.7795  0.1212
  113OSM   H11A11646   3.084   3.966   7.574 -0.4254 -0.4174  0.0258
  113OSM   H11B11647   2.994   4.038   7.698  1.5541  0.2794 -0.6210
  113OSM      P11648   2.840   3.810   7.582 -0.1206  0.0169 -0.2269
  113OSM    O1311649   2.794   3.675   7.597 -0.3057 -0.1800 -0.1998
  113OSM    O1411650   2.745   3.913   7.616  0.0867  0.2684 -0.3613
  113OSM    O1111651   2.889   3.834   7.434 -0.1593  0.2069  0.0350
  113OSM    O1211652   2.970   3.825   7.679 -0.2389  0.1190 -0.2471
  113OSM    C1S11653   2.987   3.739   7.371  0.4359  0.2114  0.0406
  113OSM    H1S11654   2.936   3.641   7.359  1.6526 -0.7423  2.0250
  113OSM    H1T11655   3.073   3.724   7.440  0.8756 -0.7945 -0.7060
  113OSM     NF11656   3.131   3.665   7.182  0.3216 -1.1186 -0.7029
  113OSM    HNF11657   3.230   3.677   7.183  0.3013  1.7854  4.2996
  113OSM    C2S11658   3.055   3.779   7.238 -0.3081  0.0650  0.4732
  113OSM    H2S11659   2.979   3.810   7.164 -0.7660 -0.4029  0.7385
  113OSM    C3S11660   3.132   3.908   7.259 -0.3154  0.4297 -0.1742
  113OSM    H3S11661   3.215   3.892   7.331 -1.5063  0.3591  1.2038
  113OSM     O311662   3.057   4.000   7.337  0.6058  0.7267  0.0694
  113OSM    HO311663   2.988   3.951   7.381  0.6396  0.1550 -0.4949
  113OSM    C4S11664   3.192   3.961   7.139  0.5848  0.0895  0.6742
  113OSM    H4S11665   3.288   3.910   7.122 -0.8661 -1.7238 -3.3805
  113OSM    C5S11666   3.149   4.039   7.039 -0.1457 -1.1140 -0.1674
  113OSM    H5S11667   3.048   4.079   7.053  0.2041 -0.4925  0.6357
  113OSM    C6S11668   3.215   4.073   6.906 -0.3076  0.7471 -0.1446
  113OSM    H6S11669   3.321   4.040   6.911 -0.2295  0.9206 -0.6657
  113OSM    H6T11670   3.206   4.182   6.888 -1.3317  0.7836  0.4862
  113OSM    C7S11671   3.162   4.003   6.781 -0.1174  0.3833 -0.2257
  113OSM    H7S11672   3.054   4.029   6.772 -0.3238  1.4247  3.5277
  113OSM    H7T11673   3.156   3.892   6.790 -3.2158  0.4885  0.1416
  113OSM    C8S11674   3.221   4.055   6.653  0.1249  0.3047  0.2034
  113OSM    H8S11675   3.323   4.010   6.648  0.2905  0.3451  2.2748
  113OSM    H8T11676   3.204   4.165   6.647  0.6494  0.2931 -2.0039
  113OSM    C9S11677   3.140   3.994   6.534  0.2869 -0.8083  0.3374
  113OSM    H9S11678   3.035   4.026   6.551  1.1499  1.9954  0.9508
  113OSM    H9T11679   3.149   3.885   6.555  1.9429 -1.0370 -1.2816
  113OSM   C10S11680   3.194   4.021   6.391 -0.3968  0.2302 -0.2560
  113OSM   H10S11681   3.281   3.952   6.394 -2.6637 -2.8174  0.3041
  113OSM   H10T11682   3.227   4.127   6.396  1.1144 -0.2535  3.6502
  113OSM   C11S11683   3.096   3.983   6.272 -0.6958 -0.0987  0.6116
  113OSM   H11S11684   3.016   4.060   6.272 -1.5754 -0.9693 -0.7909
  113OSM   H11T11685   3.055   3.881   6.286 -0.0660 -0.5489 -0.6630
  113OSM   C12S11686   3.170   3.994   6.137 -0.2783 -0.1238  0.0520
  113OSM   H12S11687   3.244   3.911   6.142  0.3949  0.5235  1.6644
  113OSM   H12T11688   3.222   4.091   6.122  1.6015 -1.3198 -1.6852
  113OSM   C13S11689   3.070   3.965   6.022 -0.4518  0.3597 -0.7088
  113OSM   H13S11690   3.018   4.060   5.996 -1.1839  0.4089  0.8431
  113OSM   H13T11691   2.993   3.897   6.064  1.6231 -0.6276  1.7483
  113OSM   C14S11692   3.131   3.903   5.888  0.1285  0.3392  0.5001
  113OSM   H14S11693   3.182   3.812   5.926  0.9523  0.4633 -0.2564
  113OSM   H14T11694   3.208   3.968   5.840  0.9787 -0.6151  0.5470
  113OSM   C15S11695   3.014   3.870   5.783 -0.3063  0.3037 -0.4120
  113OSM   H15S11696   2.946   3.957   5.776 -1.5968 -0.6518 -0.1657
  113OSM   H15T11697   2.964   3.779   5.822  0.0868  0.2808  0.0638
  113OSM   C16S11698   3.069   3.857   5.648 -0.1436  0.5818 -0.2854
  113OSM   H16S11699   3.143   3.775   5.654 -0.9087 -0.1149 -0.1323
  113OSM   H16T11700   3.123   3.951   5.624  0.0609  0.6091  0.2534
  113OSM   C17S11701   2.961   3.815   5.548  0.1167 -0.0399  0.1986
  113OSM   H17S11702   2.876   3.886   5.560 -1.0342 -1.2863 -0.2308
  113OSM   H17T11703   2.917   3.722   5.589 -2.9193  0.4420 -1.6111
  113OSM   C18S11704   2.999   3.815   5.403 -0.1816 -0.6711  0.1754
  113OSM   H18S11705   2.906   3.796   5.345 -1.6706  1.3525  1.7751
  113OSM   H18T11706   3.073   3.735   5.379 -1.7803 -1.8639 -1.0198
  113OSM   H18U11707   3.046   3.909   5.367  0.2529 -0.4057  1.3959
  113OSM    C1F11708   3.075   3.566   7.120  0.0497  0.4313  0.1961
  113OSM     OF11709   2.953   3.569   7.118  0.2345  0.5015 -0.0506
  113OSM    C2F11710   3.160   3.464   7.052  0.0176  0.2211 -0.4136
  113OSM    H2F11711   3.156   3.381   7.126 -0.0288  0.1679 -0.4756
  113OSM    H2G11712   3.263   3.499   7.031  0.1126  1.0935  1.2995
  113OSM    C3F11713   3.099   3.407   6.918 -0.0909  0.4261 -0.8433
  113OSM    H3F11714   3.008   3.357   6.957 -0.4981  2.5054  1.0620
  113OSM    H3G11715   3.164   3.332   6.867 -0.9770 -1.0644  0.1686
  113OSM    C4F11716   3.069   3.520   6.816 -0.3205 -0.3001  0.1999
  113OSM    H4F11717   3.156   3.551   6.755 -0.2466  0.5131  0.7027
  113OSM    H4G11718   3.022   3.608   6.864  0.2362  0.4106 -0.5524
  113OSM    C5F11719   2.976   3.467   6.697 -0.5213  0.1138  0.0907
  113OSM    H5F11720   2.878   3.440   6.742 -1.6054  1.1837 -1.5456
  113OSM    H5G11721   3.038   3.381   6.663 -0.7014  0.5186 -1.3257
  113OSM    C6F11722   2.940   3.569   6.592  0.1401 -0.0867  0.2132
  113OSM    H6F11723   2.922   3.668   6.638 -2.3171  0.0373 -0.8823
  113OSM    H6G11724   2.850   3.539   6.534 -0.3994  2.3988 -0.3394
  113OSM    C7F11725   3.043   3.574   6.471  0.8419  0.6261  0.1222
  113OSM    H7F11726   3.148   3.574   6.509  1.2060 -3.3927 -0.5014
  113OSM    H7G11727   3.011   3.667   6.419 -1.8684 -0.2681  0.0419
  113OSM    C8F11728   3.022   3.473   6.363 -0.2056 -1.0644  0.4787
  113OSM    H8F11729   3.031   3.372   6.408  0.3478 -0.4083  1.9043
  113OSM    H8G11730   3.120   3.477   6.311  0.8555 -1.2436  2.3729
  113OSM    C9F11731   2.897   3.489   6.284  0.7512  0.0264  0.3597
  113OSM    H9F11732   2.807   3.447   6.332 -2.0478  2.9357 -1.9253
  113OSM   C10F11733   2.889   3.523   6.156  0.1694 -0.2241 -0.1333
  113OSM   H10F11734   2.789   3.546   6.117  0.8984  0.8094 -1.4775
  113OSM   C11F11735   3.005   3.545   6.057  0.0647  0.7617  0.2046
  113OSM   H11F11736   3.104   3.531   6.105  1.6280  0.1876 -2.9092
  113OSM   H11G11737   3.003   3.643   6.004 -1.8968  0.2798 -0.6807
  113OSM   C12F11738   2.984   3.444   5.934  0.2552  0.6735  0.5787
  113OSM   H12F11739   2.890   3.476   5.885 -0.5297 -0.2519  1.4404
  113OSM   H12G11740   2.955   3.344   5.972 -0.5096  0.6435 -0.0613
  113OSM   C13F11741   3.100   3.442   5.832  0.5684 -0.6191  0.5150
  113OSM   H13F11742   3.189   3.395   5.878  1.2758  0.2012  0.0173
  113OSM   H13G11743   3.119   3.548   5.804  1.5879 -0.9601 -0.1383
  113OSM   C14F11744   3.060   3.369   5.705 -0.1914 -0.5101  0.0458
  113OSM   H14F11745   2.993   3.284   5.731  0.0725 -1.1079 -1.1366
  113OSM   H14G11746   3.153   3.336   5.653  0.5487 -1.4423  1.8846
  113OSM   C15F11747   2.994   3.449   5.589 -0.2261 -0.3134 -0.3308
  113OSM   H15F11748   3.055   3.533   5.552  0.6244 -0.0431  1.5994
  113OSM   H15G11749   2.903   3.500   5.626 -0.9656 -1.6378 -0.2300
  113OSM   C16F11750   2.938   3.356   5.480 -0.1138  0.0875 -0.3372
  113OSM   H16F11751   2.846   3.307   5.518  0.1318 -0.9558 -1.0478
  113OSM   H16G11752   3.023   3.290   5.453  0.0733  0.7013 -1.2760
  113OSM   C17F11753   2.907   3.433   5.354  0.1256  0.2045  0.2024
  113OSM   H17F11754   2.988   3.500   5.317 -1.0025  1.4487 -0.0877
  113OSM   H17G11755   2.821   3.502   5.365 -0.4018 -0.0162 -2.1873
  113OSM   C18F11756   2.872   3.353   5.232  0.6234  0.0172  0.3278
  113OSM   H18F11757   2.957   3.282   5.221 -0.8197 -1.5977 -0.8736
  113OSM   H18G11758   2.867   3.419   5.142 -0.7854  0.4400  0.7017
  113OSM   H18H11759   2.781   3.291   5.247  0.6031  0.3443  1.6272
  114OSM      N11760   2.613   1.503   7.400 -0.0066 -0.8745 -0.2195
  114OSM    C1511761   2.487   1.560   7.453 -1.2139  0.2902 -0.0764
  114OSM   H15A11762   2.511   1.652   7.503 -1.5670 -1.1585  2.9491
  114OSM   H15B11763   2.441   1.496   7.527  0.3688 -1.6102 -0.6599
  114OSM   H15C11764   2.409   1.577   7.379 -2.0770  2.4427  1.2450
  114OSM    C1411765   2.576   1.385   7.317  0.8497  0.5126 -0.0371
  114OSM   H14A11766   2.658   1.345   7.259  1.3948 -0.7878  1.5461
  114OSM   H14B11767   2.498   1.418   7.250  0.2473  0.5463  0.6733
  114OSM   H14C11768   2.544   1.304   7.381  0.0721  1.0595  0.2864
  114OSM    C1311769   2.677   1.604   7.304  0.2140  0.1870  0.0882
  114OSM   H13A11770   2.712   1.688   7.361  0.0573  0.9548 -0.9222
  114OSM   H13B11771   2.602   1.632   7.232 -0.0400 -1.8533 -0.5187
  114OSM   H13C11772   2.761   1.545   7.269 -0.0940 -0.4949  0.4892
  114OSM    C1211773   2.707   1.462   7.510 -0.1299  0.9026  0.2840
  114OSM   H12A11774   2.650   1.393   7.570  1.0625  0.1406  0.5658
  114OSM   H12B11775   2.732   1.544   7.575  2.2212 -0.0483  0.6749
  114OSM    C1111776   2.840   1.393   7.477 -0.1889 -0.3133 -0.0908
  114OSM   H11A11777   2.825   1.302   7.416 -1.2197  0.6609 -1.3688
  114OSM   H11B11778   2.884   1.364   7.574  1.3664  2.3955  0.1328
  114OSM      P11779   3.002   1.601   7.460  0.0185 -0.1563  0.3448
  114OSM    O1311780   2.914   1.664   7.558 -0.1176 -0.4624 -0.1108
  114OSM    O1411781   3.132   1.552   7.508  0.5413 -0.3873  0.2386
  114OSM    O1111782   3.021   1.698   7.341  0.5517 -0.1011  0.4083
  114OSM    O1211783   2.928   1.478   7.401 -0.6054  0.1414 -0.8256
  114OSM    C1S11784   3.066   1.668   7.214  0.2779  0.1347  0.1966
  114OSM    H1S11785   2.980   1.645   7.147  0.4160 -2.0955  0.7078
  114OSM    H1T11786   3.124   1.574   7.204 -0.4777 -0.5891  2.0718
  114OSM     NF11787   3.150   1.806   7.009 -0.0550  0.8607 -0.4641
  114OSM    HNF11788   3.238   1.786   6.967  0.1285  0.7180 -0.0239
  114OSM    C2S11789   3.147   1.794   7.161  0.6319  0.1075  0.2301
  114OSM    H2S11790   3.087   1.881   7.194  1.2668  1.0191 -0.9261
  114OSM    C3S11791   3.286   1.812   7.234  0.2494  0.3232 -0.2489
  114OSM    H3S11792   3.355   1.738   7.187  2.1184  2.4267 -1.0569
  114OSM     O311793   3.277   1.804   7.374 -0.3106 -0.1130  0.1943
  114OSM    HO311794   3.191   1.773   7.402 -0.1474  0.5752  1.5578
  114OSM    C4S11795   3.356   1.939   7.198  1.0046  0.1372  0.9461
  114OSM    H4S11796   3.318   2.030   7.248  0.1756  0.2459  0.1479
  114OSM    C5S11797   3.456   1.952   7.106  0.2864  0.4553 -0.8280
  114OSM    H5S11798   3.524   1.872   7.074  1.1950  0.3131  1.2981
  114OSM    C6S11799   3.507   2.088   7.066 -0.2982 -0.0330  0.3718
  114OSM    H6S11800   3.604   2.103   7.118  1.2471 -0.6779 -2.1405
  114OSM    H6T11801   3.434   2.165   7.099 -1.7183 -0.5411 -1.4142
  114OSM    C7S11802   3.530   2.099   6.909  0.3867  0.0503 -0.9033
  114OSM    H7S11803   3.584   2.010   6.869  0.0242 -0.5286 -0.1365
  114OSM    H7T11804   3.608   2.178   6.909  1.4175 -0.8820  1.0103
  114OSM    C8S11805   3.406   2.138   6.832  0.2337 -0.4130 -0.2521
  114OSM    H8S11806   3.383   2.240   6.871  0.2598  0.5802 -2.6787
  114OSM    H8T11807   3.334   2.060   6.865  1.2048 -0.2784  2.5443
  114OSM    C9S11808   3.421   2.149   6.676  0.5948 -0.1599  0.2947
  114OSM    H9S11809   3.505   2.214   6.644  0.0457  0.6926  0.5390
  114OSM    H9T11810   3.331   2.206   6.646 -1.1212 -1.8419  2.0167
  114OSM   C10S11811   3.414   2.009   6.610 -0.1341 -0.2507  0.6873
  114OSM   H10S11812   3.317   1.955   6.620  0.2401 -0.9091  0.7457
  114OSM   H10T11813   3.489   1.946   6.661  2.4654  0.2887 -2.1655
  114OSM   C11S11814   3.454   2.011   6.469 -0.1925  0.6956  0.1214
  114OSM   H11S11815   3.460   1.908   6.427  0.5924  0.4422  0.8257
  114OSM   H11T11816   3.554   2.060   6.460 -1.3011  3.2568  0.7913
  114OSM   C12S11817   3.347   2.070   6.393  0.5032 -0.1370  0.0467
  114OSM   H12S11818   3.326   2.176   6.420 -2.3165 -0.4567 -0.5324
  114OSM   H12T11819   3.262   1.999   6.401  2.0157 -1.9949  0.4078
  114OSM   C13S11820   3.391   2.067   6.245  0.5360 -0.0534 -0.4420
  114OSM   H13S11821   3.496   2.105   6.244  1.4991 -2.5052  0.2762
  114OSM   H13T11822   3.327   2.147   6.201  1.3086  1.8452  1.6548
  114OSM   C14S11823   3.385   1.936   6.170  0.9330 -0.5367 -1.0460
  114OSM   H14S11824   3.283   1.893   6.178  1.3916 -1.3699  0.6744
  114OSM   H14T11825   3.451   1.856   6.210 -1.7720 -1.6045  1.6673
  114OSM   C15S11826   3.409   1.961   6.021  0.6007  0.1174 -0.4418
  114OSM   H15S11827   3.512   2.000   6.010 -0.0075  1.7214 -0.6857
  114OSM   H15T11828   3.341   2.040   5.981 -1.7588 -1.5119  0.1404
  114OSM   C16S11829   3.394   1.845   5.934  0.2225 -0.8457 -0.0742
  114OSM   H16S11830   3.475   1.777   5.968  0.3709 -0.4738  0.3250
  114OSM   H16T11831   3.412   1.865   5.826  3.6410 -1.7951  0.2115
  114OSM   C17S11832   3.249   1.790   5.952 -0.3292  0.1026 -0.0096
  114OSM   H17S11833   3.170   1.868   5.958  0.2936  0.9214 -1.8895
  114OSM   H17T11834   3.232   1.742   6.051 -3.1044  0.8095 -0.0720
  114OSM   C18S11835   3.208   1.703   5.828 -1.1089  0.4058 -0.5290
  114OSM   H18S11836   3.180   1.759   5.736 -0.6435  1.3727 -0.0856
  114OSM   H18T11837   3.127   1.635   5.863  0.0370 -1.2740 -0.9763
  114OSM   H18U11838   3.291   1.631   5.812 -3.4444 -2.3917 -0.8509
  114OSM    C1F11839   3.040   1.823   6.941  0.0700  0.0464  0.0027
  114OSM     OF11840   2.936   1.863   6.989  0.3197 -0.5636 -0.3625
  114OSM    C2F11841   3.042   1.787   6.796 -0.3486 -0.6517 -0.6615
  114OSM    H2F11842   3.096   1.692   6.777 -0.9465 -1.2092  0.3104
  114OSM    H2G11843   3.105   1.865   6.748  2.0514 -2.1312 -0.1076
  114OSM    C3F11844   2.903   1.776   6.730 -0.2152  0.3965  0.2341
  114OSM    H3F11845   2.856   1.875   6.715 -0.2985  0.1706 -1.0992
  114OSM    H3G11846   2.839   1.720   6.803 -2.5275  4.3246  1.4962
  114OSM    C4F11847   2.920   1.699   6.601 -0.7005 -0.2664 -0.0649
  114OSM    H4F11848   2.817   1.692   6.560 -0.8566 -0.4022  0.3398
  114OSM    H4G11849   2.962   1.599   6.626  2.8145  1.1535  0.3772
  114OSM    C5F11850   3.008   1.768   6.501  0.1193  0.4678 -0.7055
  114OSM    H5F11851   3.110   1.740   6.536 -0.3752 -2.4600 -1.3187
  114OSM    H5G11852   2.993   1.878   6.490 -0.1511  0.2784 -2.7095
  114OSM    C6F11853   3.008   1.715   6.360  0.5518 -0.2131  0.4758
  114OSM    H6F11854   3.048   1.612   6.352 -0.3385 -0.6948  1.9357
  114OSM    H6G11855   3.073   1.788   6.307 -0.9863  0.6562 -0.2722
  114OSM    C7F11856   2.862   1.726   6.301  0.5181  0.2161 -0.0111
  114OSM    H7F11857   2.828   1.828   6.331 -0.8699  0.0244 -0.8241
  114OSM    H7G11858   2.796   1.656   6.358 -0.4956  1.8457  0.9002
  114OSM    C8F11859   2.861   1.690   6.147  0.0479 -0.0965 -0.7186
  114OSM    H8F11860   2.843   1.581   6.146 -0.5099 -0.0654  1.3503
  114OSM    H8G11861   2.963   1.710   6.108  1.7483  1.1368  3.7611
  114OSM    C9F11862   2.767   1.768   6.061  0.0794 -0.0728  0.0801
  114OSM    H9F11863   2.704   1.844   6.109  1.0106  1.0417 -0.4083
  114OSM   C10F11864   2.748   1.757   5.927 -0.2931 -0.0419 -0.0986
  114OSM   H10F11865   2.675   1.819   5.873 -0.2489  1.8876  1.9343
  114OSM   C11F11866   2.823   1.663   5.837  0.2189  0.1513 -0.3999
  114OSM   H11F11867   2.859   1.576   5.897 -1.5654  0.5656  1.3465
  114OSM   H11G11868   2.912   1.720   5.802  1.0292 -0.9023 -0.0967
  114OSM   C12F11869   2.736   1.605   5.724  0.1219 -0.6871  0.1337
  114OSM   H12F11870   2.695   1.677   5.650  1.1555 -1.9847 -1.7897
  114OSM   H12G11871   2.646   1.561   5.772  1.8574 -2.4901  1.9316
  114OSM   C13F11872   2.809   1.503   5.642  0.1613 -0.3998  0.2585
  114OSM   H13F11873   2.729   1.460   5.578  0.8732 -1.9051  0.3485
  114OSM   H13G11874   2.847   1.432   5.718  3.4084  1.5839  0.6742
  114OSM   C14F11875   2.931   1.551   5.554 -0.5366  0.0661 -0.4879
  114OSM   H14F11876   3.011   1.597   5.617  1.6994  0.0503 -3.1199
  114OSM   H14G11877   2.894   1.624   5.479 -2.7919  1.2800  1.6495
  114OSM   C15F11878   2.977   1.430   5.478  0.2056  0.5777  0.1057
  114OSM   H15F11879   2.915   1.403   5.390  0.9528  0.5528 -0.4226
  114OSM   H15G11880   2.960   1.347   5.551 -0.7117  1.6680  1.1747
  114OSM   C16F11881   3.119   1.445   5.425  0.0055  0.4396  0.5122
  114OSM   H16F11882   3.186   1.451   5.513  0.4447  2.2122  0.0941
  114OSM   H16G11883   3.127   1.534   5.359 -1.7727 -0.9086 -1.6998
  114OSM   C17F11884   3.161   1.315   5.351 -0.2721 -0.3723 -0.8179
  114OSM   H17F11885   3.144   1.221   5.408  0.3229 -1.2101 -1.9564
  114OSM   H17G11886   3.271   1.323   5.340 -0.1751 -1.0935 -0.4032
  114OSM   C18F11887   3.100   1.286   5.217 -0.0125  0.0950  0.1598
  114OSM   H18F11888   3.135   1.360   5.141  0.7128 -2.8305 -2.5955
  114OSM   H18G11889   2.989   1.288   5.223  0.0822  0.9118  4.0702
  114OSM   H18H11890   3.146   1.198   5.167  1.3198  1.3025 -0.8404
  115OSM      N11891   6.341   4.136   8.084  1.1123 -0.3218 -0.3082
  115OSM    C1511892   6.203   4.091   8.034  0.5138 -0.2626  0.2556
  115OSM   H15A11893   6.172   4.006   8.093 -0.0016 -0.9992 -1.0265
  115OSM   H15B11894   6.199   4.049   7.935  0.6047  1.6827 -0.6163
  115OSM   H15C11895   6.123   4.163   8.038  0.1743 -0.6530  0.5737
  115OSM    C1411896   6.312   4.245   8.182  0.0908  0.4585 -0.3632
  115OSM   H14A11897   6.238   4.311   8.139 -0.8879 -0.2738  0.1493
  115OSM   H14B11898   6.396   4.306   8.211 -0.5705  1.3422 -0.2543
  115OSM   H14C11899   6.285   4.195   8.274 -0.1027  0.0952 -0.6150
  115OSM    C1311900   6.406   4.025   8.149  0.0762 -0.1670 -0.3231
  115OSM   H13A11901   6.442   3.954   8.077 -1.6794 -1.8063  0.3343
  115OSM   H13B11902   6.350   3.969   8.223  0.5583 -1.5279 -0.9572
  115OSM   H13C11903   6.489   4.050   8.213 -0.4380  2.0950 -0.4460
  115OSM    C1211904   6.418   4.185   7.972 -0.3358 -0.2193 -0.6087
  115OSM   H12A11905   6.521   4.205   7.998 -1.2956  1.3252  2.4748
  115OSM   H12B11906   6.383   4.282   7.941 -0.8152 -0.3141 -0.3683
  115OSM    C1111907   6.422   4.096   7.849 -0.0379 -0.5657  0.6464
  115OSM   H11A11908   6.436   4.163   7.761  0.6961  0.7045  1.6949
  115OSM   H11B11909   6.323   4.050   7.828 -0.3336 -0.3716  1.5741
  115OSM      P11910   6.671   4.017   7.873 -0.1291 -0.3078 -0.1627
  115OSM    O1311911   6.690   4.083   8.005 -0.1777  0.3944  0.1756
  115OSM    O1411912   6.750   3.894   7.848 -0.0944 -0.4447  0.0004
  115OSM    O1111913   6.692   4.123   7.758  0.6821  0.2586  0.7116
  115OSM    O1211914   6.515   3.985   7.854  0.2978 -0.1879 -0.0301
  115OSM    C1S11915   6.683   4.081   7.620  0.6437  0.0161  0.3861
  115OSM    H1S11916   6.587   4.111   7.573  1.6576  0.1387 -1.7534
  115OSM    H1T11917   6.707   3.974   7.601 -0.0568 -0.1337  0.3389
  115OSM     NF11918   6.785   4.080   7.396 -0.1959  0.0263  0.2704
  115OSM    HNF11919   6.868   4.025   7.385  0.3986  0.7178  1.1340
  115OSM    C2S11920   6.786   4.153   7.521 -1.3912  0.2215 -0.3823
  115OSM    H2S11921   6.746   4.257   7.512  2.2600  2.0138  1.8036
  115OSM    C3S11922   6.927   4.178   7.589  0.3332 -0.2758 -0.6735
  115OSM    H3S11923   6.978   4.083   7.618  1.0059  0.4347  0.5987
  115OSM     O311924   6.925   4.257   7.707  0.0372 -0.4190 -0.3703
  115OSM    HO311925   6.835   4.251   7.740  0.4079  0.8099  1.0136
  115OSM    C4S11926   7.019   4.237   7.483 -0.9902  0.4549 -0.1092
  115OSM    H4S11927   7.081   4.165   7.426  1.0581  0.7007  1.6913
  115OSM    C5S11928   7.036   4.373   7.458 -0.7437  0.6271  0.9340
  115OSM    H5S11929   6.966   4.442   7.507 -1.8728 -0.8623  1.4971
  115OSM    C6S11930   7.106   4.430   7.331  0.0670  0.2610 -0.7643
  115OSM    H6S11931   7.214   4.440   7.353  0.2522 -2.3577 -0.1556
  115OSM    H6T11932   7.053   4.520   7.294 -1.1632 -0.4191 -0.7105
  115OSM    C7S11933   7.087   4.338   7.217 -0.3982 -0.1324  1.1853
  115OSM    H7S11934   6.976   4.333   7.206 -0.2082 -1.8398 -0.3377
  115OSM    H7T11935   7.119   4.234   7.238  1.1455 -0.4416 -2.0933
  115OSM    C8S11936   7.144   4.368   7.077  0.1792 -0.0582  0.2977
  115OSM    H8S11937   7.255   4.366   7.082  0.1421  1.1212  2.9869
  115OSM    H8T11938   7.116   4.469   7.040  1.7824  0.6497  0.9369
  115OSM    C9S11939   7.097   4.259   6.967 -0.0120  0.6820 -0.7638
  115OSM    H9S11940   6.987   4.259   6.951  0.0985 -0.1581 -1.6176
  115OSM    H9T11941   7.125   4.163   7.014 -3.0928  0.5389  1.0980
  115OSM   C10S11942   7.173   4.268   6.829  0.3066 -0.2770 -0.4176
  115OSM   H10S11943   7.242   4.182   6.821 -0.5946 -0.9178 -1.7903
  115OSM   H10T11944   7.232   4.362   6.819  1.4180 -1.1420 -2.6118
  115OSM   C11S11945   7.081   4.273   6.707 -0.8722  0.0622 -0.6171
  115OSM   H11S11946   7.026   4.369   6.714  1.4981  1.4076  3.8592
  115OSM   H11T11947   7.015   4.184   6.700 -0.2831 -0.3738 -0.6652
  115OSM   C12S11948   7.153   4.284   6.573  0.1098  0.1211  0.0003
  115OSM   H12S11949   7.225   4.200   6.563  2.3931  1.9538  0.1983
  115OSM   H12T11950   7.217   4.375   6.561  1.2881 -0.4860  1.3468
  115OSM   C13S11951   7.052   4.276   6.462 -0.2848  0.3572 -0.3286
  115OSM   H13S11952   6.980   4.360   6.478  1.0457  1.6757 -0.9802
  115OSM   H13T11953   7.009   4.174   6.464  1.7907 -0.5747 -0.4953
  115OSM   C14S11954   7.107   4.322   6.326 -0.1925  0.0798  0.5891
  115OSM   H14S11955   7.182   4.245   6.299  0.4906  0.1841  2.1176
  115OSM   H14T11956   7.156   4.421   6.335 -0.0494  0.5468 -3.6383
  115OSM   C15S11957   7.010   4.340   6.204 -0.1700  0.5718  0.1149
  115OSM   H15S11958   7.058   4.405   6.128 -2.0838 -1.2060 -2.8187
  115OSM   H15T11959   6.916   4.395   6.224 -1.9528 -2.0055 -0.7321
  115OSM   C16S11960   6.961   4.202   6.144  0.0542 -0.0837 -0.0212
  115OSM   H16S11961   6.881   4.147   6.197  1.4899 -1.9762  0.2850
  115OSM   H16T11962   7.045   4.129   6.140  0.1977 -0.0660  1.8640
  115OSM   C17S11963   6.922   4.224   5.996  0.6736  0.5461 -0.4790
  115OSM   H17S11964   6.887   4.128   5.953 -2.4508  1.9222 -1.3057
  115OSM   H17T11965   7.006   4.266   5.936  1.4583  0.6508  0.6624
  115OSM   C18S11966   6.800   4.311   5.975 -0.6427 -0.1315  0.1248
  115OSM   H18S11967   6.717   4.280   6.043 -0.1978  1.1443  1.2854
  115OSM   H18T11968   6.764   4.294   5.871 -1.2378  1.1587  0.1023
  115OSM   H18U11969   6.825   4.416   6.001 -1.8063  0.2695 -0.3146
  115OSM    C1F11970   6.699   4.084   7.294 -0.6561 -0.8521 -0.8351
  115OSM     OF11971   6.585   4.136   7.307 -0.5068  0.2587  0.3868
  115OSM    C2F11972   6.751   4.026   7.168 -0.4380 -0.2142  0.5212
  115OSM    H2F11973   6.750   3.915   7.176 -0.0315 -0.3719 -1.3397
  115OSM    H2G11974   6.856   4.058   7.151 -0.8004 -0.3224 -2.3837
  115OSM    C3F11975   6.673   4.085   7.049  0.4042  0.5122 -0.5427
  115OSM    H3F11976   6.670   4.192   7.078  0.9407  1.6004 -4.0773
  115OSM    H3G11977   6.574   4.034   7.054  2.0625 -2.9185  1.0715
  115OSM    C4F11978   6.731   4.049   6.910  1.0782 -0.5717 -0.6531
  115OSM    H4F11979   6.773   3.947   6.897  0.7963 -0.8626  0.6482
  115OSM    H4G11980   6.820   4.113   6.891  0.6930  0.0001 -0.5868
  115OSM    C5F11981   6.624   4.064   6.807  0.3888 -0.4841 -0.7064
  115OSM    H5F11982   6.561   4.152   6.830 -0.2123 -0.6843 -1.5725
  115OSM    H5G11983   6.556   3.977   6.799  1.3224 -1.4174  0.8405
  115OSM    C6F11984   6.679   4.073   6.666  0.2000 -0.5790  0.5913
  115OSM    H6F11985   6.752   3.989   6.661 -0.4714 -1.1019 -0.9083
  115OSM    H6G11986   6.754   4.156   6.665  0.3821 -0.7188 -1.4767
  115OSM    C7F11987   6.566   4.092   6.557 -0.2544  0.2338 -0.2852
  115OSM    H7F11988   6.479   4.150   6.595  0.5436  0.2605  1.6263
  115OSM    H7G11989   6.532   3.991   6.527  1.5609 -0.7759  0.8798
  115OSM    C8F11990   6.614   4.145   6.425 -0.5983 -0.7268  0.6274
  115OSM    H8F11991   6.676   4.228   6.465 -1.2441 -1.2240  2.8225
  115OSM    H8G11992   6.537   4.198   6.365  1.2735  0.8092 -0.5452
  115OSM    C9F11993   6.692   4.046   6.349  0.2696 -0.3412 -0.0456
  115OSM    H9F11994   6.793   4.023   6.386 -1.1796 -3.1775  2.5990
  115OSM   C10F11995   6.662   3.980   6.236  0.2864 -0.3389  0.6114
  115OSM   H10F11996   6.738   3.915   6.191 -1.5323 -0.9338 -1.8023
  115OSM   C11F11997   6.533   3.993   6.155  0.0174 -0.4104  0.6475
  115OSM   H11F11998   6.497   4.097   6.170  1.3935  0.3987 -1.2278
  115OSM   H11G11999   6.455   3.935   6.209 -2.2204  1.4104 -0.4354
  115OSM   C12F12000   6.534   3.946   6.012  0.3873  0.1406  0.3367
  115OSM   H12F12001   6.434   3.951   5.964  1.0765  2.5060 -0.9935
  115OSM   H12G12002   6.582   3.847   5.998 -1.9183 -0.8070 -1.4864
  115OSM   C13F12003   6.614   4.037   5.911 -0.3582 -0.4884  0.8434
  115OSM   H13F12004   6.708   4.057   5.967 -0.4847 -0.3041  0.9932
  115OSM   H13G12005   6.559   4.133   5.899  1.2896  0.2575 -1.4468
  115OSM   C14F12006   6.628   3.968   5.776 -0.8745 -0.9108  0.3138
  115OSM   H14F12007   6.538   3.939   5.718 -0.5779 -1.8558  0.3014
  115OSM   H14G12008   6.683   3.873   5.795 -2.3007 -1.4517  1.9437
  115OSM   C15F12009   6.715   4.043   5.675  0.3803  0.6559 -0.0023
  115OSM   H15F12010   6.812   4.065   5.725  1.0217  0.0913 -0.9713
  115OSM   H15G12011   6.667   4.139   5.647 -0.4730 -0.4629 -2.7583
  115OSM   C16F12012   6.728   3.964   5.547 -0.2413 -0.4797  0.3510
  115OSM   H16F12013   6.627   3.944   5.503 -0.1929 -0.0183  0.0270
  115OSM   H16G12014   6.778   3.869   5.577  2.0289  0.6169  0.2066
  115OSM   C17F12015   6.808   4.026   5.435  0.1538  0.0063 -0.3225
  115OSM   H17F12016   6.909   4.046   5.477 -0.7156  0.8582  1.5121
  115OSM   H17G12017   6.756   4.119   5.403 -0.3195 -0.0903  0.1477
  115OSM   C18F12018   6.827   3.929   5.321  0.6326  0.4407  0.1945
  115OSM   H18F12019   6.933   3.924   5.288  1.1494 -2.2821  1.9116
  115OSM   H18G12020   6.762   3.969   5.241 -0.4930 -0.0509  0.8464
  115OSM   H18H12021   6.799   3.824   5.345 -1.6946 -0.1513 -4.1566
  116OSM      N12022   3.066   1.935   7.853 -0.2784  0.1230 -0.3262
  116OSM    C1512023   2.918   1.976   7.864 -0.5789  0.0367 -0.6919
  116OSM   H15A12024   2.858   1.898   7.908  0.4861 -0.8455 -0.7384
  116OSM   H15B12025   2.882   2.000   7.765 -0.6746  0.7139 -0.4962
  116OSM   H15C12026   2.905   2.067   7.921  2.4479  0.7624 -0.9615
  116OSM    C1412027   3.120   1.959   7.993 -0.3010  0.0349 -0.3014
  116OSM   H14A12028   3.221   1.922   8.000  0.1906  1.5699  1.5061
  116OSM   H14B12029   3.052   1.906   8.059 -2.1502  0.8147 -1.4998
  116OSM   H14C12030   3.124   2.065   8.011  0.4052  0.4064 -2.3967
  116OSM    C1312031   3.081   1.789   7.826  0.2010  0.4081  0.4869
  116OSM   H13A12032   3.053   1.718   7.902 -1.0220 -1.0607 -1.2492
  116OSM   H13B12033   3.184   1.767   7.801  0.6467  0.5559  2.0728
  116OSM   H13C12034   3.021   1.772   7.738  3.3390  0.3235 -1.8293
  116OSM    C1212035   3.145   2.011   7.746 -0.2819 -0.1128 -0.1449
  116OSM   H12A12036   3.242   1.963   7.746 -0.4898 -0.5483  0.7169
  116OSM   H12B12037   3.159   2.114   7.775  0.4161  0.2294 -1.6094
  116OSM    C1112038   3.104   2.008   7.604  0.3231  0.0650  0.1779
  116OSM   H11A12039   3.092   1.906   7.562  1.3870 -1.1672  2.6472
  116OSM   H11B12040   3.184   2.043   7.536 -1.3536 -0.2094 -2.0399
  116OSM      P12041   2.979   2.236   7.553 -0.0025  0.2032  0.3592
  116OSM    O1312042   2.842   2.285   7.588  0.3936  0.2130 -1.2415
  116OSM    O1412043   3.096   2.300   7.620 -0.0646  0.0002  0.5778
  116OSM    O1112044   2.986   2.246   7.396 -0.1250 -0.0858 -0.0162
  116OSM    O1212045   2.978   2.081   7.594 -0.6689  0.4541  0.2956
  116OSM    C1S12046   2.904   2.144   7.328  0.3746 -0.0453  0.5881
  116OSM    H1S12047   2.800   2.138   7.366  0.1008 -0.9753 -0.2488
  116OSM    H1T12048   2.944   2.040   7.335  3.0152  0.7545 -0.9443
  116OSM     NF12049   2.796   2.056   7.108  1.5981 -0.3051  0.0451
  116OSM    HNF12050   2.841   2.003   7.037  0.4390  0.7717 -1.5746
  116OSM    C2S12051   2.879   2.163   7.166  0.1621  0.3899 -0.9482
  116OSM    H2S12052   2.819   2.257   7.163 -2.6503 -1.1854  1.1236
  116OSM    C3S12053   3.010   2.192   7.088 -0.0559 -0.2311 -0.0135
  116OSM    H3S12054   3.045   2.090   7.063 -0.8091 -0.2038 -1.2408
  116OSM     O312055   3.106   2.262   7.166 -0.1262 -0.0531  0.2019
  116OSM    HO312056   3.081   2.254   7.259  0.8765  1.0461  0.6003
  116OSM    C4S12057   2.990   2.264   6.959 -0.1063  0.6028  1.0474
  116OSM    H4S12058   2.963   2.201   6.872 -0.1536  0.3525  1.2427
  116OSM    C5S12059   2.994   2.399   6.934  0.5626  0.1912  0.7634
  116OSM    H5S12060   3.007   2.468   7.018 -0.4874  1.0937  0.2002
  116OSM    C6S12061   2.984   2.467   6.801 -0.4529 -0.5460 -0.0076
  116OSM    H6S12062   3.072   2.534   6.798 -0.6273 -0.3490 -1.0931
  116OSM    H6T12063   2.901   2.541   6.802  0.4406  0.5193 -1.3362
  116OSM    C7S12064   2.960   2.399   6.666 -0.5104  0.4615  0.5799
  116OSM    H7S12065   2.931   2.464   6.580 -1.1666 -0.6349 -0.0490
  116OSM    H7T12066   2.875   2.332   6.691 -0.5844 -0.1489 -1.1676
  116OSM    C8S12067   3.078   2.313   6.617  0.5875  0.0669  0.0336
  116OSM    H8S12068   3.125   2.256   6.700  0.7758  0.7658  0.4174
  116OSM    H8T12069   3.167   2.368   6.578  1.9199 -1.5893  0.6460
  116OSM    C9S12070   3.032   2.209   6.513 -0.3591 -0.8773  0.6661
  116OSM    H9S12071   2.923   2.189   6.507 -0.0325 -2.2742 -1.5143
  116OSM    H9T12072   3.088   2.114   6.527 -2.6688 -2.7306 -1.6706
  116OSM   C10S12073   3.071   2.256   6.365 -0.3084 -0.6399 -0.0056
  116OSM   H10S12074   3.178   2.286   6.367 -0.4110 -0.2865  2.3631
  116OSM   H10T12075   3.000   2.341   6.359 -1.2844 -1.4337 -0.0596
  116OSM   C11S12076   3.035   2.147   6.262  0.4707 -0.5004  0.7786
  116OSM   H11S12077   2.941   2.094   6.289 -2.1911  2.4970 -1.7342
  116OSM   H11T12078   3.113   2.069   6.276  0.6992 -0.7337 -1.4943
  116OSM   C12S12079   3.025   2.198   6.116 -0.0406  0.0475  0.7255
  116OSM   H12S12080   3.119   2.246   6.082  1.2356 -0.7864  2.8557
  116OSM   H12T12081   2.950   2.280   6.124 -0.1664  0.3095 -2.1464
  116OSM   C13S12082   2.980   2.090   6.024  0.4092 -0.0999  0.0086
  116OSM   H13S12083   2.875   2.062   6.049  1.2064 -1.0549  2.6191
  116OSM   H13T12084   3.040   2.000   6.047 -2.4767 -1.7263  1.7388
  116OSM   C14S12085   2.988   2.119   5.878 -0.3752 -0.6978 -0.4308
  116OSM   H14S12086   3.092   2.152   5.853 -0.3652 -0.4700 -0.0966
  116OSM   H14T12087   2.931   2.213   5.861  1.7713  1.0111  1.1568
  116OSM   C15S12088   2.943   2.007   5.783  0.1312 -0.3601  0.3785
  116OSM   H15S12089   2.842   1.968   5.807  0.1711 -1.0921 -0.6088
  116OSM   H15T12090   3.013   1.923   5.804  0.6305 -0.3017 -0.9493
  116OSM   C16S12091   2.957   2.055   5.632 -0.1182 -0.1145 -0.2469
  116OSM   H16S12092   3.065   2.073   5.618  0.1877  1.1638  3.0343
  116OSM   H16T12093   2.906   2.152   5.614  0.5448  0.3553  0.3898
  116OSM   C17S12094   2.920   1.958   5.521 -0.0577 -0.0783 -0.4721
  116OSM   H17S12095   2.820   1.928   5.557 -0.5242  0.2262 -1.4818
  116OSM   H17T12096   2.990   1.872   5.524  0.8473  0.6699  1.2582
  116OSM   C18S12097   2.904   2.024   5.383  0.1029 -0.3126  0.0041
  116OSM   H18S12098   2.844   2.115   5.407 -0.3377 -0.8425  1.0147
  116OSM   H18T12099   2.846   1.949   5.326 -0.4986 -0.9079  1.3440
  116OSM   H18U12100   3.004   2.047   5.340 -0.0682  1.2171  0.3398
  116OSM    C1F12101   2.667   2.044   7.152  0.5371  0.2958 -0.1023
  116OSM     OF12102   2.601   2.128   7.219 -0.1892 -0.4827  0.0359
  116OSM    C2F12103   2.604   1.907   7.116 -0.6225  0.1957 -0.3958
  116OSM    H2F12104   2.636   1.847   7.204  0.3698  2.4144  0.8430
  116OSM    H2G12105   2.654   1.862   7.027  1.8430 -3.2007  2.4110
  116OSM    C3F12106   2.452   1.918   7.097  0.0251  0.7917  0.2567
  116OSM    H3F12107   2.426   2.014   7.046 -0.1546  0.5936 -0.0254
  116OSM    H3G12108   2.394   1.912   7.192 -1.9889 -1.1737 -0.9962
  116OSM    C4F12109   2.395   1.784   7.036  0.2222  0.0288 -0.1349
  116OSM    H4F12110   2.285   1.782   7.047  0.0308 -1.9357 -1.7759
  116OSM    H4G12111   2.443   1.694   7.080 -0.1116  0.2439  0.6839
  116OSM    C5F12112   2.423   1.801   6.886 -0.9406  0.3893 -0.1290
  116OSM    H5F12113   2.512   1.865   6.869  0.3409 -0.8902  1.5074
  116OSM    H5G12114   2.336   1.854   6.839  0.5312  1.6018 -1.6193
  116OSM    C6F12115   2.449   1.673   6.799  0.1417 -0.2299 -0.5611
  116OSM    H6F12116   2.362   1.604   6.804 -0.4805  0.4652 -1.5207
  116OSM    H6G12117   2.545   1.625   6.828 -0.3151 -0.4801  0.6323
  116OSM    C7F12118   2.451   1.726   6.648  0.2192  0.2577 -0.1349
  116OSM    H7F12119   2.548   1.777   6.635  1.4270 -1.3015  2.0182
  116OSM    H7G12120   2.369   1.799   6.630 -0.6479 -0.5352  0.4906
  116OSM    C8F12121   2.436   1.601   6.552  0.3053 -0.2554  0.2760
  116OSM    H8F12122   2.434   1.654   6.454  0.3676 -1.0814 -0.1883
  116OSM    H8G12123   2.331   1.565   6.560  0.3782 -0.5270  0.0374
  116OSM    C9F12124   2.536   1.486   6.563  0.7211 -0.1421  0.3337
  116OSM    H9F12125   2.569   1.465   6.666 -1.8033 -0.3986  1.1505
  116OSM   C10F12126   2.615   1.432   6.472 -0.0839  0.9102 -0.0489
  116OSM   H10F12127   2.678   1.346   6.499 -1.0611  0.2283  0.1093
  116OSM   C11F12128   2.610   1.463   6.324 -0.7251  0.5530 -0.2085
  116OSM   H11F12129   2.714   1.465   6.284 -0.8964 -0.5136 -0.7515
  116OSM   H11G12130   2.569   1.566   6.319 -0.4555  0.6123 -3.3328
  116OSM   C12F12131   2.530   1.366   6.240 -0.2714  0.3111  0.6750
  116OSM   H12F12132   2.419   1.375   6.243 -0.2833  0.1476  0.7597
  116OSM   H12G12133   2.545   1.265   6.285 -2.4483  0.4108  1.7608
  116OSM   C13F12134   2.583   1.359   6.102  0.3210 -0.3675 -0.3222
  116OSM   H13F12135   2.694   1.367   6.102  0.2906  0.0855 -0.3373
  116OSM   H13G12136   2.530   1.440   6.048  0.4944  0.1877  0.3316
  116OSM   C14F12137   2.543   1.232   6.031 -0.3026  0.9197 -0.1356
  116OSM   H14F12138   2.437   1.208   6.054 -0.1751 -1.1070 -1.3791
  116OSM   H14G12139   2.602   1.146   6.070 -0.1426  1.2415  0.3339
  116OSM   C15F12140   2.557   1.233   5.874  0.0347  0.2329 -0.3223
  116OSM   H15F12141   2.661   1.259   5.847 -0.1368  2.7820  1.0809
  116OSM   H15G12142   2.485   1.309   5.837  0.3386  0.1836 -1.0249
  116OSM   C16F12143   2.521   1.088   5.838  0.2975  0.5945 -0.0250
  116OSM   H16F12144   2.449   1.045   5.910  2.2691  0.6647  2.0855
  116OSM   H16G12145   2.612   1.024   5.849  0.0636  0.6283  2.5247
  116OSM   C17F12146   2.464   1.077   5.692  0.3224 -0.1683 -1.1206
  116OSM   H17F12147   2.557   1.072   5.632 -0.7719  1.2195 -3.0570
  116OSM   H17G12148   2.401   1.164   5.665 -0.2578 -0.3135 -0.2557
  116OSM   C18F12149   2.388   0.953   5.656  0.5127  0.6719 -0.6263
  116OSM   H18F12150   2.318   0.927   5.739  0.0243 -2.8355 -1.9698
  116OSM   H18G12151   2.453   0.864   5.646 -0.2959  0.0361 -0.3296
  116OSM   H18H12152   2.337   0.960   5.558 -0.3628 -1.4794 -0.3693
  117OSM      N12153   4.034   3.719   7.827 -0.7471 -0.0158  0.0132
  117OSM    C1512154   3.985   3.792   7.936 -0.4909  0.1263 -0.5781
  117OSM   H15A12155   4.047   3.784   8.024 -0.7908 -1.6570 -0.4825
  117OSM   H15B12156   3.887   3.760   7.969  0.2511 -0.4664  1.1910
  117OSM   H15C12157   3.960   3.888   7.894 -0.4796 -0.1604 -1.2504
  117OSM    C1412158   4.181   3.764   7.812 -0.0152 -0.4464 -0.5667
  117OSM   H14A12159   4.228   3.718   7.726  1.9038 -1.9744  1.1884
  117OSM   H14B12160   4.232   3.735   7.903  1.4242  3.0056 -0.1177
  117OSM   H14C12161   4.185   3.872   7.809  1.0261 -0.4764 -0.6879
  117OSM    C1312162   4.039   3.571   7.859 -0.1754  0.3430 -0.1638
  117OSM   H13A12163   3.940   3.535   7.881 -0.5383  0.9135 -0.8096
  117OSM   H13B12164   4.104   3.554   7.943 -0.0136  1.1072 -0.1224
  117OSM   H13C12165   4.089   3.523   7.776  1.8706  0.3964  0.9789
  117OSM    C1212166   3.958   3.752   7.701  0.4981 -0.3334  0.1278
  117OSM   H12A12167   3.858   3.715   7.712 -0.2031  1.2247 -0.6802
  117OSM   H12B12168   3.997   3.702   7.614 -0.1020 -1.7504  0.6475
  117OSM    C1112169   3.948   3.902   7.659  0.5826  0.8551 -0.8609
  117OSM   H11A12170   3.937   3.924   7.550  0.4403  0.7529 -0.8686
  117OSM   H11B12171   4.048   3.937   7.691 -0.0033  1.0432  0.8615
  117OSM      P12172   3.695   3.916   7.716  0.1100 -0.0529 -0.1091
  117OSM    O1312173   3.680   3.769   7.711  0.5845  0.4062 -0.1495
  117OSM    O1412174   3.611   3.997   7.811 -0.9088 -0.1756 -0.0353
  117OSM    O1112175   3.657   3.965   7.575 -0.3009  0.1546 -0.5950
  117OSM    O1212176   3.845   3.962   7.738  0.0371  0.0998 -0.1232
  117OSM    C1S12177   3.658   4.096   7.527  0.2182 -0.8193  0.6331
  117OSM    H1S12178   3.743   4.152   7.570 -0.1778 -0.4483  0.9492
  117OSM    H1T12179   3.566   4.149   7.560 -0.7678 -0.8747 -1.7960
  117OSM     NF12180   3.674   4.250   7.336 -0.0352  0.2782  0.1646
  117OSM    HNF12181   3.604   4.297   7.281  2.1837  1.7611 -1.5721
  117OSM    C2S12182   3.663   4.107   7.370  0.5231  0.1581  0.2201
  117OSM    H2S12183   3.755   4.055   7.334  0.3065 -0.5510  0.6632
  117OSM    C3S12184   3.552   4.030   7.295  0.3893  0.2106  0.5303
  117OSM    H3S12185   3.454   4.074   7.320  0.8206  0.9471  0.9574
  117OSM     O312186   3.543   3.887   7.331  0.5445  0.1515 -0.2209
  117OSM    HO312187   3.597   3.867   7.408  0.0425 -0.9789 -0.1394
  117OSM    C4S12188   3.560   4.063   7.138  0.1823  0.0637 -0.4605
  117OSM    H4S12189   3.552   4.170   7.115  0.6968  0.6132  1.6261
  117OSM    C5S12190   3.610   3.977   7.049 -0.3975  0.1454  0.7048
  117OSM    H5S12191   3.653   3.883   7.087  0.5992 -0.2303 -1.2683
  117OSM    C6S12192   3.631   3.999   6.906 -0.0357 -0.2850  0.1655
  117OSM    H6S12193   3.561   3.936   6.848  0.1571  0.4826 -0.9336
  117OSM    H6T12194   3.736   3.967   6.887 -0.1077 -0.8321  0.6539
  117OSM    C7S12195   3.608   4.139   6.841 -0.0382  0.5497 -0.7191
  117OSM    H7S12196   3.687   4.202   6.889 -0.1223 -1.4412  2.2964
  117OSM    H7T12197   3.511   4.175   6.880 -0.6441 -1.8111  0.1066
  117OSM    C8S12198   3.613   4.133   6.690 -0.3344  0.1214  0.0070
  117OSM    H8S12199   3.549   4.047   6.660  1.2250 -1.1518  0.1930
  117OSM    H8T12200   3.720   4.110   6.671  0.4488  2.1253  1.6828
  117OSM    C9S12201   3.559   4.258   6.631 -0.2524  0.0405  0.3453
  117OSM    H9S12202   3.582   4.343   6.699 -3.1194 -0.4704  2.0716
  117OSM    H9T12203   3.449   4.261   6.643 -0.1983  0.9888  0.7045
  117OSM   C10S12204   3.613   4.285   6.488  0.1043  0.4856 -0.8872
  117OSM   H10S12205   3.715   4.242   6.484  0.0093  0.0860  0.6343
  117OSM   H10T12206   3.607   4.395   6.478  2.0381  1.3408  4.5160
  117OSM   C11S12207   3.525   4.213   6.378 -0.0717 -0.2049 -0.3244
  117OSM   H11S12208   3.425   4.261   6.373 -0.5143 -1.0259  0.2528
  117OSM   H11T12209   3.502   4.108   6.409 -1.7066 -0.4218 -2.0109
  117OSM   C12S12210   3.595   4.221   6.245  0.1150 -0.1711  0.6898
  117OSM   H12S12211   3.692   4.166   6.245  0.3666  0.2679  0.2560
  117OSM   H12T12212   3.615   4.325   6.212  1.5140 -0.9478 -1.0251
  117OSM   C13S12213   3.511   4.154   6.141 -0.0599  0.7241 -0.1371
  117OSM   H13S12214   3.406   4.184   6.163 -0.2955  0.0436 -0.3277
  117OSM   H13T12215   3.509   4.044   6.153 -1.5493  0.8540  1.0645
  117OSM   C14S12216   3.557   4.189   6.004 -0.0277  0.0301  0.3127
  117OSM   H14S12217   3.666   4.164   6.004  0.3002  1.0840 -2.4570
  117OSM   H14T12218   3.556   4.298   5.986  0.1882  0.0579  0.4668
  117OSM   C15S12219   3.470   4.127   5.886 -0.4881 -0.5595 -0.6988
  117OSM   H15S12220   3.366   4.142   5.921  0.0779  0.8665  0.4971
  117OSM   H15T12221   3.487   4.018   5.876 -0.0309 -0.5121 -0.4802
  117OSM   C16S12222   3.487   4.190   5.744 -0.1414  0.7576  0.3906
  117OSM   H16S12223   3.592   4.211   5.714  0.9530 -2.6649  1.3773
  117OSM   H16T12224   3.449   4.295   5.747  0.1156  0.8817 -0.3751
  117OSM   C17S12225   3.417   4.111   5.631  0.4270 -0.4846 -0.1174
  117OSM   H17S12226   3.307   4.106   5.642  0.4133 -0.1456 -0.1168
  117OSM   H17T12227   3.455   4.006   5.636  0.0321 -0.6463 -0.4899
  117OSM   C18S12228   3.456   4.162   5.496  0.0759  0.3118 -0.6124
  117OSM   H18S12229   3.434   4.270   5.485  0.6652  0.3239 -1.9224
  117OSM   H18T12230   3.402   4.108   5.415 -0.4300  1.8336 -1.3162
  117OSM   H18U12231   3.566   4.145   5.494  0.2170  1.1272 -0.2715
  117OSM    C1F12232   3.781   4.319   7.369 -0.1110 -1.0042 -0.2761
  117OSM     OF12233   3.890   4.268   7.382  0.0512 -0.1673  0.1996
  117OSM    C2F12234   3.756   4.470   7.383 -0.3705 -0.5785  0.3306
  117OSM    H2F12235   3.754   4.483   7.493 -1.3541 -0.3318  0.2894
  117OSM    H2G12236   3.652   4.498   7.355 -0.1507  4.4954  3.2711
  117OSM    C3F12237   3.857   4.548   7.297  0.4116 -0.3440  0.7084
  117OSM    H3F12238   3.955   4.537   7.347  1.1167  0.2266 -0.5155
  117OSM    H3G12239   3.825   4.654   7.286  1.1106 -0.1895  0.1401
  117OSM    C4F12240   3.886   4.508   7.152 -0.4013 -0.4411  0.8011
  117OSM    H4F12241   3.932   4.407   7.149  2.5069  0.7680  1.6251
  117OSM    H4G12242   3.970   4.570   7.115 -0.2885 -0.9274  0.2339
  117OSM    C5F12243   3.771   4.517   7.050  0.0466  0.3663  1.1847
  117OSM    H5F12244   3.744   4.624   7.054  2.4662  1.1149 -0.2628
  117OSM    H5G12245   3.685   4.459   7.090  1.0760 -1.0359  1.4646
  117OSM    C6F12246   3.803   4.470   6.903 -0.7548 -0.0454  0.2275
  117OSM    H6F12247   3.708   4.481   6.847 -0.3672 -1.0008 -0.6503
  117OSM    H6G12248   3.820   4.360   6.913  3.3336  0.5424  1.5829
  117OSM    C7F12249   3.925   4.537   6.839 -0.8483  0.1107  0.1307
  117OSM    H7F12250   4.021   4.502   6.883 -1.4623  0.3777  1.7857
  117OSM    H7G12251   3.917   4.645   6.864  1.7219  1.2009 -3.1491
  117OSM    C8F12252   3.921   4.532   6.686 -0.4798  0.3415  0.0822
  117OSM    H8F12253   4.006   4.592   6.645  0.7188 -0.2439  1.5880
  117OSM    H8G12254   3.826   4.572   6.644 -0.8787 -0.9907 -0.3334
  117OSM    C9F12255   3.935   4.391   6.629 -0.0044  0.3861 -0.2538
  117OSM    H9F12256   3.901   4.318   6.704  0.0183  1.9965  1.3914
  117OSM   C10F12257   3.972   4.347   6.504 -0.2303  0.1265  0.4841
  117OSM   H10F12258   3.969   4.242   6.474  1.6550 -0.2180  1.3823
  117OSM   C11F12259   4.019   4.436   6.387 -0.1254  0.8065  0.0062
  117OSM   H11F12260   4.121   4.404   6.358 -0.3112 -0.7377  0.9567
  117OSM   H11G12261   4.034   4.543   6.414  0.7012  0.3433  1.5245
  117OSM   C12F12262   3.918   4.426   6.279 -0.2846 -0.9540  0.6582
  117OSM   H12F12263   3.830   4.483   6.314 -0.0416 -0.7623  0.9636
  117OSM   H12G12264   3.883   4.325   6.247 -0.5199 -0.4278 -0.8088
  117OSM   C13F12265   3.965   4.478   6.141  0.5537  0.0574 -0.2874
  117OSM   H13F12266   4.042   4.411   6.098 -1.8363 -1.8147 -1.9252
  117OSM   H13G12267   3.995   4.585   6.141  0.5486  0.0734 -1.7977
  117OSM   C14F12268   3.851   4.471   6.036 -0.3657 -0.5841 -0.5579
  117OSM   H14F12269   3.778   4.551   6.060 -0.8461 -1.6876  2.0352
  117OSM   H14G12270   3.808   4.368   6.040 -1.5532 -0.0918 -0.2177
  117OSM   C15F12271   3.913   4.479   5.893 -0.2122 -0.1061  0.0584
  117OSM   H15F12272   3.994   4.403   5.891  0.9804  1.1122 -1.7684
  117OSM   H15G12273   3.951   4.582   5.873 -1.0325 -0.1949 -2.2468
  117OSM   C16F12274   3.822   4.444   5.783 -0.1368 -0.5004  0.2314
  117OSM   H16F12275   3.734   4.512   5.791  1.7125  1.8754  1.5530
  117OSM   H16G12276   3.785   4.342   5.808  0.4982 -1.1204 -1.2326
  117OSM   C17F12277   3.875   4.461   5.636  0.3138 -0.3561 -0.3403
  117OSM   H17F12278   3.982   4.432   5.624  1.1726  2.3948  0.0849
  117OSM   H17G12279   3.878   4.571   5.619 -0.8654  0.2076  2.5335
  117OSM   C18F12280   3.784   4.398   5.533 -0.1300  0.4097 -0.6019
  117OSM   H18F12281   3.814   4.425   5.429  1.6207  2.0313  0.2611
  117OSM   H18G12282   3.679   4.433   5.545 -0.7549 -1.7278  0.8217
  117OSM   H18H12283   3.777   4.287   5.534  0.6042  0.2708  3.3041
  118OSM      N12284   1.928   4.127   7.707  0.3880  0.5336 -0.0691
  118OSM    C1512285   1.863   4.226   7.799  0.1227 -0.5785  0.4959
  118OSM   H15A12286   1.820   4.308   7.743  2.3741  0.0637 -0.3887
  118OSM   H15B12287   1.937   4.275   7.860  0.3895  0.9395 -0.9796
  118OSM   H15C12288   1.793   4.173   7.861  1.6371 -1.7852  1.2422
  118OSM    C1412289   2.024   4.203   7.619 -0.3650 -0.0252  0.4071
  118OSM   H14A12290   2.052   4.135   7.540 -3.0483 -0.6576 -0.1060
  118OSM   H14B12291   2.115   4.240   7.663  0.1754  0.6119 -1.1723
  118OSM   H14C12292   1.964   4.279   7.571  0.5045  0.4266  0.0208
  118OSM    C1312293   2.002   4.037   7.793  0.4200  0.4949 -0.1749
  118OSM   H13A12294   2.056   3.958   7.743  3.0836  1.5566  0.8246
  118OSM   H13B12295   1.934   3.989   7.861  0.2404  0.4050 -0.4174
  118OSM   H13C12296   2.073   4.087   7.858 -0.7445 -0.9056  2.3292
  118OSM    C1212297   1.824   4.043   7.625 -0.7059  0.5101  0.3209
  118OSM   H12A12298   1.742   4.107   7.594  0.2400  1.7162  0.2492
  118OSM   H12B12299   1.791   3.964   7.691  3.3456 -0.6125  1.2574
  118OSM    C1112300   1.873   3.960   7.505 -0.0255 -0.5611  0.9088
  118OSM   H11A12301   1.886   4.037   7.425 -1.8523 -2.1806 -1.0862
  118OSM   H11B12302   1.794   3.891   7.469  1.7678 -1.6790 -1.2175
  118OSM      P12303   2.120   3.877   7.447 -0.1267 -0.0265  0.1393
  118OSM    O1312304   2.179   4.012   7.432  0.0751  0.3084  0.4837
  118OSM    O1412305   2.216   3.774   7.498  0.2039 -0.0448 -0.2154
  118OSM    O1112306   2.066   3.831   7.301 -0.2725  0.1308 -0.2622
  118OSM    O1212307   1.989   3.884   7.530  0.0671 -0.3582 -0.2704
  118OSM    C1S12308   2.030   3.701   7.266  1.3970 -0.3238  0.5819
  118OSM    H1S12309   1.932   3.672   7.310  1.7321 -2.1069  0.2304
  118OSM    H1T12310   2.108   3.630   7.300  0.1484 -1.6807  0.7376
  118OSM     NF12311   1.925   3.573   7.081 -0.7537 -0.1641  0.0973
  118OSM    HNF12312   1.964   3.498   7.028 -1.2683  0.0285 -0.5594
  118OSM    C2S12313   2.020   3.683   7.113 -0.0720  0.7940  0.0535
  118OSM    H2S12314   1.983   3.776   7.065 -1.2768 -0.3614 -1.3469
  118OSM    C3S12315   2.161   3.680   7.051 -0.3752  0.5017  0.2423
  118OSM    H3S12316   2.225   3.614   7.114 -0.2910 -2.4385 -2.6501
  118OSM     O312317   2.230   3.803   7.063 -0.2481 -0.5749 -0.4625
  118OSM    HO312318   2.173   3.849   7.125  0.0222 -0.2361 -0.4655
  118OSM    C4S12319   2.154   3.647   6.902  0.6213  0.0526 -1.0794
  118OSM    H4S12320   2.060   3.680   6.855 -0.1406  1.0964  1.0189
  118OSM    C5S12321   2.241   3.566   6.845  0.0020 -0.4430 -0.4263
  118OSM    H5S12322   2.323   3.518   6.899  1.1713  1.2633 -0.6195
  118OSM    C6S12323   2.236   3.520   6.699  0.2677  0.5937  0.5564
  118OSM    H6S12324   2.208   3.413   6.703  0.8265  0.4330  0.2967
  118OSM    H6T12325   2.334   3.541   6.651 -0.6353  1.1428 -1.1437
  118OSM    C7S12326   2.131   3.585   6.600  0.5005  0.0497 -0.0669
  118OSM    H7S12327   2.136   3.695   6.617  0.0093  0.0121  0.3476
  118OSM    H7T12328   2.039   3.544   6.647 -0.3331 -0.1690 -1.8266
  118OSM    C8S12329   2.159   3.552   6.453  0.4982  0.9912  0.9527
  118OSM    H8S12330   2.172   3.445   6.428  0.9851  1.3524 -0.4189
  118OSM    H8T12331   2.255   3.600   6.423  0.2696  1.0685  0.3396
  118OSM    C9S12332   2.063   3.612   6.353 -0.2304  0.1362  0.2190
  118OSM    H9S12333   2.063   3.723   6.357 -0.1908  0.1487 -0.0858
  118OSM    H9T12334   1.960   3.574   6.370 -0.2812 -0.6214 -1.6274
  118OSM   C10S12335   2.104   3.563   6.216  0.4747  0.0923 -0.2298
  118OSM   H10S12336   2.049   3.467   6.204  0.4398  0.2686 -1.6009
  118OSM   H10T12337   2.213   3.543   6.210  0.8652  1.3908  1.7633
  118OSM   C11S12338   2.075   3.661   6.097 -0.2603  0.2472  0.2559
  118OSM   H11S12339   2.122   3.622   6.004 -0.6731 -0.8065  0.4820
  118OSM   H11T12340   2.115   3.758   6.133 -1.3269  0.7543  0.1048
  118OSM   C12S12341   1.920   3.681   6.075 -0.0333  0.2273  1.1316
  118OSM   H12S12342   1.871   3.727   6.163  1.6542  1.7289  1.3570
  118OSM   H12T12343   1.870   3.583   6.062 -0.9640  0.7958  0.2891
  118OSM   C13S12344   1.896   3.759   5.947  0.1970 -0.4086 -1.0189
  118OSM   H13S12345   1.976   3.836   5.942 -1.6618  1.9505  1.6781
  118OSM   H13T12346   1.799   3.813   5.955  0.3813 -0.1727 -0.3354
  118OSM   C14S12347   1.886   3.667   5.824  0.2603 -0.6879  0.5848
  118OSM   H14S12348   1.810   3.587   5.838  1.3916 -2.0166 -0.6178
  118OSM   H14T12349   1.982   3.612   5.825  0.9290  0.4247  0.0981
  118OSM   C15S12350   1.855   3.749   5.696  0.4621  0.6551  0.0266
  118OSM   H15S12351   1.828   3.854   5.720  0.0479 -0.1574  3.6857
  118OSM   H15T12352   1.763   3.705   5.650 -0.2870  2.1240  0.0521
  118OSM   C16S12353   1.976   3.747   5.601  0.1250  0.7992 -0.1395
  118OSM   H16S12354   2.010   3.645   5.573 -0.3530  0.9848 -1.4861
  118OSM   H16T12355   2.055   3.802   5.657  0.0666  1.3102 -0.5583
  118OSM   C17S12356   1.943   3.812   5.465 -0.4326  0.6538  0.3862
  118OSM   H17S12357   1.895   3.911   5.477 -0.4705  0.7730 -0.6283
  118OSM   H17T12358   1.859   3.755   5.419  0.2091  0.3667 -0.4639
  118OSM   C18S12359   2.066   3.816   5.380 -0.1315 -0.0136  0.7002
  118OSM   H18S12360   2.035   3.853   5.279 -0.2162 -2.2322 -0.1337
  118OSM   H18T12361   2.107   3.714   5.362 -1.0116 -0.0472 -1.4935
  118OSM   H18U12362   2.144   3.879   5.428 -0.2434  1.0329 -0.4361
  118OSM    C1F12363   1.792   3.574   7.099  0.8713 -0.5642  0.1350
  118OSM     OF12364   1.737   3.675   7.136  0.5736  0.2364 -0.4106
  118OSM    C2F12365   1.717   3.443   7.085  0.4110 -0.1941  0.4410
  118OSM    H2F12366   1.696   3.397   7.184  0.1076  0.6203  0.7609
  118OSM    H2G12367   1.779   3.370   7.026  2.3906  1.6257  0.1468
  118OSM    C3F12368   1.586   3.450   7.004 -0.0692  0.2446 -0.3078
  118OSM    H3F12369   1.508   3.511   7.054 -0.7330  1.4923 -2.7204
  118OSM    H3G12370   1.555   3.344   6.994  0.1999  0.1509 -0.1666
  118OSM    C4F12371   1.620   3.492   6.856  0.3956 -0.4499 -0.4561
  118OSM    H4F12372   1.698   3.424   6.815  0.2396 -0.6091 -0.4897
  118OSM    H4G12373   1.664   3.593   6.842  0.9121 -0.6929 -0.6110
  118OSM    C5F12374   1.499   3.498   6.762 -0.0805  0.7776 -0.1806
  118OSM    H5F12375   1.437   3.589   6.777 -0.5187  0.2747  1.3074
  118OSM    H5G12376   1.433   3.415   6.796  0.8369  0.6817  1.4487
  118OSM    C6F12377   1.537   3.488   6.608  0.6313  0.0882  0.0767
  118OSM    H6F12378   1.593   3.393   6.591 -0.8160 -1.0503  1.2843
  118OSM    H6G12379   1.608   3.568   6.578 -0.3871 -0.4529 -4.4986
  118OSM    C7F12380   1.414   3.481   6.514  0.3510 -0.0562 -0.7182
  118OSM    H7F12381   1.353   3.573   6.507  2.2916  1.5247  1.7107
  118OSM    H7G12382   1.350   3.409   6.570  1.5514 -1.9128 -1.6377
  118OSM    C8F12383   1.426   3.426   6.367  0.0452 -0.5319  0.3680
  118OSM    H8F12384   1.322   3.397   6.341  0.0084 -0.6134  0.6026
  118OSM    H8G12385   1.501   3.344   6.372  2.7788  1.8644  2.5216
  118OSM    C9F12386   1.477   3.532   6.276  0.0920 -0.1339  0.2872
  118OSM    H9F12387   1.536   3.608   6.330  0.1298 -1.2261  1.8340
  118OSM   C10F12388   1.463   3.526   6.140  0.0280  0.2620 -0.2776
  118OSM   H10F12389   1.501   3.615   6.088  0.4110 -0.5039 -1.3346
  118OSM   C11F12390   1.390   3.428   6.051 -0.2078  0.3091  0.0773
  118OSM   H11F12391   1.335   3.359   6.118 -0.5304  0.9011  0.4336
  118OSM   H11G12392   1.468   3.370   5.997  1.8212  1.2755  1.7993
  118OSM   C12F12393   1.284   3.498   5.961 -0.5357 -0.0897 -0.1639
  118OSM   H12F12394   1.220   3.560   6.027  1.5553 -0.3329  2.2301
  118OSM   H12G12395   1.214   3.420   5.924  0.3071 -1.8591  1.7930
  118OSM   C13F12396   1.343   3.582   5.845 -1.0878  0.4416  0.1864
  118OSM   H13F12397   1.382   3.678   5.886 -2.5425  0.7542  0.8850
  118OSM   H13G12398   1.263   3.600   5.770  0.8645  0.0724 -2.1183
  118OSM   C14F12399   1.453   3.519   5.748  0.1072 -0.7031 -0.3306
  118OSM   H14F12400   1.544   3.505   5.809 -0.1176 -1.2126 -0.0979
  118OSM   H14G12401   1.484   3.597   5.676  1.3953  0.7701  1.7287
  118OSM   C15F12402   1.414   3.395   5.669  0.2524 -0.3085 -0.3691
  118OSM   H15F12403   1.310   3.404   5.631  0.4564 -2.0722 -1.4812
  118OSM   H15G12404   1.396   3.314   5.743  1.8367 -1.3351 -1.0589
  118OSM   C16F12405   1.512   3.345   5.564 -0.6043  0.1117 -0.1208
  118OSM   H16F12406   1.609   3.323   5.612 -0.7576 -2.9216 -0.9775
  118OSM   H16G12407   1.534   3.427   5.492  3.2725  0.2402  0.9864
  118OSM   C17F12408   1.477   3.219   5.474  0.4427  0.0217 -0.8073
  118OSM   H17F12409   1.379   3.242   5.426 -1.1804  0.4927  2.4244
  118OSM   H17G12410   1.453   3.135   5.543  0.3401 -0.5043 -1.4773
  118OSM   C18F12411   1.574   3.197   5.370 -0.0451 -0.2196  0.2595
  118OSM   H18F12412   1.587   3.296   5.321 -1.8724  0.8133  1.7167
  118OSM   H18G12413   1.527   3.138   5.288 -2.7835  0.3069  1.3370
  118OSM   H18H12414   1.659   3.141   5.415 -0.4016  0.4000  1.7817
  119OSM      N12415   6.623   1.713   7.389  0.3306 -0.3334 -0.0663
  119OSM    C1512416   6.714   1.814   7.342 -0.5824  0.3748  0.3720
  119OSM   H15A12417   6.658   1.903   7.316 -1.2960  0.0106  0.6427
  119OSM   H15B12418   6.771   1.783   7.255  0.4199  1.8548  0.4531
  119OSM   H15C12419   6.782   1.848   7.419 -1.2403 -0.5326  1.3714
  119OSM    C1412420   6.545   1.661   7.279  0.4819  0.0375  0.0416
  119OSM   H14A12421   6.616   1.654   7.197  0.8188  0.0823  0.3284
  119OSM   H14B12422   6.471   1.731   7.242 -1.1842 -0.9429  1.3737
  119OSM   H14C12423   6.503   1.565   7.303  0.9716  0.1696  1.5095
  119OSM    C1312424   6.703   1.608   7.452  0.4283  0.5551  0.0481
  119OSM   H13A12425   6.643   1.551   7.522 -2.1739  0.3298 -2.1657
  119OSM   H13B12426   6.784   1.659   7.502  0.3906  1.4217 -0.7537
  119OSM   H13C12427   6.754   1.543   7.382  0.4129 -1.6910  1.9937
  119OSM    C1212428   6.537   1.782   7.503 -0.0555  1.0188  0.1308
  119OSM   H12A12429   6.599   1.814   7.585  0.4151 -1.2194  0.7017
  119OSM   H12B12430   6.474   1.702   7.538  0.0945  1.7074  2.0962
  119OSM    C1112431   6.440   1.894   7.468 -0.2492  0.6455  0.3013
  119OSM   H11A12432   6.492   1.978   7.418 -1.4756  0.8797 -0.5997
  119OSM   H11B12433   6.376   1.932   7.551 -2.6848  0.6667 -1.4831
  119OSM      P12434   6.193   1.879   7.369 -0.0128  0.1845  0.4580
  119OSM    O1312435   6.130   1.769   7.447  0.0307  0.3997  0.0976
  119OSM    O1412436   6.157   2.021   7.399 -0.7751  0.2783  0.6041
  119OSM    O1112437   6.164   1.865   7.218 -0.0516  0.4872 -0.2843
  119OSM    O1212438   6.358   1.855   7.361  0.8697  0.3221 -0.7726
  119OSM    C1S12439   6.127   1.750   7.138 -0.2666  0.8038 -0.1462
  119OSM    H1S12440   6.018   1.740   7.122 -0.0329  0.1835 -1.5546
  119OSM    H1T12441   6.154   1.658   7.193  0.6325  0.0921 -1.7084
  119OSM     NF12442   6.128   1.647   6.915 -0.2200  0.6425  0.4194
  119OSM    HNF12443   6.183   1.564   6.918 -0.9103  0.0757 -1.3065
  119OSM    C2S12444   6.181   1.757   6.997 -0.2579 -0.0632  0.7301
  119OSM    H2S12445   6.146   1.855   6.958  1.6880  0.2954 -0.2772
  119OSM    C3S12446   6.334   1.775   6.990 -0.7180 -0.0581  0.0103
  119OSM    H3S12447   6.386   1.683   7.024 -0.6965  0.3116  1.0058
  119OSM     O312448   6.390   1.878   7.072  0.5766  0.0174 -0.0644
  119OSM    HO312449   6.323   1.901   7.137 -1.7420 -0.1053 -2.2594
  119OSM    C4S12450   6.371   1.809   6.849  0.1617  0.3812  0.5810
  119OSM    H4S12451   6.314   1.895   6.810  0.9836  0.6053 -0.1616
  119OSM    C5S12452   6.461   1.746   6.771  0.5223 -0.0981 -0.3281
  119OSM    H5S12453   6.514   1.669   6.829 -0.0956  0.7218  1.3834
  119OSM    C6S12454   6.484   1.774   6.628  0.0811  0.3462 -0.3358
  119OSM    H6S12455   6.591   1.802   6.615 -0.4238  1.3868 -2.8997
  119OSM    H6T12456   6.412   1.854   6.598 -1.9000 -0.7603  1.2082
  119OSM    C7S12457   6.450   1.655   6.541  0.2367  0.0053 -0.5927
  119OSM    H7S12458   6.341   1.632   6.539  0.1320  0.3937  0.2566
  119OSM    H7T12459   6.513   1.569   6.573 -0.3696 -0.7666 -1.4319
  119OSM    C8S12460   6.499   1.683   6.397  0.9230 -0.0498  0.1459
  119OSM    H8S12461   6.610   1.690   6.406  0.8563 -0.2739  1.4376
  119OSM    H8T12462   6.474   1.781   6.352  2.8206 -0.0009 -0.9001
  119OSM    C9S12463   6.465   1.569   6.300 -0.4168  0.3999 -0.0061
  119OSM    H9S12464   6.355   1.576   6.281 -0.1188 -1.4064 -3.1154
  119OSM    H9T12465   6.485   1.468   6.340 -0.0648 -0.3482 -1.9551
  119OSM   C10S12466   6.540   1.575   6.161 -0.3681 -0.2457 -0.2964
  119OSM   H10S12467   6.644   1.536   6.166 -0.7500 -1.3967 -1.0325
  119OSM   H10T12468   6.542   1.679   6.120 -0.6970 -0.8939 -2.0528
  119OSM   C11S12469   6.481   1.487   6.045  0.2161  0.0559 -0.1375
  119OSM   H11S12470   6.373   1.508   6.031 -0.8617 -4.0103  0.7870
  119OSM   H11T12471   6.490   1.383   6.082  1.0104  0.5092  1.0079
  119OSM   C12S12472   6.560   1.500   5.911  0.0609 -0.2801 -0.0751
  119OSM   H12S12473   6.650   1.434   5.913  0.6454  0.4566 -1.2967
  119OSM   H12T12474   6.595   1.605   5.918 -1.9145  0.3252  1.7470
  119OSM   C13S12475   6.473   1.462   5.790  0.2473  0.7376 -0.1698
  119OSM   H13S12476   6.369   1.500   5.805  0.4254  1.3810 -0.4991
  119OSM   H13T12477   6.484   1.353   5.772  0.0842  0.7724 -0.4919
  119OSM   C14S12478   6.537   1.527   5.663 -0.1076  0.4835 -0.3157
  119OSM   H14S12479   6.549   1.637   5.666  1.4078  0.3115  0.8697
  119OSM   H14T12480   6.457   1.520   5.586 -0.4771  1.0346  0.0128
  119OSM   C15S12481   6.667   1.460   5.624 -0.2387  0.0534 -0.1889
  119OSM   H15S12482   6.660   1.350   5.640  0.8754  0.0021  0.0613
  119OSM   H15T12483   6.743   1.505   5.692 -0.9134  1.4742 -0.3446
  119OSM   C16S12484   6.694   1.470   5.466 -0.1931  0.4742 -0.5852
  119OSM   H16S12485   6.797   1.439   5.441  0.5618  1.7693  0.7723
  119OSM   H16T12486   6.680   1.577   5.441 -3.9375  0.3466  0.3439
  119OSM   C17S12487   6.606   1.374   5.386 -0.2295 -0.6309 -0.2053
  119OSM   H17S12488   6.501   1.389   5.421  0.0020  1.2718 -0.1751
  119OSM   H17T12489   6.635   1.270   5.411  0.8168 -0.0744  1.0362
  119OSM   C18S12490   6.613   1.391   5.236  0.5430 -0.3893  0.0564
  119OSM   H18S12491   6.714   1.372   5.194  0.3180 -1.1640 -0.1445
  119OSM   H18T12492   6.583   1.498   5.225 -2.7317 -0.9193  2.4527
  119OSM   H18U12493   6.535   1.335   5.180 -0.2826  1.1440 -0.3902
  119OSM    C1F12494   5.997   1.644   6.874  0.3804 -0.1959 -0.7468
  119OSM     OF12495   5.932   1.747   6.859 -0.3561 -0.3975 -0.4094
  119OSM    C2F12496   5.929   1.510   6.882  0.0949 -0.1955  0.1603
  119OSM    H2F12497   5.837   1.517   6.944  1.0228 -0.6243  1.6303
  119OSM    H2G12498   5.996   1.435   6.928 -0.5304 -1.3205 -0.7087
  119OSM    C3F12499   5.882   1.474   6.745  0.4054  1.3628  0.0223
  119OSM    H3F12500   5.821   1.545   6.685 -2.0612 -2.1792 -2.0375
  119OSM    H3G12501   5.810   1.391   6.760  1.4818  0.4812  0.5231
  119OSM    C4F12502   6.008   1.426   6.664 -0.2452  0.4833  0.0421
  119OSM    H4F12503   6.086   1.383   6.731 -3.0826  0.0728  3.3905
  119OSM    H4G12504   6.051   1.513   6.610 -1.9801  0.1108 -2.0433
  119OSM    C5F12505   5.974   1.307   6.570  0.4558 -0.2005  0.2140
  119OSM    H5F12506   5.876   1.321   6.519  0.4833 -1.4364 -0.2128
  119OSM    H5G12507   5.965   1.215   6.631 -2.8600  0.0728  0.3116
  119OSM    C6F12508   6.084   1.293   6.464 -0.0121 -0.5488 -0.4949
  119OSM    H6F12509   6.184   1.285   6.512  1.0361  1.3790 -2.1464
  119OSM    H6G12510   6.093   1.388   6.406  2.2091 -2.4564 -3.6148
  119OSM    C7F12511   6.074   1.174   6.368  0.4959  0.1562 -0.0592
  119OSM    H7F12512   5.979   1.188   6.311  1.4079 -1.8887 -2.2236
  119OSM    H7G12513   6.060   1.085   6.433 -2.0271 -0.5070 -1.3738
  119OSM    C8F12514   6.188   1.164   6.273  0.0360 -0.3168 -0.4987
  119OSM    H8F12515   6.281   1.166   6.334 -0.3488  1.0840  0.0896
  119OSM    H8G12516   6.191   1.257   6.213 -0.1134 -0.1822 -0.2976
  119OSM    C9F12517   6.185   1.037   6.185  0.3943  0.0781 -0.2105
  119OSM    H9F12518   6.167   0.942   6.237 -0.5658 -0.3702 -1.3211
  119OSM   C10F12519   6.185   1.034   6.052  0.0910  0.4324  0.3219
  119OSM   H10F12520   6.189   0.936   6.002  0.9029  1.0387 -0.8567
  119OSM   C11F12521   6.213   1.153   5.964  0.2308  0.8506  0.7675
  119OSM   H11F12522   6.294   1.211   6.013  0.8751  3.2260 -2.7059
  119OSM   H11G12523   6.121   1.214   5.968 -0.2883  0.0310  1.5713
  119OSM   C12F12524   6.252   1.108   5.813 -1.0804  0.1457  0.3120
  119OSM   H12F12525   6.280   1.202   5.761  1.3838 -0.4785  0.3523
  119OSM   H12G12526   6.168   1.065   5.755 -0.9689  0.2507  0.0755
  119OSM   C13F12527   6.376   1.007   5.813 -0.2545 -0.3844 -0.8257
  119OSM   H13F12528   6.343   0.901   5.815 -3.0613  0.4236  0.1418
  119OSM   H13G12529   6.433   1.019   5.908  0.5765  0.0409 -1.3688
  119OSM   C14F12530   6.472   1.029   5.689  1.0165 -0.2000  0.0340
  119OSM   H14F12531   6.558   0.959   5.702 -0.2902 -1.7976  0.3919
  119OSM   H14G12532   6.496   1.137   5.694 -1.9973  0.5460  0.0344
  119OSM   C15F12533   6.403   1.005   5.545 -0.0439 -0.8703  0.2926
  119OSM   H15F12534   6.326   1.083   5.522  1.1151 -0.3128 -2.0630
  119OSM   H15G12535   6.340   0.913   5.543 -0.9315 -0.2732  0.0827
  119OSM   C16F12536   6.510   0.998   5.430  0.0313 -0.3616 -0.4081
  119OSM   H16F12537   6.575   0.908   5.434 -0.2831 -0.5633  0.2308
  119OSM   H16G12538   6.577   1.086   5.446  0.3339 -0.9702  2.1691
  119OSM   C17F12539   6.459   1.006   5.288 -0.3826  0.1710  0.6046
  119OSM   H17F12540   6.376   1.080   5.284  0.2976  0.9488  0.5268
  119OSM   H17G12541   6.415   0.905   5.273  1.5109 -0.4136 -1.5584
  119OSM   C18F12542   6.568   1.026   5.179 -0.0651 -0.2710  0.5044
  119OSM   H18F12543   6.616   1.126   5.178 -0.3487 -0.1277  0.8686
  119OSM   H18G12544   6.524   0.999   5.080 -1.2760 -0.5604  1.0990
  119OSM   H18H12545   6.648   0.949   5.188  2.1048  1.5158 -2.0199
  120OSM      N12546   0.187   5.578   7.705  0.5477 -0.0860 -0.1233
  120OSM    C1512547   0.234   5.701   7.785 -0.3049 -0.5846 -0.3153
  120OSM   H15A12548   0.246   5.688   7.892 -0.4684 -0.8506 -0.3293
  120OSM   H15B12549   0.172   5.789   7.775 -0.4651 -0.5635  0.6974
  120OSM   H15C12550   0.332   5.734   7.754 -0.1613 -0.0404  0.6715
  120OSM    C1412551   0.179   5.625   7.563 -0.2844  0.6007 -0.0299
  120OSM   H14A12552   0.276   5.660   7.533 -0.0880  0.2047  0.1388
  120OSM   H14B12553   0.098   5.695   7.550 -0.3822  0.1994 -1.9379
  120OSM   H14C12554   0.154   5.547   7.492  4.1949  0.1896 -1.4638
  120OSM    C1312555   0.280   5.467   7.696 -0.2554  0.3129  0.4404
  120OSM   H13A12556   0.229   5.379   7.660 -1.5565  1.7494 -1.3759
  120OSM   H13B12557   0.344   5.462   7.783 -3.1063  0.1123  2.7023
  120OSM   H13C12558   0.343   5.489   7.611  0.0930 -0.5538  0.4614
  120OSM    C1212559   0.049   5.539   7.754  0.1143 -1.2823  0.0843
  120OSM   H12A12560  -0.014   5.626   7.759  0.1022 -1.3681  3.1947
  120OSM   H12B12561   0.053   5.504   7.856 -4.7654  1.1043  1.3859
  120OSM    C1112562  -0.026   5.428   7.675 -0.1436  0.3759  0.3774
  120OSM   H11A12563  -0.035   5.456   7.568 -0.5410 -0.9805  0.0363
  120OSM   H11B12564  -0.131   5.415   7.710 -0.5558  1.0524 -0.5674
  120OSM      P12565   0.009   5.163   7.670  0.1331  0.3818 -0.3302
  120OSM    O1312566   0.072   5.072   7.766 -0.1079  0.4728 -0.2360
  120OSM    O1412567  -0.134   5.151   7.673  0.2066  0.0348  0.0688
  120OSM    O1112568   0.058   5.138   7.524 -0.4097  0.4902 -0.0494
  120OSM    O1212569   0.047   5.311   7.699  0.9318 -0.0319 -0.4181
  120OSM    C1S12570   0.119   5.223   7.433  0.5470  0.2808 -0.4642
  120OSM    H1S12571   0.175   5.304   7.484  2.5542 -1.1348 -0.2951
  120OSM    H1T12572   0.044   5.266   7.363  0.2002  1.7018  0.7129
  120OSM     NF12573   0.269   5.213   7.242 -0.4511  0.0572 -0.1300
  120OSM    HNF12574   0.210   5.220   7.161  1.3428 -1.2738 -1.6634
  120OSM    C2S12575   0.212   5.133   7.345  0.2583  0.0279 -1.1847
  120OSM    H2S12576   0.296   5.086   7.401 -0.9733 -0.6152  0.2123
  120OSM    C3S12577   0.132   5.010   7.287 -0.8015  0.6428  1.4492
  120OSM    H3S12578   0.058   5.060   7.221 -2.0843 -1.8644  0.8583
  120OSM     O312579   0.049   4.932   7.375  0.1083 -0.5456 -0.4716
  120OSM    HO312580   0.032   4.992   7.449 -0.6836 -1.4949  0.1496
  120OSM    C4S12581   0.218   4.941   7.181  0.2070 -0.4443 -0.2861
  120OSM    H4S12582   0.207   4.992   7.084  2.4006 -0.1364 -0.4126
  120OSM    C5S12583   0.292   4.829   7.193  0.4023 -0.1689  0.1003
  120OSM    H5S12584   0.307   4.783   7.292  1.7656 -0.3044 -0.1451
  120OSM    C6S12585   0.373   4.758   7.084 -1.1232  0.4912  0.2616
  120OSM    H6S12586   0.340   4.652   7.078 -1.5468  0.6402 -0.0843
  120OSM    H6T12587   0.482   4.762   7.105 -1.1846 -0.7773  0.9213
  120OSM    C7S12588   0.342   4.816   6.947  0.4073  0.0359 -0.3069
  120OSM    H7S12589   0.379   4.920   6.951 -0.6705  0.4122  0.2704
  120OSM    H7T12590   0.231   4.821   6.937 -0.1810 -5.5002  0.1624
  120OSM    C8S12591   0.397   4.732   6.835  0.4056 -0.2134  0.1182
  120OSM    H8S12592   0.346   4.633   6.843  2.1154 -1.0345  1.8320
  120OSM    H8T12593   0.503   4.708   6.857  0.1629 -0.8057  0.6833
  120OSM    C9S12594   0.386   4.794   6.701  0.0317 -0.5463 -0.4466
  120OSM    H9S12595   0.451   4.883   6.710 -0.6596 -0.0681 -0.1518
  120OSM    H9T12596   0.282   4.832   6.693  0.2685 -0.0128 -1.0932
  120OSM   C10S12597   0.423   4.725   6.572  0.7358  0.3213 -0.0613
  120OSM   H10S12598   0.357   4.636   6.565  0.5967  0.5493 -1.9175
  120OSM   H10T12599   0.528   4.687   6.564  1.0665  0.5079  2.3992
  120OSM   C11S12600   0.398   4.788   6.436  0.0670  0.2521 -0.4859
  120OSM   H11S12601   0.444   4.889   6.449  0.1155  0.0082  1.7984
  120OSM   H11T12602   0.294   4.816   6.412  0.1783 -0.4718 -1.8676
  120OSM   C12S12603   0.447   4.706   6.317  0.4215 -0.0198  0.4111
  120OSM   H12S12604   0.379   4.620   6.298  0.0382  0.3970 -0.1163
  120OSM   H12T12605   0.545   4.658   6.340  2.1261  2.5748 -0.9161
  120OSM   C13S12606   0.467   4.778   6.188  0.6224 -0.6288  0.0557
  120OSM   H13S12607   0.524   4.870   6.213 -0.3477 -0.1992  0.7492
  120OSM   H13T12608   0.370   4.814   6.150 -0.0698 -0.4512  1.8727
  120OSM   C14S12609   0.538   4.692   6.085  0.3090  0.5956 -0.6377
  120OSM   H14S12610   0.473   4.603   6.066  0.1128  0.3029  1.1870
  120OSM   H14T12611   0.631   4.662   6.138 -0.8072  2.1716  2.4853
  120OSM   C15S12612   0.570   4.767   5.955  0.2843  0.4132 -0.4587
  120OSM   H15S12613   0.662   4.716   5.919 -1.0979 -4.3925  2.0215
  120OSM   H15T12614   0.578   4.875   5.978 -1.2730  0.3557  0.4571
  120OSM   C16S12615   0.458   4.749   5.852  0.2387  0.5144  0.3264
  120OSM   H16S12616   0.359   4.779   5.891 -0.1745  1.7853 -1.5968
  120OSM   H16T12617   0.436   4.646   5.817 -0.3269  1.5325 -2.5321
  120OSM   C17S12618   0.477   4.821   5.719 -0.4938  0.1982  0.0578
  120OSM   H17S12619   0.425   4.773   5.633  0.1943  1.1999 -0.9557
  120OSM   H17T12620   0.582   4.828   5.681 -0.7394  0.0338 -0.6698
  120OSM   C18S12621   0.449   4.975   5.722 -0.6053  0.3682 -0.3714
  120OSM   H18S12622   0.489   5.027   5.633 -0.5889  0.7869 -0.1265
  120OSM   H18T12623   0.505   5.021   5.806  1.8328 -1.9701 -0.5939
  120OSM   H18U12624   0.342   5.007   5.723 -0.8233 -0.2263  1.8802
  120OSM    C1F12625   0.351   5.318   7.268 -0.1379 -0.0949  0.7224
  120OSM     OF12626   0.392   5.328   7.384  0.0414 -0.7158 -0.5075
  120OSM    C2F12627   0.388   5.413   7.159  0.9795  0.7875 -0.0185
  120OSM    H2F12628   0.305   5.485   7.142 -0.7525 -0.8844  0.9578
  120OSM    H2G12629   0.397   5.368   7.058 -1.1585  1.2340 -0.4564
  120OSM    C3F12630   0.513   5.493   7.196  0.0929 -0.0032  0.4648
  120OSM    H3F12631   0.598   5.436   7.240 -0.5574  0.3359  2.2313
  120OSM    H3G12632   0.490   5.553   7.286  1.2160  2.1685 -0.5877
  120OSM    C4F12633   0.567   5.591   7.090  0.2259  0.6285  0.2692
  120OSM    H4F12634   0.650   5.652   7.131 -0.2153  1.3944  0.0312
  120OSM    H4G12635   0.475   5.643   7.056 -2.7639 -3.0760  1.9936
  120OSM    C5F12636   0.629   5.523   6.967 -0.2133 -1.2253  0.1293
  120OSM    H5F12637   0.544   5.466   6.924 -2.3469  1.2550  0.8177
  120OSM    H5G12638   0.700   5.459   7.023 -2.4815 -2.0155  2.3000
  120OSM    C6F12639   0.681   5.627   6.869  0.4238 -0.7686 -0.6252
  120OSM    H6F12640   0.759   5.680   6.928  0.5964 -2.1971  0.4588
  120OSM    H6G12641   0.592   5.688   6.841  1.5206 -0.0914 -2.8777
  120OSM    C7F12642   0.738   5.579   6.734  0.3906 -0.1623  0.7546
  120OSM    H7F12643   0.787   5.483   6.763 -1.3306 -1.5490 -0.6555
  120OSM    H7G12644   0.821   5.641   6.694  1.8141 -2.1962  0.3475
  120OSM    C8F12645   0.635   5.564   6.623 -0.1080  0.6592  0.9123
  120OSM    H8F12646   0.571   5.653   6.608 -1.3773 -0.2256  0.8652
  120OSM    H8G12647   0.572   5.478   6.654 -0.2558 -0.2480 -1.6492
  120OSM    C9F12648   0.704   5.530   6.491 -0.0385 -0.0759  0.2911
  120OSM    H9F12649   0.793   5.467   6.503 -0.3085 -0.4570  0.3478
  120OSM   C10F12650   0.673   5.578   6.370 -0.2106  0.0750  0.2977
  120OSM   H10F12651   0.736   5.554   6.283 -3.1895  0.9755 -2.2896
  120OSM   C11F12652   0.555   5.669   6.342 -0.2683 -0.2789  0.2639
  120OSM   H11F12653   0.597   5.771   6.353 -1.0336  0.1889 -0.9409
  120OSM   H11G12654   0.476   5.661   6.420 -0.1503 -1.3423  0.3007
  120OSM   C12F12655   0.478   5.623   6.220 -0.0929 -0.3322 -0.0512
  120OSM   H12F12656   0.389   5.689   6.226 -0.1670 -0.4476  0.1366
  120OSM   H12G12657   0.441   5.520   6.206 -0.0326 -0.2066 -1.2185
  120OSM   C13F12658   0.560   5.646   6.093  0.3674  0.1677  0.0035
  120OSM   H13F12659   0.645   5.575   6.087  1.0681  1.0923 -1.4580
  120OSM   H13G12660   0.600   5.749   6.095 -1.4365  0.9009  0.7833
  120OSM   C14F12661   0.482   5.628   5.963 -0.3279 -0.3690  0.3045
  120OSM   H14F12662   0.402   5.704   5.953  0.2427  0.1772 -0.1574
  120OSM   H14G12663   0.432   5.529   5.960 -0.6254 -0.2621  1.3564
  120OSM   C15F12664   0.572   5.631   5.836 -0.5967  0.2141  0.1029
  120OSM   H15F12665   0.650   5.553   5.851  0.1008  0.7971 -0.3802
  120OSM   H15G12666   0.622   5.731   5.828  0.3953 -0.2393  0.4020
  120OSM   C16F12667   0.489   5.594   5.714 -0.0625 -0.4574 -0.5311
  120OSM   H16F12668   0.532   5.663   5.639 -0.5042 -0.3207 -0.6646
  120OSM   H16G12669   0.383   5.626   5.722  0.2594  0.2597  1.2059
  120OSM   C17F12670   0.497   5.455   5.663 -0.1584 -0.3200  0.0387
  120OSM   H17F12671   0.470   5.379   5.739 -2.1231 -0.3895 -0.6880
  120OSM   H17G12672   0.607   5.441   5.653  0.2395  1.8892  0.8044
  120OSM   C18F12673   0.419   5.442   5.533 -0.1067 -0.3808  0.1487
  120OSM   H18F12674   0.310   5.457   5.545 -0.0280  1.8409 -1.3127
  120OSM   H18G12675   0.429   5.343   5.485 -1.4150  1.0921 -3.5810
  120OSM   H18H12676   0.459   5.519   5.464 -0.9872  0.5017  0.6007
  121OSM      N12677   2.589   0.725   7.811  0.5230  0.0551 -0.0670
  121OSM    C1512678   2.556   0.676   7.676 -0.6658 -0.0347 -0.2368
  121OSM   H15A12679   2.500   0.757   7.631  1.4251  0.4645 -2.1233
  121OSM   H15B12680   2.510   0.578   7.676 -1.6837  0.4262  0.0289
  121OSM   H15C12681   2.648   0.668   7.620  0.0069  1.0454  0.6438
  121OSM    C1412682   2.459   0.739   7.890  0.0003 -0.3191 -0.9521
  121OSM   H14A12683   2.467   0.778   7.990 -1.0829 -1.1653 -0.5265
  121OSM   H14B12684   2.406   0.646   7.894 -0.3730 -0.1948 -2.4171
  121OSM   H14C12685   2.399   0.814   7.841 -0.6070 -1.0021 -1.2584
  121OSM    C1312686   2.684   0.634   7.881  0.9381 -0.4146 -0.0466
  121OSM   H13A12687   2.775   0.632   7.823  0.0596 -0.5761 -1.4611
  121OSM   H13B12688   2.644   0.536   7.901 -0.7997 -0.1836 -2.0979
  121OSM   H13C12689   2.708   0.676   7.977  0.5252 -0.5914  0.1367
  121OSM    C1212690   2.644   0.865   7.807  0.3254 -0.3478 -0.3960
  121OSM   H12A12691   2.713   0.879   7.725  0.1454  2.2867 -0.1711
  121OSM   H12B12692   2.706   0.884   7.894 -1.4790  1.7347  0.5177
  121OSM    C1112693   2.551   0.981   7.778 -0.1738 -0.0177 -0.5136
  121OSM   H11A12694   2.608   1.076   7.787 -2.0074  1.2151 -1.3109
  121OSM   H11B12695   2.478   0.995   7.861  0.8402  2.1394  0.0822
  121OSM      P12696   2.558   1.031   7.524 -0.6890  0.6836 -0.1180
  121OSM    O1312697   2.523   1.171   7.511 -0.2206 -0.1049 -0.3261
  121OSM    O1412698   2.706   0.996   7.530  0.4055 -0.4869  0.2576
  121OSM    O1112699   2.476   0.949   7.419  1.2939 -0.5056 -0.2244
  121OSM    O1212700   2.481   0.970   7.649 -0.0276 -0.1901  0.4459
  121OSM    C1S12701   2.361   0.992   7.351 -0.6090 -0.2648 -0.0363
  121OSM    H1S12702   2.335   1.100   7.363  4.4951  1.5269 -1.8967
  121OSM    H1T12703   2.266   0.942   7.378 -1.4193  1.2736  0.0614
  121OSM     NF12704   2.268   1.025   7.123  0.3282 -0.1694 -0.7740
  121OSM    HNF12705   2.205   0.976   7.062 -2.7027  1.8648  0.4430
  121OSM    C2S12706   2.375   0.962   7.196  0.6222  0.1982  0.0696
  121OSM    H2S12707   2.472   1.004   7.162  1.5387 -1.1463  0.9519
  121OSM    C3S12708   2.381   0.805   7.176  0.3850  0.0709  0.0091
  121OSM    H3S12709   2.280   0.765   7.196  1.3137 -1.5468  1.8649
  121OSM     O312710   2.439   0.731   7.283 -0.0975  0.4443 -0.5005
  121OSM    HO312711   2.441   0.791   7.358  2.6628  0.1634 -0.2413
  121OSM    C4S12712   2.410   0.743   7.042  0.2428 -0.9035  0.0870
  121OSM    H4S12713   2.326   0.758   6.973  0.1383  1.8897  0.7330
  121OSM    C5S12714   2.517   0.673   7.004 -0.8345 -0.0152  0.2286
  121OSM    H5S12715   2.600   0.683   7.075 -0.2156  0.1469 -0.4986
  121OSM    C6S12716   2.537   0.604   6.864  0.3091 -0.2335  0.1188
  121OSM    H6S12717   2.585   0.505   6.884 -0.1860 -0.4719  0.1410
  121OSM    H6T12718   2.606   0.665   6.802 -1.4255  0.9896 -0.6947
  121OSM    C7S12719   2.413   0.595   6.773 -0.3404 -0.0457  0.6141
  121OSM    H7S12720   2.450   0.560   6.673 -2.5557  0.2882 -0.3769
  121OSM    H7T12721   2.370   0.697   6.767 -0.6024 -0.0350  2.2298
  121OSM    C8S12722   2.299   0.505   6.821 -0.1554  0.1540 -0.3462
  121OSM    H8S12723   2.280   0.536   6.926 -0.0531  1.5852 -0.7394
  121OSM    H8T12724   2.334   0.399   6.823 -1.3363 -0.2564 -0.5214
  121OSM    C9S12725   2.167   0.518   6.744 -0.4045  0.1393 -0.4082
  121OSM    H9S12726   2.111   0.610   6.774  0.3235  0.1797  0.8810
  121OSM    H9T12727   2.111   0.434   6.791  1.6945 -0.9494  0.2592
  121OSM   C10S12728   2.182   0.505   6.591  0.2754 -0.6675  0.5991
  121OSM   H10S12729   2.230   0.593   6.542  0.0564 -0.2262  1.1645
  121OSM   H10T12730   2.087   0.488   6.536  1.3368  1.1425 -1.9800
  121OSM   C11S12731   2.264   0.385   6.531 -0.0910  0.1851  0.1101
  121OSM   H11S12732   2.207   0.294   6.563  2.0177 -0.8215  1.1691
  121OSM   H11T12733   2.365   0.365   6.572 -0.3994 -0.5595  0.5335
  121OSM   C12S12734   2.274   0.402   6.376 -0.2739 -0.1723  0.3224
  121OSM   H12S12735   2.180   0.444   6.334  0.7131  1.6401 -0.1932
  121OSM   H12T12736   2.307   0.306   6.331 -1.0063 -0.5712  0.6158
  121OSM   C13S12737   2.393   0.502   6.339 -0.4579  0.5353  1.3857
  121OSM   H13S12738   2.484   0.439   6.338 -0.0447  1.0732 -1.1540
  121OSM   H13T12739   2.410   0.590   6.404  0.9706 -0.1187  1.9337
  121OSM   C14S12740   2.383   0.553   6.194  0.5015 -0.9468 -0.2140
  121OSM   H14S12741   2.322   0.488   6.128 -0.9389  0.7707 -0.6492
  121OSM   H14T12742   2.484   0.566   6.149  0.4980  2.2499  0.4691
  121OSM   C15S12743   2.299   0.680   6.183 -0.3194  0.6523 -0.1212
  121OSM   H15S12744   2.370   0.765   6.185  1.2818 -0.6538 -0.1834
  121OSM   H15T12745   2.235   0.688   6.274 -1.4717 -1.3704 -0.6813
  121OSM   C16S12746   2.204   0.682   6.065  0.4734  0.0074  0.6935
  121OSM   H16S12747   2.108   0.629   6.086  1.3956 -2.1007 -0.0719
  121OSM   H16T12748   2.255   0.632   5.980 -3.1239 -0.1953 -1.5321
  121OSM   C17S12749   2.175   0.823   6.024  0.3549  0.5136  0.1153
  121OSM   H17S12750   2.275   0.872   6.019  0.8505 -0.4618  0.2622
  121OSM   H17T12751   2.120   0.875   6.105  0.8487  0.5311  0.4431
  121OSM   C18S12752   2.112   0.843   5.885 -0.1644  0.4317  0.7775
  121OSM   H18S12753   2.007   0.808   5.883 -0.6997  1.9377  0.9691
  121OSM   H18T12754   2.162   0.791   5.801 -1.5275  2.6062 -1.5380
  121OSM   H18U12755   2.112   0.951   5.858  0.5223  0.0099 -1.0107
  121OSM    C1F12756   2.264   1.156   7.107  0.6727 -0.2196  0.2363
  121OSM     OF12757   2.333   1.232   7.170 -0.2517  0.2329  0.3038
  121OSM    C2F12758   2.171   1.219   7.011  0.4459  0.0439 -0.6279
  121OSM    H2F12759   2.092   1.281   7.058 -0.1022 -0.4414 -0.8784
  121OSM    H2G12760   2.118   1.144   6.948  1.9085 -1.0260 -0.6440
  121OSM    C3F12761   2.245   1.317   6.912 -0.1323 -0.6076 -0.4485
  121OSM    H3F12762   2.331   1.259   6.871 -1.2760 -2.1763 -0.7302
  121OSM    H3G12763   2.282   1.409   6.963  1.0511 -0.6148 -1.2379
  121OSM    C4F12764   2.155   1.350   6.796  0.5543  0.9163 -0.8188
  121OSM    H4F12765   2.122   1.255   6.750  2.5430  0.8823 -2.3327
  121OSM    H4G12766   2.225   1.392   6.720  2.8094 -0.5845  0.2906
  121OSM    C5F12767   2.031   1.443   6.822 -0.3846  0.5395  0.1140
  121OSM    H5F12768   2.058   1.538   6.873  1.1726 -0.3312  1.0199
  121OSM    H5G12769   1.972   1.389   6.899  0.9228  0.2698  0.9608
  121OSM    C6F12770   1.945   1.452   6.693 -0.4566 -0.3773 -0.6247
  121OSM    H6F12771   1.840   1.443   6.728  0.0975 -0.1006  1.2737
  121OSM    H6G12772   1.973   1.360   6.638  0.0057 -0.1984 -0.6933
  121OSM    C7F12773   1.968   1.586   6.622  1.1384 -0.0938  0.3897
  121OSM    H7F12774   2.075   1.604   6.601  0.6140  1.0895 -1.4438
  121OSM    H7G12775   1.937   1.668   6.691  0.5637 -0.1878  0.2511
  121OSM    C8F12776   1.888   1.591   6.494  0.1613  0.0460  0.4840
  121OSM    H8F12777   1.852   1.694   6.475 -2.0688 -0.3369  2.2179
  121OSM    H8G12778   1.787   1.549   6.517 -0.7667  3.1109  2.6559
  121OSM    C9F12779   1.952   1.532   6.371 -0.1377  0.1002 -0.3207
  121OSM    H9F12780   1.953   1.422   6.375  1.7389  0.0247 -1.6822
  121OSM   C10F12781   2.022   1.603   6.282 -0.2412 -0.0188 -0.9468
  121OSM   H10F12782   2.065   1.549   6.196 -1.2152  1.2751 -2.2999
  121OSM   C11F12783   2.035   1.748   6.282  0.7963 -0.5563  0.2051
  121OSM   H11F12784   1.976   1.797   6.363  1.4775  1.9173 -0.6860
  121OSM   H11G12785   1.993   1.793   6.190  2.0334  0.7224  0.2274
  121OSM   C12F12786   2.185   1.783   6.299  0.2341  0.2634  0.3695
  121OSM   H12F12787   2.226   1.738   6.392  0.3348  0.2880  0.3372
  121OSM   H12G12788   2.180   1.891   6.327 -2.8596  0.1514  0.6306
  121OSM   C13F12789   2.286   1.740   6.192  0.1105 -0.0192 -0.6951
  121OSM   H13F12790   2.286   1.630   6.176 -2.8478 -0.0169 -1.3334
  121OSM   H13G12791   2.384   1.785   6.217 -1.4802  3.0042  0.6032
  121OSM   C14F12792   2.258   1.815   6.063 -0.1878  0.2301  0.4054
  121OSM   H14F12793   2.250   1.922   6.090 -2.3422  0.6577 -1.5597
  121OSM   H14G12794   2.164   1.777   6.018 -0.3035  2.6309 -1.5968
  121OSM   C15F12795   2.373   1.798   5.956  0.1009 -0.2493 -0.2649
  121OSM   H15F12796   2.380   1.691   5.926  0.2595 -1.1294  2.5562
  121OSM   H15G12797   2.461   1.840   6.008 -0.4067  1.0231 -0.4168
  121OSM   C16F12798   2.344   1.873   5.822  0.6678 -0.1671 -1.3277
  121OSM   H16F12799   2.352   1.980   5.851 -1.7535  0.3591 -2.3816
  121OSM   H16G12800   2.244   1.845   5.783 -1.0977  2.4968  0.9026
  121OSM   C17F12801   2.440   1.842   5.706  0.2514 -0.6796  0.7215
  121OSM   H17F12802   2.441   1.733   5.686  0.2532 -0.1097 -3.0912
  121OSM   H17G12803   2.544   1.875   5.727  0.4527  1.2783 -2.7021
  121OSM   C18F12804   2.385   1.905   5.580  0.4016  0.2355 -0.1387
  121OSM   H18F12805   2.433   1.855   5.492 -1.5306 -3.0220  0.5124
  121OSM   H18G12806   2.413   2.013   5.583 -0.1223  0.3461  1.6068
  121OSM   H18H12807   2.276   1.890   5.574  0.5854 -0.9132 -0.9660
  122OSM      N12808   2.041   4.902   7.998  0.0391 -0.5318 -0.1338
  122OSM    C1512809   2.140   5.000   7.960  0.0074 -0.1704 -0.0571
  122OSM   H15A12810   2.104   5.100   7.939  2.6389  1.0350  0.6124
  122OSM   H15B12811   2.201   4.964   7.878  1.0270 -2.1991  1.5086
  122OSM   H15C12812   2.202   5.029   8.044 -2.8036  3.0661  1.1517
  122OSM    C1412813   2.107   4.788   8.065  0.0252 -0.8156 -0.0834
  122OSM   H14A12814   2.204   4.758   8.027  0.5211  1.5483 -0.8429
  122OSM   H14B12815   2.037   4.705   8.063 -2.5265  1.2242 -0.7072
  122OSM   H14C12816   2.130   4.813   8.167  4.8197  0.2422 -1.1829
  122OSM    C1312817   1.936   4.962   8.088 -0.3614  0.1695 -0.1557
  122OSM   H13A12818   1.978   5.009   8.176  0.3535 -1.2315  0.2804
  122OSM   H13B12819   1.874   4.881   8.123 -0.3812  1.0996  2.0900
  122OSM   H13C12820   1.900   5.048   8.033  0.9316  0.2485 -0.9269
  122OSM    C1212821   1.965   4.852   7.872 -0.0388 -0.4798 -0.1067
  122OSM   H12A12822   1.915   4.940   7.834 -0.2809 -0.3192  0.5788
  122OSM   H12B12823   1.901   4.767   7.892  0.1146 -0.5900 -0.0794
  122OSM    C1112824   2.048   4.804   7.756  0.2704 -0.2931  0.3533
  122OSM   H11A12825   2.118   4.879   7.712  1.6287 -2.0671 -0.6602
  122OSM   H11B12826   1.982   4.779   7.671 -0.7988 -0.6606  1.2624
  122OSM      P12827   2.068   4.544   7.784  0.2343  0.0492 -0.1452
  122OSM    O1312828   2.153   4.431   7.838  0.1083 -0.0806 -0.3242
  122OSM    O1412829   1.930   4.545   7.836 -0.3085  0.1893 -0.8901
  122OSM    O1112830   2.044   4.524   7.634  0.4326 -0.2755  0.7037
  122OSM    O1212831   2.126   4.690   7.786  0.1895  0.4906 -0.0557
  122OSM    C1S12832   2.156   4.541   7.547  0.4578 -0.9335  0.8450
  122OSM    H1S12833   2.225   4.455   7.559 -1.6630 -2.7124  1.1696
  122OSM    H1T12834   2.207   4.638   7.563  0.8966 -1.1154  0.5586
  122OSM     NF12835   2.259   4.572   7.321  0.2710  0.5262  0.3221
  122OSM    HNF12836   2.265   4.663   7.280 -1.0016  0.4743 -0.0065
  122OSM    C2S12837   2.131   4.542   7.389  0.3847 -0.2312 -0.2937
  122OSM    H2S12838   2.099   4.439   7.362  0.8949 -0.7336  0.9449
  122OSM    C3S12839   2.015   4.640   7.352 -0.9969 -0.7322 -0.2681
  122OSM    H3S12840   2.051   4.743   7.371 -1.6670  0.2505 -3.6698
  122OSM     O312841   1.895   4.617   7.427 -0.7456  1.1831  0.2036
  122OSM    HO312842   1.925   4.570   7.506 -1.6088 -0.5393 -0.4443
  122OSM    C4S12843   1.989   4.645   7.206  0.1669  0.6117  0.7968
  122OSM    H4S12844   2.029   4.735   7.156 -0.9282  1.7165  1.8449
  122OSM    C5S12845   1.908   4.564   7.133 -0.1708 -0.4361 -0.2242
  122OSM    H5S12846   1.866   4.477   7.187  2.6656 -1.4347  0.5867
  122OSM    C6S12847   1.883   4.561   6.982 -0.5720  0.3205  0.1305
  122OSM    H6S12848   1.776   4.591   6.970 -0.1313  1.7952 -0.3959
  122OSM    H6T12849   1.886   4.457   6.944  0.4777 -0.1205  1.3370
  122OSM    C7S12850   1.992   4.629   6.886  0.6955 -0.3347 -0.5685
  122OSM    H7S12851   2.094   4.588   6.898  0.9276  0.3873  0.0477
  122OSM    H7T12852   1.994   4.736   6.918 -0.4917 -0.9271  1.6992
  122OSM    C8S12853   1.939   4.617   6.743 -0.2695 -0.1481 -0.3268
  122OSM    H8S12854   1.844   4.675   6.736 -0.0758  0.3268  0.8495
  122OSM    H8T12855   1.920   4.510   6.720  0.9724 -0.5468  0.4126
  122OSM    C9S12856   2.042   4.667   6.634 -0.0570 -0.3643 -0.0209
  122OSM    H9S12857   2.137   4.613   6.657  1.3293  3.0197  3.1304
  122OSM    H9T12858   2.058   4.775   6.654 -1.4741 -0.2397  0.4882
  122OSM   C10S12859   1.998   4.645   6.491  0.3701 -0.0305 -0.0093
  122OSM   H10S12860   1.907   4.705   6.469 -0.1938 -0.9212 -0.1161
  122OSM   H10T12861   1.975   4.537   6.491  0.0686  0.0015  1.6694
  122OSM   C11S12862   2.107   4.683   6.389  0.5307  0.7995  0.2849
  122OSM   H11S12863   2.197   4.626   6.419  1.4226  1.8961 -0.2618
  122OSM   H11T12864   2.127   4.792   6.381  1.3470  0.5487 -1.2695
  122OSM   C12S12865   2.042   4.638   6.249  0.0813  0.0086 -0.1383
  122OSM   H12S12866   1.935   4.666   6.257 -0.2935 -1.7304  1.8375
  122OSM   H12T12867   2.049   4.530   6.225  1.8247 -0.6550  2.8562
  122OSM   C13S12868   2.114   4.719   6.135 -0.4259 -1.0245 -0.7571
  122OSM   H13S12869   2.224   4.725   6.150 -0.7329  2.0402  1.1540
  122OSM   H13T12870   2.070   4.821   6.145  2.9436  0.4500  0.3087
  122OSM   C14S12871   2.073   4.661   5.999 -0.3997  0.6308  0.2654
  122OSM   H14S12872   1.963   4.669   5.993 -0.6638 -1.6679  0.9715
  122OSM   H14T12873   2.094   4.552   5.989 -2.4120  0.2742 -0.5226
  122OSM   C15S12874   2.145   4.730   5.882 -0.0135 -0.5218 -0.1126
  122OSM   H15S12875   2.253   4.734   5.908  0.1129 -2.5662 -0.1476
  122OSM   H15T12876   2.100   4.831   5.879  1.7294  0.3144  0.3201
  122OSM   C16S12877   2.140   4.671   5.736  0.2610  0.2098 -0.2151
  122OSM   H16S12878   2.032   4.662   5.714 -0.0911 -0.6114  1.6328
  122OSM   H16T12879   2.189   4.572   5.750  0.9629  0.0772 -3.0598
  122OSM   C17S12880   2.216   4.761   5.641 -0.2541 -0.4317 -0.0546
  122OSM   H17S12881   2.322   4.766   5.671  0.3132 -1.9621 -1.6036
  122OSM   H17T12882   2.179   4.866   5.643 -1.6652 -0.9221  1.3095
  122OSM   C18S12883   2.218   4.714   5.500 -1.1322  0.0900 -0.6286
  122OSM   H18S12884   2.285   4.624   5.503  0.8977  1.5416 -0.0801
  122OSM   H18T12885   2.268   4.783   5.430  0.4287  0.4001  0.7177
  122OSM   H18U12886   2.117   4.687   5.462 -0.0935 -4.4378 -0.7512
  122OSM    C1F12887   2.344   4.470   7.306 -0.0771 -0.4386  0.2573
  122OSM     OF12888   2.315   4.359   7.351  0.0967 -0.1133  0.5342
  122OSM    C2F12889   2.484   4.498   7.250 -0.4654  0.0566  0.0425
  122OSM    H2F12890   2.553   4.538   7.327  0.6631  1.5668 -1.6580
  122OSM    H2G12891   2.479   4.578   7.173 -2.9247 -0.2743 -0.2297
  122OSM    C3F12892   2.543   4.365   7.187 -0.2545  0.6022  0.1704
  122OSM    H3F12893   2.574   4.289   7.261 -0.3973  0.6093  0.2371
  122OSM    H3G12894   2.644   4.399   7.155 -0.1045  1.9460  1.8793
  122OSM    C4F12895   2.482   4.304   7.061  0.0115  0.2680 -0.5542
  122OSM    H4F12896   2.376   4.282   7.086 -0.1627  3.8548  2.6510
  122OSM    H4G12897   2.538   4.210   7.039  0.4684 -0.1059  1.9866
  122OSM    C5F12898   2.499   4.392   6.937  0.0166 -0.6448 -0.1027
  122OSM    H5F12899   2.605   4.400   6.906 -0.2543  2.4199 -0.5607
  122OSM    H5G12900   2.472   4.494   6.971  2.0690 -0.1798  0.2708
  122OSM    C6F12901   2.408   4.341   6.822  0.6153 -0.0285  0.1414
  122OSM    H6F12902   2.302   4.318   6.846  0.1331  0.4132 -1.4462
  122OSM    H6G12903   2.455   4.245   6.792  2.3838  1.2598 -1.4622
  122OSM    C7F12904   2.401   4.448   6.716 -0.7580 -0.7380  0.6526
  122OSM    H7F12905   2.504   4.478   6.688 -1.7221 -1.7156 -5.2585
  122OSM    H7G12906   2.337   4.530   6.753 -0.2413  0.5953 -1.2855
  122OSM    C8F12907   2.330   4.399   6.585 -0.6791 -0.2151 -0.0340
  122OSM    H8F12908   2.321   4.484   6.513 -0.6969 -1.2762 -1.3170
  122OSM    H8G12909   2.233   4.363   6.626  0.3044 -1.1524  1.5693
  122OSM    C9F12910   2.398   4.285   6.513  0.0362  0.2963 -0.2566
  122OSM    H9F12911   2.405   4.191   6.570  1.4064  0.7557  0.3922
  122OSM   C10F12912   2.450   4.277   6.391 -0.5528 -0.5966  0.2957
  122OSM   H10F12913   2.497   4.181   6.367 -1.3335 -1.1717  1.0359
  122OSM   C11F12914   2.450   4.391   6.292 -0.4001  0.1592 -0.4057
  122OSM   H11F12915   2.528   4.469   6.308 -1.2993  1.4101 -1.8884
  122OSM   H11G12916   2.357   4.452   6.290 -1.1928 -0.9142  1.3399
  122OSM   C12F12917   2.488   4.333   6.153  0.5394  0.3050 -0.0317
  122OSM   H12F12918   2.417   4.258   6.113 -1.6136  2.3930 -0.3489
  122OSM   H12G12919   2.590   4.293   6.170 -0.2891 -0.8001  2.9704
  122OSM   C13F12920   2.480   4.451   6.046 -0.0598 -0.2367 -0.4918
  122OSM   H13F12921   2.561   4.524   6.066 -0.9400  0.6571 -0.1033
  122OSM   H13G12922   2.383   4.501   6.068 -0.3779 -0.2804 -1.7540
  122OSM   C14F12923   2.477   4.398   5.901 -0.3487 -0.4964 -0.4203
  122OSM   H14F12924   2.465   4.477   5.823 -1.2422 -2.2278 -2.1111
  122OSM   H14G12925   2.391   4.331   5.885 -0.0045 -0.6983 -1.4763
  122OSM   C15F12926   2.602   4.317   5.881  0.2124  0.2428  1.0375
  122OSM   H15F12927   2.601   4.225   5.942 -1.5502 -0.1571  0.4608
  122OSM   H15G12928   2.690   4.378   5.912  1.0207 -0.9176  1.0948
  122OSM   C16F12929   2.628   4.281   5.730 -0.3341 -0.0329  0.2877
  122OSM   H16F12930   2.718   4.215   5.733  1.5137  2.3958  1.3883
  122OSM   H16G12931   2.660   4.373   5.678  0.2286  0.6458  1.7734
  122OSM   C17F12932   2.508   4.211   5.658 -0.2489 -0.6326 -0.3066
  122OSM   H17F12933   2.418   4.275   5.669 -0.0515 -0.5595  1.1152
  122OSM   H17G12934   2.478   4.116   5.708  0.1560  0.0199  1.2181
  122OSM   C18F12935   2.524   4.190   5.507 -0.1631 -0.0850  0.2415
  122OSM   H18F12936   2.417   4.175   5.479 -0.0647 -1.8345  0.6809
  122OSM   H18G12937   2.580   4.095   5.491 -0.3737 -0.5618  2.0751
  122OSM   H18H12938   2.577   4.276   5.462  1.1133 -1.2466 -0.5478
  123OSM      N12939   3.987   2.803   2.696  0.1197 -0.0753 -0.3578
  123OSM    C1512940   3.864   2.854   2.765  0.0021  0.0912 -0.4094
  123OSM   H15A12941   3.848   2.808   2.861  0.1512  1.4274  0.2818
  123OSM   H15B12942   3.779   2.839   2.700  0.9594  0.8686 -1.9158
  123OSM   H15C12943   3.868   2.961   2.783  0.3971 -0.1774  1.2674
  123OSM    C1412944   3.977   2.659   2.647  0.2620  0.0351  0.1156
  123OSM   H14A12945   3.943   2.583   2.716 -0.3830  0.4567  0.2691
  123OSM   H14B12946   4.075   2.624   2.618 -0.6575 -0.9233 -2.0317
  123OSM   H14C12947   3.906   2.643   2.567 -1.0044 -3.3022  1.7100
  123OSM    C1312948   4.012   2.883   2.567 -0.4531 -0.1568 -0.3536
  123OSM   H13A12949   4.080   2.833   2.499 -0.7063  1.1008 -1.5800
  123OSM   H13B12950   4.060   2.974   2.599 -1.4996 -0.3905  2.1348
  123OSM   H13C12951   3.921   2.902   2.513  0.0853  1.4561 -0.7556
  123OSM    C1212952   4.107   2.811   2.793  0.8736 -0.8661  0.7360
  123OSM   H12A12953   4.200   2.780   2.748  0.1228 -1.6761 -0.3140
  123OSM   H12B12954   4.083   2.747   2.877  1.8937 -0.2871  1.4878
  123OSM    C1112955   4.129   2.964   2.844  0.3870  1.0400  0.2312
  123OSM   H11A12956   4.210   2.952   2.919 -0.8954 -3.3916  1.2144
  123OSM   H11B12957   4.050   3.004   2.910  1.3712  3.0145  0.2764
  123OSM      P12958   4.251   3.177   2.749 -0.0908 -0.0546  0.0246
  123OSM    O1312959   4.392   3.126   2.732  0.4951  0.0393  0.0920
  123OSM    O1412960   4.202   3.281   2.651 -0.5415 -1.0965 -0.1111
  123OSM    O1112961   4.232   3.214   2.901 -0.3767 -0.4369  0.4005
  123OSM    O1212962   4.161   3.046   2.734 -0.0227  0.1726 -0.1288
  123OSM    C1S12963   4.112   3.294   2.936 -0.0294  0.5306 -0.2398
  123OSM    H1S12964   4.020   3.253   2.889 -1.0983  3.1916 -0.6307
  123OSM    H1T12965   4.127   3.394   2.890  1.5778 -0.1673 -1.3423
  123OSM     NF12966   3.964   3.370   3.121 -0.4013 -0.0875  0.3393
  123OSM    HNF12967   3.963   3.464   3.155  1.4056 -0.2524  0.9844
  123OSM    C2S12968   4.092   3.309   3.089 -0.3097 -0.5090  0.4104
  123OSM    H2S12969   4.097   3.209   3.136 -0.3409  0.0754  1.7127
  123OSM    C3S12970   4.217   3.383   3.152 -0.1466  0.3680 -0.5074
  123OSM    H3S12971   4.232   3.477   3.095  1.4518  0.6111  0.2633
  123OSM     O312972   4.341   3.315   3.124 -0.3930  0.5081 -0.5853
  123OSM    HO312973   4.308   3.255   3.057 -1.0937  1.3991 -1.0638
  123OSM    C4S12974   4.205   3.399   3.298 -0.2400 -0.4730 -0.6641
  123OSM    H4S12975   4.167   3.499   3.322 -0.3548 -0.5520 -0.5160
  123OSM    C5S12976   4.225   3.310   3.394 -0.5172 -0.2530 -0.2504
  123OSM    H5S12977   4.260   3.210   3.365  1.0637  0.0320  0.5657
  123OSM    C6S12978   4.202   3.337   3.542 -0.1409  0.1065  0.3993
  123OSM    H6S12979   4.298   3.331   3.596  0.0116  0.6424  0.1891
  123OSM    H6T12980   4.133   3.257   3.577 -1.4008  0.1522 -1.7805
  123OSM    C7S12981   4.145   3.468   3.587 -1.1101  0.0040  0.0913
  123OSM    H7S12982   4.039   3.486   3.559 -1.4985  2.1310  2.5288
  123OSM    H7T12983   4.193   3.548   3.526  1.7028  0.7949  3.0857
  123OSM    C8S12984   4.177   3.514   3.726  0.2511 -0.0481  0.3839
  123OSM    H8S12985   4.108   3.598   3.751  2.0661  1.8070 -0.5137
  123OSM    H8T12986   4.282   3.551   3.737  0.4115  0.4492 -2.2610
  123OSM    C9S12987   4.159   3.399   3.827 -0.2212  0.3498 -0.5471
  123OSM    H9S12988   4.211   3.309   3.786  0.7921  0.9684 -0.6482
  123OSM    H9T12989   4.053   3.366   3.838 -0.2270  0.3162 -0.6903
  123OSM   C10S12990   4.211   3.450   3.963 -0.1543 -0.9453 -0.5546
  123OSM   H10S12991   4.166   3.550   3.976 -1.5711 -1.7167  0.9584
  123OSM   H10T12992   4.322   3.458   3.955 -0.1657 -0.4056 -0.1982
  123OSM   C11S12993   4.175   3.361   4.082 -0.3068 -0.2897  0.4217
  123OSM   H11S12994   4.263   3.308   4.123  0.4768  0.6697  0.0155
  123OSM   H11T12995   4.109   3.276   4.056 -0.2356 -1.2919  3.1934
  123OSM   C12S12996   4.116   3.430   4.208 -1.0978 -0.0433  0.4349
  123OSM   H12S12997   4.018   3.477   4.187 -1.5319 -0.6505  1.0638
  123OSM   H12T12998   4.184   3.518   4.215 -0.0535 -0.8539  0.8616
  123OSM   C13S12999   4.126   3.359   4.350  0.7049  0.0165  0.3161
  123OSM   H13S13000   4.225   3.314   4.368  1.2452  1.1699  0.3379
  123OSM   H13T13001   4.042   3.287   4.357 -1.4493  2.2828 -0.4395
  123OSM   C14S13002   4.103   3.454   4.471 -1.1044 -0.0967 -0.0191
  123OSM   H14S13003   4.033   3.537   4.442 -0.6405  0.8164  1.3865
  123OSM   H14T13004   4.200   3.500   4.499  1.0734 -4.8393  1.0843
  123OSM   C15S13005   4.041   3.391   4.597  0.7829 -0.0017  0.1915
  123OSM   H15S13006   3.946   3.341   4.567  0.5294  0.8954 -0.5760
  123OSM   H15T13007   4.013   3.470   4.669 -0.8354 -1.7158  1.5553
  123OSM   C16S13008   4.137   3.293   4.666 -0.7017  0.3172  0.5543
  123OSM   H16S13009   4.229   3.340   4.708  2.2942 -3.3887 -1.2455
  123OSM   H16T13010   4.172   3.232   4.580  0.6879  1.3411  0.3533
  123OSM   C17S13011   4.078   3.216   4.789 -1.3088 -0.3383 -0.4168
  123OSM   H17S13012   4.009   3.277   4.851  2.4968 -0.3307  4.3364
  123OSM   H17T13013   4.156   3.161   4.846 -0.3932 -1.7734 -2.8599
  123OSM   C18S13014   4.004   3.089   4.741  0.4709 -0.7021  0.4730
  123OSM   H18S13015   4.067   3.020   4.681  0.8763 -0.7638  0.9654
  123OSM   H18T13016   3.927   3.133   4.674  1.4185 -0.3781 -0.4148
  123OSM   H18U13017   3.946   3.048   4.827  0.7859  3.0789  2.6800
  123OSM    C1F13018   3.853   3.304   3.091 -0.4841 -0.3571  0.3124
  123OSM     OF13019   3.857   3.192   3.040  0.2209 -0.2615  0.0619
  123OSM    C2F13020   3.713   3.366   3.129 -0.1604 -0.1922 -0.1653
  123OSM    H2F13021   3.650   3.324   3.048  0.4493 -2.0950  0.2863
  123OSM    H2G13022   3.721   3.477   3.129  3.1494 -0.3178 -1.0111
  123OSM    C3F13023   3.670   3.317   3.268  0.3845 -0.4120  0.2377
  123OSM    H3F13024   3.647   3.208   3.274  1.7738 -0.8497 -1.6550
  123OSM    H3G13025   3.569   3.361   3.280  0.1650 -0.4625 -1.2730
  123OSM    C4F13026   3.759   3.372   3.389  0.3308  0.2134  0.3839
  123OSM    H4F13027   3.771   3.481   3.369  1.2848  0.4064  1.8517
  123OSM    H4G13028   3.863   3.333   3.393  0.3558  0.2798  0.3826
  123OSM    C5F13029   3.691   3.351   3.532 -0.0630 -0.0198  0.6297
  123OSM    H5F13030   3.670   3.246   3.560 -0.9970 -0.9190 -2.8418
  123OSM    H5G13031   3.589   3.396   3.528  0.1222  0.4184 -2.8964
  123OSM    C6F13032   3.760   3.428   3.649 -0.1433  0.3610  0.0755
  123OSM    H6F13033   3.771   3.533   3.614  2.5620  0.0324 -0.2528
  123OSM    H6G13034   3.857   3.375   3.658 -0.2049  0.3162  0.4844
  123OSM    C7F13035   3.683   3.413   3.781  0.1410  0.0698 -0.3552
  123OSM    H7F13036   3.674   3.303   3.791  0.8858  0.0997  0.8857
  123OSM    H7G13037   3.579   3.449   3.768 -0.0525 -0.9837 -2.0070
  123OSM    C8F13038   3.753   3.462   3.905  1.4410  0.7130  0.8258
  123OSM    H8F13039   3.852   3.415   3.921  2.4112  1.2607 -2.6505
  123OSM    H8G13040   3.694   3.427   3.992 -2.2617  0.5982 -1.5227
  123OSM    C9F13041   3.777   3.615   3.890  0.2577  1.2296 -0.6454
  123OSM    H9F13042   3.869   3.638   3.834  0.3329 -0.5695 -1.3236
  123OSM   C10F13043   3.707   3.717   3.950 -0.1642 -1.0815  0.5281
  123OSM   H10F13044   3.732   3.820   3.921 -1.6542 -1.2711 -1.6038
  123OSM   C11F13045   3.589   3.709   4.039  0.7603  0.5765  0.2955
  123OSM   H11F13046   3.537   3.611   4.026 -0.7537  1.3184  0.4778
  123OSM   H11G13047   3.519   3.790   4.009 -0.2089 -0.5372 -0.5825
  123OSM   C12F13048   3.622   3.730   4.181 -0.2109 -0.4634 -0.2998
  123OSM   H12F13049   3.533   3.768   4.236 -0.3364 -0.6535 -0.3682
  123OSM   H12G13050   3.696   3.812   4.180  0.2135 -0.8376 -0.1290
  123OSM   C13F13051   3.684   3.623   4.272  0.4262  0.0717 -0.7236
  123OSM   H13F13052   3.765   3.578   4.211 -0.9108 -2.9107 -0.4585
  123OSM   H13G13053   3.605   3.546   4.288 -1.2341  1.9897  0.8097
  123OSM   C14F13054   3.727   3.677   4.411  0.1375  0.1855  0.1588
  123OSM   H14F13055   3.662   3.764   4.433  1.6131  0.8849  2.0469
  123OSM   H14G13056   3.833   3.711   4.415  0.9188 -1.2900 -3.6780
  123OSM   C15F13057   3.692   3.573   4.519 -0.3847  0.4416 -0.2279
  123OSM   H15F13058   3.754   3.481   4.510 -0.3399  0.2249  1.7902
  123OSM   H15G13059   3.584   3.547   4.512  0.3021 -2.4333 -1.7345
  123OSM   C16F13060   3.724   3.618   4.662 -0.9923 -0.1876 -0.2051
  123OSM   H16F13061   3.677   3.717   4.678  2.7215  1.7919 -0.2410
  123OSM   H16G13062   3.831   3.638   4.687 -1.5799  3.6206 -0.0848
  123OSM   C17F13063   3.677   3.525   4.773  0.0614 -0.0789 -0.3662
  123OSM   H17F13064   3.572   3.543   4.804  0.7229  1.1955  1.3045
  123OSM   H17G13065   3.734   3.557   4.863  0.1649 -0.0275 -0.4498
  123OSM   C18F13066   3.705   3.377   4.746  1.0774 -0.2084  0.4897
  123OSM   H18F13067   3.673   3.316   4.833  0.0456 -0.5881 -0.1463
  123OSM   H18G13068   3.812   3.348   4.737  0.1575 -3.7910 -0.6190
  123OSM   H18H13069   3.650   3.340   4.657  0.4777  0.8598  0.3977
  124OSM      N13070   5.196   6.192   2.675  0.2991 -0.3611 -0.3959
  124OSM    C1513071   5.081   6.276   2.614  0.0443 -0.1689  0.2534
  124OSM   H15A13072   5.119   6.322   2.524 -1.0074 -0.2052 -0.2240
  124OSM   H15B13073   5.053   6.359   2.677 -0.7366  1.1514 -1.7240
  124OSM   H15C13074   4.992   6.220   2.591  0.1452 -0.1554 -0.1796
  124OSM    C1413075   5.206   6.078   2.578 -0.2054  0.4547  0.3666
  124OSM   H14A13076   5.111   6.045   2.540  0.6544  1.2269 -2.7910
  124OSM   H14B13077   5.249   5.990   2.624  0.4024  0.1613 -0.7122
  124OSM   H14C13078   5.270   6.119   2.500 -0.5293 -1.8106 -1.1717
  124OSM    C1313079   5.319   6.277   2.679  0.1709 -0.4315  0.2213
  124OSM   H13A13080   5.397   6.221   2.728 -0.1744 -2.6158 -1.5569
  124OSM   H13B13081   5.296   6.371   2.727  0.5006  1.1558 -2.4774
  124OSM   H13C13082   5.360   6.299   2.581 -0.8336  1.9129  0.2761
  124OSM    C1213083   5.161   6.148   2.818  0.0736 -0.3400 -0.3571
  124OSM   H12A13084   5.073   6.086   2.811 -0.6365  0.5755  0.3529
  124OSM   H12B13085   5.152   6.233   2.884  1.6915 -1.5462  1.5512
  124OSM    C1113086   5.269   6.070   2.898 -0.0652  0.9219  0.2698
  124OSM   H11A13087   5.256   6.043   3.005  2.5827  0.3847  0.5323
  124OSM   H11B13088   5.360   6.133   2.908  1.0325 -0.7633  1.4988
  124OSM      P13089   5.421   5.870   2.850 -0.3735 -0.4989  0.0742
  124OSM    O1313090   5.422   5.765   2.752 -0.3823  0.4866 -0.2742
  124OSM    O1413091   5.535   5.965   2.847 -0.1227  0.2547  0.1842
  124OSM    O1113092   5.404   5.804   2.985 -0.0984 -0.4769 -0.1858
  124OSM    O1213093   5.288   5.948   2.833  0.5714  0.2118  0.4732
  124OSM    C1S13094   5.290   5.729   3.017 -0.5901  0.2418  0.1230
  124OSM    H1S13095   5.283   5.630   2.967 -1.0140  0.0410  0.5791
  124OSM    H1T13096   5.191   5.775   2.999  0.2158  2.2196  0.5427
  124OSM     NF13097   5.188   5.571   3.183  0.4991  0.0741  0.8277
  124OSM    HNF13098   5.097   5.598   3.212  0.5448 -0.5656  1.6216
  124OSM    C2S13099   5.276   5.686   3.169 -0.0224  0.4266  0.1088
  124OSM    H2S13100   5.381   5.658   3.193  0.4073  1.0875 -0.9310
  124OSM    C3S13101   5.253   5.819   3.247  0.1258 -0.2506 -0.3130
  124OSM    H3S13102   5.155   5.854   3.206  0.4384  0.2667 -0.6338
  124OSM     O313103   5.342   5.925   3.218  1.0352  0.1464  0.3077
  124OSM    HO313104   5.384   5.889   3.140  0.2002 -1.5104  0.5569
  124OSM    C4S13105   5.216   5.798   3.399  0.1378  0.0990  0.7188
  124OSM    H4S13106   5.109   5.788   3.419  0.1050  0.1142  0.5576
  124OSM    C5S13107   5.307   5.811   3.498  0.8103 -0.2480 -0.5111
  124OSM    H5S13108   5.407   5.830   3.459 -0.7276  1.6543 -3.9718
  124OSM    C6S13109   5.297   5.806   3.649 -0.5319  0.5432 -0.0962
  124OSM    H6S13110   5.318   5.702   3.684  1.9179 -0.2240 -3.3347
  124OSM    H6T13111   5.189   5.825   3.670 -1.0753  2.1344 -3.6423
  124OSM    C7S13112   5.383   5.912   3.725  0.5743 -0.7491  0.5821
  124OSM    H7S13113   5.364   6.014   3.685 -0.4546 -0.8468  0.7925
  124OSM    H7T13114   5.484   5.874   3.699 -0.0260 -1.2745 -1.0857
  124OSM    C8S13115   5.362   5.902   3.877 -0.8972 -0.6676  0.0757
  124OSM    H8S13116   5.389   5.800   3.912  0.9326  0.1355  1.1767
  124OSM    H8T13117   5.257   5.921   3.906 -0.1540  2.3207  1.2403
  124OSM    C9S13118   5.432   6.020   3.942 -0.0253 -0.6423 -0.7645
  124OSM    H9S13119   5.389   6.112   3.895 -0.0596  0.4983  1.3990
  124OSM    H9T13120   5.541   6.007   3.925  0.6059  0.0230  2.2350
  124OSM   C10S13121   5.419   6.034   4.096  0.3351  0.3642 -1.0827
  124OSM   H10S13122   5.315   5.996   4.106 -0.2771  2.3471  0.9908
  124OSM   H10T13123   5.415   6.140   4.130  0.7368 -0.0939  0.4708
  124OSM   C11S13124   5.523   5.945   4.172  0.0117 -0.3829  0.8127
  124OSM   H11S13125   5.617   6.000   4.153 -0.8033  0.7606 -0.0571
  124OSM   H11T13126   5.531   5.847   4.121 -1.1910 -0.2132  0.2538
  124OSM   C12S13127   5.488   5.912   4.319 -0.1926  0.3703  0.5347
  124OSM   H12S13128   5.383   5.884   4.339  0.0252 -1.5739 -0.7672
  124OSM   H12T13129   5.496   6.008   4.375 -1.2030  0.2440  0.9146
  124OSM   C13S13130   5.579   5.806   4.377 -0.3132  0.7812 -0.5355
  124OSM   H13S13131   5.687   5.828   4.363  0.2699 -1.7419 -0.5125
  124OSM   H13T13132   5.583   5.711   4.318 -0.6536  1.1626 -1.1851
  124OSM   C14S13133   5.547   5.781   4.523 -0.7907  0.2968  0.1757
  124OSM   H14S13134   5.449   5.729   4.526 -0.3875 -0.6679 -1.6481
  124OSM   H14T13135   5.540   5.883   4.567 -2.9513  0.4046 -0.2924
  124OSM   C15S13136   5.646   5.698   4.606 -0.0885  0.0325 -0.5340
  124OSM   H15S13137   5.742   5.751   4.594  0.4087 -1.2613 -2.8781
  124OSM   H15T13138   5.655   5.595   4.564  1.6896  0.6787 -1.8299
  124OSM   C16S13139   5.593   5.692   4.752 -0.3087  0.0705  0.4336
  124OSM   H16S13140   5.490   5.652   4.756  0.1111 -0.9881  1.2377
  124OSM   H16T13141   5.579   5.798   4.785  0.3966 -0.4554  2.6084
  124OSM   C17S13142   5.677   5.608   4.843 -0.4724  0.2883 -0.7703
  124OSM   H17S13143   5.786   5.631   4.839 -0.0145 -1.7534 -0.7331
  124OSM   H17T13144   5.667   5.503   4.810 -1.4706  0.3328 -0.6362
  124OSM   C18S13145   5.641   5.626   4.993 -0.2593  0.0657 -0.2209
  124OSM   H18S13146   5.647   5.734   5.020  1.8328  0.2516 -1.1609
  124OSM   H18T13147   5.719   5.565   5.044 -1.9060 -0.0014  2.3694
  124OSM   H18U13148   5.536   5.592   5.001 -1.1913  1.4618 -4.1434
  124OSM    C1F13149   5.212   5.442   3.141  0.3907 -0.5221 -0.1813
  124OSM     OF13150   5.114   5.374   3.104  0.3708 -0.3645 -0.1740
  124OSM    C2F13151   5.356   5.394   3.129 -0.5506  0.1003 -0.1668
  124OSM    H2F13152   5.426   5.480   3.134  0.0354 -0.4366  2.7818
  124OSM    H2G13153   5.372   5.369   3.022  2.0143  3.1394 -0.6694
  124OSM    C3F13154   5.391   5.279   3.228  0.5065 -0.5884  0.3277
  124OSM    H3F13155   5.497   5.247   3.225  0.2911 -1.3378  0.5636
  124OSM    H3G13156   5.320   5.194   3.221 -0.9563  0.4482  1.6634
  124OSM    C4F13157   5.377   5.322   3.377  0.2067  0.2331  0.0573
  124OSM    H4F13158   5.412   5.235   3.436 -0.9737 -2.3344 -2.7216
  124OSM    H4G13159   5.270   5.343   3.400 -0.1184 -0.4809 -0.7149
  124OSM    C5F13160   5.471   5.433   3.425 -0.5878 -0.0910 -0.2123
  124OSM    H5F13161   5.453   5.533   3.379 -1.3107 -0.4442 -0.7109
  124OSM    H5G13162   5.575   5.419   3.389 -0.7692  0.7708 -1.1533
  124OSM    C6F13163   5.468   5.438   3.580 -0.0375 -0.7055 -0.8189
  124OSM    H6F13164   5.471   5.343   3.637  0.7132 -0.2956 -0.1455
  124OSM    H6G13165   5.372   5.485   3.610 -0.1910 -2.1117  1.0870
  124OSM    C7F13166   5.579   5.535   3.628 -0.1549  0.1217 -0.1024
  124OSM    H7F13167   5.544   5.637   3.600 -1.0748 -0.0435  0.3906
  124OSM    H7G13168   5.671   5.513   3.570 -1.2504  0.0269 -1.8754
  124OSM    C8F13169   5.617   5.523   3.772  0.4853 -0.5009 -0.6895
  124OSM    H8F13170   5.668   5.618   3.797  1.1275 -0.5227 -1.8620
  124OSM    H8G13171   5.694   5.444   3.780  0.2242 -0.6385  0.8440
  124OSM    C9F13172   5.494   5.501   3.861 -0.2373  0.1015 -0.2441
  124OSM    H9F13173   5.407   5.556   3.823  1.1336  0.9571 -2.3379
  124OSM   C10F13174   5.478   5.426   3.970 -0.0458 -0.9136 -0.2688
  124OSM   H10F13175   5.377   5.404   4.008  0.7294 -0.5846  2.1524
  124OSM   C11F13176   5.582   5.341   4.038  0.4470  0.4874 -0.3135
  124OSM   H11F13177   5.675   5.351   3.977 -0.7522  0.3222 -2.2836
  124OSM   H11G13178   5.563   5.233   4.017 -1.6106  1.0101 -1.3920
  124OSM   C12F13179   5.603   5.360   4.185  0.3776  0.3700  0.1539
  124OSM   H12F13180   5.501   5.372   4.229 -1.2555  1.1318 -3.4624
  124OSM   H12G13181   5.649   5.460   4.194 -0.8389  1.2584 -2.4491
  124OSM   C13F13182   5.673   5.248   4.253  0.1360 -0.1104  0.3063
  124OSM   H13F13183   5.770   5.242   4.199  0.8715  1.5447  1.3452
  124OSM   H13G13184   5.624   5.149   4.243  0.5814 -0.4090  0.9824
  124OSM   C14F13185   5.702   5.278   4.398  0.0697 -0.2069  0.3125
  124OSM   H14F13186   5.758   5.374   4.409  1.3271 -0.8703 -0.0880
  124OSM   H14G13187   5.776   5.201   4.430  0.4266 -0.5473 -1.2854
  124OSM   C15F13188   5.581   5.273   4.489  0.1292 -0.0087  0.3570
  124OSM   H15F13189   5.539   5.170   4.476  3.5455 -1.3948 -0.8604
  124OSM   H15G13190   5.514   5.360   4.475  1.8360  1.5478  1.4327
  124OSM   C16F13191   5.634   5.281   4.631  0.1900 -0.3477  0.1524
  124OSM   H16F13192   5.696   5.372   4.642  1.1510 -1.0707  0.7910
  124OSM   H16G13193   5.692   5.188   4.647 -0.1813 -0.5707  0.2257
  124OSM   C17F13194   5.511   5.292   4.721  0.0712 -0.3537 -0.2223
  124OSM   H17F13195   5.439   5.211   4.695 -0.2459  0.2100 -1.1172
  124OSM   H17G13196   5.448   5.383   4.714  0.7652  0.2489  1.0156
  124OSM   C18F13197   5.540   5.250   4.868 -0.2127  0.2672 -0.7069
  124OSM   H18F13198   5.451   5.231   4.932  0.3602  2.7311  0.9510
  124OSM   H18G13199   5.589   5.330   4.927  0.8869  0.3083 -1.6537
  124OSM   H18H13200   5.611   5.165   4.859 -0.7502 -0.6800  2.5230
  125OSM      N13201   5.841   1.798   2.634  0.0749 -0.4432 -0.2758
  125OSM    C1513202   5.805   1.945   2.612 -0.1485  0.6726  0.4645
  125OSM   H15A13203   5.818   1.971   2.508  0.0581  1.0049  0.5709
  125OSM   H15B13204   5.874   2.006   2.669  0.7859  3.2599 -3.0983
  125OSM   H15C13205   5.703   1.969   2.638  0.3664  0.9788  2.3768
  125OSM    C1413206   5.735   1.707   2.579 -0.6427  0.0057  0.3569
  125OSM   H14A13207   5.652   1.730   2.645 -1.0420  0.0908 -0.1646
  125OSM   H14B13208   5.763   1.603   2.588  1.3998  0.6496  2.3676
  125OSM   H14C13209   5.702   1.728   2.478 -0.5865  0.1887  0.3753
  125OSM    C1313210   5.969   1.783   2.566  0.4495 -0.1577  0.3600
  125OSM   H13A13211   6.047   1.835   2.620  1.0475  0.1161 -0.7521
  125OSM   H13B13212   5.963   1.824   2.467  0.6821 -0.0284  0.3985
  125OSM   H13C13213   5.997   1.681   2.547 -0.4364 -0.9443  2.8718
  125OSM    C1213214   5.865   1.768   2.784  0.6977 -0.0887  0.0912
  125OSM   H12A13215   5.884   1.662   2.792 -0.5939 -0.3681 -0.3409
  125OSM   H12B13216   5.777   1.803   2.836  0.7719 -1.2203  1.0177
  125OSM    C1113217   5.984   1.834   2.853 -0.0875 -0.4009  0.0443
  125OSM   H11A13218   6.069   1.767   2.830  0.3056  0.3195 -0.6417
  125OSM   H11B13219   5.960   1.832   2.962 -1.4659 -0.0572 -0.2248
  125OSM      P13220   6.159   2.022   2.783  0.0531 -0.2758 -0.1336
  125OSM    O1313221   6.234   1.928   2.698  0.6607 -0.3125  0.3893
  125OSM    O1413222   6.142   2.153   2.715 -0.2095  0.2963  0.2534
  125OSM    O1113223   6.238   2.040   2.915  0.3204 -0.5106  0.1620
  125OSM    O1213224   6.013   1.969   2.811 -0.1355 -0.1445  0.2442
  125OSM    C1S13225   6.201   2.152   2.997 -0.7618 -0.4971 -0.0059
  125OSM    H1S13226   6.100   2.138   3.039 -0.8649  1.4037  0.4649
  125OSM    H1T13227   6.205   2.246   2.938  2.4874 -1.7858 -2.1285
  125OSM     NF13228   6.255   2.301   3.173  0.3186 -0.4101 -0.4742
  125OSM    HNF13229   6.313   2.381   3.161  0.7769 -0.4429  1.2858
  125OSM    C2S13230   6.300   2.173   3.113  0.2951 -1.1643  0.0339
  125OSM    H2S13231   6.292   2.087   3.184  1.2508 -0.3600  1.1463
  125OSM    C3S13232   6.448   2.164   3.057  0.0914 -0.3873 -0.7740
  125OSM    H3S13233   6.452   2.243   2.979  0.2984 -0.1162 -0.4862
  125OSM     O313234   6.490   2.046   2.993 -0.1615 -0.1674 -0.3063
  125OSM    HO313235   6.408   2.000   2.974  1.2769 -3.4971  0.7588
  125OSM    C4S13236   6.528   2.182   3.183  0.2139 -0.2757  0.6530
  125OSM    H4S13237   6.565   2.284   3.196  0.7138 -0.5141  1.1779
  125OSM    C5S13238   6.570   2.098   3.280 -0.7966  0.2873 -0.0013
  125OSM    H5S13239   6.549   1.991   3.282  1.9697 -0.3438  2.8665
  125OSM    C6S13240   6.680   2.137   3.377 -0.3022  0.3491  1.0992
  125OSM    H6S13241   6.725   2.231   3.339 -1.6475  0.2961 -0.7612
  125OSM    H6T13242   6.764   2.064   3.379 -0.0278  0.5626  4.7918
  125OSM    C7S13243   6.629   2.142   3.526 -0.6737  0.2709  0.8062
  125OSM    H7S13244   6.572   2.049   3.547  0.6560 -0.1091  2.9944
  125OSM    H7T13245   6.553   2.223   3.526 -1.3867 -0.2670 -2.5827
  125OSM    C8S13246   6.741   2.153   3.628  0.4648 -0.5694  0.3365
  125OSM    H8S13247   6.789   2.253   3.624 -0.7142 -0.0171 -1.0680
  125OSM    H8T13248   6.813   2.074   3.599  0.9235  0.3097 -1.0189
  125OSM    C9S13249   6.682   2.142   3.765 -0.6325 -0.1669 -0.3910
  125OSM    H9S13250   6.593   2.077   3.782 -1.6903  1.3945  0.2264
  125OSM    H9T13251   6.642   2.245   3.776 -0.3514 -0.1537  0.6659
  125OSM   C10S13252   6.794   2.118   3.871 -1.0827 -0.0110 -0.0229
  125OSM   H10S13253   6.868   2.200   3.866  0.0194 -0.9610  0.2365
  125OSM   H10T13254   6.847   2.028   3.832  2.1579  1.5480  0.4749
  125OSM   C11S13255   6.739   2.108   4.014  0.1679  0.1839 -0.4489
  125OSM   H11S13256   6.827   2.065   4.066 -0.0273 -0.7376 -0.8488
  125OSM   H11T13257   6.655   2.036   4.004  0.4159  0.1073 -2.5681
  125OSM   C12S13258   6.705   2.244   4.074  0.3470  0.3439 -0.0212
  125OSM   H12S13259   6.619   2.285   4.017  1.9306 -0.3577 -3.1264
  125OSM   H12T13260   6.780   2.325   4.067 -1.4832  2.1993  0.5973
  125OSM   C13S13261   6.684   2.231   4.225 -0.2484  0.1855 -0.2641
  125OSM   H13S13262   6.648   2.128   4.247  3.1280 -0.7491  1.6895
  125OSM   H13T13263   6.605   2.296   4.268 -1.3133 -0.0211 -1.8272
  125OSM   C14S13264   6.811   2.259   4.303 -0.0770 -1.1119  0.3289
  125OSM   H14S13265   6.829   2.368   4.288 -1.0875 -1.0356 -0.4207
  125OSM   H14T13266   6.897   2.209   4.253  0.7337  1.1200 -0.6307
  125OSM   C15S13267   6.809   2.245   4.453  0.0907  0.6337 -0.7747
  125OSM   H15S13268   6.758   2.146   4.447 -0.6547  1.0508 -1.5877
  125OSM   H15T13269   6.742   2.323   4.495  0.6994 -0.0801  1.7445
  125OSM   C16S13270   6.943   2.249   4.526  0.5605 -0.2414  0.2377
  125OSM   H16S13271   6.986   2.351   4.536  1.5623 -0.7329  1.1733
  125OSM   H16T13272   7.019   2.185   4.477 -0.4858 -2.6423  1.5994
  125OSM   C17S13273   6.921   2.203   4.674 -0.0443 -0.4028 -0.1101
  125OSM   H17S13274   6.878   2.101   4.668  0.8377 -0.8521  0.8820
  125OSM   H17T13275   6.847   2.276   4.714  0.2454 -0.5876  0.7919
  125OSM   C18S13276   7.038   2.209   4.773  0.1533  1.0419 -0.2463
  125OSM   H18S13277   7.108   2.125   4.751 -0.0657  1.0632 -1.0701
  125OSM   H18T13278   6.992   2.188   4.872  1.2717 -4.0323 -0.5335
  125OSM   H18U13279   7.089   2.308   4.775  1.6218  0.3175 -0.0835
  125OSM    C1F13280   6.143   2.307   3.247  0.0481 -0.1643  0.4822
  125OSM     OF13281   6.084   2.204   3.268  0.1256  0.5736  0.7584
  125OSM    C2F13282   6.102   2.436   3.316 -0.1755  0.4074  0.4676
  125OSM    H2F13283   6.077   2.522   3.250  1.2620 -0.1807 -0.9290
  125OSM    H2G13284   6.193   2.460   3.375  0.5445 -2.5229  0.6958
  125OSM    C3F13285   5.995   2.425   3.435 -0.4390 -0.3452  0.0175
  125OSM    H3F13286   5.991   2.325   3.484 -2.1460 -0.4174 -0.2112
  125OSM    H3G13287   5.898   2.430   3.382 -0.5893 -1.4156  0.1801
  125OSM    C4F13288   5.998   2.548   3.530  0.0148  0.6716  0.4530
  125OSM    H4F13289   6.005   2.640   3.468  1.7599  0.2606 -0.0075
  125OSM    H4G13290   6.090   2.530   3.589  1.2514  1.8677 -1.0156
  125OSM    C5F13291   5.880   2.561   3.626 -0.2257  0.0051  0.7019
  125OSM    H5F13292   5.873   2.468   3.687  1.0876 -0.6591 -0.1137
  125OSM    H5G13293   5.785   2.553   3.567  0.7235  0.1972 -0.9143
  125OSM    C6F13294   5.891   2.684   3.721 -0.5588  0.0537  0.3043
  125OSM    H6F13295   5.804   2.699   3.789 -1.1046  0.7324 -0.5209
  125OSM    H6G13296   5.887   2.776   3.660 -2.9875  0.3447  0.8033
  125OSM    C7F13297   6.022   2.686   3.817 -0.1840 -0.2531 -0.9228
  125OSM    H7F13298   6.018   2.783   3.871  1.0224 -1.2765  1.1146
  125OSM    H7G13299   6.106   2.694   3.744  0.9728 -2.4132  0.0753
  125OSM    C8F13300   6.043   2.571   3.918 -0.4662  0.9755 -0.0208
  125OSM    H8F13301   6.138   2.604   3.964  0.8372  0.3129 -2.1253
  125OSM    H8G13302   6.068   2.482   3.857 -0.2616  1.3137 -0.4323
  125OSM    C9F13303   5.938   2.548   4.021  0.1288  0.1317 -0.2400
  125OSM    H9F13304   5.859   2.480   3.984 -0.5081  0.7758 -0.0826
  125OSM   C10F13305   5.938   2.605   4.142 -0.0467 -0.8714  0.6774
  125OSM   H10F13306   5.858   2.568   4.208  0.7026 -1.1038  1.4680
  125OSM   C11F13307   6.040   2.701   4.197 -0.7525 -0.5166 -0.0396
  125OSM   H11F13308   6.090   2.748   4.109 -0.2647 -1.8022 -0.4749
  125OSM   H11G13309   6.119   2.643   4.249  1.2528  1.5842 -0.5556
  125OSM   C12F13310   5.977   2.818   4.280 -0.2054  0.9440  0.3190
  125OSM   H12F13311   5.933   2.896   4.214 -0.3428  1.9094  1.5109
  125OSM   H12G13312   6.070   2.857   4.328 -1.9213  0.9795  3.9893
  125OSM   C13F13313   5.881   2.772   4.392  0.1377 -0.4837  0.6465
  125OSM   H13F13314   5.917   2.680   4.444 -0.9064  0.3364  2.9331
  125OSM   H13G13315   5.791   2.742   4.334  0.1374 -0.3293  0.5660
  125OSM   C14F13316   5.848   2.892   4.482 -0.8374  0.2619 -0.1338
  125OSM   H14F13317   5.814   2.975   4.417 -0.3673  2.5102  2.3169
  125OSM   H14G13318   5.944   2.924   4.529 -0.0292 -0.3373 -1.3000
  125OSM   C15F13319   5.744   2.862   4.584 -0.2169 -0.4816  0.2415
  125OSM   H15F13320   5.667   2.805   4.528 -0.6049  1.4729 -1.3498
  125OSM   H15G13321   5.699   2.956   4.622  1.2829 -0.7835  3.0192
  125OSM   C16F13322   5.796   2.786   4.694 -0.2137  0.2540 -0.1639
  125OSM   H16F13323   5.867   2.852   4.749  1.3865 -0.4506 -1.3281
  125OSM   H16G13324   5.845   2.689   4.671  0.1659  0.2125  0.7570
  125OSM   C17F13325   5.697   2.751   4.808  1.2543 -0.6409 -0.3663
  125OSM   H17F13326   5.611   2.695   4.767  0.6041  0.2954 -0.3002
  125OSM   H17G13327   5.645   2.839   4.850 -1.8264 -2.3389 -0.3666
  125OSM   C18F13328   5.764   2.683   4.924  0.1231  0.2546 -1.0512
  125OSM   H18F13329   5.865   2.720   4.953  0.0610  0.6685 -1.3545
  125OSM   H18G13330   5.772   2.576   4.896 -1.4700 -0.5298  1.2574
  125OSM   H18H13331   5.696   2.691   5.011  0.5167 -1.4861 -0.5527
  126OSM      N13332   4.017   0.230   2.669  0.1791  0.0649  0.2770
  126OSM    C1513333   4.148   0.227   2.606  0.1331 -0.0774  0.4571
  126OSM   H15A13334   4.141   0.271   2.508  0.7565 -1.0871 -0.0522
  126OSM   H15B13335   4.177   0.124   2.592 -0.6898 -0.3080  0.3691
  126OSM   H15C13336   4.215   0.287   2.665  1.4600 -1.7466  0.7289
  126OSM    C1413337   3.971   0.364   2.688  0.7715 -0.0576 -0.3648
  126OSM   H14A13338   4.032   0.399   2.769  3.4293 -0.8304 -1.9124
  126OSM   H14B13339   3.864   0.374   2.696  0.8158  2.4026 -1.7036
  126OSM   H14C13340   3.999   0.432   2.608  1.5747 -0.6398 -0.5868
  126OSM    C1313341   3.910   0.162   2.594 -0.2789  0.4931  0.6457
  126OSM   H13A13342   3.908   0.208   2.497 -2.1403  1.6726  1.1768
  126OSM   H13B13343   3.808   0.172   2.629 -0.2621 -1.8950  1.5091
  126OSM   H13C13344   3.928   0.056   2.583  1.0120  0.9071 -1.8379
  126OSM    C1213345   4.028   0.175   2.810 -0.4389 -0.7414  0.0155
  126OSM   H12A13346   4.045   0.069   2.810  0.0541 -0.6679  0.0336
  126OSM   H12B13347   3.933   0.187   2.860 -0.4888  3.1290 -0.6591
  126OSM    C1113348   4.142   0.219   2.912  0.0480  0.0329  0.2091
  126OSM   H11A13349   4.239   0.182   2.872 -1.5153 -1.3945 -2.5193
  126OSM   H11B13350   4.129   0.167   3.010  1.8916  0.8620  0.9443
  126OSM      P13351   4.262   0.456   2.905  0.0672  0.0693 -0.5136
  126OSM    O1313352   4.333   0.413   2.784 -0.5751  0.1768  0.4067
  126OSM    O1413353   4.214   0.593   2.917  0.1306 -0.5385  0.2338
  126OSM    O1113354   4.361   0.414   3.025  0.0869 -0.1123  0.0683
  126OSM    O1213355   4.138   0.359   2.937  0.6154 -0.4906  0.3310
  126OSM    C1S13356   4.331   0.321   3.130 -0.3310 -0.4895  0.4061
  126OSM    H1S13357   4.344   0.218   3.090  1.8522 -0.0529 -0.1375
  126OSM    H1T13358   4.224   0.332   3.158 -0.4617 -0.6954  0.0024
  126OSM     NF13359   4.414   0.220   3.337 -0.6622 -0.1755 -0.0087
  126OSM    HNF13360   4.357   0.232   3.417 -0.1427 -0.9103  0.4808
  126OSM    C2S13361   4.429   0.336   3.254 -0.8574 -0.2732  0.1470
  126OSM    H2S13362   4.537   0.346   3.228 -1.2269 -0.8480 -1.7553
  126OSM    C3S13363   4.391   0.477   3.315  0.2507 -0.2717  0.5910
  126OSM    H3S13364   4.281   0.474   3.333  0.2466  1.6845  1.0981
  126OSM     O313365   4.395   0.594   3.225  0.1541  0.3238 -0.0600
  126OSM    HO313366   4.404   0.561   3.136  0.8858 -1.0717  0.5099
  126OSM    C4S13367   4.459   0.505   3.449 -0.1696  0.4274  0.0999
  126OSM    H4S13368   4.434   0.443   3.537 -1.2106  1.7571  0.7702
  126OSM    C5S13369   4.554   0.593   3.469  0.5510  0.6613  0.0092
  126OSM    H5S13370   4.585   0.655   3.384 -1.8429 -0.3173 -1.6759
  126OSM    C6S13371   4.630   0.621   3.596  0.7123  0.3668 -0.2769
  126OSM    H6S13372   4.622   0.727   3.626  0.1669 -0.0926  1.2746
  126OSM    H6T13373   4.738   0.598   3.586  0.9945  1.5101  0.0616
  126OSM    C7S13374   4.580   0.557   3.722 -0.1416  0.2883  0.8899
  126OSM    H7S13375   4.594   0.447   3.712 -0.4133  0.1247  2.1511
  126OSM    H7T13376   4.471   0.563   3.741 -0.2613  0.4135  0.2030
  126OSM    C8S13377   4.638   0.626   3.851  0.1044 -0.1624  0.0190
  126OSM    H8S13378   4.581   0.721   3.856 -1.6758 -1.1823  0.0892
  126OSM    H8T13379   4.747   0.645   3.837  0.0523  1.1206  1.1184
  126OSM    C9S13380   4.606   0.553   3.972  0.2717  0.5389 -0.3324
  126OSM    H9S13381   4.628   0.445   3.954  0.0255  0.5342 -0.6066
  126OSM    H9T13382   4.500   0.565   4.001  0.5215  1.0661  0.3855
  126OSM   C10S13383   4.689   0.608   4.095 -0.1176  0.4112  0.4908
  126OSM   H10S13384   4.640   0.705   4.116  0.5771  0.9688 -0.3823
  126OSM   H10T13385   4.793   0.617   4.058  0.4684 -1.0802  1.6618
  126OSM   C11S13386   4.677   0.519   4.215 -0.3592  0.2767 -0.2144
  126OSM   H11S13387   4.762   0.538   4.285  1.0311  1.5741 -2.1533
  126OSM   H11T13388   4.678   0.411   4.188 -0.6393  0.0257  0.7276
  126OSM   C12S13389   4.551   0.555   4.291 -0.0331 -0.6028  0.1752
  126OSM   H12S13390   4.466   0.541   4.220 -0.9411 -2.7479  1.5494
  126OSM   H12T13391   4.536   0.658   4.329  0.8963  0.0603 -1.1737
  126OSM   C13S13392   4.529   0.460   4.415  0.1662 -1.3720  0.6813
  126OSM   H13S13393   4.523   0.353   4.385 -0.5756 -1.0070 -0.5225
  126OSM   H13T13394   4.440   0.494   4.473 -1.3889 -0.4113 -2.1077
  126OSM   C14S13395   4.644   0.481   4.513 -0.6333 -0.0776  0.4135
  126OSM   H14S13396   4.669   0.589   4.516 -2.3411  0.3351  0.8635
  126OSM   H14T13397   4.726   0.436   4.453 -1.8157 -0.8962 -0.6381
  126OSM   C15S13398   4.620   0.427   4.649  0.1127  0.4566  0.5147
  126OSM   H15S13399   4.722   0.398   4.682  0.8907 -1.0749 -2.8455
  126OSM   H15T13400   4.551   0.340   4.648  1.8343 -0.9783  0.0389
  126OSM   C16S13401   4.557   0.533   4.749 -0.0567  1.0177 -0.3055
  126OSM   H16S13402   4.475   0.592   4.703  0.4359  1.6686 -0.3613
  126OSM   H16T13403   4.636   0.605   4.779  0.6601 -0.1559  0.7330
  126OSM   C17S13404   4.515   0.463   4.877 -0.7960  0.2998 -0.6308
  126OSM   H17S13405   4.608   0.419   4.920 -0.0674  2.4120  0.0915
  126OSM   H17T13406   4.443   0.382   4.854 -2.2093 -0.2463  4.3995
  126OSM   C18S13407   4.453   0.556   4.985 -0.0487 -0.2122 -0.3137
  126OSM   H18S13408   4.516   0.644   5.012 -2.1786  0.9180  1.1966
  126OSM   H18T13409   4.434   0.491   5.073 -1.6041  2.6019  1.5785
  126OSM   H18U13410   4.367   0.607   4.937  0.5645  1.7204  0.5242
  126OSM    C1F13411   4.468   0.100   3.316 -0.6755  0.2770  0.1078
  126OSM     OF13412   4.524   0.082   3.205  0.2880 -0.0618 -0.2049
  126OSM    C2F13413   4.450  -0.011   3.416  0.1224  0.3330  0.4088
  126OSM    H2F13414   4.352  -0.063   3.405 -0.4486  0.3465  4.0154
  126OSM    H2G13415   4.458   0.031   3.519  0.0514  0.0914  0.5136
  126OSM    C3F13416   4.565  -0.116   3.413  0.0630  0.3057  0.2050
  126OSM    H3F13417   4.668  -0.074   3.420  1.0092 -1.5102 -1.6203
  126OSM    H3G13418   4.560  -0.170   3.316 -0.8279 -2.3409  1.6193
  126OSM    C4F13419   4.537  -0.225   3.514  0.3363  0.1105  0.2493
  126OSM    H4F13420   4.599  -0.313   3.488 -0.1486 -0.0308 -0.4444
  126OSM    H4G13421   4.432  -0.258   3.502  0.7877 -0.8077 -1.5332
  126OSM    C5F13422   4.575  -0.183   3.659  0.1765  0.5656  0.5089
  126OSM    H5F13423   4.518  -0.093   3.689 -0.4485 -0.2428  1.8571
  126OSM    H5G13424   4.685  -0.169   3.674  0.4836 -0.5607 -0.4925
  126OSM    C6F13425   4.546  -0.284   3.767  0.5196 -0.0616  0.0345
  126OSM    H6F13426   4.575  -0.382   3.723 -1.1035 -0.8019  0.5611
  126OSM    H6G13427   4.438  -0.278   3.790  0.7532  1.9725  0.7514
  126OSM    C7F13428   4.628  -0.277   3.895 -0.3742 -0.4416 -0.1374
  126OSM    H7F13429   4.680  -0.179   3.894 -1.2393  0.0524  1.0733
  126OSM    H7G13430   4.715  -0.345   3.884  1.4021  1.8180 -0.9702
  126OSM    C8F13431   4.556  -0.302   4.028 -0.1805  0.3734  0.1073
  126OSM    H8F13432   4.625  -0.303   4.116 -1.3291  0.0739  1.0390
  126OSM    H8G13433   4.527  -0.409   4.032  3.0847 -0.7138 -1.8699
  126OSM    C9F13434   4.435  -0.220   4.059  0.0481  0.1626  0.3266
  126OSM    H9F13435   4.339  -0.274   4.047  0.0249  0.1077  0.7503
  126OSM   C10F13436   4.419  -0.099   4.109 -0.6230 -0.7401 -0.2167
  126OSM   H10F13437   4.316  -0.061   4.119 -0.5456  0.2154 -2.4498
  126OSM   C11F13438   4.531  -0.007   4.145  0.0922  0.1368 -0.5303
  126OSM   H11F13439   4.522   0.089   4.091 -1.1173  0.5601  0.3755
  126OSM   H11G13440   4.631  -0.050   4.122  0.1751  0.8072 -1.4748
  126OSM   C12F13441   4.535   0.038   4.290 -0.0253 -0.1960  0.3755
  126OSM   H12F13442   4.437   0.071   4.331  1.0825  0.1429  2.9402
  126OSM   H12G13443   4.597   0.130   4.295 -0.9160  0.4532 -0.1914
  126OSM   C13F13444   4.592  -0.068   4.383 -0.0525  1.0092 -0.0573
  126OSM   H13F13445   4.696  -0.095   4.354 -0.1697  0.0276  0.3976
  126OSM   H13G13446   4.540  -0.166   4.379 -0.4122  0.9516  3.2256
  126OSM   C14F13447   4.582  -0.038   4.532 -0.7035  0.3006  0.3934
  126OSM   H14F13448   4.607   0.070   4.546  2.4212 -0.0769 -1.2864
  126OSM   H14G13449   4.673  -0.081   4.579 -0.1975  0.7927 -0.1136
  126OSM   C15F13450   4.459  -0.091   4.613 -0.0538  0.0209 -0.0051
  126OSM   H15F13451   4.455  -0.201   4.629 -0.6433 -0.4138 -2.5957
  126OSM   H15G13452   4.378  -0.058   4.543  1.3723 -2.4479 -3.0782
  126OSM   C16F13453   4.441  -0.021   4.747  0.9434  0.4056 -0.4565
  126OSM   H16F13454   4.339  -0.043   4.786  1.4065  0.9917  1.1561
  126OSM   H16G13455   4.430   0.087   4.726 -0.2574 -0.2353 -3.8143
  126OSM   C17F13456   4.542  -0.067   4.852  0.5524 -0.6960  0.3102
  126OSM   H17F13457   4.642  -0.037   4.814 -0.3316 -0.2509 -1.8585
  126OSM   H17G13458   4.544  -0.176   4.870  0.6933 -0.9101 -0.8915
  126OSM   C18F13459   4.517   0.001   4.987  0.6670 -0.4056  0.1236
  126OSM   H18F13460   4.433  -0.048   5.041  0.7863  0.1664  0.8427
  126OSM   H18G13461   4.513   0.110   4.966 -0.2999 -0.4869 -0.1395
  126OSM   H18H13462   4.608  -0.011   5.050  1.4874  0.1725 -0.9185
  127OSM      N13463   2.823   3.955   2.517  0.4599  0.1413  0.0939
  127OSM    C1513464   2.915   3.847   2.469  0.1637  0.4664  0.4079
  127OSM   H15A13465   3.003   3.891   2.425  0.0710  1.4843  1.2085
  127OSM   H15B13466   2.869   3.772   2.405  0.6888  2.8217 -2.9983
  127OSM   H15C13467   2.951   3.797   2.558  1.8115 -0.4158 -0.7227
  127OSM    C1413468   2.764   4.016   2.394 -0.6444 -0.1545  0.1726
  127OSM   H14A13469   2.697   4.096   2.420 -0.8197 -1.1143  2.9384
  127OSM   H14B13470   2.713   3.942   2.334 -1.7430 -0.0092  0.9094
  127OSM   H14C13471   2.840   4.067   2.336  0.7394 -1.0737  1.1125
  127OSM    C1313472   2.703   3.893   2.584  0.7987 -0.2701  0.7277
  127OSM   H13A13473   2.724   3.853   2.682  2.7283 -2.0348 -0.3265
  127OSM   H13B13474   2.666   3.823   2.511  3.5201  1.8010 -3.0000
  127OSM   H13C13475   2.625   3.968   2.588  0.0251 -0.8829 -1.5809
  127OSM    C1213476   2.892   4.062   2.605 -0.4111  0.2864 -0.3316
  127OSM   H12A13477   2.826   4.145   2.623 -1.8035 -1.0141  0.7361
  127OSM   H12B13478   2.981   4.103   2.559  0.8700 -0.3381  1.4867
  127OSM    C1113479   2.945   4.015   2.741  0.2146  0.3922  0.2318
  127OSM   H11A13480   3.018   3.933   2.724  0.6677  1.1297 -1.5632
  127OSM   H11B13481   2.860   3.976   2.802 -2.9848  0.1748 -3.8908
  127OSM      P13482   2.938   4.226   2.875  0.2239 -0.4668  0.2370
  127OSM    O1313483   3.026   4.347   2.893 -0.3560 -0.0963 -0.0883
  127OSM    O1413484   2.805   4.256   2.826 -0.5533 -0.2596 -0.0046
  127OSM    O1113485   2.926   4.162   3.022 -0.2420 -0.8245  0.0147
  127OSM    O1213486   3.018   4.119   2.793  0.4001 -0.1656 -0.3999
  127OSM    C1S13487   3.046   4.102   3.081 -1.1763 -1.3521 -0.2948
  127OSM    H1S13488   3.141   4.157   3.064 -1.5524 -1.2831 -2.5432
  127OSM    H1T13489   3.073   4.000   3.044  0.6261 -0.9490 -0.2009
  127OSM     NF13490   3.143   4.055   3.300 -0.6040 -0.0708  0.4634
  127OSM    HNF13491   3.156   3.960   3.328  1.8713  0.4139  1.1334
  127OSM    C2S13492   3.019   4.082   3.229  0.1983 -0.1739  0.7034
  127OSM    H2S13493   2.982   4.182   3.262  3.1770  1.5389 -0.7622
  127OSM    C3S13494   2.906   3.970   3.242  0.2005  0.6737  0.4653
  127OSM    H3S13495   2.953   3.880   3.195 -2.8779  0.1956 -2.0234
  127OSM     O313496   2.781   4.002   3.180 -0.8247 -0.1144 -0.1010
  127OSM    HO313497   2.810   4.070   3.118 -0.2312 -2.1012 -2.1235
  127OSM    C4S13498   2.879   3.919   3.383  0.1775 -0.4984 -0.1960
  127OSM    H4S13499   2.848   3.991   3.460  1.0789 -2.5864  2.2757
  127OSM    C5S13500   2.885   3.791   3.435  0.3280 -0.0613 -0.2816
  127OSM    H5S13501   2.910   3.704   3.374  0.1212 -2.0393  2.2983
  127OSM    C6S13502   2.849   3.741   3.571  0.0602 -0.0185  0.2194
  127OSM    H6S13503   2.941   3.690   3.608  1.9851  2.3765 -0.9693
  127OSM    H6T13504   2.763   3.672   3.560  1.6746 -1.8363 -1.8688
  127OSM    C7S13505   2.793   3.830   3.687  0.3661  0.8225  0.4391
  127OSM    H7S13506   2.696   3.879   3.666  0.3651  1.4199  1.6947
  127OSM    H7T13507   2.877   3.899   3.712  1.5982 -0.5378  0.2362
  127OSM    C8S13508   2.781   3.736   3.808 -0.2811  0.4707  0.2707
  127OSM    H8S13509   2.874   3.676   3.818  0.2389  1.4164  1.5688
  127OSM    H8T13510   2.695   3.667   3.793  2.1068 -2.1617 -2.5923
  127OSM    C9S13511   2.759   3.807   3.940 -0.2736  0.1225 -0.1156
  127OSM    H9S13512   2.702   3.902   3.930 -1.2621 -0.3013  1.2132
  127OSM    H9T13513   2.863   3.825   3.975 -0.2779 -2.6859  1.7076
  127OSM   C10S13514   2.703   3.718   4.049 -0.8145  0.0343  0.7144
  127OSM   H10S13515   2.731   3.612   4.032  1.6046  0.2743  2.5837
  127OSM   H10T13516   2.593   3.729   4.059 -0.9873 -1.1286  0.1837
  127OSM   C11S13517   2.760   3.759   4.181  0.0855 -0.1903 -0.3785
  127OSM   H11S13518   2.742   3.866   4.202  0.2684 -0.4558  1.3221
  127OSM   H11T13519   2.871   3.752   4.183  0.3137  2.3249  1.8430
  127OSM   C12S13520   2.690   3.674   4.297 -0.4095 -0.0690 -0.5554
  127OSM   H12S13521   2.720   3.567   4.284  0.0755 -0.1166  0.7820
  127OSM   H12T13522   2.583   3.691   4.272 -0.8018 -0.8782  0.4761
  127OSM   C13S13523   2.725   3.742   4.422  0.2005  0.1260  0.5005
  127OSM   H13S13524   2.679   3.841   4.441  0.8223  0.4195  0.5178
  127OSM   H13T13525   2.836   3.750   4.431  0.5683 -1.7258 -1.5901
  127OSM   C14S13526   2.683   3.654   4.538 -0.1422  0.2230  0.6292
  127OSM   H14S13527   2.743   3.560   4.544 -1.3639 -0.4904  2.6324
  127OSM   H14T13528   2.576   3.626   4.536  0.5137 -2.7057  1.5096
  127OSM   C15S13529   2.710   3.728   4.679  0.7470  0.1950  0.1237
  127OSM   H15S13530   2.626   3.798   4.701  2.4290  2.4671 -0.4335
  127OSM   H15T13531   2.800   3.785   4.648  0.8343  0.2248  0.4373
  127OSM   C16S13532   2.733   3.636   4.802  0.5230 -0.3616 -0.1564
  127OSM   H16S13533   2.784   3.690   4.884 -3.0668 -0.1181  2.0938
  127OSM   H16T13534   2.787   3.545   4.767 -0.5831 -1.3665  0.6821
  127OSM   C17S13535   2.597   3.588   4.868  0.5960 -0.3217 -0.3997
  127OSM   H17S13536   2.549   3.527   4.789 -0.6381  0.4758 -0.3021
  127OSM   H17T13537   2.534   3.678   4.886 -0.3137 -0.5975 -2.0919
  127OSM   C18S13538   2.621   3.510   5.001 -0.1048 -0.6099  0.2400
  127OSM   H18S13539   2.670   3.413   4.978  1.0218  0.0787 -0.3918
  127OSM   H18T13540   2.526   3.492   5.055 -0.4726  3.8058  1.4811
  127OSM   H18U13541   2.688   3.571   5.065 -0.8781  1.0756 -0.4735
  127OSM    C1F13542   3.248   4.131   3.331  0.0613 -0.3557  0.4236
  127OSM     OF13543   3.255   4.247   3.285  0.0474  0.6075 -0.2130
  127OSM    C2F13544   3.346   4.082   3.433  0.4211 -0.2743 -0.2808
  127OSM    H2F13545   3.449   4.081   3.392 -0.0011 -0.4796 -1.3689
  127OSM    H2G13546   3.319   3.980   3.466 -0.7598  0.1571  0.1529
  127OSM    C3F13547   3.339   4.165   3.568 -0.0319 -0.9356  0.1860
  127OSM    H3F13548   3.236   4.184   3.605  0.4625  0.1236  1.0795
  127OSM    H3G13549   3.375   4.268   3.547  1.6951 -1.0869  2.0641
  127OSM    C4F13550   3.411   4.105   3.685  0.6978  0.2908 -0.0546
  127OSM    H4F13551   3.521   4.097   3.671  0.9583 -3.1737  2.7136
  127OSM    H4G13552   3.378   3.999   3.696  1.1799 -0.0258 -1.4157
  127OSM    C5F13553   3.371   4.175   3.818  0.0069  0.1515 -0.5519
  127OSM    H5F13554   3.268   4.217   3.821  0.2120  0.6903 -0.9382
  127OSM    H5G13555   3.441   4.261   3.817  0.7811 -0.3940  1.3441
  127OSM    C6F13556   3.409   4.096   3.940 -0.8563 -0.0028  0.0230
  127OSM    H6F13557   3.497   4.037   3.906  0.6802  1.9865  0.3213
  127OSM    H6G13558   3.336   4.016   3.964 -1.7254  0.8972  0.4527
  127OSM    C7F13559   3.449   4.165   4.062  0.2767  0.1124 -0.6812
  127OSM    H7F13560   3.365   4.233   4.087 -0.0791 -0.3178 -0.6978
  127OSM    H7G13561   3.529   4.240   4.044  1.7458 -1.0499  0.6604
  127OSM    C8F13562   3.493   4.088   4.182  0.1073  0.1708  0.2327
  127OSM    H8F13563   3.595   4.048   4.166  0.2581  0.1852  1.1526
  127OSM    H8G13564   3.426   4.004   4.207  0.4352 -0.0575  0.3492
  127OSM    C9F13565   3.493   4.183   4.296  0.5206  0.0266 -0.1394
  127OSM    H9F13566   3.517   4.287   4.269 -2.0494  1.0142  1.0312
  127OSM   C10F13567   3.462   4.156   4.427  0.0388  0.3379  0.7155
  127OSM   H10F13568   3.467   4.246   4.490 -1.3424  1.5932 -0.8757
  127OSM   C11F13569   3.432   4.016   4.486  0.1039 -0.0259 -0.0865
  127OSM   H11F13570   3.477   3.943   4.414  0.4448 -0.6646  0.7582
  127OSM   H11G13571   3.322   4.003   4.490 -0.2492  1.5295 -2.5294
  127OSM   C12F13572   3.500   3.966   4.614 -0.2023 -0.2031 -0.4683
  127OSM   H12F13573   3.602   4.011   4.609 -0.4036  0.1632 -1.6367
  127OSM   H12G13574   3.486   3.856   4.608 -0.5166 -0.1488 -0.7583
  127OSM   C13F13575   3.438   4.026   4.746 -0.2219 -0.3039  0.0092
  127OSM   H13F13576   3.336   3.982   4.753  0.5439 -2.2024 -0.1648
  127OSM   H13G13577   3.432   4.137   4.733 -2.1660 -0.4664 -0.8238
  127OSM   C14F13578   3.522   3.981   4.867 -0.0861  0.3951  0.2317
  127OSM   H14F13579   3.619   4.036   4.872 -0.9713  2.0624 -0.1172
  127OSM   H14G13580   3.540   3.874   4.843 -1.9051  0.4629 -1.6145
  127OSM   C15F13581   3.468   3.998   5.017  0.2970 -0.2755  0.5140
  127OSM   H15F13582   3.493   4.103   5.044 -0.2737 -0.7210  3.0420
  127OSM   H15G13583   3.521   3.932   5.089 -0.8788  0.6258  2.2908
  127OSM   C16F13584   3.316   3.965   5.044 -0.5198  0.2097 -0.0780
  127OSM   H16F13585   3.317   3.855   5.058  1.3887  0.3021  0.7197
  127OSM   H16G13586   3.247   4.000   4.964 -0.9645  1.7728  0.9358
  127OSM   C17F13587   3.257   4.036   5.173  0.2077  0.1794  0.0820
  127OSM   H17F13588   3.304   3.998   5.267  0.5252  0.4109  0.0178
  127OSM   H17G13589   3.149   4.010   5.175 -0.3875  2.4290 -0.6387
  127OSM   C18F13590   3.275   4.187   5.175  0.3993  0.3346  0.0396
  127OSM   H18F13591   3.226   4.221   5.268 -0.3912  0.4385 -0.4026
  127OSM   H18G13592   3.229   4.245   5.092 -3.3880 -0.0638  1.6391
  127OSM   H18H13593   3.383   4.205   5.194 -0.0220  0.1068  3.0992
  128OSM      N13594   5.480   0.920   2.833  0.6775 -0.1564  0.2958
  128OSM    C1513595   5.578   0.828   2.775  0.0845 -0.0399 -0.3145
  128OSM   H15A13596   5.612   0.870   2.681  0.2329 -0.2786 -0.3684
  128OSM   H15B13597   5.540   0.730   2.750 -1.0428  0.8092 -2.1504
  128OSM   H15C13598   5.666   0.822   2.837 -0.5914 -0.1012  0.6574
  128OSM    C1413599   5.540   1.050   2.860  0.2074 -0.1014 -0.0304
  128OSM   H14A13600   5.569   1.105   2.772  0.2387 -2.5304 -1.6507
  128OSM   H14B13601   5.626   1.041   2.924  0.0574  0.6217  0.2771
  128OSM   H14C13602   5.468   1.108   2.916  0.6533 -0.9588  1.5125
  128OSM    C1313603   5.372   0.943   2.725  0.0161  0.0663 -0.6597
  128OSM   H13A13604   5.311   1.025   2.761  0.6045 -0.8099  2.6472
  128OSM   H13B13605   5.310   0.855   2.713 -0.2290  0.2171 -0.5176
  128OSM   H13C13606   5.414   0.971   2.630 -0.7944 -1.3277 -1.4655
  128OSM    C1213607   5.415   0.853   2.954 -0.1658  0.6905  0.4919
  128OSM   H12A13608   5.491   0.837   3.029  1.8115 -0.7347 -1.6590
  128OSM   H12B13609   5.366   0.762   2.921  0.3247  1.7630 -3.8740
  128OSM    C1113610   5.298   0.933   3.014 -0.2541  0.4990 -0.3262
  128OSM   H11A13611   5.326   1.039   3.030 -0.4542  0.2880  1.7886
  128OSM   H11B13612   5.292   0.894   3.118  2.2108 -1.1616 -0.7188
  128OSM      P13613   5.088   0.799   2.937  0.4394  0.1627  0.0837
  128OSM    O1313614   4.962   0.830   2.869 -0.1609 -0.1557  0.5200
  128OSM    O1413615   5.161   0.681   2.885 -0.4754 -0.1331 -0.1971
  128OSM    O1113616   5.051   0.766   3.095  0.3918  0.1732 -0.2642
  128OSM    O1213617   5.179   0.919   2.943  0.2147  0.6234 -0.8915
  128OSM    C1S13618   4.969   0.877   3.149  0.5602 -0.3759 -0.2773
  128OSM    H1S13619   4.869   0.869   3.100  0.6247 -0.5746 -0.3774
  128OSM    H1T13620   5.022   0.974   3.138  0.0819  0.0874  1.2682
  128OSM     NF13621   4.855   0.966   3.344 -0.5443 -0.0707  0.2229
  128OSM    HNF13622   4.895   1.050   3.379  0.8343 -1.1309  1.3483
  128OSM    C2S13623   4.947   0.862   3.299 -0.9709  0.4862 -0.2348
  128OSM    H2S13624   4.901   0.762   3.314  2.4726 -1.3390 -1.0095
  128OSM    C3S13625   5.084   0.857   3.380  0.6912  1.0296 -0.0503
  128OSM    H3S13626   5.134   0.955   3.365  0.1565  0.9316 -3.1673
  128OSM     O313627   5.173   0.759   3.317 -0.0355 -0.4481  0.3920
  128OSM    HO313628   5.130   0.735   3.234 -0.5872 -0.7679  0.7628
  128OSM    C4S13629   5.062   0.848   3.528 -0.1415  0.1051  0.3550
  128OSM    H4S13630   5.016   0.940   3.567  3.2499  2.5222 -0.9177
  128OSM    C5S13631   5.084   0.740   3.612 -0.5042 -0.3125 -0.2254
  128OSM    H5S13632   5.127   0.647   3.572 -0.1709  0.2256 -1.1379
  128OSM    C6S13633   5.059   0.754   3.765  0.2064 -0.2401  0.3952
  128OSM    H6S13634   4.990   0.679   3.809  0.5304 -0.2442  0.9026
  128OSM    H6T13635   5.015   0.851   3.796 -3.4946 -1.4407 -0.5923
  128OSM    C7S13636   5.195   0.729   3.835 -0.1390 -0.1445 -0.2061
  128OSM    H7S13637   5.275   0.789   3.786 -1.3001  0.9510 -0.8271
  128OSM    H7T13638   5.219   0.621   3.830  1.8596  0.1909  0.9914
  128OSM    C8S13639   5.202   0.778   3.982 -0.5662 -0.3189  0.1359
  128OSM    H8S13640   5.172   0.885   3.981 -1.6737 -0.5650  1.8156
  128OSM    H8T13641   5.309   0.772   4.009 -1.3025 -2.3592  3.1397
  128OSM    C9S13642   5.121   0.696   4.091  0.0446  0.0843  0.2255
  128OSM    H9S13643   5.150   0.590   4.080  3.2310  0.9027 -0.3336
  128OSM    H9T13644   5.016   0.715   4.061  0.8564  1.4469 -2.0564
  128OSM   C10S13645   5.151   0.732   4.236  0.1959 -0.2538 -0.2092
  128OSM   H10S13646   5.127   0.834   4.274  0.8325 -0.5020  0.9209
  128OSM   H10T13647   5.262   0.728   4.248  0.2256  1.6065  0.6062
  128OSM   C11S13648   5.081   0.657   4.348 -0.0554  0.4151 -0.2092
  128OSM   H11S13649   5.082   0.547   4.331 -1.1604 -0.2437  3.2204
  128OSM   H11T13650   4.972   0.676   4.336  0.0167  1.3475  0.5028
  128OSM   C12S13651   5.128   0.682   4.494  0.5801 -0.0415  0.1202
  128OSM   H12S13652   5.088   0.782   4.522  0.3594  0.0958 -0.6508
  128OSM   H12T13653   5.239   0.675   4.499  0.5446 -0.6746  0.1839
  128OSM   C13S13654   5.074   0.578   4.591 -0.6231 -0.2207  0.6458
  128OSM   H13S13655   5.088   0.478   4.544 -0.6555 -0.4966  1.2128
  128OSM   H13T13656   4.965   0.599   4.580 -0.2913  0.1322 -3.4467
  128OSM   C14S13657   5.102   0.592   4.741 -0.5602 -0.5306 -0.2289
  128OSM   H14S13658   5.086   0.489   4.780 -3.2955 -0.5006 -1.0572
  128OSM   H14T13659   5.021   0.658   4.780 -0.6496 -0.5462 -0.3862
  128OSM   C15S13660   5.243   0.629   4.780  0.2680 -0.5243  0.4053
  128OSM   H15S13661   5.315   0.587   4.707  0.7277  0.1809  0.4443
  128OSM   H15T13662   5.271   0.570   4.870  1.2433 -3.1435 -1.4770
  128OSM   C16S13663   5.269   0.776   4.820  0.0413  0.7950  0.2120
  128OSM   H16S13664   5.221   0.807   4.915 -3.3230  0.2874 -1.1532
  128OSM   H16T13665   5.234   0.858   4.754 -0.7183 -0.3024 -0.7959
  128OSM   C17S13666   5.424   0.797   4.834 -0.0043  0.0921 -0.0405
  128OSM   H17S13667   5.473   0.788   4.734 -0.9635  1.1804 -0.6312
  128OSM   H17T13668   5.455   0.721   4.909 -1.3329  1.1642  1.6569
  128OSM   C18S13669   5.458   0.937   4.877 -0.2932 -0.1447  0.2393
  128OSM   H18S13670   5.563   0.945   4.913 -1.4207  0.6938  3.6590
  128OSM   H18T13671   5.390   0.967   4.959 -1.5406  1.1157 -1.1689
  128OSM   H18U13672   5.439   1.010   4.795  0.9090 -0.0357  0.0380
  128OSM    C1F13673   4.726   0.957   3.339  0.2169 -0.4906 -0.2349
  128OSM     OF13674   4.678   0.862   3.284 -0.5286  0.0512  0.1547
  128OSM    C2F13675   4.637   1.076   3.386 -0.7800  0.4047 -0.7198
  128OSM    H2F13676   4.533   1.043   3.403 -0.4242  0.1715  1.2400
  128OSM    H2G13677   4.644   1.149   3.302  0.0276 -1.3555 -2.2714
  128OSM    C3F13678   4.684   1.130   3.518 -0.3925 -0.2684 -0.3684
  128OSM    H3F13679   4.608   1.207   3.544  1.7590  1.3204  1.6846
  128OSM    H3G13680   4.780   1.186   3.511 -0.6082  0.1405 -0.0812
  128OSM    C4F13681   4.674   1.030   3.639  0.5961  0.8458 -0.3390
  128OSM    H4F13682   4.762   0.963   3.641  0.5525  0.7137  3.0151
  128OSM    H4G13683   4.577   0.978   3.621  0.5293  1.4609 -1.8612
  128OSM    C5F13684   4.679   1.093   3.775 -0.3886  0.2800 -0.5093
  128OSM    H5F13685   4.583   1.140   3.804  0.5897  1.4204  1.0369
  128OSM    H5G13686   4.747   1.180   3.763 -0.8618  0.3624 -3.0743
  128OSM    C6F13687   4.724   1.012   3.896  0.0999 -0.2076 -0.1687
  128OSM    H6F13688   4.822   0.969   3.864  0.5662  0.3444  0.4770
  128OSM    H6G13689   4.662   0.926   3.928  1.4900 -0.2824  2.5712
  128OSM    C7F13690   4.749   1.117   4.005  0.3631 -0.8099 -0.6397
  128OSM    H7F13691   4.654   1.156   4.048 -0.1527 -0.3978 -2.0912
  128OSM    H7G13692   4.799   1.208   3.964  1.7743 -2.2275 -2.1905
  128OSM    C8F13693   4.832   1.072   4.130 -0.0893 -0.8382  0.2700
  128OSM    H8F13694   4.810   1.144   4.212  0.5690 -2.0967  1.5933
  128OSM    H8G13695   4.942   1.082   4.117  0.1059  0.7583  2.6291
  128OSM    C9F13696   4.824   0.929   4.181 -0.6123 -0.0651  0.0914
  128OSM    H9F13697   4.843   0.851   4.106  2.2401 -0.0941  0.7254
  128OSM   C10F13698   4.774   0.889   4.302  0.6503 -0.0758  1.1521
  128OSM   H10F13699   4.774   0.782   4.325  4.1048 -1.0279 -2.2985
  128OSM   C11F13700   4.729   0.978   4.411  0.6661 -0.0319 -0.5299
  128OSM   H11F13701   4.626   1.003   4.378  1.2972  0.2304 -2.4239
  128OSM   H11G13702   4.804   1.061   4.410  2.0088 -1.1359  1.2475
  128OSM   C12F13703   4.728   0.898   4.546 -0.0354 -0.2632  0.5517
  128OSM   H12F13704   4.828   0.851   4.553 -0.4900 -1.3283  0.0525
  128OSM   H12G13705   4.649   0.820   4.540 -0.2651  0.0135 -4.2909
  128OSM   C13F13706   4.707   0.995   4.659 -0.0854 -0.2108 -0.0315
  128OSM   H13F13707   4.754   1.095   4.649  0.6258 -0.3414  1.5856
  128OSM   H13G13708   4.744   0.944   4.751 -0.6713 -0.9799 -0.2090
  128OSM   C14F13709   4.553   1.026   4.663  0.0645  0.3700  0.5268
  128OSM   H14F13710   4.494   0.932   4.668 -0.9787  1.0849  2.8980
  128OSM   H14G13711   4.515   1.074   4.570 -0.2547 -0.1902  0.3643
  128OSM   C15F13712   4.510   1.101   4.790  0.3488 -0.4296 -0.3627
  128OSM   H15F13713   4.573   1.192   4.795  0.5346 -0.6176  1.1112
  128OSM   H15G13714   4.525   1.036   4.879 -1.4946 -0.4080  0.0011
  128OSM   C16F13715   4.362   1.124   4.781  0.6399 -0.1107 -0.6363
  128OSM   H16F13716   4.310   1.031   4.749  2.9709 -1.1595 -1.5938
  128OSM   H16G13717   4.365   1.201   4.701  0.4002  3.0311  2.1356
  128OSM   C17F13718   4.310   1.198   4.909 -0.5354  0.3105 -0.7287
  128OSM   H17F13719   4.333   1.139   5.001 -1.8655  0.2255 -0.4288
  128OSM   H17G13720   4.199   1.202   4.906 -0.5171  1.3373 -0.4707
  128OSM   C18F13721   4.362   1.337   4.922  0.1591 -0.6598 -0.3611
  128OSM   H18F13722   4.469   1.343   4.951  0.1872 -1.9000 -0.1301
  128OSM   H18G13723   4.297   1.402   4.983 -0.2416 -1.0057 -0.4146
  128OSM   H18H13724   4.357   1.377   4.818  0.5900 -1.6147 -0.7661
  129OSM      N13725   0.096   0.108   2.423 -0.4428  0.1591 -0.5151
  129OSM    C1513726   0.014   0.218   2.367  0.2244 -0.0122 -0.3064
  129OSM   H15A13727   0.035   0.305   2.428  0.7424  0.0278 -0.5291
  129OSM   H15B13728  -0.087   0.184   2.352  0.2469 -0.1314 -0.1900
  129OSM   H15C13729   0.042   0.243   2.265  1.4166  1.8836  0.4270
  129OSM    C1413730   0.036   0.064   2.552 -0.1855  0.4270 -0.1753
  129OSM   H14A13731   0.074  -0.028   2.594 -0.5953  0.3049 -0.0749
  129OSM   H14B13732  -0.066   0.032   2.539 -0.0507 -0.1004  0.0563
  129OSM   H14C13733   0.043   0.138   2.630 -0.7125 -0.8609  1.1250
  129OSM    C1313734   0.073  -0.010   2.329 -1.0946  0.4936 -0.2153
  129OSM   H13A13735  -0.026  -0.051   2.338 -0.5282 -0.6640  1.0037
  129OSM   H13B13736   0.147  -0.088   2.340  0.0271  1.5234 -0.2130
  129OSM   H13C13737   0.095   0.017   2.226  2.2649 -4.3835 -1.1394
  129OSM    C1213738   0.240   0.145   2.441 -0.3559 -0.5475 -0.4996
  129OSM   H12A13739   0.266   0.213   2.362 -1.8329 -0.7401 -1.1811
  129OSM   H12B13740   0.296   0.053   2.445 -0.1287 -0.3835  0.5756
  129OSM    C1113741   0.271   0.222   2.576 -0.9322  0.0039  0.1246
  129OSM   H11A13742   0.381   0.231   2.589 -0.7583  0.3227 -1.3700
  129OSM   H11B13743   0.247   0.153   2.660 -2.2830 -0.4016 -0.5698
  129OSM      P13744   0.142   0.403   2.720 -0.2494 -0.3639 -0.2249
  129OSM    O1313745   0.133   0.552   2.726 -0.5616 -0.0424  0.4428
  129OSM    O1413746   0.020   0.323   2.751  0.0450  0.2733 -0.2083
  129OSM    O1113747   0.263   0.352   2.822  0.4008  0.1219  0.0218
  129OSM    O1213748   0.206   0.345   2.587  0.5644  0.0597 -0.3726
  129OSM    C1S13749   0.256   0.397   2.959  0.4590 -0.1199  0.3114
  129OSM    H1S13750   0.261   0.508   2.966  1.5182 -0.2308  1.5783
  129OSM    H1T13751   0.347   0.351   3.003  1.5171  2.2797  0.7693
  129OSM     NF13752   0.130   0.405   3.179 -0.0301 -0.7028 -0.0545
  129OSM    HNF13753   0.146   0.346   3.258  0.4168 -0.2539  0.1913
  129OSM    C2S13754   0.141   0.337   3.050  0.3989 -0.1365 -1.2670
  129OSM    H2S13755   0.048   0.361   2.995 -0.1554  0.1896 -0.2237
  129OSM    C3S13756   0.155   0.181   3.057 -0.0925 -0.1645  0.6691
  129OSM    H3S13757   0.243   0.157   3.121  1.4654 -0.3126 -1.4135
  129OSM     O313758   0.172   0.124   2.927 -0.3483 -0.3913 -0.2827
  129OSM    HO313759   0.199   0.201   2.877 -0.4535 -0.1334  0.0523
  129OSM    C4S13760   0.028   0.121   3.116  0.1099  0.0125  0.8087
  129OSM    H4S13761  -0.065   0.133   3.058 -0.3624 -0.2550  1.4912
  129OSM    C5S13762   0.024   0.049   3.231 -0.4406 -0.0736 -0.0580
  129OSM    H5S13763   0.113   0.048   3.297  0.0447 -0.6421 -0.7114
  129OSM    C6S13764  -0.104  -0.016   3.271  0.4466 -0.2912 -0.8751
  129OSM    H6S13765  -0.093  -0.126   3.267 -2.8464 -0.6956 -2.2970
  129OSM    H6T13766  -0.184  -0.006   3.195  0.7714 -1.7306 -1.4319
  129OSM    C7S13767  -0.157   0.032   3.407  0.4368 -0.1611 -0.0870
  129OSM    H7S13768  -0.262  -0.002   3.415 -0.0952  1.0964 -1.3792
  129OSM    H7T13769  -0.172   0.142   3.418 -0.9350 -0.1147 -1.9365
  129OSM    C8S13770  -0.093  -0.038   3.529  0.1654  0.4844  0.5861
  129OSM    H8S13771   0.017  -0.026   3.512  0.1728 -0.2119  0.1064
  129OSM    H8T13772  -0.119  -0.146   3.530  1.0400  0.2412 -0.6848
  129OSM    C9S13773  -0.127   0.011   3.664  0.9401  0.3745  0.0573
  129OSM    H9S13774  -0.238   0.011   3.669  0.9184  0.3535 -0.4029
  129OSM    H9T13775  -0.098   0.118   3.670  2.3288  0.2764 -3.0931
  129OSM   C10S13776  -0.072  -0.056   3.791 -0.9719 -0.2800  0.5907
  129OSM   H10S13777   0.039  -0.055   3.784 -0.9944  1.1677  0.0015
  129OSM   H10T13778  -0.104  -0.162   3.791 -0.1403 -0.6462 -2.7083
  129OSM   C11S13779  -0.115   0.009   3.928  0.1018 -0.5414  0.8742
  129OSM   H11S13780  -0.226   0.005   3.931  0.0855 -0.2388  0.7821
  129OSM   H11T13781  -0.084   0.116   3.928  2.3329 -1.1550  1.3641
  129OSM   C12S13782  -0.046  -0.049   4.052 -0.1516 -0.0008 -1.0318
  129OSM   H12S13783   0.061  -0.018   4.041 -0.2340  0.3875 -0.7827
  129OSM   H12T13784  -0.047  -0.160   4.054 -2.4428 -0.0247 -1.2510
  129OSM   C13S13785  -0.098   0.024   4.178 -0.6853 -0.6453  0.3334
  129OSM   H13S13786  -0.209   0.014   4.182 -0.6897 -0.5909  0.3545
  129OSM   H13T13787  -0.076   0.133   4.175 -0.7387 -0.6332  0.3812
  129OSM   C14S13788  -0.050  -0.044   4.310 -0.5691 -0.2961 -0.0726
  129OSM   H14S13789   0.061  -0.041   4.308 -0.4747 -0.9553  2.1319
  129OSM   H14T13790  -0.087  -0.147   4.325 -2.3367  0.4274  0.8575
  129OSM   C15S13791  -0.102   0.037   4.430 -0.2806 -0.5724  0.7707
  129OSM   H15S13792  -0.212   0.046   4.435 -0.3425 -0.3305 -0.5569
  129OSM   H15T13793  -0.064   0.141   4.425  0.3240 -0.8345 -0.9488
  129OSM   C16S13794  -0.053  -0.028   4.564 -0.5122  0.1470 -0.5676
  129OSM   H16S13795   0.057  -0.007   4.562 -0.2270 -0.6608  2.3586
  129OSM   H16T13796  -0.073  -0.137   4.554  0.2341  0.0401 -0.9900
  129OSM   C17S13797  -0.104   0.044   4.689  0.5614 -0.0911 -0.1626
  129OSM   H17S13798  -0.214   0.053   4.682  0.5043 -1.4804 -1.4720
  129OSM   H17T13799  -0.068   0.149   4.686  1.1538 -0.2902 -0.2789
  129OSM   C18S13800  -0.067  -0.026   4.826 -0.2560 -0.3228  0.1590
  129OSM   H18S13801  -0.115  -0.127   4.823  0.2528 -0.5374 -2.0207
  129OSM   H18T13802  -0.097   0.026   4.920 -3.0469  1.0311 -1.3571
  129OSM   H18U13803   0.042  -0.046   4.838 -0.1789 -0.9976 -1.4707
  129OSM    C1F13804   0.107   0.536   3.190  0.8061  0.0069  0.0796
  129OSM     OF13805   0.089   0.609   3.094 -0.5567  0.2008  0.0264
  129OSM    C2F13806   0.127   0.595   3.322 -0.1391 -0.6376 -1.0599
  129OSM    H2F13807   0.232   0.577   3.354 -1.1597 -0.2825  3.0412
  129OSM    H2G13808   0.058   0.546   3.393 -1.8445 -0.8043 -2.7483
  129OSM    C3F13809   0.097   0.750   3.329 -0.7814  0.0972 -0.0989
  129OSM    H3F13810  -0.011   0.761   3.308 -0.5324  1.2592 -0.9129
  129OSM    H3G13811   0.145   0.800   3.241 -3.5978  2.5504 -0.3915
  129OSM    C4F13812   0.111   0.822   3.459 -0.5222  0.4698 -0.3459
  129OSM    H4F13813   0.101   0.929   3.429 -0.1152  0.8796  0.9050
  129OSM    H4G13814   0.211   0.804   3.506 -0.8091 -0.2823 -0.0065
  129OSM    C5F13815   0.010   0.776   3.562  0.2033  0.0350  0.2956
  129OSM    H5F13816   0.028   0.669   3.587  0.5229  0.5329  2.3081
  129OSM    H5G13817  -0.089   0.781   3.512 -0.4478  0.3199  1.5771
  129OSM    C6F13818   0.006   0.875   3.677 -0.3222  0.6732 -0.8253
  129OSM    H6F13819  -0.043   0.968   3.641 -1.5504 -0.3829 -1.9730
  129OSM    H6G13820   0.108   0.899   3.713  0.1806  0.8540 -2.2858
  129OSM    C7F13821  -0.071   0.824   3.796  0.4120 -0.1428 -1.0668
  129OSM    H7F13822  -0.021   0.737   3.844  0.1030  0.6963  0.8990
  129OSM    H7G13823  -0.174   0.794   3.767  1.2653 -1.4692 -2.9176
  129OSM    C8F13824  -0.090   0.925   3.917 -0.1588  0.2688 -0.0415
  129OSM    H8F13825  -0.128   1.017   3.869  1.6163  1.7094  1.1864
  129OSM    H8G13826   0.009   0.957   3.956  0.0045 -2.0624  1.6729
  129OSM    C9F13827  -0.180   0.866   4.023 -0.5194  0.2396 -0.2191
  129OSM    H9F13828  -0.270   0.827   3.973  0.0888  1.0442 -2.0286
  129OSM   C10F13829  -0.175   0.858   4.156  0.4313 -0.5637  0.2579
  129OSM   H10F13830  -0.253   0.803   4.210  1.0694 -1.0720  0.6810
  129OSM   C11F13831  -0.045   0.896   4.232 -0.1645  0.6044  0.7736
  129OSM   H11F13832  -0.065   0.974   4.308  2.1565  0.4505  1.6369
  129OSM   H11G13833   0.027   0.942   4.162 -1.7729  2.8123  0.4650
  129OSM   C12F13834   0.015   0.769   4.301 -1.2600  0.4760 -0.2293
  129OSM   H12F13835   0.119   0.784   4.337 -0.7806 -0.4307 -1.1699
  129OSM   H12G13836   0.009   0.680   4.234 -2.3492 -0.3430  0.9006
  129OSM   C13F13837  -0.068   0.729   4.425  0.0351  0.0751  0.6895
  129OSM   H13F13838  -0.165   0.680   4.402  0.8846 -2.0865  1.3956
  129OSM   H13G13839  -0.083   0.812   4.497 -1.9148 -0.9161  1.4982
  129OSM   C14F13840   0.008   0.633   4.518 -0.2722 -0.3077 -0.2200
  129OSM   H14F13841   0.116   0.658   4.513 -0.4730  1.3005  2.0094
  129OSM   H14G13842   0.002   0.536   4.463 -1.8753 -0.4916  0.2412
  129OSM   C15F13843  -0.058   0.626   4.651  0.2112 -0.9312 -1.5846
  129OSM   H15F13844  -0.169   0.619   4.646 -0.2150 -0.8675  3.2751
  129OSM   H15G13845  -0.044   0.724   4.701  0.3892 -0.8975 -1.7025
  129OSM   C16F13846  -0.004   0.518   4.737  0.0764  0.3045 -0.0151
  129OSM   H16F13847   0.100   0.548   4.764  0.5329 -0.7937 -0.4724
  129OSM   H16G13848  -0.005   0.422   4.680 -1.5793  0.6455 -0.6095
  129OSM   C17F13849  -0.091   0.496   4.858 -0.2760 -1.0229  0.2084
  129OSM   H17F13850  -0.200   0.496   4.837  0.0468  2.2522 -2.1207
  129OSM   H17G13851  -0.070   0.580   4.927 -1.3154  0.4422 -1.2041
  129OSM   C18F13852  -0.065   0.375   4.931  0.3017 -0.4444 -0.4875
  129OSM   H18F13853  -0.109   0.295   4.868 -0.8382  1.0849 -1.7296
  129OSM   H18G13854  -0.116   0.374   5.030  2.3113 -1.9300  0.6092
  129OSM   H18H13855   0.044   0.366   4.947  0.4746 -0.3991 -1.5572
  130OSM      N13856   5.011   5.060   2.942 -0.0440  0.4840 -0.1479
  130OSM    C1513857   4.888   5.106   3.008  0.6773 -0.0259 -0.2989
  130OSM   H15A13858   4.888   5.087   3.114  1.9760 -0.0762 -0.2998
  130OSM   H15B13859   4.805   5.061   2.955  0.0622  1.3479 -0.5392
  130OSM   H15C13860   4.876   5.212   2.994  0.7155  0.1215  0.7025
  130OSM    C1413861   5.011   4.912   2.907 -0.3691  0.1849  0.2753
  130OSM   H14A13862   5.111   4.880   2.883 -0.2200  1.9854 -1.9158
  130OSM   H14B13863   4.937   4.883   2.833 -1.2300  1.1882  0.7054
  130OSM   H14C13864   4.976   4.852   2.989 -3.0078  1.3021  0.0696
  130OSM    C1313865   5.033   5.137   2.817 -0.3816  0.1803 -1.5518
  130OSM   H13A13866   5.122   5.101   2.768  1.7613  3.0539 -0.0800
  130OSM   H13B13867   5.033   5.242   2.841 -0.0230 -0.4501  1.5945
  130OSM   H13C13868   4.949   5.125   2.750 -0.9648  0.8697 -0.9627
  130OSM    C1213869   5.128   5.078   3.038 -0.4799 -0.4402  0.0205
  130OSM   H12A13870   5.120   5.006   3.119 -1.8285 -2.5458 -1.8344
  130OSM   H12B13871   5.115   5.178   3.075 -1.4091 -0.4807 -0.1738
  130OSM    C1113872   5.269   5.048   2.987  0.1903 -0.1269 -0.3005
  130OSM   H11A13873   5.336   5.082   3.068  1.1746 -0.3910 -0.9875
  130OSM   H11B13874   5.291   5.102   2.892  2.0443  2.7795  1.6493
  130OSM      P13875   5.385   4.840   2.870 -0.4294  0.1839 -0.2559
  130OSM    O1313876   5.320   4.809   2.740 -0.1614  0.7352 -0.7352
  130OSM    O1413877   5.513   4.911   2.865 -0.5385 -0.6863  0.1983
  130OSM    O1113878   5.417   4.695   2.941 -0.3516  0.3014 -1.2373
  130OSM    O1213879   5.280   4.907   2.969 -0.4746  0.0160 -0.0698
  130OSM    C1S13880   5.472   4.677   3.069  0.1762 -0.1821  0.1006
  130OSM    H1S13881   5.405   4.743   3.129 -1.1073 -2.0520  0.8159
  130OSM    H1T13882   5.573   4.722   3.081 -0.9472  3.0553 -1.5215
  130OSM     NF13883   5.469   4.532   3.267  0.1235 -0.3106 -0.3519
  130OSM    HNF13884   5.557   4.489   3.288 -1.0842 -2.3575  0.9390
  130OSM    C2S13885   5.448   4.536   3.118  0.1234 -0.1352 -0.6675
  130OSM    H2S13886   5.342   4.506   3.104 -0.7440  1.6263  1.5750
  130OSM    C3S13887   5.543   4.439   3.044  0.1548  0.1790  0.2207
  130OSM    H3S13888   5.647   4.477   3.054 -0.1453  0.9673  0.4241
  130OSM     O313889   5.508   4.432   2.905 -0.5484  0.2870 -0.0409
  130OSM    HO313890   5.505   4.526   2.888 -0.9005  0.0715 -1.2896
  130OSM    C4S13891   5.530   4.302   3.102 -0.2553  0.7948 -0.0286
  130OSM    H4S13892   5.433   4.252   3.086 -0.2325  0.4235  0.8825
  130OSM    C5S13893   5.620   4.248   3.190 -0.4723  0.4698 -0.1544
  130OSM    H5S13894   5.722   4.283   3.211 -1.2183  2.4753  0.3348
  130OSM    C6S13895   5.609   4.126   3.281 -0.5634 -0.0499 -0.3389
  130OSM    H6S13896   5.690   4.062   3.239 -0.9492  0.4152 -1.8506
  130OSM    H6T13897   5.513   4.075   3.262  0.6527 -2.1416 -1.1451
  130OSM    C7S13898   5.637   4.135   3.435  0.5940 -0.3248  0.2659
  130OSM    H7S13899   5.560   4.202   3.480  0.5620 -0.6387  0.6777
  130OSM    H7T13900   5.737   4.180   3.449  0.5006 -0.5874  2.0381
  130OSM    C8S13901   5.652   4.005   3.512  0.1404  0.1931 -0.0610
  130OSM    H8S13902   5.739   3.942   3.481  1.0782 -0.0097  2.6985
  130OSM    H8T13903   5.566   3.937   3.493  0.6138 -0.1233 -1.1668
  130OSM    C9S13904   5.675   4.027   3.663  0.6672  0.6875 -0.3889
  130OSM    H9S13905   5.575   4.057   3.701 -0.3015 -2.4557 -0.1002
  130OSM    H9T13906   5.753   4.100   3.695  1.0401  0.2710 -0.3367
  130OSM   C10S13907   5.723   3.893   3.727 -0.4751 -0.6749  0.1646
  130OSM   H10S13908   5.826   3.875   3.692  0.0272  3.1514 -0.7791
  130OSM   H10T13909   5.654   3.813   3.693 -0.0292 -1.3850  0.9080
  130OSM   C11S13910   5.732   3.892   3.878  0.3710 -0.7180 -0.0496
  130OSM   H11S13911   5.807   3.965   3.915 -1.0113  0.6398  0.1836
  130OSM   H11T13912   5.752   3.792   3.923  2.3395 -0.4295 -0.1969
  130OSM   C12S13913   5.599   3.930   3.946  0.5590  0.5182 -0.0280
  130OSM   H12S13914   5.516   3.862   3.916  1.8200 -0.3117 -1.7686
  130OSM   H12T13915   5.572   4.036   3.925 -0.6461 -0.2907 -3.0820
  130OSM   C13S13916   5.610   3.910   4.093 -0.0879  0.2420 -0.0177
  130OSM   H13S13917   5.716   3.891   4.119  0.6455 -0.3807 -3.1218
  130OSM   H13T13918   5.566   3.813   4.126 -0.5748  0.1309 -0.9668
  130OSM   C14S13919   5.566   4.025   4.183  0.2363 -0.1460  0.6438
  130OSM   H14S13920   5.458   4.045   4.166  0.3114 -0.8899 -0.9388
  130OSM   H14T13921   5.623   4.110   4.140  1.5631 -0.6052  1.4336
  130OSM   C15S13922   5.600   4.001   4.328 -0.0439  0.7845  0.7974
  130OSM   H15S13923   5.709   3.980   4.326 -0.6211 -3.4490 -3.0031
  130OSM   H15T13924   5.552   3.907   4.361  0.1553  0.2911 -0.2641
  130OSM   C16S13925   5.540   4.113   4.415  0.0414 -0.1276  0.4436
  130OSM   H16S13926   5.429   4.106   4.420 -0.0341  0.0888 -0.5705
  130OSM   H16T13927   5.563   4.212   4.369 -0.6395 -0.5790 -0.9263
  130OSM   C17S13928   5.594   4.124   4.555 -0.4714 -0.6475  0.4224
  130OSM   H17S13929   5.567   4.220   4.604 -2.3285 -0.5580 -0.6527
  130OSM   H17T13930   5.703   4.139   4.543 -0.8081  1.1894 -0.6722
  130OSM   C18S13931   5.568   4.008   4.650 -1.0487 -0.1405 -0.3276
  130OSM   H18S13932   5.605   4.032   4.752  1.8185 -1.7209 -0.8994
  130OSM   H18T13933   5.611   3.911   4.617  1.4894  0.7553  0.1421
  130OSM   H18U13934   5.458   3.990   4.648 -0.9373 -0.9042 -2.5721
  130OSM    C1F13935   5.389   4.582   3.352  1.0075 -0.5307 -0.4304
  130OSM     OF13936   5.270   4.592   3.325 -0.2683 -0.7608 -0.2887
  130OSM    C2F13937   5.446   4.616   3.483 -0.2519 -0.1411 -0.3257
  130OSM    H2F13938   5.475   4.723   3.494  1.4778 -0.6268  0.0261
  130OSM    H2G13939   5.539   4.558   3.500 -0.8719 -1.0613  0.0407
  130OSM    C3F13940   5.345   4.573   3.602 -1.3984 -0.4603  0.8531
  130OSM    H3F13941   5.258   4.638   3.580 -1.7848 -1.4725 -0.8345
  130OSM    H3G13942   5.388   4.599   3.701  1.0361 -0.7107 -0.0610
  130OSM    C4F13943   5.304   4.426   3.603 -0.4680  0.8649 -0.3432
  130OSM    H4F13944   5.391   4.378   3.652 -0.5246  0.5699 -0.5347
  130OSM    H4G13945   5.280   4.375   3.507  2.2485 -2.8609  0.7558
  130OSM    C5F13946   5.190   4.391   3.698  0.2362  0.3518  0.1498
  130OSM    H5F13947   5.150   4.288   3.683 -2.4155  1.2568  0.4040
  130OSM    H5G13948   5.102   4.456   3.677 -0.6292 -0.4866  1.0822
  130OSM    C6F13949   5.235   4.401   3.847  0.0541  0.6014  0.4823
  130OSM    H6F13950   5.264   4.506   3.869 -2.8001  1.3218  1.0886
  130OSM    H6G13951   5.327   4.344   3.875 -0.2590  0.3320  0.9680
  130OSM    C7F13952   5.122   4.364   3.948 -0.3565  0.1665 -0.4307
  130OSM    H7F13953   5.093   4.257   3.943 -0.0619 -0.0056  1.1232
  130OSM    H7G13954   5.037   4.431   3.921 -0.1281  2.2810  3.4212
  130OSM    C8F13955   5.159   4.395   4.093 -0.1057  0.4277  0.1025
  130OSM    H8F13956   5.170   4.504   4.115  1.9876  0.7375 -2.0852
  130OSM    H8G13957   5.248   4.332   4.110 -1.3407 -0.8628  2.2636
  130OSM    C9F13958   5.050   4.350   4.184  0.8781 -0.4672 -0.8921
  130OSM    H9F13959   4.948   4.381   4.155  0.3347  0.1676  1.5069
  130OSM   C10F13960   5.057   4.284   4.300 -1.0491  0.0271  0.0452
  130OSM   H10F13961   4.966   4.250   4.352 -1.5088  3.0965  1.4540
  130OSM   C11F13962   5.189   4.239   4.364  0.3939 -0.0597  0.6900
  130OSM   H11F13963   5.262   4.310   4.322  0.0602  0.7996  1.5410
  130OSM   H11G13964   5.214   4.139   4.321  0.1698 -0.1837  0.8420
  130OSM   C12F13965   5.191   4.244   4.518  0.2342  0.5465  0.0670
  130OSM   H12F13966   5.287   4.195   4.544  1.2997  1.5955 -1.6905
  130OSM   H12G13967   5.110   4.183   4.564 -1.6058  2.2535 -0.7335
  130OSM   C13F13968   5.194   4.387   4.566  0.2304  0.1236  0.1966
  130OSM   H13F13969   5.108   4.437   4.516  1.0757 -0.2711 -1.7146
  130OSM   H13G13970   5.291   4.427   4.530  1.1480 -0.6119  1.7418
  130OSM   C14F13971   5.196   4.400   4.719  0.8092 -0.3243  0.3967
  130OSM   H14F13972   5.110   4.358   4.775  0.8351  0.9944  1.4929
  130OSM   H14G13973   5.191   4.510   4.737 -1.0943 -0.1028 -1.1689
  130OSM   C15F13974   5.319   4.349   4.787 -0.6664  0.2475  0.6046
  130OSM   H15F13975   5.412   4.365   4.728 -0.8699 -0.8590 -0.0340
  130OSM   H15G13976   5.321   4.238   4.787 -0.1797  0.2478 -0.5475
  130OSM   C16F13977   5.339   4.378   4.942 -0.1508 -0.4210 -0.8113
  130OSM   H16F13978   5.235   4.363   4.979 -0.5605  1.0662 -1.3004
  130OSM   H16G13979   5.358   4.483   4.970 -0.5087 -0.2812 -1.0946
  130OSM   C17F13980   5.436   4.285   5.017 -0.3545 -0.0979 -0.1849
  130OSM   H17F13981   5.396   4.182   5.007 -2.1450  0.4618  0.7375
  130OSM   H17G13982   5.429   4.310   5.125  0.6975  3.8973 -0.8843
  130OSM   C18F13983   5.580   4.296   4.975 -0.7404  0.0015  0.3213
  130OSM   H18F13984   5.638   4.389   4.992  1.7388 -1.3635 -0.2312
  130OSM   H18G13985   5.566   4.288   4.865 -0.9769 -0.2366  0.3684
  130OSM   H18H13986   5.632   4.208   5.019 -1.5091 -1.4454 -1.5495
  131OSM      N13987   4.496   0.871   2.961  0.0820  0.2940 -0.7728
  131OSM    C1513988   4.373   0.852   3.044  0.2232 -0.0146 -0.0083
  131OSM   H15A13989   4.322   0.947   3.056  0.6335  0.0691  1.1559
  131OSM   H15B13990   4.400   0.834   3.147 -0.4103  2.4777  0.6651
  131OSM   H15C13991   4.299   0.781   3.012 -0.4339  1.0650 -0.9890
  131OSM    C1413992   4.565   0.730   2.963  0.4153  0.5426  0.0311
  131OSM   H14A13993   4.564   0.688   3.063 -2.1203  0.7762  0.1620
  131OSM   H14B13994   4.663   0.737   2.919  0.8664 -4.3139 -0.2626
  131OSM   H14C13995   4.516   0.658   2.898  2.5032 -2.0379  1.1075
  131OSM    C1313996   4.454   0.904   2.817 -0.3047 -0.7125 -0.4764
  131OSM   H13A13997   4.533   0.937   2.752  0.4104 -1.1014  0.1649
  131OSM   H13B13998   4.374   0.975   2.826 -0.3475 -0.7724 -0.3825
  131OSM   H13C13999   4.411   0.819   2.765  0.4383 -1.4199  0.0416
  131OSM    C1214000   4.581   0.978   3.029 -0.3174 -0.5556  0.0152
  131OSM   H12A14001   4.683   0.978   2.995  0.3083  1.3259  1.7150
  131OSM   H12B14002   4.604   0.945   3.129 -0.6537  0.1125  0.3203
  131OSM    C1114003   4.531   1.119   3.030  0.4174 -0.0090  0.1946
  131OSM   H11A14004   4.542   1.162   2.928 -2.3684  1.5387  0.4466
  131OSM   H11B14005   4.599   1.168   3.103 -0.0184 -0.5933  1.0198
  131OSM      P14006   4.280   1.201   3.012  0.4753  0.0887  0.5589
  131OSM    O1314007   4.313   1.195   2.865  0.1123 -0.1486 -0.5634
  131OSM    O1414008   4.149   1.138   3.050 -0.0351 -0.3644  0.5183
  131OSM    O1114009   4.288   1.347   3.073 -0.3840 -0.5582  0.3643
  131OSM    O1214010   4.398   1.129   3.087 -0.2823  0.1391  0.0384
  131OSM    C1S14011   4.199   1.403   3.167  0.5888 -0.0912  0.2408
  131OSM    H1S14012   4.094   1.367   3.166  0.1652  0.4096  4.9930
  131OSM    H1T14013   4.179   1.510   3.142 -4.3623 -0.1973  2.4751
  131OSM     NF14014   4.143   1.442   3.402 -0.2094  0.1524  0.2454
  131OSM    HNF14015   4.168   1.530   3.442 -0.0746  0.4300 -0.4369
  131OSM    C2S14016   4.243   1.379   3.316  0.2111 -0.5997 -0.2731
  131OSM    H2S14017   4.253   1.274   3.349  2.5144  0.1551  1.7589
  131OSM    C3S14018   4.387   1.434   3.348  0.8856 -1.3284  0.2521
  131OSM    H3S14019   4.395   1.538   3.311 -1.1003 -0.5740  1.7601
  131OSM     O314020   4.494   1.352   3.296 -0.1222  0.2241 -0.1259
  131OSM    HO314021   4.449   1.301   3.229 -1.9662  0.7527  0.6663
  131OSM    C4S14022   4.404   1.469   3.495 -0.7436  0.0147  0.2792
  131OSM    H4S14023   4.415   1.575   3.519  1.6290  0.5151 -2.4809
  131OSM    C5S14024   4.404   1.380   3.604 -0.3235  0.7617  0.5327
  131OSM    H5S14025   4.391   1.273   3.584  0.9463  1.0805 -2.6193
  131OSM    C6S14026   4.417   1.416   3.755  0.4001 -0.2948  0.3738
  131OSM    H6S14027   4.424   1.324   3.817  0.7850 -1.6662 -1.6227
  131OSM    H6T14028   4.325   1.468   3.791 -0.4827 -1.4465 -0.1551
  131OSM    C7S14029   4.539   1.510   3.783 -0.0544  0.7412  0.3001
  131OSM    H7S14030   4.540   1.608   3.730  2.3684  0.4521 -0.2860
  131OSM    H7T14031   4.627   1.452   3.750 -1.2107 -1.5877  1.1128
  131OSM    C8S14032   4.544   1.547   3.935 -0.7942  0.1152 -0.6345
  131OSM    H8S14033   4.543   1.453   3.993  2.0423  0.4762  0.1109
  131OSM    H8T14034   4.451   1.600   3.965 -2.4256 -1.9163 -1.7862
  131OSM    C9S14035   4.666   1.635   3.977  0.2194  1.3184 -0.2339
  131OSM    H9S14036   4.655   1.731   3.923 -0.4421  0.8629 -0.9171
  131OSM    H9T14037   4.756   1.583   3.940 -0.9705 -2.1783  1.3821
  131OSM   C10S14038   4.686   1.667   4.128 -0.1153 -0.8927  0.6477
  131OSM   H10S14039   4.635   1.583   4.180 -0.9130 -1.7813 -1.4785
  131OSM   H10T14040   4.645   1.768   4.151  0.4310 -0.0157 -1.8808
  131OSM   C11S14041   4.836   1.664   4.169  0.5952 -0.0964 -0.2178
  131OSM   H11S14042   4.893   1.710   4.085 -2.5034  1.1804 -1.8101
  131OSM   H11T14043   4.872   1.559   4.172 -1.4874 -0.8284  1.7369
  131OSM   C12S14044   4.850   1.718   4.307  0.5887 -0.4539 -0.0290
  131OSM   H12S14045   4.758   1.696   4.365  1.9981  2.2499  3.6485
  131OSM   H12T14046   4.865   1.828   4.316 -0.0578 -0.1410 -2.3072
  131OSM   C13S14047   4.972   1.655   4.386 -0.1960 -0.1030  0.5736
  131OSM   H13S14048   4.969   1.544   4.398  0.2048 -0.5057 -2.2136
  131OSM   H13T14049   4.976   1.705   4.485  0.3556 -0.4368  0.7237
  131OSM   C14S14050   5.110   1.679   4.312 -0.3884  0.3137 -0.4065
  131OSM   H14S14051   5.141   1.786   4.311  3.3673 -0.6156 -1.6217
  131OSM   H14T14052   5.089   1.662   4.204 -0.2106  1.4460 -0.6387
  131OSM   C15S14053   5.223   1.575   4.353 -0.2820 -0.7734  0.5934
  131OSM   H15S14054   5.310   1.571   4.284 -2.4883 -2.2423 -2.3162
  131OSM   H15T14055   5.175   1.475   4.348  2.8354 -2.3114 -1.9419
  131OSM   C16S14056   5.275   1.596   4.492 -0.0135 -0.3793 -0.7904
  131OSM   H16S14057   5.349   1.517   4.517  0.1216 -0.0010  0.0417
  131OSM   H16T14058   5.195   1.582   4.568  1.4762  0.4388  0.9864
  131OSM   C17S14059   5.351   1.735   4.501  0.4356  0.4821 -0.1482
  131OSM   H17S14060   5.276   1.811   4.471  0.9786  0.2673 -2.1513
  131OSM   H17T14061   5.421   1.744   4.415  0.5964 -2.7480 -0.4749
  131OSM   C18S14062   5.425   1.760   4.630  0.2044  0.0937  0.2217
  131OSM   H18S14063   5.509   1.691   4.649 -0.8487 -1.1096  0.6419
  131OSM   H18T14064   5.367   1.750   4.725  0.9020 -1.6202  0.4915
  131OSM   H18U14065   5.473   1.860   4.625  0.8286  0.0019  2.9102
  131OSM    C1F14066   4.012   1.404   3.403 -0.4521  0.5518  0.7401
  131OSM     OF14067   3.968   1.304   3.356  0.1609 -0.4106  0.7960
  131OSM    C2F14068   3.930   1.503   3.479 -0.1228  0.0632  1.2645
  131OSM    H2F14069   3.831   1.518   3.432 -0.6753 -0.6499  2.1616
  131OSM    H2G14070   3.995   1.592   3.467  1.5032 -1.1728  0.4551
  131OSM    C3F14071   3.913   1.459   3.631  0.6415  0.3833  0.1074
  131OSM    H3F14072   4.006   1.448   3.690  0.9702  2.3767  0.0107
  131OSM    H3G14073   3.859   1.362   3.645 -2.5845  2.0095 -0.1362
  131OSM    C4F14074   3.827   1.559   3.711  0.9609 -0.5755  0.3496
  131OSM    H4F14075   3.733   1.568   3.652  0.8285  0.1197  0.6595
  131OSM    H4G14076   3.866   1.663   3.705  0.5202 -0.4715 -2.8009
  131OSM    C5F14077   3.777   1.530   3.851 -0.3730 -0.1741 -0.1075
  131OSM    H5F14078   3.713   1.614   3.885 -4.4785 -2.4320 -1.5516
  131OSM    H5G14079   3.874   1.537   3.905  0.2227 -0.7973 -1.0755
  131OSM    C6F14080   3.705   1.394   3.869 -0.4489 -0.0401 -0.3458
  131OSM    H6F14081   3.794   1.328   3.865  0.0592  0.3740  2.3808
  131OSM    H6G14082   3.646   1.386   3.775 -2.4177  1.0484  0.7436
  131OSM    C7F14083   3.629   1.369   3.999  0.4296  0.5672  0.1034
  131OSM    H7F14084   3.548   1.445   4.009  0.9837  0.9616  1.9827
  131OSM    H7G14085   3.701   1.389   4.081 -1.2428  0.9884  1.5201
  131OSM    C8F14086   3.568   1.234   4.021  0.2758  0.3349 -0.1261
  131OSM    H8F14087   3.501   1.219   3.933  0.4663 -0.3811 -0.1569
  131OSM    H8G14088   3.499   1.229   4.108 -2.5538  1.8128 -2.0864
  131OSM    C9F14089   3.677   1.136   4.010 -0.1119 -0.1443 -0.1246
  131OSM    H9F14090   3.708   1.119   3.906 -0.0945 -1.9925  0.1453
  131OSM   C10F14091   3.707   1.048   4.107  0.3386  0.3497 -0.3196
  131OSM   H10F14092   3.790   0.977   4.096 -0.1901 -0.4663  0.8068
  131OSM   C11F14093   3.662   1.051   4.255  0.2278  0.5669  0.5027
  131OSM   H11F14094   3.602   0.959   4.274 -0.6786  1.1876  0.7101
  131OSM   H11G14095   3.593   1.136   4.274 -1.2699  0.1011 -2.2888
  131OSM   C12F14096   3.784   1.079   4.339  0.2848  0.5196  0.4631
  131OSM   H12F14097   3.805   1.188   4.333  3.0966  0.1005  1.3055
  131OSM   H12G14098   3.870   1.026   4.292 -0.4908 -0.8692  0.5599
  131OSM   C13F14099   3.780   1.050   4.495 -0.0230 -0.2044 -0.0348
  131OSM   H13F14100   3.805   0.942   4.504  0.2000 -0.1760 -0.3118
  131OSM   H13G14101   3.692   1.074   4.559 -0.2544  2.3716 -1.1642
  131OSM   C14F14102   3.896   1.122   4.571  0.2582 -0.4758 -0.3369
  131OSM   H14F14103   3.980   1.124   4.498 -0.2318 -0.4992 -0.9052
  131OSM   H14G14104   3.932   1.059   4.655  0.9991  0.2750 -0.0741
  131OSM   C15F14105   3.864   1.265   4.622  0.3007  0.4483 -0.1969
  131OSM   H15F14106   3.819   1.256   4.723 -0.3596  1.5284 -0.3786
  131OSM   H15G14107   3.789   1.320   4.560 -0.8047 -0.3553  0.3785
  131OSM   C16F14108   3.991   1.343   4.646  0.3779 -1.1236  0.4128
  131OSM   H16F14109   4.044   1.350   4.549 -0.4000  0.0775  0.0443
  131OSM   H16G14110   4.051   1.288   4.721  1.1055 -0.9390 -0.0255
  131OSM   C17F14111   3.992   1.487   4.705  0.7771  0.2362 -0.2168
  131OSM   H17F14112   4.098   1.517   4.691  1.2979 -1.1203  0.6818
  131OSM   H17G14113   3.965   1.485   4.813  3.2225  0.7807  0.4660
  131OSM   C18F14114   3.908   1.586   4.618  0.0635 -0.1612  0.5055
  131OSM   H18F14115   3.896   1.533   4.520 -0.5073  0.4264  0.2508
  131OSM   H18G14116   3.937   1.692   4.602 -3.1399  0.8305  0.6396
  131OSM   H18H14117   3.803   1.590   4.652 -0.1581 -0.5148 -0.1070
  132OSM      N14118   2.272   6.464   2.609  0.0339  0.1144 -0.1418
  132OSM    C1514119   2.366   6.356   2.578  0.4189  0.1383 -0.2755
  132OSM   H15A14120   2.384   6.349   2.472 -0.6513  0.4575 -0.4858
  132OSM   H15B14121   2.335   6.257   2.610  1.0579 -0.8698 -2.5809
  132OSM   H15C14122   2.456   6.378   2.634 -0.8121  4.6631  0.2984
  132OSM    C1414123   2.333   6.596   2.580 -0.5968 -0.5016 -0.6640
  132OSM   H14A14124   2.418   6.622   2.642 -1.1810  1.0579 -0.4831
  132OSM   H14B14125   2.269   6.682   2.570 -0.8455 -0.7401 -1.1285
  132OSM   H14C14126   2.377   6.583   2.482  0.3222 -2.5194 -0.0372
  132OSM    C1314127   2.147   6.438   2.520  0.2593 -0.1447 -0.6636
  132OSM   H13A14128   2.182   6.433   2.417 -0.8699  0.5465 -1.0942
  132OSM   H13B14129   2.076   6.517   2.533 -1.9012 -2.4374  3.3375
  132OSM   H13C14130   2.096   6.344   2.538 -0.9526  0.8179  1.1292
  132OSM    C1214131   2.229   6.460   2.758  0.4340  0.4161  0.1967
  132OSM   H12A14132   2.181   6.368   2.789 -1.5523  1.6028  0.8098
  132OSM   H12B14133   2.159   6.536   2.788 -0.5148 -0.7360  0.9825
  132OSM    C1114134   2.355   6.457   2.857 -0.0984 -0.7761  0.2619
  132OSM   H11A14135   2.336   6.525   2.943  3.5797  1.0810 -0.1797
  132OSM   H11B14136   2.441   6.507   2.808 -0.7950 -0.5484 -0.7654
  132OSM      P14137   2.327   6.263   3.007 -0.0574  0.0097 -0.0221
  132OSM    O1314138   2.191   6.298   3.023 -0.2327 -0.0826 -0.3420
  132OSM    O1414139   2.342   6.117   2.986  0.4474  0.4526 -0.4633
  132OSM    O1114140   2.402   6.303   3.137 -0.1895  0.0644  0.6498
  132OSM    O1214141   2.402   6.332   2.888  0.7332 -0.1261 -0.0557
  132OSM    C1S14142   2.376   6.419   3.220  0.1733 -0.2489 -0.6502
  132OSM    H1S14143   2.293   6.395   3.290 -2.0472  0.1548 -2.9744
  132OSM    H1T14144   2.338   6.502   3.157 -0.3566 -0.0038 -0.0251
  132OSM     NF14145   2.491   6.540   3.409 -0.1931  0.6757  0.2159
  132OSM    HNF14146   2.514   6.636   3.417 -0.7356  1.2176 -3.2440
  132OSM    C2S14147   2.513   6.472   3.282  0.5339  0.2484  0.1656
  132OSM    H2S14148   2.576   6.380   3.285  2.2318  1.1930 -2.7087
  132OSM    C3S14149   2.576   6.562   3.172  0.8764  0.2384 -0.0171
  132OSM    H3S14150   2.517   6.653   3.147  0.5213 -0.2774 -1.1524
  132OSM     O314151   2.602   6.493   3.048 -0.1221  0.0677 -0.0606
  132OSM    HO314152   2.535   6.424   3.041 -1.9774  1.6679  0.9921
  132OSM    C4S14153   2.698   6.619   3.233  0.0147  0.1573  0.4046
  132OSM    H4S14154   2.686   6.721   3.274  1.8690  0.5164  0.1455
  132OSM    C5S14155   2.825   6.561   3.238 -0.6331  0.4180 -0.1193
  132OSM    H5S14156   2.848   6.462   3.195  0.9200  0.0213  1.4666
  132OSM    C6S14157   2.949   6.631   3.292 -0.6957  0.3457 -0.2193
  132OSM    H6S14158   2.932   6.737   3.320 -0.2571  0.6534 -1.0893
  132OSM    H6T14159   3.023   6.621   3.210  1.0428  0.3484  1.2931
  132OSM    C7S14160   3.015   6.572   3.423  0.1606  0.0292  0.1415
  132OSM    H7S14161   3.095   6.639   3.460  0.2289  0.4976 -0.8132
  132OSM    H7T14162   3.063   6.476   3.394 -0.8334 -0.3876 -0.1812
  132OSM    C8S14163   2.906   6.556   3.533  0.1004 -0.2544  0.0921
  132OSM    H8S14164   2.956   6.512   3.622  1.6883  2.0666  0.4240
  132OSM    H8T14165   2.826   6.496   3.484 -0.7881  1.6119 -0.8605
  132OSM    C9S14166   2.853   6.684   3.597  0.3459 -0.0247  0.5432
  132OSM    H9S14167   2.793   6.738   3.520 -2.0110 -3.3371 -0.2006
  132OSM    H9T14168   2.938   6.749   3.625  0.8563 -1.2739  2.0007
  132OSM   C10S14169   2.758   6.649   3.719  0.2853  0.3023 -0.0654
  132OSM   H10S14170   2.793   6.550   3.755 -2.8318 -0.7737  0.3208
  132OSM   H10T14171   2.654   6.644   3.681 -0.5694 -2.4375  2.2650
  132OSM   C11S14172   2.783   6.741   3.839 -0.4928  0.5959 -0.5954
  132OSM   H11S14173   2.744   6.843   3.818 -2.2932 -0.0023 -0.3944
  132OSM   H11T14174   2.890   6.760   3.862  0.0290  1.6679 -3.5105
  132OSM   C12S14175   2.704   6.695   3.964 -0.3964 -0.1287 -0.1635
  132OSM   H12S14176   2.703   6.584   3.972 -1.0336 -0.3219 -2.2645
  132OSM   H12T14177   2.597   6.723   3.953 -1.3342 -2.2135  2.4646
  132OSM   C13S14178   2.760   6.752   4.095 -0.8139  0.2459  0.0946
  132OSM   H13S14179   2.781   6.860   4.078 -1.3359  0.2054 -0.9404
  132OSM   H13T14180   2.852   6.694   4.117  0.0238  1.3870 -0.2992
  132OSM   C14S14181   2.657   6.723   4.211 -0.0831 -0.2355 -0.0415
  132OSM   H14S14182   2.638   6.613   4.207 -1.5479 -0.0391  0.5197
  132OSM   H14T14183   2.563   6.772   4.177  0.1169  1.7087  1.9909
  132OSM   C15S14184   2.690   6.777   4.350  0.2093 -0.0107  0.3834
  132OSM   H15S14185   2.604   6.777   4.421  0.2044  2.7948  0.4964
  132OSM   H15T14186   2.711   6.883   4.324  0.1876 -0.1555 -0.2316
  132OSM   C16S14187   2.808   6.717   4.423 -0.5641 -0.3692  0.1469
  132OSM   H16S14188   2.902   6.737   4.366  0.4026  1.8564  2.3586
  132OSM   H16T14189   2.795   6.608   4.439 -1.2274 -0.2552  0.4369
  132OSM   C17S14190   2.816   6.796   4.551  0.1723 -0.4259 -0.1324
  132OSM   H17S14191   2.803   6.902   4.523 -1.2581 -1.1825 -2.5982
  132OSM   H17T14192   2.921   6.782   4.587  0.2211 -1.1878 -0.5544
  132OSM   C18S14193   2.719   6.757   4.670  0.0380 -0.3526  0.2896
  132OSM   H18S14194   2.733   6.829   4.753 -1.1536  3.0334 -2.2324
  132OSM   H18T14195   2.742   6.654   4.706 -0.7532 -0.0892  1.6260
  132OSM   H18U14196   2.611   6.761   4.646 -0.1927 -1.1245  1.1361
  132OSM    C1F14197   2.448   6.475   3.513 -0.9927 -0.1237  0.0594
  132OSM     OF14198   2.455   6.353   3.522 -0.1177  0.5973 -0.0388
  132OSM    C2F14199   2.373   6.558   3.615 -0.1889 -0.7651 -0.0056
  132OSM    H2F14200   2.298   6.612   3.554  0.6382 -0.4308 -0.7498
  132OSM    H2G14201   2.449   6.630   3.652 -1.5810  0.4982  0.4626
  132OSM    C3F14202   2.308   6.477   3.736 -0.5978  0.4350  0.1403
  132OSM    H3F14203   2.337   6.370   3.739 -2.1585 -0.0595 -0.7878
  132OSM    H3G14204   2.199   6.484   3.715 -0.3965  0.2677 -1.0459
  132OSM    C4F14205   2.324   6.553   3.870  0.2084  0.4310 -0.3236
  132OSM    H4F14206   2.264   6.643   3.847 -1.0821 -0.3243 -0.0314
  132OSM    H4G14207   2.431   6.566   3.896 -0.0322  1.0127  0.3702
  132OSM    C5F14208   2.265   6.475   3.992 -0.0255  0.0945 -0.1144
  132OSM    H5F14209   2.279   6.365   3.991 -0.1591  0.0739 -1.4689
  132OSM    H5G14210   2.156   6.495   3.998 -0.3253 -1.7409  1.3212
  132OSM    C6F14211   2.322   6.524   4.118  0.0682  0.2668  0.4180
  132OSM    H6F14212   2.300   6.633   4.122  2.5390  0.7931  1.7538
  132OSM    H6G14213   2.430   6.499   4.113 -0.1342 -0.4924 -0.4952
  132OSM    C7F14214   2.256   6.460   4.237  0.2339 -0.5851 -0.1196
  132OSM    H7F14215   2.294   6.356   4.249  2.7005  0.2042 -0.5983
  132OSM    H7G14216   2.149   6.435   4.224 -0.1996  1.3199 -0.5387
  132OSM    C8F14217   2.285   6.551   4.360  0.3275  0.5080 -0.4623
  132OSM    H8F14218   2.235   6.647   4.333  0.5171  1.3050  1.8346
  132OSM    H8G14219   2.393   6.576   4.366  0.3896 -0.0730  1.8849
  132OSM    C9F14220   2.234   6.475   4.486 -0.0043 -0.0008  1.1857
  132OSM    H9F14221   2.169   6.388   4.467  0.0146  0.1205  0.5210
  132OSM   C10F14222   2.285   6.491   4.605  0.0340 -0.3156 -0.5661
  132OSM   H10F14223   2.243   6.435   4.690 -1.7934  2.7822  0.7522
  132OSM   C11F14224   2.393   6.588   4.634 -0.1328 -0.4531  0.3128
  132OSM   H11F14225   2.429   6.647   4.547 -0.2356  0.1737  0.6912
  132OSM   H11G14226   2.485   6.531   4.659  0.9138  0.8857 -0.3166
  132OSM   C12F14227   2.361   6.681   4.760 -0.4687  0.0819 -0.3575
  132OSM   H12F14228   2.268   6.738   4.737 -0.9818 -0.2097  0.8927
  132OSM   H12G14229   2.453   6.740   4.780  0.4834 -0.9944 -1.4263
  132OSM   C13F14230   2.347   6.604   4.891  0.5612 -0.3174 -0.0474
  132OSM   H13F14231   2.443   6.553   4.913  0.3768 -1.2146 -1.2009
  132OSM   H13G14232   2.278   6.518   4.875  1.5127 -0.9292 -1.0112
  132OSM   C14F14233   2.314   6.694   5.010  0.5509  0.0921 -0.1600
  132OSM   H14F14234   2.301   6.626   5.097 -0.4995  1.7978  1.0915
  132OSM   H14G14235   2.222   6.754   4.996 -0.6438 -1.6743 -0.1940
  132OSM   C15F14236   2.434   6.786   5.040 -0.6190 -0.4572 -0.1441
  132OSM   H15F14237   2.426   6.869   4.967  2.3510 -0.2532 -0.3437
  132OSM   H15G14238   2.526   6.728   5.020 -1.4652 -1.1314 -2.4462
  132OSM   C16F14239   2.444   6.841   5.186  0.2927  0.3116 -0.8491
  132OSM   H16F14240   2.442   6.751   5.251 -0.3065 -0.7308 -2.2592
  132OSM   H16G14241   2.351   6.897   5.211 -0.8634 -2.0080  0.2905
  132OSM   C17F14242   2.561   6.936   5.219  0.2765 -0.1276  0.0696
  132OSM   H17F14243   2.561   7.029   5.158 -2.8613 -0.6243 -0.8417
  132OSM   H17G14244   2.657   6.896   5.179  0.0306 -0.5345 -0.1224
  132OSM   C18F14245   2.578   6.969   5.363  0.3889 -0.4845  0.3824
  132OSM   H18F14246   2.590   6.877   5.423  0.1674  0.1360  1.4013
  132OSM   H18G14247   2.490   7.025   5.402  0.1916 -0.3883 -0.1954
  132OSM   H18H14248   2.669   7.032   5.378 -1.0233  1.3729  1.6005
  133OSM      N14249   2.101   1.812   2.637 -0.3020  0.2108  0.8728
  133OSM    C1514250   2.215   1.766   2.720 -0.2260 -0.4005 -0.6881
  133OSM   H15A14251   2.217   1.658   2.720 -1.1749 -0.4356 -1.7942
  133OSM   H15B14252   2.212   1.808   2.819  1.6293 -0.2597 -0.6539
  133OSM   H15C14253   2.303   1.809   2.674  0.2031  1.0680  1.3699
  133OSM    C1414254   2.116   1.762   2.501  0.1441  0.0237 -0.6869
  133OSM   H14A14255   2.137   1.657   2.512 -1.8818 -0.2730  1.0519
  133OSM   H14B14256   2.189   1.815   2.443 -0.0350 -0.2102 -1.1290
  133OSM   H14C14257   2.020   1.765   2.453 -0.9772  1.0174  1.4567
  133OSM    C1314258   1.982   1.753   2.701  0.4554  0.2782  0.0461
  133OSM   H13A14259   1.890   1.784   2.653  0.1514  1.8689  1.5391
  133OSM   H13B14260   1.957   1.797   2.797 -2.0595 -1.3297  0.2329
  133OSM   H13C14261   1.981   1.645   2.712  1.0378  0.3851  1.2824
  133OSM    C1214262   2.096   1.968   2.633  0.8465  0.0940  0.1860
  133OSM   H12A14263   2.017   1.989   2.562  1.0957 -1.9001 -0.7648
  133OSM   H12B14264   2.180   2.002   2.576 -0.0919  2.8396  0.2852
  133OSM    C1114265   2.080   2.051   2.764  1.0810  0.5042 -0.0496
  133OSM   H11A14266   2.147   2.005   2.840 -0.6558  0.1301  1.3098
  133OSM   H11B14267   1.981   2.037   2.812  0.9444  1.8185  0.0919
  133OSM      P14268   2.202   2.276   2.824 -0.3154 -0.1895  0.1747
  133OSM    O1314269   2.336   2.222   2.825  0.6646 -0.2018 -0.0263
  133OSM    O1414270   2.184   2.416   2.779 -0.4924  0.6015 -0.0469
  133OSM    O1114271   2.143   2.263   2.973 -0.6658  0.4230 -0.3504
  133OSM    O1214272   2.096   2.188   2.741 -0.3698 -0.0489 -0.6314
  133OSM    C1S14273   2.217   2.184   3.069 -0.9014 -0.7571  0.0989
  133OSM    H1S14274   2.325   2.209   3.075 -0.7267 -1.5888  0.5914
  133OSM    H1T14275   2.203   2.075   3.048  2.4521 -1.8113  2.4765
  133OSM     NF14276   2.255   2.178   3.315  0.1031  0.3563 -0.6008
  133OSM    HNF14277   2.246   2.089   3.359  1.3521  0.8939  0.8025
  133OSM    C2S14278   2.152   2.199   3.211 -0.5213 -0.7127  0.0183
  133OSM    H2S14279   2.121   2.305   3.215 -0.2728 -0.6649  1.0303
  133OSM    C3S14280   2.016   2.122   3.212 -0.1287  0.1455 -0.4205
  133OSM    H3S14281   2.020   2.011   3.205 -1.3948  0.1722 -2.1391
  133OSM     O314282   1.939   2.151   3.101 -0.1946 -0.1700 -0.4233
  133OSM    HO314283   2.004   2.187   3.040 -0.7225  2.8953  0.6409
  133OSM    C4S14284   1.934   2.148   3.331  0.0190  0.1653 -0.0046
  133OSM    H4S14285   1.898   2.252   3.341  1.1768  0.4608  1.5812
  133OSM    C5S14286   1.900   2.062   3.430 -0.3491  0.1298 -0.0954
  133OSM    H5S14287   1.941   1.960   3.439  2.2421  0.8336 -2.7117
  133OSM    C6S14288   1.822   2.113   3.547 -0.0826 -0.5650 -0.1500
  133OSM    H6S14289   1.725   2.060   3.552  0.1323 -0.8658  1.0447
  133OSM    H6T14290   1.803   2.222   3.530 -0.3370 -0.6258 -0.2599
  133OSM    C7S14291   1.900   2.100   3.682  0.1031 -0.0520  0.5225
  133OSM    H7S14292   2.003   2.139   3.671  0.9491 -1.9879  1.1136
  133OSM    H7T14293   1.897   1.992   3.708 -1.3625  0.1386  1.2667
  133OSM    C8S14294   1.815   2.153   3.800 -0.0085  0.7911 -0.4194
  133OSM    H8S14295   1.708   2.125   3.796 -0.0238 -0.1435  3.1591
  133OSM    H8T14296   1.834   2.263   3.796 -0.1488  0.7982 -1.0488
  133OSM    C9S14297   1.878   2.105   3.927 -0.1570  0.4001  0.5092
  133OSM    H9S14298   1.974   2.156   3.948 -0.0305  0.4558 -0.2056
  133OSM    H9T14299   1.901   1.996   3.923  0.9454  0.6294  0.4328
  133OSM   C10S14300   1.798   2.117   4.056  0.0502 -0.0030 -0.0041
  133OSM   H10S14301   1.712   2.047   4.053  0.5814 -0.6741  0.0333
  133OSM   H10T14302   1.765   2.223   4.066  1.0163  0.4435 -1.2146
  133OSM   C11S14303   1.868   2.079   4.193  0.0472 -0.0044 -0.1377
  133OSM   H11S14304   1.958   2.144   4.199 -0.1178  0.1389  1.0521
  133OSM   H11T14305   1.885   1.970   4.189 -1.9419 -0.3541 -0.0160
  133OSM   C12S14306   1.779   2.116   4.310 -0.3837  1.1588  0.2020
  133OSM   H12S14307   1.684   2.062   4.294  0.3358 -0.5755  1.3492
  133OSM   H12T14308   1.767   2.226   4.302  0.0856  1.1329 -1.0092
  133OSM   C13S14309   1.845   2.060   4.434 -0.1330 -1.1412 -0.7098
  133OSM   H13S14310   1.951   2.093   4.439  0.0336 -1.8172  0.6433
  133OSM   H13T14311   1.841   1.949   4.441 -2.2918 -1.1051 -0.4798
  133OSM   C14S14312   1.778   2.104   4.570  0.3092 -0.1030 -0.5892
  133OSM   H14S14313   1.684   2.043   4.568  1.1965 -1.4974 -1.6903
  133OSM   H14T14314   1.761   2.214   4.566  1.2437  0.0289 -1.1187
  133OSM   C15S14315   1.863   2.060   4.691 -0.2737  0.0208 -0.6079
  133OSM   H15S14316   1.971   2.074   4.665 -0.5563  2.3237 -0.7749
  133OSM   H15T14317   1.830   1.955   4.702  0.0508 -0.3410 -2.6985
  133OSM   C16S14318   1.828   2.133   4.818  0.0126 -0.3934 -0.0542
  133OSM   H16S14319   1.720   2.114   4.839 -0.7149  0.0371 -2.9755
  133OSM   H16T14320   1.829   2.244   4.809 -3.1977 -0.2592  0.1165
  133OSM   C17S14321   1.903   2.090   4.948 -0.4863 -0.6380 -0.1918
  133OSM   H17S14322   1.909   1.979   4.948 -0.4221 -0.6410 -1.3647
  133OSM   H17T14323   1.838   2.124   5.031 -1.9517 -0.4551 -1.3778
  133OSM   C18S14324   2.041   2.160   4.958  0.4693  0.5517  0.2269
  133OSM   H18S14325   2.108   2.104   5.026  0.2171  1.2603  1.0791
  133OSM   H18T14326   2.026   2.262   4.998 -0.0746  0.5234  0.1138
  133OSM   H18U14327   2.088   2.175   4.859  0.5552  1.8184  0.4401
  133OSM    C1F14328   2.367   2.251   3.343 -0.4453  0.4482 -0.8539
  133OSM     OF14329   2.399   2.353   3.278  0.3268 -0.0524  0.2071
  133OSM    C2F14330   2.466   2.202   3.445 -0.6635  0.6208 -0.9355
  133OSM    H2F14331   2.504   2.286   3.507  1.9833 -0.9377 -0.2863
  133OSM    H2G14332   2.560   2.172   3.395  0.2012  1.1982  0.2967
  133OSM    C3F14333   2.418   2.085   3.545  0.2119  0.4737  0.4090
  133OSM    H3F14334   2.516   2.052   3.587 -0.0761  1.0259  1.5550
  133OSM    H3G14335   2.378   2.000   3.485  0.5057  0.9591 -0.4997
  133OSM    C4F14336   2.339   2.137   3.656 -0.2853 -0.1500 -0.1507
  133OSM    H4F14337   2.242   2.185   3.630  0.7721  2.3008  0.1746
  133OSM    H4G14338   2.394   2.221   3.703 -0.1787  0.0608 -0.6546
  133OSM    C5F14339   2.309   2.023   3.756  0.5552  0.1279 -0.3934
  133OSM    H5F14340   2.403   1.966   3.772  0.6142  0.6284  1.2345
  133OSM    H5G14341   2.221   1.961   3.730 -2.8400  3.1098  2.8975
  133OSM    C6F14342   2.281   2.084   3.898 -0.6241  0.3865  0.3853
  133OSM    H6F14343   2.216   2.173   3.885 -0.7713  0.4762  1.6157
  133OSM    H6G14344   2.376   2.128   3.935  0.0563 -1.2510  0.6818
  133OSM    C7F14345   2.223   1.994   4.008  0.0657  0.0046  0.0494
  133OSM    H7F14346   2.285   1.903   4.022 -1.3040 -0.7600  1.6695
  133OSM    H7G14347   2.124   1.962   3.969  0.4864 -2.6098  0.9336
  133OSM    C8F14348   2.202   2.055   4.144 -0.2539  0.2727 -0.0482
  133OSM    H8F14349   2.127   1.994   4.199  0.5119 -0.8068 -0.1634
  133OSM    H8G14350   2.159   2.153   4.116  0.2735  0.3506 -0.5919
  133OSM    C9F14351   2.334   2.077   4.219  0.6526 -1.1629 -0.1102
  133OSM    H9F14352   2.404   2.149   4.175  1.7821 -2.3750 -0.3461
  133OSM   C10F14353   2.382   2.007   4.323  0.3190  0.0656 -0.5499
  133OSM   H10F14354   2.482   2.029   4.362  0.4910  0.8570 -1.3799
  133OSM   C11F14355   2.301   1.915   4.401  0.4194  0.8134 -0.1033
  133OSM   H11F14356   2.369   1.834   4.438 -2.0199 -1.4629 -0.2849
  133OSM   H11G14357   2.222   1.859   4.347  0.6380  0.1487  0.2475
  133OSM   C12F14358   2.230   1.998   4.512 -0.1355  0.3419 -1.2400
  133OSM   H12F14359   2.141   1.938   4.541 -0.5167 -1.0976 -4.8559
  133OSM   H12G14360   2.188   2.093   4.472  0.2650  1.4670  0.8560
  133OSM   C13F14361   2.326   2.030   4.628  0.5581  0.2732  0.9278
  133OSM   H13F14362   2.282   2.109   4.693  1.3309  2.6379 -1.2663
  133OSM   H13G14363   2.418   2.079   4.590 -1.0625 -0.0471 -4.2164
  133OSM   C14F14364   2.362   1.912   4.714 -0.3884 -0.2235  0.6009
  133OSM   H14F14365   2.412   1.838   4.649 -1.9216 -0.3220 -0.5228
  133OSM   H14G14366   2.268   1.865   4.750 -1.2442  0.3555 -0.7926
  133OSM   C15F14367   2.447   1.948   4.834  0.1196 -0.4441 -0.5281
  133OSM   H15F14368   2.463   2.055   4.861  1.4207 -0.8295  0.3011
  133OSM   H15G14369   2.550   1.914   4.807  0.6792  0.6515  0.1622
  133OSM   C16F14370   2.399   1.872   4.958 -0.6862  0.9935 -0.9936
  133OSM   H16F14371   2.397   1.763   4.935 -0.2053  1.4369 -3.4338
  133OSM   H16G14372   2.297   1.892   4.996  0.2960  1.9756  1.3095
  133OSM   C17F14373   2.488   1.911   5.082 -0.2712 -0.3986  0.9395
  133OSM   H17F14374   2.475   2.020   5.100  1.6803 -0.3212  2.2381
  133OSM   H17G14375   2.593   1.879   5.066 -0.4504 -0.2073 -0.8034
  133OSM   C18F14376   2.446   1.845   5.217  0.1477 -0.1322 -0.2167
  133OSM   H18F14377   2.463   1.736   5.206 -0.2794 -0.2250 -0.0130
  133OSM   H18G14378   2.340   1.877   5.231  0.7944  1.9238  0.3024
  133OSM   H18H14379   2.500   1.875   5.309  1.9208 -1.7321 -0.6919
  134OSM      N14380   2.064   0.549   2.941 -0.1686  0.0555  0.5934
  134OSM    C1514381   2.057   0.623   2.810  0.4180 -0.3242 -0.7173
  134OSM   H15A14382   2.077   0.729   2.821  1.1157 -0.3421 -1.7022
  134OSM   H15B14383   1.956   0.625   2.774 -0.0777  2.1996  0.5637
  134OSM   H15C14384   2.126   0.590   2.733  1.4506 -0.2409  0.1428
  134OSM    C1414385   2.193   0.586   3.003 -0.4800  0.0157 -0.2357
  134OSM   H14A14386   2.201   0.543   3.102  0.2297 -0.4976 -0.5119
  134OSM   H14B14387   2.217   0.691   2.994 -1.6296  0.1588 -2.4958
  134OSM   H14C14388   2.279   0.543   2.954  0.0960 -0.0501  0.8032
  134OSM    C1314389   1.960   0.606   3.027  0.0786 -0.5169 -0.4940
  134OSM   H13A14390   1.858   0.593   2.993  0.3187  0.9928 -1.9398
  134OSM   H13B14391   1.979   0.708   3.058  1.8649 -1.4735  1.8434
  134OSM   H13C14392   1.961   0.549   3.118 -0.2613 -1.0178 -0.7965
  134OSM    C1214393   2.039   0.397   2.935 -0.4879 -0.1435 -0.2484
  134OSM   H12A14394   2.110   0.353   2.867 -0.4753  1.3966 -1.2936
  134OSM   H12B14395   1.940   0.386   2.895 -0.0381  0.8847 -1.7205
  134OSM    C1114396   2.057   0.323   3.069 -0.4266  0.2103 -0.3808
  134OSM   H11A14397   2.013   0.224   3.043  0.1150 -0.8034  2.3142
  134OSM   H11B14398   1.996   0.365   3.151  1.8970 -0.7846  1.9869
  134OSM      P14399   2.272   0.196   3.146  0.3619  0.4161  0.1338
  134OSM    O1314400   2.281   0.117   3.019  0.2825  0.3837 -0.0639
  134OSM    O1414401   2.395   0.231   3.217  0.5576  0.3840  0.2420
  134OSM    O1114402   2.183   0.115   3.237  0.0304 -0.5352 -0.2949
  134OSM    O1214403   2.185   0.326   3.130 -0.0124  0.1107 -0.3053
  134OSM    C1S14404   2.174   0.116   3.382 -0.6593 -0.2368  0.5706
  134OSM    H1S14405   2.271   0.137   3.432 -1.9615  1.0255  2.6714
  134OSM    H1T14406   2.138   0.014   3.409  0.2567 -0.9437 -0.7014
  134OSM     NF14407   2.092   0.246   3.574 -0.6756  0.5995  0.1211
  134OSM    HNF14408   2.037   0.186   3.632  1.6285 -1.9944 -0.1570
  134OSM    C2S14409   2.069   0.223   3.432 -0.4090  0.5996  0.4697
  134OSM    H2S14410   2.096   0.312   3.372 -3.1980 -0.5578 -2.7935
  134OSM    C3S14411   1.922   0.177   3.400 -0.1062 -0.4445 -0.5054
  134OSM    H3S14412   1.898   0.095   3.471  0.4518  0.2769  0.5532
  134OSM     O314413   1.891   0.121   3.271  0.8390 -0.2655 -0.2492
  134OSM    HO314414   1.979   0.100   3.240  2.6548  2.2875  2.6483
  134OSM    C4S14415   1.831   0.284   3.433  0.3399 -0.7854  0.8035
  134OSM    H4S14416   1.785   0.268   3.532  2.7219  0.5353  2.2033
  134OSM    C5S14417   1.794   0.382   3.355 -0.9388  0.5380 -0.4982
  134OSM    H5S14418   1.826   0.390   3.251 -0.5730  0.5710 -0.3841
  134OSM    C6S14419   1.695   0.485   3.400 -0.7130 -0.0581 -0.2022
  134OSM    H6S14420   1.600   0.465   3.346 -1.2493  1.3097  0.1934
  134OSM    H6T14421   1.747   0.582   3.383  0.6083 -0.5535  0.8554
  134OSM    C7S14422   1.643   0.482   3.545 -0.2435  0.3097  0.2257
  134OSM    H7S14423   1.618   0.375   3.561  0.4123 -0.2470 -2.1171
  134OSM    H7T14424   1.540   0.523   3.552 -0.7725 -0.3705 -2.2762
  134OSM    C8S14425   1.737   0.545   3.646 -0.1787 -0.4418 -0.1803
  134OSM    H8S14426   1.749   0.650   3.612 -4.9238  0.7524  1.1540
  134OSM    H8T14427   1.832   0.486   3.650 -0.3088 -0.5987  1.1710
  134OSM    C9S14428   1.698   0.531   3.795 -0.2756  0.1159 -0.3153
  134OSM    H9S14429   1.675   0.424   3.811  0.4357  0.0660  0.3994
  134OSM    H9T14430   1.608   0.594   3.813  1.0493  2.4397 -1.3994
  134OSM   C10S14431   1.810   0.571   3.895 -0.1586 -0.7513  0.0048
  134OSM   H10S14432   1.832   0.677   3.871  0.9875 -0.8618  0.4846
  134OSM   H10T14433   1.899   0.510   3.868  0.2422  0.3133 -1.1580
  134OSM   C11S14434   1.757   0.555   4.036 -0.0273  0.2856 -0.0677
  134OSM   H11S14435   1.734   0.447   4.044  1.7464 -0.2532 -1.5850
  134OSM   H11T14436   1.667   0.620   4.046 -1.0124 -0.8726 -1.0553
  134OSM   C12S14437   1.861   0.572   4.147  0.5827  0.0599 -0.5601
  134OSM   H12S14438   1.913   0.669   4.133  0.9149  0.2780  1.8927
  134OSM   H12T14439   1.936   0.490   4.139 -0.6364 -1.3053  1.1947
  134OSM   C13S14440   1.807   0.564   4.287 -0.1908 -0.1821 -0.0297
  134OSM   H13S14441   1.750   0.470   4.303  0.1977 -0.1790  1.5887
  134OSM   H13T14442   1.728   0.642   4.289  0.3613  0.5238 -2.6317
  134OSM   C14S14443   1.912   0.598   4.391 -0.8855  0.4340  1.1080
  134OSM   H14S14444   1.978   0.684   4.368 -0.4579 -0.0760  0.3965
  134OSM   H14T14445   1.971   0.505   4.401  0.5244  1.1553 -0.1057
  134OSM   C15S14446   1.855   0.624   4.529 -0.1194 -0.3572  0.2031
  134OSM   H15S14447   1.776   0.549   4.551  1.0531 -1.0273  2.4283
  134OSM   H15T14448   1.804   0.722   4.522 -0.3886 -0.4890  0.2806
  134OSM   C16S14449   1.962   0.632   4.638  0.0360 -0.0862 -0.8423
  134OSM   H16S14450   2.015   0.727   4.621 -2.1114  1.3193 -0.1404
  134OSM   H16T14451   2.036   0.550   4.625 -1.1457 -1.2269 -0.5900
  134OSM   C17S14452   1.894   0.626   4.777  0.2553 -0.7578  0.2149
  134OSM   H17S14453   1.865   0.524   4.809 -0.6380 -0.5463  0.0858
  134OSM   H17T14454   1.810   0.699   4.781 -0.8144 -1.8942 -0.7278
  134OSM   C18S14455   2.003   0.657   4.881  0.0061 -0.1288  0.4492
  134OSM   H18S14456   1.963   0.653   4.984 -0.6232  3.5998  0.4986
  134OSM   H18T14457   2.031   0.764   4.891  1.8278 -0.7376  2.9930
  134OSM   H18U14458   2.098   0.599   4.876  0.3061 -0.1827  4.0335
  134OSM    C1F14459   2.188   0.311   3.624 -0.0759  0.1269  0.2789
  134OSM     OF14460   2.237   0.397   3.555 -0.1337  0.2748 -0.2906
  134OSM    C2F14461   2.225   0.287   3.768  0.3939 -0.2832  0.1357
  134OSM    H2F14462   2.210   0.178   3.785  2.8378 -0.9539 -1.4845
  134OSM    H2G14463   2.152   0.346   3.827 -0.3937 -0.6310 -0.4823
  134OSM    C3F14464   2.364   0.346   3.811 -0.4168 -0.3687 -0.5221
  134OSM    H3F14465   2.366   0.454   3.789  1.7954 -0.4213 -0.8058
  134OSM    H3G14466   2.447   0.309   3.747 -0.1798  0.1326 -0.5073
  134OSM    C4F14467   2.409   0.311   3.956 -0.3406  0.2410  0.0414
  134OSM    H4F14468   2.515   0.340   3.973 -0.1723  0.0640 -0.6615
  134OSM    H4G14469   2.397   0.201   3.972  0.4789 -0.0275 -1.0603
  134OSM    C5F14470   2.315   0.379   4.057  0.0977 -0.3198  0.0794
  134OSM    H5F14471   2.211   0.364   4.020  0.4552  0.5634 -1.3618
  134OSM    H5G14472   2.338   0.487   4.054 -1.2985  0.0439  1.3231
  134OSM    C6F14473   2.315   0.316   4.201  0.3945  0.3056  0.1293
  134OSM    H6F14474   2.418   0.301   4.239 -0.2160  0.9458  2.1678
  134OSM    H6G14475   2.281   0.212   4.189  1.7198  0.1329 -3.2453
  134OSM    C7F14476   2.245   0.408   4.302  0.7369  0.2251  0.0246
  134OSM    H7F14477   2.151   0.448   4.259  1.1393 -0.2254 -1.3444
  134OSM    H7G14478   2.311   0.497   4.317 -0.3538  0.7915  1.7793
  134OSM    C8F14479   2.222   0.346   4.448 -1.0567  0.1902 -0.3551
  134OSM    H8F14480   2.173   0.246   4.439  0.8767 -1.1734  2.5176
  134OSM    H8G14481   2.164   0.424   4.501 -0.2195  0.9941 -0.6009
  134OSM    C9F14482   2.360   0.320   4.514 -1.0183 -0.2356  0.4287
  134OSM    H9F14483   2.421   0.236   4.477  0.9715  1.3422 -0.0353
  134OSM   C10F14484   2.410   0.398   4.612 -0.2291  0.6196  0.2124
  134OSM   H10F14485   2.509   0.371   4.654  0.1505  2.0834  0.3303
  134OSM   C11F14486   2.345   0.511   4.680 -0.9271  0.0360 -0.2699
  134OSM   H11F14487   2.267   0.485   4.755  0.1772  2.9970  2.1357
  134OSM   H11G14488   2.300   0.571   4.597  1.2383 -0.7044 -2.0852
  134OSM   C12F14489   2.446   0.618   4.752  0.4507  0.5242  0.5305
  134OSM   H12F14490   2.391   0.712   4.772 -2.8160 -0.7624 -1.5455
  134OSM   H12G14491   2.535   0.637   4.689 -0.3105 -1.9171 -1.4919
  134OSM   C13F14492   2.504   0.554   4.883  0.7591 -0.8407 -0.2249
  134OSM   H13F14493   2.584   0.482   4.856 -1.3019 -2.8833 -1.1817
  134OSM   H13G14494   2.421   0.497   4.929 -0.6746  0.8933 -0.5100
  134OSM   C14F14495   2.544   0.658   4.985 -0.1050 -0.4320 -0.5339
  134OSM   H14F14496   2.628   0.715   4.942  0.5593 -0.4788  0.6535
  134OSM   H14G14497   2.577   0.606   5.078 -0.3840  0.7477  0.2433
  134OSM   C15F14498   2.428   0.751   5.019 -0.0110 -0.3357 -0.6186
  134OSM   H15F14499   2.340   0.694   5.057  0.1425  0.9341  1.8373
  134OSM   H15G14500   2.395   0.823   4.942 -1.8806 -0.8735 -0.3865
  134OSM   C16F14501   2.467   0.845   5.130  0.9050  0.3039 -0.6038
  134OSM   H16F14502   2.377   0.907   5.148 -0.4265 -1.6701 -0.1859
  134OSM   H16G14503   2.560   0.899   5.099  1.2106  0.3987  0.4343
  134OSM   C17F14504   2.490   0.774   5.271 -0.2019 -0.0984  0.7651
  134OSM   H17F14505   2.518   0.849   5.348 -1.3789  1.6327 -0.4480
  134OSM   H17G14506   2.584   0.716   5.254  0.5290  1.5432 -1.1944
  134OSM   C18F14507   2.384   0.676   5.310  0.1639 -0.7604 -0.1668
  134OSM   H18F14508   2.393   0.635   5.413 -0.8421  0.9572  0.6532
  134OSM   H18G14509   2.398   0.584   5.249  1.8629 -0.7601  0.1785
  134OSM   H18H14510   2.283   0.716   5.288 -0.2205 -1.5204  0.1600
  135OSM      N14511   3.085   3.041   2.690  0.5597 -0.2108  0.4686
  135OSM    C1514512   3.121   2.934   2.595  0.2287 -0.0271  0.1857
  135OSM   H15A14513   3.061   2.846   2.610 -2.5007  1.1873 -2.5477
  135OSM   H15B14514   3.228   2.921   2.597 -0.0221 -2.4641 -0.0919
  135OSM   H15C14515   3.099   2.966   2.494  0.8361 -1.1485 -0.3175
  135OSM    C1414516   2.939   3.050   2.677 -0.2647 -0.6129 -0.2380
  135OSM   H14A14517   2.907   3.129   2.743 -0.6272 -0.5760 -0.4547
  135OSM   H14B14518   2.883   2.962   2.706  0.8474 -0.8227  1.3823
  135OSM   H14C14519   2.907   3.085   2.580  1.2779  2.4571  0.2594
  135OSM    C1314520   3.122   3.004   2.829  0.0235  0.4582  0.7290
  135OSM   H13A14521   3.040   2.941   2.860 -0.6869  0.7338 -0.5111
  135OSM   H13B14522   3.124   3.088   2.896 -2.1646 -0.3382  1.9002
  135OSM   H13C14523   3.218   2.955   2.826 -0.1752  0.1030 -1.8375
  135OSM    C1214524   3.149   3.169   2.646  0.1152  0.2102  0.3781
  135OSM   H12A14525   3.098   3.208   2.559 -0.4411 -1.7202 -0.2181
  135OSM   H12B14526   3.253   3.162   2.620 -0.0357  1.0342 -0.4777
  135OSM    C1114527   3.150   3.283   2.749  0.6376  0.6224 -0.5449
  135OSM   H11A14528   3.213   3.360   2.699  0.2695  2.2894  1.4219
  135OSM   H11B14529   3.205   3.250   2.839  0.0933  1.2792  0.0447
  135OSM      P14530   2.947   3.446   2.718 -0.0186  0.0174 -0.4031
  135OSM    O1314531   3.037   3.517   2.624 -0.6736 -0.1376 -0.6054
  135OSM    O1414532   2.830   3.386   2.655 -0.0247 -0.2680  0.2196
  135OSM    O1114533   2.903   3.544   2.837 -0.1308  0.2116  0.9022
  135OSM    O1214534   3.020   3.325   2.788 -0.5951 -0.0275 -0.4032
  135OSM    C1S14535   2.873   3.483   2.958  0.0975  0.0813  0.4897
  135OSM    H1S14536   2.970   3.457   3.003  1.4987 -0.1402 -2.4237
  135OSM    H1T14537   2.814   3.390   2.945 -3.0245  2.2688 -3.3716
  135OSM     NF14538   2.767   3.504   3.178 -0.4026  0.1099 -0.0923
  135OSM    HNF14539   2.676   3.469   3.197 -0.5983  0.2898 -0.6650
  135OSM    C2S14540   2.789   3.572   3.053 -0.1125 -0.3809  0.9183
  135OSM    H2S14541   2.851   3.662   3.073 -0.9466  0.8664 -1.5812
  135OSM    C3S14542   2.668   3.633   2.973  0.6110  0.1093  0.1211
  135OSM    H3S14543   2.607   3.552   2.926 -1.3808 -0.1554  2.9217
  135OSM     O314544   2.706   3.721   2.864  0.3491  0.2799  0.0274
  135OSM    HO314545   2.800   3.703   2.851  0.8201  2.5574 -0.1925
  135OSM    C4S14546   2.576   3.706   3.063  0.2246  0.0022  0.3836
  135OSM    H4S14547   2.616   3.788   3.124 -1.7071  0.4050  1.1695
  135OSM    C5S14548   2.446   3.670   3.083 -0.4034 -0.9967 -0.5260
  135OSM    H5S14549   2.396   3.592   3.024  0.4347 -3.1787  1.4718
  135OSM    C6S14550   2.354   3.739   3.181 -0.1403 -0.4523 -1.1900
  135OSM    H6S14551   2.275   3.662   3.198 -0.5119 -0.4934 -2.9257
  135OSM    H6T14552   2.303   3.825   3.131 -0.4010  0.1955  0.1360
  135OSM    C7S14553   2.419   3.796   3.312  0.6312 -0.1967  0.0243
  135OSM    H7S14554   2.497   3.873   3.292 -0.0365  0.6355  0.5067
  135OSM    H7T14555   2.466   3.722   3.380 -1.9053 -1.4447  0.5179
  135OSM    C8S14556   2.330   3.871   3.413  0.0984 -0.1955  0.5043
  135OSM    H8S14557   2.256   3.802   3.459 -0.4933  1.7489  2.7192
  135OSM    H8T14558   2.278   3.953   3.359  0.2710  0.0634  0.7207
  135OSM    C9S14559   2.410   3.931   3.530 -1.2034 -0.0013 -0.2202
  135OSM    H9S14560   2.450   4.021   3.479  0.3210 -0.7260 -0.3437
  135OSM    H9T14561   2.483   3.854   3.561 -2.8248 -0.5095  2.7202
  135OSM   C10S14562   2.325   3.978   3.651  0.3412  0.5604 -0.2859
  135OSM   H10S14563   2.256   3.895   3.676 -0.5782  1.8740  1.8686
  135OSM   H10T14564   2.266   4.070   3.629 -0.1926  0.1431 -0.6260
  135OSM   C11S14565   2.410   4.000   3.775  0.4465  0.2400 -0.4035
  135OSM   H11S14566   2.472   4.091   3.757  1.2766 -0.5423 -1.6450
  135OSM   H11T14567   2.471   3.911   3.796  0.5720  0.5778  0.7217
  135OSM   C12S14568   2.311   4.021   3.894 -1.0320 -0.4072  0.3073
  135OSM   H12S14569   2.217   3.964   3.878 -1.3365  0.2284 -0.2505
  135OSM   H12T14570   2.280   4.127   3.898 -2.2301 -0.7906  2.3150
  135OSM   C13S14571   2.385   3.983   4.018 -0.3231  0.6070 -0.2996
  135OSM   H13S14572   2.466   4.055   4.040 -0.4694  0.6789  0.0066
  135OSM   H13T14573   2.437   3.885   4.014  1.4984  1.5356 -0.5032
  135OSM   C14S14574   2.291   3.976   4.134  0.4873 -0.6498 -0.0818
  135OSM   H14S14575   2.213   3.900   4.113 -0.7144 -0.0417  1.9254
  135OSM   H14T14576   2.237   4.072   4.125  0.8288 -0.5476 -1.1715
  135OSM   C15S14577   2.366   3.972   4.267  0.1610  0.5516  0.2451
  135OSM   H15S14578   2.411   4.072   4.284  1.5200  0.0798 -0.4099
  135OSM   H15T14579   2.449   3.899   4.282 -1.2372 -0.7825  2.0086
  135OSM   C16S14580   2.267   3.939   4.380 -0.1301 -0.0499  0.4046
  135OSM   H16S14581   2.219   3.839   4.371 -1.4534  0.4041  1.9925
  135OSM   H16T14582   2.186   4.016   4.380 -0.0927 -0.0060  0.0514
  135OSM   C17S14583   2.333   3.946   4.511 -0.9120  0.3845  0.2694
  135OSM   H17S14584   2.387   4.044   4.513  0.8513 -0.4715 -1.4464
  135OSM   H17T14585   2.419   3.875   4.517 -0.8315  0.0731 -2.7851
  135OSM   C18S14586   2.241   3.940   4.634  0.2347 -0.6641 -0.2183
  135OSM   H18S14587   2.138   3.929   4.593  0.1895  0.6081 -0.4916
  135OSM   H18T14588   2.243   4.029   4.701  0.2358 -0.2149 -0.8057
  135OSM   H18U14589   2.279   3.853   4.692  1.8565  0.3044  0.2345
  135OSM    C1F14590   2.858   3.459   3.263  0.1225  0.1477  0.3338
  135OSM     OF14591   2.979   3.481   3.257  0.2072  0.4941 -0.1657
  135OSM    C2F14592   2.806   3.370   3.370  0.1259 -0.5200  0.2731
  135OSM    H2F14593   2.786   3.273   3.319  0.8597 -1.0410  0.9633
  135OSM    H2G14594   2.716   3.416   3.416  0.9972  1.0523  0.4613
  135OSM    C3F14595   2.909   3.348   3.483  0.0030  0.7931 -0.1197
  135OSM    H3F14596   2.919   3.440   3.544 -2.2717  0.2152  1.2417
  135OSM    H3G14597   3.011   3.340   3.440  0.3745  1.9959  0.4826
  135OSM    C4F14598   2.858   3.235   3.581 -0.0689 -0.2086  0.8529
  135OSM    H4F14599   2.857   3.143   3.519  1.4371  0.7957 -0.7647
  135OSM    H4G14600   2.753   3.261   3.607  0.0706  0.4564  0.7614
  135OSM    C5F14601   2.930   3.215   3.708  0.1874 -0.1095  0.0496
  135OSM    H5F14602   2.960   3.312   3.752  1.0469 -1.0330  1.6318
  135OSM    H5G14603   3.021   3.154   3.690 -0.6249 -0.9974 -1.2724
  135OSM    C6F14604   2.834   3.156   3.817 -0.0829  0.8482 -0.0548
  135OSM    H6F14605   2.796   3.056   3.787  0.1607  0.6391  0.3242
  135OSM    H6G14606   2.746   3.222   3.826 -0.7757 -0.1213  0.4398
  135OSM    C7F14607   2.903   3.137   3.951 -0.5534 -0.1855  0.1168
  135OSM    H7F14608   2.990   3.071   3.929 -0.6425  0.1579 -1.3705
  135OSM    H7G14609   2.847   3.090   4.034 -1.2480  0.6566  0.1307
  135OSM    C8F14610   2.963   3.270   4.016  1.2563  0.1066 -0.2325
  135OSM    H8F14611   2.878   3.339   4.031 -0.6611 -2.1918  0.1086
  135OSM    H8G14612   3.035   3.314   3.944  0.0221 -1.1230 -2.3166
  135OSM    C9F14613   3.038   3.242   4.138 -0.2487 -0.1324 -1.1400
  135OSM    H9F14614   3.137   3.197   4.119 -0.8988 -2.0633 -0.2374
  135OSM   C10F14615   3.013   3.281   4.266 -0.3394 -0.2915  0.4404
  135OSM   H10F14616   3.079   3.249   4.348 -0.0063  1.5770  0.9516
  135OSM   C11F14617   2.886   3.349   4.316 -0.4210  0.1648 -0.4008
  135OSM   H11F14618   2.855   3.447   4.274  0.5026  0.3974 -0.5699
  135OSM   H11G14619   2.909   3.373   4.421  0.9284 -1.8455 -0.1747
  135OSM   C12F14620   2.770   3.253   4.302  0.2517  0.1490 -0.4649
  135OSM   H12F14621   2.800   3.146   4.308 -0.9952 -0.1446  1.8548
  135OSM   H12G14622   2.739   3.259   4.195  0.0065 -0.8031 -0.4576
  135OSM   C13F14623   2.646   3.283   4.390 -0.1433 -0.7458  0.3253
  135OSM   H13F14624   2.566   3.220   4.347 -2.1051  0.5640  1.8695
  135OSM   H13G14625   2.626   3.392   4.377  1.4276 -0.6159 -1.4847
  135OSM   C14F14626   2.671   3.262   4.541 -0.3797  0.4841  0.9691
  135OSM   H14F14627   2.762   3.311   4.582 -1.3952  2.2808  1.1392
  135OSM   H14G14628   2.689   3.152   4.542 -0.3639  0.4869  1.0096
  135OSM   C15F14629   2.545   3.273   4.619  0.4838 -0.2653  0.0152
  135OSM   H15F14630   2.453   3.238   4.569 -0.3276 -1.9382  2.5238
  135OSM   H15G14631   2.534   3.379   4.652  0.3224 -0.2013 -0.2380
  135OSM   C16F14632   2.550   3.193   4.746  0.7748  0.4182  0.0483
  135OSM   H16F14633   2.642   3.227   4.798  2.1068  1.6482 -2.9348
  135OSM   H16G14634   2.566   3.084   4.731  0.1781  0.6027 -2.1947
  135OSM   C17F14635   2.412   3.207   4.814 -0.3613 -0.4609 -0.3990
  135OSM   H17F14636   2.335   3.143   4.766  0.3598 -1.6083 -0.0761
  135OSM   H17G14637   2.385   3.313   4.832 -1.2983 -1.0624  2.1627
  135OSM   C18F14638   2.407   3.150   4.957 -0.1438  0.1080  0.0790
  135OSM   H18F14639   2.433   3.042   4.961  1.6353  0.5419  1.4419
  135OSM   H18G14640   2.305   3.157   5.000  0.3389 -1.1563  1.4986
  135OSM   H18H14641   2.488   3.197   5.017  3.6602 -1.8111 -3.0845
  136OSM      N14642   6.456   2.369   2.557  0.5034  0.1964  0.6165
  136OSM    C1514643   6.312   2.378   2.604 -0.0334 -0.0711 -0.1377
  136OSM   H15A14644   6.280   2.284   2.645 -1.7151  0.3533 -0.4046
  136OSM   H15B14645   6.245   2.406   2.524 -0.2238  1.9866  0.6594
  136OSM   H15C14646   6.295   2.457   2.676  0.4661  0.2296 -0.3478
  136OSM    C1414647   6.455   2.255   2.466 -0.8867 -0.3186  1.0774
  136OSM   H14A14648   6.423   2.166   2.518 -1.8894  1.7664  4.3123
  136OSM   H14B14649   6.558   2.235   2.439 -1.5759 -0.6302 -1.6102
  136OSM   H14C14650   6.401   2.283   2.376 -1.0967  0.9688  1.5888
  136OSM    C1314651   6.486   2.488   2.483  0.0345  0.2883  0.0302
  136OSM   H13A14652   6.581   2.482   2.431  0.9256  0.0452  1.6220
  136OSM   H13B14653   6.503   2.567   2.554  2.4285  0.2002 -0.3537
  136OSM   H13C14654   6.412   2.514   2.409  0.3837 -0.0806 -0.4626
  136OSM    C1214655   6.553   2.336   2.670 -0.7504 -0.8385  0.4144
  136OSM   H12A14656   6.646   2.314   2.621  0.0920  0.5962  1.2954
  136OSM   H12B14657   6.512   2.246   2.713  1.5217 -1.5366  1.2456
  136OSM    C1114658   6.579   2.439   2.790  0.5206  0.8144  0.2241
  136OSM   H11A14659   6.638   2.375   2.858  2.0804  0.1125 -1.6957
  136OSM   H11B14660   6.480   2.464   2.835  1.9961  2.7153  2.6577
  136OSM      P14661   6.620   2.697   2.769  0.0413 -0.0714  0.5136
  136OSM    O1314662   6.736   2.787   2.756  0.4085 -0.4929  0.3353
  136OSM    O1414663   6.513   2.722   2.674 -0.5160  0.5332 -0.0254
  136OSM    O1114664   6.559   2.706   2.920 -0.2354 -0.2892 -0.1498
  136OSM    O1214665   6.663   2.545   2.756 -0.6360 -0.3122  0.5827
  136OSM    C1S14666   6.665   2.708   3.012 -0.3018  0.9004 -0.0662
  136OSM    H1S14667   6.723   2.803   3.014  1.2727 -0.0341  1.4774
  136OSM    H1T14668   6.723   2.614   2.998 -1.2665  0.4588 -1.3392
  136OSM     NF14669   6.739   2.730   3.244 -0.0379  0.0152 -0.1942
  136OSM    HNF14670   6.801   2.656   3.269  3.0186  2.7428  1.1519
  136OSM    C2S14671   6.620   2.702   3.160  0.3826 -1.1161  0.1813
  136OSM    H2S14672   6.549   2.787   3.172  0.5481 -0.6104 -1.9466
  136OSM    C3S14673   6.546   2.573   3.201 -0.0518  0.1463  0.0618
  136OSM    H3S14674   6.626   2.496   3.193 -0.4502 -0.4535  1.4603
  136OSM     O314675   6.454   2.532   3.109 -0.3156 -0.2271 -0.1049
  136OSM    HO314676   6.478   2.586   3.034 -1.2399 -0.8024 -0.8506
  136OSM    C4S14677   6.490   2.576   3.341 -0.2628  0.0644  0.8080
  136OSM    H4S14678   6.428   2.663   3.368  0.7784  0.5239  1.8148
  136OSM    C5S14679   6.524   2.494   3.442  0.2214  0.5194 -0.3149
  136OSM    H5S14680   6.603   2.419   3.429 -1.8715 -1.8708  0.0889
  136OSM    C6S14681   6.462   2.516   3.583  0.6062  0.6296  0.3208
  136OSM    H6S14682   6.406   2.423   3.605  0.7526  0.2287 -0.9056
  136OSM    H6T14683   6.389   2.600   3.585 -1.0330 -0.7034 -0.8560
  136OSM    C7S14684   6.580   2.531   3.683  0.8134  0.3758 -0.8784
  136OSM    H7S14685   6.618   2.634   3.670  0.9120  0.4620  0.0800
  136OSM    H7T14686   6.664   2.461   3.660  1.1312  0.3367  0.3582
  136OSM    C8S14687   6.537   2.497   3.828  0.4046  0.4546 -0.7044
  136OSM    H8S14688   6.631   2.465   3.878  0.1855  1.3526  0.3098
  136OSM    H8T14689   6.483   2.400   3.835  1.0248  0.2374  3.1533
  136OSM    C9S14690   6.472   2.600   3.920 -0.0433  0.4719  0.0477
  136OSM    H9S14691   6.376   2.637   3.878 -0.2051 -0.3664 -0.3367
  136OSM    H9T14692   6.536   2.690   3.935  1.0025  0.1545 -2.1154
  136OSM   C10S14693   6.449   2.547   4.058 -0.2048 -1.1305  0.3257
  136OSM   H10S14694   6.544   2.500   4.092  0.1826 -0.6924 -0.1338
  136OSM   H10T14695   6.366   2.473   4.060 -2.6081  1.3627 -0.7727
  136OSM   C11S14696   6.421   2.668   4.151 -0.5152  0.5292 -0.2058
  136OSM   H11S14697   6.322   2.713   4.127 -1.0164 -0.0479  0.7150
  136OSM   H11T14698   6.498   2.748   4.146  0.7031 -0.6468 -1.1846
  136OSM   C12S14699   6.408   2.616   4.296  0.0335 -0.4955  0.7590
  136OSM   H12S14700   6.498   2.574   4.347 -0.4857 -0.5177  1.6771
  136OSM   H12T14701   6.330   2.537   4.298 -0.9497  0.1900 -3.1081
  136OSM   C13S14702   6.386   2.742   4.380  0.1060  0.8669 -0.4400
  136OSM   H13S14703   6.304   2.799   4.331  1.4437  1.9692 -1.4616
  136OSM   H13T14704   6.474   2.809   4.369 -0.1409  1.4296  0.8019
  136OSM   C14S14705   6.354   2.714   4.528 -0.0143  0.2878  0.5344
  136OSM   H14S14706   6.361   2.804   4.593 -0.2792 -0.5749  1.7873
  136OSM   H14T14707   6.431   2.644   4.566 -0.6835  0.1416  1.6659
  136OSM   C15S14708   6.217   2.650   4.559  0.1598  0.5174 -0.1275
  136OSM   H15S14709   6.232   2.541   4.542 -1.2079  0.2177  0.4395
  136OSM   H15T14710   6.144   2.685   4.483 -1.3402  1.0471  1.4968
  136OSM   C16S14711   6.158   2.679   4.702  0.0220  0.3383  0.0891
  136OSM   H16S14712   6.075   2.605   4.705 -0.0263  0.1822 -2.4310
  136OSM   H16T14713   6.106   2.777   4.709 -0.8523  0.0071 -1.2299
  136OSM   C17S14714   6.267   2.675   4.804 -0.2853  0.7842  0.6237
  136OSM   H17S14715   6.326   2.769   4.795  0.2805  0.2756 -1.6587
  136OSM   H17T14716   6.337   2.597   4.768  1.3262  2.1621  0.6480
  136OSM   C18S14717   6.218   2.637   4.942 -0.0525 -0.2383  0.1546
  136OSM   H18S14718   6.295   2.588   5.006  1.8310  0.0125 -1.8229
  136OSM   H18T14719   6.127   2.573   4.942 -1.6959  1.9385  1.5433
  136OSM   H18U14720   6.188   2.722   5.007 -1.3993 -0.4849 -0.1264
  136OSM    C1F14721   6.789   2.857   3.251  0.5501 -0.1343 -0.7942
  136OSM     OF14722   6.725   2.952   3.210 -0.3911 -0.5144  0.1816
  136OSM    C2F14723   6.913   2.873   3.325 -0.4405 -0.0635 -0.1378
  136OSM    H2F14724   6.933   2.980   3.347  2.5711 -0.5746  0.1053
  136OSM    H2G14725   7.000   2.832   3.269  0.6762  0.4719  1.1233
  136OSM    C3F14726   6.903   2.806   3.466 -0.3543  0.0757 -0.6070
  136OSM    H3F14727   7.002   2.809   3.518  1.3962 -4.7533 -3.0346
  136OSM    H3G14728   6.894   2.695   3.466  0.1731  0.0180  0.3583
  136OSM    C4F14729   6.804   2.875   3.565 -0.2323  0.6872 -0.3189
  136OSM    H4F14730   6.704   2.866   3.517  0.8798 -0.4292 -2.5555
  136OSM    H4G14731   6.819   2.984   3.577  0.6748  0.4690  0.6639
  136OSM    C5F14732   6.801   2.817   3.713  0.5995  0.1158  0.0270
  136OSM    H5F14733   6.806   2.706   3.706  2.2470 -0.0380  2.5005
  136OSM    H5G14734   6.706   2.861   3.751  0.8875  1.1656 -0.4441
  136OSM    C6F14735   6.910   2.862   3.803 -1.1125  0.8600 -0.1096
  136OSM    H6F14736   6.915   2.973   3.805 -1.0047  0.8729 -0.8339
  136OSM    H6G14737   7.009   2.821   3.775 -0.3019  0.8144  2.5314
  136OSM    C7F14738   6.888   2.824   3.952 -0.1375  0.1322  1.6240
  136OSM    H7F14739   6.784   2.852   3.975 -1.0904 -0.7684 -1.1703
  136OSM    H7G14740   6.961   2.887   4.007  0.8140  1.2476 -0.7758
  136OSM    C8F14741   6.911   2.674   3.983 -0.6979 -0.1023  0.3602
  136OSM    H8F14742   7.021   2.658   3.981 -0.2709  2.0871  2.0646
  136OSM    H8G14743   6.873   2.602   3.908 -0.0696 -2.7216  2.3810
  136OSM    C9F14744   6.855   2.647   4.124  1.1166 -0.1796 -0.6710
  136OSM    H9F14745   6.757   2.597   4.122  1.6593 -1.3508  0.3367
  136OSM   C10F14746   6.894   2.699   4.243 -0.1729 -0.4683  0.5387
  136OSM   H10F14747   6.833   2.664   4.328 -1.1150  3.3644  1.5950
  136OSM   C11F14748   7.005   2.790   4.283  0.3311 -0.2445  0.1667
  136OSM   H11F14749   6.959   2.890   4.300 -0.7935 -0.5752 -0.7367
  136OSM   H11G14750   7.086   2.788   4.206  0.2381  1.2184  0.0137
  136OSM   C12F14751   7.069   2.742   4.411 -0.3514  0.3863  0.7584
  136OSM   H12F14752   7.163   2.799   4.422 -0.6983  1.5230 -1.3907
  136OSM   H12G14753   7.100   2.637   4.393 -0.4188  0.6014 -0.7413
  136OSM   C13F14754   6.979   2.758   4.535 -0.2999 -0.3501  0.5503
  136OSM   H13F14755   6.879   2.714   4.516 -1.3730  0.8625  2.9677
  136OSM   H13G14756   6.958   2.865   4.559 -1.7980  0.0990 -2.3965
  136OSM   C14F14757   7.033   2.683   4.658 -0.3205 -0.3161  0.0027
  136OSM   H14F14758   7.110   2.741   4.712 -1.1408 -2.1341  3.4036
  136OSM   H14G14759   7.074   2.583   4.632 -2.6465 -1.4834  0.5617
  136OSM   C15F14760   6.926   2.660   4.769  0.2365 -0.2522 -0.2718
  136OSM   H15F14761   6.837   2.632   4.708  1.8499 -0.9757 -2.4538
  136OSM   H15G14762   6.900   2.758   4.813  1.5556 -0.4790  1.0620
  136OSM   C16F14763   6.954   2.552   4.867  1.2171  0.0325  0.2925
  136OSM   H16F14764   7.051   2.560   4.920  0.3591  0.5912  1.8281
  136OSM   H16G14765   6.937   2.452   4.823 -1.1974  2.0321 -3.9910
  136OSM   C17F14766   6.846   2.554   4.984 -0.5113 -0.0107  0.4325
  136OSM   H17F14767   6.817   2.659   5.005 -2.1526 -0.5320  0.8810
  136OSM   H17G14768   6.886   2.516   5.081 -1.3968 -0.0890  0.7781
  136OSM   C18F14769   6.722   2.477   4.948  0.1882  0.5770 -0.1628
  136OSM   H18F14770   6.760   2.373   4.957 -0.2663  0.5639  2.1392
  136OSM   H18G14771   6.696   2.489   4.841 -1.0498 -2.3631 -0.2847
  136OSM   H18H14772   6.640   2.476   5.023 -0.2066  0.1469 -0.5883
  137OSM      N14773   1.827   3.275   2.051 -0.6436  0.4875 -0.9052
  137OSM    C1514774   1.831   3.341   1.920  0.0485 -0.0202 -0.7392
  137OSM   H15A14775   1.740   3.328   1.864 -0.6543  1.2078  0.0895
  137OSM   H15B14776   1.916   3.312   1.859 -0.8592 -0.6179 -1.7398
  137OSM   H15C14777   1.835   3.448   1.933  1.3072  0.1860 -2.4163
  137OSM    C1414778   1.780   3.137   2.023  0.0434  0.8932 -0.8819
  137OSM   H14A14779   1.833   3.097   1.938 -0.0475 -0.5611 -0.2810
  137OSM   H14B14780   1.680   3.145   1.981 -1.3218  2.4535  2.3204
  137OSM   H14C14781   1.779   3.060   2.098 -2.0366  0.2406 -1.5069
  137OSM    C1314782   1.972   3.269   2.107 -0.0192  0.3530 -0.0987
  137OSM   H13A14783   1.991   3.197   2.186 -2.7279 -0.4280 -0.0465
  137OSM   H13B14784   2.003   3.369   2.131  0.1461  0.3460 -0.2790
  137OSM   H13C14785   2.033   3.236   2.024  1.9170  1.5549  0.7853
  137OSM    C1214786   1.739   3.341   2.157 -0.5081  0.0297  0.6503
  137OSM   H12A14787   1.639   3.349   2.116  0.0904 -0.4115 -1.0168
  137OSM   H12B14788   1.757   3.447   2.159 -1.8199  0.2578  1.5632
  137OSM    C1114789   1.742   3.288   2.306 -0.1125 -0.5090 -0.2065
  137OSM   H11A14790   1.729   3.177   2.301  1.2784 -0.6571 -1.7942
  137OSM   H11B14791   1.653   3.330   2.357 -0.3204 -1.7261  0.4827
  137OSM      P14792   1.907   3.466   2.423  0.0452 -0.0879  0.2134
  137OSM    O1314793   2.055   3.478   2.438  0.3737  0.2011 -0.0883
  137OSM    O1414794   1.841   3.568   2.333 -0.1846  1.2187 -0.0158
  137OSM    O1114795   1.856   3.481   2.568 -0.3309  0.2004  0.9031
  137OSM    O1214796   1.865   3.319   2.374 -0.0344 -0.2299 -0.3149
  137OSM    C1S14797   1.849   3.369   2.658  0.4555  0.4537  0.2539
  137OSM    H1S14798   1.902   3.281   2.617 -0.7145  0.2073 -0.7820
  137OSM    H1T14799   1.745   3.331   2.650  0.3423  0.0659  2.6767
  137OSM     NF14800   1.902   3.273   2.876  0.3314  0.1178 -0.4130
  137OSM    HNF14801   1.820   3.243   2.924  0.3716 -0.5896 -0.7739
  137OSM    C2S14802   1.891   3.398   2.801  0.1516 -0.1991 -0.3525
  137OSM    H2S14803   1.987   3.452   2.787 -1.7077  3.7127  0.5548
  137OSM    C3S14804   1.786   3.499   2.868  0.2572 -0.8967 -0.5380
  137OSM    H3S14805   1.685   3.455   2.878 -0.8437  1.7080  0.9591
  137OSM     O314806   1.756   3.619   2.789  0.7696 -0.0815  0.0618
  137OSM    HO314807   1.779   3.597   2.699 -0.1309  0.3789 -0.2960
  137OSM    C4S14808   1.828   3.522   3.014  0.4970 -0.1743  0.3167
  137OSM    H4S14809   1.786   3.445   3.081  1.4951 -0.1164  1.0317
  137OSM    C5S14810   1.904   3.618   3.061  0.0929 -0.0208  0.6521
  137OSM    H5S14811   1.931   3.697   2.989  0.7078 -2.5652 -2.1310
  137OSM    C6S14812   1.939   3.634   3.205 -0.4759  0.0135  0.0801
  137OSM    H6S14813   1.871   3.713   3.245 -1.0507  0.7669 -2.2431
  137OSM    H6T14814   2.044   3.670   3.203 -0.7142  0.8743  1.5733
  137OSM    C7S14815   1.935   3.503   3.287 -0.2971  0.0471 -0.3714
  137OSM    H7S14816   1.993   3.429   3.228  2.7646  0.7636  1.5247
  137OSM    H7T14817   1.828   3.473   3.283 -1.0343  2.5917 -2.4157
  137OSM    C8S14818   1.984   3.520   3.427  0.0274 -0.0314  0.1643
  137OSM    H8S14819   2.084   3.568   3.433  0.4642 -1.0528  1.4791
  137OSM    H8T14820   1.987   3.430   3.492  0.0516  0.4074  0.7817
  137OSM    C9S14821   1.887   3.614   3.498 -0.0470  0.0082  0.3928
  137OSM    H9S14822   1.782   3.577   3.486 -0.6584  1.7969 -0.0558
  137OSM    H9T14823   1.904   3.716   3.458  0.0895 -1.0246 -2.4060
  137OSM   C10S14824   1.905   3.615   3.653  0.2549 -0.1416 -1.1829
  137OSM   H10S14825   1.891   3.509   3.684  0.0456  0.8777  2.6699
  137OSM   H10T14826   1.825   3.669   3.709 -0.4732 -1.1630 -1.2020
  137OSM   C11S14827   2.045   3.659   3.697 -0.4201 -0.0189 -0.1087
  137OSM   H11S14828   2.076   3.758   3.658  0.6064  0.0388  0.8242
  137OSM   H11T14829   2.122   3.599   3.645  1.5509  2.4405 -0.2025
  137OSM   C12S14830   2.077   3.649   3.846  0.3833 -0.3751 -0.0994
  137OSM   H12S14831   2.185   3.658   3.869  0.1204 -0.5797  1.3318
  137OSM   H12T14832   2.040   3.547   3.869 -0.4825  0.1241  0.8100
  137OSM   C13S14833   1.998   3.743   3.938  0.1187 -0.4495 -0.6289
  137OSM   H13S14834   1.896   3.764   3.900  0.1745 -1.4330 -1.3663
  137OSM   H13T14835   2.059   3.836   3.934  2.6645 -2.0486 -1.7866
  137OSM   C14S14836   1.984   3.690   4.080  0.0778 -0.5278  0.0102
  137OSM   H14S14837   2.086   3.659   4.109 -0.5499 -3.5919 -0.7260
  137OSM   H14T14838   1.926   3.595   4.077  0.6360 -0.9868  1.9758
  137OSM   C15S14839   1.928   3.786   4.177  0.6327 -0.1602 -0.0273
  137OSM   H15S14840   1.837   3.837   4.139  1.1730  2.1273  1.5429
  137OSM   H15T14841   2.007   3.864   4.172  0.8219 -0.4005 -1.3501
  137OSM   C16S14842   1.899   3.725   4.307 -0.4720  0.3594 -0.4737
  137OSM   H16S14843   1.982   3.765   4.370 -0.1419 -1.5061  0.3316
  137OSM   H16T14844   1.918   3.617   4.292  0.2123  0.6057 -1.4825
  137OSM   C17S14845   1.762   3.764   4.378  0.2742  0.0264 -0.4578
  137OSM   H17S14846   1.688   3.720   4.308 -0.2838  2.3244 -1.4079
  137OSM   H17T14847   1.764   3.875   4.379 -1.1429  0.0710  0.8571
  137OSM   C18S14848   1.740   3.708   4.516 -0.0658 -0.2942  0.1389
  137OSM   H18S14849   1.816   3.742   4.590 -0.4850  1.9519 -0.4066
  137OSM   H18T14850   1.739   3.598   4.502  2.2666 -0.2020 -1.3492
  137OSM   H18U14851   1.641   3.748   4.546 -0.0083  1.1071 -1.3974
  137OSM    C1F14852   2.009   3.206   2.868 -0.2537  0.5348 -0.2803
  137OSM     OF14853   2.103   3.244   2.799 -0.0408 -0.0841 -0.1700
  137OSM    C2F14854   2.006   3.069   2.932  0.1771  0.0273 -0.4029
  137OSM    H2F14855   2.077   3.012   2.868  1.3859 -0.4755  1.3260
  137OSM    H2G14856   1.900   3.038   2.919  0.0697 -0.3237  1.1825
  137OSM    C3F14857   2.057   3.073   3.079  0.0888 -0.1273 -0.4882
  137OSM    H3F14858   1.974   3.112   3.141 -0.2304 -0.8143 -0.4783
  137OSM    H3G14859   2.136   3.150   3.092  0.0013 -0.2228  0.7516
  137OSM    C4F14860   2.101   2.943   3.134 -0.8454  0.4653  0.6980
  137OSM    H4F14861   2.173   2.899   3.061  0.7795  0.9951  1.9154
  137OSM    H4G14862   2.016   2.873   3.139  0.5407 -1.5015 -1.2170
  137OSM    C5F14863   2.158   2.959   3.271  0.0695 -0.7314 -0.1203
  137OSM    H5F14864   2.230   3.043   3.282  1.5820 -2.2578  2.8516
  137OSM    H5G14865   2.215   2.871   3.308 -0.6280 -0.8727  0.6351
  137OSM    C6F14866   2.045   2.988   3.374  0.2979 -0.5176 -0.2793
  137OSM    H6F14867   1.980   2.898   3.371 -1.5838  0.8049 -0.6060
  137OSM    H6G14868   1.991   3.083   3.355 -0.5907 -1.2700 -1.6978
  137OSM    C7F14869   2.104   2.992   3.511  0.3330  0.5288  0.1501
  137OSM    H7F14870   2.178   3.075   3.523  0.8190 -0.1393  2.1121
  137OSM    H7G14871   2.157   2.895   3.519  1.6882  1.1737 -0.6882
  137OSM    C8F14872   1.999   2.982   3.630 -0.7264 -0.2071  0.2569
  137OSM    H8F14873   2.069   2.985   3.717  0.2389 -1.3305 -0.4623
  137OSM    H8G14874   1.943   2.887   3.620  0.1189 -0.5338 -1.7424
  137OSM    C9F14875   1.909   3.107   3.633 -0.6419 -0.1757 -0.3711
  137OSM    H9F14876   1.843   3.113   3.545  0.6240  0.9308 -1.2976
  137OSM   C10F14877   1.915   3.215   3.717 -0.5832 -0.1865  0.5349
  137OSM   H10F14878   1.845   3.297   3.697 -0.6813 -0.6407 -1.1684
  137OSM   C11F14879   2.005   3.229   3.835 -0.6043  0.5356 -0.1839
  137OSM   H11F14880   2.080   3.310   3.820 -1.0808  0.4244 -4.3771
  137OSM   H11G14881   2.059   3.133   3.853 -1.1499  0.3812  0.6982
  137OSM   C12F14882   1.907   3.264   3.946 -0.5618  0.1849  0.6086
  137OSM   H12F14883   1.849   3.352   3.911  0.0462 -0.4189 -2.2028
  137OSM   H12G14884   1.973   3.295   4.030  0.0654 -0.9708  0.5608
  137OSM   C13F14885   1.804   3.169   3.996  0.0305 -0.2967  0.4233
  137OSM   H13F14886   1.736   3.148   3.911  0.6299 -0.5714  0.0068
  137OSM   H13G14887   1.750   3.206   4.086 -3.2332 -1.7087 -0.8211
  137OSM   C14F14888   1.859   3.030   4.040  0.1716  0.1183  0.2591
  137OSM   H14F14889   1.901   2.981   3.949  1.0270  1.0772  0.1353
  137OSM   H14G14890   1.787   2.952   4.073  1.1762 -1.2274 -0.6252
  137OSM   C15F14891   1.972   3.055   4.153 -0.6546  0.3225  0.6465
  137OSM   H15F14892   2.052   3.123   4.116  1.5160 -3.6221 -2.7808
  137OSM   H15G14893   2.026   2.958   4.163 -1.6335 -0.5802 -1.9176
  137OSM   C16F14894   1.906   3.083   4.288 -0.1065  0.5022  0.8800
  137OSM   H16F14895   1.827   3.007   4.307  0.5165 -0.5738 -0.7045
  137OSM   H16G14896   1.852   3.181   4.288  0.8948  1.1141  2.6769
  137OSM   C17F14897   1.987   3.079   4.411 -0.4709 -0.3162 -0.0926
  137OSM   H17F14898   2.064   3.158   4.398 -1.4617  0.5695 -0.7488
  137OSM   H17G14899   2.035   2.983   4.437 -0.8712 -0.3398  0.5870
  137OSM   C18F14900   1.906   3.130   4.535 -0.1162 -0.4127 -0.0572
  137OSM   H18F14901   1.851   3.050   4.587  0.3783  0.0165  1.1541
  137OSM   H18G14902   1.833   3.208   4.506  0.1952  0.8670  2.3375
  137OSM   H18H14903   1.971   3.181   4.609  0.6800  1.9300 -2.2098
  138OSM      N14904   3.063   5.758   2.681 -0.5497 -0.2587  0.9082
  138OSM    C1514905   3.032   5.617   2.711 -0.2141  0.6452 -1.1397
  138OSM   H15A14906   3.091   5.580   2.794  0.6915 -1.5672 -2.6951
  138OSM   H15B14907   3.046   5.552   2.626  0.6049 -0.7591  0.0177
  138OSM   H15C14908   2.927   5.605   2.734  0.1296  1.5690  1.2723
  138OSM    C1414909   3.188   5.767   2.600 -0.4294 -0.0088 -0.5101
  138OSM   H14A14910   3.273   5.747   2.664 -1.9295 -1.3284  1.2010
  138OSM   H14B14911   3.191   5.859   2.543 -0.3143 -1.4335 -2.9515
  138OSM   H14C14912   3.190   5.685   2.530 -0.1434 -0.7532  0.3593
  138OSM    C1314913   2.952   5.816   2.605  1.0165 -0.6052  0.3245
  138OSM   H13A14914   2.952   5.784   2.502  0.1607 -0.0611  0.1459
  138OSM   H13B14915   2.954   5.924   2.611  1.8388 -0.5848 -0.1349
  138OSM   H13C14916   2.860   5.797   2.658  0.8496  1.5674  0.9354
  138OSM    C1214917   3.078   5.829   2.812 -0.2081  0.0206  0.4342
  138OSM   H12A14918   3.081   5.934   2.785 -1.6394 -0.4245 -1.7288
  138OSM   H12B14919   3.170   5.800   2.860  1.5112  1.6922 -1.6260
  138OSM    C1114920   2.966   5.820   2.913  0.6943  0.7502  0.1267
  138OSM   H11A14921   2.995   5.838   3.019  1.6676 -0.7229  0.1476
  138OSM   H11B14922   2.953   5.710   2.920 -0.6722  0.8073 -1.1555
  138OSM      P14923   2.838   6.048   2.894 -0.1231  0.0224 -0.3269
  138OSM    O1314924   2.943   6.103   2.815  0.4963  0.2055 -0.4887
  138OSM    O1414925   2.705   6.106   2.873 -0.2517  0.5074 -0.4178
  138OSM    O1114926   2.880   6.051   3.049 -0.1029 -0.0245 -0.0165
  138OSM    O1214927   2.843   5.890   2.879 -0.2384  0.3298 -0.1152
  138OSM    C1S14928   2.779   6.028   3.145 -0.2596  0.0416 -0.3099
  138OSM    H1S14929   2.722   5.934   3.132  0.8349 -0.8762  1.1177
  138OSM    H1T14930   2.702   6.108   3.142  0.4936  1.0686  3.2203
  138OSM     NF14931   2.756   5.984   3.397 -0.5535  0.0049 -0.0431
  138OSM    HNF14932   2.723   6.054   3.461 -0.9041  0.5147 -0.7609
  138OSM    C2S14933   2.850   6.025   3.286 -0.0139 -0.3548  0.0144
  138OSM    H2S14934   2.922   5.941   3.279 -1.1487 -1.3600  0.2305
  138OSM    C3S14935   2.925   6.156   3.315  0.4264  0.4986 -0.0446
  138OSM    H3S14936   2.849   6.236   3.329 -0.8245 -0.0432 -3.1459
  138OSM     O314937   3.006   6.211   3.205 -0.8785  0.8741  0.2616
  138OSM    HO314938   2.973   6.172   3.124 -0.1580 -1.8513  1.1634
  138OSM    C4S14939   3.013   6.144   3.442 -0.0990  0.8044  0.4401
  138OSM    H4S14940   2.963   6.181   3.533 -0.4845 -0.1203  0.6169
  138OSM    C5S14941   3.142   6.094   3.446 -0.7613 -0.1721  0.1807
  138OSM    H5S14942   3.187   6.048   3.356 -0.2180 -0.3836  0.5522
  138OSM    C6S14943   3.229   6.103   3.571  0.9560 -0.2652 -0.2896
  138OSM    H6S14944   3.312   6.174   3.554  1.4306 -0.8053 -0.2798
  138OSM    H6T14945   3.274   6.004   3.594  0.8834 -0.2565 -0.1014
  138OSM    C7S14946   3.160   6.141   3.704  0.1502  0.4853 -0.3463
  138OSM    H7S14947   3.075   6.076   3.734 -1.0710  1.4234 -1.5801
  138OSM    H7T14948   3.108   6.240   3.700 -2.1742 -0.6135  0.6461
  138OSM    C8S14949   3.261   6.141   3.819 -0.3318  0.5402  0.5665
  138OSM    H8S14950   3.336   6.223   3.812 -0.2595  0.3431 -1.3748
  138OSM    H8T14951   3.313   6.043   3.818 -1.8085 -0.2762 -1.0770
  138OSM    C9S14952   3.196   6.150   3.957  0.6171  0.2589 -1.2710
  138OSM    H9S14953   3.097   6.100   3.944  1.3328 -1.2133 -1.3066
  138OSM    H9T14954   3.187   6.255   3.991  0.3222  0.2427 -1.2951
  138OSM   C10S14955   3.283   6.076   4.058  0.6333  0.5187 -0.1718
  138OSM   H10S14956   3.376   6.136   4.062  0.5548  0.6378 -0.1051
  138OSM   H10T14957   3.293   5.971   4.026 -0.8033  1.0285 -2.5297
  138OSM   C11S14958   3.215   6.075   4.196  0.4643 -0.1854 -0.2811
  138OSM   H11S14959   3.116   6.026   4.182  0.0302 -0.2387  2.4596
  138OSM   H11T14960   3.180   6.173   4.235 -0.2257 -0.2755 -0.6486
  138OSM   C12S14961   3.290   5.999   4.298 -0.3310  0.1492 -0.4332
  138OSM   H12S14962   3.390   6.043   4.319  0.8363 -2.5943  0.2420
  138OSM   H12T14963   3.314   5.902   4.249 -1.4898 -1.8666  2.6739
  138OSM   C13S14964   3.216   5.963   4.433  0.5137 -0.3481 -0.0266
  138OSM   H13S14965   3.252   5.865   4.471 -2.3661 -0.9918  1.2705
  138OSM   H13T14966   3.112   5.948   4.399  1.2602 -2.6605 -1.5597
  138OSM   C14S14967   3.229   6.063   4.549 -0.4042 -0.1804  0.8168
  138OSM   H14S14968   3.196   6.164   4.518  0.7460  0.2322  0.8887
  138OSM   H14T14969   3.334   6.077   4.583  0.5145 -2.0013 -1.0053
  138OSM   C15S14970   3.141   6.028   4.671  0.0654 -0.4179  0.5694
  138OSM   H15S14971   3.166   5.924   4.699  1.0835 -0.2652  0.2800
  138OSM   H15T14972   3.035   6.038   4.641 -0.2069 -4.0095 -0.0584
  138OSM   C16S14973   3.163   6.135   4.779 -0.2262 -0.2069  0.1866
  138OSM   H16S14974   3.149   6.233   4.729  0.6890 -0.5102 -0.6780
  138OSM   H16T14975   3.260   6.115   4.828 -0.4576 -0.3184  0.6097
  138OSM   C17S14976   3.059   6.123   4.894 -0.2032  0.2074  0.4740
  138OSM   H17S14977   3.050   6.017   4.927  3.3249 -0.5271 -0.5030
  138OSM   H17T14978   2.958   6.134   4.851 -0.3794 -1.8446  0.2715
  138OSM   C18S14979   3.071   6.207   5.013 -0.8318 -0.2620 -0.4552
  138OSM   H18S14980   3.060   6.315   4.993 -2.8491 -0.0614  1.3030
  138OSM   H18T14981   3.170   6.184   5.057  1.1425  1.1543 -3.7606
  138OSM   H18U14982   2.994   6.190   5.091 -0.9849  2.1644 -0.0222
  138OSM    C1F14983   2.702   5.866   3.405 -0.4431  0.6875  0.0412
  138OSM     OF14984   2.723   5.771   3.331  0.3756  0.3105  0.0120
  138OSM    C2F14985   2.602   5.852   3.521 -0.2255  0.6401 -0.1933
  138OSM    H2F14986   2.503   5.849   3.470  1.0238 -0.3893 -2.7263
  138OSM    H2G14987   2.606   5.949   3.574  1.5295 -0.4751  1.8800
  138OSM    C3F14988   2.634   5.739   3.626 -0.6253 -0.5100 -0.2158
  138OSM    H3F14989   2.740   5.750   3.658 -0.8136  0.8343  0.0133
  138OSM    H3G14990   2.638   5.644   3.569 -1.4459 -0.1311 -0.9360
  138OSM    C4F14991   2.541   5.718   3.749 -0.1394 -0.2523  0.5767
  138OSM    H4F14992   2.446   5.693   3.697  0.4022 -1.2965  0.0415
  138OSM    H4G14993   2.531   5.813   3.806  2.6106 -0.2572  1.1959
  138OSM    C5F14994   2.581   5.592   3.835  0.0681  0.2089 -0.6190
  138OSM    H5F14995   2.654   5.629   3.910 -1.8473  1.0572  0.9468
  138OSM    H5G14996   2.617   5.508   3.773 -0.4402  0.3795 -1.1595
  138OSM    C6F14997   2.465   5.531   3.923 -0.3179  0.4058  0.0048
  138OSM    H6F14998   2.503   5.452   3.990  0.8837 -0.0620 -1.1657
  138OSM    H6G14999   2.397   5.476   3.855 -2.3725  2.5876  0.1717
  138OSM    C7F15000   2.415   5.638   4.016 -0.5148  0.1245  0.3513
  138OSM    H7F15001   2.358   5.714   3.957  0.6694 -0.2810 -1.4015
  138OSM    H7G15002   2.504   5.682   4.067 -0.9900 -1.0868  2.3097
  138OSM    C8F15003   2.334   5.579   4.128  0.0354  0.2568 -0.7679
  138OSM    H8F15004   2.393   5.492   4.165 -0.1591  0.4027 -0.1045
  138OSM    H8G15005   2.238   5.548   4.080  0.6337 -0.2294 -1.6947
  138OSM    C9F15006   2.309   5.685   4.236 -0.2672 -0.1489 -0.8768
  138OSM    H9F15007   2.256   5.776   4.204 -2.5544  0.2306  3.2925
  138OSM   C10F15008   2.361   5.680   4.365 -0.3727 -0.1935  0.5517
  138OSM   H10F15009   2.325   5.752   4.440 -2.4351 -0.7730  0.1607
  138OSM   C11F15010   2.445   5.576   4.427  0.2978  0.4936  0.5139
  138OSM   H11F15011   2.545   5.608   4.465  0.1159  1.6241  0.0972
  138OSM   H11G15012   2.473   5.483   4.374 -0.3609 -0.6178  2.0557
  138OSM   C12F15013   2.372   5.518   4.551  0.1576  0.1982 -0.5273
  138OSM   H12F15014   2.432   5.443   4.608 -0.8633  1.5536  2.5684
  138OSM   H12G15015   2.278   5.471   4.515 -1.2842  1.9783  0.7009
  138OSM   C13F15016   2.331   5.617   4.660 -0.0134  0.5564 -0.5316
  138OSM   H13F15017   2.295   5.557   4.746 -2.6600 -0.3142 -2.1518
  138OSM   H13G15018   2.246   5.678   4.623 -2.0484 -0.6152  1.9145
  138OSM   C14F15019   2.453   5.702   4.699 -0.2437  0.3292  0.0041
  138OSM   H14F15020   2.482   5.769   4.615 -1.9894  2.8013  1.2436
  138OSM   H14G15021   2.535   5.637   4.735  1.8590  2.4116 -0.7665
  138OSM   C15F15022   2.421   5.805   4.809  1.0144  0.2409 -0.2068
  138OSM   H15F15023   2.337   5.780   4.877 -0.8477  4.1599 -0.8095
  138OSM   H15G15024   2.391   5.898   4.756 -0.4472 -1.3751 -2.3625
  138OSM   C16F15025   2.553   5.817   4.889 -0.2975  0.0021  0.1957
  138OSM   H16F15026   2.640   5.838   4.822 -0.9189  0.9503 -0.3471
  138OSM   H16G15027   2.582   5.724   4.943  0.7546  1.5899  2.5273
  138OSM   C17F15028   2.540   5.925   4.992 -0.0555 -0.4353 -0.1318
  138OSM   H17F15029   2.446   5.911   5.050 -1.4424  2.9202 -1.3133
  138OSM   H17G15030   2.538   6.024   4.942 -1.1265 -1.9988 -3.4765
  138OSM   C18F15031   2.662   5.930   5.082  0.0814 -0.6821 -0.0816
  138OSM   H18F15032   2.635   5.856   5.161  0.2731 -0.4349  0.2162
  138OSM   H18G15033   2.678   6.025   5.138  2.0582 -1.4198  0.6672
  138OSM   H18H15034   2.756   5.898   5.033  0.2986 -0.1647 -0.0071
  139OSM      N15035   3.448   4.070   2.847  0.1484 -0.6005  0.3133
  139OSM    C1515036   3.314   4.139   2.817 -0.5525 -0.7128 -0.7957
  139OSM   H15A15037   3.318   4.242   2.851 -0.2915 -0.7930 -0.5754
  139OSM   H15B15038   3.225   4.095   2.860 -0.2955  0.7925  1.4424
  139OSM   H15C15039   3.301   4.130   2.711  0.5010  1.0094 -1.1064
  139OSM    C1415040   3.552   4.162   2.793 -0.0846 -0.5554  0.3459
  139OSM   H14A15041   3.652   4.130   2.816 -0.5801 -3.2760 -0.8975
  139OSM   H14B15042   3.535   4.261   2.833 -2.8334 -1.3067  1.2669
  139OSM   H14C15043   3.538   4.173   2.686  2.2319  0.4968  0.0760
  139OSM    C1315044   3.462   4.062   2.998  0.0131  0.2654  0.0715
  139OSM   H13A15045   3.416   4.148   3.045  0.4307  0.4868  0.0831
  139OSM   H13B15046   3.564   4.065   3.033 -0.6160  0.1073  1.9925
  139OSM   H13C15047   3.426   3.968   3.037  2.0169 -0.0120  1.4270
  139OSM    C1215048   3.465   3.938   2.784 -0.4264  0.6215 -0.0365
  139OSM   H12A15049   3.551   3.884   2.818 -0.9081 -0.4512 -0.4721
  139OSM   H12B15050   3.482   3.950   2.678  0.2434  1.2970  0.1402
  139OSM    C1115051   3.349   3.847   2.805  0.2390 -0.5701 -0.2829
  139OSM   H11A15052   3.258   3.885   2.754 -1.5274 -1.8547  1.7742
  139OSM   H11B15053   3.325   3.817   2.909  0.8465 -0.2443 -0.0444
  139OSM      P15054   3.505   3.631   2.771  0.0594  0.0367 -0.3645
  139OSM    O1315055   3.493   3.508   2.693  0.4469  0.1106 -0.1851
  139OSM    O1415056   3.642   3.689   2.781 -0.0739  0.6870  0.2209
  139OSM    O1115057   3.457   3.598   2.923 -0.7181 -0.1664 -0.3380
  139OSM    O1215058   3.392   3.735   2.735  0.3392  0.1447 -0.4306
  139OSM    C1S15059   3.337   3.525   2.960  0.1266  0.6669 -0.2397
  139OSM    H1S15060   3.343   3.420   2.923 -0.9025  0.8599 -0.9974
  139OSM    H1T15061   3.242   3.576   2.936 -1.9537 -1.7111  2.3134
  139OSM     NF15062   3.230   3.414   3.157  0.9072 -0.0383 -0.1926
  139OSM    HNF15063   3.144   3.442   3.199 -0.0309 -0.8370 -1.5189
  139OSM    C2S15064   3.325   3.517   3.121 -0.2139  0.4242 -0.7152
  139OSM    H2S15065   3.424   3.484   3.158  0.0404  0.8848 -0.9742
  139OSM    C3S15066   3.309   3.653   3.186 -0.2979 -0.6812 -0.0926
  139OSM    H3S15067   3.222   3.713   3.151  1.6055  3.5958  1.8508
  139OSM     O315068   3.424   3.739   3.163  0.4783  0.0094  0.4251
  139OSM    HO315069   3.452   3.717   3.073  0.2714 -0.4759  0.4786
  139OSM    C4S15070   3.297   3.636   3.329 -0.0335  0.0281  0.6865
  139OSM    H4S15071   3.191   3.623   3.356 -0.1604  0.5104  0.4489
  139OSM    C5S15072   3.384   3.643   3.432 -0.0471 -0.1028 -0.8693
  139OSM    H5S15073   3.488   3.668   3.408  0.7757 -2.6932 -0.3952
  139OSM    C6S15074   3.358   3.612   3.583 -0.6822  0.4972  0.6400
  139OSM    H6S15075   3.377   3.708   3.635  0.4247  0.9463 -0.5494
  139OSM    H6T15076   3.427   3.529   3.609 -0.0110  0.9439  0.3330
  139OSM    C7S15077   3.206   3.593   3.622  0.2565 -0.6395  0.2555
  139OSM    H7S15078   3.167   3.508   3.562 -0.7422 -0.0451  0.0432
  139OSM    H7T15079   3.153   3.689   3.606  0.0115 -0.8566 -0.2565
  139OSM    C8S15080   3.174   3.544   3.772  0.2605 -0.1416 -0.7793
  139OSM    H8S15081   3.210   3.443   3.802  1.2325  0.1070 -1.0857
  139OSM    H8T15082   3.066   3.563   3.786  0.0758  1.9643 -4.0107
  139OSM    C9S15083   3.242   3.641   3.874  0.5394  0.5240 -1.2094
  139OSM    H9S15084   3.222   3.748   3.852  1.7574  0.8987 -0.6211
  139OSM    H9T15085   3.350   3.615   3.869  0.9337  0.8327  2.6195
  139OSM   C10S15086   3.174   3.623   4.015 -0.5683 -0.2484 -0.0924
  139OSM   H10S15087   3.201   3.525   4.059  0.6075 -0.0016 -0.2356
  139OSM   H10T15088   3.063   3.626   4.008 -0.5012  0.0241 -1.2186
  139OSM   C11S15089   3.217   3.724   4.122 -0.5697 -0.2059  0.1401
  139OSM   H11S15090   3.174   3.821   4.089  0.3697 -0.3383 -1.5694
  139OSM   H11T15091   3.328   3.722   4.123 -0.5363 -0.0319 -1.1652
  139OSM   C12S15092   3.177   3.706   4.275 -0.3391  0.6478  0.8591
  139OSM   H12S15093   3.068   3.685   4.270 -0.8543  3.1175  0.4531
  139OSM   H12T15094   3.201   3.795   4.337 -2.0583 -0.0940  2.6896
  139OSM   C13S15095   3.254   3.591   4.343  0.0480 -0.3753 -0.5490
  139OSM   H13S15096   3.359   3.614   4.372 -0.3518  1.9216 -0.7304
  139OSM   H13T15097   3.263   3.497   4.284  0.8325 -1.6323  1.4205
  139OSM   C14S15098   3.185   3.561   4.481 -0.0478  0.0358 -0.7954
  139OSM   H14S15099   3.075   3.545   4.475 -0.2636  0.8938  0.5991
  139OSM   H14T15100   3.193   3.648   4.548  0.7648  1.3628 -2.5252
  139OSM   C15S15101   3.251   3.449   4.558 -0.6178  0.1458  0.8123
  139OSM   H15S15102   3.361   3.467   4.556 -0.5598 -0.0208 -2.9335
  139OSM   H15T15103   3.234   3.359   4.495 -1.0481  2.5989 -2.8842
  139OSM   C16S15104   3.206   3.426   4.719 -0.0524 -0.7309 -0.0315
  139OSM   H16S15105   3.261   3.508   4.771 -0.9563 -2.1674  3.3992
  139OSM   H16T15106   3.250   3.330   4.753  0.9713 -0.3553 -0.2570
  139OSM   C17S15107   3.051   3.441   4.744 -0.1395  0.0711  0.1629
  139OSM   H17S15108   3.007   3.357   4.687  1.5184 -2.9714  3.0281
  139OSM   H17T15109   3.020   3.543   4.710 -1.0667  0.2217  1.3578
  139OSM   C18S15110   3.015   3.428   4.895 -0.8580  0.0663  0.1188
  139OSM   H18S15111   3.053   3.336   4.944 -1.3421  0.7830  1.9505
  139OSM   H18T15112   2.904   3.436   4.902 -0.7631  0.4693  1.6327
  139OSM   H18U15113   3.055   3.518   4.947 -0.3610  2.0684 -3.4177
  139OSM    C1F15114   3.240   3.286   3.135  0.6231  0.5795  0.0481
  139OSM     OF15115   3.345   3.232   3.100  0.0145 -0.3347 -0.1642
  139OSM    C2F15116   3.113   3.199   3.119  0.5112 -0.3562 -0.3913
  139OSM    H2F15117   3.099   3.198   3.009  1.4967  1.3992 -0.5672
  139OSM    H2G15118   3.027   3.261   3.150  0.7926 -0.9433  1.6745
  139OSM    C3F15119   3.116   3.063   3.182  0.4942  0.1580 -0.3461
  139OSM    H3F15120   3.216   3.017   3.199  0.5985  1.1296  1.9092
  139OSM    H3G15121   3.067   3.002   3.103  2.3370  0.3510 -1.7033
  139OSM    C4F15122   3.034   3.046   3.314  0.4582  0.8568  0.0931
  139OSM    H4F15123   2.931   3.073   3.284  1.3709  3.1964 -1.2304
  139OSM    H4G15124   3.083   3.112   3.390  0.6870 -0.0028  0.7080
  139OSM    C5F15125   3.042   2.904   3.366  0.4520 -0.0225 -0.1898
  139OSM    H5F15126   3.151   2.879   3.368  0.2883 -0.6968  0.7720
  139OSM    H5G15127   2.982   2.836   3.302  0.0796 -0.6075  0.7633
  139OSM    C6F15128   2.995   2.904   3.510  0.2339  0.7620  0.2045
  139OSM    H6F15129   2.885   2.902   3.524  0.3276 -1.2076  1.0424
  139OSM    H6G15130   3.041   2.986   3.569 -1.2450  0.2950  2.1188
  139OSM    C7F15131   3.061   2.777   3.574  0.1273 -0.0595 -0.4187
  139OSM    H7F15132   3.167   2.798   3.603  0.8369 -0.5184 -2.4710
  139OSM    H7G15133   3.066   2.691   3.504  2.9210 -0.3601  0.0119
  139OSM    C8F15134   2.976   2.732   3.694  0.0177 -0.5889 -0.0797
  139OSM    H8F15135   2.880   2.694   3.652 -0.2519 -0.3859  0.3402
  139OSM    H8G15136   2.951   2.825   3.749 -1.4296 -1.1936  0.3479
  139OSM    C9F15137   3.037   2.633   3.787 -0.1587  0.4254  0.0155
  139OSM    H9F15138   3.096   2.562   3.729  0.6985 -1.5600  3.0889
  139OSM   C10F15139   3.061   2.640   3.918 -0.1022  0.0800  0.0159
  139OSM   H10F15140   3.112   2.552   3.962  2.1570  1.2466 -0.1177
  139OSM   C11F15141   3.026   2.748   4.013 -0.4777 -0.0151 -0.8228
  139OSM   H11F15142   2.922   2.779   3.993 -0.4058  0.0309 -1.1258
  139OSM   H11G15143   3.088   2.839   3.996 -1.2501  1.0411  1.4793
  139OSM   C12F15144   3.028   2.695   4.151 -0.2982  0.0717 -0.2159
  139OSM   H12F15145   3.129   2.686   4.196 -0.3340  1.7767  0.2713
  139OSM   H12G15146   2.965   2.603   4.156  0.9734 -0.7636  1.0566
  139OSM   C13F15147   2.963   2.803   4.241  0.0371  0.3424 -0.7188
  139OSM   H13F15148   2.855   2.807   4.218  0.2159  4.4378 -1.5357
  139OSM   H13G15149   3.000   2.906   4.222  0.2221  0.1775 -1.2969
  139OSM   C14F15150   2.973   2.770   4.395 -0.6679 -0.3228 -0.1309
  139OSM   H14F15151   3.080   2.777   4.423 -0.1382  1.6905 -2.3035
  139OSM   H14G15152   2.929   2.669   4.411  0.9842 -0.9314  0.7468
  139OSM   C15F15153   2.898   2.884   4.466  1.0438 -0.2170 -1.0986
  139OSM   H15F15154   2.791   2.888   4.436  2.1307  1.1597 -5.5215
  139OSM   H15G15155   2.941   2.978   4.425 -0.7869  1.4207  0.5110
  139OSM   C16F15156   2.919   2.882   4.624  0.4667  0.0849  0.3275
  139OSM   H16F15157   2.913   2.774   4.652  0.0562 -0.4207 -1.5282
  139OSM   H16G15158   2.839   2.939   4.675  0.8555  0.2503  0.7503
  139OSM   C17F15159   3.050   2.937   4.686 -0.0848  0.0889  0.0812
  139OSM   H17F15160   3.126   2.898   4.615 -0.9984 -0.0276 -0.8621
  139OSM   H17G15161   3.056   2.889   4.786  1.0643  1.3508  0.6359
  139OSM   C18F15162   3.070   3.081   4.695  0.7391 -0.2652 -0.3920
  139OSM   H18F15163   3.061   3.124   4.593 -0.5648 -0.4840 -0.3834
  139OSM   H18G15164   3.165   3.114   4.742 -0.7803  3.1872  0.5519
  139OSM   H18H15165   2.992   3.135   4.753  0.5752 -1.1144  0.1864
  140OSM      N15166   3.275   4.902   2.908  0.3247  0.1294 -0.4636
  140OSM    C1515167   3.273   4.999   3.023 -0.3426  0.4925 -0.1519
  140OSM   H15A15168   3.310   5.095   2.990  4.1084 -1.0971 -0.5446
  140OSM   H15B15169   3.335   4.964   3.105 -3.3696 -3.0906  0.8689
  140OSM   H15C15170   3.174   5.000   3.067 -0.8489  0.7453 -1.2633
  140OSM    C1415171   3.414   4.885   2.864  0.0130 -0.5777 -0.0596
  140OSM   H14A15172   3.416   4.814   2.782  1.0026  0.7931 -1.2780
  140OSM   H14B15173   3.471   4.847   2.948  0.0165  0.6726  0.5243
  140OSM   H14C15174   3.467   4.971   2.828 -1.0604 -0.3964 -1.2948
  140OSM    C1315175   3.215   4.769   2.949  0.4607 -0.4621  0.1035
  140OSM   H13A15176   3.226   4.703   2.865  0.4235 -1.2222  0.6824
  140OSM   H13B15177   3.111   4.782   2.977  0.6236  0.4977  0.3201
  140OSM   H13C15178   3.279   4.737   3.030  1.4221  3.6183  1.2178
  140OSM    C1215179   3.198   4.959   2.787 -0.1250 -0.0266 -0.5012
  140OSM   H12A15180   3.091   4.962   2.801  0.0919  1.7707  1.3021
  140OSM   H12B15181   3.224   4.892   2.706  2.0828 -1.5588  1.3363
  140OSM    C1115182   3.238   5.110   2.740  0.8164 -0.0978 -0.4167
  140OSM   H11A15183   3.172   5.117   2.651 -0.5552 -0.4235  0.5273
  140OSM   H11B15184   3.344   5.123   2.712 -0.2353  4.2836 -3.4284
  140OSM      P15185   3.272   5.332   2.880  0.0030  0.0222 -0.3659
  140OSM    O1315186   3.379   5.284   2.966  0.5047 -0.2427  0.2664
  140OSM    O1415187   3.321   5.387   2.753 -0.2576 -0.4515 -0.2835
  140OSM    O1115188   3.160   5.430   2.942  0.3913 -0.1158 -0.5324
  140OSM    O1215189   3.179   5.201   2.839  0.6073  0.2957 -0.1627
  140OSM    C1S15190   3.047   5.386   3.024  0.0469  0.5641 -0.2718
  140OSM    H1S15191   3.035   5.277   3.010  0.4997  0.5829 -0.8599
  140OSM    H1T15192   2.950   5.433   2.997 -0.0162  1.1669  0.9398
  140OSM     NF15193   2.971   5.339   3.253 -0.8775 -0.6926  0.4210
  140OSM    HNF15194   2.899   5.391   3.298 -0.6586  0.5708 -0.6252
  140OSM    C2S15195   3.072   5.413   3.174  0.3599 -0.5703 -0.4720
  140OSM    H2S15196   3.171   5.372   3.205  0.6286  0.5302  0.1894
  140OSM    C3S15197   3.088   5.567   3.207  0.1616 -0.0766 -0.0023
  140OSM    H3S15198   2.989   5.609   3.180 -1.1448 -2.3097  0.9282
  140OSM     O315199   3.175   5.640   3.126 -0.2215 -0.3706  0.2428
  140OSM    HO315200   3.187   5.579   3.052  1.2661 -0.6708  0.7058
  140OSM    C4S15201   3.113   5.594   3.356 -0.1559 -0.0512  0.1175
  140OSM    H4S15202   3.179   5.520   3.405 -1.7118 -2.0668 -0.6739
  140OSM    C5S15203   3.056   5.689   3.422 -0.3000  0.4324  0.0127
  140OSM    H5S15204   2.991   5.759   3.367 -0.6176  0.2988  0.2123
  140OSM    C6S15205   3.057   5.720   3.563  0.1805 -0.1593  0.3425
  140OSM    H6S15206   2.953   5.733   3.598  0.0398 -1.4344  0.4582
  140OSM    H6T15207   3.117   5.811   3.587 -0.2672  0.1489  0.3003
  140OSM    C7S15208   3.114   5.607   3.657 -0.1888 -0.7866 -0.4278
  140OSM    H7S15209   3.207   5.564   3.614  0.5739 -0.0890  0.4798
  140OSM    H7T15210   3.042   5.522   3.660 -1.1399  0.0414  1.2587
  140OSM    C8S15211   3.127   5.644   3.806 -0.6052 -0.2318 -0.0662
  140OSM    H8S15212   3.201   5.725   3.819 -0.5977 -0.4920  1.7546
  140OSM    H8T15213   3.172   5.556   3.857 -3.6052 -1.7240  0.2821
  140OSM    C9S15214   2.992   5.683   3.880  1.1299  0.0325 -0.0811
  140OSM    H9S15215   2.917   5.605   3.856  1.3185 -0.4192  0.7703
  140OSM    H9T15216   2.957   5.771   3.821  0.2481 -0.1839  0.1064
  140OSM   C10S15217   2.996   5.702   4.028 -0.3250  0.2005  0.1322
  140OSM   H10S15218   3.055   5.791   4.060 -1.8111  0.7408  1.4807
  140OSM   H10T15219   3.048   5.615   4.075 -1.1355 -0.0801  0.5286
  140OSM   C11S15220   2.867   5.709   4.105  0.8453 -0.3466  0.5729
  140OSM   H11S15221   2.820   5.608   4.114 -0.4487  0.2380  0.6442
  140OSM   H11T15222   2.798   5.762   4.035  0.1204 -2.8784 -0.7692
  140OSM   C12S15223   2.854   5.801   4.223 -0.9224  0.2326 -0.6501
  140OSM   H12S15224   2.749   5.823   4.252 -0.7943 -0.4080  0.3149
  140OSM   H12T15225   2.907   5.896   4.199 -0.3143 -0.3871 -1.8706
  140OSM   C13S15226   2.920   5.742   4.351  0.2129  0.2476 -0.3160
  140OSM   H13S15227   2.910   5.823   4.427  1.9871 -0.2071  0.4653
  140OSM   H13T15228   3.027   5.736   4.319 -0.4974 -1.9703 -2.5738
  140OSM   C14S15229   2.853   5.613   4.403  0.0558  0.7217  0.7508
  140OSM   H14S15230   2.917   5.528   4.369 -1.7779 -0.7514  0.8261
  140OSM   H14T15231   2.752   5.611   4.357  1.0446  0.2148 -1.5728
  140OSM   C15S15232   2.843   5.610   4.556  0.3916  0.3074  0.0863
  140OSM   H15S15233   2.770   5.529   4.579  1.0318 -0.6847 -1.2541
  140OSM   H15T15234   2.813   5.712   4.588  0.9237  0.6351 -0.4564
  140OSM   C16S15235   2.977   5.565   4.606 -0.3875 -0.0112 -0.4587
  140OSM   H16S15236   3.051   5.638   4.567 -0.9939 -0.3963 -2.3898
  140OSM   H16T15237   3.015   5.471   4.562 -0.7501  0.1565 -1.1417
  140OSM   C17S15238   2.972   5.539   4.758  0.0690  0.3232  0.1954
  140OSM   H17S15239   3.059   5.476   4.788  1.2887  1.9382  0.1636
  140OSM   H17T15240   2.881   5.481   4.783  0.9580 -1.5814 -0.7728
  140OSM   C18S15241   2.957   5.668   4.839  0.1124 -0.0804  0.3385
  140OSM   H18S15242   3.041   5.738   4.816 -0.1941  0.0800 -0.2903
  140OSM   H18T15243   2.954   5.632   4.944 -2.0942 -2.9774 -0.5890
  140OSM   H18U15244   2.857   5.713   4.822  0.6393  1.9452  2.0986
  140OSM    C1F15245   2.972   5.205   3.262 -0.0090  0.3263  0.1517
  140OSM     OF15246   3.057   5.136   3.206  0.2289  0.3606  0.4516
  140OSM    C2F15247   2.864   5.142   3.351 -0.4911  0.6246 -0.3711
  140OSM    H2F15248   2.819   5.055   3.298  0.2686 -0.7396  1.1040
  140OSM    H2G15249   2.794   5.223   3.379 -0.1313  0.1936  2.0100
  140OSM    C3F15250   2.933   5.084   3.473  0.3922 -0.2441 -0.5722
  140OSM    H3F15251   3.028   5.031   3.449  2.6727  3.2155  0.1474
  140OSM    H3G15252   2.869   5.013   3.530  1.2832 -0.9783 -0.4580
  140OSM    C4F15253   2.976   5.199   3.573 -0.7731 -0.4123  0.5081
  140OSM    H4F15254   3.045   5.272   3.524 -0.6099 -0.3477  0.8316
  140OSM    H4G15255   3.041   5.159   3.654 -0.5904 -1.2061 -0.0251
  140OSM    C5F15256   2.849   5.268   3.635  0.7383  0.2032 -0.1691
  140OSM    H5F15257   2.753   5.223   3.600  0.1719  0.7747  0.6205
  140OSM    H5G15258   2.853   5.368   3.586  1.1045  0.7347  0.9227
  140OSM    C6F15259   2.844   5.277   3.789  0.1510 -0.4022  0.5262
  140OSM    H6F15260   2.773   5.354   3.825  0.7718 -0.2096  1.3940
  140OSM    H6G15261   2.948   5.308   3.814  0.7155 -1.5254 -0.3388
  140OSM    C7F15262   2.812   5.149   3.866  0.8916  0.7651  0.1320
  140OSM    H7F15263   2.862   5.067   3.810 -1.6886 -1.5860  1.0897
  140OSM    H7G15264   2.704   5.127   3.860  1.2064 -1.6678  1.8230
  140OSM    C8F15265   2.856   5.151   4.014  0.0257 -0.1179  0.2222
  140OSM    H8F15266   2.961   5.116   4.025  0.7035  1.0986 -1.8017
  140OSM    H8G15267   2.800   5.074   4.071  0.6074 -0.8213 -0.1454
  140OSM    C9F15268   2.827   5.287   4.076 -0.1943 -0.2468  0.0863
  140OSM    H9F15269   2.904   5.360   4.050 -0.7687  0.0050 -1.0017
  140OSM   C10F15270   2.717   5.309   4.150 -0.0397 -0.1278  0.4215
  140OSM   H10F15271   2.704   5.404   4.204 -0.3295 -1.0429  2.0339
  140OSM   C11F15272   2.600   5.222   4.198  0.4221 -0.5063  0.1096
  140OSM   H11F15273   2.574   5.142   4.125  1.2355 -0.9200  0.2580
  140OSM   H11G15274   2.503   5.273   4.209 -0.3758 -1.1778 -3.0396
  140OSM   C12F15275   2.629   5.151   4.329 -0.6827 -0.4771  0.6762
  140OSM   H12F15276   2.725   5.095   4.329  1.0515  2.2637  1.2299
  140OSM   H12G15277   2.548   5.082   4.360 -0.1709  0.2634  4.1541
  140OSM   C13F15278   2.642   5.244   4.451 -0.0198  0.3740  0.3093
  140OSM   H13F15279   2.550   5.300   4.477  2.1433  3.1499  2.6804
  140OSM   H13G15280   2.714   5.320   4.415  0.3493 -1.2375 -2.7207
  140OSM   C14F15281   2.696   5.170   4.569  0.1732 -0.2347  0.7699
  140OSM   H14F15282   2.792   5.117   4.552  0.6108  0.6680  0.3957
  140OSM   H14G15283   2.622   5.092   4.600 -0.5448  0.0007 -0.3051
  140OSM   C15F15284   2.705   5.258   4.696 -0.4392 -0.3162  0.1924
  140OSM   H15F15285   2.615   5.324   4.698 -2.0678 -2.1685 -3.2706
  140OSM   H15G15286   2.800   5.314   4.682 -0.5917  0.2003  1.1168
  140OSM   C16F15287   2.720   5.188   4.827 -0.3107 -0.2559 -0.3008
  140OSM   H16F15288   2.806   5.117   4.826 -0.8999 -0.9993  0.3641
  140OSM   H16G15289   2.637   5.116   4.840  0.6592 -1.2813  0.4276
  140OSM   C17F15290   2.729   5.274   4.950  0.3368 -0.0283  0.1725
  140OSM   H17F15291   2.827   5.326   4.951  0.0941  0.4592  1.9429
  140OSM   H17G15292   2.714   5.212   5.040  0.9504 -2.0794 -1.0647
  140OSM   C18F15293   2.627   5.383   4.963  0.2010 -0.8535 -0.4516
  140OSM   H18F15294   2.611   5.435   4.867  0.4802 -1.5346 -0.8722
  140OSM   H18G15295   2.658   5.443   5.052 -2.2087 -0.6889  0.3504
  140OSM   H18H15296   2.529   5.344   4.997  1.8068 -2.7090  2.5828
  141OSM      N15297   4.292   5.261   3.227  0.5291  0.1912  0.3229
  141OSM    C1515298   4.192   5.166   3.274  0.6775  0.3393  0.2847
  141OSM   H15A15299   4.209   5.065   3.239  0.8301 -0.4579  2.4633
  141OSM   H15B15300   4.094   5.198   3.243  0.0644 -2.4610 -1.0149
  141OSM   H15C15301   4.183   5.152   3.381 -0.2117  1.9798  0.4514
  141OSM    C1415302   4.236   5.399   3.240  0.3509  0.3153 -0.2697
  141OSM   H14A15303   4.215   5.417   3.344  0.1155 -1.5599  0.0337
  141OSM   H14B15304   4.151   5.416   3.176  0.3711 -0.8820 -0.6411
  141OSM   H14C15305   4.311   5.474   3.221  1.1293 -0.1483  0.8804
  141OSM    C1315306   4.417   5.245   3.305 -0.6053  0.2535 -0.8085
  141OSM   H13A15307   4.420   5.257   3.413 -2.4523 -0.6987 -0.6212
  141OSM   H13B15308   4.486   5.317   3.263 -0.7214 -0.1432 -1.6794
  141OSM   H13C15309   4.450   5.144   3.285  0.9771  0.3677  0.8694
  141OSM    C1215310   4.310   5.233   3.085  0.6968  0.0710  1.2877
  141OSM   H12A15311   4.213   5.250   3.042  0.6915 -0.2069  1.1874
  141OSM   H12B15312   4.336   5.131   3.061 -0.2034  0.5924 -2.6840
  141OSM    C1115313   4.398   5.316   2.998  0.3468  0.4874  1.1578
  141OSM   H11A15314   4.370   5.422   3.015 -0.6224  0.2719  0.9601
  141OSM   H11B15315   4.376   5.288   2.893  0.2597 -1.8129  1.7260
  141OSM      P15316   4.635   5.408   2.972  0.2263  0.1270 -0.3717
  141OSM    O1315317   4.771   5.361   2.949 -0.2042  0.5024  0.2104
  141OSM    O1415318   4.566   5.471   2.857 -0.0063  0.3708  0.4800
  141OSM    O1115319   4.643   5.505   3.092 -0.3226 -0.1293  0.6672
  141OSM    O1215320   4.542   5.296   3.017  0.2478  0.4362  0.1632
  141OSM    C1S15321   4.704   5.465   3.212  0.0424  0.6529 -0.2471
  141OSM    H1S15322   4.814   5.463   3.196  0.2369 -3.1401  0.4591
  141OSM    H1T15323   4.673   5.365   3.249  0.7335  0.4284 -0.2717
  141OSM     NF15324   4.781   5.544   3.431 -0.3597 -0.5762 -0.0029
  141OSM    HNF15325   4.744   5.471   3.488 -1.9857  0.2978  0.1246
  141OSM    C2S15326   4.686   5.576   3.324 -0.2889 -0.0003 -0.0891
  141OSM    H2S15327   4.723   5.671   3.280 -1.2572  0.1572 -0.5978
  141OSM    C3S15328   4.536   5.605   3.360  0.2431  0.1687  0.3719
  141OSM    H3S15329   4.489   5.508   3.385  1.2031 -0.8861 -1.6794
  141OSM     O315330   4.451   5.654   3.256  0.0072  0.5338  0.2925
  141OSM    HO315331   4.493   5.650   3.170 -0.0097  1.1133  0.2584
  141OSM    C4S15332   4.520   5.695   3.484 -0.4505 -0.6870 -0.2522
  141OSM    H4S15333   4.529   5.636   3.576  0.4537 -2.1669 -1.2491
  141OSM    C5S15334   4.505   5.834   3.483  0.1481 -0.6189 -0.1489
  141OSM    H5S15335   4.498   5.878   3.383 -0.6282 -1.2876 -0.3969
  141OSM    C6S15336   4.512   5.933   3.594 -0.3885  0.1015 -0.3380
  141OSM    H6S15337   4.406   5.951   3.619 -0.4438 -2.5758  1.8003
  141OSM    H6T15338   4.564   6.030   3.578 -0.2466  0.4445  1.8622
  141OSM    C7S15339   4.568   5.872   3.724  0.7224 -0.3757 -0.3174
  141OSM    H7S15340   4.670   5.830   3.714  0.0620 -1.8159 -1.3473
  141OSM    H7T15341   4.502   5.787   3.751 -1.1357  0.5872 -1.5966
  141OSM    C8S15342   4.568   5.966   3.848  0.9076 -0.3155  0.3628
  141OSM    H8S15343   4.467   6.006   3.875  1.0075 -0.1929  0.5600
  141OSM    H8T15344   4.629   6.057   3.831  0.5704 -0.4499 -1.7165
  141OSM    C9S15345   4.632   5.900   3.971 -0.0736  0.1231 -0.1276
  141OSM    H9S15346   4.741   5.885   3.952  0.1201  1.3831 -0.1090
  141OSM    H9T15347   4.602   5.795   3.991  1.4372 -0.3966 -0.3904
  141OSM   C10S15348   4.613   5.980   4.097  0.2665 -0.6378  0.7333
  141OSM   H10S15349   4.507   5.997   4.124  0.2930 -1.6823  1.5610
  141OSM   H10T15350   4.663   6.077   4.078 -1.1996  0.0475  0.2910
  141OSM   C11S15351   4.687   5.927   4.218  0.7289  0.4586  0.3844
  141OSM   H11S15352   4.711   6.004   4.294 -2.0717 -0.4697  2.3858
  141OSM   H11T15353   4.784   5.878   4.192 -0.3609 -1.5815 -0.0301
  141OSM   C12S15354   4.603   5.821   4.294  0.1976  0.2475  0.2885
  141OSM   H12S15355   4.591   5.736   4.223  1.4866  0.4707 -0.2453
  141OSM   H12T15356   4.509   5.862   4.336  0.4739  0.3616  0.8031
  141OSM   C13S15357   4.680   5.783   4.414 -0.0825 -0.1666 -0.2739
  141OSM   H13S15358   4.712   5.877   4.465 -0.2641 -0.3052  0.1008
  141OSM   H13T15359   4.773   5.730   4.388 -0.0706 -0.2674 -0.0308
  141OSM   C14S15360   4.606   5.726   4.540 -0.1951  0.5940 -0.5576
  141OSM   H14S15361   4.556   5.639   4.492  1.3211 -1.1309  0.8464
  141OSM   H14T15362   4.542   5.799   4.594  2.3206  2.1056  0.5486
  141OSM   C15S15363   4.699   5.664   4.646 -0.3209 -0.5123  0.3929
  141OSM   H15S15364   4.776   5.740   4.669  0.1653 -1.2891  1.4421
  141OSM   H15T15365   4.757   5.583   4.596 -0.3682 -0.3891  0.1402
  141OSM   C16S15366   4.631   5.612   4.770 -0.2959  0.0640 -0.1214
  141OSM   H16S15367   4.540   5.552   4.749 -0.7451  0.6278  0.1811
  141OSM   H16T15368   4.611   5.703   4.831 -0.7882 -0.6206  0.7627
  141OSM   C17S15369   4.729   5.521   4.843 -0.3856 -0.3714 -0.0346
  141OSM   H17S15370   4.821   5.582   4.857 -1.2573  1.1453 -0.6332
  141OSM   H17T15371   4.746   5.440   4.769 -1.3766 -0.4247 -0.2119
  141OSM   C18S15372   4.662   5.466   4.965  0.3460 -0.2788  0.3583
  141OSM   H18S15373   4.725   5.405   5.033  4.3500  2.3226 -0.6561
  141OSM   H18T15374   4.570   5.407   4.941 -1.8316  3.2438 -0.7809
  141OSM   H18U15375   4.620   5.549   5.026 -0.4226 -0.9288  0.7406
  141OSM    C1F15376   4.919   5.553   3.412 -0.6860 -0.0156  0.1430
  141OSM     OF15377   4.963   5.615   3.320 -0.1398  0.2078 -0.0646
  141OSM    C2F15378   5.015   5.483   3.513  0.7384 -0.5387 -0.4188
  141OSM    H2F15379   5.119   5.489   3.474  1.9296  0.3320  2.5956
  141OSM    H2G15380   4.990   5.375   3.512 -0.6622 -0.2590  0.2928
  141OSM    C3F15381   4.992   5.553   3.646 -0.4674 -0.3847 -0.2901
  141OSM    H3F15382   4.886   5.526   3.667 -1.3637 -0.0119 -3.6291
  141OSM    H3G15383   5.003   5.664   3.642 -1.2949 -0.0540  3.2047
  141OSM    C4F15384   5.078   5.503   3.755 -0.4702  0.6319  0.0477
  141OSM    H4F15385   5.181   5.522   3.720  0.6235  1.3978  3.3141
  141OSM    H4G15386   5.061   5.393   3.763  0.2053  0.5951  1.2123
  141OSM    C5F15387   5.058   5.567   3.892  0.1004 -0.3729  0.4719
  141OSM    H5F15388   5.000   5.661   3.887 -0.8047 -0.9035  0.8026
  141OSM    H5G15389   5.158   5.599   3.929 -0.8191  2.4777  0.6951
  141OSM    C6F15390   4.995   5.486   4.001 -0.0302 -0.2177 -0.0871
  141OSM    H6F15391   5.050   5.391   4.016  1.2054  0.5099  0.1185
  141OSM    H6G15392   4.888   5.465   3.976 -0.9960  1.7487  2.1143
  141OSM    C7F15393   4.962   5.561   4.132  0.1582 -0.1961 -0.0039
  141OSM    H7F15394   4.901   5.494   4.196  1.8844 -1.4332  0.4008
  141OSM    H7G15395   4.911   5.656   4.106  1.0543  0.6284  1.1192
  141OSM    C8F15396   5.085   5.613   4.218  1.3275 -0.0716  0.1269
  141OSM    H8F15397   5.044   5.651   4.314 -0.7802  1.6209 -1.3235
  141OSM    H8G15398   5.141   5.694   4.166  1.3445 -0.5906 -0.6831
  141OSM    C9F15399   5.180   5.499   4.242 -0.0338  0.4195  0.8750
  141OSM    H9F15400   5.267   5.485   4.176 -1.4070 -1.3078 -0.6908
  141OSM   C10F15401   5.163   5.399   4.335 -0.3557 -0.3294  0.7441
  141OSM   H10F15402   5.243   5.325   4.344  0.7239  0.8390  1.0259
  141OSM   C11F15403   5.055   5.392   4.433 -0.2768 -0.2010 -0.0125
  141OSM   H11F15404   4.976   5.315   4.415  0.5212 -1.7958  2.6018
  141OSM   H11G15405   4.999   5.488   4.435  1.4894  0.8905  2.7442
  141OSM   C12F15406   5.092   5.362   4.580  0.0856  0.3430  0.2681
  141OSM   H12F15407   5.177   5.290   4.582  0.9813  1.2350 -1.9207
  141OSM   H12G15408   5.006   5.313   4.631  0.0718 -0.2470 -0.3065
  141OSM   C13F15409   5.142   5.488   4.651  0.1784 -0.5914 -0.6511
  141OSM   H13F15410   5.065   5.566   4.631  0.8149 -0.5523 -3.3500
  141OSM   H13G15411   5.232   5.529   4.602  1.0139  1.8228  2.5406
  141OSM   C14F15412   5.173   5.452   4.795 -0.6071 -0.0624  0.6372
  141OSM   H14F15413   5.262   5.388   4.812 -0.3231  0.6854  2.0730
  141OSM   H14G15414   5.086   5.405   4.845  0.0548 -3.0461 -0.7780
  141OSM   C15F15415   5.211   5.580   4.878 -0.0891  0.0054  0.4144
  141OSM   H15F15416   5.293   5.635   4.827  0.5982 -0.7030  0.7277
  141OSM   H15G15417   5.264   5.551   4.972 -1.5027 -1.2043  0.8881
  141OSM   C16F15418   5.085   5.669   4.919  0.2978 -0.0861 -0.3705
  141OSM   H16F15419   5.018   5.683   4.832 -1.3442 -0.5274  0.7828
  141OSM   H16G15420   5.126   5.766   4.954 -0.3325 -0.0811  0.3580
  141OSM   C17F15421   5.012   5.614   5.038 -0.1733  0.1415  0.5456
  141OSM   H17F15422   5.084   5.579   5.115 -1.3322 -1.3252  1.0066
  141OSM   H17G15423   4.964   5.520   5.003  0.5454  0.0370 -0.1811
  141OSM   C18F15424   4.912   5.720   5.096  0.4703 -0.3674  0.1712
  141OSM   H18F15425   4.833   5.738   5.020 -0.9173 -0.5197  1.5236
  141OSM   H18G15426   4.953   5.822   5.106  0.2939 -0.1720 -0.9480
  141OSM   H18H15427   4.873   5.690   5.196  0.5988  3.5826  1.5996
  142OSM      N15428   6.308   1.218   2.611  0.6978 -0.4596 -0.5988
  142OSM    C1515429   6.175   1.163   2.568  0.4329 -0.6033 -0.0139
  142OSM   H15A15430   6.111   1.128   2.647 -0.7938  1.8395  0.1779
  142OSM   H15B15431   6.191   1.085   2.495 -0.0781 -1.5333  0.8518
  142OSM   H15C15432   6.127   1.236   2.504  0.5570 -0.6114 -0.1168
  142OSM    C1415433   6.395   1.112   2.668  0.2007 -1.3074 -0.4584
  142OSM   H14A15434   6.368   1.099   2.771 -0.6309 -1.7828 -0.7265
  142OSM   H14B15435   6.499   1.142   2.672  0.4090 -2.0226 -0.4186
  142OSM   H14C15436   6.383   1.014   2.625 -2.0782 -0.9743 -0.6789
  142OSM    C1315437   6.384   1.268   2.488  0.3490  0.1946 -0.5107
  142OSM   H13A15438   6.326   1.342   2.434 -1.8247 -2.1516 -1.6538
  142OSM   H13B15439   6.393   1.191   2.413 -0.6033 -0.6027  0.1527
  142OSM   H13C15440   6.482   1.300   2.518  0.6737 -2.1234  1.1493
  142OSM    C1215441   6.285   1.332   2.708  0.1734  0.1025 -1.0246
  142OSM   H12A15442   6.381   1.370   2.738 -0.8791  1.0134  1.4280
  142OSM   H12B15443   6.240   1.290   2.797  1.8273  0.2392 -0.0959
  142OSM    C1115444   6.192   1.451   2.661 -0.5143  0.0138  0.4158
  142OSM   H11A15445   6.222   1.485   2.559 -0.0149 -0.8227  0.2718
  142OSM   H11B15446   6.210   1.535   2.731  0.8840 -0.0356  0.1561
  142OSM      P15447   5.964   1.386   2.755  0.3643  0.4224  0.2828
  142OSM    O1315448   5.831   1.428   2.698  0.2683  0.1748 -0.4392
  142OSM    O1415449   5.978   1.244   2.797  0.1126 -0.1831  0.0284
  142OSM    O1115450   6.014   1.489   2.875 -0.1327  0.4317  0.6356
  142OSM    O1215451   6.056   1.414   2.645 -0.4630  0.1387 -0.0556
  142OSM    C1S15452   5.977   1.496   3.016 -0.3497 -0.0123 -0.0361
  142OSM    H1S15453   5.898   1.420   3.034 -1.3861  0.2824 -2.8263
  142OSM    H1T15454   5.946   1.600   3.038  2.2755  0.7093  0.6314
  142OSM     NF15455   6.032   1.462   3.249  0.4924  0.1873 -0.2952
  142OSM    HNF15456   6.041   1.541   3.310 -1.0064 -1.0160  1.5836
  142OSM    C2S15457   6.088   1.476   3.120  0.0034  0.5653  0.3649
  142OSM    H2S15458   6.146   1.382   3.109  0.1094  0.6097  0.5321
  142OSM    C3S15459   6.205   1.590   3.108  0.2035 -0.4311 -0.4601
  142OSM    H3S15460   6.144   1.682   3.116 -2.7614 -2.0375 -2.5809
  142OSM     O315461   6.269   1.591   2.977  0.0448  0.1560 -0.0904
  142OSM    HO315462   6.202   1.565   2.913 -1.7361  1.6546  1.0450
  142OSM    C4S15463   6.312   1.582   3.214 -0.0938  0.5552 -0.6052
  142OSM    H4S15464   6.370   1.489   3.203 -1.1725 -0.0858 -1.0278
  142OSM    C5S15465   6.341   1.666   3.313  0.3554 -0.7801 -0.1727
  142OSM    H5S15466   6.295   1.765   3.324  0.3488 -0.9008  0.9709
  142OSM    C6S15467   6.450   1.641   3.417  0.1541 -0.1262 -0.9213
  142OSM    H6S15468   6.530   1.719   3.409 -2.0621  2.2194 -1.7450
  142OSM    H6T15469   6.503   1.545   3.398  0.5861 -0.0486 -0.1413
  142OSM    C7S15470   6.415   1.660   3.566  0.1833  0.3412  0.6816
  142OSM    H7S15471   6.332   1.591   3.592 -0.8802  0.1873 -2.6568
  142OSM    H7T15472   6.382   1.763   3.593  0.3812  0.6242 -0.1416
  142OSM    C8S15473   6.532   1.615   3.658  0.4210 -0.3804 -0.1378
  142OSM    H8S15474   6.632   1.617   3.610  0.2313  0.6047 -0.5101
  142OSM    H8T15475   6.510   1.510   3.686  1.7971 -1.0717 -1.4874
  142OSM    C9S15476   6.554   1.706   3.784 -0.1697  0.1685  0.2373
  142OSM    H9S15477   6.572   1.811   3.754  1.2398 -0.5060 -1.3994
  142OSM    H9T15478   6.652   1.671   3.825 -0.1194  0.6629  0.5469
  142OSM   C10S15479   6.445   1.696   3.893  0.0652 -0.2397  0.0155
  142OSM   H10S15480   6.439   1.590   3.924  1.4214 -0.9438 -1.9104
  142OSM   H10T15481   6.344   1.723   3.856  0.1395  2.8341  1.7266
  142OSM   C11S15482   6.465   1.776   4.018 -0.5004 -0.4110 -0.4105
  142OSM   H11S15483   6.378   1.791   4.085  0.3398  1.2125  0.3812
  142OSM   H11T15484   6.488   1.881   3.993 -0.5219 -0.7103 -1.7529
  142OSM   C12S15485   6.582   1.730   4.108 -0.0744 -0.5266  0.3233
  142OSM   H12S15486   6.678   1.739   4.053 -0.8684 -1.5283 -1.2996
  142OSM   H12T15487   6.569   1.620   4.119  0.3984 -0.6017  0.1595
  142OSM   C13S15488   6.591   1.802   4.241 -0.4205 -1.2364 -0.3354
  142OSM   H13S15489   6.495   1.807   4.296  1.1377 -3.5796  2.9113
  142OSM   H13T15490   6.621   1.909   4.239 -0.5617 -1.0613  2.8445
  142OSM   C14S15491   6.689   1.737   4.332  0.3010  0.1664  0.8019
  142OSM   H14S15492   6.787   1.755   4.283 -1.2591  1.7180 -1.9830
  142OSM   H14T15493   6.674   1.627   4.331  0.5117  0.1416 -0.1539
  142OSM   C15S15494   6.692   1.791   4.472 -0.7892  0.7904  0.6474
  142OSM   H15S15495   6.685   1.901   4.474 -1.0909  0.8152 -0.7904
  142OSM   H15T15496   6.783   1.761   4.529 -0.1628 -0.7219 -1.0550
  142OSM   C16S15497   6.575   1.749   4.562 -0.1685  0.0900 -0.4061
  142OSM   H16S15498   6.555   1.641   4.545  3.7599 -0.8852  0.0117
  142OSM   H16T15499   6.484   1.791   4.514  0.2120  1.2561 -0.1458
  142OSM   C17S15500   6.603   1.784   4.706 -0.0654 -0.5334 -0.0273
  142OSM   H17S15501   6.603   1.894   4.716 -0.4639 -0.3194 -1.9614
  142OSM   H17T15502   6.705   1.754   4.738 -0.6505 -1.0476  1.4873
  142OSM   C18S15503   6.509   1.713   4.802 -0.8266 -0.3240  0.0050
  142OSM   H18S15504   6.406   1.752   4.786  0.3806  2.0853 -2.8519
  142OSM   H18T15505   6.542   1.718   4.908  2.3512 -0.9602 -0.8335
  142OSM   H18U15506   6.508   1.604   4.782 -1.1780  0.0493 -2.2817
  142OSM    C1F15507   5.965   1.345   3.287 -0.5623  0.5325 -0.1626
  142OSM     OF15508   5.962   1.248   3.218  0.7058  0.2088 -0.6629
  142OSM    C2F15509   5.885   1.359   3.413 -0.4619 -0.4727 -0.5572
  142OSM    H2F15510   5.817   1.272   3.419  1.5787 -2.1634 -0.8881
  142OSM    H2G15511   5.820   1.449   3.410 -0.9721 -0.7748  0.6799
  142OSM    C3F15512   5.972   1.361   3.541  0.0625 -0.5214 -0.0440
  142OSM    H3F15513   6.073   1.403   3.519 -0.3628  1.0957  0.9078
  142OSM    H3G15514   5.994   1.254   3.565  3.0344  0.3473  1.6984
  142OSM    C4F15515   5.911   1.420   3.674  0.0860 -0.4069  0.5425
  142OSM    H4F15516   5.822   1.369   3.718 -0.2574 -0.8894 -0.6807
  142OSM    H4G15517   5.877   1.517   3.633  0.0800 -1.5376 -2.3354
  142OSM    C5F15518   6.018   1.444   3.782  0.8067 -0.0422 -0.0689
  142OSM    H5F15519   6.087   1.521   3.743 -0.7948  1.8631  0.6809
  142OSM    H5G15520   6.069   1.349   3.808 -2.0358 -1.8626 -0.6668
  142OSM    C6F15521   5.941   1.497   3.907  0.6755  0.1129  0.0082
  142OSM    H6F15522   5.849   1.550   3.875  0.2322 -0.5640  0.1316
  142OSM    H6G15523   6.004   1.571   3.961  0.4162 -0.5233  1.2236
  142OSM    C7F15524   5.884   1.374   3.995 -0.5455 -0.4531  0.4855
  142OSM    H7F15525   5.962   1.311   4.042  0.4128  0.4442  0.1355
  142OSM    H7G15526   5.819   1.302   3.941  0.0127 -0.1232 -0.6559
  142OSM    C8F15527   5.801   1.422   4.116 -0.0079  0.4297 -0.0676
  142OSM    H8F15528   5.757   1.329   4.159 -1.1187  0.5407 -0.9105
  142OSM    H8G15529   5.709   1.478   4.092 -0.8919 -0.4586  1.1293
  142OSM    C9F15530   5.873   1.505   4.224  0.0344 -0.1661 -0.1072
  142OSM    H9F15531   5.944   1.577   4.180  0.5262  0.3901  1.5261
  142OSM   C10F15532   5.858   1.483   4.359 -0.4066  0.4955  0.7353
  142OSM   H10F15533   5.923   1.542   4.426  1.8295 -1.2176  0.2102
  142OSM   C11F15534   5.765   1.384   4.425 -0.0429  0.4526  0.4289
  142OSM   H11F15535   5.837   1.337   4.495  0.6126  1.6071  0.5412
  142OSM   H11G15536   5.730   1.305   4.355  1.0821 -1.6564  2.1307
  142OSM   C12F15537   5.652   1.446   4.504  0.2188 -0.3215 -0.0841
  142OSM   H12F15538   5.585   1.491   4.427 -0.4272 -0.3603  0.4505
  142OSM   H12G15539   5.682   1.538   4.558 -1.9588 -0.3170  1.2321
  142OSM   C13F15540   5.564   1.358   4.598 -0.4934 -0.1713 -0.6753
  142OSM   H13F15541   5.513   1.279   4.538 -2.7556  1.1721 -0.6338
  142OSM   H13G15542   5.481   1.416   4.644 -0.7421 -0.7022 -0.4395
  142OSM   C14F15543   5.643   1.283   4.707 -0.3896 -0.1740 -0.4620
  142OSM   H14F15544   5.730   1.225   4.672 -0.0558 -0.5456  0.9303
  142OSM   H14G15545   5.584   1.201   4.752  2.9371 -2.2166  0.4980
  142OSM   C15F15546   5.688   1.382   4.819  0.3445  0.1026  0.8032
  142OSM   H15F15547   5.590   1.411   4.863 -0.6774 -1.2317 -0.5145
  142OSM   H15G15548   5.731   1.474   4.773 -0.8303  1.3307  2.0936
  142OSM   C16F15549   5.775   1.316   4.928  0.4480  0.1058 -0.1839
  142OSM   H16F15550   5.871   1.371   4.930 -0.8790  2.7176  3.6764
  142OSM   H16G15551   5.789   1.206   4.930 -1.1770 -0.1431  2.4286
  142OSM   C17F15552   5.717   1.348   5.067  0.1308  0.5394  0.2493
  142OSM   H17F15553   5.784   1.295   5.138 -0.1611 -0.4519 -0.1838
  142OSM   H17G15554   5.618   1.298   5.081  0.2950  0.5440  1.4666
  142OSM   C18F15555   5.702   1.494   5.110 -0.0515  0.1536  0.3115
  142OSM   H18F15556   5.634   1.553   5.044 -0.2165  0.0229  0.3612
  142OSM   H18G15557   5.797   1.549   5.118 -1.1965  2.1695  0.6712
  142OSM   H18H15558   5.665   1.498   5.214 -2.2743  2.4871 -0.4633
  143OSM      N15559   4.024   4.511   2.917 -0.4662 -0.0978  0.4007
  143OSM    C1515560   4.021   4.642   2.840  0.0308 -0.4971 -0.1572
  143OSM   H15A15561   4.121   4.677   2.818  0.3346  0.6348  2.5790
  143OSM   H15B15562   3.969   4.714   2.901 -0.4970 -1.5855  0.7317
  143OSM   H15C15563   3.969   4.633   2.746 -0.2536  1.5492 -0.2310
  143OSM    C1415564   3.903   4.441   2.870 -0.6845  0.2319  0.4575
  143OSM   H14A15565   3.814   4.492   2.906 -0.9526 -0.6995  1.1843
  143OSM   H14B15566   3.893   4.340   2.909 -1.8343 -0.1265 -0.6610
  143OSM   H14C15567   3.898   4.437   2.763 -2.7397  0.2066  0.5060
  143OSM    C1315568   4.147   4.430   2.885 -0.3619  0.0071  0.3024
  143OSM   H13A15569   4.239   4.464   2.931 -0.7461  2.0301 -0.2817
  143OSM   H13B15570   4.179   4.433   2.782  0.0287  0.3746  0.4301
  143OSM   H13C15571   4.135   4.323   2.892  0.6672 -0.0882  0.8123
  143OSM    C1215572   4.031   4.536   3.069  0.4506  0.0910 -0.1924
  143OSM   H12A15573   4.124   4.585   3.092 -0.6138  0.2467  4.9702
  143OSM   H12B15574   4.040   4.440   3.118  0.0264 -0.1474 -0.5640
  143OSM    C1115575   3.916   4.616   3.128  0.7426  0.3615  0.3712
  143OSM   H11A15576   3.901   4.602   3.237 -1.3738  0.0238  0.0729
  143OSM   H11B15577   3.822   4.569   3.091  1.3979  0.5060 -1.6011
  143OSM      P15578   4.013   4.858   3.159  0.2727 -0.3362  0.1088
  143OSM    O1315579   4.145   4.800   3.183 -0.2533  0.3342 -0.0193
  143OSM    O1415580   4.011   4.975   3.075  0.4808  0.2742  0.3708
  143OSM    O1115581   3.931   4.897   3.294  0.0878 -0.3341  0.2094
  143OSM    O1215582   3.914   4.755   3.094  0.2900  0.0401  0.2492
  143OSM    C1S15583   3.812   4.975   3.283  0.3000 -0.5240 -0.1408
  143OSM    H1S15584   3.732   4.908   3.246  0.2046 -1.3352  1.4580
  143OSM    H1T15585   3.830   5.070   3.229  0.1756  0.4679  1.4981
  143OSM     NF15586   3.628   5.060   3.430  0.6545 -0.5403 -0.3806
  143OSM    HNF15587   3.601   5.154   3.412  0.3131 -0.7473 -1.0191
  143OSM    C2S15588   3.764   5.015   3.425 -0.0038  0.9506 -0.3524
  143OSM    H2S15589   3.774   4.922   3.484  2.1349  0.3402 -1.5869
  143OSM    C3S15590   3.866   5.115   3.484  0.6559 -0.3831  0.1705
  143OSM    H3S15591   3.871   5.201   3.414 -2.0163 -0.7273 -0.5580
  143OSM     O315592   3.994   5.062   3.491 -0.3778 -0.1335 -0.5108
  143OSM    HO315593   3.979   4.991   3.428  1.8394  0.3869 -1.7480
  143OSM    C4S15594   3.825   5.173   3.625  0.8017  0.3485  0.4639
  143OSM    H4S15595   3.829   5.099   3.707 -1.0410 -0.3822 -0.0465
  143OSM    C5S15596   3.792   5.301   3.649 -0.3938  0.3643 -0.0605
  143OSM    H5S15597   3.783   5.378   3.570 -2.1133 -0.6845 -0.9454
  143OSM    C6S15598   3.757   5.362   3.779 -0.1065  0.3309 -0.0983
  143OSM    H6S15599   3.650   5.393   3.772 -0.8175 -1.9053  0.2027
  143OSM    H6T15600   3.817   5.454   3.795  2.4536 -0.8145 -2.2800
  143OSM    C7S15601   3.782   5.277   3.908  0.5817  0.3643  0.1588
  143OSM    H7S15602   3.887   5.246   3.925 -0.2538 -2.1549  1.3059
  143OSM    H7T15603   3.721   5.187   3.885  2.6374 -1.1011  0.1514
  143OSM    C8S15604   3.737   5.347   4.041  0.2270  0.7611  0.2705
  143OSM    H8S15605   3.626   5.339   4.040  0.2412 -0.2630 -2.3749
  143OSM    H8T15606   3.765   5.455   4.047  1.5882  0.4648 -0.3838
  143OSM    C9S15607   3.780   5.270   4.165 -0.6018  0.2974 -0.6255
  143OSM    H9S15608   3.889   5.271   4.186 -1.0090  0.8391  1.7527
  143OSM    H9T15609   3.758   5.161   4.156  0.0774  0.1017 -0.0590
  143OSM   C10S15610   3.718   5.323   4.297  0.8553  0.5307 -0.0030
  143OSM   H10S15611   3.607   5.333   4.295  0.7654 -0.4423 -1.3137
  143OSM   H10T15612   3.767   5.419   4.325  0.9533  0.0466  1.5877
  143OSM   C11S15613   3.749   5.219   4.399  0.0788  0.9015  0.6438
  143OSM   H11S15614   3.859   5.218   4.415  0.1514 -1.0590  0.3223
  143OSM   H11T15615   3.718   5.118   4.363  2.2150  0.7174 -0.8960
  143OSM   C12S15616   3.688   5.244   4.535  0.5472 -0.8381  0.0486
  143OSM   H12S15617   3.584   5.279   4.523  2.1776  5.0634  0.0460
  143OSM   H12T15618   3.735   5.340   4.567  1.6697 -0.6327 -2.0471
  143OSM   C13S15619   3.707   5.129   4.637 -0.7270  0.5524  0.7047
  143OSM   H13S15620   3.813   5.114   4.670 -0.5345  0.0779 -0.1130
  143OSM   H13T15621   3.683   5.029   4.596 -3.1174  0.3452  2.3854
  143OSM   C14S15622   3.608   5.151   4.751 -0.5314 -0.0723 -0.3788
  143OSM   H14S15623   3.628   5.068   4.822 -1.7801  1.7133  2.2245
  143OSM   H14T15624   3.502   5.143   4.720 -0.9142 -0.2412  0.8997
  143OSM   C15S15625   3.628   5.296   4.820  0.3463  0.2902 -0.1426
  143OSM   H15S15626   3.571   5.368   4.758 -1.8124 -1.0816  0.1535
  143OSM   H15T15627   3.737   5.315   4.819  0.4308 -0.1783 -0.2783
  143OSM   C16S15628   3.575   5.302   4.965 -0.3880 -0.1800  0.1013
  143OSM   H16S15629   3.593   5.400   5.015  0.0911 -0.9121  1.4221
  143OSM   H16T15630   3.636   5.227   5.020  0.3730 -0.0930 -0.6155
  143OSM   C17S15631   3.429   5.271   4.996  0.4516  0.2041 -0.6041
  143OSM   H17S15632   3.405   5.170   4.956  1.9901 -0.5207  0.1923
  143OSM   H17T15633   3.373   5.343   4.934  0.0232 -0.7566 -1.3640
  143OSM   C18S15634   3.398   5.290   5.147 -0.7301 -0.2344  1.1386
  143OSM   H18S15635   3.414   5.393   5.184  0.8926 -0.0158 -0.0487
  143OSM   H18T15636   3.466   5.214   5.191 -0.4908 -0.2046  0.8306
  143OSM   H18U15637   3.297   5.250   5.168 -2.5861  1.7797 -2.8490
  143OSM    C1F15638   3.532   4.972   3.427 -0.0802  0.0776 -0.6245
  143OSM     OF15639   3.559   4.860   3.430  0.4769  0.4709 -0.2334
  143OSM    C2F15640   3.395   5.027   3.402  0.4969 -0.2641 -0.1700
  143OSM    H2F15641   3.310   4.962   3.431  0.8274 -0.6793 -0.1152
  143OSM    H2G15642   3.388   5.049   3.294  0.3790  1.2029  0.1147
  143OSM    C3F15643   3.364   5.155   3.476  0.0530  0.6139  0.8778
  143OSM    H3F15644   3.266   5.193   3.442 -0.4809 -1.0870  0.4110
  143OSM    H3G15645   3.433   5.238   3.450  1.0712  0.1057  1.8709
  143OSM    C4F15646   3.351   5.143   3.628 -0.1088  0.4734 -0.4536
  143OSM    H4F15647   3.450   5.117   3.672  0.4074  0.8181 -1.3968
  143OSM    H4G15648   3.287   5.060   3.665  1.3356 -0.7421 -0.5527
  143OSM    C5F15649   3.317   5.284   3.690  0.4484  0.4851 -0.0983
  143OSM    H5F15650   3.213   5.319   3.670  0.7883  0.2060 -2.5626
  143OSM    H5G15651   3.377   5.357   3.633 -0.4156  1.6489  0.4235
  143OSM    C6F15652   3.363   5.295   3.834  0.6464 -0.0721 -0.5743
  143OSM    H6F15653   3.362   5.398   3.876  1.1045 -0.3280  0.0789
  143OSM    H6G15654   3.464   5.253   3.854  0.4591 -0.8519 -1.2287
  143OSM    C7F15655   3.266   5.217   3.922  0.7429 -0.6703  0.2157
  143OSM    H7F15656   3.265   5.110   3.893 -3.5434 -0.7017 -0.1813
  143OSM    H7G15657   3.163   5.253   3.897  0.3561 -2.1183 -0.3858
  143OSM    C8F15658   3.295   5.228   4.076 -0.1195 -0.5463  0.3627
  143OSM    H8F15659   3.404   5.202   4.080 -0.2288 -1.3797 -1.1213
  143OSM    H8G15660   3.242   5.143   4.124  0.2718 -1.4681 -0.7886
  143OSM    C9F15661   3.253   5.363   4.134  0.9847 -0.3852  0.5632
  143OSM    H9F15662   3.287   5.450   4.077  1.7598 -0.9439  0.1483
  143OSM   C10F15663   3.166   5.381   4.236 -0.7511 -0.2789 -0.6139
  143OSM   H10F15664   3.149   5.484   4.271  0.6868  0.0298 -0.7589
  143OSM   C11F15665   3.105   5.273   4.319  0.8893  0.2121  0.0406
  143OSM   H11F15666   3.083   5.187   4.252  0.6308  1.0033 -0.9244
  143OSM   H11G15667   3.005   5.303   4.356 -0.3810 -0.3303 -2.6898
  143OSM   C12F15668   3.203   5.231   4.434  0.9377 -0.4160 -0.3984
  143OSM   H12F15669   3.199   5.316   4.506 -2.1257 -0.5441 -0.2907
  143OSM   H12G15670   3.307   5.213   4.400  0.9919  4.1265 -3.3886
  143OSM   C13F15671   3.148   5.107   4.506 -0.2198  0.0851  0.2319
  143OSM   H13F15672   3.163   5.025   4.432  0.1132  0.3376  0.0189
  143OSM   H13G15673   3.037   5.104   4.512 -0.1740 -2.7577  1.2619
  143OSM   C14F15674   3.215   5.094   4.639  0.3497 -0.1607 -0.4870
  143OSM   H14F15675   3.171   5.174   4.703 -0.8972 -0.8317 -0.4647
  143OSM   H14G15676   3.321   5.117   4.619 -0.2292  1.8522 -1.5095
  143OSM   C15F15677   3.184   4.952   4.697  0.5423 -0.5774  0.9585
  143OSM   H15F15678   3.262   4.925   4.771  0.9215 -1.0542  0.3946
  143OSM   H15G15679   3.177   4.881   4.611  1.0019  0.9154 -0.3528
  143OSM   C16F15680   3.051   4.935   4.781 -0.0680  1.0665  0.2271
  143OSM   H16F15681   2.971   4.975   4.715 -1.1236 -0.7685  0.3310
  143OSM   H16G15682   3.051   4.989   4.878 -0.3059  1.4356  0.0238
  143OSM   C17F15683   3.031   4.781   4.815 -0.1199  0.1311 -0.3832
  143OSM   H17F15684   3.117   4.749   4.877  2.0119  1.1978 -2.6297
  143OSM   H17G15685   3.034   4.725   4.719  0.0194 -0.6446  0.0636
  143OSM   C18F15686   2.894   4.750   4.879  0.3185  0.1092  0.2396
  143OSM   H18F15687   2.865   4.643   4.890 -0.1956 -0.1412 -2.6958
  143OSM   H18G15688   2.814   4.799   4.818 -2.0136 -2.6889  0.8414
  143OSM   H18H15689   2.891   4.810   4.972  1.0304  0.8184 -0.1847
  144OSM      N15690   6.129   0.394   2.670  0.0363  0.2993  0.1836
  144OSM    C1515691   6.047   0.476   2.579  1.0985 -0.2286 -0.3868
  144OSM   H15A15692   5.996   0.556   2.631 -0.9693 -1.0124 -1.1165
  144OSM   H15B15693   5.959   0.433   2.535 -0.0237  0.4347  1.1103
  144OSM   H15C15694   6.093   0.518   2.491 -1.0340  0.0582 -1.4282
  144OSM    C1415695   6.034   0.332   2.769  0.5862  0.7932 -0.5501
  144OSM   H14A15696   5.944   0.291   2.726 -0.9962  2.1969  1.3099
  144OSM   H14B15697   6.002   0.410   2.836  1.4114  0.4163  0.2992
  144OSM   H14C15698   6.087   0.254   2.822 -1.4009 -0.7464 -0.7037
  144OSM    C1315699   6.196   0.292   2.585 -0.6361 -0.0808 -0.3240
  144OSM   H13A15700   6.258   0.344   2.513  0.4840 -1.8199 -0.6602
  144OSM   H13B15701   6.126   0.231   2.529  0.9889 -0.4306 -2.0718
  144OSM   H13C15702   6.262   0.233   2.646  0.1648 -0.5763 -1.6363
  144OSM    C1215703   6.235   0.472   2.742  0.1933 -0.1210  0.2727
  144OSM   H12A15704   6.296   0.514   2.663 -1.2304  2.1054  0.2655
  144OSM   H12B15705   6.300   0.401   2.792  1.0149  0.1840 -0.3397
  144OSM    C1115706   6.189   0.583   2.845 -0.0476  0.2233 -0.1623
  144OSM   H11A15707   6.278   0.640   2.878 -0.4285  0.9581 -0.3619
  144OSM   H11B15708   6.150   0.549   2.943  0.3694  1.1910  0.3510
  144OSM      P15709   6.143   0.815   2.722  0.3185 -0.7407 -0.2938
  144OSM    O1315710   6.272   0.795   2.653 -0.2627 -0.2183  0.7426
  144OSM    O1415711   6.043   0.882   2.637 -0.0366  0.6132  0.3323
  144OSM    O1115712   6.151   0.896   2.853  0.3849 -0.7396  0.5258
  144OSM    O1215713   6.090   0.676   2.785  0.2108  0.4948 -0.1712
  144OSM    C1S15714   6.052   0.936   2.943  0.2549  0.6681  0.1219
  144OSM    H1S15715   5.961   0.872   2.940 -0.5187  1.7243  0.4644
  144OSM    H1T15716   6.017   1.038   2.912 -0.3029  0.3597 -0.2881
  144OSM     NF15717   5.991   0.979   3.179 -0.5783 -0.1431 -0.2692
  144OSM    HNF15718   5.968   1.075   3.197  1.9428  0.4928 -0.1397
  144OSM    C2S15719   6.101   0.950   3.093 -0.2298  0.2388  0.0316
  144OSM    H2S15720   6.153   0.858   3.127 -0.3419  1.3076  3.5254
  144OSM    C3S15721   6.211   1.063   3.099 -0.0391  0.0462  0.6477
  144OSM    H3S15722   6.166   1.160   3.069 -0.8163 -0.9615 -1.6923
  144OSM     O315723   6.318   1.040   3.007 -0.7975  0.2453 -0.5682
  144OSM    HO315724   6.284   0.968   2.954  0.1983  0.0119 -0.9189
  144OSM    C4S15725   6.274   1.082   3.235 -0.2716 -0.1405 -0.4357
  144OSM    H4S15726   6.217   1.154   3.296  2.1801  1.1514  0.4555
  144OSM    C5S15727   6.390   1.029   3.289  0.0911 -0.5031 -0.4236
  144OSM    H5S15728   6.456   0.964   3.228  2.5468  1.7798 -0.3828
  144OSM    C6S15729   6.426   1.041   3.439  0.1727 -0.4017  0.2414
  144OSM    H6S15730   6.535   1.065   3.438  0.7664 -2.7884 -0.4625
  144OSM    H6T15731   6.425   0.946   3.497  1.6718  1.3154  3.3356
  144OSM    C7S15732   6.356   1.149   3.517 -0.5629 -0.2432 -0.4432
  144OSM    H7S15733   6.245   1.139   3.517 -0.8983  2.2931  1.6812
  144OSM    H7T15734   6.367   1.255   3.486  0.4761  0.8999  3.3137
  144OSM    C8S15735   6.405   1.154   3.656 -0.7577 -0.8466 -0.2740
  144OSM    H8S15736   6.508   1.195   3.664 -0.2801 -2.2423  1.1890
  144OSM    H8T15737   6.400   1.061   3.716 -2.4895  0.7375  2.2389
  144OSM    C9S15738   6.327   1.258   3.745 -0.4007 -0.3279 -0.9305
  144OSM    H9S15739   6.221   1.226   3.756  0.3679 -2.4798  1.2582
  144OSM    H9T15740   6.329   1.356   3.694  1.4469  0.1133 -0.1122
  144OSM   C10S15741   6.379   1.277   3.890  0.5926  0.0471  0.2895
  144OSM   H10S15742   6.477   1.327   3.885  0.1034  1.0424  0.4445
  144OSM   H10T15743   6.386   1.178   3.940  2.0693 -0.7941 -1.4586
  144OSM   C11S15744   6.280   1.357   3.977  0.6590  0.0125 -0.3011
  144OSM   H11S15745   6.178   1.312   3.979 -0.4143  2.2469 -0.8923
  144OSM   H11T15746   6.264   1.457   3.931  2.2337  0.3770 -0.0919
  144OSM   C12S15747   6.341   1.386   4.114 -0.2003 -0.3911 -0.0812
  144OSM   H12S15748   6.432   1.448   4.098 -0.3865  0.7257  2.7875
  144OSM   H12T15749   6.368   1.298   4.175 -0.7830 -0.1672  0.5053
  144OSM   C13S15750   6.249   1.479   4.192 -0.5944  0.9154 -0.6823
  144OSM   H13S15751   6.143   1.445   4.186  0.3323 -2.1631 -1.0746
  144OSM   H13T15752   6.247   1.581   4.148 -0.2519  0.7331 -1.1188
  144OSM   C14S15753   6.289   1.498   4.342  0.3673  0.1755  0.7431
  144OSM   H14S15754   6.395   1.530   4.342  0.2690  0.5170  0.4976
  144OSM   H14T15755   6.286   1.405   4.402  2.1897  0.2284  0.9672
  144OSM   C15S15756   6.221   1.618   4.408 -0.1486 -0.5203  0.3344
  144OSM   H15S15757   6.112   1.608   4.390 -0.8604  2.6021  2.0820
  144OSM   H15T15758   6.269   1.710   4.367  0.8526 -0.9199  0.5823
  144OSM   C16S15759   6.231   1.621   4.567 -0.1610  0.0933 -0.2010
  144OSM   H16S15760   6.170   1.696   4.621 -0.5971 -0.8421  0.6542
  144OSM   H16T15761   6.337   1.634   4.598  0.0018 -0.6618 -0.4216
  144OSM   C17S15762   6.171   1.490   4.635  0.1747 -0.0901 -0.4920
  144OSM   H17S15763   6.242   1.405   4.628 -0.2932 -0.3750 -2.4697
  144OSM   H17T15764   6.077   1.468   4.580 -0.9198 -0.7473  1.5234
  144OSM   C18S15765   6.124   1.513   4.785 -0.4070  0.3095  0.3743
  144OSM   H18S15766   6.067   1.608   4.792 -2.2665 -0.2156 -4.1543
  144OSM   H18T15767   6.210   1.525   4.854 -0.8464 -0.3694  1.0596
  144OSM   H18U15768   6.057   1.429   4.813 -0.8728 -0.1106 -1.8029
  144OSM    C1F15769   5.896   0.897   3.220 -0.5560 -0.7412 -0.4128
  144OSM     OF15770   5.899   0.776   3.198 -0.0667 -0.0396 -0.0540
  144OSM    C2F15771   5.781   0.952   3.303  0.3724 -0.0479  0.3855
  144OSM    H2F15772   5.687   0.927   3.248 -0.0995  1.5187  0.4425
  144OSM    H2G15773   5.796   1.057   3.335  0.4276 -0.4634  1.7951
  144OSM    C3F15774   5.753   0.874   3.433  0.4238  0.7394 -0.4918
  144OSM    H3F15775   5.709   0.773   3.415 -1.3930  0.9738  2.1183
  144OSM    H3G15776   5.677   0.936   3.484 -0.4068  0.4741 -1.3678
  144OSM    C4F15777   5.875   0.848   3.530  0.4771 -0.1260  0.1269
  144OSM    H4F15778   5.950   0.781   3.484  1.5369  1.2264 -0.1781
  144OSM    H4G15779   5.836   0.794   3.620 -0.3847  2.6532  1.5480
  144OSM    C5F15780   5.935   0.982   3.589 -0.1967 -0.4767  0.6103
  144OSM    H5F15781   5.847   1.047   3.611  0.6243  0.2505  1.8126
  144OSM    H5G15782   5.982   1.034   3.502 -1.7095  0.4574  0.3085
  144OSM    C6F15783   6.034   0.964   3.702  0.3095 -0.5437  1.0721
  144OSM    H6F15784   6.099   1.054   3.710  0.7735 -0.4516 -2.4028
  144OSM    H6G15785   6.085   0.873   3.665 -1.7758 -1.1402 -0.5366
  144OSM    C7F15786   5.956   0.943   3.829 -0.1887  0.0159  0.4750
  144OSM    H7F15787   5.884   0.859   3.814  2.4230 -2.1570 -0.6834
  144OSM    H7G15788   5.903   1.038   3.854  3.1986  2.3625 -0.6927
  144OSM    C8F15789   6.049   0.896   3.940 -0.1276 -0.2162  0.1414
  144OSM    H8F15790   6.128   0.973   3.947  0.4730 -0.5305 -2.2087
  144OSM    H8G15791   6.113   0.821   3.888 -0.6343 -2.4871  2.5458
  144OSM    C9F15792   6.010   0.842   4.073  0.8877  0.5705  0.1794
  144OSM    H9F15793   5.961   0.744   4.080  0.4939  0.7115 -0.5549
  144OSM   C10F15794   6.025   0.910   4.189 -0.5433 -0.3691 -0.6993
  144OSM   H10F15795   5.988   0.866   4.283 -1.4396  1.6201 -0.0459
  144OSM   C11F15796   6.084   1.048   4.216 -0.1047  0.2455  0.2937
  144OSM   H11F15797   6.001   1.117   4.245  0.3477  1.1027 -0.4424
  144OSM   H11G15798   6.123   1.097   4.125 -0.8669  2.7109  1.2244
  144OSM   C12F15799   6.200   1.045   4.323 -0.7388 -0.2578  0.0225
  144OSM   H12F15800   6.213   1.155   4.333 -1.2052 -0.1068 -0.9552
  144OSM   H12G15801   6.293   1.013   4.271 -1.6530  0.9369 -2.4782
  144OSM   C13F15802   6.188   0.988   4.464 -0.4956 -0.2693 -0.5381
  144OSM   H13F15803   6.197   0.878   4.451  0.6162 -0.5903  2.2655
  144OSM   H13G15804   6.087   1.017   4.499 -1.0677 -0.1450 -2.2164
  144OSM   C14F15805   6.312   1.030   4.556 -0.3269  0.0821  0.5152
  144OSM   H14F15806   6.313   1.139   4.577  0.3115 -0.1666  1.8625
  144OSM   H14G15807   6.404   1.006   4.498  0.3719 -0.8926  1.9853
  144OSM   C15F15808   6.319   0.956   4.692 -0.9682  0.0532  0.3990
  144OSM   H15F15809   6.335   0.847   4.680 -3.3627 -0.1165 -2.7912
  144OSM   H15G15810   6.223   0.972   4.746 -1.4275  1.7244 -0.8180
  144OSM   C16F15811   6.427   1.018   4.775 -0.5853  0.4482 -0.5090
  144OSM   H16F15812   6.520   1.043   4.720 -0.2274 -1.5127 -0.8561
  144OSM   H16G15813   6.447   0.944   4.855  0.6081  0.9623 -0.3077
  144OSM   C17F15814   6.392   1.147   4.845  0.5395 -0.9554 -0.1234
  144OSM   H17F15815   6.363   1.226   4.773 -1.2880  0.1414  1.6894
  144OSM   H17G15816   6.476   1.196   4.899 -0.6349  1.7698 -0.5980
  144OSM   C18F15817   6.265   1.148   4.939 -0.1264 -0.7263  0.0918
  144OSM   H18F15818   6.173   1.122   4.882 -1.5196  0.0691  1.8942
  144OSM   H18G15819   6.247   1.248   4.984 -1.8348 -2.1005  2.7009
  144OSM   H18H15820   6.291   1.083   5.026 -1.5336  0.2806  1.3064
  145SAPE     N15821   3.569   0.970   7.758 -0.0650 -0.0294  0.2034
  145SAPE   HN115822   3.515   0.923   7.833  2.5548 -1.6261  1.1990
  145SAPE   HN215823   3.598   0.894   7.693 -0.1295 -1.1551  1.4604
  145SAPE   HN315824   3.650   1.008   7.811  0.9651 -2.0784  0.1883
  145SAPE   C1215825   3.495   1.077   7.672  0.1845 -0.0747 -0.3186
  145SAPE  H12A15826   3.425   1.119   7.748 -1.3061 -3.0514  0.1089
  145SAPE  H12B15827   3.430   1.025   7.599 -0.4199 -1.5124  1.1529
  145SAPE   C1115828   3.575   1.178   7.590  0.1685  0.5154  0.6908
  145SAPE  H11A15829   3.610   1.261   7.655 -1.6303  1.4803  0.5002
  145SAPE  H11B15830   3.513   1.225   7.511  2.1446  2.2662  0.1054
  145SAPE     P15831   3.753   1.156   7.402 -0.0497 -0.2518  0.5955
  145SAPE   O1315832   3.840   1.276   7.421  0.0356  0.0225 -0.4284
  145SAPE   O1415833   3.814   1.027   7.355  0.0106 -0.3147 -0.3825
  145SAPE   O1215834   3.687   1.115   7.533  0.4547 -0.1497  0.6333
  145SAPE   O1115835   3.630   1.200   7.312  0.4058 -0.2212 -0.7263
  145SAPE    C115836   3.631   1.325   7.251 -0.0730  0.4214  0.6180
  145SAPE    HA15837   3.594   1.394   7.330  0.1185 -0.6577  1.6863
  145SAPE    HB15838   3.729   1.371   7.225 -1.0744  1.0564 -2.5187
  145SAPE    C215839   3.540   1.325   7.125  0.5956 -0.0056 -0.5403
  145SAPE    HS15840   3.442   1.281   7.153 -0.4257  1.0618 -2.2592
  145SAPE   O2115841   3.605   1.232   7.034 -0.1628 -0.8177  0.0725
  145SAPE   C2115842   3.527   1.157   6.959 -0.8838  0.0416 -0.9719
  145SAPE   O2215843   3.408   1.155   6.972  0.0332  0.1292 -0.2468
  145SAPE   C2215844   3.608   1.095   6.850 -0.3105 -0.1457  0.7166
  145SAPE   H2R15845   3.668   1.176   6.801 -0.7062 -0.5680 -0.5032
  145SAPE   H2S15846   3.676   1.026   6.905 -1.0627 -0.8321  0.7914
  145SAPE    C315847   3.514   1.462   7.057 -0.6076  0.0902 -0.3283
  145SAPE    HX15848   3.606   1.525   7.056 -0.0939 -0.6562 -0.9264
  145SAPE    HY15849   3.441   1.526   7.112  0.9588  1.1993  0.5515
  145SAPE   O3115850   3.455   1.454   6.922  0.1922  0.1753  0.0925
  145SAPE   C3115851   3.427   1.565   6.857 -0.0748 -0.1075 -0.1635
  145SAPE   O3215852   3.429   1.679   6.906 -0.4576 -0.3358  0.2336
  145SAPE   C3215853   3.373   1.530   6.718  0.1700  0.3553 -0.7751
  145SAPE   H2X15854   3.266   1.560   6.712  0.3513  0.9227 -1.3339
  145SAPE   H2Y15855   3.373   1.420   6.706 -1.9964  0.4856 -2.6574
  145SAPE   C2315856   3.513   1.020   6.750 -0.3711 -0.1583 -0.6769
  145SAPE   H3R15857   3.420   1.080   6.743  0.2983  1.1576  1.0566
  145SAPE   H3S15858   3.470   0.927   6.794  0.4228 -0.2509 -0.0700
  145SAPE   C2415859   3.555   0.986   6.605 -0.2943  0.0701 -0.6225
  145SAPE   H4R15860   3.463   0.951   6.553  0.3819  1.7892 -3.1648
  145SAPE   H4S15861   3.625   0.900   6.604  0.3825  0.5265  1.6676
  145SAPE   C2515862   3.607   1.112   6.528  0.2873  0.0240 -0.7057
  145SAPE   H5R15863   3.641   1.194   6.593  2.1720 -3.3487  3.0423
  145SAPE   C2615864   3.639   1.112   6.398 -0.6589  0.5348  0.2026
  145SAPE   H6R15865   3.678   1.202   6.349 -2.3532  1.5397  0.6176
  145SAPE   C2715866   3.608   0.997   6.308 -0.0406 -0.2943  0.2423
  145SAPE   H7R15867   3.531   1.020   6.232  0.2816 -0.3883 -0.1176
  145SAPE   H7S15868   3.573   0.909   6.366  0.8651 -0.3641  0.7035
  145SAPE   C2815869   3.737   0.951   6.233 -0.4630 -1.3606 -0.0500
  145SAPE   H8R15870   3.788   0.858   6.260  0.4877 -0.2569  2.2665
  145SAPE   C2915871   3.790   1.025   6.135  0.0368  0.4648  0.1351
  145SAPE   H9R15872   3.886   0.992   6.093 -0.2198  0.8727 -0.8087
  145SAPE  C21015873   3.744   1.163   6.077 -0.2018 -0.2134  0.1401
  145SAPE  H10R15874   3.806   1.237   6.133 -0.5404 -1.5309  2.3851
  145SAPE  H10S15875   3.640   1.189   6.104 -0.3080  2.0686 -2.1627
  145SAPE  C21115876   3.777   1.187   5.929  0.0861  0.0823  0.1570
  145SAPE  H11R15877   3.882   1.183   5.899 -0.1779 -2.9609 -0.6458
  145SAPE  C21215878   3.691   1.199   5.832  0.3535  0.1521 -0.3560
  145SAPE  H12R15879   3.716   1.191   5.726  0.9554  0.6402 -0.2569
  145SAPE  C21315880   3.541   1.211   5.855 -0.2890 -0.4158 -0.3257
  145SAPE  H13R15881   3.515   1.288   5.931 -1.3445 -1.9419  0.9182
  145SAPE  H13S15882   3.508   1.111   5.891  0.8510 -1.7561 -2.7683
  145SAPE  C21415883   3.455   1.251   5.734 -0.5163  0.6127 -0.2638
  145SAPE  H14R15884   3.352   1.213   5.734  0.5142 -2.4833  1.6903
  145SAPE  C21515885   3.478   1.351   5.640  1.0015  0.0411 -0.0077
  145SAPE  H15R15886   3.395   1.375   5.572  1.1913 -1.9120 -1.0175
  145SAPE  C21615887   3.605   1.430   5.624 -0.1797 -0.1492  1.0193
  145SAPE  H16R15888   3.685   1.354   5.611 -2.2615 -2.0425 -1.9091
  145SAPE  H16S15889   3.633   1.472   5.723  0.6348  1.0432  0.3030
  145SAPE  C21715890   3.609   1.542   5.516  1.0616  0.1197 -0.4581
  145SAPE  H17R15891   3.578   1.501   5.417  0.4953 -0.5980 -0.0002
  145SAPE  H17S15892   3.709   1.587   5.498  1.5269 -0.4574  0.6277
  145SAPE  C21815893   3.507   1.657   5.548 -0.1003  0.0510 -0.2426
  145SAPE  H18R15894   3.540   1.713   5.638 -1.3462  0.8336 -0.2579
  145SAPE  H18S15895   3.407   1.618   5.576  0.2968 -1.3046 -0.6010
  145SAPE  C21915896   3.488   1.759   5.430 -0.2799 -0.3876 -0.5846
  145SAPE  H19R15897   3.457   1.705   5.339  0.6700  2.7507 -2.9365
  145SAPE  H19S15898   3.592   1.789   5.402 -0.4076 -0.7110 -1.4253
  145SAPE  C22015899   3.391   1.880   5.447 -0.2485 -0.0849 -0.0942
  145SAPE  H20R15900   3.288   1.839   5.453 -0.6124  0.7025 -0.7416
  145SAPE  H20S15901   3.395   1.953   5.363  1.4537  0.1321  0.1409
  145SAPE  H20T15902   3.420   1.921   5.545 -0.1572  2.0265 -0.9616
  145SAPE   C3315903   3.447   1.595   6.602 -0.0352  0.3468  0.3888
  145SAPE   H3X15904   3.546   1.546   6.593  0.7272  1.7318  0.9229
  145SAPE   H3Y15905   3.469   1.703   6.611  3.0194 -0.0073 -1.4111
  145SAPE   C3415906   3.369   1.586   6.472 -0.3144  0.1769  0.6610
  145SAPE   H4X15907   3.286   1.660   6.463 -0.1573  0.1048 -2.3520
  145SAPE   H4Y15908   3.318   1.488   6.457  1.5279 -0.4618 -2.3262
  145SAPE   C3515909   3.451   1.600   6.343 -1.1962 -0.4724  0.0029
  145SAPE   H5X15910   3.497   1.701   6.342 -0.0628 -0.9794 -0.2801
  145SAPE   H5Y15911   3.374   1.609   6.263  2.4389 -0.8147 -3.8952
  145SAPE   C3615912   3.542   1.490   6.310  0.0360  0.3781  0.1382
  145SAPE   H6X15913   3.477   1.400   6.306  0.6225 -0.0473 -0.1102
  145SAPE   H6Y15914   3.621   1.463   6.384  0.0530 -0.2636 -0.1048
  145SAPE   C3715915   3.603   1.505   6.168  0.1849 -0.2993  0.0228
  145SAPE   H7X15916   3.539   1.560   6.096 -0.3565  0.1205  0.8193
  145SAPE   H7Y15917   3.605   1.404   6.120 -0.7601 -0.3078 -0.0073
  145SAPE   C3815918   3.742   1.565   6.161 -0.2733  0.5198 -0.4652
  145SAPE   H8X15919   3.808   1.504   6.225 -1.7713  0.7793  1.4222
  145SAPE   H8Y15920   3.749   1.665   6.208  0.9132  0.9194 -1.4479
  145SAPE   C3915921   3.790   1.578   6.016  0.4641 -0.2151  0.0880
  145SAPE   H9X15922   3.754   1.678   5.984  0.1736 -0.5679 -0.7078
  145SAPE   H9Y15923   3.739   1.504   5.951  0.2853  1.0452 -1.2619
  145SAPE  C31015924   3.942   1.552   6.003 -0.3203 -0.2335  0.2255
  145SAPE  H10X15925   3.961   1.443   6.006 -0.4039 -0.2342  3.2033
  145SAPE  H10Y15926   3.978   1.599   6.097 -2.7685 -2.6580  2.5555
  145SAPE  C31115927   4.012   1.620   5.888  0.4729 -0.0293 -0.3489
  145SAPE  H11X15928   4.119   1.597   5.911  0.0135  0.0962  2.2019
  145SAPE  H11Y15929   3.991   1.728   5.893  0.7338 -0.0334  1.2862
  145SAPE  C31215930   3.987   1.561   5.753 -0.0713 -0.6102  0.0174
  145SAPE  H12X15931   3.880   1.561   5.724  0.2876  2.0396 -1.6919
  145SAPE  H12Y15932   4.023   1.457   5.757  1.2414 -0.1705 -0.0218
  145SAPE  C31315933   4.074   1.618   5.641  0.6501 -0.1529  0.6176
  145SAPE  H13X15934   4.069   1.548   5.555 -0.3010 -4.5776  3.9132
  145SAPE  H13Y15935   4.182   1.615   5.669  0.6022  2.3260  1.3114
  145SAPE  C31415936   4.029   1.762   5.610  0.3906 -0.1507 -0.6413
  145SAPE  H14X15937   4.075   1.833   5.681  0.4145  0.6372 -1.4296
  145SAPE  H14Y15938   3.919   1.773   5.621  0.3412 -1.9008  1.4164
  145SAPE  C31515939   4.067   1.806   5.464  0.6784 -0.2800  0.1675
  145SAPE  H15X15940   4.032   1.912   5.459 -0.6696 -0.7391 -0.8468
  145SAPE  H15Y15941   4.007   1.751   5.388  0.4789  0.3665 -0.1517
  145SAPE  C31615942   4.208   1.805   5.411 -0.0742 -0.5261  0.0568
  145SAPE  H16X15943   4.196   1.814   5.300 -2.7056 -1.0026  0.2320
  145SAPE  H16Y15944   4.259   1.713   5.446 -1.0692 -1.6157 -1.2259
  145SAPE  C31715945   4.292   1.920   5.473  0.8163 -0.3495  0.3649
  145SAPE  H17X15946   4.305   1.896   5.580  0.4655  0.1607  0.5298
  145SAPE  H17Y15947   4.222   2.005   5.456  0.1470 -1.1841 -1.2676
  145SAPE  C31815948   4.429   1.950   5.404 -0.1690  0.4000  1.0747
  145SAPE  H18X15949   4.490   2.028   5.454 -0.4784  0.7491  0.9113
  145SAPE  H18Y15950   4.413   1.970   5.296  2.2782 -1.4126  0.2746
  145SAPE  H18Z15951   4.492   1.858   5.397 -1.2510 -0.2817 -0.0828
  146SAPE     N15952   6.525   0.150   8.306 -0.3270 -0.5064 -0.6797
  146SAPE   HN115953   6.480   0.062   8.275  1.0662 -1.3282 -0.4419
  146SAPE   HN215954   6.623   0.133   8.337 -0.6633 -0.5234  0.4464
  146SAPE   HN315955   6.463   0.181   8.384 -2.2479 -1.4279 -1.7700
  146SAPE   C1215956   6.521   0.251   8.199  0.0162  0.0486 -0.0566
  146SAPE  H12A15957   6.566   0.348   8.229 -2.7561  1.3991  0.0336
  146SAPE  H12B15958   6.417   0.266   8.163  0.3691  0.2862 -0.9906
  146SAPE   C1115959   6.603   0.192   8.079 -0.7019  0.1224 -0.9145
  146SAPE  H11A15960   6.703   0.153   8.108 -0.8354  0.9923  0.8293
  146SAPE  H11B15961   6.623   0.276   8.008  2.2533  1.0771  0.8850
  146SAPE     P15962   6.460   0.074   7.892  0.2122 -0.4615  0.4257
  146SAPE   O1315963   6.391  -0.058   7.882 -0.7206 -0.0903 -0.4211
  146SAPE   O1415964   6.376   0.195   7.872  0.5226 -0.4645 -0.6513
  146SAPE   O1215965   6.532   0.084   8.027 -0.5963 -0.4647  0.4047
  146SAPE   O1115966   6.582   0.075   7.793 -0.3315  0.1293 -0.3470
  146SAPE    C115967   6.660  -0.046   7.773  0.2775  0.5917 -0.2791
  146SAPE    HA15968   6.637  -0.120   7.853  0.5911  0.2299 -0.5206
  146SAPE    HB15969   6.632  -0.100   7.679 -4.1506 -0.3597  1.3182
  146SAPE    C215970   6.806  -0.023   7.797  0.6767  0.2253 -0.1228
  146SAPE    HS15971   6.806  -0.017   7.908  0.8451 -2.2400  0.0563
  146SAPE   O2115972   6.840   0.094   7.735  0.1827 -0.7087 -0.0854
  146SAPE   C2115973   6.960   0.143   7.744  1.1200  0.1086 -0.0701
  146SAPE   O2215974   7.040   0.106   7.828 -0.3594 -0.2543 -0.1238
  146SAPE   C2215975   6.983   0.237   7.628 -0.7152  0.1727  0.2589
  146SAPE   H2R15976   6.999   0.166   7.543  2.1429 -0.6939  1.3964
  146SAPE   H2S15977   6.896   0.304   7.613 -0.9077 -0.1460 -0.0738
  146SAPE    C315978   6.897  -0.141   7.757  0.3907  1.1047 -0.8209
  146SAPE    HX15979   6.853  -0.242   7.772  1.6873  0.7283  0.7973
  146SAPE    HY15980   6.976  -0.133   7.836 -0.1587  1.4749 -0.3052
  146SAPE   O3115981   6.968  -0.122   7.631 -0.3669  1.1440 -0.6092
  146SAPE   C3115982   6.906  -0.175   7.528 -0.5940  0.2708  0.4532
  146SAPE   O3215983   6.798  -0.225   7.528  0.3389  0.3179  0.2588
  146SAPE   C3215984   6.999  -0.175   7.408 -0.0434 -0.6747  1.0254
  146SAPE   H2X15985   7.101  -0.206   7.442  1.6938  1.2397 -1.9582
  146SAPE   H2Y15986   7.002  -0.071   7.368 -0.0797 -2.1053 -3.1919
  146SAPE   C2315987   7.107   0.332   7.643  0.2844  0.1206  0.2912
  146SAPE   H3R15988   7.097   0.407   7.724  2.0690  1.5982 -0.7792
  146SAPE   H3S15989   7.112   0.383   7.545  0.7826 -0.1338  0.1831
  146SAPE   C2415990   7.243   0.260   7.662  0.4931 -0.1739 -0.9340
  146SAPE   H4R15991   7.243   0.213   7.763  0.5804 -1.1001 -1.3632
  146SAPE   H4S15992   7.317   0.343   7.658  2.1428 -1.6450 -2.5339
  146SAPE   C2515993   7.273   0.162   7.556 -0.4953 -0.2014 -0.3916
  146SAPE   H5R15994   7.248   0.060   7.588  0.9245 -0.3386  0.3562
  146SAPE   C2615995   7.340   0.191   7.442  0.4098  0.2934  0.3425
  146SAPE   H6R15996   7.363   0.107   7.375  0.6723  0.5049  0.1661
  146SAPE   C2715997   7.396   0.321   7.391  0.2966 -0.6481  0.6746
  146SAPE   H7R15998   7.354   0.401   7.455 -0.4897 -0.7457  0.2935
  146SAPE   H7S15999   7.350   0.338   7.292  0.9458 -0.5639  0.3851
  146SAPE   C2816000   7.545   0.332   7.375  0.1872  0.3163  0.3757
  146SAPE   H8R16001   7.600   0.301   7.465  1.7081  2.2245  0.1720
  146SAPE   C2916002   7.611   0.348   7.259  0.6039 -0.0479  0.0299
  146SAPE   H9R16003   7.719   0.366   7.251  0.4846  0.3073 -1.1197
  146SAPE  C21016004   7.546   0.392   7.129  0.6393  0.0488  0.9732
  146SAPE  H10R16005   7.503   0.494   7.139 -3.3688 -1.4563  0.8156
  146SAPE  H10S16006   7.466   0.326   7.090  2.2757 -0.4040 -1.8240
  146SAPE  C21116007   7.640   0.385   7.009 -0.0643 -0.1713 -0.5431
  146SAPE  H11R16008   7.710   0.300   7.011  0.0378 -0.0922  1.2735
  146SAPE  C21216009   7.633   0.455   6.897  0.1451  0.1933  0.6415
  146SAPE  H12R16010   7.709   0.437   6.820 -0.3625  0.9755 -0.0556
  146SAPE  C21316011   7.538   0.574   6.874 -0.0560  0.4195  0.1029
  146SAPE  H13R16012   7.578   0.652   6.806 -1.8191  3.1576  2.0089
  146SAPE  H13S16013   7.525   0.635   6.966  0.6400  0.1067  0.4172
  146SAPE  C21416014   7.400   0.531   6.823 -1.1296  0.2306 -0.5897
  146SAPE  H14R16015   7.314   0.548   6.889 -2.5015 -0.5573 -2.1193
  146SAPE  C21516016   7.369   0.468   6.713  0.3069  0.1339 -0.8711
  146SAPE  H15R16017   7.267   0.428   6.702 -0.3104  1.5084 -0.3845
  146SAPE  C21616018   7.460   0.422   6.604 -1.0176 -0.0335 -1.1332
  146SAPE  H16R16019   7.459   0.311   6.598  0.2009 -0.2627  1.4403
  146SAPE  H16S16020   7.564   0.455   6.623 -0.6292 -1.3319 -0.9016
  146SAPE  C21716021   7.411   0.478   6.470 -0.0890  0.5123  0.3079
  146SAPE  H17R16022   7.408   0.589   6.465  0.3239  0.4713 -1.4797
  146SAPE  H17S16023   7.318   0.423   6.441 -1.2984  1.6023  1.9608
  146SAPE  C21816024   7.510   0.445   6.351  0.0056 -0.4158  0.8779
  146SAPE  H18R16025   7.511   0.335   6.338  0.1196 -0.1397 -2.3449
  146SAPE  H18S16026   7.606   0.484   6.392 -0.5562  0.3564  1.4978
  146SAPE  C21916027   7.471   0.506   6.209 -0.5525  0.4014  0.0251
  146SAPE  H19R16028   7.479   0.617   6.205  2.5101  0.2594 -0.5784
  146SAPE  H19S16029   7.372   0.460   6.187 -0.4185 -0.1179  0.4785
  146SAPE  C22016030   7.561   0.450   6.099  0.3364 -1.0047  0.1339
  146SAPE  H20R16031   7.504   0.476   6.007 -1.8937 -1.0057  1.4422
  146SAPE  H20S16032   7.590   0.343   6.103  0.9113 -0.8491  0.3594
  146SAPE  H20T16033   7.653   0.513   6.096 -1.7191  2.2467  0.2417
  146SAPE   C3316034   6.943  -0.265   7.290 -0.2253 -0.1723 -0.0774
  146SAPE   H3X16035   6.837  -0.246   7.266 -1.4235 -2.0505  3.0388
  146SAPE   H3Y16036   6.943  -0.367   7.335  1.1170  1.0647  3.0742
  146SAPE   C3416037   7.021  -0.274   7.158 -0.3012 -0.5901  0.3196
  146SAPE   H4X16038   7.014  -0.378   7.118 -2.2529 -1.3207  2.3466
  146SAPE   H4Y16039   7.125  -0.239   7.175  0.0910 -1.0086 -1.0608
  146SAPE   C3516040   6.962  -0.176   7.054 -0.1795  0.8657  0.5208
  146SAPE   H5X16041   6.961  -0.070   7.088 -0.1437  0.6205  1.2985
  146SAPE   H5Y16042   6.857  -0.203   7.028  0.2392 -0.0116 -0.3374
  146SAPE   C3616043   7.037  -0.188   6.922 -0.5020 -0.7862 -0.3911
  146SAPE   H6X16044   7.030  -0.296   6.896  2.5624 -1.1682 -0.1186
  146SAPE   H6Y16045   7.142  -0.158   6.944 -0.9945  0.2835  0.5919
  146SAPE   C3716046   6.976  -0.104   6.811  0.3523 -0.2153  0.5047
  146SAPE   H7X16047   6.866  -0.110   6.800  0.1862 -0.2752  2.0935
  146SAPE   H7Y16048   7.026  -0.132   6.715  2.3764 -3.0858  2.2607
  146SAPE   C3816049   7.016   0.045   6.813  0.2272 -0.3928  0.0792
  146SAPE   H8X16050   7.121   0.046   6.849 -0.2851 -0.5300  1.6636
  146SAPE   H8Y16051   6.953   0.099   6.887 -0.4039 -0.6109 -0.2940
  146SAPE   C3916052   6.996   0.113   6.673 -0.0687 -0.0425 -0.2108
  146SAPE   H9X16053   6.888   0.100   6.650 -0.8364  1.8930  1.9570
  146SAPE   H9Y16054   7.062   0.070   6.594 -0.4038  1.9711 -1.6706
  146SAPE  C31016055   7.039   0.264   6.672  0.0589 -0.6414 -0.1809
  146SAPE  H10X16056   7.149   0.260   6.691 -0.0055  1.1283  0.8076
  146SAPE  H10Y16057   6.980   0.311   6.753  0.0353 -0.0914 -0.5159
  146SAPE  C31116058   7.002   0.336   6.538  0.3498 -0.3506 -1.1784
  146SAPE  H11X16059   7.033   0.442   6.548  0.4451 -0.4437 -0.4264
  146SAPE  H11Y16060   6.891   0.332   6.537  0.2230  0.9554  1.0860
  146SAPE  C31216061   7.061   0.268   6.417  0.0849 -0.1437  0.7610
  146SAPE  H12X16062   7.030   0.162   6.413  0.6329 -0.3284  1.3344
  146SAPE  H12Y16063   7.171   0.276   6.428  0.2693  2.9289 -1.8760
  146SAPE  C31316064   7.027   0.338   6.287 -0.1878 -0.0090  0.1626
  146SAPE  H13X16065   7.087   0.431   6.276  3.2111 -2.1098 -0.3352
  146SAPE  H13Y16066   6.920   0.364   6.272  0.1686  1.0059 -0.7648
  146SAPE  C31416067   7.088   0.262   6.167 -0.6272 -0.5283 -0.5004
  146SAPE  H14X16068   7.073   0.152   6.169  1.0094 -0.7709 -0.1867
  146SAPE  H14Y16069   7.198   0.269   6.178 -0.7842  0.7182  0.5139
  146SAPE  C31516070   7.056   0.319   6.027  0.1018 -0.3621  0.9348
  146SAPE  H15X16071   7.064   0.430   6.030 -1.0111 -0.2828  2.6619
  146SAPE  H15Y16072   6.952   0.287   6.004 -0.2924  0.7991  1.0605
  146SAPE  C31616073   7.146   0.269   5.914  0.1904 -0.8657 -0.0674
  146SAPE  H16X16074   7.140   0.160   5.895  0.0758 -1.1816  1.6692
  146SAPE  H16Y16075   7.255   0.287   5.929 -0.1006 -0.8155  2.2717
  146SAPE  C31716076   7.121   0.348   5.784  0.1779  0.2397  0.2589
  146SAPE  H17X16077   7.108   0.458   5.795  0.3257  0.1192  1.8951
  146SAPE  H17Y16078   7.025   0.310   5.742  0.5225  2.2498 -2.6619
  146SAPE  C31816079   7.229   0.324   5.679  0.3380 -0.2901  0.0475
  146SAPE  H18X16080   7.216   0.382   5.585  0.5928  1.2723  0.9440
  146SAPE  H18Y16081   7.248   0.214   5.672 -1.8975 -0.7266  0.2955
  146SAPE  H18Z16082   7.313   0.380   5.726  0.1663 -0.1506  0.1872
  147SAPE     N16083   5.732   5.032   7.645 -0.6349 -0.5788 -0.1799
  147SAPE   HN116084   5.777   5.035   7.551 -2.2666 -2.8907 -1.1369
  147SAPE   HN216085   5.748   4.936   7.681  0.7151  0.1185  1.1915
  147SAPE   HN316086   5.631   5.041   7.623 -0.1560  1.1268 -2.0208
  147SAPE   C1216087   5.803   5.137   7.725 -0.6743 -0.7020 -0.1221
  147SAPE  H12A16088   5.755   5.149   7.824 -0.4475  1.1166 -0.2025
  147SAPE  H12B16089   5.798   5.238   7.679  2.3767  0.3899  1.6915
  147SAPE   C1116090   5.947   5.092   7.763 -0.6788 -0.1589  0.0179
  147SAPE  H11A16091   5.956   4.983   7.783 -0.4414 -0.0901  0.3046
  147SAPE  H11B16092   5.962   5.132   7.865 -0.9053  0.9488 -0.3775
  147SAPE     P16093   6.080   5.065   7.542 -0.2195  0.5438  0.3586
  147SAPE   O1316094   6.174   4.964   7.590  0.2934  0.0073  0.4961
  147SAPE   O1416095   5.959   5.024   7.468 -0.1834 -0.2949 -0.4249
  147SAPE   O1216096   6.043   5.147   7.674 -0.5834  0.2875  0.1021
  147SAPE   O1116097   6.160   5.177   7.466 -0.1038  0.8180  0.7398
  147SAPE    C116098   6.103   5.285   7.389  0.0229 -0.1353  0.0605
  147SAPE    HA16099   5.994   5.301   7.407 -0.0492  0.4175 -0.8054
  147SAPE    HB16100   6.156   5.376   7.426  1.2752 -0.7180 -0.2666
  147SAPE    C216101   6.115   5.266   7.233 -0.2382  0.0588 -0.7501
  147SAPE    HS16102   6.029   5.200   7.208 -0.1617 -0.3560  0.0393
  147SAPE   O2116103   6.234   5.194   7.208  0.1686 -0.1817  0.3382
  147SAPE   C2116104   6.234   5.088   7.125  0.7628 -0.1500  0.0101
  147SAPE   O2216105   6.131   5.032   7.083 -0.7467 -0.4587 -0.4794
  147SAPE   C2216106   6.377   5.044   7.106  0.4583 -0.0744  0.5726
  147SAPE   H2R16107   6.412   5.134   7.050  1.2023  0.6135  2.0827
  147SAPE   H2S16108   6.428   5.050   7.205 -1.1129  3.9922  1.3292
  147SAPE    C316109   6.100   5.397   7.156 -0.1362 -0.8141 -0.7497
  147SAPE    HX16110   6.172   5.477   7.185 -0.6911 -0.9918  1.2306
  147SAPE    HY16111   6.004   5.438   7.191 -0.2765 -1.7536 -0.0126
  147SAPE   O3116112   6.082   5.375   7.013  0.1618  0.0318  0.0337
  147SAPE   C3116113   6.196   5.371   6.945 -0.3492  0.4695 -0.5764
  147SAPE   O3216114   6.310   5.390   6.987 -0.3147  0.6052 -0.4926
  147SAPE   C3216115   6.159   5.341   6.802 -0.2385 -0.7309 -0.3197
  147SAPE   H2X16116   6.055   5.380   6.792 -0.6385 -1.0623  2.0061
  147SAPE   H2Y16117   6.152   5.231   6.786 -1.5018 -0.4796 -1.8288
  147SAPE   C2316118   6.400   4.905   7.038 -0.0058  0.4641  0.0841
  147SAPE   H3R16119   6.354   4.825   7.099 -0.0658 -0.0660 -0.6490
  147SAPE   H3S16120   6.509   4.883   7.036 -0.3691 -2.0679  2.7250
  147SAPE   C2416121   6.355   4.906   6.889 -0.4690 -0.2269  0.8402
  147SAPE   H4R16122   6.251   4.945   6.899 -1.4022 -2.5098  0.6219
  147SAPE   H4S16123   6.350   4.802   6.852 -1.0067 -0.2767  1.0387
  147SAPE   C2516124   6.444   4.997   6.801  0.0053  0.3128 -0.3468
  147SAPE   H5R16125   6.525   5.044   6.859  0.7634 -1.5297  0.1460
  147SAPE   C2616126   6.410   5.036   6.675 -0.4075  0.2775  0.5366
  147SAPE   H6R16127   6.473   5.108   6.620 -1.6583 -0.4650 -2.0174
  147SAPE   C2716128   6.293   4.993   6.592  0.1928 -0.1391 -0.6078
  147SAPE   H7R16129   6.312   5.050   6.498  0.8171 -0.5839 -0.7556
  147SAPE   H7S16130   6.193   5.028   6.625  0.4365  1.5309 -1.4997
  147SAPE   C2816131   6.281   4.850   6.550 -0.8402 -0.1681 -0.0071
  147SAPE   H8R16132   6.279   4.772   6.627 -1.5346  0.3814  0.5413
  147SAPE   C2916133   6.262   4.804   6.424  0.5852 -0.0020  0.1436
  147SAPE   H9R16134   6.270   4.695   6.411  1.0519  0.1934 -1.2980
  147SAPE  C21016135   6.245   4.868   6.291  0.4317  0.6653 -0.5910
  147SAPE  H10R16136   6.345   4.886   6.246  0.8895  0.5220  0.3555
  147SAPE  H10S16137   6.206   4.971   6.301  1.1255  0.8030  1.0301
  147SAPE  C21116138   6.180   4.776   6.186 -0.9729 -0.7566 -0.1885
  147SAPE  H11R16139   6.178   4.669   6.211  0.4509 -1.1488 -1.5997
  147SAPE  C21216140   6.143   4.806   6.063  0.9616 -0.3024  0.7026
  147SAPE  H12R16141   6.096   4.732   5.996  3.2952  1.1289 -2.8210
  147SAPE  C21316142   6.154   4.944   6.002 -0.3979  1.2357  0.0785
  147SAPE  H13R16143   6.135   5.025   6.076 -1.1113  0.2373  1.0264
  147SAPE  H13S16144   6.073   4.950   5.928 -0.5574  0.2871  0.1603
  147SAPE  C21416145   6.284   4.975   5.929  0.5243  0.5695 -0.4014
  147SAPE  H14R16146   6.348   5.051   5.978 -1.6479  0.5602  2.7820
  147SAPE  C21516147   6.320   4.929   5.813  0.3367  0.3398 -0.2512
  147SAPE  H15R16148   6.421   4.966   5.787  0.7800  1.0011  2.0851
  147SAPE  C21616149   6.242   4.828   5.726  0.2355 -0.5837 -0.2167
  147SAPE  H16R16150   6.138   4.867   5.722  0.6074  0.9219  2.4932
  147SAPE  H16S16151   6.244   4.728   5.775  0.4151  0.0037  1.0123
  147SAPE  C21716152   6.287   4.825   5.581 -0.5029  0.1758  0.7593
  147SAPE  H17R16153   6.393   4.796   5.565 -0.5514 -0.2876  1.2358
  147SAPE  H17S16154   6.288   4.931   5.546 -0.5538  0.1979  0.8245
  147SAPE  C21816155   6.194   4.750   5.489  0.1146 -0.4087 -0.2225
  147SAPE  H18R16156   6.089   4.778   5.508  0.5807 -0.7846  3.7280
  147SAPE  H18S16157   6.194   4.642   5.516 -1.5179  0.2471  2.8007
  147SAPE  C21916158   6.238   4.764   5.344 -0.1738  0.0824  0.5970
  147SAPE  H19R16159   6.348   4.754   5.334  0.1885  1.0323  2.9862
  147SAPE  H19S16160   6.211   4.870   5.323  0.7998  0.1343 -0.4730
  147SAPE  C22016161   6.157   4.672   5.244  0.1628 -0.3421  0.1062
  147SAPE  H20R16162   6.052   4.669   5.280  0.6361 -2.0798  1.5449
  147SAPE  H20S16163   6.204   4.571   5.243  2.9951  0.8170  2.0812
  147SAPE  H20T16164   6.157   4.716   5.142  2.7161 -1.1144 -0.3031
  147SAPE   C3316165   6.257   5.406   6.708 -0.3188 -0.7314  0.1535
  147SAPE   H3X16166   6.361   5.370   6.726 -0.6292 -1.2346  0.9575
  147SAPE   H3Y16167   6.261   5.517   6.708 -0.8807 -0.7097  0.3560
  147SAPE   C3416168   6.229   5.359   6.559 -0.0507 -0.4364 -0.2017
  147SAPE   H4X16169   6.118   5.365   6.554 -0.0763 -0.5875  0.1573
  147SAPE   H4Y16170   6.270   5.259   6.533  1.0474  0.2693 -1.2638
  147SAPE   C3516171   6.280   5.447   6.450 -0.0866 -0.1145  0.4090
  147SAPE   H5X16172   6.390   5.438   6.433  0.0788  0.9622  0.7633
  147SAPE   H5Y16173   6.262   5.548   6.493 -0.3398  0.0839 -0.1572
  147SAPE   C3616174   6.210   5.433   6.308 -0.2264 -0.5694 -0.5780
  147SAPE   H6X16175   6.235   5.518   6.242  1.2439  0.1802  0.8474
  147SAPE   H6Y16176   6.100   5.437   6.324 -0.1436 -3.1555  1.2904
  147SAPE   C3716177   6.261   5.308   6.236 -0.2568  0.0533  0.0388
  147SAPE   H7X16178   6.193   5.230   6.275 -0.7760 -0.6638 -2.1707
  147SAPE   H7Y16179   6.369   5.287   6.252 -0.1228  0.3176 -0.4955
  147SAPE   C3816180   6.239   5.326   6.085  0.0427  0.1031  0.1152
  147SAPE   H8X16181   6.262   5.233   6.029  2.4189  1.6185 -1.6028
  147SAPE   H8Y16182   6.295   5.407   6.033 -0.9551 -0.9464 -2.8159
  147SAPE   C3916183   6.094   5.341   6.038 -0.3995 -0.2497 -0.0605
  147SAPE   H9X16184   6.060   5.429   6.096 -0.8395 -0.6126  0.2497
  147SAPE   H9Y16185   6.048   5.242   6.061  1.2023 -1.6384 -2.4035
  147SAPE  C31016186   6.073   5.364   5.890 -0.7306  0.4904 -0.1271
  147SAPE  H10X16187   6.116   5.465   5.871 -0.9797  0.5902 -0.1512
  147SAPE  H10Y16188   5.964   5.355   5.876 -0.5322  0.6294 -2.1861
  147SAPE  C31116189   6.137   5.257   5.811 -0.3914 -0.1838  0.4965
  147SAPE  H11X16190   6.110   5.158   5.853 -0.4597 -0.7040 -0.7341
  147SAPE  H11Y16191   6.247   5.267   5.828 -0.3244  0.4446 -0.2498
  147SAPE  C31216192   6.113   5.258   5.652  0.0064 -0.4684 -0.5663
  147SAPE  H12X16193   6.004   5.254   5.632 -0.1277  2.0679 -0.6627
  147SAPE  H12Y16194   6.155   5.170   5.599  1.6830  0.5404 -0.9940
  147SAPE  C31316195   6.168   5.386   5.592  0.2329 -0.0038  0.7003
  147SAPE  H13X16196   6.279   5.388   5.587  0.4216 -2.1447  2.5704
  147SAPE  H13Y16197   6.141   5.479   5.646 -1.2966  1.4979 -2.3874
  147SAPE  C31416198   6.108   5.419   5.448  0.0016 -0.3276  0.2616
  147SAPE  H14X16199   6.146   5.522   5.429  1.7498 -0.5000  2.4414
  147SAPE  H14Y16200   5.997   5.421   5.453 -0.0622 -0.9194 -0.6773
  147SAPE  C31516201   6.133   5.321   5.336  0.4261  0.6918  0.2669
  147SAPE  H15X16202   6.077   5.229   5.363 -0.1975  0.7514 -0.7434
  147SAPE  H15Y16203   6.237   5.291   5.315 -0.1279  0.1999 -2.0670
  147SAPE  C31616204   6.058   5.366   5.207  0.1475 -0.5800 -0.9744
  147SAPE  H16X16205   6.107   5.457   5.165  1.8251 -0.8764  0.2748
  147SAPE  H16Y16206   5.956   5.392   5.243  0.3283 -1.2003 -0.0015
  147SAPE  C31716207   6.052   5.257   5.101  0.1433 -0.6085  0.0465
  147SAPE  H17X16208   6.046   5.156   5.147  1.5416 -1.1506 -0.8861
  147SAPE  H17Y16209   6.153   5.251   5.055  0.0457 -1.0931 -0.1103
  147SAPE  C31816210   5.937   5.267   4.998 -0.2863 -0.2667 -0.2567
  147SAPE  H18X16211   5.962   5.357   4.937 -0.7325  1.1472  1.5605
  147SAPE  H18Y16212   5.835   5.279   5.040 -0.1137 -3.4991  1.3424
  147SAPE  H18Z16213   5.942   5.172   4.940  0.2824  0.4853 -1.4981
  148SAPE     N16214   6.033   6.293   7.649  0.2686 -0.4028 -0.2382
  148SAPE   HN116215   6.077   6.382   7.682 -0.7673  0.9453 -2.2579
  148SAPE   HN216216   5.939   6.319   7.613 -0.0564 -1.0267  0.1532
  148SAPE   HN316217   6.020   6.230   7.730 -1.9613  1.0172  0.6116
  148SAPE   C1216218   6.104   6.218   7.541  0.4992 -0.1656 -0.0374
  148SAPE  H12A16219   6.212   6.221   7.567  1.4536  0.3113 -3.5079
  148SAPE  H12B16220   6.086   6.269   7.444 -2.4090 -0.4681  0.2633
  148SAPE   C1116221   6.047   6.077   7.532  0.1118  0.5941  0.0360
  148SAPE  H11A16222   6.058   6.020   7.627 -2.5417 -1.4176 -0.7290
  148SAPE  H11B16223   6.103   6.027   7.451 -0.2043 -1.3552  0.9668
  148SAPE     P16224   5.836   6.060   7.373  0.0372 -0.5891 -0.2623
  148SAPE   O1316225   5.722   5.969   7.376  0.2168  0.4298  0.5787
  148SAPE   O1416226   5.808   6.197   7.333 -0.0604 -0.3136 -0.1640
  148SAPE   O1216227   5.903   6.067   7.515  0.0117  0.2776  0.0250
  148SAPE   O1116228   5.947   5.995   7.280 -0.0708 -0.1409  0.2730
  148SAPE    C116229   5.999   6.052   7.160 -1.0901 -1.2791 -0.2773
  148SAPE    HA16230   5.980   6.162   7.161 -1.9569 -1.3774 -2.2127
  148SAPE    HB16231   6.108   6.034   7.150 -0.9530 -0.6673  0.0354
  148SAPE    C216232   5.927   6.013   7.029  0.2086  0.0019  0.0223
  148SAPE    HS16233   5.823   5.982   7.054  0.3870  0.7133  1.7767
  148SAPE   O2116234   5.990   5.899   6.963 -0.0810 -0.3253  0.1528
  148SAPE   C2116235   5.937   5.787   6.971 -0.3964 -0.6267  0.2854
  148SAPE   O2216236   5.836   5.750   7.031  0.2409 -0.3544 -1.5479
  148SAPE   C2216237   6.019   5.690   6.885 -0.4179  0.1980  0.2519
  148SAPE   H2R16238   6.125   5.721   6.871  0.2237 -2.1351 -0.6681
  148SAPE   H2S16239   6.008   5.589   6.931 -0.9113  0.7576  1.3861
  148SAPE    C316240   5.923   6.126   6.920 -0.1130 -0.0559 -0.0481
  148SAPE    HX16241   6.029   6.152   6.897 -0.3360  0.1210 -0.8969
  148SAPE    HY16242   5.882   6.216   6.969  0.7039 -0.1750  0.9122
  148SAPE   O3116243   5.849   6.100   6.799  0.0837  1.0311 -0.1481
  148SAPE   C3116244   5.898   6.140   6.687  0.6805 -0.4819  0.2124
  148SAPE   O3216245   6.014   6.178   6.670 -0.5779 -0.5283 -0.3476
  148SAPE   C3216246   5.790   6.145   6.584  1.1321  0.4041  0.8808
  148SAPE   H2X16247   5.742   6.244   6.585 -1.4547 -0.7470 -0.5788
  148SAPE   H2Y16248   5.713   6.068   6.604 -0.2978  1.1604 -1.3710
  148SAPE   C2316249   5.975   5.669   6.742 -0.2791  0.0011  0.5060
  148SAPE   H3R16250   5.875   5.624   6.726  0.5775 -2.4347  1.4058
  148SAPE   H3S16251   6.035   5.590   6.693 -1.2876 -0.8675  0.6382
  148SAPE   C2416252   5.987   5.796   6.662  0.2309  0.3810  0.1226
  148SAPE   H4R16253   5.917   5.877   6.693  0.0826 -0.0706  0.9946
  148SAPE   H4S16254   5.947   5.772   6.562  0.9153  2.1174 -0.6096
  148SAPE   C2516255   6.125   5.853   6.646  0.2595 -0.3061 -0.6206
  148SAPE   H5R16256   6.171   5.895   6.736 -1.4197  1.2174 -0.4283
  148SAPE   C2616257   6.204   5.857   6.531 -0.1163  0.6560 -0.0266
  148SAPE   H6R16258   6.304   5.903   6.524  1.7434 -3.0720 -0.1799
  148SAPE   C2716259   6.164   5.802   6.397  0.3943 -0.2098 -0.5854
  148SAPE   H7R16260   6.098   5.713   6.406  0.0243  0.2625  2.2275
  148SAPE   H7S16261   6.251   5.763   6.339  2.2258  2.5900  0.0672
  148SAPE   C2816262   6.122   5.914   6.314  0.2173  0.0227  0.2334
  148SAPE   H8R16263   6.125   6.013   6.362 -1.5429  0.3294 -0.2190
  148SAPE   C2916264   6.091   5.916   6.183  1.0408 -0.2697 -0.1242
  148SAPE   H9R16265   6.040   6.002   6.136 -0.8924 -2.2683 -1.9308
  148SAPE  C21016266   6.071   5.795   6.094 -0.3125 -0.4436 -0.3053
  148SAPE  H10R16267   5.992   5.819   6.020  0.9187  1.8022 -0.9982
  148SAPE  H10S16268   6.036   5.706   6.151 -1.7063  0.5227  0.4022
  148SAPE  C21116269   6.196   5.757   6.025  0.3643  0.5131  0.0998
  148SAPE  H11R16270   6.268   5.704   6.089 -0.5183  1.8912  2.3452
  148SAPE  C21216271   6.232   5.758   5.897 -1.0023 -0.2767  0.1766
  148SAPE  H12R16272   6.337   5.727   5.882  0.2471  2.0858  3.1439
  148SAPE  C21316273   6.158   5.826   5.788  0.0496  0.0960  0.0983
  148SAPE  H13R16274   6.062   5.858   5.833  0.4956  1.8392 -0.1125
  148SAPE  H13S16275   6.139   5.753   5.706  1.1362 -0.2604  0.1543
  148SAPE  C21416276   6.219   5.957   5.744  0.0035  0.7897  0.6607
  148SAPE  H14R16277   6.294   5.999   5.813  0.9831 -0.7523  0.5805
  148SAPE  C21516278   6.188   6.017   5.631 -0.0843 -0.3684  0.7481
  148SAPE  H15R16279   6.252   6.101   5.601  0.1592 -0.5830  0.6593
  148SAPE  C21616280   6.083   5.981   5.533  0.5554 -0.3772  0.2225
  148SAPE  H16R16281   6.034   6.073   5.493 -0.2804 -0.8415  0.1522
  148SAPE  H16S16282   6.007   5.913   5.577 -1.2602  1.3842 -0.0115
  148SAPE  C21716283   6.156   5.927   5.405  0.0434 -0.5743 -0.6868
  148SAPE  H17R16284   6.245   5.992   5.392 -1.3054  2.1062  2.1932
  148SAPE  H17S16285   6.086   5.945   5.320  0.5454  0.7082 -0.8611
  148SAPE  C21816286   6.206   5.784   5.406  0.2752  0.4504  0.2352
  148SAPE  H18R16287   6.119   5.719   5.425 -0.0967  0.6207 -0.8036
  148SAPE  H18S16288   6.269   5.773   5.497 -0.9981 -1.6172  0.9288
  148SAPE  C21916289   6.306   5.755   5.288 -0.6026  0.9866 -0.4854
  148SAPE  H19R16290   6.371   5.844   5.277  1.1687 -0.1725  0.0964
  148SAPE  H19S16291   6.256   5.739   5.190 -0.8510 -1.1936 -0.0550
  148SAPE  C22016292   6.400   5.631   5.305 -0.1431  0.0095  0.3271
  148SAPE  H20R16293   6.463   5.634   5.397 -0.3768  0.1244  0.4846
  148SAPE  H20S16294   6.459   5.618   5.212  0.5200 -1.1637  0.8796
  148SAPE  H20T16295   6.339   5.538   5.310  1.5808 -1.2293 -0.4348
  148SAPE   C3316296   5.853   6.128   6.435  0.5213 -0.1933  0.0719
  148SAPE   H3X16297   5.772   6.085   6.372 -0.2584  0.8221  0.3650
  148SAPE   H3Y16298   5.938   6.056   6.428 -2.3718 -3.8772 -0.8147
  148SAPE   C3416299   5.886   6.271   6.378  0.4972 -0.2865 -0.5592
  148SAPE   H4X16300   5.959   6.325   6.442 -0.9401  1.1347 -0.0343
  148SAPE   H4Y16301   5.798   6.339   6.389 -1.7580 -2.9920 -0.7095
  148SAPE   C3516302   5.928   6.271   6.230 -0.5542  0.0933  0.8487
  148SAPE   H5X16303   6.015   6.203   6.219  0.5716  1.5371  0.4740
  148SAPE   H5Y16304   5.961   6.376   6.213 -0.9887 -0.1129 -1.5338
  148SAPE   C3616305   5.811   6.223   6.142  0.6178  0.3690  0.5228
  148SAPE   H6X16306   5.727   6.295   6.154  0.8143  0.3311  2.5343
  148SAPE   H6Y16307   5.775   6.123   6.174 -0.3874  1.0079  1.4747
  148SAPE   C3716308   5.852   6.215   5.989  0.3196 -0.0899 -0.4051
  148SAPE   H7X16309   5.927   6.134   5.970  0.6789  0.0787  0.2658
  148SAPE   H7Y16310   5.890   6.316   5.966 -1.7222  1.1410  1.2451
  148SAPE   C3816311   5.730   6.174   5.899  0.3931  0.1081  0.3122
  148SAPE   H8X16312   5.651   6.243   5.936 -0.4544 -0.5623 -0.2148
  148SAPE   H8Y16313   5.690   6.071   5.911  0.7292 -0.1778 -0.8888
  148SAPE   C3916314   5.739   6.171   5.748 -0.0629 -0.2782 -0.2262
  148SAPE   H9X16315   5.836   6.126   5.721 -0.5051 -0.5476 -1.4647
  148SAPE   H9Y16316   5.752   6.276   5.713 -1.4900 -0.2373 -0.7397
  148SAPE  C31016317   5.614   6.116   5.675  0.1481 -0.5046 -0.2148
  148SAPE  H10X16318   5.527   6.162   5.727  0.5121  0.1824 -0.2120
  148SAPE  H10Y16319   5.628   6.006   5.684  0.9466 -0.4380 -0.5494
  148SAPE  C31116320   5.605   6.148   5.523  0.7359  0.4244 -0.8720
  148SAPE  H11X16321   5.704   6.119   5.483  1.2486  1.1351 -0.1543
  148SAPE  H11Y16322   5.597   6.255   5.495 -3.3123  0.1103 -1.4367
  148SAPE  C31216323   5.506   6.061   5.441  0.3637  0.7786 -0.4380
  148SAPE  H12X16324   5.411   6.073   5.498 -1.9291 -1.8957 -3.2920
  148SAPE  H12Y16325   5.525   5.952   5.448 -2.4538  0.2594  0.3066
  148SAPE  C31316326   5.496   6.112   5.301 -0.7885 -0.1268  0.4695
  148SAPE  H13X16327   5.598   6.117   5.258 -0.4889 -1.1249  1.0485
  148SAPE  H13Y16328   5.448   6.212   5.303  1.2565  0.9226 -0.2723
  148SAPE  C31416329   5.413   6.022   5.202  0.0227  0.3671  0.3576
  148SAPE  H14X16330   5.309   6.006   5.238  0.0777 -1.7022 -0.2757
  148SAPE  H14Y16331   5.462   5.923   5.194  0.2025  0.4381  0.5738
  148SAPE  C31516332   5.397   6.073   5.059 -0.6836 -0.5635 -0.0569
  148SAPE  H15X16333   5.500   6.089   5.019 -0.8105  0.3657 -0.0392
  148SAPE  H15Y16334   5.353   6.175   5.048  1.8299  0.3443 -3.0444
  148SAPE  C31616335   5.318   5.981   4.970 -0.0996  0.5802 -0.1684
  148SAPE  H16X16336   5.210   5.988   4.999  0.2761  0.5028  1.3302
  148SAPE  H16Y16337   5.349   5.875   4.964  0.9872  0.8881 -0.1554
  148SAPE  C31716338   5.333   6.039   4.826  0.9913  0.1396 -1.1237
  148SAPE  H17X16339   5.439   6.010   4.807  0.3539 -2.2999 -1.3326
  148SAPE  H17Y16340   5.314   6.148   4.816 -0.5745 -0.0694 -0.6287
  148SAPE  C31816341   5.243   5.965   4.730  0.2625 -0.1661 -0.1174
  148SAPE  H18X16342   5.282   5.941   4.629 -0.0260 -1.5383  0.0821
  148SAPE  H18Y16343   5.146   6.017   4.713 -0.0792 -1.1665 -1.3367
  148SAPE  H18Z16344   5.232   5.862   4.770  0.2440 -0.2263 -0.2783
  149SAPE     N16345   5.492   6.027   7.499  0.3249  0.4576  0.0679
  149SAPE   HN116346   5.408   6.008   7.440  0.5897  0.2476 -0.2455
  149SAPE   HN216347   5.582   6.007   7.451  0.7259  0.2900  0.8649
  149SAPE   HN316348   5.493   5.971   7.587 -0.3670 -0.5499 -0.5453
  149SAPE   C1216349   5.467   6.171   7.544  0.0241  0.3622 -0.2993
  149SAPE  H12A16350   5.552   6.191   7.613  0.2399 -0.2156 -0.3911
  149SAPE  H12B16351   5.382   6.164   7.615  1.4887  2.1035  1.7481
  149SAPE   C1116352   5.436   6.271   7.431  0.5790  0.5595  0.2929
  149SAPE  H11A16353   5.360   6.222   7.367  1.9745  0.6405 -1.5143
  149SAPE  H11B16354   5.521   6.282   7.360  0.4439 -1.2396 -0.1958
  149SAPE     P16355   5.451   6.532   7.487 -0.1064 -0.2295  0.1903
  149SAPE   O1316356   5.347   6.633   7.528 -0.4477  0.1702  0.1863
  149SAPE   O1416357   5.568   6.522   7.573 -0.6058  0.1007 -0.2739
  149SAPE   O1216358   5.381   6.393   7.485  1.3007 -0.1117  0.3215
  149SAPE   O1116359   5.503   6.552   7.339 -0.5449  0.2415 -0.0924
  149SAPE    C116360   5.411   6.598   7.235  0.4736 -0.2968 -0.2011
  149SAPE    HA16361   5.314   6.634   7.276 -0.2225 -0.7473 -1.4006
  149SAPE    HB16362   5.451   6.694   7.195  0.1384 -0.7569 -1.6925
  149SAPE    C216363   5.392   6.498   7.113 -0.0949 -0.2429  0.0090
  149SAPE    HS16364   5.342   6.549   7.028  1.0592  1.7990  0.4950
  149SAPE   O2116365   5.319   6.386   7.147  0.3944  0.2264 -0.4778
  149SAPE   C2116366   5.196   6.396   7.181 -0.2900 -0.0783  0.0000
  149SAPE   O2216367   5.125   6.494   7.195 -0.2917  0.3185  0.1778
  149SAPE   C2216368   5.132   6.258   7.190 -0.0055  0.1540  0.1834
  149SAPE   H2R16369   5.189   6.176   7.142 -0.5868 -0.8247  1.1297
  149SAPE   H2S16370   5.120   6.234   7.298  0.2372 -2.1509 -0.2448
  149SAPE    C316371   5.530   6.447   7.053 -0.1266 -0.2036  0.5237
  149SAPE    HX16372   5.502   6.396   6.959 -1.3220 -2.2407  1.9383
  149SAPE    HY16373   5.587   6.382   7.123  1.7474  0.5245 -0.2534
  149SAPE   O3116374   5.613   6.563   7.023 -0.1358  0.4156 -0.4899
  149SAPE   C3116375   5.714   6.544   6.939  0.2821  1.0133 -0.5963
  149SAPE   O3216376   5.729   6.440   6.873 -0.0793 -0.3267 -0.1987
  149SAPE   C3216377   5.820   6.647   6.961 -0.7076 -0.5126 -1.0598
  149SAPE   H2X16378   5.811   6.674   7.068 -0.0352 -0.5723 -0.9847
  149SAPE   H2Y16379   5.795   6.730   6.891 -1.2363  0.7653  0.5710
  149SAPE   C2316380   4.987   6.254   7.131 -0.2330  0.8375 -0.4613
  149SAPE   H3R16381   4.919   6.340   7.150 -1.6961  0.8083 -4.6096
  149SAPE   H3S16382   4.953   6.160   7.180 -0.4316  1.3706  0.4442
  149SAPE   C2416383   4.995   6.246   6.977  0.2004 -0.2423  0.4649
  149SAPE   H4R16384   4.890   6.243   6.940  0.5706  0.8197 -0.7570
  149SAPE   H4S16385   5.036   6.146   6.952  0.5139  0.1312 -0.5611
  149SAPE   C2516386   5.053   6.355   6.901  0.5028 -0.7171  0.3740
  149SAPE   H5R16387   5.026   6.452   6.948 -2.0755 -1.3389  0.3290
  149SAPE   C2616388   5.134   6.356   6.785  0.7919 -0.3892  0.1620
  149SAPE   H6R16389   5.175   6.446   6.737 -0.3610  0.7083  1.1836
  149SAPE   C2716390   5.157   6.227   6.718  0.3017  0.5717  0.1539
  149SAPE   H7R16391   5.154   6.254   6.610 -0.5852 -0.0887  0.0020
  149SAPE   H7S16392   5.072   6.155   6.728 -0.9331  1.8850 -0.4151
  149SAPE   C2816393   5.292   6.166   6.758  0.0763 -0.2802  0.1313
  149SAPE   H8R16394   5.299   6.085   6.833  2.3114  0.0799  0.3901
  149SAPE   C2916395   5.408   6.208   6.717 -0.6500  1.2489  0.1040
  149SAPE   H9R16396   5.499   6.168   6.762  0.6136  1.5056 -2.0982
  149SAPE  C21016397   5.441   6.321   6.616  0.4302 -0.0541 -0.6650
  149SAPE  H10R16398   5.550   6.346   6.613  0.4978 -0.2937 -0.3001
  149SAPE  H10S16399   5.367   6.400   6.639 -0.3796 -1.2540  1.0709
  149SAPE  C21116400   5.411   6.289   6.478  0.4605 -1.1473  0.1929
  149SAPE  H11R16401   5.378   6.187   6.454  0.1524 -0.6854 -1.4936
  149SAPE  C21216402   5.415   6.381   6.375 -0.0682 -0.0887  0.6564
  149SAPE  H12R16403   5.405   6.351   6.269 -0.4470  0.0793  0.6418
  149SAPE  C21316404   5.447   6.529   6.380 -0.6057  0.6756  0.2646
  149SAPE  H13R16405   5.428   6.566   6.483  0.3835 -0.5507  0.9009
  149SAPE  H13S16406   5.360   6.581   6.333 -1.3908 -1.1272 -0.3918
  149SAPE  C21416407   5.583   6.581   6.342 -0.7090 -0.1476  0.7982
  149SAPE  H14R16408   5.667   6.533   6.395 -0.1052  0.9903  0.8956
  149SAPE  C21516409   5.606   6.656   6.234  0.6301 -0.2336 -0.3904
  149SAPE  H15R16410   5.708   6.681   6.202 -0.3509  4.1420 -0.6610
  149SAPE  C21616411   5.501   6.727   6.147 -0.0870 -0.2215  0.5081
  149SAPE  H16R16412   5.546   6.829   6.153  0.7887 -0.4435 -1.5848
  149SAPE  H16S16413   5.402   6.725   6.198 -1.3537  0.1060 -1.7616
  149SAPE  C21716414   5.493   6.665   6.007  0.0110  0.0734 -0.1503
  149SAPE  H17R16415   5.584   6.698   5.952  0.8699  1.5977  2.0272
  149SAPE  H17S16416   5.403   6.707   5.958 -0.4564 -1.0059 -0.2319
  149SAPE  C21816417   5.468   6.512   5.995  0.5224 -0.7538 -1.2496
  149SAPE  H18R16418   5.387   6.491   6.067  0.4392  0.2665 -1.0252
  149SAPE  H18S16419   5.560   6.457   6.025 -0.0438 -1.1258 -0.1673
  149SAPE  C21916420   5.440   6.462   5.855  0.1562 -0.5458 -0.0788
  149SAPE  H19R16421   5.342   6.511   5.837  1.1644  1.4283 -0.4812
  149SAPE  H19S16422   5.428   6.352   5.848  1.2957 -0.6442 -0.6574
  149SAPE  C22016423   5.545   6.509   5.752  0.1513 -0.0200 -0.4051
  149SAPE  H20R16424   5.503   6.459   5.662  0.5388 -2.0268  0.4794
  149SAPE  H20S16425   5.648   6.471   5.772  0.1595  0.6702  0.9310
  149SAPE  H20T16426   5.550   6.619   5.737  0.1928  0.1496  0.7994
  149SAPE   C3316427   5.963   6.583   6.918  1.0545  0.0429 -0.5199
  149SAPE   H3X16428   5.987   6.484   6.961  0.6661 -0.0220 -0.4444
  149SAPE   H3Y16429   6.033   6.664   6.950 -0.0622  1.4909 -1.5858
  149SAPE   C3416430   5.986   6.563   6.768  0.1854 -0.4964 -0.4120
  149SAPE   H4X16431   5.944   6.656   6.723  1.0520 -0.5837 -1.4596
  149SAPE   H4Y16432   5.915   6.487   6.729 -2.6839  2.6063 -1.6738
  149SAPE   C3516433   6.134   6.544   6.711  0.2333  0.2598 -0.4849
  149SAPE   H5X16434   6.160   6.436   6.717 -2.5797 -0.4092  1.7138
  149SAPE   H5Y16435   6.205   6.598   6.778  1.4218 -2.4708  0.5836
  149SAPE   C3616436   6.162   6.599   6.569 -0.6401 -0.2797  0.1800
  149SAPE   H6X16437   6.101   6.541   6.496  1.2070 -3.5596  1.0389
  149SAPE   H6Y16438   6.268   6.583   6.539 -1.1743 -0.0812 -1.9450
  149SAPE   C3716439   6.144   6.754   6.538 -0.1123 -0.0726 -0.3817
  149SAPE   H7X16440   6.207   6.816   6.606  2.3067 -0.3933 -2.1866
  149SAPE   H7Y16441   6.036   6.771   6.558 -0.0887 -0.8158  0.4494
  149SAPE   C3816442   6.167   6.794   6.392  0.4224  0.6838  0.3625
  149SAPE   H8X16443   6.270   6.760   6.366 -0.4036 -1.8663  0.1185
  149SAPE   H8Y16444   6.159   6.904   6.387  1.1403  0.7111 -0.6942
  149SAPE   C3916445   6.077   6.721   6.288 -0.5948 -0.1040 -0.5071
  149SAPE   H9X16446   5.973   6.749   6.315 -0.2794 -1.4945  2.6876
  149SAPE   H9Y16447   6.086   6.610   6.287 -0.1349 -0.0745 -1.8437
  149SAPE  C31016448   6.087   6.755   6.137 -0.2113 -0.3887  0.4596
  149SAPE  H10X16449   6.194   6.737   6.113 -0.8221 -2.8437 -0.7896
  149SAPE  H10Y16450   6.071   6.865   6.129 -0.7158 -0.5115 -0.2850
  149SAPE  C31116451   6.002   6.673   6.048 -0.3603 -0.6581 -0.0154
  149SAPE  H11X16452   5.895   6.698   6.064 -0.9022 -1.5838 -1.9735
  149SAPE  H11Y16453   6.021   6.570   6.086  1.6988 -1.1190 -2.1165
  149SAPE  C31216454   6.031   6.690   5.899  0.1164 -0.1690 -0.4139
  149SAPE  H12X16455   6.140   6.710   5.895 -0.0783  0.8350 -0.9562
  149SAPE  H12Y16456   5.978   6.782   5.865  0.4259  0.9099  1.7706
  149SAPE  C31316457   5.989   6.573   5.818 -0.3540 -0.7006 -0.1834
  149SAPE  H13X16458   5.878   6.568   5.814 -0.6108  1.0312  2.4372
  149SAPE  H13Y16459   6.035   6.483   5.864  0.4896 -0.8081 -1.1947
  149SAPE  C31416460   6.046   6.592   5.674 -0.4490 -0.0754  0.0829
  149SAPE  H14X16461   6.156   6.577   5.669 -0.6295 -1.2833 -0.4449
  149SAPE  H14Y16462   6.022   6.691   5.628 -0.4706 -0.1417 -0.0507
  149SAPE  C31516463   5.983   6.485   5.581  0.0644 -0.0871  0.4755
  149SAPE  H15X16464   5.875   6.507   5.564 -0.3958 -2.5721 -0.2459
  149SAPE  H15Y16465   6.004   6.385   5.626  0.4002 -0.6910 -0.9587
  149SAPE  C31616466   6.045   6.489   5.438 -0.6924  0.3906 -0.0611
  149SAPE  H16X16467   6.155   6.474   5.432 -0.8014 -0.6906  0.4475
  149SAPE  H16Y16468   6.012   6.587   5.397 -0.4600  0.4120 -0.2045
  149SAPE  C31716469   5.996   6.373   5.364  0.2026  0.9762  0.7348
  149SAPE  H17X16470   5.893   6.339   5.391  0.2788 -0.1202 -0.2691
  149SAPE  H17Y16471   6.064   6.286   5.378 -1.7104 -0.8929 -0.9601
  149SAPE  C31816472   5.981   6.417   5.217 -0.5038 -0.7517  0.1025
  149SAPE  H18X16473   5.923   6.339   5.164 -0.1657  0.5298 -2.3310
  149SAPE  H18Y16474   6.082   6.431   5.172  0.3991 -0.3521  2.1150
  149SAPE  H18Z16475   5.924   6.512   5.212  0.2017 -0.3628 -0.9342
  150SAPE     N16476   0.010   0.617   7.841 -0.2476 -0.4883 -0.1287
  150SAPE   HN116477   0.055   0.637   7.933 -0.2564 -1.0700  0.0062
  150SAPE   HN216478  -0.045   0.703   7.827 -0.1694  0.0784  2.5172
  150SAPE   HN316479  -0.058   0.541   7.863  1.5356 -2.2224 -0.2419
  150SAPE   C1216480   0.108   0.564   7.745 -0.0520 -0.6225  0.0434
  150SAPE  H12A16481   0.061   0.563   7.644  0.4455 -0.3674 -0.1981
  150SAPE  H12B16482   0.116   0.459   7.781 -0.6428  0.0218  2.1582
  150SAPE   C1116483   0.252   0.623   7.743  0.1744  0.2282  0.6281
  150SAPE  H11A16484   0.250   0.727   7.704  0.8790 -0.6191 -1.8609
  150SAPE  H11B16485   0.323   0.573   7.674 -1.1213 -1.2092  0.2771
  150SAPE     P16486   0.444   0.695   7.917  0.0200  0.1343  0.0139
  150SAPE   O1316487   0.401   0.825   7.976  0.1364  0.8231  0.0482
  150SAPE   O1416488   0.539   0.618   8.001  0.3105  0.4025 -0.1847
  150SAPE   O1216489   0.306   0.621   7.879  0.1532  0.0589 -0.2034
  150SAPE   O1116490   0.509   0.723   7.772  0.2867  0.6139  0.2592
  150SAPE    C116491   0.637   0.677   7.738 -1.0327  0.0108 -0.4619
  150SAPE    HA16492   0.699   0.714   7.823 -1.6968  0.3809 -0.1287
  150SAPE    HB16493   0.635   0.566   7.730  1.1488 -0.1073 -0.0339
  150SAPE    C216494   0.693   0.736   7.612 -0.7236  0.4626  0.9458
  150SAPE    HS16495   0.704   0.845   7.631 -2.6059  0.4052  2.7347
  150SAPE   O2116496   0.608   0.714   7.495 -0.1860  0.0690  0.1790
  150SAPE   C2116497   0.509   0.799   7.476 -1.1361  0.4592 -0.2409
  150SAPE   O2216498   0.486   0.897   7.541  0.5711  0.2918 -0.2780
  150SAPE   C2216499   0.429   0.753   7.348  0.1860 -0.4170 -0.0854
  150SAPE   H2R16500   0.331   0.805   7.357  1.6658  2.1849  2.5280
  150SAPE   H2S16501   0.481   0.773   7.252 -1.8315  1.3793 -0.8867
  150SAPE    C316502   0.841   0.680   7.580 -0.4014  0.2079  0.0031
  150SAPE    HX16503   0.823   0.571   7.566 -1.3010  0.3515 -0.0268
  150SAPE    HY16504   0.897   0.688   7.676 -0.4389  1.1382 -0.0426
  150SAPE   O3116505   0.919   0.739   7.478  0.2865  0.1729  0.1053
  150SAPE   C3116506   1.041   0.693   7.468  0.6039 -0.0605 -0.3459
  150SAPE   O3216507   1.087   0.606   7.536  0.3983  0.8339 -0.5187
  150SAPE   C3216508   1.126   0.778   7.381 -0.3193  0.1761  0.4959
  150SAPE   H2X16509   1.228   0.733   7.381 -0.4456 -0.2150 -1.4276
  150SAPE   H2Y16510   1.130   0.872   7.438  2.0276 -0.4656  1.5227
  150SAPE   C2316511   0.401   0.598   7.346  0.4795  0.2560 -0.2630
  150SAPE   H3R16512   0.341   0.577   7.438  0.8290  1.2663  0.2098
  150SAPE   H3S16513   0.494   0.538   7.342  0.2305 -0.0721 -1.8786
  150SAPE   C2416514   0.334   0.555   7.214 -0.0169  0.3186 -0.6865
  150SAPE   H4R16515   0.349   0.445   7.207 -1.9808 -0.2143  2.0512
  150SAPE   H4S16516   0.392   0.609   7.135  4.0039 -0.9075  1.1706
  150SAPE   C2516517   0.184   0.581   7.212 -0.7569 -0.6831  0.6327
  150SAPE   H5R16518   0.141   0.603   7.311 -3.1259 -1.2119 -0.2044
  150SAPE   C2616519   0.096   0.593   7.102 -0.6690  0.9574 -0.5128
  150SAPE   H6R16520  -0.007   0.620   7.128 -0.8436  0.3060 -0.5232
  150SAPE   C2716521   0.121   0.575   6.954  0.1901  0.0010  0.1135
  150SAPE   H7R16522   0.014   0.571   6.922  0.0697  0.1983  0.4923
  150SAPE   H7S16523   0.151   0.471   6.928 -0.2295 -0.4376  1.3100
  150SAPE   C2816524   0.181   0.688   6.873  0.1787  0.0667 -0.1850
  150SAPE   H8R16525   0.246   0.750   6.937  1.0022 -2.2263  1.3025
  150SAPE   C2916526   0.162   0.705   6.737  0.6807 -0.6117 -0.2418
  150SAPE   H9R16527   0.193   0.795   6.683 -0.4113  1.7893  2.8170
  150SAPE  C21016528   0.066   0.617   6.662 -0.5289  0.4104 -0.4800
  150SAPE  H10R16529   0.029   0.529   6.720  0.3671  0.9416  0.9529
  150SAPE  H10S16530   0.133   0.568   6.588 -0.2271  1.2804 -0.7985
  150SAPE  C21116531  -0.053   0.683   6.597  0.3123  0.8972 -0.2216
  150SAPE  H11R16532  -0.111   0.735   6.674 -0.4087 -1.0265  0.6054
  150SAPE  C21216533  -0.068   0.718   6.465 -0.0355  0.4057 -0.0892
  150SAPE  H12R16534  -0.161   0.771   6.438 -0.0703  0.9498  1.0411
  150SAPE  C21316535   0.020   0.669   6.348 -0.3467  0.1731 -0.0715
  150SAPE  H13R16536   0.105   0.611   6.388 -0.8774 -0.3319  0.3423
  150SAPE  H13S16537   0.057   0.766   6.309 -1.9792  0.5031 -0.9168
  150SAPE  C21416538  -0.051   0.597   6.240  0.2078  0.1011  0.7965
  150SAPE  H14R16539  -0.142   0.537   6.257  1.0257 -0.8453  1.9701
  150SAPE  C21516540  -0.021   0.606   6.112  0.4286 -0.2238  0.2718
  150SAPE  H15R16541  -0.079   0.552   6.036 -1.2221  1.3692  0.3349
  150SAPE  C21616542   0.084   0.689   6.045  0.1109 -0.0900  0.8753
  150SAPE  H16R16543   0.185   0.643   6.031  0.8746  1.0609  2.2809
  150SAPE  H16S16544   0.102   0.777   6.111  0.5742  0.7360 -0.3174
  150SAPE  C21716545   0.040   0.743   5.909  0.4849 -0.0641  0.0542
  150SAPE  H17R16546   0.103   0.834   5.898  0.6394 -0.2616 -0.8240
  150SAPE  H17S16547  -0.062   0.787   5.911  0.5371  0.0487  2.2579
  150SAPE  C21816548   0.063   0.651   5.792 -0.1861 -0.6428 -0.0252
  150SAPE  H18R16549   0.026   0.549   5.815  0.2210 -0.8630 -0.3344
  150SAPE  H18S16550   0.173   0.651   5.773  0.2323  1.5891  1.9500
  150SAPE  C21916551  -0.004   0.690   5.658  0.2782  0.5484  0.7298
  150SAPE  H19R16552   0.051   0.779   5.620  0.7888  0.3430  0.9752
  150SAPE  H19S16553  -0.105   0.725   5.687 -0.2712 -0.8534  0.5877
  150SAPE  C22016554  -0.023   0.569   5.569  0.2502  0.1560 -0.5132
  150SAPE  H20R16555  -0.049   0.475   5.622  0.5500  0.8708  0.9444
  150SAPE  H20S16556   0.079   0.536   5.540  1.3384  1.0286  2.0451
  150SAPE  H20T16557  -0.085   0.589   5.478  1.0735  0.0661 -1.1047
  150SAPE   C3316558   1.068   0.776   7.236 -0.5808 -0.8346 -0.4167
  150SAPE   H3X16559   0.958   0.786   7.243 -0.4635  0.7451 -0.3954
  150SAPE   H3Y16560   1.097   0.682   7.185 -0.7048 -1.2622  0.2982
  150SAPE   C3416561   1.125   0.890   7.142 -0.3965  0.3332 -0.6742
  150SAPE   H4X16562   1.231   0.908   7.169  0.1118 -0.4927 -2.0542
  150SAPE   H4Y16563   1.075   0.985   7.174  0.2000  0.2416  0.6057
  150SAPE   C3516564   1.117   0.843   7.001  0.6953 -0.2261 -0.7183
  150SAPE   H5X16565   1.014   0.820   6.968  0.8753 -0.7715 -0.9170
  150SAPE   H5Y16566   1.179   0.752   6.985 -0.4665 -0.9785 -1.0326
  150SAPE   C3616567   1.180   0.941   6.907  0.0840 -0.1724 -0.0657
  150SAPE   H6X16568   1.289   0.933   6.931  1.1211 -0.5327 -4.0967
  150SAPE   H6Y16569   1.156   1.047   6.930 -0.2428 -0.5890  1.5819
  150SAPE   C3716570   1.142   0.909   6.761 -0.1818  0.1147  0.4469
  150SAPE   H7X16571   1.038   0.950   6.753  0.4067  1.8602  1.1567
  150SAPE   H7Y16572   1.150   0.800   6.742  1.1153  0.2344  0.2627
  150SAPE   C3816573   1.238   0.989   6.673 -0.0572 -0.4933 -0.5530
  150SAPE   H8X16574   1.342   0.969   6.705  0.2892  0.3853 -1.0903
  150SAPE   H8Y16575   1.215   1.098   6.676 -0.7073 -0.6430  0.3599
  150SAPE   C3916576   1.211   0.961   6.521 -0.3705 -0.0772 -0.0016
  150SAPE   H9X16577   1.231   0.856   6.493 -0.7836 -0.0027 -0.5957
  150SAPE   H9Y16578   1.288   1.022   6.471  1.4004 -0.8071  1.7084
  150SAPE  C31016579   1.072   0.993   6.465 -0.0194 -0.0737  0.2099
  150SAPE  H10X16580   1.075   1.097   6.427  2.1576 -0.1391  0.0884
  150SAPE  H10Y16581   1.001   0.986   6.550  2.2533  0.6907  2.3034
  150SAPE  C31116582   1.029   0.895   6.358 -0.1226  0.3900 -0.2615
  150SAPE  H11X16583   0.922   0.916   6.337 -0.8554 -0.6719  2.0943
  150SAPE  H11Y16584   1.022   0.792   6.400 -3.0170  0.7810  0.4031
  150SAPE  C31216585   1.118   0.897   6.227 -0.6165 -0.3575 -0.1015
  150SAPE  H12X16586   1.219   0.857   6.252  0.1750  0.1928 -2.1918
  150SAPE  H12Y16587   1.132   0.994   6.175 -0.5585 -0.6334 -0.6061
  150SAPE  C31316588   1.063   0.811   6.115 -0.1540  0.5255 -0.2608
  150SAPE  H13X16589   0.960   0.843   6.090 -1.2691 -0.7163  2.3462
  150SAPE  H13Y16590   1.037   0.708   6.148 -1.9800  0.7098 -0.9850
  150SAPE  C31416591   1.142   0.806   5.984  0.4851  0.5953  0.4621
  150SAPE  H14X16592   1.245   0.769   6.004  0.6703  1.2386  0.7466
  150SAPE  H14Y16593   1.148   0.914   5.957 -0.3837  0.8336  1.1688
  150SAPE  C31516594   1.080   0.715   5.875 -1.0075  0.0506  0.4935
  150SAPE  H15X16595   0.969   0.713   5.865 -0.9335  1.2180 -0.7933
  150SAPE  H15Y16596   1.108   0.610   5.900  0.6608  0.1259 -0.9076
  150SAPE  C31616597   1.132   0.744   5.729  0.0625 -0.0565  0.1133
  150SAPE  H16X16598   1.109   0.843   5.685  1.9051  0.2821 -0.1396
  150SAPE  H16Y16599   1.083   0.673   5.658 -0.6322  1.7209 -1.2624
  150SAPE  C31716600   1.287   0.735   5.724  0.4295  0.4260  0.4496
  150SAPE  H17X16601   1.318   0.650   5.788  0.6312 -1.7831 -2.3585
  150SAPE  H17Y16602   1.329   0.826   5.771 -0.9519  0.0519  2.5383
  150SAPE  C31816603   1.351   0.700   5.588  0.5593 -0.3172  1.2896
  150SAPE  H18X16604   1.460   0.718   5.588  0.5337  0.0244 -0.4990
  150SAPE  H18Y16605   1.307   0.751   5.499  1.7864  1.0754  1.4495
  150SAPE  H18Z16606   1.332   0.593   5.563 -3.4386  0.4082  0.5195
  151SAPE     N16607   1.212   6.355   7.657  0.3692  0.1549  0.1007
  151SAPE   HN116608   1.211   6.254   7.682 -2.5210  0.6993  2.7722
  151SAPE   HN216609   1.194   6.403   7.747 -1.5574  0.2147 -0.2794
  151SAPE   HN316610   1.132   6.387   7.598  1.2393  0.7988 -0.7742
  151SAPE   C1216611   1.348   6.395   7.605 -0.2557 -0.3305  0.4484
  151SAPE  H12A16612   1.347   6.505   7.587 -0.4709 -0.5734 -1.2461
  151SAPE  H12B16613   1.345   6.339   7.509 -2.5030  1.8876 -0.9211
  151SAPE   C1116614   1.465   6.362   7.697  0.7340 -0.3683 -0.4559
  151SAPE  H11A16615   1.466   6.435   7.781  0.4141 -1.0631  0.1626
  151SAPE  H11B16616   1.555   6.385   7.636 -0.3396  1.0656 -1.5552
  151SAPE     P16617   1.570   6.150   7.820  0.3283 -0.2159 -0.2875
  151SAPE   O1316618   1.669   6.248   7.880 -0.0145  0.2041 -0.0574
  151SAPE   O1416619   1.497   6.066   7.916 -0.2536 -0.0834  0.1985
  151SAPE   O1216620   1.456   6.224   7.735  0.5482 -0.5004 -0.0037
  151SAPE   O1116621   1.641   6.056   7.717 -0.6504 -0.2048 -0.0766
  151SAPE    C116622   1.570   5.995   7.613  0.0747  1.5206 -0.1546
  151SAPE    HA16623   1.632   5.905   7.596  1.0480  1.6979  2.0505
  151SAPE    HB16624   1.469   5.958   7.644  0.7681  0.7743  1.3034
  151SAPE    C216625   1.567   6.063   7.475  0.4385 -0.4452  0.3743
  151SAPE    HS16626   1.486   6.138   7.488 -0.5228 -1.2719 -0.6186
  151SAPE   O2116627   1.546   5.967   7.365 -0.2029 -1.1776  0.3346
  151SAPE   C2116628   1.430   5.915   7.357  0.0939  0.1932 -0.1677
  151SAPE   O2216629   1.334   5.944   7.428  0.0592  0.1373  0.1961
  151SAPE   C2216630   1.431   5.810   7.248  0.4219 -0.5838  0.6370
  151SAPE   H2R16631   1.512   5.834   7.176  0.8379  1.3853  1.6648
  151SAPE   H2S16632   1.456   5.713   7.295  0.8056 -0.4316  0.7545
  151SAPE    C316633   1.703   6.137   7.454  0.3131  0.1768  0.5925
  151SAPE    HX16634   1.790   6.069   7.461  1.6593  1.7305 -0.1473
  151SAPE    HY16635   1.715   6.213   7.535  0.7269 -2.0968  2.7671
  151SAPE   O3116636   1.706   6.199   7.321  0.5149 -0.6660 -0.6792
  151SAPE   C3116637   1.636   6.309   7.298  0.5737 -0.3374 -0.4885
  151SAPE   O3216638   1.574   6.372   7.377  0.4467 -0.4799 -1.0384
  151SAPE   C3216639   1.646   6.360   7.152 -0.3395 -0.0568 -0.3351
  151SAPE   H2X16640   1.755   6.375   7.141 -0.2442 -0.3417  0.1681
  151SAPE   H2Y16641   1.592   6.457   7.157  0.6984  0.5449 -0.5789
  151SAPE   C2316642   1.294   5.800   7.188  0.4498  0.5280  0.0246
  151SAPE   H3R16643   1.211   5.805   7.261 -0.9638  1.1030 -1.5563
  151SAPE   H3S16644   1.287   5.701   7.137  0.7108  1.3355 -1.6440
  151SAPE   C2416645   1.263   5.903   7.075 -0.1359  0.6813 -0.3462
  151SAPE   H4R16646   1.358   5.928   7.023 -0.1223 -0.0222 -0.6538
  151SAPE   H4S16647   1.207   5.990   7.116 -1.3046  0.4484 -1.3922
  151SAPE   C2516648   1.165   5.835   6.979 -0.0419 -1.1702 -0.1420
  151SAPE   H5R16649   1.068   5.811   7.025 -0.5604 -0.6657 -0.9463
  151SAPE   C2616650   1.184   5.820   6.843  0.2455  0.1955  0.6086
  151SAPE   H6R16651   1.103   5.786   6.777  0.9157 -2.2882  0.9556
  151SAPE   C2716652   1.314   5.836   6.769  0.1942 -0.5728 -0.3536
  151SAPE   H7R16653   1.402   5.816   6.834  0.8358  0.9458 -0.6932
  151SAPE   H7S16654   1.334   5.944   6.748 -3.6994 -0.0189 -2.0390
  151SAPE   C2816655   1.320   5.740   6.654  0.6320 -0.2466 -0.0951
  151SAPE   H8R16656   1.375   5.645   6.665 -1.8835 -1.8135 -0.2679
  151SAPE   C2916657   1.282   5.774   6.529 -0.5765 -0.5857 -1.1018
  151SAPE   H9R16658   1.296   5.698   6.451 -0.0011 -0.2688 -1.3117
  151SAPE  C21016659   1.227   5.901   6.486 -0.8006  0.2738  0.5873
  151SAPE  H10R16660   1.315   5.955   6.446  0.0639 -1.3587  0.1937
  151SAPE  H10S16661   1.164   5.952   6.562 -2.3157 -0.3024 -0.2261
  151SAPE  C21116662   1.127   5.877   6.381  0.3761  0.4787 -0.8237
  151SAPE  H11R16663   1.035   5.829   6.420  0.3907  1.1612  0.0633
  151SAPE  C21216664   1.140   5.908   6.250 -0.0496  0.5418  0.2323
  151SAPE  H12R16665   1.052   5.891   6.186 -0.2778  2.0650  0.1129
  151SAPE  C21316666   1.265   5.952   6.181 -0.1488  0.1485  0.9417
  151SAPE  H13R16667   1.271   5.895   6.086 -5.0426  3.4374 -1.8048
  151SAPE  H13S16668   1.355   5.924   6.240  0.0204 -2.6852 -0.4801
  151SAPE  C21416669   1.266   6.092   6.143 -0.0431 -0.0663  0.2644
  151SAPE  H14R16670   1.260   6.161   6.228 -0.1184 -1.1465  1.1561
  151SAPE  C21516671   1.273   6.142   6.017  0.2095  0.7210 -0.0531
  151SAPE  H15R16672   1.273   6.252   6.011 -1.3969  0.6624 -2.2626
  151SAPE  C21616673   1.285   6.064   5.887 -0.6779  0.0557  0.2660
  151SAPE  H16R16674   1.186   6.066   5.836 -0.8407 -0.1285  0.5658
  151SAPE  H16S16675   1.327   5.962   5.903  2.7872  1.3912  0.3306
  151SAPE  C21716676   1.381   6.146   5.804  0.0912  0.5027 -0.3174
  151SAPE  H17R16677   1.480   6.165   5.850  0.3327 -0.3147 -0.4857
  151SAPE  H17S16678   1.333   6.245   5.785 -2.4784 -0.4656  0.6938
  151SAPE  C21816679   1.401   6.085   5.664 -0.2193  0.3074 -0.6801
  151SAPE  H18R16680   1.450   5.986   5.669  0.6803  0.8046  0.8598
  151SAPE  H18S16681   1.473   6.156   5.617  1.3947 -0.2682  0.8096
  151SAPE  C21916682   1.281   6.076   5.563  0.1209  0.7937 -0.1842
  151SAPE  H19R16683   1.277   6.181   5.529 -1.4075  0.9241  0.3204
  151SAPE  H19S16684   1.189   6.053   5.621 -0.0567  0.0858 -0.7264
  151SAPE  C22016685   1.291   5.982   5.441  0.4659 -0.3941 -0.1566
  151SAPE  H20R16686   1.289   5.874   5.467 -1.4990 -0.4540 -0.3782
  151SAPE  H20S16687   1.389   6.000   5.392  0.7317  0.6615  0.7104
  151SAPE  H20T16688   1.210   5.995   5.365 -0.9032 -2.6726  0.8079
  151SAPE   C3316689   1.590   6.259   7.047 -0.0411 -0.7824 -0.8365
  151SAPE   H3X16690   1.514   6.195   7.095  0.4055 -0.4868  0.3132
  151SAPE   H3Y16691   1.673   6.193   7.014 -1.5028 -3.3135  0.3088
  151SAPE   C3416692   1.524   6.343   6.939  0.5781  0.2857  0.9286
  151SAPE   H4X16693   1.595   6.420   6.901  3.1742 -1.7343  1.4041
  151SAPE   H4Y16694   1.434   6.387   6.987  0.2483 -1.4019  1.9355
  151SAPE   C3516695   1.463   6.253   6.828 -0.0425  0.2727  0.1205
  151SAPE   H5X16696   1.376   6.207   6.879  1.0004  0.4931  2.1838
  151SAPE   H5Y16697   1.538   6.173   6.811  1.4682  1.7077 -0.2665
  151SAPE   C3616698   1.415   6.312   6.696  0.4166 -0.4721 -0.9201
  151SAPE   H6X16699   1.338   6.387   6.725  0.5854 -0.7130  0.2282
  151SAPE   H6Y16700   1.359   6.232   6.643 -0.8789 -0.0868 -0.1742
  151SAPE   C3716701   1.537   6.372   6.621  0.1101 -0.4246 -0.4815
  151SAPE   H7X16702   1.618   6.301   6.596  1.6720  0.6369  1.2962
  151SAPE   H7Y16703   1.587   6.444   6.690  1.0591 -1.6266  0.1100
  151SAPE   C3816704   1.478   6.430   6.486  0.5289  0.5877 -0.7516
  151SAPE   H8X16705   1.410   6.510   6.524 -1.5264 -1.9576  1.4144
  151SAPE   H8Y16706   1.406   6.357   6.444 -0.0673  0.0229  1.1484
  151SAPE   C3916707   1.585   6.465   6.390 -0.0638 -0.2300  0.5657
  151SAPE   H9X16708   1.667   6.390   6.399  0.4478  0.1065 -1.0094
  151SAPE   H9Y16709   1.628   6.562   6.420 -1.3018  0.3357  0.5504
  151SAPE  C31016710   1.529   6.480   6.249 -0.4645  0.4444 -0.4648
  151SAPE  H10X16711   1.461   6.568   6.247 -0.3520  0.5275 -0.8545
  151SAPE  H10Y16712   1.473   6.391   6.213 -0.6855  0.7861 -0.9790
  151SAPE  C31116713   1.629   6.524   6.142 -0.4903 -0.8834  0.6408
  151SAPE  H11X16714   1.723   6.466   6.153  2.7405  3.7273  0.3466
  151SAPE  H11Y16715   1.652   6.632   6.156  1.7532 -0.9870 -1.6196
  151SAPE  C31216716   1.581   6.514   6.000  0.1140  0.0924 -0.7288
  151SAPE  H12X16717   1.496   6.586   5.996 -0.6194 -0.7451 -0.6051
  151SAPE  H12Y16718   1.533   6.414   5.995 -0.0939  0.1166  0.4872
  151SAPE  C31316719   1.674   6.550   5.886 -0.4483 -0.0548 -0.5078
  151SAPE  H13X16720   1.735   6.460   5.863 -0.3336 -0.3937  0.9988
  151SAPE  H13Y16721   1.737   6.635   5.921  0.0971 -0.5032 -0.3843
  151SAPE  C31416722   1.613   6.602   5.756 -0.2986 -0.5474 -0.0974
  151SAPE  H14X16723   1.687   6.611   5.674  1.7932 -0.6879  1.7048
  151SAPE  H14Y16724   1.600   6.712   5.767  1.0655 -0.3727 -0.0849
  151SAPE  C31516725   1.490   6.526   5.715 -0.0970 -0.1519  0.2385
  151SAPE  H15X16726   1.422   6.518   5.802  1.1956 -0.2044  1.2798
  151SAPE  H15Y16727   1.513   6.421   5.688 -1.3010 -1.0037  2.3357
  151SAPE  C31616728   1.404   6.588   5.598  0.1231 -0.1160 -0.1078
  151SAPE  H16X16729   1.477   6.625   5.522 -0.1608 -0.7544 -0.7011
  151SAPE  H16Y16730   1.346   6.677   5.633 -0.8432 -0.1912 -1.4095
  151SAPE  C31716731   1.319   6.488   5.525 -0.1139  0.9022 -0.7614
  151SAPE  H17X16732   1.256   6.422   5.590  0.6010 -0.9395 -1.8608
  151SAPE  H17Y16733   1.390   6.413   5.484  1.9430  1.3995  1.6188
  151SAPE  C31816734   1.225   6.560   5.422 -0.1606  0.1243  0.1480
  151SAPE  H18X16735   1.156   6.486   5.375  1.2753 -0.2147 -1.5638
  151SAPE  H18Y16736   1.281   6.612   5.341 -0.4973 -0.6521 -0.5981
  151SAPE  H18Z16737   1.170   6.643   5.470 -0.2819  1.6263 -2.3946
  152SAPE     N16738   2.597   2.677   7.914 -0.0299  0.5804 -0.6180
  152SAPE   HN116739   2.694   2.657   7.880  0.9609 -0.3814  2.4469
  152SAPE   HN216740   2.601   2.733   8.001  0.0556 -1.9942  1.1599
  152SAPE   HN316741   2.554   2.587   7.944 -2.0694  2.3130  2.0953
  152SAPE   C1216742   2.530   2.738   7.794 -0.4093 -0.5054 -0.1532
  152SAPE  H12A16743   2.526   2.846   7.816  3.2826  0.2211 -2.2048
  152SAPE  H12B16744   2.429   2.696   7.776 -1.3635  1.0828  1.2855
  152SAPE   C1116745   2.613   2.694   7.678 -0.0939 -0.0396 -0.1595
  152SAPE  H11A16746   2.566   2.711   7.578 -0.4683 -0.2941 -0.0264
  152SAPE  H11B16747   2.617   2.583   7.677 -2.3130 -0.1467 -0.8626
  152SAPE     P16748   2.797   2.854   7.588  0.0080 -0.1257  0.0413
  152SAPE   O1316749   2.709   2.973   7.591 -0.0430  0.0627  0.2519
  152SAPE   O1416750   2.940   2.884   7.618 -0.1578  0.0839 -0.2141
  152SAPE   O1216751   2.746   2.743   7.688 -0.0251 -0.6804 -0.2281
  152SAPE   O1116752   2.786   2.791   7.440 -0.0512 -0.3043 -0.1245
  152SAPE    C116753   2.882   2.690   7.406 -0.1987  0.1554 -0.0014
  152SAPE    HA16754   2.984   2.733   7.406 -0.2093  0.2233 -1.2183
  152SAPE    HB16755   2.878   2.610   7.483 -0.9377  0.3925  0.2198
  152SAPE    C216756   2.859   2.629   7.263  0.2391 -0.6810 -0.0585
  152SAPE    HS16757   2.950   2.573   7.232  0.0649 -0.0844 -1.8027
  152SAPE   O2116758   2.840   2.738   7.175  0.6819 -0.3224 -0.4216
  152SAPE   C2116759   2.947   2.783   7.118 -0.5411  0.0951 -1.4751
  152SAPE   O2216760   3.063   2.747   7.149  0.3096  0.0513  0.0103
  152SAPE   C2216761   2.909   2.865   7.002  0.2731  0.0291 -0.1186
  152SAPE   H2R16762   2.832   2.807   6.947  2.6439 -0.7269 -2.9452
  152SAPE   H2S16763   2.863   2.956   7.047 -1.8076 -0.8776 -0.2950
  152SAPE    C316764   2.726   2.549   7.268  0.7658  0.1450  0.6584
  152SAPE    HX16765   2.643   2.620   7.287 -0.0866 -0.5121 -0.4529
  152SAPE    HY16766   2.735   2.470   7.346 -4.3393 -1.0347  0.4219
  152SAPE   O3116767   2.702   2.490   7.133 -1.0559 -0.3466 -0.3315
  152SAPE   C3116768   2.579   2.459   7.105  0.3466  0.4037 -0.0658
  152SAPE   O3216769   2.483   2.493   7.174 -0.0632  0.2346  0.2766
  152SAPE   C3216770   2.586   2.377   6.978 -0.2987 -0.2009  0.4039
  152SAPE   H2X16771   2.605   2.270   7.002 -1.3731 -0.5597 -0.2898
  152SAPE   H2Y16772   2.673   2.425   6.927 -1.9792  2.5016 -0.1101
  152SAPE   C2316773   3.022   2.913   6.912 -0.1818  0.0908  0.0223
  152SAPE   H3R16774   3.051   2.822   6.854 -0.1482  0.6687 -0.8909
  152SAPE   H3S16775   3.101   2.948   6.981 -1.6939  1.4840  1.1382
  152SAPE   C2416776   2.977   3.026   6.822  0.2581 -0.4703  0.6272
  152SAPE   H4R16777   3.064   3.077   6.777 -0.0260 -0.4763  0.0537
  152SAPE   H4S16778   2.925   3.106   6.880 -1.8403 -1.0595 -0.3222
  152SAPE   C2516779   2.877   2.978   6.713 -0.1031  0.0548  0.0556
  152SAPE   H5R16780   2.807   2.903   6.754 -2.0668  2.3846  1.1877
  152SAPE   C2616781   2.885   2.994   6.580 -0.2974 -0.6761  0.4181
  152SAPE   H6R16782   2.800   2.964   6.517 -0.6009 -0.9126  0.9235
  152SAPE   C2716783   2.999   3.065   6.508  0.0764  0.3949 -0.8768
  152SAPE   H7R16784   3.052   3.132   6.578 -0.8558  0.5652 -0.3150
  152SAPE   H7S16785   2.967   3.121   6.417 -0.5397 -1.6648 -2.0080
  152SAPE   C2816786   3.088   2.958   6.445  0.2696 -0.8090 -0.5850
  152SAPE   H8R16787   3.083   2.862   6.499 -1.5077 -0.0048  0.8008
  152SAPE   C2916788   3.172   2.974   6.341 -0.4402  0.2731  0.3659
  152SAPE   H9R16789   3.237   2.891   6.311  2.1945  1.2089  2.9760
  152SAPE  C21016790   3.211   3.099   6.270 -0.2519 -0.2393 -0.1821
  152SAPE  H10R16791   3.320   3.088   6.254 -0.0816  0.5044  0.4106
  152SAPE  H10S16792   3.190   3.188   6.333 -2.3674 -1.1656  0.5236
  152SAPE  C21116793   3.132   3.113   6.142  0.3294 -0.6725  0.2801
  152SAPE  H11R16794   3.026   3.130   6.168  0.6312  1.5614  0.2641
  152SAPE  C21216795   3.170   3.094   6.011  0.5210  0.3376  0.4461
  152SAPE  H12R16796   3.088   3.111   5.939  1.1318 -1.3572 -0.7232
  152SAPE  C21316797   3.309   3.071   5.955  0.6719 -0.5803 -0.3524
  152SAPE  H13R16798   3.334   2.964   5.940  1.3453 -0.8463  2.2520
  152SAPE  H13S16799   3.386   3.089   6.033 -1.2201 -1.1812  1.7651
  152SAPE  C21416800   3.335   3.164   5.836  0.3071  0.5263  0.4132
  152SAPE  H14R16801   3.353   3.269   5.862  0.2577  0.8108 -0.6437
  152SAPE  C21516802   3.348   3.116   5.708  0.1346  0.1237  0.2458
  152SAPE  H15R16803   3.361   3.190   5.627 -1.9940  0.4980  0.2021
  152SAPE  C21616804   3.326   2.969   5.670  0.1544 -0.3783  0.8927
  152SAPE  H16R16805   3.342   2.892   5.748  1.7900 -1.5604 -0.5168
  152SAPE  H16S16806   3.414   2.935   5.610  0.3644 -2.0867  2.1032
  152SAPE  C21716807   3.198   2.942   5.605  0.0572 -0.5586  0.2375
  152SAPE  H17R16808   3.118   2.977   5.674 -2.4165 -2.7680 -1.2961
  152SAPE  H17S16809   3.183   2.834   5.587  0.0737 -0.4168 -0.6901
  152SAPE  C21816810   3.181   3.020   5.478  0.7488  0.2798 -0.2020
  152SAPE  H18R16811   3.161   3.125   5.509  1.5645 -0.4652  3.2569
  152SAPE  H18S16812   3.086   2.997   5.424  2.0675 -2.5896 -1.4701
  152SAPE  C21916813   3.301   3.021   5.384  0.1437  0.3395  1.3192
  152SAPE  H19R16814   3.314   2.922   5.336  0.5470 -0.9116  3.8245
  152SAPE  H19S16815   3.398   3.049   5.431  0.8191 -1.5690  1.1604
  152SAPE  C22016816   3.272   3.120   5.270 -0.2022 -1.2650 -0.1382
  152SAPE  H20R16817   3.255   3.220   5.315 -1.0883 -2.3388  2.0930
  152SAPE  H20S16818   3.182   3.087   5.215  0.2911 -1.9059 -0.5678
  152SAPE  H20T16819   3.362   3.130   5.205 -0.5646 -0.7050 -0.5610
  152SAPE   C3316820   2.460   2.374   6.888  0.1288 -0.1635 -0.4336
  152SAPE   H3X16821   2.452   2.467   6.828 -1.6500  0.3479  0.5314
  152SAPE   H3Y16822   2.371   2.381   6.953 -1.2417  3.2038 -2.4272
  152SAPE   C3416823   2.443   2.249   6.804  0.5978 -0.0329 -0.1400
  152SAPE   H4X16824   2.340   2.261   6.763  0.5163  0.0066  0.0731
  152SAPE   H4Y16825   2.451   2.162   6.874  1.1992  1.4668  1.7483
  152SAPE   C3516826   2.554   2.239   6.696  0.0103  0.0802 -0.4959
  152SAPE   H5X16827   2.651   2.218   6.745 -0.4136 -0.9705 -0.0706
  152SAPE   H5Y16828   2.569   2.328   6.631  0.7953 -1.4868 -2.5821
  152SAPE   C3616829   2.539   2.114   6.604  0.0638 -0.0391  0.1649
  152SAPE   H6X16830   2.512   2.028   6.668 -0.2503 -2.6948 -3.2276
  152SAPE   H6Y16831   2.634   2.080   6.559 -1.4379 -0.0730 -3.3629
  152SAPE   C3716832   2.436   2.148   6.493 -0.0455 -0.3350 -0.1022
  152SAPE   H7X16833   2.460   2.243   6.441 -0.7298 -0.2796 -0.3204
  152SAPE   H7Y16834   2.331   2.165   6.525 -0.6369  3.0762 -3.2180
  152SAPE   C3816835   2.427   2.036   6.391 -0.3521 -0.1286  0.4987
  152SAPE   H8X16836   2.358   2.064   6.309  2.7074  1.0197 -1.9083
  152SAPE   H8Y16837   2.391   1.944   6.441  0.0151  0.0103  1.0356
  152SAPE   C3916838   2.560   1.990   6.328 -0.1147  0.7009 -0.2307
  152SAPE   H9X16839   2.542   1.907   6.257  1.2001 -0.7208  1.0444
  152SAPE   H9Y16840   2.633   1.950   6.401  2.2165  2.1855 -1.6238
  152SAPE  C31016841   2.625   2.100   6.248 -0.5591  0.2784 -0.4863
  152SAPE  H10X16842   2.722   2.054   6.221 -1.1562 -1.9937  0.9695
  152SAPE  H10Y16843   2.651   2.187   6.312  2.2156 -1.3101  0.7356
  152SAPE  C31116844   2.538   2.156   6.130 -0.5841 -0.5085 -0.0442
  152SAPE  H11X16845   2.450   2.217   6.160 -0.7393 -0.7023 -0.0951
  152SAPE  H11Y16846   2.481   2.071   6.086 -3.5672  1.1989  0.2083
  152SAPE  C31216847   2.618   2.218   6.007  0.6061 -0.1658 -0.4697
  152SAPE  H12X16848   2.706   2.156   5.979  1.6183 -0.4190  2.8474
  152SAPE  H12Y16849   2.664   2.312   6.044  1.6368 -1.7423  2.5938
  152SAPE  C31316850   2.524   2.244   5.882  0.0793 -0.0862 -0.5445
  152SAPE  H13X16851   2.418   2.227   5.909 -0.0796 -0.3578 -1.3135
  152SAPE  H13Y16852   2.553   2.161   5.814 -0.9956 -1.0870  0.1816
  152SAPE  C31416853   2.554   2.374   5.801  0.6305  0.1262 -0.3990
  152SAPE  H14X16854   2.663   2.392   5.787  0.4138  2.0207  0.1210
  152SAPE  H14Y16855   2.508   2.450   5.867 -2.4630 -3.0665  1.5164
  152SAPE  C31516856   2.491   2.361   5.662  0.1779 -0.2953  0.8557
  152SAPE  H15X16857   2.392   2.316   5.681  0.8397 -1.4726  1.6712
  152SAPE  H15Y16858   2.543   2.293   5.591 -0.3303 -0.9390  1.0875
  152SAPE  C31616859   2.477   2.499   5.579  0.1979 -0.2797 -0.2332
  152SAPE  H16X16860   2.413   2.570   5.634 -0.8431  0.1793 -1.9466
  152SAPE  H16Y16861   2.422   2.485   5.483 -3.3871  0.2912  1.5603
  152SAPE  C31716862   2.614   2.562   5.545  0.7437  0.2824 -0.4819
  152SAPE  H17X16863   2.678   2.471   5.536 -1.2498 -1.0175 -2.6674
  152SAPE  H17Y16864   2.639   2.622   5.635 -0.7219 -2.1176  1.6748
  152SAPE  C31816865   2.609   2.655   5.419  0.0210 -0.3994  0.3001
  152SAPE  H18X16866   2.551   2.614   5.334 -0.2314 -0.7673  0.6458
  152SAPE  H18Y16867   2.713   2.673   5.383  0.2078  1.5350  1.6614
  152SAPE  H18Z16868   2.561   2.754   5.433  0.3187 -0.1944 -0.0902
  153SAPE     N16869   3.520   0.721   7.359 -0.0475 -0.3911 -0.5628
  153SAPE   HN116870   3.437   0.690   7.414 -0.8873  0.4570 -1.3146
  153SAPE   HN216871   3.512   0.703   7.257  0.7936  0.1469 -0.7303
  153SAPE   HN316872   3.601   0.663   7.387  1.5189  1.4684 -1.0670
  153SAPE   C1216873   3.536   0.864   7.371 -0.3508 -0.4645  0.4804
  153SAPE  H12A16874   3.623   0.894   7.309  0.9165  0.8232  2.7757
  153SAPE  H12B16875   3.570   0.896   7.471  0.6333  0.9306 -0.2736
  153SAPE   C1116876   3.406   0.942   7.341  0.4067 -0.5519  0.7896
  153SAPE  H11A16877   3.375   0.909   7.240 -2.9794 -1.1220  1.8820
  153SAPE  H11B16878   3.424   1.052   7.340 -2.9777  0.1201 -0.4022
  153SAPE     P16879   3.170   1.005   7.454  0.0285 -0.0343  0.4479
  153SAPE   O1316880   3.091   0.930   7.557  0.2388 -0.0654 -0.1853
  153SAPE   O1416881   3.216   1.142   7.495 -0.4886 -0.3814  0.5640
  153SAPE   O1216882   3.296   0.909   7.430  0.0565 -0.2442 -0.1973
  153SAPE   O1116883   3.087   1.012   7.314  0.6298  0.0013  0.1957
  153SAPE    C116884   3.115   1.099   7.211  0.5566 -0.2653  0.0249
  153SAPE    HA16885   3.196   1.172   7.232 -1.8792  2.8339 -0.5841
  153SAPE    HB16886   3.138   1.042   7.118 -0.3388  1.2481 -1.1619
  153SAPE    C216887   2.988   1.170   7.168 -0.1968  0.1788  0.1899
  153SAPE    HS16888   2.930   1.208   7.254  0.7373  2.8302 -0.2647
  153SAPE   O2116889   2.908   1.066   7.100 -0.2063 -0.5566 -0.1331
  153SAPE   C2116890   2.786   1.109   7.060 -0.3977 -0.0836 -0.6037
  153SAPE   O2216891   2.733   1.212   7.092  0.0490 -0.3404 -0.3875
  153SAPE   C2216892   2.719   0.996   6.987 -0.3288 -0.1875  0.0178
  153SAPE   H2R16893   2.790   0.940   6.923  3.2952  0.3068  3.2228
  153SAPE   H2S16894   2.670   0.925   7.058  2.2826 -0.7628  1.3543
  153SAPE    C316895   3.018   1.277   7.061 -0.9565 -0.0611  0.0368
  153SAPE    HX16896   3.104   1.343   7.086  0.3874 -0.8890 -2.1182
  153SAPE    HY16897   2.933   1.346   7.049 -0.1917  0.9550  0.3213
  153SAPE   O3116898   3.048   1.216   6.932  0.2377 -0.4855  0.0813
  153SAPE   C3116899   3.085   1.299   6.835  0.7441 -0.1579  0.8665
  153SAPE   O3216900   3.091   1.417   6.837  0.1968  0.3776 -0.5087
  153SAPE   C3216901   3.116   1.214   6.704  0.0323 -0.1618  0.0112
  153SAPE   H2X16902   3.038   1.135   6.704  0.1756 -0.3050 -0.3026
  153SAPE   H2Y16903   3.217   1.167   6.704 -0.9795 -2.5253 -1.4997
  153SAPE   C2316904   2.598   1.053   6.905 -0.0827 -0.4245  0.5368
  153SAPE   H3R16905   2.519   1.099   6.967  0.3638  1.1409 -0.0009
  153SAPE   H3S16906   2.549   0.964   6.859  1.5918 -0.4665 -1.3376
  153SAPE   C2416907   2.631   1.140   6.786  0.8596 -0.0053 -0.1033
  153SAPE   H4R16908   2.728   1.107   6.742  0.7547  1.1562 -1.2603
  153SAPE   H4S16909   2.643   1.241   6.830  0.7523 -0.0947  0.1352
  153SAPE   C2516910   2.516   1.126   6.680 -0.2279 -0.0341  0.2433
  153SAPE   H5R16911   2.415   1.164   6.704 -1.6775 -2.8033 -1.0278
  153SAPE   C2616912   2.527   1.074   6.557 -0.9586  0.4760  0.6293
  153SAPE   H6R16913   2.443   1.061   6.486  0.3708 -0.9656 -0.7732
  153SAPE   C2716914   2.653   1.029   6.494 -0.6817 -0.0911  0.0140
  153SAPE   H7R16915   2.740   1.048   6.561  0.4561 -0.5991 -1.2583
  153SAPE   H7S16916   2.664   1.091   6.402  0.9513 -1.0209 -0.4701
  153SAPE   C2816917   2.650   0.884   6.469 -0.0956  0.1481 -0.3972
  153SAPE   H8R16918   2.645   0.820   6.558 -0.5423  0.5324 -0.1352
  153SAPE   C2916919   2.663   0.826   6.351 -0.0879 -0.2127 -0.9794
  153SAPE   H9R16920   2.661   0.717   6.343 -2.1558 -0.1437 -2.4833
  153SAPE  C21016921   2.643   0.897   6.220 -0.1943 -0.0429  0.4689
  153SAPE  H10R16922   2.580   0.988   6.205  0.3616 -0.0719 -3.0780
  153SAPE  H10S16923   2.571   0.840   6.158 -1.3842 -0.0219  1.7943
  153SAPE  C21116924   2.774   0.905   6.142  0.3363 -0.2092 -0.8866
  153SAPE  H11R16925   2.820   1.004   6.149  2.2944 -1.1903  2.5984
  153SAPE  C21216926   2.821   0.820   6.044 -0.7782 -0.4371 -0.1018
  153SAPE  H12R16927   2.919   0.843   6.001 -2.0358  2.1527 -1.8169
  153SAPE  C21316928   2.766   0.689   5.991  0.0625 -0.4425  0.1742
  153SAPE  H13R16929   2.714   0.706   5.894  0.9267  0.8502 -0.0852
  153SAPE  H13S16930   2.688   0.650   6.059  0.5297 -1.3423  0.2042
  153SAPE  C21416931   2.870   0.580   5.967 -0.1044  0.6647 -0.0507
  153SAPE  H14R16932   2.924   0.592   5.872  0.5405 -0.6110  0.1334
  153SAPE  C21516933   2.891   0.480   6.051 -0.5741  0.0489  0.4699
  153SAPE  H15R16934   2.958   0.400   6.019  0.0767 -0.1337  2.1951
  153SAPE  C21616935   2.820   0.452   6.177 -0.1183  0.0707  0.6429
  153SAPE  H16R16936   2.834   0.342   6.190 -0.4017  0.0641  0.9074
  153SAPE  H16S16937   2.712   0.473   6.162  0.2299  2.0011  0.5607
  153SAPE  C21716938   2.881   0.523   6.296  0.3603 -0.3809 -0.3606
  153SAPE  H17R16939   2.873   0.634   6.290 -0.2430 -0.4882 -2.0688
  153SAPE  H17S16940   2.987   0.490   6.305 -0.6533 -4.2674 -1.0425
  153SAPE  C21816941   2.814   0.473   6.419 -0.4590 -0.1255 -0.5256
  153SAPE  H18R16942   2.788   0.366   6.408  4.3192 -1.5848  0.1472
  153SAPE  H18S16943   2.716   0.524   6.431  0.0415  0.9148 -0.6666
  153SAPE  C21916944   2.900   0.469   6.546 -0.4792 -0.0028 -0.2163
  153SAPE  H19R16945   2.944   0.569   6.568 -0.5717 -0.6339  3.6649
  153SAPE  H19S16946   2.989   0.403   6.539 -1.4565 -1.3870 -0.0166
  153SAPE  C22016947   2.827   0.431   6.673 -0.5084  0.9023  0.2641
  153SAPE  H20R16948   2.895   0.403   6.756  0.2897 -1.5527 -1.1212
  153SAPE  H20S16949   2.785   0.329   6.655  1.1197  0.2898 -0.2229
  153SAPE  H20T16950   2.744   0.499   6.703 -1.2427 -1.1445  3.3832
  153SAPE   C3316951   3.119   1.301   6.584  0.2088  0.0367  0.2319
  153SAPE   H3X16952   3.223   1.339   6.576  0.0461  0.3948 -0.1933
  153SAPE   H3Y16953   3.068   1.398   6.595  2.6779  1.8675 -2.6523
  153SAPE   C3416954   3.066   1.221   6.465 -0.4308  0.2035 -0.0867
  153SAPE   H4X16955   2.960   1.193   6.485 -0.1261 -0.6451  0.3730
  153SAPE   H4Y16956   3.138   1.138   6.449  0.6909  1.2063 -0.4007
  153SAPE   C3516957   3.064   1.309   6.340 -0.4995  0.0075 -0.0886
  153SAPE   H5X16958   3.152   1.374   6.320  0.3949 -1.4431 -1.0860
  153SAPE   H5Y16959   2.974   1.374   6.349  0.4332  1.1704  1.0480
  153SAPE   C3616960   3.053   1.227   6.213  0.3917  0.6154 -0.4179
  153SAPE   H6X16961   2.967   1.158   6.212  0.0303  1.0060  1.1360
  153SAPE   H6Y16962   3.139   1.159   6.194 -0.2163 -0.0808 -0.7097
  153SAPE   C3716963   3.027   1.316   6.095 -0.6470 -0.5520  0.2295
  153SAPE   H7X16964   3.121   1.373   6.074 -0.6648 -1.2189 -1.8737
  153SAPE   H7Y16965   2.944   1.384   6.125 -0.4659  0.8335 -2.0820
  153SAPE   C3816966   2.993   1.228   5.966 -0.8807  1.2841 -0.0938
  153SAPE   H8X16967   2.975   1.291   5.876 -1.0643  2.3164  0.6519
  153SAPE   H8Y16968   2.900   1.170   5.988 -0.2673 -0.3782 -1.6484
  153SAPE   C3916969   3.109   1.132   5.924 -0.2586  0.8317 -0.3353
  153SAPE   H9X16970   3.112   1.053   6.002  0.7163  2.0746  0.9300
  153SAPE   H9Y16971   3.203   1.190   5.926 -0.6859  1.5406  0.9491
  153SAPE  C31016972   3.095   1.076   5.774  0.2564 -0.0472 -0.3035
  153SAPE  H10X16973   3.186   1.016   5.755  0.0138 -0.0183 -1.7148
  153SAPE  H10Y16974   3.089   1.164   5.706 -1.0780  1.6859  1.8886
  153SAPE  C31116975   2.968   0.990   5.743 -0.2231 -0.8068  0.4701
  153SAPE  H11X16976   2.887   1.034   5.805  1.6659  0.6879  2.0177
  153SAPE  H11Y16977   2.986   0.887   5.779  3.7580 -0.9187 -1.3533
  153SAPE  C31216978   2.917   0.983   5.591  0.0379 -0.0979  0.1501
  153SAPE  H12X16979   3.009   0.963   5.531  0.8290  3.5353 -0.0835
  153SAPE  H12Y16980   2.855   1.069   5.559 -3.0417 -1.5051  1.8304
  153SAPE  C31316981   2.827   0.860   5.559 -0.0705 -0.2546 -0.3523
  153SAPE  H13X16982   2.786   0.861   5.456 -2.3632 -0.0764  0.4885
  153SAPE  H13Y16983   2.743   0.865   5.632  1.7168  1.1694  1.7260
  153SAPE  C31416984   2.903   0.724   5.575  0.1578 -0.6081 -0.3190
  153SAPE  H14X16985   2.894   0.688   5.680  0.8876  0.3790  0.0928
  153SAPE  H14Y16986   3.009   0.742   5.549  0.0838 -0.4910 -0.5457
  153SAPE  C31516987   2.864   0.609   5.483  0.0965  0.0740 -0.0841
  153SAPE  H15X16988   2.887   0.642   5.379 -3.3293 -0.8128 -1.2575
  153SAPE  H15Y16989   2.755   0.590   5.490 -0.2812  1.3380 -1.7397
  153SAPE  C31616990   2.950   0.483   5.505 -0.0191 -0.2928 -0.2440
  153SAPE  H16X16991   2.893   0.431   5.585 -1.2079  1.8992  0.4132
  153SAPE  H16Y16992   3.047   0.501   5.554  0.0626  2.1268 -1.1546
  153SAPE  C31716993   2.963   0.397   5.378 -0.3118 -0.1885  0.7067
  153SAPE  H17X16994   2.989   0.460   5.290 -2.6282  0.5720  0.4774
  153SAPE  H17Y16995   2.865   0.351   5.351  0.0752 -0.0540 -1.0510
  153SAPE  C31816996   3.065   0.279   5.399 -0.1181 -0.1107 -0.0929
  153SAPE  H18X16997   3.030   0.208   5.477 -0.8990  1.3126  0.9075
  153SAPE  H18Y16998   3.165   0.324   5.417 -1.1525  2.2383  0.2032
  153SAPE  H18Z16999   3.071   0.220   5.306 -0.2977  1.2022 -0.9593
  154SAPE     N17000   2.216   0.022   7.783 -0.5713  0.3429 -0.0336
  154SAPE   HN117001   2.194   0.009   7.884  1.2448 -1.8822  0.1656
  154SAPE   HN217002   2.314   0.055   7.772  1.3067 -3.6904  2.2428
  154SAPE   HN317003   2.158   0.098   7.744  0.3902  2.7645  2.8703
  154SAPE   C1217004   2.217  -0.110   7.703 -0.3973  0.7255 -0.0332
  154SAPE  H12A17005   2.291  -0.092   7.622 -1.4573  1.8911 -0.7831
  154SAPE  H12B17006   2.115  -0.127   7.662  1.2516 -0.7601 -4.0905
  154SAPE   C1117007   2.258  -0.228   7.799 -0.5186  0.2188 -0.3849
  154SAPE  H11A17008   2.275  -0.321   7.742 -2.5724 -0.5358  0.1217
  154SAPE  H11B17009   2.168  -0.244   7.863  1.0448  2.9447  2.7901
  154SAPE     P17010   2.512  -0.213   7.859  0.2710 -0.1102  0.2497
  154SAPE   O1317011   2.581  -0.100   7.926  0.2788 -0.0429 -0.8735
  154SAPE   O1417012   2.558  -0.345   7.892  0.2873 -0.7990  0.6561
  154SAPE   O1217013   2.359  -0.200   7.892 -0.2220 -0.3175  0.0252
  154SAPE   O1117014   2.523  -0.187   7.706  0.6876  0.3665  0.2540
  154SAPE    C117015   2.644  -0.194   7.635 -0.0621 -0.1613 -0.0213
  154SAPE    HA17016   2.684  -0.090   7.634 -2.8368  1.0062  0.5288
  154SAPE    HB17017   2.718  -0.260   7.684 -1.2220 -4.4095 -3.3691
  154SAPE    C217018   2.633  -0.249   7.496  0.0664  0.0929 -0.2300
  154SAPE    HS17019   2.732  -0.243   7.445 -1.0628 -0.7494 -2.6404
  154SAPE   O2117020   2.544  -0.177   7.417  0.3005  0.1702 -0.2451
  154SAPE   C2117021   2.593  -0.066   7.368 -0.0332  0.2527  0.1011
  154SAPE   O2217022   2.707  -0.026   7.386 -0.2025  0.0081 -1.0615
  154SAPE   C2217023   2.484  -0.008   7.274  0.4759  0.5430 -0.0252
  154SAPE   H2R17024   2.449  -0.093   7.212  3.1187  0.3792 -1.4698
  154SAPE   H2S17025   2.393   0.035   7.320 -0.8829  1.5058 -3.3238
  154SAPE    C317026   2.575  -0.390   7.501  0.4355  0.8025  0.2007
  154SAPE    HX17027   2.484  -0.409   7.561  1.6129  2.5965  2.6886
  154SAPE    HY17028   2.652  -0.447   7.557  2.0086  1.0475 -1.6107
  154SAPE   O3117029   2.567  -0.446   7.374 -0.0320 -0.3185  0.0127
  154SAPE   C3117030   2.684  -0.482   7.319  0.3361 -0.4907  0.3964
  154SAPE   O3217031   2.797  -0.471   7.370  0.5405  0.1650 -0.1594
  154SAPE   C3217032   2.663  -0.537   7.171  0.7419  0.1929 -0.1768
  154SAPE   H2X17033   2.555  -0.566   7.172  0.8269 -0.1650  1.0753
  154SAPE   H2Y17034   2.704  -0.640   7.168  0.6233  0.1590 -0.6577
  154SAPE   C2317035   2.554   0.094   7.175  0.3204 -0.2404  0.5814
  154SAPE   H3R17036   2.627   0.032   7.119 -0.2561  0.3947 -0.9216
  154SAPE   H3S17037   2.612   0.168   7.234  0.7056  1.4994 -1.8404
  154SAPE   C2417038   2.445   0.159   7.087 -0.1196 -0.4036 -0.3942
  154SAPE   H4R17039   2.387   0.229   7.150  1.4792 -0.0278  0.7181
  154SAPE   H4S17040   2.370   0.083   7.053  1.4565 -2.5169  0.6419
  154SAPE   C2517041   2.514   0.232   6.967 -0.4591 -0.2070  0.4051
  154SAPE   H5R17042   2.529   0.339   6.987  2.4233 -1.0130  3.4107
  154SAPE   C2617043   2.539   0.177   6.845 -0.3916 -0.0580 -0.5901
  154SAPE   H6R17044   2.581   0.241   6.765  3.2145 -0.4551  0.8038
  154SAPE   C2717045   2.526   0.033   6.809 -0.2037 -0.8589 -0.5730
  154SAPE   H7R17046   2.421   0.001   6.790 -0.9852  1.8267 -1.3035
  154SAPE   H7S17047   2.564  -0.021   6.897 -1.9600 -0.2233  0.6379
  154SAPE   C2817048   2.618  -0.002   6.693 -0.4533 -0.2306  0.5831
  154SAPE   H8R17049   2.713  -0.050   6.722 -0.8962 -1.8979 -0.5805
  154SAPE   C2917050   2.599   0.034   6.564  1.1907 -0.4475  0.6402
  154SAPE   H9R17051   2.676   0.014   6.489  1.0703  1.6510 -0.1103
  154SAPE  C21017052   2.483   0.118   6.503  0.1675  0.0485  0.0404
  154SAPE  H10R17053   2.517   0.210   6.451 -1.2016 -0.2320 -1.4415
  154SAPE  H10S17054   2.417   0.156   6.583  1.1931  0.5104  0.6834
  154SAPE  C21117055   2.401   0.038   6.402 -0.2218 -0.5334 -0.7719
  154SAPE  H11R17056   2.317  -0.016   6.448  0.2853 -0.3413  0.3906
  154SAPE  C21217057   2.423   0.033   6.268 -1.4438  0.3014  0.2483
  154SAPE  H12R17058   2.351  -0.029   6.213 -1.4705 -0.5928  1.2440
  154SAPE  C21317059   2.543   0.098   6.191 -0.3148 -0.0116  0.1137
  154SAPE  H13R17060   2.632   0.063   6.248 -0.9653  0.1530  1.2574
  154SAPE  H13S17061   2.540   0.208   6.203 -1.2318 -0.2278  2.2909
  154SAPE  C21417062   2.551   0.064   6.042 -0.3075  0.4637  0.1168
  154SAPE  H14R17063   2.541  -0.044   6.023 -0.8498  0.5522 -0.1188
  154SAPE  C21517064   2.554   0.159   5.946 -0.3065  0.2016 -0.3265
  154SAPE  H15R17065   2.546   0.127   5.841 -1.4383 -0.9586  0.0974
  154SAPE  C21617066   2.561   0.304   5.959  0.0528 -0.6988 -0.4057
  154SAPE  H16R17067   2.669   0.324   5.977 -0.2258  0.3354  0.2210
  154SAPE  H16S17068   2.513   0.342   6.052  0.7485 -0.0168 -0.3101
  154SAPE  C21717069   2.505   0.386   5.837 -0.3239  0.2377 -0.4173
  154SAPE  H17R17070   2.565   0.356   5.748 -1.0882 -2.1771 -0.1885
  154SAPE  H17S17071   2.518   0.496   5.843 -2.5910  0.6931 -2.4170
  154SAPE  C21817072   2.354   0.364   5.813 -0.4095  0.3494  0.1643
  154SAPE  H18R17073   2.303   0.384   5.910 -0.1600  2.6907 -0.1462
  154SAPE  H18S17074   2.331   0.255   5.807  0.5985 -0.1245  3.2520
  154SAPE  C21917075   2.302   0.458   5.708 -0.6920 -0.5404 -0.6569
  154SAPE  H19R17076   2.364   0.421   5.624 -0.8743 -1.9267 -0.2093
  154SAPE  H19S17077   2.333   0.559   5.742 -1.8967 -0.1653 -0.6395
  154SAPE  C22017078   2.148   0.449   5.687  0.6286  0.3654  0.2621
  154SAPE  H20R17079   2.118   0.499   5.592 -0.0205  0.3037  0.4274
  154SAPE  H20S17080   2.087   0.488   5.771  0.2184  2.7485 -1.0429
  154SAPE  H20T17081   2.121   0.342   5.680  1.8353  0.1241 -1.1931
  154SAPE   C3317082   2.694  -0.441   7.053 -0.5242  0.1027 -0.3683
  154SAPE   H3X17083   2.804  -0.448   7.037 -0.7638 -3.6312 -1.2828
  154SAPE   H3Y17084   2.657  -0.342   7.087 -1.8323  0.1042 -1.6713
  154SAPE   C3417085   2.630  -0.466   6.923  0.5537 -0.3858  0.4559
  154SAPE   H4X17086   2.519  -0.455   6.926  0.2953 -2.2131 -0.6264
  154SAPE   H4Y17087   2.651  -0.569   6.887  1.6850 -0.0277  0.0557
  154SAPE   C3517088   2.693  -0.376   6.813 -0.8158 -0.5084  0.1776
  154SAPE   H5X17089   2.800  -0.403   6.820 -0.8047 -0.1587  1.6706
  154SAPE   H5Y17090   2.687  -0.270   6.847 -2.3594  0.1173 -1.7753
  154SAPE   C3617091   2.634  -0.390   6.677  0.3508 -0.3474  0.0625
  154SAPE   H6X17092   2.544  -0.326   6.672 -2.0406 -3.5037 -2.9712
  154SAPE   H6Y17093   2.606  -0.498   6.671  2.1943 -0.8140 -0.9816
  154SAPE   C3717094   2.716  -0.344   6.560 -0.7687  0.1387  1.7936
  154SAPE   H7X17095   2.811  -0.397   6.585 -0.4061 -0.4586 -0.5813
  154SAPE   H7Y17096   2.729  -0.234   6.549  0.0273 -0.0869  0.2521
  154SAPE   C3817097   2.663  -0.390   6.421 -0.3594  0.6675  0.0996
  154SAPE   H8X17098   2.558  -0.353   6.416  0.1506  1.9608 -1.9592
  154SAPE   H8Y17099   2.664  -0.501   6.412 -0.5504  0.7063 -0.4322
  154SAPE   C3917100   2.737  -0.334   6.295  0.0802  0.0559 -0.0116
  154SAPE   H9X17101   2.832  -0.392   6.298 -0.2422 -0.4848 -0.0614
  154SAPE   H9Y17102   2.759  -0.225   6.296  1.9483 -0.2867  0.9868
  154SAPE  C31017103   2.651  -0.354   6.167 -0.1932 -0.3296  0.0344
  154SAPE  H10X17104   2.575  -0.276   6.147 -0.1148 -0.1419  0.4474
  154SAPE  H10Y17105   2.606  -0.455   6.172 -0.4212 -0.3908 -2.1283
  154SAPE  C31117106   2.738  -0.358   6.044 -0.6865 -0.2215 -0.0648
  154SAPE  H11X17107   2.814  -0.439   6.031  0.7417  0.8796  1.0982
  154SAPE  H11Y17108   2.798  -0.265   6.031  0.3140 -0.6175  1.4889
  154SAPE  C31217109   2.659  -0.362   5.913  0.5056 -0.5772  0.3075
  154SAPE  H12X17110   2.736  -0.338   5.836  0.5603  0.6806  0.7219
  154SAPE  H12Y17111   2.589  -0.276   5.902  0.2538 -0.5423  1.9036
  154SAPE  C31317112   2.594  -0.489   5.869  0.0929 -0.1281 -0.0408
  154SAPE  H13X17113   2.520  -0.532   5.939  1.1773 -1.2416  0.4646
  154SAPE  H13Y17114   2.670  -0.567   5.848 -0.4380 -1.3111  2.1029
  154SAPE  C31417115   2.528  -0.500   5.728  0.2778 -0.5107  0.3249
  154SAPE  H14X17116   2.496  -0.604   5.705  1.3098 -0.5828 -0.8825
  154SAPE  H14Y17117   2.605  -0.464   5.656 -0.9831 -0.1608 -0.8882
  154SAPE  C31517118   2.401  -0.399   5.713 -0.6166  0.1864  0.2313
  154SAPE  H15X17119   2.432  -0.293   5.720 -0.3271  0.3090 -2.1737
  154SAPE  H15Y17120   2.336  -0.430   5.798 -0.3773  0.0144  0.3514
  154SAPE  C31617121   2.323  -0.420   5.579 -0.5006 -0.0037 -0.2779
  154SAPE  H16X17122   2.277  -0.522   5.583  0.6184 -0.5193 -0.0779
  154SAPE  H16Y17123   2.401  -0.422   5.501  2.0398  1.3323  2.0598
  154SAPE  C31717124   2.221  -0.305   5.545 -0.6849 -0.0971 -0.7163
  154SAPE  H17X17125   2.280  -0.211   5.543 -0.4488 -0.2136  0.2950
  154SAPE  H17Y17126   2.142  -0.295   5.622 -2.8790 -0.6919 -2.7645
  154SAPE  C31817127   2.162  -0.318   5.404 -0.2089  0.1203 -0.0985
  154SAPE  H18X17128   2.238  -0.309   5.323  0.4481 -0.7671  0.4005
  154SAPE  H18Y17129   2.099  -0.228   5.389  0.2011  0.4769  0.3101
  154SAPE  H18Z17130   2.108  -0.415   5.399 -1.7604  0.3853  5.0494
  155SAPE     N17131   1.311   5.531   8.161 -0.5729 -0.3998 -0.4870
  155SAPE   HN117132   1.292   5.443   8.213 -0.3778 -0.2231 -0.1200
  155SAPE   HN217133   1.357   5.596   8.227 -0.9829 -0.3695 -0.2250
  155SAPE   HN317134   1.226   5.582   8.128 -0.5122 -0.4117 -0.6631
  155SAPE   C1217135   1.392   5.504   8.043  0.3304  0.3080  0.7562
  155SAPE  H12A17136   1.382   5.590   7.974 -1.3404  0.9358  1.7228
  155SAPE  H12B17137   1.336   5.425   7.989 -0.3599  1.4714 -0.2610
  155SAPE   C1117138   1.542   5.454   8.069  0.6741 -0.4865 -0.2496
  155SAPE  H11A17139   1.602   5.535   8.115  2.2229 -1.8868  0.2826
  155SAPE  H11B17140   1.599   5.440   7.975 -1.1520 -0.8425 -1.3529
  155SAPE     P17141   1.667   5.262   8.202  0.4632 -0.2416  0.1449
  155SAPE   O1317142   1.765   5.361   8.246  0.2454  0.0412  0.0077
  155SAPE   O1417143   1.625   5.166   8.301 -0.4077  1.2554  0.2908
  155SAPE   O1217144   1.534   5.335   8.150 -0.0814 -0.5107  0.6362
  155SAPE   O1117145   1.714   5.168   8.087 -0.1190  0.2724  0.2098
  155SAPE    C117146   1.619   5.100   8.001 -0.0474 -0.4774 -0.7420
  155SAPE    HA17147   1.597   4.999   8.041 -1.0186  0.8763  2.4473
  155SAPE    HB17148   1.521   5.151   8.010  0.0279 -0.3857 -0.4567
  155SAPE    C217149   1.664   5.103   7.855  0.2489 -0.5550  0.7194
  155SAPE    HS17150   1.760   5.048   7.866 -0.8011 -2.4042  1.2211
  155SAPE   O2117151   1.679   5.240   7.811  0.0615  0.5118  0.2168
  155SAPE   C2117152   1.779   5.272   7.733  0.1043  0.4070  0.6397
  155SAPE   O2217153   1.865   5.192   7.695 -0.2129 -0.6742 -0.3451
  155SAPE   C2217154   1.779   5.415   7.690  0.5863  0.1959  0.3535
  155SAPE   H2R17155   1.681   5.429   7.639  1.8620 -0.2285 -2.3922
  155SAPE   H2S17156   1.791   5.472   7.785  1.2976  1.2718 -0.3623
  155SAPE    C317157   1.590   5.000   7.768 -0.4941 -0.3101 -0.2300
  155SAPE    HX17158   1.487   5.036   7.747 -0.6819  1.5214  3.0899
  155SAPE    HY17159   1.581   4.911   7.833 -0.1720  0.3322  0.7193
  155SAPE   O3117160   1.670   4.957   7.649 -0.0925  0.3285 -0.5410
  155SAPE   C3117161   1.631   5.004   7.533  0.3193 -0.0407  0.0384
  155SAPE   O3217162   1.524   5.066   7.513  0.2043 -0.1660  0.1485
  155SAPE   C3217163   1.738   4.979   7.424 -0.2440 -0.0757  0.8801
  155SAPE   H2X17164   1.813   4.902   7.453  0.5901 -0.8605 -2.8186
  155SAPE   H2Y17165   1.791   5.077   7.421  0.1252 -0.2607  1.2978
  155SAPE   C2317166   1.890   5.445   7.594 -0.3404  0.1192  0.2967
  155SAPE   H3R17167   1.891   5.372   7.510  0.4732  1.7169 -1.1584
  155SAPE   H3S17168   1.991   5.422   7.635  0.7923 -0.0348 -2.3565
  155SAPE   C2417169   1.880   5.581   7.540  0.0756 -0.8991  0.8985
  155SAPE   H4R17170   1.987   5.594   7.511 -0.5579  1.0731 -0.8150
  155SAPE   H4S17171   1.870   5.659   7.618  1.4472  0.0662  0.1560
  155SAPE   C2517172   1.767   5.603   7.443 -0.4292  0.3580 -0.2449
  155SAPE   H5R17173   1.663   5.575   7.465  0.2137 -0.5383  2.0038
  155SAPE   C2617174   1.787   5.656   7.319 -0.5354 -0.8314 -0.1149
  155SAPE   H6R17175   1.695   5.676   7.262 -1.3560  0.6553  1.6315
  155SAPE   C2717176   1.912   5.715   7.261 -1.3615  0.0100  0.5405
  155SAPE   H7R17177   1.957   5.637   7.195  0.2241  1.5401 -0.2649
  155SAPE   H7S17178   1.992   5.745   7.331  0.5668 -3.1013 -0.0996
  155SAPE   C2817179   1.881   5.849   7.194 -0.8558  0.4738 -0.1387
  155SAPE   H8R17180   1.848   5.922   7.271 -1.1547 -0.2180  0.4048
  155SAPE   C2917181   1.858   5.868   7.062 -0.4766  0.1454  0.7363
  155SAPE   H9R17182   1.838   5.972   7.031  0.7451  1.1143  2.9118
  155SAPE  C21017183   1.857   5.756   6.958  0.1300 -0.2613 -0.2676
  155SAPE  H10R17184   1.868   5.653   6.999 -0.1408  0.5560  1.9370
  155SAPE  H10S17185   1.946   5.768   6.892 -1.0383  1.8960 -1.5761
  155SAPE  C21117186   1.729   5.749   6.874 -1.4654 -0.1658 -0.8049
  155SAPE  H11R17187   1.658   5.674   6.913 -0.8111 -0.9673 -1.1255
  155SAPE  C21217188   1.703   5.829   6.776  0.5510  0.1934  0.5320
  155SAPE  H12R17189   1.608   5.825   6.720 -0.0201  1.6646  1.3482
  155SAPE  C21317190   1.787   5.940   6.724 -1.2668 -0.0119  0.0581
  155SAPE  H13R17191   1.848   5.987   6.805 -2.2149 -0.0988  0.8440
  155SAPE  H13S17192   1.734   6.028   6.682  0.8137  0.9615 -0.6672
  155SAPE  C21417193   1.889   5.896   6.619 -0.2820 -0.5622 -0.3177
  155SAPE  H14R17194   1.994   5.904   6.650 -0.7903 -0.3307  1.4482
  155SAPE  C21517195   1.854   5.882   6.490  0.1150 -0.3796  0.3681
  155SAPE  H15R17196   1.928   5.853   6.414 -0.2073 -0.8720  0.2423
  155SAPE  C21617197   1.718   5.859   6.428  0.0102 -0.1146 -0.1297
  155SAPE  H16R17198   1.648   5.820   6.505  0.6275 -0.8130  0.0898
  155SAPE  H16S17199   1.730   5.785   6.346  3.0991 -0.8280  0.8298
  155SAPE  C21717200   1.641   5.988   6.384  0.9698 -0.3506 -0.6284
  155SAPE  H17R17201   1.630   6.058   6.470 -0.6135 -0.5812 -0.6104
  155SAPE  H17S17202   1.537   5.962   6.354  0.8510 -1.3814  0.5839
  155SAPE  C21817203   1.716   6.077   6.282  0.0142  0.4164 -0.3078
  155SAPE  H18R17204   1.822   6.090   6.313  0.1672 -3.2156  1.1415
  155SAPE  H18S17205   1.674   6.180   6.288 -0.9632 -0.0204  0.9491
  155SAPE  C21917206   1.710   6.038   6.136 -0.1069  0.2403  0.2894
  155SAPE  H19R17207   1.602   6.033   6.109  0.0854 -1.9276 -0.2380
  155SAPE  H19S17208   1.764   5.943   6.119  2.8490  1.9663 -0.7134
  155SAPE  C22017209   1.765   6.148   6.049 -0.2937  0.4046  0.4325
  155SAPE  H20R17210   1.785   6.108   5.947 -0.2455  3.3261 -0.8067
  155SAPE  H20S17211   1.852   6.188   6.105  1.4115 -2.6743  0.2391
  155SAPE  H20T17212   1.694   6.229   6.025 -0.4952 -0.3602 -1.8032
  155SAPE   C3317213   1.680   4.948   7.283  0.5678 -0.1892 -0.2347
  155SAPE   H3X17214   1.597   5.022   7.277 -0.2866 -0.6512  3.4326
  155SAPE   H3Y17215   1.639   4.845   7.294  0.9155 -0.0510  3.9554
  155SAPE   C3417216   1.774   4.973   7.174 -0.0856 -0.5935 -0.4039
  155SAPE   H4X17217   1.869   4.918   7.189 -0.6831 -0.9583  2.8275
  155SAPE   H4Y17218   1.801   5.081   7.170 -3.2946  0.3600  0.3284
  155SAPE   C3517219   1.720   4.940   7.037  0.4009  0.1509 -0.3916
  155SAPE   H5X17220   1.613   4.968   7.022  0.1569 -0.7136 -0.3337
  155SAPE   H5Y17221   1.729   4.830   7.023 -0.5548  0.0738 -0.4808
  155SAPE   C3617222   1.794   5.002   6.913  0.7561  0.6549 -0.0026
  155SAPE   H6X17223   1.894   4.958   6.931 -0.1401 -1.6480 -0.3323
  155SAPE   H6Y17224   1.798   5.113   6.919 -0.9436  0.8471 -1.4908
  155SAPE   C3717225   1.737   4.956   6.782 -0.1798 -0.2265 -0.2636
  155SAPE   H7X17226   1.634   4.991   6.758 -0.4342 -1.2864 -0.8043
  155SAPE   H7Y17227   1.726   4.846   6.790  1.5144 -0.5457 -1.7212
  155SAPE   C3817228   1.827   4.992   6.670 -0.0759  0.6042  0.2849
  155SAPE   H8X17229   1.928   4.950   6.688 -0.4452 -0.1613  0.5826
  155SAPE   H8Y17230   1.832   5.103   6.666  1.9552  0.5129 -1.9633
  155SAPE   C3917231   1.761   4.959   6.534  0.0187  0.2698 -0.0310
  155SAPE   H9X17232   1.667   5.017   6.528  0.1276  0.3729 -0.8133
  155SAPE   H9Y17233   1.732   4.852   6.523 -0.0673  0.3159 -0.2516
  155SAPE  C31017234   1.846   4.994   6.416  0.3914  0.4286  0.1067
  155SAPE  H10X17235   1.940   4.935   6.417 -0.2911 -0.6854 -0.0425
  155SAPE  H10Y17236   1.861   5.103   6.431  0.8754  0.6474 -1.7096
  155SAPE  C31117237   1.773   4.960   6.277  0.9179 -0.4503 -0.0394
  155SAPE  H11X17238   1.668   4.998   6.272  0.6112 -1.4112 -1.6693
  155SAPE  H11Y17239   1.775   4.851   6.255  2.3212 -0.0841 -2.0627
  155SAPE  C31217240   1.846   5.030   6.158  0.2134 -0.2041 -0.2278
  155SAPE  H12X17241   1.952   4.998   6.166 -0.1515 -1.5176 -0.4136
  155SAPE  H12Y17242   1.842   5.140   6.150  0.3032 -0.2594 -1.1514
  155SAPE  C31317243   1.791   4.989   6.025  0.0133  0.3483  0.3285
  155SAPE  H13X17244   1.681   5.001   6.035 -0.0005 -0.3302  1.0152
  155SAPE  H13Y17245   1.810   4.883   6.000 -0.6216  0.2644  0.1630
  155SAPE  C31417246   1.832   5.077   5.903  0.1123 -0.5830 -0.3707
  155SAPE  H14X17247   1.942   5.069   5.901  0.2642  0.4906  1.4068
  155SAPE  H14Y17248   1.793   5.176   5.934  0.8977 -0.5533  0.5944
  155SAPE  C31517249   1.784   5.024   5.773  0.1705 -0.3673  0.8734
  155SAPE  H15X17250   1.675   5.044   5.772  0.5083  1.7824 -1.4401
  155SAPE  H15Y17251   1.806   4.916   5.755 -0.8510 -0.3040 -1.0771
  155SAPE  C31617252   1.858   5.098   5.660 -0.0280  0.1167  0.5873
  155SAPE  H16X17253   1.818   5.074   5.559  1.1001 -1.7730  0.5515
  155SAPE  H16Y17254   1.962   5.060   5.658 -0.0873 -0.0260 -0.1792
  155SAPE  C31717255   1.852   5.249   5.673  0.2340 -0.0917  0.3338
  155SAPE  H17X17256   1.891   5.279   5.773  0.4394 -0.6596  0.4281
  155SAPE  H17Y17257   1.748   5.285   5.663 -0.3189 -1.7350 -0.0153
  155SAPE  C31817258   1.946   5.321   5.564  0.3726  0.7095  0.0937
  155SAPE  H18X17259   2.043   5.266   5.559  0.4863  0.9445 -0.3994
  155SAPE  H18Y17260   1.976   5.423   5.596  0.2258 -0.0603  2.9136
  155SAPE  H18Z17261   1.893   5.319   5.466 -2.7464 -0.2114  1.6750
  156SAPE     N17262   4.494   0.310   7.193 -0.5806 -0.6040 -0.0839
  156SAPE   HN117263   4.439   0.263   7.118  0.1874 -1.3354 -0.2062
  156SAPE   HN217264   4.519   0.408   7.167 -1.6080 -0.3502 -0.1588
  156SAPE   HN317265   4.584   0.260   7.207 -0.7655 -1.1426 -0.7695
  156SAPE   C1217266   4.413   0.331   7.315  0.7262  0.3266 -0.1580
  156SAPE  H12A17267   4.478   0.359   7.401 -0.5452  1.8402  0.3630
  156SAPE  H12B17268   4.362   0.236   7.343 -1.1031  1.5326  0.7643
  156SAPE   C1117269   4.291   0.425   7.298 -0.3082 -0.1293 -0.2738
  156SAPE  H11A17270   4.234   0.429   7.393  2.1296  1.7327  1.2249
  156SAPE  H11B17271   4.224   0.391   7.216 -1.2096  2.3167 -0.6468
  156SAPE     P17272   4.289   0.679   7.363 -0.4471 -0.1146 -0.2222
  156SAPE   O1317273   4.146   0.704   7.332 -0.0709  0.5316  0.7304
  156SAPE   O1417274   4.324   0.670   7.508 -0.4325 -0.7198 -0.5306
  156SAPE   O1217275   4.336   0.554   7.274 -0.7029 -0.6652 -0.1073
  156SAPE   O1117276   4.361   0.804   7.299  0.1412  0.1306 -0.2506
  156SAPE    C117277   4.486   0.796   7.238  0.5318 -0.2458 -0.6389
  156SAPE    HA17278   4.533   0.896   7.246 -1.4780  0.6455  0.9066
  156SAPE    HB17279   4.547   0.711   7.275 -0.6376  0.2466  2.7329
  156SAPE    C217280   4.480   0.776   7.082 -0.3203  0.1695 -0.9183
  156SAPE    HS17281   4.402   0.699   7.064 -0.8329  1.1262 -3.0470
  156SAPE   O2117282   4.607   0.742   7.035 -0.5947 -0.4956 -0.2792
  156SAPE   C2117283   4.641   0.611   7.049 -0.0902 -0.8814  0.4032
  156SAPE   O2217284   4.559   0.531   7.080  0.3218 -0.0201 -0.1026
  156SAPE   C2217285   4.791   0.591   7.027  0.4436 -0.3548 -0.2241
  156SAPE   H2R17286   4.846   0.681   6.992 -2.0789  0.8420 -1.4134
  156SAPE   H2S17287   4.834   0.570   7.127 -1.2177 -1.1393  0.3683
  156SAPE    C317288   4.425   0.901   7.013  0.0512  0.1383 -0.6134
  156SAPE    HX17289   4.512   0.970   7.007  0.7174 -0.7746 -2.3294
  156SAPE    HY17290   4.343   0.950   7.069  0.6435  0.8041 -0.3102
  156SAPE   O3117291   4.387   0.884   6.878  0.0174  0.2068 -0.3600
  156SAPE   C3117292   4.256   0.876   6.845 -0.1349  0.1624 -0.3918
  156SAPE   O3217293   4.170   0.876   6.930 -0.0861  0.0680  0.2582
  156SAPE   C3217294   4.232   0.872   6.692  0.9202  0.5355  0.5290
  156SAPE   H2X17295   4.298   0.787   6.664  1.1401  0.5258  1.0562
  156SAPE   H2Y17296   4.265   0.964   6.640  1.5624 -0.6393 -1.1902
  156SAPE   C2317297   4.813   0.478   6.920 -0.3831  0.1213 -0.0448
  156SAPE   H3R17298   4.768   0.381   6.952  0.1813 -0.3444 -0.6250
  156SAPE   H3S17299   4.921   0.454   6.932 -0.1708  0.6402 -0.8704
  156SAPE   C2417300   4.766   0.519   6.774 -0.0154  0.4369 -0.1463
  156SAPE   H4R17301   4.655   0.526   6.783  0.0728  0.2148  1.2789
  156SAPE   H4S17302   4.783   0.441   6.696  1.4724  0.3432  0.2409
  156SAPE   C2517303   4.811   0.656   6.733 -0.5910  0.7914  0.1360
  156SAPE   H5R17304   4.905   0.684   6.782 -0.1971  1.4070 -0.9446
  156SAPE   C2617305   4.742   0.742   6.662 -0.2123  0.3871  0.0357
  156SAPE   H6R17306   4.782   0.844   6.654  2.7731 -0.5889  1.1071
  156SAPE   C2717307   4.616   0.713   6.575 -1.1861  0.7314 -0.2464
  156SAPE   H7R17308   4.529   0.743   6.638 -1.6550  0.2252 -0.6373
  156SAPE   H7S17309   4.612   0.603   6.565 -1.5658  0.7200  0.0108
  156SAPE   C2817310   4.575   0.787   6.444 -0.2496  0.1430 -0.1938
  156SAPE   H8R17311   4.480   0.841   6.457 -0.4045 -0.4401  1.3373
  156SAPE   C2917312   4.645   0.774   6.329 -0.5760  1.0273 -0.1147
  156SAPE   H9R17313   4.614   0.830   6.240 -0.0470  0.0745 -0.9103
  156SAPE  C21017314   4.765   0.687   6.304 -0.5675 -0.0382 -0.6376
  156SAPE  H10R17315   4.734   0.588   6.264  1.4426 -0.8954 -0.1678
  156SAPE  H10S17316   4.815   0.656   6.398  1.0001 -0.9023 -1.7131
  156SAPE  C21117317   4.877   0.749   6.223  0.2897 -0.0982  0.5546
  156SAPE  H11R17318   4.951   0.809   6.277 -0.5775  1.5891 -0.0458
  156SAPE  C21217319   4.885   0.745   6.086 -0.1707  0.3305  0.4499
  156SAPE  H12R17320   4.966   0.800   6.036  0.2599 -0.6149  0.0725
  156SAPE  C21317321   4.784   0.678   5.993 -0.6517  0.0051 -0.0430
  156SAPE  H13R17322   4.765   0.737   5.901 -0.9841 -1.5609 -0.9949
  156SAPE  H13S17323   4.689   0.668   6.050  1.3420  2.4413  4.2399
  156SAPE  C21417324   4.834   0.541   5.942  0.3386  0.0729 -0.1104
  156SAPE  H14R17325   4.872   0.466   6.013  1.1831 -1.5955 -2.2065
  156SAPE  C21517326   4.852   0.504   5.813 -1.3670 -0.3978  0.5309
  156SAPE  H15R17327   4.897   0.406   5.795  0.0571  0.4073 -0.4669
  156SAPE  C21617328   4.836   0.580   5.686 -0.1978  0.8428 -0.5272
  156SAPE  H16R17329   4.889   0.536   5.599  1.1554 -1.2754  1.2799
  156SAPE  H16S17330   4.881   0.680   5.705  2.0736 -0.4306  1.1836
  156SAPE  C21717331   4.684   0.607   5.647 -0.1116  0.0941  0.4305
  156SAPE  H17R17332   4.622   0.643   5.732 -1.3411  1.6765 -1.0447
  156SAPE  H17S17333   4.634   0.513   5.615  1.6903 -0.8219  0.2093
  156SAPE  C21817334   4.657   0.697   5.534  0.0695 -0.1901 -0.8454
  156SAPE  H18R17335   4.736   0.690   5.457  0.3553  0.7788 -0.6507
  156SAPE  H18S17336   4.658   0.796   5.583 -1.9163 -1.1073  1.2464
  156SAPE  C21917337   4.518   0.679   5.464  0.1368  0.5086 -0.5866
  156SAPE  H19R17338   4.455   0.743   5.529  0.7790  0.5190  0.0467
  156SAPE  H19S17339   4.484   0.575   5.483 -0.7756  1.1339  1.5125
  156SAPE  C22017340   4.516   0.717   5.317 -0.2799 -0.1611 -0.2971
  156SAPE  H20R17341   4.562   0.817   5.301  1.6699 -1.0095 -0.2025
  156SAPE  H20S17342   4.412   0.714   5.277  0.3543 -1.1951 -1.9297
  156SAPE  H20T17343   4.581   0.641   5.269  0.5632 -0.6507  1.5374
  156SAPE   C3317344   4.086   0.853   6.661 -0.2024 -0.2532 -0.1183
  156SAPE   H3X17345   4.073   0.875   6.553  0.8154  2.1760  0.1888
  156SAPE   H3Y17346   4.019   0.925   6.713  0.6247 -0.0807  0.7408
  156SAPE   C3417347   4.038   0.712   6.698  0.1571 -0.6352  0.0144
  156SAPE   H4X17348   4.025   0.709   6.808  0.4611  2.2784  0.1956
  156SAPE   H4Y17349   4.111   0.630   6.682  1.5792 -0.0608  3.0020
  156SAPE   C3517350   3.904   0.668   6.632  0.2724 -0.3125 -1.0988
  156SAPE   H5X17351   3.838   0.755   6.616  0.4916 -0.0220 -0.4670
  156SAPE   H5Y17352   3.851   0.606   6.707  0.3070  1.1151  0.1584
  156SAPE   C3617353   3.929   0.607   6.501  0.2766  1.0713  0.3106
  156SAPE   H6X17354   3.990   0.516   6.516 -0.1107  0.8209  0.3956
  156SAPE   H6Y17355   3.995   0.674   6.442 -1.3525  3.4608  1.0088
  156SAPE   C3717356   3.801   0.562   6.429  0.2887 -0.8333 -0.2915
  156SAPE   H7X17357   3.728   0.646   6.437  1.4379  0.1007  1.1923
  156SAPE   H7Y17358   3.747   0.484   6.487 -0.5971  0.5707  0.8379
  156SAPE   C3817359   3.816   0.536   6.274 -0.1685 -0.4624  0.2045
  156SAPE   H8X17360   3.873   0.442   6.258 -3.7548 -2.6601 -0.7460
  156SAPE   H8Y17361   3.896   0.607   6.242 -0.6986 -0.3084 -0.8062
  156SAPE   C3917362   3.691   0.559   6.189 -0.6191  0.0909  0.5985
  156SAPE   H9X17363   3.634   0.648   6.224 -0.3924 -0.0598  1.3679
  156SAPE   H9Y17364   3.625   0.472   6.207  0.9887 -1.5432 -0.9696
  156SAPE  C31017365   3.719   0.554   6.036 -0.2501 -0.2837 -0.5364
  156SAPE  H10X17366   3.619   0.546   5.988 -0.3307  0.0175 -0.4194
  156SAPE  H10Y17367   3.781   0.466   6.007  2.6324  1.1282  0.9599
  156SAPE  C31117368   3.789   0.683   5.979  0.0668 -0.0644 -0.5024
  156SAPE  H11X17369   3.889   0.684   6.028 -0.8851  1.1686  1.5060
  156SAPE  H11Y17370   3.740   0.775   6.018 -0.8952 -0.5413 -0.5642
  156SAPE  C31217371   3.798   0.697   5.829 -0.4644  0.0172 -0.6984
  156SAPE  H12X17372   3.695   0.694   5.788 -0.6605  0.7844 -0.3010
  156SAPE  H12Y17373   3.839   0.602   5.792  1.3154  0.7655 -0.7256
  156SAPE  C31317374   3.864   0.823   5.782  0.2445 -0.2607 -0.2047
  156SAPE  H13X17375   3.972   0.812   5.801 -0.0961 -4.9668  0.0775
  156SAPE  H13Y17376   3.825   0.894   5.859 -2.6675 -1.8421 -0.0596
  156SAPE  C31417377   3.829   0.882   5.643 -0.6654  0.2700 -0.5766
  156SAPE  H14X17378   3.726   0.924   5.639 -0.8202 -0.1763 -1.7531
  156SAPE  H14Y17379   3.829   0.798   5.570 -1.5580  0.9861 -1.4329
  156SAPE  C31517380   3.925   0.998   5.612  0.0852 -0.1055 -0.4435
  156SAPE  H15X17381   4.028   0.955   5.610  1.1584  2.2941 -2.5881
  156SAPE  H15Y17382   3.931   1.080   5.686  2.1030 -0.1931 -0.4421
  156SAPE  C31617383   3.896   1.056   5.474  0.4645 -0.4085 -0.0544
  156SAPE  H16X17384   3.786   1.071   5.464  0.6610  2.9155  1.3068
  156SAPE  H16Y17385   3.921   0.986   5.391 -1.9100 -1.3434 -0.0566
  156SAPE  C31717386   3.949   1.199   5.457 -0.1019 -0.0743  0.2000
  156SAPE  H17X17387   4.060   1.203   5.450 -0.0922 -1.2663 -0.7742
  156SAPE  H17Y17388   3.928   1.265   5.543  0.2231  0.9307 -0.4745
  156SAPE  C31817389   3.896   1.264   5.331  0.5218 -0.5970  0.1955
  156SAPE  H18X17390   3.904   1.208   5.235 -1.2134 -0.2393 -0.1978
  156SAPE  H18Y17391   3.944   1.363   5.320 -0.5205 -0.0576  0.3550
  156SAPE  H18Z17392   3.787   1.286   5.331  0.6536  0.1264  1.2135
  157SAPE     N17393   4.208   3.224   7.224 -0.2925  0.5008  0.1272
  157SAPE   HN117394   4.146   3.302   7.253  0.3234  0.9591  0.2380
  157SAPE   HN217395   4.292   3.262   7.176  0.4310 -0.5131  0.5704
  157SAPE   HN317396   4.156   3.161   7.159 -2.1538  2.6039 -0.5504
  157SAPE   C1217397   4.259   3.155   7.351 -0.1648  0.5308 -0.0674
  157SAPE  H12A17398   4.351   3.103   7.318  0.5727  1.6311  0.1735
  157SAPE  H12B17399   4.183   3.086   7.392  1.4176  0.5023  3.1187
  157SAPE   C1117400   4.304   3.263   7.451  0.4163  0.2595 -0.0279
  157SAPE  H11A17401   4.387   3.331   7.425 -0.1379  1.8036  1.9945
  157SAPE  H11B17402   4.345   3.208   7.537  0.1054 -1.9481 -1.2098
  157SAPE     P17403   4.191   3.495   7.492 -0.0957  0.2799  0.1478
  157SAPE   O1317404   4.054   3.535   7.529  0.1806 -0.4412 -0.1288
  157SAPE   O1417405   4.306   3.548   7.566 -0.0976 -0.0553  0.0172
  157SAPE   O1217406   4.187   3.334   7.485  0.2247 -0.0858  0.3874
  157SAPE   O1117407   4.209   3.518   7.339 -0.2439 -0.0983  0.4184
  157SAPE    C117408   4.315   3.614   7.301  0.0929  0.4090  0.0808
  157SAPE    HA17409   4.344   3.690   7.378  1.0550  1.2887 -1.0976
  157SAPE    HB17410   4.406   3.555   7.276 -0.2971 -0.2873  0.2837
  157SAPE    C217411   4.284   3.695   7.164  0.6483 -0.3460 -0.7268
  157SAPE    HS17412   4.365   3.771   7.155 -0.2407  1.0558  2.0814
  157SAPE   O2117413   4.162   3.767   7.160 -0.0124  0.7903 -0.4962
  157SAPE   C2117414   4.139   3.849   7.258 -0.7979 -0.2266 -0.0902
  157SAPE   O2217415   4.222   3.882   7.343  0.3898 -0.1633  0.1742
  157SAPE   C2217416   4.005   3.910   7.245  1.2901  0.0678  0.6403
  157SAPE   H2R17417   3.934   3.825   7.247  0.8967  0.4033  1.3399
  157SAPE   H2S17418   3.988   3.973   7.335  0.0753  0.1854  0.3356
  157SAPE    C317419   4.281   3.602   7.039  0.0172 -0.3240 -0.8169
  157SAPE    HX17420   4.199   3.531   7.061  0.3934 -0.7243 -0.6734
  157SAPE    HY17421   4.372   3.538   7.031  0.0144 -0.1150 -3.0068
  157SAPE   O3117422   4.252   3.671   6.914 -0.1711 -0.0313  0.4449
  157SAPE   C3117423   4.139   3.652   6.860  0.1581 -0.2840 -0.4623
  157SAPE   O3217424   4.059   3.564   6.877 -0.8455  0.3660 -0.1794
  157SAPE   C3217425   4.121   3.769   6.757  0.2670  0.2929 -0.1780
  157SAPE   H2X17426   4.198   3.751   6.680  0.9838 -1.0425  0.8082
  157SAPE   H2Y17427   4.141   3.867   6.805  0.7795  0.8324 -1.4506
  157SAPE   C2317428   3.984   3.981   7.114  0.4353 -0.3715  1.1388
  157SAPE   H3R17429   3.880   4.020   7.113  1.0777  1.4135  0.4672
  157SAPE   H3S17430   4.000   3.909   7.030  1.2363  1.2849 -0.1982
  157SAPE   C2417431   4.087   4.096   7.103  0.2909  0.1315  0.5471
  157SAPE   H4R17432   4.186   4.050   7.123  0.1267 -0.4847 -0.0078
  157SAPE   H4S17433   4.060   4.161   7.188  1.1886 -0.8667  1.6229
  157SAPE   C2517434   4.069   4.160   6.967  0.0981  0.1823 -0.8961
  157SAPE   H5R17435   3.976   4.216   6.950 -0.3355  0.8756  2.8681
  157SAPE   C2617436   4.153   4.144   6.864 -0.5389 -0.6477 -0.4991
  157SAPE   H6R17437   4.128   4.199   6.772 -0.0592  2.7744  1.2458
  157SAPE   C2717438   4.289   4.076   6.854  0.4113 -1.2483 -0.0491
  157SAPE   H7R17439   4.287   3.993   6.780 -0.1009 -0.0872 -1.3576
  157SAPE   H7S17440   4.308   4.026   6.952  0.2563  0.3317  0.8149
  157SAPE   C2817441   4.411   4.166   6.846 -0.1219  0.5102 -0.2343
  157SAPE   H8R17442   4.460   4.201   6.938  0.4857 -0.0927 -0.3135
  157SAPE   C2917443   4.457   4.217   6.731 -0.0800  0.3757  0.1357
  157SAPE   H9R17444   4.543   4.285   6.731  0.1925  0.0475  1.0063
  157SAPE  C21017445   4.375   4.199   6.608 -0.1585  0.0182  0.0153
  157SAPE  H10R17446   4.315   4.293   6.601 -1.2097 -0.4270  2.2275
  157SAPE  H10S17447   4.298   4.121   6.589  0.5822 -0.8886  0.6410
  157SAPE  C21117448   4.455   4.180   6.481  0.3198 -0.6338 -0.1831
  157SAPE  H11R17449   4.563   4.196   6.492  0.1266  1.4707 -0.9861
  157SAPE  C21217450   4.407   4.157   6.357 -0.4339  0.7685  0.5744
  157SAPE  H12R17451   4.475   4.153   6.271  0.9889 -0.7912  1.7047
  157SAPE  C21317452   4.261   4.160   6.328  0.7138 -0.1144  0.3866
  157SAPE  H13R17453   4.240   4.248   6.263 -1.7069 -0.9181 -0.0378
  157SAPE  H13S17454   4.183   4.172   6.405  0.2533 -0.1820 -0.0613
  157SAPE  C21417455   4.235   4.034   6.253  0.9383 -0.3999 -0.1096
  157SAPE  H14R17456   4.230   3.941   6.311 -1.1717 -0.4999 -0.3877
  157SAPE  C21517457   4.226   4.019   6.123  0.3458  0.2116  0.4643
  157SAPE  H15R17458   4.207   3.918   6.084 -0.8434  0.7092 -0.3138
  157SAPE  C21617459   4.239   4.138   6.023 -0.1486  0.4017  0.3849
  157SAPE  H16R17460   4.304   4.217   6.067  0.0512  0.3297  0.2201
  157SAPE  H16S17461   4.143   4.192   6.010  0.1145  1.6217  2.8781
  157SAPE  C21717462   4.296   4.088   5.890 -0.5899 -0.2896 -0.0883
  157SAPE  H17R17463   4.236   3.996   5.872  0.8903 -1.2712 -0.2223
  157SAPE  H17S17464   4.402   4.056   5.904 -0.2342  0.3201 -1.2547
  157SAPE  C21817465   4.263   4.182   5.775  0.1027  0.4227 -0.2185
  157SAPE  H18R17466   4.332   4.269   5.768 -0.5316  0.9836  0.3469
  157SAPE  H18S17467   4.165   4.231   5.791 -0.7069 -1.3739  0.7046
  157SAPE  C21917468   4.268   4.102   5.642  0.5098 -0.0893  0.1003
  157SAPE  H19R17469   4.245   4.174   5.560  1.5709 -1.5174 -1.5198
  157SAPE  H19S17470   4.188   4.026   5.653 -1.3907  1.4823 -1.9048
  157SAPE  C22017471   4.408   4.044   5.616 -0.5578 -0.6363 -0.1348
  157SAPE  H20R17472   4.403   4.023   5.507 -0.5521  1.9481 -0.7043
  157SAPE  H20S17473   4.422   3.959   5.687 -1.1594 -1.2901 -0.7801
  157SAPE  H20T17474   4.485   4.123   5.628 -1.0153 -0.3221  0.8550
  157SAPE   C3317475   3.980   3.776   6.687  0.3586  0.0930 -0.0865
  157SAPE   H3X17476   3.896   3.783   6.761 -2.0857 -0.8711 -2.5801
  157SAPE   H3Y17477   3.974   3.672   6.648 -0.3202  0.7156 -1.7340
  157SAPE   C3417478   3.982   3.885   6.580 -0.1645 -0.0122  0.1664
  157SAPE   H4X17479   4.086   3.920   6.561 -1.6297  3.8724 -2.1184
  157SAPE   H4Y17480   3.924   3.972   6.619 -1.5970 -0.3282 -1.1578
  157SAPE   C3517481   3.907   3.835   6.452 -0.4594 -0.7882  0.5099
  157SAPE   H5X17482   3.807   3.800   6.484 -0.3532 -0.5606  1.0986
  157SAPE   H5Y17483   3.957   3.744   6.413  2.4289  0.4444  1.0930
  157SAPE   C3617484   3.886   3.953   6.349  0.7421  0.4415 -0.0393
  157SAPE   H6X17485   3.975   4.020   6.352  0.5851  0.7024 -0.8749
  157SAPE   H6Y17486   3.791   4.007   6.369  0.8724  0.7560 -0.2535
  157SAPE   C3717487   3.888   3.887   6.209 -0.0905  0.7939  0.2239
  157SAPE   H7X17488   3.806   3.815   6.190  1.0065 -0.5368  0.4235
  157SAPE   H7Y17489   3.982   3.829   6.211 -0.5628  0.0295  0.9647
  157SAPE   C3817490   3.884   3.971   6.085  0.5291 -1.7608  0.8048
  157SAPE   H8X17491   3.951   4.060   6.079 -0.3509 -1.1623 -0.9019
  157SAPE   H8Y17492   3.780   4.011   6.084  1.1080 -0.1476 -0.2072
  157SAPE   C3917493   3.917   3.893   5.963  0.4642 -0.5106  0.9454
  157SAPE   H9X17494   3.877   3.789   5.971 -2.6255  0.5154  0.3526
  157SAPE   H9Y17495   4.026   3.883   5.945  0.2638  1.6145 -2.2427
  157SAPE  C31017496   3.866   3.972   5.839 -0.3587 -0.7153  0.4385
  157SAPE  H10X17497   3.907   4.075   5.829 -0.6932 -0.7119 -1.1815
  157SAPE  H10Y17498   3.757   3.993   5.853  0.2006  1.0162  2.8411
  157SAPE  C31117499   3.896   3.897   5.712 -0.2049  0.2645 -0.5725
  157SAPE  H11X17500   3.858   3.794   5.727 -1.8104  0.9718  0.6015
  157SAPE  H11Y17501   4.005   3.901   5.691 -0.0381 -0.5126  0.0846
  157SAPE  C31217502   3.821   3.954   5.592  0.1237 -0.3235  0.5673
  157SAPE  H12X17503   3.847   4.062   5.597 -1.1872  0.1043 -0.9716
  157SAPE  H12Y17504   3.711   3.953   5.606 -0.3664  0.1465 -2.6104
  157SAPE  C31317505   3.861   3.894   5.460 -0.0761 -0.7365 -0.1058
  157SAPE  H13X17506   3.806   3.799   5.447 -0.9866  0.0616 -2.9832
  157SAPE  H13Y17507   3.972   3.884   5.461  0.1022  0.7741  1.3570
  157SAPE  C31417508   3.829   3.990   5.343 -0.3043  0.2723 -0.1938
  157SAPE  H14X17509   3.883   4.085   5.361  0.6908 -0.1926 -0.6304
  157SAPE  H14Y17510   3.724   4.020   5.362 -0.7396  0.3838 -2.5017
  157SAPE  C31517511   3.848   3.943   5.195  0.4319 -0.0530  0.0861
  157SAPE  H15X17512   3.782   4.001   5.127 -0.5536 -1.2739 -0.0274
  157SAPE  H15Y17513   3.816   3.837   5.183 -0.8277  0.4663 -1.5572
  157SAPE  C31617514   3.993   3.947   5.144 -0.2037  0.2033  0.3331
  157SAPE  H16X17515   4.071   3.931   5.222  0.4018 -1.6772 -0.5865
  157SAPE  H16Y17516   4.017   4.051   5.113  0.8220  0.0295  0.5173
  157SAPE  C31717517   4.006   3.858   5.020 -0.4125 -0.2422  0.4634
  157SAPE  H17X17518   3.989   3.753   5.050  0.3569 -0.6553 -0.4887
  157SAPE  H17Y17519   4.113   3.857   4.990 -0.3020  0.9401  0.7770
  157SAPE  C31817520   3.911   3.889   4.902 -0.1638 -0.3299  0.2765
  157SAPE  H18X17521   3.920   3.997   4.875  0.2072 -0.1267  1.1949
  157SAPE  H18Y17522   3.805   3.864   4.919 -0.3186 -1.0276 -1.4758
  157SAPE  H18Z17523   3.944   3.838   4.809  0.6242  0.6173  0.0148
  158SAPE     N17524   4.664   5.521   7.697  0.1310  0.3319 -0.4019
  158SAPE   HN117525   4.742   5.582   7.729  1.1282 -0.1632 -1.8348
  158SAPE   HN217526   4.705   5.476   7.613  2.1323  2.4601 -0.6823
  158SAPE   HN317527   4.574   5.566   7.669 -0.8882 -2.1047 -1.2889
  158SAPE   C1217528   4.625   5.427   7.810  0.2647 -0.4676  0.2654
  158SAPE  H12A17529   4.610   5.487   7.902 -1.5190  0.7899 -0.7827
  158SAPE  H12B17530   4.709   5.361   7.840  0.7480 -0.3245 -0.7262
  158SAPE   C1117531   4.489   5.355   7.786 -0.4075 -0.1311 -0.7158
  158SAPE  H11A17532   4.447   5.316   7.881  0.7029  1.4975  0.4995
  158SAPE  H11B17533   4.513   5.267   7.723  2.2712 -0.0587  0.0735
  158SAPE     P17534   4.326   5.424   7.593  0.0417 -0.6235 -0.4667
  158SAPE   O1317535   4.246   5.540   7.559  0.2138  0.0550 -0.6447
  158SAPE   O1417536   4.421   5.375   7.497  0.1946  0.6294  0.2927
  158SAPE   O1217537   4.394   5.447   7.729  0.3058  0.0182 -0.0305
  158SAPE   O1117538   4.222   5.311   7.629  0.5786  0.0213 -0.3745
  158SAPE    C117539   4.255   5.171   7.606 -0.4513 -0.5373 -0.8102
  158SAPE    HA17540   4.358   5.141   7.576 -0.7219 -1.7567 -0.5571
  158SAPE    HB17541   4.229   5.120   7.701 -2.9519  0.3679 -0.9242
  158SAPE    C217542   4.147   5.121   7.509  0.8900  0.0504  0.3189
  158SAPE    HS17543   4.137   5.010   7.511  0.6944  0.0663  0.2389
  158SAPE   O2117544   4.168   5.168   7.378  0.0311 -0.5854  0.4728
  158SAPE   C2117545   4.258   5.110   7.298  0.0377  0.2475 -0.1392
  158SAPE   O2217546   4.312   5.003   7.324 -0.1187 -0.2451 -0.2238
  158SAPE   C2217547   4.268   5.177   7.163  0.2145  0.0816  0.1486
  158SAPE   H2R17548   4.207   5.270   7.165  0.6428  0.3591  0.7023
  158SAPE   H2S17549   4.376   5.203   7.166  0.5681 -1.3285  1.0775
  158SAPE    C317550   3.996   5.160   7.540  0.2507 -0.0580 -0.6562
  158SAPE    HX17551   3.997   5.269   7.560 -2.8649  0.1227 -1.0304
  158SAPE    HY17552   3.960   5.122   7.638 -0.5062  1.1357 -0.4580
  158SAPE   O3117553   3.893   5.136   7.438 -0.3413  0.6639  0.8377
  158SAPE   C3117554   3.871   5.001   7.416 -0.1895 -0.3364  1.0539
  158SAPE   O3217555   3.925   4.913   7.472 -0.3164 -0.0937 -0.0765
  158SAPE   C3217556   3.769   4.984   7.300  0.2492  0.1898 -0.3015
  158SAPE   H2X17557   3.722   5.085   7.294  1.9674  1.0951  0.6683
  158SAPE   H2Y17558   3.695   4.905   7.325 -1.4352  1.0072 -2.3662
  158SAPE   C2317559   4.217   5.078   7.052 -0.8267  0.2292  0.5364
  158SAPE   H3R17560   4.106   5.077   7.057 -0.8684  0.1161 -0.3351
  158SAPE   H3S17561   4.246   4.973   7.072 -1.0801 -0.9923 -4.2758
  158SAPE   C2417562   4.268   5.115   6.908  0.7806 -0.2704 -0.2612
  158SAPE   H4R17563   4.378   5.105   6.908  0.7862 -0.4645  1.4097
  158SAPE   H4S17564   4.242   5.219   6.881  1.9305  0.4193  1.1852
  158SAPE   C2517565   4.215   5.026   6.802 -0.1645  0.5926 -0.0127
  158SAPE   H5R17566   4.170   4.933   6.840 -0.9849  1.7922  2.1298
  158SAPE   C2617567   4.244   5.036   6.672  0.2768  0.0181 -0.3043
  158SAPE   H6R17568   4.199   4.968   6.598  3.6167 -0.6351 -1.9251
  158SAPE   C2717569   4.321   5.144   6.617 -0.0882 -0.3470  0.4495
  158SAPE   H7R17570   4.359   5.222   6.687  1.0475 -0.0560 -0.4601
  158SAPE   H7S17571   4.265   5.201   6.540  2.9012  1.1530 -0.7821
  158SAPE   C2817572   4.445   5.093   6.548 -0.1289 -0.2003  0.7054
  158SAPE   H8R17573   4.545   5.090   6.595  0.3811  1.2540 -0.2009
  158SAPE   C2917574   4.455   5.058   6.418 -0.9064  0.3358  0.0499
  158SAPE   H9R17575   4.545   5.008   6.380 -1.5963 -1.0254  0.1629
  158SAPE  C21017576   4.330   5.054   6.333 -0.4883 -0.1550 -0.4028
  158SAPE  H10R17577   4.303   5.160   6.319  0.2849 -0.0539 -1.2090
  158SAPE  H10S17578   4.248   4.997   6.381  0.7152  0.3390  2.4508
  158SAPE  C21117579   4.348   4.979   6.204 -0.4841  0.3549 -0.0060
  158SAPE  H11R17580   4.314   4.875   6.198  0.5098  0.0843 -1.8480
  158SAPE  C21217581   4.409   5.022   6.091  0.0045  0.3461  0.0845
  158SAPE  H12R17582   4.405   4.942   6.016 -1.8415  0.8794 -0.4401
  158SAPE  C21317583   4.482   5.146   6.070 -0.2421 -0.0463  0.6516
  158SAPE  H13R17584   4.461   5.209   6.159 -0.6010  0.2410  0.3675
  158SAPE  H13S17585   4.433   5.209   5.992 -4.0807 -2.4303  0.9384
  158SAPE  C21417586   4.630   5.101   6.049  0.0019  0.3250  0.4491
  158SAPE  H14R17587   4.678   5.039   6.126  0.7344 -1.8189 -1.5996
  158SAPE  C21517588   4.708   5.122   5.936  0.6011 -0.0420  0.4701
  158SAPE  H15R17589   4.810   5.083   5.923  2.3732  3.3504  2.7686
  158SAPE  C21617590   4.653   5.198   5.818 -0.3356 -0.4005 -0.1700
  158SAPE  H16R17591   4.684   5.305   5.812 -0.3754 -0.4498 -1.7489
  158SAPE  H16S17592   4.542   5.196   5.808 -0.5586  1.7174  1.1320
  158SAPE  C21717593   4.722   5.150   5.685  0.1841 -0.4830  0.1437
  158SAPE  H17R17594   4.700   5.041   5.689  3.1348 -1.2304 -1.5790
  158SAPE  H17S17595   4.832   5.164   5.683 -0.0085  2.1513  1.9165
  158SAPE  C21817596   4.664   5.203   5.562 -0.0019 -0.4960 -0.4401
  158SAPE  H18R17597   4.656   5.313   5.574  3.2356 -0.0070 -1.8827
  158SAPE  H18S17598   4.561   5.165   5.543 -1.4355  1.8568  1.9320
  158SAPE  C21917599   4.749   5.169   5.438 -0.1892  0.1213  0.7275
  158SAPE  H19R17600   4.737   5.059   5.426 -0.3829  0.1789  0.3762
  158SAPE  H19S17601   4.855   5.199   5.452 -0.4505  0.5349  1.8652
  158SAPE  C22017602   4.688   5.236   5.319  0.1466 -0.5764  0.1005
  158SAPE  H20R17603   4.581   5.213   5.304  0.1204 -0.3157 -0.1020
  158SAPE  H20S17604   4.736   5.203   5.224 -1.0174 -1.1363 -0.3059
  158SAPE  H20T17605   4.699   5.346   5.327 -1.1846 -0.4129 -0.0884
  158SAPE   C3317606   3.846   4.950   7.170 -0.2509  0.1713 -1.0501
  158SAPE   H3X17607   3.914   4.864   7.186  1.2352  1.5309  0.4511
  158SAPE   H3Y17608   3.921   5.032   7.167 -0.2788  0.2353 -0.2642
  158SAPE   C3417609   3.761   4.941   7.044 -0.4661 -0.5600 -0.7522
  158SAPE   H4X17610   3.686   5.023   7.043  1.4064  1.2847  0.6404
  158SAPE   H4Y17611   3.698   4.849   7.047 -1.7304  0.2486  2.6900
  158SAPE   C3517612   3.857   4.934   6.926  0.4312  0.0522 -0.2067
  158SAPE   H5X17613   3.927   4.850   6.947 -0.1511 -0.0131  1.6157
  158SAPE   H5Y17614   3.921   5.024   6.920  0.0539  0.2517 -1.3779
  158SAPE   C3617615   3.788   4.900   6.794  0.2288 -0.0327  1.1370
  158SAPE   H6X17616   3.692   4.952   6.774 -0.1563 -0.9312  0.5613
  158SAPE   H6Y17617   3.770   4.791   6.805  2.1781 -0.5016  0.1733
  158SAPE   C3717618   3.887   4.913   6.675  0.1710 -0.7259 -1.0239
  158SAPE   H7X17619   3.968   4.841   6.698  1.5332  1.3622  1.1828
  158SAPE   H7Y17620   3.934   5.014   6.670 -0.6923 -0.2571 -0.1155
  158SAPE   C3817621   3.838   4.861   6.540 -0.2266 -0.3818  0.2815
  158SAPE   H8X17622   3.745   4.915   6.512  0.4336 -0.7304 -2.9235
  158SAPE   H8Y17623   3.821   4.752   6.550  0.5675 -0.9162 -3.0877
  158SAPE   C3917624   3.939   4.881   6.430  0.2166  0.0183 -0.2784
  158SAPE   H9X17625   4.024   4.810   6.442 -0.4706 -1.2499 -2.4193
  158SAPE   H9Y17626   3.977   4.984   6.448  0.1993 -0.1818  1.0119
  158SAPE  C31017627   3.886   4.876   6.289 -0.2283 -0.1996 -1.0829
  158SAPE  H10X17628   3.802   4.947   6.276  0.6280  1.2131  0.6767
  158SAPE  H10Y17629   3.848   4.773   6.274  1.8743 -1.3347  0.7691
  158SAPE  C31117630   3.983   4.901   6.172 -0.6750 -0.0246 -0.4397
  158SAPE  H11X17631   4.075   4.839   6.183 -0.0943  1.0191  0.8983
  158SAPE  H11Y17632   4.025   5.003   6.182 -1.5557  0.2091  1.1631
  158SAPE  C31217633   3.914   4.876   6.035 -0.3218 -0.2382 -0.2158
  158SAPE  H12X17634   3.826   4.944   6.035  0.2021  0.4659 -0.4629
  158SAPE  H12Y17635   3.881   4.770   6.033  0.0274 -0.4440  2.0458
  158SAPE  C31317636   4.010   4.899   5.913  0.1180  0.4773 -0.0636
  158SAPE  H13X17637   4.089   4.820   5.914  0.6381  0.9877  1.1464
  158SAPE  H13Y17638   4.051   5.002   5.911  0.5076  0.3127 -0.8838
  158SAPE  C31417639   3.923   4.874   5.788  0.0160  0.4030  0.4486
  158SAPE  H14X17640   3.847   4.954   5.793  0.8058  1.1974  0.0867
  158SAPE  H14Y17641   3.874   4.775   5.798  0.8172 -0.0073  0.4014
  158SAPE  C31517642   4.002   4.869   5.656  0.0390  0.3862 -0.9437
  158SAPE  H15X17643   3.925   4.836   5.583  0.8477 -1.5568 -0.9870
  158SAPE  H15Y17644   4.077   4.787   5.661  0.5623  0.8237 -1.4377
  158SAPE  C31617645   4.051   5.008   5.614  0.1303  0.4027  0.2177
  158SAPE  H16X17646   4.126   5.046   5.687 -0.2596  1.8830 -0.1208
  158SAPE  H16Y17647   3.957   5.066   5.607  0.1400  0.4042  0.1052
  158SAPE  C31717648   4.125   5.015   5.482 -0.1737  0.3937  0.0589
  158SAPE  H17X17649   4.061   4.983   5.397  1.4497 -0.9414 -0.7040
  158SAPE  H17Y17650   4.215   4.951   5.487 -1.3987 -1.5921 -1.5192
  158SAPE  C31817651   4.165   5.159   5.463 -0.6719  0.4440 -0.3147
  158SAPE  H18X17652   4.076   5.225   5.454 -0.5605  1.0082  2.1131
  158SAPE  H18Y17653   4.229   5.163   5.372 -2.9097 -0.0099 -2.0063
  158SAPE  H18Z17654   4.226   5.202   5.545 -1.0311  0.6191 -0.1370
  159SAPE     N17655   3.662   0.927   2.737  0.7767 -0.2066 -0.1477
  159SAPE   HN117656   3.752   0.941   2.788 -0.0468 -2.9900  2.3370
  159SAPE   HN217657   3.625   0.838   2.776  0.3575  0.2271  0.4718
  159SAPE   HN317658   3.659   0.937   2.634 -2.4495 -1.5725 -0.2863
  159SAPE   C1217659   3.567   1.026   2.789  0.3307 -0.1180  0.3026
  159SAPE  H12A17660   3.593   1.128   2.752 -3.0744  0.5420 -0.6034
  159SAPE  H12B17661   3.581   1.025   2.899 -2.1831  0.2226  0.6958
  159SAPE   C1117662   3.420   0.999   2.760  0.5029  0.5370 -0.4169
  159SAPE  H11A17663   3.410   0.989   2.650  1.7414 -1.9363 -0.3880
  159SAPE  H11B17664   3.375   1.092   2.802  0.6026  0.5537 -0.3451
  159SAPE     P17665   3.270   0.897   2.955 -0.3680  0.2474 -0.1016
  159SAPE   O1317666   3.135   0.934   2.908  0.2933 -0.5004 -0.2670
  159SAPE   O1417667   3.268   0.769   3.030  0.0567  0.2190 -0.0298
  159SAPE   O1217668   3.369   0.876   2.826 -0.3571 -0.0751  0.6682
  159SAPE   O1117669   3.332   1.012   3.038 -0.2450  0.7768 -0.5940
  159SAPE    C117670   3.259   1.120   3.098  0.2303  0.3544 -0.1107
  159SAPE    HA17671   3.322   1.209   3.078 -0.7149  0.6750 -1.8711
  159SAPE    HB17672   3.159   1.149   3.061  1.2586  2.8546 -1.1499
  159SAPE    C217673   3.249   1.102   3.252 -0.3002 -0.2816  0.0272
  159SAPE    HS17674   3.244   1.202   3.299 -1.5087  1.9963 -4.3750
  159SAPE   O2117675   3.359   1.021   3.310  0.1682 -0.2628  0.0040
  159SAPE   C2117676   3.472   1.095   3.315 -0.8454  0.8751  0.4187
  159SAPE   O2217677   3.484   1.202   3.262 -0.6625  0.1494  0.3805
  159SAPE   C2217678   3.587   1.011   3.374  0.0341 -0.0100 -0.3790
  159SAPE   H2R17679   3.542   0.932   3.439  1.2545  0.8315  1.6064
  159SAPE   H2S17680   3.633   0.961   3.286  3.3447 -1.9253  2.1970
  159SAPE    C317681   3.113   1.034   3.284  0.2946 -0.7336  0.1066
  159SAPE    HX17682   3.092   0.947   3.218 -1.0394  1.0309 -1.9182
  159SAPE    HY17683   3.036   1.109   3.255  0.6665 -0.8650 -1.2810
  159SAPE   O3117684   3.107   1.009   3.422  0.0981 -0.0481 -0.3433
  159SAPE   C3117685   3.011   0.933   3.463 -0.2073  0.2748 -0.3501
  159SAPE   O3217686   2.931   0.879   3.393 -0.1701 -0.5451  0.1676
  159SAPE   C3217687   3.012   0.912   3.620 -0.1133  0.3503 -0.0961
  159SAPE   H2X17688   3.117   0.933   3.650 -0.1550  1.8125 -0.9106
  159SAPE   H2Y17689   2.990   0.804   3.636 -1.7991  0.7547  0.5026
  159SAPE   C2317690   3.685   1.093   3.465 -0.2753 -0.2472  0.0372
  159SAPE   H3R17691   3.699   1.196   3.426 -2.0791 -0.0360 -0.1254
  159SAPE   H3S17692   3.785   1.049   3.440 -0.2041  0.3265 -0.7169
  159SAPE   C2417693   3.649   1.090   3.612 -0.8783 -0.2306  0.4463
  159SAPE   H4R17694   3.720   1.165   3.651 -0.4187  0.0631 -0.9095
  159SAPE   H4S17695   3.686   0.991   3.647  2.1705  0.3928 -0.7291
  159SAPE   C2517696   3.515   1.126   3.654 -0.2504  0.2180 -0.3558
  159SAPE   H5R17697   3.477   1.226   3.628 -1.5613 -0.5772 -1.7097
  159SAPE   C2617698   3.434   1.036   3.713  0.9748  0.0289  0.2300
  159SAPE   H6R17699   3.335   1.073   3.746  0.6254 -1.8032  1.3963
  159SAPE   C2717700   3.465   0.889   3.737  0.5561 -0.4394  0.3567
  159SAPE   H7R17701   3.552   0.879   3.805  1.1130 -1.2502 -0.4523
  159SAPE   H7S17702   3.492   0.844   3.639  1.2297  0.9622 -0.1322
  159SAPE   C2817703   3.340   0.808   3.774 -0.7335 -0.1884  0.3167
  159SAPE   H8R17704   3.277   0.780   3.688 -2.2188  0.9426  0.9906
  159SAPE   C2917705   3.312   0.762   3.892 -0.0011 -1.0409 -0.2707
  159SAPE   H9R17706   3.212   0.718   3.906 -0.9992  1.5644  1.5270
  159SAPE  C21017707   3.390   0.812   4.017 -0.7702  0.0529  0.0336
  159SAPE  H10R17708   3.424   0.916   4.002  2.8690 -1.1825 -1.4930
  159SAPE  H10S17709   3.484   0.753   4.029  0.0006  0.9920 -1.2233
  159SAPE  C21117710   3.315   0.816   4.151  0.7932  0.1127 -0.2041
  159SAPE  H11R17711   3.221   0.869   4.170  1.7612  0.7318  3.8045
  159SAPE  C21217712   3.347   0.760   4.269 -0.0728 -0.3840 -0.3384
  159SAPE  H12R17713   3.292   0.796   4.357 -1.4866  2.1060 -2.1139
  159SAPE  C21317714   3.474   0.682   4.293  0.8326 -0.6431 -0.6450
  159SAPE  H13R17715   3.552   0.756   4.321 -0.8713  0.7298  0.7227
  159SAPE  H13S17716   3.520   0.633   4.205  0.6679  0.3599 -1.3131
  159SAPE  C21417717   3.445   0.583   4.407  0.0375 -0.0348  0.9875
  159SAPE  H14R17718   3.392   0.496   4.365  2.1155 -0.8194 -0.1107
  159SAPE  C21517719   3.500   0.580   4.528 -0.4329  0.5603  0.0974
  159SAPE  H15R17720   3.494   0.492   4.593 -1.8302  0.5363 -0.0315
  159SAPE  C21617721   3.605   0.669   4.582  0.8049 -1.2632 -0.6455
  159SAPE  H16R17722   3.640   0.751   4.516  0.1437 -0.0439  0.4448
  159SAPE  H16S17723   3.700   0.621   4.613  0.2048 -1.2531  1.3936
  159SAPE  C21717724   3.560   0.745   4.706 -0.5442 -0.4078 -0.0329
  159SAPE  H17R17725   3.462   0.797   4.692 -0.4622  0.0090  0.8438
  159SAPE  H17S17726   3.636   0.824   4.721 -0.8885 -0.3746  1.7477
  159SAPE  C21817727   3.550   0.675   4.837  0.2979  0.0114  0.0433
  159SAPE  H18R17728   3.636   0.606   4.852 -1.1103 -1.3126  2.6492
  159SAPE  H18S17729   3.450   0.627   4.841  0.8358 -1.2398 -0.7890
  159SAPE  C21917730   3.568   0.771   4.962  0.3212 -0.3628  0.3958
  159SAPE  H19R17731   3.475   0.832   4.959  1.2454  1.0614 -0.1272
  159SAPE  H19S17732   3.654   0.837   4.938 -0.7607  0.2919 -2.0473
  159SAPE  C22017733   3.587   0.707   5.094 -0.1165 -0.0784 -0.8464
  159SAPE  H20R17734   3.684   0.653   5.094 -0.6223 -1.0292 -1.4845
  159SAPE  H20S17735   3.501   0.638   5.110 -0.7874  0.4071 -2.2345
  159SAPE  H20T17736   3.590   0.784   5.173 -0.1762 -1.3537  0.4514
  159SAPE   C3317737   2.901   0.992   3.700  0.2958 -0.0585 -0.5130
  159SAPE   H3X17738   2.803   0.946   3.676  1.0693 -1.9246 -0.2793
  159SAPE   H3Y17739   2.905   1.100   3.674 -0.8435  0.9493  3.0039
  159SAPE   C3417740   2.919   0.975   3.849 -0.3022  0.5705  0.1196
  159SAPE   H4X17741   3.015   1.023   3.878  1.1511 -0.9589 -1.8064
  159SAPE   H4Y17742   2.933   0.870   3.882 -2.8317  0.5429  1.2885
  159SAPE   C3517743   2.812   1.026   3.939  0.3305  0.1305 -0.2694
  159SAPE   H5X17744   2.727   0.954   3.932  0.8703 -0.7429  1.4800
  159SAPE   H5Y17745   2.778   1.124   3.900  0.0268 -0.4543 -1.5083
  159SAPE   C3617746   2.854   1.047   4.086 -0.0463 -0.2867  0.0392
  159SAPE   H6X17747   2.762   1.065   4.146 -0.2397 -0.8715 -0.0826
  159SAPE   H6Y17748   2.924   1.133   4.079 -2.2013  1.4177 -2.5710
  159SAPE   C3717749   2.915   0.926   4.157  0.2956  0.0875  0.4133
  159SAPE   H7X17750   3.004   0.897   4.097  0.5760 -0.1470  0.9400
  159SAPE   H7Y17751   2.842   0.843   4.151  1.2199 -0.8884  2.1107
  159SAPE   C3817752   2.947   0.954   4.306  0.2732  0.0948 -0.3207
  159SAPE   H8X17753   3.003   0.868   4.348 -0.4568 -0.7141 -0.9681
  159SAPE   H8Y17754   2.860   0.964   4.375  1.4180 -1.4394  1.4434
  159SAPE   C3917755   3.031   1.079   4.319  0.3735 -0.1716  0.7773
  159SAPE   H9X17756   2.956   1.162   4.314 -0.5903 -1.0171  0.8569
  159SAPE   H9Y17757   3.095   1.089   4.229  1.2410  1.1336  1.5063
  159SAPE  C31017758   3.114   1.090   4.448 -0.0457 -0.0957 -0.2396
  159SAPE  H10X17759   3.163   0.992   4.461 -0.3060  0.0260  2.2185
  159SAPE  H10Y17760   3.052   1.085   4.540  0.0616  3.1574  0.1329
  159SAPE  C31117761   3.210   1.209   4.454  0.0973 -0.1006 -0.2328
  159SAPE  H11X17762   3.156   1.305   4.466  1.0636  0.3761  0.4229
  159SAPE  H11Y17763   3.261   1.210   4.355 -0.4150  2.1338 -0.5319
  159SAPE  C31217764   3.326   1.180   4.563  0.3975 -0.4802  0.2946
  159SAPE  H12X17765   3.415   1.241   4.537 -0.3493  1.4791  2.0582
  159SAPE  H12Y17766   3.358   1.076   4.540  1.3236  0.0125 -0.7758
  159SAPE  C31317767   3.272   1.174   4.704  0.8169 -0.3035 -0.3664
  159SAPE  H13X17768   3.172   1.125   4.708  1.1044 -0.8728  0.0754
  159SAPE  H13Y17769   3.277   1.278   4.743  3.3164 -0.4549 -0.1223
  159SAPE  C31417770   3.361   1.081   4.791  0.7418 -0.0613 -0.1202
  159SAPE  H14X17771   3.367   0.986   4.732 -1.0050 -0.9413  1.0385
  159SAPE  H14Y17772   3.303   1.049   4.880  0.2309  0.6791 -0.1797
  159SAPE  C31517773   3.501   1.132   4.820 -0.3475  0.5726 -0.3873
  159SAPE  H15X17774   3.564   1.110   4.730  0.5036 -1.3470  0.6189
  159SAPE  H15Y17775   3.538   1.061   4.897 -1.0398 -1.9007 -2.2135
  159SAPE  C31617776   3.513   1.267   4.891  0.2478 -0.1376  0.2400
  159SAPE  H16X17777   3.435   1.278   4.970  2.8970  3.7683  2.6050
  159SAPE  H16Y17778   3.496   1.341   4.811 -0.7035 -0.9238 -0.3157
  159SAPE  C31717779   3.640   1.297   4.966 -0.0238 -0.2375 -0.6232
  159SAPE  H17X17780   3.716   1.261   4.894  1.8850 -2.3622  2.2137
  159SAPE  H17Y17781   3.656   1.222   5.047  0.3011  0.4467 -0.0342
  159SAPE  C31817782   3.652   1.442   5.014  0.1637 -0.3783  0.2222
  159SAPE  H18X17783   3.618   1.511   4.933  2.3462  2.3946  1.5041
  159SAPE  H18Y17784   3.755   1.458   5.054  0.0721  0.8771 -0.0023
  159SAPE  H18Z17785   3.577   1.461   5.094  1.1045  4.6866  0.2318
  160SAPE     N17786   6.231   4.787   2.879  0.4228  0.0808 -0.1414
  160SAPE   HN117787   6.230   4.705   2.815 -1.0234 -1.2472  1.4603
  160SAPE   HN217788   6.186   4.872   2.838  2.5492  1.6926  0.6956
  160SAPE   HN317789   6.332   4.809   2.885  0.6430 -0.7319 -0.8256
  160SAPE   C1217790   6.171   4.742   3.010 -0.2482 -0.8601 -0.4959
  160SAPE  H12A17791   6.076   4.688   2.993 -1.4807  0.7903  0.8742
  160SAPE  H12B17792   6.141   4.835   3.063 -2.2774 -1.8426  0.1601
  160SAPE   C1117793   6.265   4.648   3.085 -0.1421 -0.1575 -0.2038
  160SAPE  H11A17794   6.258   4.542   3.054 -2.0679  0.7209 -3.1893
  160SAPE  H11B17795   6.246   4.647   3.195  2.2785 -1.1928  0.2557
  160SAPE     P17796   6.510   4.624   3.014 -0.1037 -0.3956  0.2763
  160SAPE   O1317797   6.481   4.623   2.868  0.1446 -0.2443  0.1179
  160SAPE   O1417798   6.635   4.696   3.049 -0.4554 -0.0123 -0.2673
  160SAPE   O1217799   6.399   4.701   3.096  0.1000  0.0769  0.0609
  160SAPE   O1117800   6.497   4.472   3.062  0.0588  0.2030 -0.0355
  160SAPE    C117801   6.518   4.442   3.200  0.4830 -0.3015  0.4453
  160SAPE    HA17802   6.601   4.501   3.244  0.4453 -0.4905  0.7826
  160SAPE    HB17803   6.427   4.464   3.259 -1.5876 -0.7759 -2.3712
  160SAPE    C217804   6.567   4.298   3.228 -0.5472  0.4912  0.3361
  160SAPE    HS17805   6.496   4.223   3.187 -0.5784  0.8864 -0.3400
  160SAPE   O2117806   6.597   4.284   3.370  0.5016 -0.7234 -0.0565
  160SAPE   C2117807   6.623   4.163   3.408  0.0255  1.0064  0.1574
  160SAPE   O2217808   6.621   4.066   3.331 -0.1368 -0.3087 -0.2335
  160SAPE   C2217809   6.650   4.144   3.559  0.2142  0.5229  0.7655
  160SAPE   H2R17810   6.566   4.188   3.617 -1.9789 -1.1851 -0.9319
  160SAPE   H2S17811   6.647   4.033   3.573 -1.6189  0.4419 -0.0386
  160SAPE    C317812   6.700   4.275   3.141  0.2692 -0.5759 -0.7086
  160SAPE    HX17813   6.673   4.302   3.036 -0.3739  1.2266 -0.1129
  160SAPE    HY17814   6.722   4.167   3.129  0.9499 -0.6908  1.3127
  160SAPE   O3117815   6.811   4.361   3.182 -0.0804 -0.9647  0.4335
  160SAPE   C3117816   6.899   4.293   3.258  0.4001  0.1654  0.4683
  160SAPE   O3217817   6.899   4.172   3.265 -0.6751  0.3956  0.1505
  160SAPE   C3217818   6.996   4.384   3.331 -0.4441 -0.2204  0.1089
  160SAPE   H2X17819   7.070   4.424   3.257 -0.9781 -1.1013 -0.9382
  160SAPE   H2Y17820   7.047   4.327   3.412 -1.1356 -0.2716  0.5110
  160SAPE   C2317821   6.784   4.197   3.616  0.7028  0.1870  0.3395
  160SAPE   H3R17822   6.767   4.307   3.616 -0.0923  0.0702  0.2094
  160SAPE   H3S17823   6.868   4.175   3.546 -2.1692 -2.4445 -2.6686
  160SAPE   C2417824   6.816   4.133   3.750  0.2193  0.0953  0.5511
  160SAPE   H4R17825   6.912   4.169   3.793 -0.6005  0.6285  2.0259
  160SAPE   H4S17826   6.826   4.022   3.743 -3.1496 -0.2987  0.4566
  160SAPE   C2517827   6.711   4.157   3.860  0.4097 -0.1555 -0.6609
  160SAPE   H5R17828   6.622   4.098   3.835 -0.0863  0.9065 -1.4800
  160SAPE   C2617829   6.705   4.259   3.954 -0.8967 -0.3160 -0.0977
  160SAPE   H6R17830   6.635   4.250   4.038  2.5069 -2.0908  2.8307
  160SAPE   C2717831   6.813   4.365   3.983 -0.0863 -0.2366 -0.0156
  160SAPE   H7R17832   6.746   4.450   4.010  1.5988  1.6490 -1.4172
  160SAPE   H7S17833   6.876   4.393   3.896  2.1808 -0.5958  1.4339
  160SAPE   C2817834   6.902   4.321   4.094 -0.2446 -0.3025  0.0455
  160SAPE   H8R17835   6.990   4.264   4.059 -0.4935 -1.7691  1.6418
  160SAPE   C2917836   6.894   4.347   4.222  0.1622 -0.1704 -0.3199
  160SAPE   H9R17837   6.974   4.310   4.286 -1.8210 -1.6833  1.4259
  160SAPE  C21017838   6.791   4.433   4.291  0.1962  0.7664  0.2620
  160SAPE  H10R17839   6.755   4.511   4.221 -2.2051 -1.6143 -1.3345
  160SAPE  H10S17840   6.850   4.489   4.368  0.9052  2.1770 -1.2499
  160SAPE  C21117841   6.670   4.351   4.325 -0.0339  0.0335 -0.1756
  160SAPE  H11R17842   6.633   4.285   4.245  0.4744  1.5883 -1.7468
  160SAPE  C21217843   6.608   4.341   4.438  0.1088 -0.0187  0.3212
  160SAPE  H12R17844   6.524   4.270   4.436 -0.3880  0.5203 -2.8808
  160SAPE  C21317845   6.636   4.415   4.568  0.6743 -0.4653  0.1833
  160SAPE  H13R17846   6.644   4.522   4.542 -2.0570 -0.0899  0.5216
  160SAPE  H13S17847   6.733   4.390   4.615  1.1233  1.6210  0.4555
  160SAPE  C21417848   6.513   4.385   4.660 -0.2814 -0.1306 -0.1233
  160SAPE  H14R17849   6.504   4.277   4.677  0.2018 -0.2197 -0.4158
  160SAPE  C21517850   6.433   4.462   4.736  0.3271 -0.2301  1.0047
  160SAPE  H15R17851   6.362   4.419   4.808 -0.6649  0.1001  0.2437
  160SAPE  C21617852   6.440   4.609   4.734  0.5436  0.0057  1.0942
  160SAPE  H16R17853   6.352   4.654   4.683  0.0023 -1.2983  0.8453
  160SAPE  H16S17854   6.530   4.643   4.678 -0.8189 -1.9723 -2.6545
  160SAPE  C21717855   6.438   4.644   4.881 -0.0747  0.4419  0.7034
  160SAPE  H17R17856   6.359   4.587   4.933  0.7142 -1.8085 -0.4271
  160SAPE  H17S17857   6.417   4.752   4.900  0.8205  0.5675  1.0348
  160SAPE  C21817858   6.571   4.607   4.949 -0.3328 -0.5761  0.4739
  160SAPE  H18R17859   6.645   4.673   4.899 -1.4531  0.0440 -0.4077
  160SAPE  H18S17860   6.609   4.504   4.933  1.2676  0.4266 -3.3358
  160SAPE  C21917861   6.577   4.648   5.095  0.4438 -0.0221  0.1285
  160SAPE  H19R17862   6.668   4.613   5.148  0.8483 -2.5943 -2.0068
  160SAPE  H19S17863   6.487   4.601   5.141  0.7826  1.1179  2.0623
  160SAPE  C22017864   6.576   4.802   5.119 -0.3996 -0.0904  0.5314
  160SAPE  H20R17865   6.597   4.832   5.223  0.3281 -0.1538  0.4106
  160SAPE  H20S17866   6.485   4.857   5.086 -1.4707 -0.9022  1.9994
  160SAPE  H20T17867   6.664   4.829   5.057  0.3002 -0.2359  1.4516
  160SAPE   C3317868   6.930   4.513   3.393  0.0703  0.5210 -0.0531
  160SAPE   H3X17869   6.844   4.475   3.453 -0.0176  1.8150  0.6888
  160SAPE   H3Y17870   6.878   4.579   3.321  0.1839 -1.7823 -2.3853
  160SAPE   C3417871   7.025   4.597   3.480 -0.2616  0.1021  0.6086
  160SAPE   H4X17872   7.103   4.625   3.406 -1.3624  0.2352 -0.5488
  160SAPE   H4Y17873   7.065   4.534   3.562 -2.5385 -1.5688  0.5597
  160SAPE   C3517874   6.966   4.726   3.528 -0.1148 -0.1026  0.1007
  160SAPE   H5X17875   6.862   4.697   3.554 -0.5504  1.3217 -0.0254
  160SAPE   H5Y17876   6.957   4.792   3.440  1.8031 -0.8796 -0.7363
  160SAPE   C3617877   7.033   4.795   3.651  0.3376 -0.3447 -0.1900
  160SAPE   H6X17878   7.000   4.900   3.642  0.5035 -0.1760  0.9593
  160SAPE   H6Y17879   7.144   4.789   3.643  0.5361  1.9973  0.0929
  160SAPE   C3717880   6.988   4.732   3.784  0.1226 -0.1070  0.4235
  160SAPE   H7X17881   6.996   4.623   3.763 -2.0352 -0.2340  0.0669
  160SAPE   H7Y17882   6.887   4.761   3.821  0.6166  0.5126  1.3176
  160SAPE   C3817883   7.080   4.783   3.893 -0.0105  0.0099  0.1358
  160SAPE   H8X17884   7.083   4.894   3.898  0.8692  0.1125 -1.7197
  160SAPE   H8Y17885   7.187   4.754   3.888  0.4131  1.4616  0.1874
  160SAPE   C3917886   7.024   4.732   4.028  0.3496  0.2457 -0.1086
  160SAPE   H9X17887   7.039   4.622   4.032 -0.8030  0.1129  2.0580
  160SAPE   H9Y17888   6.914   4.744   4.028  0.4009  0.9472  1.4697
  160SAPE  C31017889   7.087   4.805   4.148  0.2054  0.0607 -0.3650
  160SAPE  H10X17890   7.037   4.903   4.166 -0.4536 -0.6845  2.1985
  160SAPE  H10Y17891   7.196   4.815   4.128  0.4299  0.1240  0.8320
  160SAPE  C31117892   7.067   4.721   4.281  0.0067 -0.3176  0.2203
  160SAPE  H11X17893   7.117   4.623   4.268  1.7339  0.6711 -1.1322
  160SAPE  H11Y17894   6.957   4.714   4.298 -0.4394  2.4895 -0.8791
  160SAPE  C31217895   7.138   4.790   4.398 -0.2185 -0.6742 -0.3588
  160SAPE  H12X17896   7.113   4.897   4.378 -0.3901 -0.8552 -1.1463
  160SAPE  H12Y17897   7.247   4.767   4.397 -0.0717 -0.0330  0.1969
  160SAPE  C31317898   7.082   4.765   4.538  0.0625 -0.3166 -0.6285
  160SAPE  H13X17899   6.973   4.786   4.532  0.6878  3.6483 -1.1050
  160SAPE  H13Y17900   7.146   4.831   4.601 -2.0498  1.6463 -0.3604
  160SAPE  C31417901   7.086   4.618   4.590  0.8041 -0.6067 -0.0179
  160SAPE  H14X17902   7.190   4.582   4.606  0.1898 -2.1291  0.7426
  160SAPE  H14Y17903   7.046   4.549   4.512  0.5253  0.5823 -0.9660
  160SAPE  C31517904   7.010   4.611   4.727  0.8839 -0.8380 -0.2091
  160SAPE  H15X17905   6.901   4.624   4.711  1.3484  0.6996 -2.6644
  160SAPE  H15Y17906   7.054   4.695   4.784 -0.6507 -0.1592  0.0118
  160SAPE  C31617907   7.037   4.484   4.808 -0.6633 -0.1352 -0.1409
  160SAPE  H16X17908   7.141   4.474   4.846 -0.8633 -0.8697  0.2211
  160SAPE  H16Y17909   7.027   4.399   4.738 -0.7069  0.5229 -0.9535
  160SAPE  C31717910   6.946   4.470   4.930 -0.4780  0.2415  0.7517
  160SAPE  H17X17911   6.848   4.482   4.879 -0.3826 -0.1444  0.4659
  160SAPE  H17Y17912   6.946   4.559   4.996  2.3153  1.7775 -1.1377
  160SAPE  C31817913   6.947   4.327   4.992 -0.2101  0.2667  0.1969
  160SAPE  H18X17914   6.873   4.304   5.072  0.2856 -2.0947  0.0364
  160SAPE  H18Y17915   7.047   4.309   5.038 -0.1708  1.2759  0.5349
  160SAPE  H18Z17916   6.949   4.247   4.915  0.3728  1.1685 -0.7475
  161SAPE     N17917   1.228   4.719   2.733 -0.2811 -0.2228 -0.0291
  161SAPE   HN117918   1.135   4.766   2.740 -0.5740 -0.8990  0.9804
  161SAPE   HN217919   1.296   4.794   2.712 -2.5639  1.4804 -1.9599
  161SAPE   HN317920   1.220   4.643   2.662  0.1089 -0.6016  0.3223
  161SAPE   C1217921   1.242   4.657   2.872  0.3030  0.4499 -0.2743
  161SAPE  H12A17922   1.276   4.738   2.941  1.1970 -1.3226  1.4785
  161SAPE  H12B17923   1.321   4.579   2.868 -0.1421  0.0658 -2.5922
  161SAPE   C1117924   1.106   4.597   2.928 -0.1040  0.0530 -0.3822
  161SAPE  H11A17925   1.053   4.685   2.969  0.7117  0.8101 -0.8886
  161SAPE  H11B17926   1.139   4.538   3.015  1.4744  1.8236  0.2965
  161SAPE     P17927   1.022   4.373   2.810  0.5702 -0.4735  0.2744
  161SAPE   O1317928   0.946   4.344   2.687  0.4022 -0.7628 -0.0346
  161SAPE   O1417929   1.148   4.294   2.839 -0.0086 -0.2867 -0.1309
  161SAPE   O1217930   1.038   4.530   2.828 -0.1721  0.6210 -0.0651
  161SAPE   O1117931   0.924   4.355   2.930 -0.3933 -0.3934  0.3639
  161SAPE    C117932   0.809   4.435   2.960  0.4672 -0.5795 -0.8142
  161SAPE    HA17933   0.804   4.528   2.898 -0.7254  0.4528  0.7499
  161SAPE    HB17934   0.719   4.376   2.933  0.1895 -0.4166 -0.2680
  161SAPE    C217935   0.812   4.471   3.119 -0.1269  0.5399 -0.0359
  161SAPE    HS17936   0.906   4.527   3.135 -0.9970  2.0102  0.0725
  161SAPE   O2117937   0.795   4.354   3.200 -0.1024  0.0333 -0.1987
  161SAPE   C2117938   0.909   4.325   3.272  0.0696 -0.4386  0.2850
  161SAPE   O2217939   1.012   4.396   3.268  0.3673  0.9173  0.0696
  161SAPE   C2217940   0.881   4.209   3.361  0.2624 -0.4340  0.1733
  161SAPE   H2R17941   0.817   4.132   3.311 -0.5576 -0.1875  0.8285
  161SAPE   H2S17942   0.980   4.158   3.354  1.2877  1.2119  2.0132
  161SAPE    C317943   0.709   4.580   3.150  0.3736 -0.0323  0.7339
  161SAPE    HX17944   0.613   4.528   3.133  0.9953 -0.4755 -1.8556
  161SAPE    HY17945   0.710   4.663   3.075 -1.8600 -0.5757  0.0238
  161SAPE   O3117946   0.725   4.622   3.288  0.0616  0.1900 -0.2360
  161SAPE   C3117947   0.804   4.729   3.311  0.2260  0.2800 -1.0084
  161SAPE   O3217948   0.865   4.788   3.224  0.0724  0.3601  0.6187
  161SAPE   C3217949   0.798   4.780   3.452 -0.0249 -0.5096 -0.4054
  161SAPE   H2X17950   0.712   4.850   3.449 -0.5217 -1.1136 -0.2819
  161SAPE   H2Y17951   0.893   4.839   3.455  0.1132 -0.7685  0.8318
  161SAPE   C2317952   0.853   4.244   3.503  0.2069  0.4016 -0.5716
  161SAPE   H3R17953   0.931   4.311   3.543  1.0566 -0.7111 -0.3295
  161SAPE   H3S17954   0.859   4.154   3.568  1.7518 -0.7374 -2.2028
  161SAPE   C2417955   0.712   4.298   3.534 -0.0139  0.7429 -0.7022
  161SAPE   H4R17956   0.690   4.381   3.464 -1.6514  1.4025  0.5274
  161SAPE   H4S17957   0.717   4.346   3.634  0.1749 -0.5932 -0.0539
  161SAPE   C2517958   0.596   4.205   3.547 -1.2221  0.1508 -0.5588
  161SAPE   H5R17959   0.572   4.147   3.457  0.2229  0.0671 -0.9242
  161SAPE   C2617960   0.526   4.172   3.659 -0.9231  0.7540  0.1154
  161SAPE   H6R17961   0.439   4.108   3.639  1.1689 -1.9942 -0.7799
  161SAPE   C2717962   0.545   4.223   3.798 -0.1082 -0.3329 -0.1146
  161SAPE   H7R17963   0.470   4.301   3.820 -0.4277 -0.4182 -0.8583
  161SAPE   H7S17964   0.645   4.270   3.810  0.5673 -1.8966  0.6125
  161SAPE   C2817965   0.522   4.116   3.901  0.5312  0.4201  0.0669
  161SAPE   H8R17966   0.486   4.020   3.863 -0.5919  2.0150 -3.3702
  161SAPE   C2917967   0.585   4.126   4.022  0.2691  0.2920  0.0575
  161SAPE   H9R17968   0.572   4.046   4.096  0.2806  0.3908  0.1661
  161SAPE  C21017969   0.665   4.241   4.082  0.0571  0.3747 -0.3418
  161SAPE  H10R17970   0.678   4.326   4.012 -1.1763 -0.2510 -1.3803
  161SAPE  H10S17971   0.765   4.193   4.095 -0.0497 -0.2035 -1.4851
  161SAPE  C21117972   0.611   4.288   4.211 -0.5440 -0.4868 -0.3553
  161SAPE  H11R17973   0.546   4.376   4.201  1.7218  1.2415 -0.6928
  161SAPE  C21217974   0.636   4.242   4.332  0.3414 -0.5462 -0.0550
  161SAPE  H12R17975   0.577   4.276   4.419  2.5072 -3.1630  2.6859
  161SAPE  C21317976   0.733   4.124   4.367  0.0589 -0.0726  0.0488
  161SAPE  H13R17977   0.778   4.086   4.273 -0.1622  2.9535 -1.4280
  161SAPE  H13S17978   0.670   4.052   4.423 -0.4835  1.7419  1.8994
  161SAPE  C21417979   0.839   4.189   4.454 -0.7042  0.3319 -0.5780
  161SAPE  H14R17980   0.904   4.265   4.407 -1.6988  1.4951 -0.1336
  161SAPE  C21517981   0.856   4.164   4.583  0.1245 -0.2459  0.2126
  161SAPE  H15R17982   0.942   4.209   4.634 -0.4351  2.4255 -1.0459
  161SAPE  C21617983   0.768   4.074   4.674 -0.8022  0.6293  0.2189
  161SAPE  H16R17984   0.834   3.990   4.706  0.2459  1.5420  0.5407
  161SAPE  H16S17985   0.681   4.031   4.620  0.9071 -0.7622 -1.5326
  161SAPE  C21717986   0.713   4.130   4.803  0.2105  0.1121  0.4087
  161SAPE  H17R17987   0.640   4.062   4.853 -0.9048  0.4244 -0.7286
  161SAPE  H17S17988   0.659   4.226   4.787  2.0434  0.9292 -1.2241
  161SAPE  C21817989   0.819   4.161   4.901 -0.1059 -0.5371  0.6648
  161SAPE  H18R17990   0.890   4.234   4.858 -0.9550 -0.0245  0.1033
  161SAPE  H18S17991   0.880   4.070   4.922 -0.7672 -0.8374  1.3763
  161SAPE  C21917992   0.759   4.227   5.028 -0.9925 -0.0868 -0.3551
  161SAPE  H19R17993   0.677   4.164   5.069 -0.4318  0.9480  2.6521
  161SAPE  H19S17994   0.702   4.320   5.010 -0.5619  0.1108 -0.7074
  161SAPE  C22017995   0.857   4.235   5.149 -0.3652 -0.4004  0.0887
  161SAPE  H20R17996   0.953   4.286   5.124 -0.3981  0.1241  0.9660
  161SAPE  H20S17997   0.882   4.134   5.186  1.9107 -0.4849 -1.4929
  161SAPE  H20T17998   0.807   4.302   5.223  0.2193  2.0811 -1.6444
  161SAPE   C3317999   0.815   4.671   3.556  0.0984 -0.6671  0.6119
  161SAPE   H3X18000   0.869   4.582   3.518 -0.8913 -0.2354 -1.9606
  161SAPE   H3Y18001   0.713   4.636   3.584  0.1675 -0.8820  0.5990
  161SAPE   C3418002   0.877   4.724   3.692 -0.8229 -0.1114  0.2081
  161SAPE   H4X18003   0.821   4.815   3.721 -0.5306 -0.0386  0.5509
  161SAPE   H4Y18004   0.985   4.747   3.676 -0.4642 -0.4351  1.9271
  161SAPE   C3518005   0.860   4.615   3.808 -0.2373  0.3789 -0.9049
  161SAPE   H5X18006   0.929   4.532   3.781 -0.2400  0.8019 -2.3420
  161SAPE   H5Y18007   0.756   4.577   3.813 -0.0624 -0.0124  3.2996
  161SAPE   C3618008   0.891   4.687   3.942  0.2027  1.0486  0.0568
  161SAPE   H6X18009   0.830   4.779   3.933  1.3625  1.8526  0.1814
  161SAPE   H6Y18010   0.996   4.723   3.948 -0.2144  2.0452  2.4657
  161SAPE   C3718011   0.849   4.604   4.063  0.3364  0.2759 -0.0392
  161SAPE   H7X18012   0.914   4.515   4.058 -0.6085 -0.3734 -1.3500
  161SAPE   H7Y18013   0.749   4.557   4.053 -0.1751  0.9624  1.5073
  161SAPE   C3818014   0.860   4.684   4.204  0.2508  0.4121 -0.0663
  161SAPE   H8X18015   0.764   4.739   4.210 -1.8651 -2.9170 -0.4836
  161SAPE   H8Y18016   0.948   4.751   4.211  0.5865 -0.1516  1.5465
  161SAPE   C3918017   0.876   4.581   4.315 -0.1612 -0.0966  0.2689
  161SAPE   H9X18018   0.969   4.522   4.304 -0.1399 -0.3782  1.7437
  161SAPE   H9Y18019   0.786   4.516   4.317 -0.6862  0.6006 -0.1905
  161SAPE  C31018020   0.878   4.649   4.455  0.1679  0.4821 -0.0609
  161SAPE  H10X18021   0.796   4.724   4.458  1.1627  1.7020 -1.7081
  161SAPE  H10Y18022   0.977   4.691   4.479  1.5112 -1.2658 -2.1874
  161SAPE  C31118023   0.857   4.538   4.557 -0.0102  0.2053 -0.3334
  161SAPE  H11X18024   0.921   4.447   4.548  0.2488  0.5320 -2.5555
  161SAPE  H11Y18025   0.753   4.503   4.541 -0.3318  1.3393 -0.8414
  161SAPE  C31218026   0.875   4.600   4.698 -0.2031  0.3084 -0.0443
  161SAPE  H12X18027   0.976   4.646   4.699 -0.9533  1.9991 -0.0157
  161SAPE  H12Y18028   0.872   4.517   4.771 -1.4691  0.6950  0.3704
  161SAPE  C31318029   0.775   4.700   4.745  0.5116 -0.3996 -0.7799
  161SAPE  H13X18030   0.680   4.644   4.758  0.3629  0.1758  0.8377
  161SAPE  H13Y18031   0.761   4.775   4.664 -2.6818 -0.1644 -0.1378
  161SAPE  C31418032   0.791   4.775   4.880  0.0127 -0.7197  0.3361
  161SAPE  H14X18033   0.718   4.859   4.876  0.9206  0.0466 -0.4318
  161SAPE  H14Y18034   0.892   4.820   4.888 -0.8906  1.2146  1.6285
  161SAPE  C31518035   0.754   4.690   5.003  0.5870 -0.0198  0.3011
  161SAPE  H15X18036   0.821   4.603   5.012  0.4399 -0.1067  0.5722
  161SAPE  H15Y18037   0.651   4.650   4.990 -0.2254  0.4402  4.0270
  161SAPE  C31618038   0.769   4.762   5.131  0.4955 -0.1492  0.1045
  161SAPE  H16X18039   0.712   4.857   5.123 -0.3302 -0.7969 -3.3871
  161SAPE  H16Y18040   0.877   4.790   5.134  0.8302 -1.4517  1.4146
  161SAPE  C31718041   0.728   4.683   5.259 -0.3508 -0.0312  0.0785
  161SAPE  H17X18042   0.748   4.575   5.240 -1.0056 -0.1041 -0.2171
  161SAPE  H17Y18043   0.620   4.699   5.278 -0.3504  1.1521 -0.8150
  161SAPE  C31818044   0.795   4.733   5.385  0.6305 -0.3478  0.2761
  161SAPE  H18X18045   0.772   4.677   5.479 -0.5244 -0.1953  0.0989
  161SAPE  H18Y18046   0.775   4.840   5.404 -0.1862 -0.1827 -1.3457
  161SAPE  H18Z18047   0.905   4.732   5.372  0.5475 -1.1308 -0.4508
  162SAPE     N18048   0.323   1.616   2.490  0.4072 -0.0857 -0.0213
  162SAPE   HN118049   0.322   1.643   2.389 -0.9651  1.7220  0.4289
  162SAPE   HN218050   0.389   1.670   2.548  0.7790 -2.0938  1.5336
  162SAPE   HN318051   0.345   1.514   2.491  3.4473  0.4593 -0.7057
  162SAPE   C1218052   0.192   1.648   2.549  0.0862  0.0615  0.5516
  162SAPE  H12A18053   0.114   1.591   2.494 -1.2439  3.0226 -0.8600
  162SAPE  H12B18054   0.175   1.758   2.547  2.6863  0.6719  3.5124
  162SAPE   C1118055   0.194   1.611   2.700  0.2571  0.4404  0.4341
  162SAPE  H11A18056   0.109   1.665   2.747 -0.3257 -0.7978  0.8736
  162SAPE  H11B18057   0.279   1.658   2.753 -1.1163  0.8772  2.3740
  162SAPE     P18058   0.050   1.383   2.703 -0.1536 -0.1930 -0.6508
  162SAPE   O1318059  -0.004   1.398   2.570 -0.2863 -0.3209 -0.2364
  162SAPE   O1418060   0.071   1.242   2.744 -0.2241  0.2566  0.6611
  162SAPE   O1218061   0.181   1.465   2.718 -0.8460 -0.1453  0.3895
  162SAPE   O1118062  -0.051   1.446   2.809 -0.1575 -0.3876 -0.5067
  162SAPE    C118063  -0.068   1.410   2.947  0.0545  0.2263 -0.1400
  162SAPE    HA18064  -0.159   1.460   2.987 -0.4297  0.7954 -1.8740
  162SAPE    HB18065  -0.081   1.301   2.965 -2.1667  0.7946  2.3540
  162SAPE    C218066   0.044   1.441   3.063  0.7226 -0.2351  0.4281
  162SAPE    HS18067   0.141   1.407   3.020 -0.1027 -0.8594 -1.0254
  162SAPE   O2118068   0.002   1.369   3.182 -0.0873 -0.8742 -0.6414
  162SAPE   C2118069   0.101   1.340   3.273  0.2496  0.4007  0.2073
  162SAPE   O2218070   0.220   1.339   3.249 -0.0844  0.3836  0.4075
  162SAPE   C2218071   0.036   1.290   3.401 -0.6391  0.4781  0.7353
  162SAPE   H2R18072  -0.073   1.310   3.394 -0.4349  1.2432 -0.5455
  162SAPE   H2S18073   0.051   1.180   3.403  0.3483  0.5055 -1.9009
  162SAPE    C318074   0.047   1.599   3.092 -0.3824  1.0111  0.6041
  162SAPE    HX18075  -0.058   1.629   3.111 -1.2713 -0.3979 -1.6329
  162SAPE    HY18076   0.071   1.634   2.989 -2.9419 -1.4987 -1.0076
  162SAPE   O3118077   0.147   1.632   3.198  0.3023  0.4022  0.9474
  162SAPE   C3118078   0.273   1.646   3.159  0.3588 -0.5854  0.1620
  162SAPE   O3218079   0.317   1.613   3.050 -0.0042  0.4601  0.4123
  162SAPE   C3218080   0.352   1.712   3.271 -0.1626 -0.5330  0.6847
  162SAPE   H2X18081   0.345   1.822   3.263 -0.1829 -0.5434  0.5596
  162SAPE   H2Y18082   0.459   1.685   3.257 -0.5458 -1.6446 -0.2834
  162SAPE   C2318083   0.082   1.373   3.521 -0.0541 -0.0870 -0.0136
  162SAPE   H3R18084   0.011   1.358   3.605 -1.4653  0.6020 -1.0433
  162SAPE   H3S18085   0.082   1.482   3.500  0.4895 -0.2341 -0.8276
  162SAPE   C2418086   0.219   1.338   3.577  0.4302 -0.0883 -0.3727
  162SAPE   H4R18087   0.236   1.399   3.668 -1.8245 -2.7294  2.0090
  162SAPE   H4S18088   0.292   1.352   3.495  0.9672 -0.2041  0.0790
  162SAPE   C2518089   0.209   1.195   3.626 -0.0636 -1.2042  0.0420
  162SAPE   H5R18090   0.232   1.109   3.560  0.3506 -2.0783  1.2813
  162SAPE   C2618091   0.174   1.168   3.755 -0.4421 -0.3458 -0.2988
  162SAPE   H6R18092   0.178   1.062   3.784  0.6036 -0.1748  0.2506
  162SAPE   C2718093   0.154   1.263   3.874  0.5042  0.1009  0.3796
  162SAPE   H7R18094   0.063   1.219   3.919  1.1822  0.1573  1.8697
  162SAPE   H7S18095   0.122   1.363   3.838 -2.4312 -0.1306  2.0886
  162SAPE   C2818096   0.253   1.279   3.980 -0.1354  0.6183  0.0402
  162SAPE   H8R18097   0.358   1.271   3.949 -0.3800  0.3493 -0.7237
  162SAPE   C2918098   0.236   1.320   4.111  0.4598  0.3051 -0.2550
  162SAPE   H9R18099   0.320   1.324   4.181 -0.4908  2.0524  0.8668
  162SAPE  C21018100   0.108   1.350   4.178 -0.0474 -0.0537 -0.0405
  162SAPE  H10R18101   0.028   1.347   4.100  1.3973  0.0003 -1.5833
  162SAPE  H10S18102   0.111   1.456   4.213 -1.1639  0.1532 -0.5007
  162SAPE  C21118103   0.067   1.256   4.281 -0.0982  0.7152 -0.0282
  162SAPE  H11R18104   0.011   1.167   4.248 -0.2384  0.2540  1.3553
  162SAPE  C21218105   0.097   1.257   4.411 -0.4290  0.3013 -0.0215
  162SAPE  H12R18106   0.084   1.161   4.463  0.0265 -0.2815 -0.9722
  162SAPE  C21318107   0.187   1.356   4.479  0.1756 -0.2577  1.0442
  162SAPE  H13R18108   0.197   1.450   4.420 -0.6907  0.5612  2.1509
  162SAPE  H13S18109   0.288   1.312   4.490  0.1960 -1.0863 -1.7024
  162SAPE  C21418110   0.119   1.411   4.602 -0.4403 -0.2707  0.1159
  162SAPE  H14R18111   0.022   1.460   4.580 -1.1418 -0.5636  2.3054
  162SAPE  C21518112   0.169   1.418   4.730  0.4884  0.4388 -0.4423
  162SAPE  H15R18113   0.122   1.484   4.804 -0.6927  1.8846 -2.3699
  162SAPE  C21618114   0.287   1.350   4.782 -0.5198  0.2301  0.0455
  162SAPE  H16R18115   0.356   1.418   4.836  0.6479 -0.8177 -0.0688
  162SAPE  H16S18116   0.354   1.314   4.701  0.8478  0.2901  1.1167
  162SAPE  C21718117   0.268   1.224   4.871 -0.2594 -0.1637  0.4306
  162SAPE  H17R18118   0.211   1.259   4.961 -0.1886  0.8688  0.0804
  162SAPE  H17S18119   0.373   1.196   4.893  0.7757  2.2179 -1.1075
  162SAPE  C21818120   0.201   1.101   4.800 -0.1823  0.0905  0.9523
  162SAPE  H18R18121   0.244   1.082   4.699 -0.3382  0.1847  0.8686
  162SAPE  H18S18122   0.094   1.125   4.783 -1.0388 -3.5388  0.5851
  162SAPE  C21918123   0.219   0.970   4.877  0.4049 -0.4664 -0.5010
  162SAPE  H19R18124   0.214   0.988   4.986 -1.1242  0.1242 -0.6393
  162SAPE  H19S18125   0.326   0.940   4.871  0.6610  0.1343  0.7656
  162SAPE  C22018126   0.132   0.856   4.835  0.1579  0.1543  0.1668
  162SAPE  H20R18127   0.037   0.884   4.785 -0.0343 -2.2220 -0.9010
  162SAPE  H20S18128   0.107   0.791   4.922 -1.0064 -0.4996 -0.6300
  162SAPE  H20T18129   0.191   0.792   4.766 -0.4741 -0.3073  0.0367
  162SAPE   C3318130   0.305   1.695   3.418  0.1122 -0.1039 -0.5515
  162SAPE   H3X18131   0.334   1.594   3.455 -0.4422 -0.0430  0.0652
  162SAPE   H3Y18132   0.194   1.699   3.423  0.0735 -0.2575 -1.1945
  162SAPE   C3418133   0.376   1.799   3.510 -0.2320 -0.5036 -0.7563
  162SAPE   H4X18134   0.338   1.900   3.482 -0.0450 -0.1339  0.2903
  162SAPE   H4Y18135   0.487   1.802   3.510 -0.1535  3.4613 -2.8582
  162SAPE   C3518136   0.330   1.768   3.652  0.4314  1.0210  0.5173
  162SAPE   H5X18137   0.333   1.658   3.669 -2.4531  0.3248 -2.4230
  162SAPE   H5Y18138   0.226   1.807   3.662  0.2087  0.6766 -0.3991
  162SAPE   C3618139   0.396   1.844   3.762 -0.5688 -0.3877  0.3301
  162SAPE   H6X18140   0.382   1.954   3.748 -0.4822 -0.4887 -0.6828
  162SAPE   H6Y18141   0.504   1.823   3.778  0.2099  1.3144 -1.9556
  162SAPE   C3718142   0.335   1.805   3.898 -0.1496 -0.2881 -0.6318
  162SAPE   H7X18143   0.340   1.694   3.895  1.6516 -0.2265 -3.0271
  162SAPE   H7Y18144   0.231   1.845   3.902 -0.1811 -0.4878  1.6553
  162SAPE   C3818145   0.401   1.874   4.014  0.5066  0.0580  0.3934
  162SAPE   H8X18146   0.382   1.983   4.014 -0.4253 -0.0712 -1.1018
  162SAPE   H8Y18147   0.509   1.853   4.003  0.5118 -0.0756  0.6777
  162SAPE   C3918148   0.359   1.810   4.145 -0.0458  0.3136  0.0725
  162SAPE   H9X18149   0.335   1.703   4.124  0.2476  0.2862 -0.1338
  162SAPE   H9Y18150   0.271   1.871   4.173 -0.5446 -0.0248 -0.7176
  162SAPE  C31018151   0.470   1.819   4.253 -0.5328 -0.2937  0.8685
  162SAPE  H10X18152   0.501   1.923   4.271 -0.7783 -0.2840  1.2383
  162SAPE  H10Y18153   0.558   1.756   4.228  1.1162  2.4944 -0.8503
  162SAPE  C31118154   0.421   1.772   4.391  0.6464  0.4412 -0.4441
  162SAPE  H11X18155   0.387   1.666   4.388  1.6551  0.1306 -2.9184
  162SAPE  H11Y18156   0.331   1.830   4.422 -0.2064 -1.0554  0.0007
  162SAPE  C31218157   0.536   1.781   4.494 -0.1290 -0.1897 -0.0400
  162SAPE  H12X18158   0.557   1.888   4.516  1.5001 -0.7964  1.5716
  162SAPE  H12Y18159   0.626   1.750   4.436 -0.0584 -0.0758  0.0069
  162SAPE  C31318160   0.518   1.707   4.623  0.3589  0.5705 -0.2219
  162SAPE  H13X18161   0.610   1.718   4.684  0.4151  0.2405 -0.2470
  162SAPE  H13Y18162   0.514   1.597   4.611 -0.1701  0.5596  0.0337
  162SAPE  C31418163   0.392   1.748   4.706 -0.3344  0.6205 -0.2509
  162SAPE  H14X18164   0.305   1.690   4.668 -0.7700  1.2007 -0.1498
  162SAPE  H14Y18165   0.368   1.856   4.697  2.2459  1.4611  1.6921
  162SAPE  C31518166   0.410   1.722   4.859 -0.4438 -0.2355 -0.0269
  162SAPE  H15X18167   0.479   1.637   4.877  0.9334  0.9479  0.5178
  162SAPE  H15Y18168   0.314   1.706   4.912 -1.1070  0.2318 -1.0449
  162SAPE  C31618169   0.477   1.843   4.931 -0.5392 -0.3587  0.0581
  162SAPE  H16X18170   0.420   1.937   4.922 -1.0178 -0.6080  0.4298
  162SAPE  H16Y18171   0.578   1.864   4.889 -0.7953  1.6262  0.3253
  162SAPE  C31718172   0.507   1.822   5.079  0.2966  0.7515  0.0243
  162SAPE  H17X18173   0.580   1.742   5.100 -0.0429  0.6133  0.6941
  162SAPE  H17Y18174   0.409   1.796   5.124 -0.2089 -1.4418 -2.1173
  162SAPE  C31818175   0.551   1.947   5.158 -0.0261 -0.0649  0.2711
  162SAPE  H18X18176   0.546   1.931   5.268  0.1296  0.9250  0.4350
  162SAPE  H18Y18177   0.487   2.036   5.135 -1.0171 -0.5809  0.9583
  162SAPE  H18Z18178   0.656   1.975   5.134 -0.0349 -1.3406 -1.4837
  163SAPE     N18179   0.147   0.764   2.876 -0.2962 -0.1324  1.1677
  163SAPE   HN118180   0.073   0.835   2.861 -0.5186 -0.7172 -0.7162
  163SAPE   HN218181   0.134   0.686   2.808  2.2644  1.5834 -1.5160
  163SAPE   HN318182   0.129   0.726   2.971 -0.1464 -1.1337  0.8035
  163SAPE   C1218183   0.286   0.809   2.849  0.7903 -0.3335  0.2505
  163SAPE  H12A18184   0.274   0.903   2.791 -2.3912 -0.0677  1.1829
  163SAPE  H12B18185   0.345   0.739   2.786  0.8768  1.3576 -1.6632
  163SAPE   C1118186   0.376   0.826   2.972 -0.0694 -0.4473  0.7880
  163SAPE  H11A18187   0.319   0.895   3.038 -1.7794 -1.9181  0.9402
  163SAPE  H11B18188   0.466   0.882   2.939  2.2038 -3.1750  1.9085
  163SAPE     P18189   0.534   0.631   3.042  0.3899 -0.3913 -0.1983
  163SAPE   O1318190   0.538   0.509   3.126  0.7081 -0.1019  0.3405
  163SAPE   O1418191   0.576   0.617   2.897 -0.2250  0.4616  0.2111
  163SAPE   O1218192   0.392   0.704   3.045  0.4219 -0.2675 -0.1059
  163SAPE   O1118193   0.633   0.734   3.114 -0.2943 -0.3321  0.2515
  163SAPE    C118194   0.590   0.810   3.231 -0.0336  0.2753  0.2815
  163SAPE    HA18195   0.649   0.904   3.239  0.3960 -0.0770  1.4753
  163SAPE    HB18196   0.483   0.840   3.221  0.5511  1.7030 -2.7469
  163SAPE    C218197   0.614   0.738   3.369 -0.3663  0.1324  0.9874
  163SAPE    HS18198   0.542   0.653   3.372 -0.1402 -0.0712  0.7617
  163SAPE   O2118199   0.587   0.831   3.479  0.4494  0.1414  0.0187
  163SAPE   C2118200   0.552   0.770   3.589  0.7173 -0.1013 -0.4621
  163SAPE   O2218201   0.528   0.651   3.608  0.1727 -0.2212  0.3046
  163SAPE   C2218202   0.541   0.870   3.698 -0.0393  0.0040  0.1673
  163SAPE   H2R18203   0.642   0.898   3.733 -0.6914  1.4157  0.9587
  163SAPE   H2S18204   0.491   0.959   3.653 -0.1870 -0.7280 -1.1840
  163SAPE    C318205   0.767   0.678   3.379  0.0176  0.1494 -0.6475
  163SAPE    HX18206   0.828   0.766   3.347 -0.8136  1.8994  2.2150
  163SAPE    HY18207   0.776   0.597   3.304  1.3956  1.5964 -2.1397
  163SAPE   O3118208   0.802   0.640   3.512  0.0303 -0.5721  0.5768
  163SAPE   C3118209   0.796   0.510   3.538 -0.3677  0.2478 -0.0552
  163SAPE   O3218210   0.754   0.428   3.457  0.8902  0.8338  0.3655
  163SAPE   C3218211   0.843   0.493   3.677 -0.0219  0.1702  0.2607
  163SAPE   H2X18212   0.946   0.533   3.687 -0.4887  1.4365  0.1030
  163SAPE   H2Y18213   0.849   0.384   3.701  3.5519  0.4186  1.0211
  163SAPE   C2318214   0.453   0.810   3.812 -0.4534  0.2799 -0.3924
  163SAPE   H3R18215   0.482   0.707   3.842 -0.5806 -0.3474 -2.2944
  163SAPE   H3S18216   0.353   0.804   3.763 -0.7861  1.9416  0.0057
  163SAPE   C2418217   0.439   0.889   3.949 -0.5872 -0.2269  0.6957
  163SAPE   H4R18218   0.339   0.864   3.988 -1.0793 -1.9198 -1.4484
  163SAPE   H4S18219   0.440   0.998   3.926  0.3533  0.2134  2.6128
  163SAPE   C2518220   0.554   0.860   4.042  0.3905 -0.2195 -0.1055
  163SAPE   H5R18221   0.648   0.852   3.985 -0.8392 -0.7288 -2.1676
  163SAPE   C2618222   0.537   0.845   4.175  1.0012  0.1591  0.1464
  163SAPE   H6R18223   0.625   0.826   4.238  0.4393  1.9379  1.5382
  163SAPE   C2718224   0.400   0.857   4.239 -0.2498  0.2484 -0.2138
  163SAPE   H7R18225   0.403   0.763   4.299 -0.7529 -0.7105 -1.6473
  163SAPE   H7S18226   0.312   0.852   4.173  0.9099  0.0467 -1.8040
  163SAPE   C2818227   0.380   0.985   4.319 -0.6822  0.2185  0.2967
  163SAPE   H8R18228   0.363   1.083   4.271 -2.6691  0.6312  1.6839
  163SAPE   C2918229   0.381   0.986   4.457 -0.1072 -0.0175  0.2052
  163SAPE   H9R18230   0.389   1.087   4.500  2.4071  0.4138 -1.1006
  163SAPE  C21018231   0.415   0.863   4.539  0.0835 -0.2774  0.7948
  163SAPE  H10R18232   0.366   0.771   4.502 -1.1647  1.7758 -3.2308
  163SAPE  H10S18233   0.377   0.884   4.641 -1.0428  2.7866 -0.1321
  163SAPE  C21118234   0.560   0.832   4.561  0.1410 -0.0752 -0.5886
  163SAPE  H11R18235   0.618   0.861   4.472 -0.3188 -4.1765 -2.4896
  163SAPE  C21218236   0.623   0.775   4.668 -0.0140  0.0300  0.0758
  163SAPE  H12R18237   0.729   0.751   4.651  0.3154 -0.1035  2.0685
  163SAPE  C21318238   0.568   0.725   4.797 -0.1805  0.1086  0.2850
  163SAPE  H13R18239   0.532   0.812   4.856  2.9814  1.9348 -0.2310
  163SAPE  H13S18240   0.655   0.682   4.851 -0.4721 -0.6358  0.1796
  163SAPE  C21418241   0.467   0.616   4.778  0.3024 -0.1341  0.5788
  163SAPE  H14R18242   0.437   0.593   4.674 -0.9561  0.9536  0.6727
  163SAPE  C21518243   0.405   0.552   4.881 -0.6232  0.1941 -0.4946
  163SAPE  H15R18244   0.333   0.470   4.866 -1.0875  0.4294  0.3821
  163SAPE  C21618245   0.447   0.571   5.026 -0.7560 -0.1994 -0.5553
  163SAPE  H16R18246   0.541   0.629   5.033 -2.1087  2.4158 -2.4115
  163SAPE  H16S18247   0.467   0.469   5.065  0.2010 -0.1306 -0.8297
  163SAPE  C21718248   0.348   0.647   5.113  0.0929  0.0864 -0.5100
  163SAPE  H17R18249   0.335   0.742   5.057  0.2698  0.0301 -0.6498
  163SAPE  H17S18250   0.386   0.660   5.217 -0.6290  1.8312 -0.4259
  163SAPE  C21818251   0.219   0.560   5.128  0.5039  0.6899 -0.6179
  163SAPE  H18R18252   0.243   0.453   5.147 -1.1107  0.2492 -0.8684
  163SAPE  H18S18253   0.168   0.573   5.030  0.7040  0.0116 -0.8178
  163SAPE  C21918254   0.144   0.611   5.250 -0.1951  0.5373  0.1659
  163SAPE  H19R18255   0.177   0.716   5.263 -1.3495  0.9375 -0.0182
  163SAPE  H19S18256   0.175   0.557   5.342  1.1041  0.0306 -0.5474
  163SAPE  C22018257  -0.011   0.621   5.232 -0.0243  0.3518  0.0361
  163SAPE  H20R18258  -0.022   0.686   5.142 -1.7041 -0.0398 -0.0696
  163SAPE  H20S18259  -0.045   0.681   5.320  2.3675  1.1431  0.4899
  163SAPE  H20T18260  -0.060   0.523   5.218  4.7486 -2.1189 -1.6063
  163SAPE   C3318261   0.757   0.552   3.793  0.0328  0.4438 -0.7636
  163SAPE   H3X18262   0.659   0.500   3.801  0.4327 -0.3865 -1.1069
  163SAPE   H3Y18263   0.733   0.658   3.773  0.2616  0.5258 -0.6028
  163SAPE   C3418264   0.831   0.540   3.926  0.4609  0.5403  0.3655
  163SAPE   H4X18265   0.898   0.629   3.932 -1.9435  2.7043 -1.9620
  163SAPE   H4Y18266   0.900   0.454   3.918  1.9719  1.7404 -0.0169
  163SAPE   C3518267   0.741   0.539   4.050 -0.2937  0.4616 -0.1500
  163SAPE   H5X18268   0.699   0.437   4.055  1.7501 -0.4355 -0.2831
  163SAPE   H5Y18269   0.658   0.613   4.047 -1.2630 -0.5809  0.2663
  163SAPE   C3618270   0.817   0.551   4.181 -0.1377 -0.3141  0.6967
  163SAPE   H6X18271   0.860   0.653   4.195 -1.6268  0.5854 -0.8986
  163SAPE   H6Y18272   0.907   0.487   4.163  1.0338  0.9472  1.8029
  163SAPE   C3718273   0.745   0.503   4.305 -0.1646 -0.2233 -0.0159
  163SAPE   H7X18274   0.718   0.395   4.301 -0.3892 -0.1318 -1.1572
  163SAPE   H7Y18275   0.650   0.559   4.312  0.2691  0.5171  0.1757
  163SAPE   C3818276   0.824   0.518   4.441  0.3292  0.2222 -0.0785
  163SAPE   H8X18277   0.838   0.627   4.463  0.8746  0.7363 -2.6852
  163SAPE   H8Y18278   0.924   0.476   4.418  0.4536  0.4122  0.1046
  163SAPE   C3918279   0.754   0.441   4.557  1.1757  0.0117 -0.0526
  163SAPE   H9X18280   0.761   0.333   4.533  1.9191  0.6287 -3.0844
  163SAPE   H9Y18281   0.647   0.473   4.558  1.2665  0.3641 -0.9190
  163SAPE  C31018282   0.827   0.483   4.685  0.0486  0.0429  0.4973
  163SAPE  H10X18283   0.796   0.588   4.702  0.2189 -0.0244  1.2385
  163SAPE  H10Y18284   0.934   0.473   4.656  0.0366  2.4119 -0.5777
  163SAPE  C31118285   0.785   0.406   4.809  0.6647 -0.3687 -0.3600
  163SAPE  H11X18286   0.771   0.304   4.768  0.6562 -0.1556 -0.8949
  163SAPE  H11Y18287   0.697   0.454   4.859  1.0035  0.1524 -0.2488
  163SAPE  C31218288   0.904   0.416   4.918  0.5024 -0.6083  0.1903
  163SAPE  H12X18289   0.925   0.523   4.939 -1.0780  0.2027 -1.9649
  163SAPE  H12Y18290   0.987   0.358   4.871  0.8786  0.8776 -1.0551
  163SAPE  C31318291   0.873   0.365   5.061  0.2742  0.1373 -0.1010
  163SAPE  H13X18292   0.843   0.260   5.037 -2.1391  1.1501 -1.9050
  163SAPE  H13Y18293   0.782   0.415   5.100  1.2934  1.9433  0.0383
  163SAPE  C31418294   0.993   0.370   5.157  0.7613 -0.0470 -0.0032
  163SAPE  H14X18295   1.025   0.476   5.172  1.0155 -0.2059  0.5917
  163SAPE  H14Y18296   1.074   0.325   5.096 -0.7052 -1.8128 -0.7367
  163SAPE  C31518297   0.991   0.304   5.292 -0.4250  0.0624 -1.8219
  163SAPE  H15X18298   0.976   0.195   5.280 -2.0774 -0.0520  0.5436
  163SAPE  H15Y18299   0.897   0.336   5.343  0.6612 -1.6005  1.5380
  163SAPE  C31618300   1.119   0.333   5.370 -0.2252 -0.0230 -0.9219
  163SAPE  H16X18301   1.140   0.440   5.346  0.4425  0.0166 -0.2001
  163SAPE  H16Y18302   1.189   0.268   5.315  0.7859  0.0683  0.2388
  163SAPE  C31718303   1.090   0.295   5.519 -0.2111 -0.1586  0.6180
  163SAPE  H17X18304   1.179   0.248   5.566 -0.2057  0.6563  1.4583
  163SAPE  H17Y18305   1.005   0.224   5.508 -2.4127  2.2752  0.9557
  163SAPE  C31818306   1.042   0.405   5.616 -0.3448  0.0734  0.6332
  163SAPE  H18X18307   1.005   0.353   5.707 -1.1736 -0.7027 -0.1473
  163SAPE  H18Y18308   0.951   0.451   5.574 -0.0888  0.2388  0.2536
  163SAPE  H18Z18309   1.124   0.479   5.635  0.1915 -0.6863  1.3722
  164SAPE     N18310   2.054   5.196   3.039  0.1771  0.1129  0.2401
  164SAPE   HN118311   2.000   5.256   3.105  0.1128  1.6503 -1.1459
  164SAPE   HN218312   2.091   5.251   2.960  0.7712 -0.8196 -0.1452
  164SAPE   HN318313   1.994   5.118   3.006 -0.3916  0.6357  0.0272
  164SAPE   C1218314   2.175   5.155   3.112  0.0427  0.1843 -0.6341
  164SAPE  H12A18315   2.233   5.085   3.049 -2.3985 -1.4739 -1.1817
  164SAPE  H12B18316   2.138   5.101   3.202  1.3137 -0.2380 -0.3477
  164SAPE   C1118317   2.265   5.278   3.159 -0.4423  0.1029 -0.4920
  164SAPE  H11A18318   2.362   5.240   3.198  0.8143  0.8079 -2.6774
  164SAPE  H11B18319   2.219   5.323   3.249  1.8631  1.8643 -0.0819
  164SAPE     P18320   2.228   5.504   3.035 -0.3883 -0.1786 -0.2801
  164SAPE   O1318321   2.315   5.590   2.953 -0.5120 -0.0373  0.0521
  164SAPE   O1418322   2.094   5.467   2.983  0.3045  0.2987  0.2464
  164SAPE   O1218323   2.303   5.367   3.057  0.8226 -0.5538 -0.5187
  164SAPE   O1118324   2.215   5.567   3.179  0.0098  0.6197 -0.3402
  164SAPE    C118325   2.332   5.568   3.263  0.4219  0.1966  0.4045
  164SAPE    HA18326   2.396   5.478   3.248 -0.9892 -0.4824 -2.2885
  164SAPE    HB18327   2.388   5.661   3.239  0.9604 -0.4800 -1.0661
  164SAPE    C218328   2.294   5.566   3.413  0.0072  0.1906 -0.6051
  164SAPE    HS18329   2.372   5.621   3.470 -0.5621  0.8884 -0.4879
  164SAPE   O2118330   2.275   5.439   3.472  0.1537 -0.2416  0.2928
  164SAPE   C2118331   2.384   5.364   3.516  0.2533 -0.4150 -0.1781
  164SAPE   O2218332   2.494   5.409   3.495 -0.0652  0.0301  0.3441
  164SAPE   C2218333   2.346   5.232   3.568  0.1725  0.7111 -0.4244
  164SAPE   H2R18334   2.252   5.237   3.627  0.6356 -2.0967  0.7046
  164SAPE   H2S18335   2.352   5.154   3.489  2.3035  0.9460 -0.5372
  164SAPE    C318336   2.162   5.642   3.425 -0.0005  0.5202 -0.4071
  164SAPE    HX18337   2.076   5.579   3.393  0.5330 -0.4263 -0.0121
  164SAPE    HY18338   2.173   5.726   3.352 -2.5921 -0.2634 -1.8322
  164SAPE   O3118339   2.146   5.676   3.559 -0.3831 -0.3702  0.8496
  164SAPE   C3118340   2.072   5.599   3.627  0.4830  0.9037 -0.3333
  164SAPE   O3218341   2.001   5.505   3.588  0.4396  0.4561 -0.6807
  164SAPE   C3218342   2.070   5.659   3.765  0.0359  0.2456  0.3002
  164SAPE   H2X18343   2.038   5.764   3.748 -0.6330 -0.1531 -1.0352
  164SAPE   H2Y18344   2.169   5.648   3.814  0.6141  1.6904 -0.4848
  164SAPE   C2318345   2.452   5.172   3.670  0.5192 -0.1910  0.3230
  164SAPE   H3R18346   2.479   5.233   3.759 -0.0073 -0.2746  0.5465
  164SAPE   H3S18347   2.546   5.158   3.614 -0.1038  2.7246 -1.6262
  164SAPE   C2418348   2.395   5.033   3.712 -0.5554  0.2516 -0.2517
  164SAPE   H4R18349   2.358   4.983   3.620 -0.6285 -2.7407  1.2929
  164SAPE   H4S18350   2.312   5.051   3.784 -0.5492 -1.2913  0.1756
  164SAPE   C2518351   2.502   4.945   3.778  0.0221  0.0299 -0.2770
  164SAPE   H5R18352   2.581   4.910   3.709 -0.9148  2.1680 -2.6307
  164SAPE   C2618353   2.512   4.906   3.906  0.1246  0.1231 -0.3313
  164SAPE   H6R18354   2.595   4.842   3.939 -0.8769 -0.8810  0.3240
  164SAPE   C2718355   2.418   4.954   4.017 -0.0010  0.1226 -0.3559
  164SAPE   H7R18356   2.377   5.052   3.982  1.3779 -0.1921 -3.1372
  164SAPE   H7S18357   2.471   4.980   4.111  1.9612  1.2410 -1.6947
  164SAPE   C2818358   2.298   4.867   4.056  0.4922  0.3357  0.3685
  164SAPE   H8R18359   2.248   4.815   3.973  0.0206  0.7285  0.4091
  164SAPE   C2918360   2.229   4.869   4.172 -0.1920  0.1052 -0.3544
  164SAPE   H9R18361   2.134   4.815   4.176 -0.3549  0.4279  0.5580
  164SAPE  C21018362   2.267   4.958   4.285 -0.5150 -0.1322  0.5202
  164SAPE  H10R18363   2.285   5.064   4.257  0.7323 -0.8904 -1.7806
  164SAPE  H10S18364   2.368   4.930   4.320  0.9993 -0.0221 -3.2899
  164SAPE  C21118365   2.174   4.933   4.407 -0.5577  0.4729  0.4554
  164SAPE  H11R18366   2.132   4.835   4.435 -0.0024  0.8358  2.7347
  164SAPE  C21218367   2.137   5.029   4.493 -0.6516  0.3761 -0.0400
  164SAPE  H12R18368   2.071   4.997   4.574  0.0569  0.4297  0.5641
  164SAPE  C21318369   2.186   5.173   4.496 -0.2284  0.5094 -0.0938
  164SAPE  H13R18370   2.108   5.251   4.509  0.0803  0.7107  0.5718
  164SAPE  H13S18371   2.249   5.193   4.407  0.2244  0.8243  0.2960
  164SAPE  C21418372   2.284   5.169   4.611  0.0401 -0.1056  0.3992
  164SAPE  H14R18373   2.387   5.132   4.596  0.2648  0.7591 -0.2395
  164SAPE  C21518374   2.262   5.211   4.742 -0.0251  0.3939  0.2208
  164SAPE  H15R18375   2.342   5.198   4.816  0.8696  1.5037 -0.5211
  164SAPE  C21618376   2.143   5.266   4.805 -0.4024 -0.4387  0.5335
  164SAPE  H16R18377   2.060   5.269   4.731  1.9148  0.4408 -2.2322
  164SAPE  H16S18378   2.167   5.373   4.825 -1.5780  0.1337 -0.9031
  164SAPE  C21718379   2.105   5.194   4.931  0.4024  0.4446 -0.3277
  164SAPE  H17R18380   2.080   5.092   4.893 -0.0783  0.5061 -0.1801
  164SAPE  H17S18381   2.008   5.229   4.970  0.9020 -0.1228  1.5159
  164SAPE  C21818382   2.205   5.190   5.054  0.1595  0.0823  0.6767
  164SAPE  H18R18383   2.223   5.289   5.102  0.2372  1.2075 -1.5349
  164SAPE  H18S18384   2.307   5.154   5.028  0.3767  2.1606 -1.7296
  164SAPE  C21918385   2.163   5.104   5.172  0.6444  0.5284  0.2153
  164SAPE  H19R18386   2.247   5.093   5.245  0.6089  0.3583  0.2316
  164SAPE  H19S18387   2.140   4.999   5.143 -1.3471  0.6912  1.0230
  164SAPE  C22018388   2.038   5.152   5.244 -0.0819 -0.2113  0.1530
  164SAPE  H20R18389   2.029   5.262   5.258 -1.9394 -0.2065 -0.7710
  164SAPE  H20S18390   2.036   5.114   5.348  2.0542  0.5671  0.5313
  164SAPE  H20T18391   1.953   5.110   5.187 -0.1010  0.2863 -0.1937
  164SAPE   C3318392   1.965   5.589   3.854 -0.2595 -0.4010  0.1457
  164SAPE   H3X18393   1.989   5.483   3.878 -1.3274 -0.4487  1.0750
  164SAPE   H3Y18394   1.867   5.582   3.802  0.3288  0.0452 -1.0633
  164SAPE   C3418395   1.957   5.673   3.986  0.8562  0.6273 -0.2317
  164SAPE   H4X18396   1.890   5.760   3.963 -0.6658 -0.1479  1.0394
  164SAPE   H4Y18397   2.058   5.704   4.020  0.7895 -1.1552  1.7989
  164SAPE   C3518398   1.910   5.586   4.105  0.8827 -0.4086 -0.1221
  164SAPE   H5X18399   1.983   5.509   4.139  1.0611  0.1032  0.6813
  164SAPE   H5Y18400   1.818   5.532   4.075  1.2400 -0.0896 -1.9079
  164SAPE   C3618401   1.879   5.675   4.227  0.5525  0.2738 -0.0814
  164SAPE   H6X18402   1.811   5.757   4.197  0.9692  0.1077 -1.5283
  164SAPE   H6Y18403   1.967   5.727   4.271  0.2106  0.3518  0.5169
  164SAPE   C3718404   1.804   5.597   4.330  0.7240 -0.2412 -0.3560
  164SAPE   H7X18405   1.853   5.500   4.354 -0.9784 -0.4686  2.7235
  164SAPE   H7Y18406   1.706   5.564   4.290  0.9671 -0.6184 -0.6502
  164SAPE   C3818407   1.768   5.683   4.460 -0.1341  0.0049 -0.1489
  164SAPE   H8X18408   1.687   5.751   4.427  0.3046 -0.7458 -3.0791
  164SAPE   H8Y18409   1.858   5.747   4.475 -1.5388  1.6212  1.8264
  164SAPE   C3918410   1.735   5.613   4.592  0.1979 -0.1181 -0.0023
  164SAPE   H9X18411   1.823   5.553   4.622 -0.5189 -0.9413  0.5055
  164SAPE   H9Y18412   1.646   5.550   4.571 -0.5808  0.9828 -0.1255
  164SAPE  C31018413   1.697   5.719   4.699 -0.7926  0.0684 -0.1073
  164SAPE  H10X18414   1.603   5.766   4.663 -0.4486  1.0307  0.1964
  164SAPE  H10Y18415   1.764   5.808   4.697  1.1659 -1.3614 -1.2556
  164SAPE  C31118416   1.685   5.673   4.841  0.2696 -0.2423  0.9317
  164SAPE  H11X18417   1.599   5.603   4.855 -0.5454  0.3749 -0.7712
  164SAPE  H11Y18418   1.655   5.769   4.888 -0.3017  1.3262 -2.3686
  164SAPE  C31218419   1.813   5.620   4.907  0.1224  0.3249  0.6843
  164SAPE  H12X18420   1.860   5.532   4.857  0.7574  0.5339  0.9027
  164SAPE  H12Y18421   1.790   5.577   5.007  1.1692 -0.6921  0.5243
  164SAPE  C31318422   1.921   5.719   4.934 -0.2529  0.4350 -0.5456
  164SAPE  H13X18423   1.880   5.793   5.007  2.8516 -0.8266  2.7926
  164SAPE  H13Y18424   1.953   5.767   4.839 -1.4792 -0.7335 -1.5837
  164SAPE  C31418425   2.047   5.660   5.018  0.6888  0.0295 -0.3179
  164SAPE  H14X18426   2.103   5.599   4.944  0.4290  2.2479 -2.4485
  164SAPE  H14Y18427   2.008   5.591   5.095  0.2206 -0.8058 -1.2767
  164SAPE  C31518428   2.126   5.770   5.095 -0.2664 -0.1475 -0.5151
  164SAPE  H15X18429   2.053   5.837   5.143  0.3893  0.7182 -0.7050
  164SAPE  H15Y18430   2.177   5.834   5.020  0.9460 -0.8365 -0.3175
  164SAPE  C31618431   2.220   5.722   5.203  0.0730 -0.1162 -0.7321
  164SAPE  H16X18432   2.153   5.673   5.277  2.6289 -3.2982 -0.3134
  164SAPE  H16Y18433   2.277   5.803   5.253 -2.1921  1.6405 -0.8440
  164SAPE  C31718434   2.308   5.602   5.153  0.5510  0.0269 -0.4254
  164SAPE  H17X18435   2.363   5.638   5.064 -2.2130  2.3196 -1.3667
  164SAPE  H17Y18436   2.240   5.521   5.120  1.2044 -0.9719  0.5867
  164SAPE  C31818437   2.405   5.547   5.255  0.0775 -0.4522 -0.6483
  164SAPE  H18X18438   2.473   5.476   5.202  1.5975  0.2237  0.3436
  164SAPE  H18Y18439   2.350   5.501   5.340 -2.3510 -1.4530 -2.6438
  164SAPE  H18Z18440   2.456   5.633   5.303 -1.2703 -1.1027  2.1672
  165SAPE     N18441   1.429   5.455   3.174 -0.6040 -0.1200  0.1851
  165SAPE   HN118442   1.400   5.398   3.256  3.3276 -0.4937  1.5512
  165SAPE   HN218443   1.423   5.557   3.195  1.3455  0.5248 -1.9636
  165SAPE   HN318444   1.364   5.445   3.095  0.0700  0.6707 -0.4917
  165SAPE   C1218445   1.568   5.404   3.140 -0.1342  0.3136 -0.1669
  165SAPE  H12A18446   1.571   5.294   3.155  0.8049  0.2929 -0.4261
  165SAPE  H12B18447   1.646   5.455   3.201 -0.0383  1.0214 -0.8590
  165SAPE   C1118448   1.606   5.433   2.995  0.0895 -0.1540  0.6942
  165SAPE  H11A18449   1.538   5.372   2.931 -0.1793 -0.9750  1.7337
  165SAPE  H11B18450   1.706   5.389   2.974  0.2437  0.7856 -0.7029
  165SAPE     P18451   1.694   5.679   2.989  0.0138  0.1128  0.1045
  165SAPE   O1318452   1.789   5.673   2.877  0.1244  0.1702 -0.4088
  165SAPE   O1418453   1.617   5.805   3.004 -0.1938 -0.0258 -0.0806
  165SAPE   O1218454   1.590   5.568   2.962  0.3250  0.0570  0.0002
  165SAPE   O1118455   1.765   5.642   3.126  0.5925 -0.4183 -0.3584
  165SAPE    C118456   1.832   5.747   3.200  0.0485 -0.2959  0.3068
  165SAPE    HA18457   1.903   5.702   3.272  1.3757 -0.6410 -1.1625
  165SAPE    HB18458   1.894   5.811   3.134  1.1175 -1.4267  0.1958
  165SAPE    C218459   1.738   5.833   3.295  0.2836  0.8376 -0.0322
  165SAPE    HS18460   1.663   5.886   3.234 -1.4796 -2.0038 -0.4975
  165SAPE   O2118461   1.814   5.925   3.374  0.6274  0.1903 -0.3021
  165SAPE   C2118462   1.865   6.026   3.318  0.4714  0.4484  0.5328
  165SAPE   O2218463   1.850   6.053   3.198  0.4361 -0.5021  0.3754
  165SAPE   C2218464   1.945   6.108   3.419 -0.1864 -0.0050  0.3004
  165SAPE   H2R18465   1.891   6.203   3.438 -3.1831 -1.3652 -0.7105
  165SAPE   H2S18466   1.942   6.050   3.514 -0.9308  0.3844  0.5301
  165SAPE    C318467   1.659   5.737   3.389  0.2946 -0.5102  0.0231
  165SAPE    HX18468   1.721   5.699   3.473 -0.7320 -1.9626  0.1459
  165SAPE    HY18469   1.635   5.640   3.341  1.8766 -1.6738  1.4759
  165SAPE   O3118470   1.548   5.808   3.454  0.1093 -0.3370  0.0618
  165SAPE   C3118471   1.433   5.800   3.389 -0.0298 -0.0016 -0.3073
  165SAPE   O3218472   1.416   5.738   3.288 -0.2987 -0.2545  0.9765
  165SAPE   C3218473   1.334   5.886   3.460  0.1035  0.0943  0.2738
  165SAPE   H2X18474   1.320   5.983   3.407  0.5811  0.5768  1.0145
  165SAPE   H2Y18475   1.381   5.901   3.559  2.0443 -0.7416 -0.4750
  165SAPE   C2318476   2.093   6.134   3.396 -0.3066  0.2390  0.1705
  165SAPE   H3R18477   2.111   6.221   3.329  1.3705 -1.0476 -1.1081
  165SAPE   H3S18478   2.145   6.046   3.354 -0.6925 -0.7165  1.6094
  165SAPE   C2418479   2.161   6.182   3.523  0.0772  0.3640  0.9344
  165SAPE   H4R18480   2.103   6.248   3.590  0.9532  1.6822  0.4343
  165SAPE   H4S18481   2.250   6.238   3.488  0.8642 -1.4925 -0.2420
  165SAPE   C2518482   2.236   6.078   3.603 -0.0973 -0.1078  1.1392
  165SAPE   H5R18483   2.327   6.039   3.556  0.2456 -1.8138  3.1035
  165SAPE   C2618484   2.191   6.022   3.714  0.0698  1.5085  0.5510
  165SAPE   H6R18485   2.249   5.946   3.768 -1.0819 -0.5783 -0.9964
  165SAPE   C2718486   2.057   6.048   3.785  0.3172 -0.2339  0.0587
  165SAPE   H7R18487   2.008   5.957   3.825 -1.5006 -0.0338 -1.5789
  165SAPE   H7S18488   1.992   6.090   3.706 -0.5272 -0.4556  0.6188
  165SAPE   C2818489   2.064   6.157   3.888 -0.3812  0.2537  0.2387
  165SAPE   H8R18490   2.073   6.263   3.860  0.5752 -0.2798 -1.5899
  165SAPE   C2918491   2.064   6.140   4.021  0.2664  0.2640 -1.0767
  165SAPE   H9R18492   2.077   6.228   4.085  2.0700 -0.4325 -0.4368
  165SAPE  C21018493   2.056   6.006   4.099  0.1680  0.0868 -0.4217
  165SAPE  H10R18494   2.160   5.992   4.135  1.1589 -0.8699 -3.3690
  165SAPE  H10S18495   2.044   5.923   4.026 -1.1475 -1.2178  1.1756
  165SAPE  C21118496   1.956   6.009   4.208  0.3607 -0.3150  0.3106
  165SAPE  H11R18497   1.866   5.959   4.168 -0.9005  1.4915  0.7655
  165SAPE  C21218498   1.958   6.070   4.330  0.1895 -0.2550  0.0750
  165SAPE  H12R18499   1.870   6.072   4.397  1.8381  0.9603  2.3537
  165SAPE  C21318500   2.085   6.136   4.382 -0.3150  0.8790  0.1356
  165SAPE  H13R18501   2.055   6.188   4.475 -0.4492 -1.5768  1.5466
  165SAPE  H13S18502   2.124   6.214   4.313  0.4946  0.9767  0.6960
  165SAPE  C21418503   2.199   6.037   4.407 -0.6340 -0.0324 -0.4137
  165SAPE  H14R18504   2.286   6.035   4.339 -0.2961 -1.7169  0.0144
  165SAPE  C21518505   2.213   5.982   4.528 -0.2485  0.0117  0.0914
  165SAPE  H15R18506   2.307   5.927   4.542 -0.5606 -0.3651  0.7265
  165SAPE  C21618507   2.129   5.975   4.648 -0.0716 -0.3728  0.2315
  165SAPE  H16R18508   2.154   5.887   4.712  0.7809  0.5651  1.2225
  165SAPE  H16S18509   2.024   5.980   4.612 -0.0961 -2.4533 -0.0878
  165SAPE  C21718510   2.148   6.095   4.748 -0.1524 -0.4434  0.0582
  165SAPE  H17R18511   2.137   6.184   4.683 -1.0596 -0.9354 -0.4704
  165SAPE  H17S18512   2.255   6.095   4.777  0.1113  3.5477 -0.3166
  165SAPE  C21818513   2.044   6.088   4.864 -1.2753  0.5857  0.6559
  165SAPE  H18R18514   2.053   5.986   4.905 -1.3105 -0.8589 -2.6206
  165SAPE  H18S18515   1.938   6.092   4.830 -1.2924 -0.3274  0.5873
  165SAPE  C21918516   2.054   6.188   4.977 -0.4335  0.5214  0.3176
  165SAPE  H19R18517   1.977   6.157   5.051 -1.0155  1.2585  0.0331
  165SAPE  H19S18518   2.032   6.293   4.949  0.5123  0.7641  0.4396
  165SAPE  C22018519   2.195   6.193   5.044  0.5021 -0.4191  0.2191
  165SAPE  H20R18520   2.275   6.233   4.979  0.0861  2.1189  1.1620
  165SAPE  H20S18521   2.225   6.093   5.081  0.3987 -0.9563 -1.0666
  165SAPE  H20T18522   2.193   6.266   5.127 -1.4938 -0.1541  0.0013
  165SAPE   C3318523   1.205   5.813   3.463  0.4058  0.3224 -0.0946
  165SAPE   H3X18524   1.199   5.709   3.502 -0.3286 -0.1455 -1.4049
  165SAPE   H3Y18525   1.173   5.805   3.357  0.1870  0.7314 -0.0593
  165SAPE   C3418526   1.106   5.889   3.555 -0.3132 -0.3763 -0.1935
  165SAPE   H4X18527   1.011   5.832   3.560  0.1490 -1.1854 -0.4044
  165SAPE   H4Y18528   1.079   5.983   3.503 -2.3467 -1.2249 -0.7898
  165SAPE   C3518529   1.174   5.925   3.691 -0.3074 -0.4369 -0.4138
  165SAPE   H5X18530   1.252   6.002   3.673 -0.0105 -1.1227 -2.3222
  165SAPE   H5Y18531   1.223   5.838   3.738 -0.4247  1.0871  2.7705
  165SAPE   C3618532   1.075   5.970   3.798  0.0823  0.2289  1.0209
  165SAPE   H6X18533   1.016   5.877   3.814 -0.3134  0.1134 -0.8560
  165SAPE   H6Y18534   1.010   6.051   3.756 -1.7042 -2.0128 -0.8527
  165SAPE   C3718535   1.148   6.010   3.928  0.6198 -0.2331  0.0242
  165SAPE   H7X18536   1.213   6.098   3.915  2.3981 -1.2685  1.4156
  165SAPE   H7Y18537   1.213   5.928   3.965 -0.2799  0.2643  2.9302
  165SAPE   C3818538   1.043   6.057   4.041 -0.3624 -0.2712  0.3818
  165SAPE   H8X18539   0.949   5.999   4.047 -2.0669  2.3584  0.7843
  165SAPE   H8Y18540   1.015   6.160   4.009  1.3475  0.4708  1.1471
  165SAPE   C3918541   1.108   6.056   4.176  0.6696  0.6507 -0.1352
  165SAPE   H9X18542   1.192   6.129   4.184 -0.7435  2.1956  1.6596
  165SAPE   H9Y18543   1.155   5.957   4.193  1.8004  1.2905  0.5602
  165SAPE  C31018544   1.012   6.088   4.292 -0.3301 -0.7933  0.6321
  165SAPE  H10X18545   0.917   6.032   4.285 -1.8715  1.4697  1.9044
  165SAPE  H10Y18546   0.998   6.198   4.282 -1.5950 -0.8707  1.3813
  165SAPE  C31118547   1.066   6.072   4.439  0.0760  0.2830 -0.0925
  165SAPE  H11X18548   1.167   6.116   4.437 -0.4133  1.4415 -1.9833
  165SAPE  H11Y18549   1.063   5.963   4.463 -0.6787  0.3068 -0.0393
  165SAPE  C31218550   0.975   6.132   4.553 -0.4137  0.2587  0.1532
  165SAPE  H12X18551   0.880   6.074   4.555  0.1152 -0.7153 -1.3450
  165SAPE  H12Y18552   0.950   6.237   4.525  0.6030  0.1814 -1.1276
  165SAPE  C31318553   1.042   6.123   4.695 -0.1405 -0.6113  0.3760
  165SAPE  H13X18554   1.128   6.193   4.687 -0.6450 -0.1837 -1.9226
  165SAPE  H13Y18555   1.082   6.021   4.715  3.5697  0.0690 -2.4791
  165SAPE  C31418556   0.952   6.184   4.807 -0.6276 -0.0171 -0.5870
  165SAPE  H14X18557   0.859   6.125   4.821 -0.0420 -0.2936  2.9432
  165SAPE  H14Y18558   0.929   6.291   4.789 -2.1074 -0.4463 -1.3460
  165SAPE  C31518559   1.038   6.179   4.941  0.3185  0.0753  0.5214
  165SAPE  H15X18560   1.124   6.250   4.942  1.8525 -1.7093  0.9070
  165SAPE  H15Y18561   1.079   6.076   4.942 -1.2407 -0.6685 -1.7755
  165SAPE  C31618562   0.953   6.194   5.063  0.3172  0.0487 -0.3482
  165SAPE  H16X18563   0.864   6.127   5.053  2.4601 -2.8644 -1.2751
  165SAPE  H16Y18564   0.913   6.298   5.066  0.9056  0.2643  1.5675
  165SAPE  C31718565   1.034   6.163   5.179 -0.0764 -0.2249 -0.2442
  165SAPE  H17X18566   1.072   6.059   5.177  1.0768  0.1872 -1.7273
  165SAPE  H17Y18567   0.963   6.171   5.264  2.1753  1.1921  1.6324
  165SAPE  C31818568   1.157   6.257   5.209 -0.1617 -0.1252 -0.0895
  165SAPE  H18X18569   1.251   6.221   5.160 -0.0288 -1.4333  1.0639
  165SAPE  H18Y18570   1.187   6.247   5.316  1.1026  0.2129 -0.3997
  165SAPE  H18Z18571   1.141   6.361   5.177  1.2271  0.2067  0.2260
  166SAPE     N18572   1.938   6.282   3.078  0.0452  0.7937  0.1402
  166SAPE   HN118573   2.036   6.282   3.045 -0.5314  0.7717 -1.6899
  166SAPE   HN218574   1.928   6.346   3.160  2.8294  0.1474  1.0814
  166SAPE   HN318575   1.917   6.185   3.108  3.1022  0.8499  3.0455
  166SAPE   C1218576   1.841   6.331   2.970 -0.1146 -0.4892  0.0934
  166SAPE  H12A18577   1.891   6.318   2.872  0.7401  0.0448  0.4426
  166SAPE  H12B18578   1.816   6.435   3.000 -0.9115 -1.0066  1.3209
  166SAPE   C1118579   1.708   6.249   2.990 -1.2388  0.0310  0.6530
  166SAPE  H11A18580   1.731   6.146   2.954  0.8113  0.2366  1.2043
  166SAPE  H11B18581   1.638   6.291   2.915  0.4578  2.6394  0.3957
  166SAPE     P18582   1.572   6.386   3.153  0.0799  0.4393  0.3410
  166SAPE   O1318583   1.669   6.470   3.224  0.0782 -0.2172  0.3806
  166SAPE   O1418584   1.503   6.432   3.032 -0.3182 -0.0067  0.3310
  166SAPE   O1218585   1.644   6.243   3.118 -0.0021  0.1289 -0.5828
  166SAPE   O1118586   1.460   6.336   3.257 -0.2963 -0.7819  0.6431
  166SAPE    C118587   1.491   6.224   3.352  0.7211 -0.7067  0.2850
  166SAPE    HA18588   1.389   6.210   3.395  0.3296  1.9326  0.3411
  166SAPE    HB18589   1.536   6.138   3.298 -0.0179 -0.5268 -0.6543
  166SAPE    C218590   1.573   6.262   3.470 -0.2818 -0.3467  0.3687
  166SAPE    HS18591   1.677   6.297   3.448 -0.8737  1.1840 -0.1205
  166SAPE   O2118592   1.575   6.145   3.551 -0.1447 -0.1310  0.5517
  166SAPE   C2118593   1.634   6.143   3.671  0.2786  0.0009 -0.0972
  166SAPE   O2218594   1.703   6.228   3.721 -0.1142  0.2368 -0.7380
  166SAPE   C2218595   1.604   6.011   3.730  0.5868 -0.1106 -0.0212
  166SAPE   H2R18596   1.496   5.985   3.727  0.5095  0.2224 -0.1900
  166SAPE   H2S18597   1.642   5.933   3.661 -0.6420 -0.1903 -0.6456
  166SAPE    C318598   1.515   6.379   3.548  0.9058 -0.0191  0.5732
  166SAPE    HX18599   1.506   6.462   3.474  0.3932 -0.1702  0.4597
  166SAPE    HY18600   1.594   6.418   3.616 -0.0548  2.3814  0.4241
  166SAPE   O3118601   1.387   6.352   3.614  0.3234 -0.1454  0.8125
  166SAPE   C3118602   1.339   6.457   3.679 -0.3149 -0.6245  0.3223
  166SAPE   O3218603   1.395   6.567   3.684 -0.4813 -0.4508 -0.3446
  166SAPE   C3218604   1.211   6.412   3.750 -0.1529 -0.3701 -0.8972
  166SAPE   H2X18605   1.208   6.301   3.758  0.1965 -0.2664  1.0953
  166SAPE   H2Y18606   1.132   6.442   3.678 -1.1889 -0.1171  0.3120
  166SAPE   C2318607   1.662   5.972   3.869 -0.0220  0.1827 -0.1172
  166SAPE   H3R18608   1.757   6.029   3.882 -0.3759  1.3959 -2.3167
  166SAPE   H3S18609   1.674   5.863   3.854  0.6537  0.5273 -2.6093
  166SAPE   C2418610   1.565   5.990   3.983  0.4580 -0.4463  0.1034
  166SAPE   H4R18611   1.592   5.915   4.060  0.6801 -0.9839 -0.4849
  166SAPE   H4S18612   1.467   5.946   3.957 -0.2870  1.0135  0.3517
  166SAPE   C2518613   1.564   6.128   4.031  0.5966 -0.2347 -0.2103
  166SAPE   H5R18614   1.564   6.210   3.958  2.8047  0.1070  0.1218
  166SAPE   C2618615   1.564   6.170   4.161 -0.2989 -0.2604  0.2068
  166SAPE   H6R18616   1.579   6.278   4.176  1.5812 -0.1119 -2.1396
  166SAPE   C2718617   1.574   6.075   4.283  0.5720 -0.1072  0.0858
  166SAPE   H7R18618   1.680   6.081   4.315  0.1591  1.3125  1.3057
  166SAPE   H7S18619   1.547   5.969   4.264  2.6357 -0.5509 -0.6658
  166SAPE   C2818620   1.496   6.148   4.398 -0.6268 -0.3797  0.1453
  166SAPE   H8R18621   1.394   6.182   4.377  0.2030  1.2643 -1.4821
  166SAPE   C2918622   1.523   6.138   4.528  0.0003  0.5180 -0.0994
  166SAPE   H9R18623   1.470   6.209   4.594  2.6426  1.4627  1.1725
  166SAPE  C21018624   1.653   6.094   4.593 -0.2708 -0.3292  0.0608
  166SAPE  H10R18625   1.727   6.143   4.526 -1.4594  1.5286  0.0555
  166SAPE  H10S18626   1.673   5.985   4.583 -0.1745 -0.2383 -0.8403
  166SAPE  C21118627   1.684   6.142   4.730  0.0473 -0.1193 -0.4173
  166SAPE  H11R18628   1.773   6.207   4.730  0.2617 -0.4008  0.1981
  166SAPE  C21218629   1.612   6.122   4.845  0.3946  0.0459  0.8718
  166SAPE  H12R18630   1.644   6.177   4.935 -2.0524  1.5896  0.8805
  166SAPE  C21318631   1.493   6.031   4.854 -0.2564 -0.0030 -0.3140
  166SAPE  H13R18632   1.531   5.927   4.868  1.3575  0.6640  0.3807
  166SAPE  H13S18633   1.439   6.031   4.757 -1.3918 -0.3323  0.3013
  166SAPE  C21418634   1.395   6.055   4.963  1.1903  0.2857  0.4525
  166SAPE  H14R18635   1.337   6.149   4.960 -2.3473 -1.7570 -0.9837
  166SAPE  C21518636   1.355   5.960   5.059 -0.1173 -0.4256  0.0447
  166SAPE  H15R18637   1.283   5.990   5.137 -1.4152 -1.0932 -0.8694
  166SAPE  C21618638   1.420   5.826   5.080 -0.0894 -0.2081  0.1419
  166SAPE  H16R18639   1.466   5.773   4.993  0.7100 -0.2048  0.5553
  166SAPE  H16S18640   1.329   5.775   5.116 -0.6037  2.4612  2.9523
  166SAPE  C21718641   1.520   5.815   5.197  0.2988  0.6294 -0.2348
  166SAPE  H17R18642   1.568   5.715   5.195 -1.0729 -0.0804  0.6084
  166SAPE  H17S18643   1.476   5.833   5.298  2.0754  0.6124  0.5877
  166SAPE  C21818644   1.629   5.923   5.194 -0.5679 -0.5368 -0.0744
  166SAPE  H18R18645   1.592   6.024   5.220  0.4077  0.2828 -1.6932
  166SAPE  H18S18646   1.679   5.920   5.095  0.4465  0.4274  0.3901
  166SAPE  C21918647   1.742   5.894   5.300 -0.5671 -0.1846 -0.1921
  166SAPE  H19R18648   1.829   5.961   5.282 -0.6372 -0.5452 -2.0203
  166SAPE  H19S18649   1.775   5.790   5.278  0.0115 -0.0857  0.1914
  166SAPE  C22018650   1.694   5.907   5.445 -0.3980 -0.4843 -0.2810
  166SAPE  H20R18651   1.654   6.010   5.462  0.1641 -0.2544 -0.3247
  166SAPE  H20S18652   1.774   5.894   5.521  0.7756  1.4008 -1.1083
  166SAPE  H20T18653   1.614   5.834   5.470  0.4337 -1.3942 -0.2352
  166SAPE   C3318654   1.199   6.480   3.892  0.1647  0.6789  0.2205
  166SAPE   H3X18655   1.091   6.479   3.918 -0.0477 -2.2080 -0.4346
  166SAPE   H3Y18656   1.227   6.588   3.887 -0.7180  1.0117  1.6879
  166SAPE   C3418657   1.271   6.403   4.000  0.0459  0.4282  0.1704
  166SAPE   H4X18658   1.375   6.397   3.962  0.3705  1.1731  0.9198
  166SAPE   H4Y18659   1.207   6.312   4.004 -2.5385  2.1829  0.9088
  166SAPE   C3518660   1.268   6.491   4.119  0.7234 -0.3491  0.0512
  166SAPE   H5X18661   1.165   6.531   4.136  0.7085  0.2836 -1.3736
  166SAPE   H5Y18662   1.338   6.576   4.106 -2.0099  1.8025 -1.8649
  166SAPE   C3618663   1.303   6.427   4.251  0.5108  0.7798  0.9319
  166SAPE   H6X18664   1.409   6.395   4.244  0.2893  0.2278 -0.0832
  166SAPE   H6Y18665   1.229   6.347   4.272  0.9474  0.5043  1.4226
  166SAPE   C3718666   1.302   6.510   4.377  0.3113 -0.4309 -0.1238
  166SAPE   H7X18667   1.197   6.547   4.376  0.8491  1.1956 -0.1412
  166SAPE   H7Y18668   1.365   6.601   4.376  0.0234 -0.2192 -1.2060
  166SAPE   C3818669   1.348   6.445   4.507  0.4399  0.0514  0.1243
  166SAPE   H8X18670   1.456   6.421   4.508  0.0388 -2.5046 -2.4696
  166SAPE   H8Y18671   1.296   6.347   4.511  1.5961 -0.6451 -1.2043
  166SAPE   C3918672   1.308   6.536   4.630  0.0659 -0.4881  0.2297
  166SAPE   H9X18673   1.203   6.570   4.615  0.6187  1.5114  0.5204
  166SAPE   H9Y18674   1.367   6.628   4.607  0.4102 -1.2301 -2.1667
  166SAPE  C31018675   1.340   6.472   4.767  0.3329 -0.1463  0.5711
  166SAPE  H10X18676   1.451   6.467   4.769  0.4278  1.5604  2.1597
  166SAPE  H10Y18677   1.304   6.367   4.779  1.2673 -0.5715 -0.1783
  166SAPE  C31118678   1.308   6.575   4.884  0.3963 -0.0159  0.2475
  166SAPE  H11X18679   1.205   6.611   4.865 -0.2412 -2.9700 -2.6988
  166SAPE  H11Y18680   1.371   6.667   4.883  3.2893 -1.8112  1.9957
  166SAPE  C31218681   1.321   6.507   5.025 -0.0467  0.2947 -0.1590
  166SAPE  H12X18682   1.273   6.406   5.029 -1.5276  0.9993  1.1813
  166SAPE  H12Y18683   1.275   6.563   5.110 -0.0639 -1.0497  0.7565
  166SAPE  C31318684   1.468   6.494   5.060  0.5734 -0.6253  0.7032
  166SAPE  H13X18685   1.506   6.598   5.073 -1.2211  0.2305 -0.5188
  166SAPE  H13Y18686   1.525   6.452   4.975 -0.2569 -0.4354  0.0482
  166SAPE  C31418687   1.482   6.405   5.187 -0.2831  0.3884  0.4965
  166SAPE  H14X18688   1.462   6.301   5.154  1.4601  0.3128 -0.4397
  166SAPE  H14Y18689   1.407   6.426   5.266 -0.4447  0.7096  0.2599
  166SAPE  C31518690   1.620   6.423   5.255 -0.4548  0.0357  0.2666
  166SAPE  H15X18691   1.617   6.524   5.302 -2.2553  0.4455 -0.6718
  166SAPE  H15Y18692   1.703   6.421   5.181 -1.0437  0.5178 -0.4223
  166SAPE  C31618693   1.664   6.312   5.346 -0.2312 -0.1778  0.6477
  166SAPE  H16X18694   1.693   6.217   5.297 -2.7049 -0.3468 -0.6441
  166SAPE  H16Y18695   1.568   6.288   5.398 -1.4380 -1.7774 -2.1296
  166SAPE  C31718696   1.767   6.360   5.450  0.1048  0.4078  0.0650
  166SAPE  H17X18697   1.750   6.465   5.484 -0.0865  1.5726 -3.2571
  166SAPE  H17Y18698   1.860   6.378   5.391  0.0560 -1.1233 -0.5063
  166SAPE  C31818699   1.778   6.260   5.564 -0.1261 -0.7999  0.0764
  166SAPE  H18X18700   1.816   6.161   5.530 -2.0224 -0.6628 -2.8576
  166SAPE  H18Y18701   1.673   6.256   5.599 -0.3321 -1.3627 -0.5814
  166SAPE  H18Z18702   1.837   6.299   5.649 -0.1906  1.2480 -0.7548
  167SAPE     N18703   3.766   1.739   2.940 -0.6202  0.0313  0.0242
  167SAPE   HN118704   3.862   1.775   2.920 -1.6786  2.3520 -1.2644
  167SAPE   HN218705   3.772   1.640   2.971  0.8123  0.3642  0.9333
  167SAPE   HN318706   3.709   1.735   2.853 -0.9025  2.9016 -0.0195
  167SAPE   C1218707   3.696   1.820   3.043  0.9102  0.1843 -0.2752
  167SAPE  H12A18708   3.774   1.884   3.089  1.2612 -1.1032  0.9841
  167SAPE  H12B18709   3.668   1.762   3.133  0.6003  2.4301  1.1478
  167SAPE   C1118710   3.562   1.891   2.998 -0.4559 -0.0452 -0.9662
  167SAPE  H11A18711   3.579   1.980   2.935  1.8858 -0.7484 -1.4196
  167SAPE  H11B18712   3.517   1.921   3.095  1.4284  0.9877 -0.3669
  167SAPE     P18713   3.401   1.685   3.006  0.1309  0.2926 -0.2216
  167SAPE   O1318714   3.278   1.640   2.930 -0.1531 -0.1646 -0.1313
  167SAPE   O1418715   3.500   1.579   3.031  0.4720  0.2931 -0.7670
  167SAPE   O1218716   3.479   1.801   2.930  0.4057  0.1195 -0.0283
  167SAPE   O1118717   3.354   1.754   3.131  0.1484  0.0570 -0.1332
  167SAPE    C118718   3.211   1.798   3.156 -0.2226  0.3731  0.8695
  167SAPE    HA18719   3.155   1.813   3.061  0.3632  2.6191  0.8257
  167SAPE    HB18720   3.142   1.726   3.204 -0.6401 -1.0743 -1.7077
  167SAPE    C218721   3.194   1.923   3.243  0.4983 -0.3020  0.2162
  167SAPE    HS18722   3.225   2.018   3.196  1.8971 -0.4716  0.7614
  167SAPE   O2118723   3.283   1.899   3.352 -0.1113  0.1568 -0.0131
  167SAPE   C2118724   3.361   1.999   3.389  0.1085  0.4084  0.3708
  167SAPE   O2218725   3.378   2.110   3.327  0.3117  0.7734 -1.0890
  167SAPE   C2218726   3.419   1.956   3.526 -0.2955 -0.4977 -0.2301
  167SAPE   H2R18727   3.354   1.985   3.612 -0.4630  0.1868 -0.5787
  167SAPE   H2S18728   3.427   1.846   3.518 -1.9261 -0.7011  0.5860
  167SAPE    C318729   3.048   1.943   3.299  0.0971 -0.6349  0.7389
  167SAPE    HX18730   3.021   1.856   3.363  1.1312 -1.0718  0.5875
  167SAPE    HY18731   2.977   1.936   3.214 -0.7276 -2.3186  1.4996
  167SAPE   O3118732   3.044   2.061   3.377 -0.4648 -0.1155  0.3191
  167SAPE   C3118733   2.923   2.122   3.372  0.8245 -0.0451  0.4452
  167SAPE   O3218734   2.834   2.092   3.295  0.1459 -0.3995 -0.6157
  167SAPE   C3218735   2.928   2.239   3.471  0.0613 -0.2666  0.5465
  167SAPE   H2X18736   2.903   2.329   3.412  0.1757 -1.2727 -1.0996
  167SAPE   H2Y18737   3.031   2.239   3.514 -0.3304 -0.9233  1.5251
  167SAPE   C2318738   3.558   2.021   3.545  0.6931 -0.3024  0.7890
  167SAPE   H3R18739   3.546   2.131   3.555 -1.1777 -0.3830 -0.1870
  167SAPE   H3S18740   3.613   2.006   3.450 -1.6606 -2.1322 -0.4041
  167SAPE   C2418741   3.640   1.970   3.664 -0.7399 -0.2807  0.3330
  167SAPE   H4R18742   3.662   1.864   3.639 -0.1466  0.3143 -1.9426
  167SAPE   H4S18743   3.580   1.975   3.757 -0.5254  1.9168  0.3881
  167SAPE   C2518744   3.769   2.052   3.678 -0.5144  0.8363 -0.6447
  167SAPE   H5R18745   3.849   2.043   3.603  0.4302  0.5993  0.3546
  167SAPE   C2618746   3.805   2.114   3.793  0.4950 -0.1756 -0.4000
  167SAPE   H6R18747   3.907   2.156   3.799 -0.3342  2.0864 -0.9166
  167SAPE   C2718748   3.728   2.139   3.910  0.3610  0.2053 -0.4163
  167SAPE   H7R18749   3.804   2.141   3.991  1.6608 -1.5890 -1.5423
  167SAPE   H7S18750   3.650   2.062   3.929 -0.0923  0.9857  1.0560
  167SAPE   C2818751   3.654   2.269   3.907  0.0496  0.3995 -0.2114
  167SAPE   H8R18752   3.609   2.295   3.810 -3.3610  0.5803  1.2847
  167SAPE   C2918753   3.599   2.327   4.012  0.0218 -0.4769  0.2549
  167SAPE   H9R18754   3.533   2.410   3.985 -1.3437 -1.6531 -0.1267
  167SAPE  C21018755   3.618   2.282   4.153  0.2607 -0.0800 -0.3386
  167SAPE  H10R18756   3.655   2.178   4.167  2.7843  0.9175  1.0441
  167SAPE  H10S18757   3.520   2.288   4.205 -0.7113 -3.2290 -1.5599
  167SAPE  C21118758   3.705   2.385   4.220 -0.4602  0.3593 -0.5471
  167SAPE  H11R18759   3.810   2.369   4.191 -0.7548  0.8775 -1.9777
  167SAPE  C21218760   3.668   2.488   4.301  0.8049 -0.5505  0.2226
  167SAPE  H12R18761   3.752   2.551   4.333  0.3827  1.3379 -2.1077
  167SAPE  C21318762   3.522   2.537   4.336 -0.2124  0.2309 -0.7267
  167SAPE  H13R18763   3.511   2.519   4.445 -0.4521 -1.7454 -1.0431
  167SAPE  H13S18764   3.460   2.470   4.273  1.1770 -2.2707  0.4047
  167SAPE  C21418765   3.497   2.682   4.301  0.0593 -0.4184  0.4220
  167SAPE  H14R18766   3.518   2.744   4.389 -0.7438 -2.0292  1.8272
  167SAPE  C21518767   3.455   2.736   4.185  0.0961 -0.2615  0.3379
  167SAPE  H15R18768   3.439   2.845   4.185  0.4026 -0.0850  3.8247
  167SAPE  C21618769   3.417   2.666   4.059  0.6926 -0.6072  0.5612
  167SAPE  H16R18770   3.316   2.697   4.026 -0.8473 -4.5724  1.0704
  167SAPE  H16S18771   3.411   2.555   4.051 -0.5603 -0.7002  2.2882
  167SAPE  C21718772   3.513   2.701   3.944  0.2526  0.6727 -0.0417
  167SAPE  H17R18773   3.614   2.660   3.964  1.2700  1.8634 -2.3201
  167SAPE  H17S18774   3.527   2.811   3.929 -1.0282  0.7596 -0.7078
  167SAPE  C21818775   3.455   2.661   3.804  0.2370  0.0707 -0.4162
  167SAPE  H18R18776   3.360   2.716   3.788 -0.8947 -1.3777  0.8993
  167SAPE  H18S18777   3.433   2.552   3.798  0.2387  0.0857 -0.6806
  167SAPE  C21918778   3.550   2.683   3.687  0.7642 -0.1502 -0.0568
  167SAPE  H19R18779   3.583   2.788   3.701 -0.2978  0.1766  0.0866
  167SAPE  H19S18780   3.500   2.665   3.590  2.4269  0.6010 -1.1113
  167SAPE  C22018781   3.675   2.598   3.691  0.4395 -0.6962 -0.3364
  167SAPE  H20R18782   3.758   2.618   3.620 -0.8451  0.8771 -1.4684
  167SAPE  H20S18783   3.639   2.497   3.660  0.9750 -0.7342 -0.8495
  167SAPE  H20T18784   3.720   2.589   3.791 -1.1573 -2.1169  0.3152
  167SAPE   C3318785   2.824   2.221   3.590 -0.4491  0.2802  0.0749
  167SAPE   H3X18786   2.856   2.130   3.646  0.5928 -0.4196 -1.5649
  167SAPE   H3Y18787   2.722   2.207   3.548 -0.7493  1.7658  0.2672
  167SAPE   C3418788   2.826   2.334   3.688  0.3644 -0.1450 -0.4509
  167SAPE   H4X18789   2.834   2.432   3.637  4.5699  0.8532  1.6487
  167SAPE   H4Y18790   2.918   2.329   3.751 -1.0956 -0.7244  1.7219
  167SAPE   C3518791   2.702   2.338   3.783  0.8017  0.4662  0.3217
  167SAPE   H5X18792   2.680   2.236   3.820 -0.9390  0.5841 -0.3149
  167SAPE   H5Y18793   2.609   2.372   3.733 -0.0332  1.3999  2.3867
  167SAPE   C3618794   2.716   2.433   3.902 -0.7850  0.5145 -0.4921
  167SAPE   H6X18795   2.666   2.529   3.879 -0.1145  0.5998 -1.6855
  167SAPE   H6Y18796   2.824   2.446   3.924 -1.2594  1.7750  1.2514
  167SAPE   C3718797   2.644   2.385   4.025  0.1822  0.8476 -0.2071
  167SAPE   H7X18798   2.681   2.283   4.050 -1.9276  0.2516  0.7668
  167SAPE   H7Y18799   2.533   2.385   4.017  0.1095  1.0997  0.6844
  167SAPE   C3818800   2.691   2.470   4.147 -0.1418 -0.0257  0.2599
  167SAPE   H8X18801   2.661   2.575   4.123  2.9791  0.6061 -1.4352
  167SAPE   H8Y18802   2.802   2.479   4.149 -0.1121 -0.4652  0.7488
  167SAPE   C3918803   2.629   2.422   4.273 -0.1061 -0.1569 -0.1787
  167SAPE   H9X18804   2.678   2.326   4.299  0.4680 -0.1838 -1.2801
  167SAPE   H9Y18805   2.526   2.382   4.257  0.2972 -0.9908 -0.8079
  167SAPE  C31018806   2.643   2.522   4.385  0.2921 -0.5387 -0.3073
  167SAPE  H10X18807   2.584   2.615   4.370  1.8919  0.9282  1.8376
  167SAPE  H10Y18808   2.751   2.548   4.394  0.8708 -3.0856  0.9113
  167SAPE  C31118809   2.594   2.456   4.517 -0.0884 -0.0990  0.4261
  167SAPE  H11X18810   2.484   2.441   4.509 -0.0964  0.4827 -0.6890
  167SAPE  H11Y18811   2.610   2.528   4.601  3.0591 -0.0494 -0.0751
  167SAPE  C31218812   2.679   2.337   4.553  0.3030  0.6025 -0.0168
  167SAPE  H12X18813   2.786   2.363   4.560  0.4593 -0.3426  1.6137
  167SAPE  H12Y18814   2.667   2.255   4.479 -0.7979  1.1947 -0.5188
  167SAPE  C31318815   2.639   2.281   4.689 -0.3376 -0.3359  0.3635
  167SAPE  H13X18816   2.534   2.245   4.687  0.0133 -1.4523 -1.7432
  167SAPE  H13Y18817   2.651   2.358   4.767  0.2320 -1.0902  1.0443
  167SAPE  C31418818   2.729   2.159   4.737 -0.1690 -0.2522 -0.3025
  167SAPE  H14X18819   2.760   2.092   4.654 -0.8019  1.0859 -1.6546
  167SAPE  H14Y18820   2.661   2.097   4.800  0.1524 -0.5410 -0.2405
  167SAPE  C31518821   2.854   2.197   4.820  0.7553 -0.5834  0.6349
  167SAPE  H15X18822   2.836   2.272   4.901  7.0845  0.9634  1.1296
  167SAPE  H15Y18823   2.936   2.240   4.759 -0.0039  0.1281  0.0973
  167SAPE  C31618824   2.907   2.073   4.898 -0.1729 -0.1284 -0.5914
  167SAPE  H16X18825   2.939   1.990   4.831 -1.4128 -0.7388 -0.4521
  167SAPE  H16Y18826   2.828   2.026   4.959  0.6898 -0.1523  0.5480
  167SAPE  C31718827   3.018   2.121   4.996 -0.2969  0.5333  0.4024
  167SAPE  H17X18828   3.090   2.188   4.945  2.0956 -0.7142  1.9566
  167SAPE  H17Y18829   3.073   2.035   5.038 -0.7933  0.1079  0.1925
  167SAPE  C31818830   2.961   2.198   5.116  0.3145  0.7663  1.4315
  167SAPE  H18X18831   2.940   2.302   5.083 -1.3983  0.0247  0.0273
  167SAPE  H18Y18832   3.045   2.201   5.190  1.8692 -1.8303 -0.0912
  167SAPE  H18Z18833   2.865   2.152   5.149 -0.9089  1.8144 -0.5174
  168SAPE     N18834   4.611   0.073   2.951 -0.1430 -0.1205  0.0307
  168SAPE   HN118835   4.712   0.093   2.938  0.0147  0.5282  1.9637
  168SAPE   HN218836   4.560   0.134   2.885  0.4767  1.4547  0.9590
  168SAPE   HN318837   4.586   0.105   3.046 -1.2844  0.5451 -0.4752
  168SAPE   C1218838   4.589  -0.075   2.933  0.1143  0.4505  0.7222
  168SAPE  H12A18839   4.595  -0.104   2.826  0.0264 -3.4195  1.6228
  168SAPE  H12B18840   4.482  -0.093   2.954 -0.6348  0.1012 -2.8262
  168SAPE   C1118841   4.690  -0.152   3.026  0.3654  0.1679  0.3042
  168SAPE  H11A18842   4.650  -0.256   3.026 -1.6234  0.8726 -1.2330
  168SAPE  H11B18843   4.676  -0.123   3.132  0.6311 -1.1744  0.7184
  168SAPE     P18844   4.877  -0.217   2.872  0.1578  0.1021  0.1791
  168SAPE   O1318845   4.775  -0.328   2.847  0.2134  0.3426  0.5866
  168SAPE   O1418846   4.909  -0.129   2.754  0.2002 -0.0706 -0.4152
  168SAPE   O1218847   4.827  -0.128   2.994 -0.4344  0.1588 -0.0509
  168SAPE   O1118848   5.008  -0.279   2.929  0.8517  0.0463  0.1323
  168SAPE    C118849   5.107  -0.209   3.010 -0.4276 -0.1264 -0.6106
  168SAPE    HA18850   5.199  -0.200   2.949  0.2398  1.1528  0.5263
  168SAPE    HB18851   5.076  -0.104   3.031  0.6397  0.4187 -1.6058
  168SAPE    C218852   5.134  -0.289   3.141 -0.7597 -0.0877 -0.9899
  168SAPE    HS18853   5.190  -0.378   3.106 -0.7562  0.1647 -1.6584
  168SAPE   O2118854   5.009  -0.313   3.209 -0.4009  0.3051 -0.1413
  168SAPE   C2118855   4.954  -0.428   3.193  0.1413 -0.4742  1.0432
  168SAPE   O2218856   5.007  -0.521   3.139 -0.1242 -0.0010 -0.7684
  168SAPE   C2218857   4.816  -0.427   3.273  0.4563 -0.1840 -0.0945
  168SAPE   H2R18858   4.791  -0.321   3.298 -1.0410 -0.1822 -1.4504
  168SAPE   H2S18859   4.740  -0.469   3.204 -2.0538  2.4313  0.8509
  168SAPE    C318860   5.236  -0.212   3.240 -0.0750 -0.2601  0.2545
  168SAPE    HX18861   5.173  -0.132   3.285  0.7128  1.0823 -0.9554
  168SAPE    HY18862   5.319  -0.170   3.179  0.1575 -2.3558 -0.9888
  168SAPE   O3118863   5.287  -0.295   3.341  0.2544  0.3137  0.2107
  168SAPE   C3118864   5.382  -0.374   3.311 -0.4528  0.3744 -0.7277
  168SAPE   O3218865   5.437  -0.396   3.205 -0.0355  0.1138  0.4829
  168SAPE   C3218866   5.444  -0.409   3.451  0.4096  0.1581  0.1987
  168SAPE   H2X18867   5.447  -0.519   3.435 -0.1282  0.3247 -1.2030
  168SAPE   H2Y18868   5.377  -0.392   3.538 -0.0123  0.1562 -0.1233
  168SAPE   C2318869   4.808  -0.509   3.406  0.6657 -0.7994 -0.2119
  168SAPE   H3R18870   4.867  -0.603   3.403  0.1371 -1.3068  2.4468
  168SAPE   H3S18871   4.700  -0.531   3.418  0.6513 -0.5488  0.1143
  168SAPE   C2418872   4.847  -0.430   3.537  0.3579 -0.1409 -0.2180
  168SAPE   H4R18873   4.786  -0.483   3.614 -2.6235  0.1555 -2.1684
  168SAPE   H4S18874   4.800  -0.329   3.533 -1.3373 -0.8700  0.1667
  168SAPE   C2518875   4.998  -0.433   3.561 -0.3509  0.6966 -0.1266
  168SAPE   H5R18876   5.055  -0.412   3.469 -2.3389  1.1527 -1.3268
  168SAPE   C2618877   5.072  -0.460   3.666 -0.1672  0.3126 -0.5071
  168SAPE   H6R18878   5.180  -0.454   3.649 -0.1371  0.8724 -0.1448
  168SAPE   C2718879   5.027  -0.493   3.809  0.4210  0.0924  0.1456
  168SAPE   H7R18880   5.035  -0.603   3.817  1.1999  0.1655  0.4759
  168SAPE   H7S18881   4.921  -0.473   3.833  0.8815  1.8053  0.9819
  168SAPE   C2818882   5.115  -0.424   3.918  1.3787 -0.1107 -0.1029
  168SAPE   H8R18883   5.211  -0.391   3.874  1.0743 -2.1180 -2.5253
  168SAPE   C2918884   5.078  -0.383   4.042  0.0530  1.3470 -0.7798
  168SAPE   H9R18885   5.156  -0.337   4.105  1.2949  1.5854 -2.4428
  168SAPE  C21018886   4.950  -0.444   4.114 -0.2951 -0.2272 -0.3832
  168SAPE  H10R18887   4.911  -0.533   4.059  2.0585 -0.5522 -1.6643
  168SAPE  H10S18888   4.877  -0.360   4.111  2.3575  2.2303 -0.7441
  168SAPE  C21118889   4.987  -0.498   4.252  0.3188  0.5483  0.0902
  168SAPE  H11R18890   5.017  -0.604   4.249  2.2756  0.9721  1.8946
  168SAPE  C21218891   4.985  -0.444   4.372 -0.2843  0.1659 -0.3557
  168SAPE  H12R18892   5.031  -0.505   4.452  1.2220  0.8892 -0.6325
  168SAPE  C21318893   4.942  -0.301   4.419 -0.3862 -0.0386  1.1067
  168SAPE  H13R18894   4.912  -0.259   4.321  1.2241  0.0416  0.6152
  168SAPE  H13S18895   5.033  -0.258   4.467  0.6528 -1.2528  0.3077
  168SAPE  C21418896   4.811  -0.321   4.499  0.0602 -0.1290  0.3750
  168SAPE  H14R18897   4.718  -0.306   4.443 -0.7682 -1.8800  1.2089
  168SAPE  C21518898   4.806  -0.351   4.628 -0.2606  0.1282  0.5531
  168SAPE  H15R18899   4.707  -0.361   4.674  0.2411 -1.3431  1.3791
  168SAPE  C21618900   4.928  -0.363   4.720 -0.5023  0.1336  1.0569
  168SAPE  H16R18901   5.009  -0.295   4.685  2.1684 -2.3710  1.8958
  168SAPE  H16S18902   4.975  -0.463   4.714  1.3076  1.0087 -0.7970
  168SAPE  C21718903   4.896  -0.327   4.864  1.0467 -0.5748 -1.0001
  168SAPE  H17R18904   4.834  -0.405   4.913 -2.8582  0.6903 -3.4363
  168SAPE  H17S18905   4.845  -0.230   4.880  3.4826  0.5274  0.7047
  168SAPE  C21818906   5.024  -0.321   4.950 -0.4386  0.0622  0.2167
  168SAPE  H18R18907   5.088  -0.245   4.902  2.9965 -2.7219 -0.0341
  168SAPE  H18S18908   5.085  -0.414   4.945 -0.7795 -0.2598  1.6420
  168SAPE  C21918909   4.997  -0.277   5.092  0.1025  0.0920 -0.3933
  168SAPE  H19R18910   5.081  -0.281   5.165 -0.5688  0.7430  0.4418
  168SAPE  H19S18911   4.923  -0.346   5.138 -0.2103  2.1475  2.4827
  168SAPE  C22018912   4.925  -0.144   5.101 -0.1453  0.5357  0.2418
  168SAPE  H20R18913   4.816  -0.161   5.085  0.2132 -3.4696  1.0803
  168SAPE  H20S18914   4.968  -0.076   5.024  1.7834 -0.0580  0.7473
  168SAPE  H20T18915   4.932  -0.082   5.193 -1.1225  1.9297 -0.5738
  168SAPE   C3318916   5.599  -0.388   3.469  0.1005 -0.5055 -0.4691
  168SAPE   H3X18917   5.620  -0.280   3.452 -0.6845  0.0013  1.4413
  168SAPE   H3Y18918   5.654  -0.439   3.387  0.6837 -3.7483  1.7591
  168SAPE   C3418919   5.645  -0.421   3.604 -0.1972  0.1402 -0.2988
  168SAPE   H4X18920   5.633  -0.530   3.625 -1.6678  0.1630 -0.8851
  168SAPE   H4Y18921   5.586  -0.371   3.683  1.1792 -1.4217  1.8354
  168SAPE   C3518922   5.784  -0.370   3.636 -0.0636  0.1609 -0.4717
  168SAPE   H5X18923   5.775  -0.260   3.650 -0.7488  0.0931 -0.3706
  168SAPE   H5Y18924   5.864  -0.387   3.561  2.1254  1.0819  1.5042
  168SAPE   C3618925   5.853  -0.412   3.768 -0.1176 -0.0379  0.6282
  168SAPE   H6X18926   5.951  -0.360   3.768  1.0320 -2.1011  0.7134
  168SAPE   H6Y18927   5.850  -0.523   3.763 -1.8085  0.0325 -2.0475
  168SAPE   C3718928   5.781  -0.371   3.899  0.4388 -0.0281  0.5825
  168SAPE   H7X18929   5.679  -0.415   3.891  0.5055 -0.0997  0.0887
  168SAPE   H7Y18930   5.770  -0.261   3.896 -2.7186 -0.2604  0.5836
  168SAPE   C3818931   5.849  -0.421   4.023  0.3450  0.0171  0.1586
  168SAPE   H8X18932   5.958  -0.398   4.033  0.5715 -0.8396 -0.2051
  168SAPE   H8Y18933   5.841  -0.532   4.025  0.7589 -0.0767 -1.7887
  168SAPE   C3918934   5.770  -0.374   4.150 -0.5454 -0.4479  0.7888
  168SAPE   H9X18935   5.668  -0.416   4.137  0.0755 -1.9436  0.5858
  168SAPE   H9Y18936   5.771  -0.262   4.146 -0.6967 -0.3809  2.2522
  168SAPE  C31018937   5.824  -0.424   4.283 -0.6844 -0.3020  0.6137
  168SAPE  H10X18938   5.933  -0.402   4.283 -0.6287 -0.5455 -0.3105
  168SAPE  H10Y18939   5.805  -0.533   4.276  0.1379 -0.3451 -2.6078
  168SAPE  C31118940   5.753  -0.372   4.401  0.6131  0.8276  0.4749
  168SAPE  H11X18941   5.648  -0.406   4.406 -0.0729  2.6606 -0.5834
  168SAPE  H11Y18942   5.750  -0.261   4.408  0.8864  0.9457 -1.0337
  168SAPE  C31218943   5.815  -0.425   4.532 -0.3343  0.6636  0.2053
  168SAPE  H12X18944   5.923  -0.415   4.513 -0.1344 -1.1859  0.1182
  168SAPE  H12Y18945   5.796  -0.535   4.524 -3.8578  0.9203  2.6565
  168SAPE  C31318946   5.767  -0.365   4.667 -0.4444  0.1218 -0.0670
  168SAPE  H13X18947   5.660  -0.394   4.673 -0.6705  1.1270  1.1800
  168SAPE  H13Y18948   5.776  -0.254   4.663 -0.8405  0.1698  0.4035
  168SAPE  C31418949   5.846  -0.414   4.789  0.1333  0.0090 -0.1782
  168SAPE  H14X18950   5.806  -0.364   4.880  0.1072  0.5795 -0.5004
  168SAPE  H14Y18951   5.955  -0.398   4.779 -0.2040  3.0010  0.0357
  168SAPE  C31518952   5.815  -0.564   4.815 -1.3012 -0.4368  0.7465
  168SAPE  H15X18953   5.855  -0.611   4.723  2.8646  1.3626  1.4185
  168SAPE  H15Y18954   5.705  -0.565   4.835 -1.4670  2.0974  0.3476
  168SAPE  C31618955   5.888  -0.620   4.935 -1.0951 -0.6799  0.1921
  168SAPE  H16X18956   5.917  -0.540   5.006 -2.0563 -1.6379  1.7369
  168SAPE  H16Y18957   5.984  -0.651   4.890 -0.4282 -1.0966  1.8361
  168SAPE  C31718958   5.811  -0.731   4.998 -0.0806  0.3116  0.7717
  168SAPE  H17X18959   5.779  -0.798   4.915  0.8997 -0.0998  0.7089
  168SAPE  H17Y18960   5.721  -0.685   5.043 -1.3312 -1.4968  0.2450
  168SAPE  C31818961   5.895  -0.814   5.099  0.6987  0.0351  0.2714
  168SAPE  H18X18962   5.964  -0.880   5.042 -0.9271 -1.5407  0.0415
  168SAPE  H18Y18963   5.823  -0.868   5.164 -1.5473  0.5605 -1.6831
  168SAPE  H18Z18964   5.945  -0.742   5.168 -1.2997 -1.9969  4.1552
  169SAPE     N18965   3.283   2.523   3.055  0.7409 -0.4399  0.8906
  169SAPE   HN118966   3.257   2.579   2.971 -1.8465 -0.1048  1.7975
  169SAPE   HN218967   3.196   2.539   3.110  1.2934 -1.7103  2.1803
  169SAPE   HN318968   3.364   2.567   3.103  1.3773 -2.1021  1.4071
  169SAPE   C1218969   3.311   2.378   3.025 -0.2949  0.5092  0.2824
  169SAPE  H12A18970   3.220   2.339   2.973  0.3782  1.9593 -2.1577
  169SAPE  H12B18971   3.320   2.324   3.121 -1.1560 -1.3253 -0.6063
  169SAPE   C1118972   3.420   2.353   2.917  0.2431  0.3296  0.6018
  169SAPE  H11A18973   3.385   2.411   2.829  2.0057  0.5319 -0.0200
  169SAPE  H11B18974   3.423   2.242   2.913  0.8059  0.3674 -1.7880
  169SAPE     P18975   3.681   2.375   2.894 -0.0958 -0.2832 -0.3061
  169SAPE   O1318976   3.708   2.228   2.909 -0.5391 -0.1844  0.6969
  169SAPE   O1418977   3.683   2.436   2.760 -0.5161 -1.5043 -0.1928
  169SAPE   O1218978   3.546   2.399   2.972  0.7244 -0.4744 -0.6607
  169SAPE   O1118979   3.782   2.446   2.980  0.2200 -1.0472 -0.8458
  169SAPE    C118980   3.743   2.569   3.049 -0.1695  0.3372  0.6270
  169SAPE    HA18981   3.825   2.643   3.049  1.3828 -1.2777  2.6215
  169SAPE    HB18982   3.651   2.617   3.008  0.6650 -0.2615 -2.1667
  169SAPE    C218983   3.714   2.544   3.202 -0.1043 -0.2737 -0.1834
  169SAPE    HS18984   3.642   2.462   3.222 -0.1509 -0.6988 -1.9726
  169SAPE   O2118985   3.694   2.666   3.270 -0.4980 -0.1063  0.5489
  169SAPE   C2118986   3.571   2.717   3.280 -0.8809  0.2796  0.0408
  169SAPE   O2218987   3.470   2.670   3.233  0.4829  0.9836 -0.6161
  169SAPE   C2218988   3.593   2.840   3.367 -0.3240  0.2269 -0.5620
  169SAPE   H2R18989   3.604   2.800   3.470  1.0715  1.2987 -0.2683
  169SAPE   H2S18990   3.692   2.887   3.350  0.3920  0.3748  3.1147
  169SAPE    C318991   3.844   2.476   3.258  0.0437 -0.6341  0.4202
  169SAPE    HX18992   3.924   2.542   3.219  0.0542 -1.1008 -0.3734
  169SAPE    HY18993   3.855   2.372   3.220  2.7701 -0.5601  0.7871
  169SAPE   O3118994   3.846   2.477   3.406 -0.1076 -0.3993  0.0423
  169SAPE   C3118995   3.964   2.442   3.459 -0.8303 -0.7743 -0.0991
  169SAPE   O3218996   4.065   2.434   3.386 -0.3426  0.7460 -0.2391
  169SAPE   C3218997   3.964   2.397   3.602  0.0031  0.2347 -0.0787
  169SAPE   H2X18998   3.955   2.287   3.584 -1.5280  0.7808 -3.1203
  169SAPE   H2Y18999   3.876   2.440   3.655  0.6685  0.0123  1.2611
  169SAPE   C2319000   3.465   2.927   3.361  0.6020 -0.8527  0.0347
  169SAPE   H3R19001   3.372   2.870   3.379  0.2861  0.0736  1.5925
  169SAPE   H3S19002   3.452   2.975   3.262 -0.2458 -0.0428  0.5233
  169SAPE   C2419003   3.485   3.042   3.461  0.3959 -0.3311 -1.1820
  169SAPE   H4R19004   3.568   3.112   3.440  0.4129 -0.4796 -1.6147
  169SAPE   H4S19005   3.510   2.989   3.556 -1.3796  0.5415 -0.1757
  169SAPE   C2519006   3.361   3.127   3.483 -0.2260  0.9540  0.2982
  169SAPE   H5R19007   3.303   3.159   3.395  1.7048  0.1139 -1.3629
  169SAPE   C2619008   3.317   3.173   3.603  0.7732  0.4667  0.0812
  169SAPE   H6R19009   3.228   3.237   3.595  0.1670 -0.4400 -0.6651
  169SAPE   C2719010   3.388   3.157   3.734  0.5693  0.0820 -0.0386
  169SAPE   H7R19011   3.424   3.259   3.762  1.7918 -0.0698 -0.9800
  169SAPE   H7S19012   3.478   3.094   3.725  0.4119  0.0862 -2.0427
  169SAPE   C2819013   3.294   3.097   3.837 -0.4432  0.3510 -0.3407
  169SAPE   H8R19014   3.197   3.057   3.808  0.0044 -0.9573 -0.0910
  169SAPE   C2919015   3.336   3.093   3.966 -0.0613 -0.4136  0.7126
  169SAPE   H9R19016   3.258   3.051   4.031 -1.4725  0.8247 -0.1135
  169SAPE  C21019017   3.459   3.150   4.036  0.3573 -0.3135 -0.1695
  169SAPE  H10R19018   3.542   3.171   3.964  0.9467 -0.1533  0.5422
  169SAPE  H10S19019   3.506   3.079   4.107 -0.1360 -0.6063 -0.1324
  169SAPE  C21119020   3.430   3.279   4.101  0.5705 -0.2411 -0.2704
  169SAPE  H11R19021   3.385   3.356   4.036  1.3520 -0.1481 -0.7147
  169SAPE  C21219022   3.448   3.314   4.229  0.4452  0.7274  0.4737
  169SAPE  H12R19023   3.443   3.419   4.260 -2.4817  0.6172  0.7200
  169SAPE  C21319024   3.501   3.226   4.338  0.0585  0.5048 -0.4391
  169SAPE  H13R19025   3.522   3.288   4.427  0.4096 -1.8377  1.1904
  169SAPE  H13S19026   3.597   3.179   4.307  1.1563  0.7147  2.4165
  169SAPE  C21419027   3.396   3.128   4.380 -0.5611  1.0732  1.0090
  169SAPE  H14R19028   3.320   3.110   4.302  0.1656 -0.4393  0.6108
  169SAPE  C21519029   3.402   3.039   4.485 -0.2520  0.1488  0.1300
  169SAPE  H15R19030   3.315   2.973   4.501 -2.0417  2.7344  1.6326
  169SAPE  C21619031   3.514   3.031   4.587 -0.9173  0.2280 -0.2280
  169SAPE  H16R19032   3.586   3.116   4.595  2.2580 -2.4419  2.9175
  169SAPE  H16S19033   3.577   2.943   4.562 -2.0055 -0.0465 -2.1231
  169SAPE  C21719034   3.446   3.003   4.722  0.0915 -0.5942  0.3010
  169SAPE  H17R19035   3.367   2.928   4.700 -2.3715  2.4162 -1.9272
  169SAPE  H17S19036   3.405   3.105   4.733  0.9442  0.2573 -3.2318
  169SAPE  C21819037   3.548   2.960   4.839  0.9611 -0.1383 -1.3062
  169SAPE  H18R19038   3.639   3.024   4.831  0.1129  0.9731 -2.7083
  169SAPE  H18S19039   3.574   2.856   4.811  1.6537  0.1898 -1.8954
  169SAPE  C21919040   3.488   2.971   4.979  0.2770  0.5429  0.1651
  169SAPE  H19R19041   3.425   3.061   4.996 -2.0081 -1.1429  1.2945
  169SAPE  H19S19042   3.576   2.964   5.047  0.3308  0.2600  0.0689
  169SAPE  C22019043   3.395   2.847   4.998  0.3840  0.4546 -0.5917
  169SAPE  H20R19044   3.404   2.800   5.098  1.3514 -0.4748 -1.1008
  169SAPE  H20S19045   3.420   2.771   4.922  2.1920 -1.7336  1.9841
  169SAPE  H20T19046   3.288   2.877   5.005  0.6863  1.2922  1.1143
  169SAPE   C3319047   4.095   2.423   3.678 -0.4696  0.4631  0.6015
  169SAPE   H3X19048   4.117   2.532   3.678 -3.6442  1.2163  0.7810
  169SAPE   H3Y19049   4.182   2.381   3.624  0.0075 -0.4836  2.0742
  169SAPE   C3419050   4.099   2.363   3.822 -0.6085  0.1158 -0.0541
  169SAPE   H4X19051   4.079   2.255   3.808 -0.0801 -0.0511  0.4208
  169SAPE   H4Y19052   4.023   2.419   3.881  0.4266  0.6489  0.8100
  169SAPE   C3519053   4.244   2.370   3.877  0.0549  0.0825  0.4936
  169SAPE   H5X19054   4.260   2.477   3.899 -1.4274  0.7024 -1.2373
  169SAPE   H5Y19055   4.308   2.333   3.794 -1.2205 -1.5557  0.1724
  169SAPE   C3619056   4.252   2.281   3.999 -0.3803  0.0622  0.0766
  169SAPE   H6X19057   4.348   2.284   4.055 -0.8416 -2.0336  1.0688
  169SAPE   H6Y19058   4.254   2.181   3.950  1.0199 -0.1211  0.4653
  169SAPE   C3719059   4.143   2.296   4.109  0.4769  0.2353  0.1604
  169SAPE   H7X19060   4.052   2.255   4.061 -1.0368  2.5010  0.9747
  169SAPE   H7Y19061   4.123   2.405   4.117  3.0775  0.9605 -1.7130
  169SAPE   C3819062   4.167   2.214   4.235 -0.2290  0.3395 -0.4780
  169SAPE   H8X19063   4.256   2.267   4.273  0.5689 -0.2504 -1.4714
  169SAPE   H8Y19064   4.194   2.109   4.209 -0.5053  0.5079 -1.5066
  169SAPE   C3919065   4.055   2.224   4.336 -0.1984  0.1540 -0.1999
  169SAPE   H9X19066   3.963   2.186   4.288  1.3703 -1.5968 -2.0099
  169SAPE   H9Y19067   4.045   2.330   4.366  0.6511 -0.3868  2.3276
  169SAPE  C31019068   4.082   2.141   4.462  0.6115  0.7756 -0.1218
  169SAPE  H10X19069   4.170   2.180   4.518 -0.8615  1.1341  2.0098
  169SAPE  H10Y19070   4.105   2.036   4.435 -1.2490 -0.5952  3.1058
  169SAPE  C31119071   3.955   2.151   4.548 -0.2307  0.4522 -0.2176
  169SAPE  H11X19072   3.860   2.123   4.498 -1.1235  0.3448  1.4561
  169SAPE  H11Y19073   3.937   2.257   4.575 -1.4893  0.3788 -0.7053
  169SAPE  C31219074   3.972   2.073   4.681 -0.2609 -0.5716 -0.3262
  169SAPE  H12X19075   3.982   1.964   4.658 -0.1126 -0.4750 -0.7112
  169SAPE  H12Y19076   3.880   2.092   4.741 -0.1840 -0.9783 -0.0725
  169SAPE  C31319077   4.092   2.113   4.768 -0.1552 -0.3106  0.0830
  169SAPE  H13X19078   4.097   2.223   4.762  0.2869 -0.3915 -1.6932
  169SAPE  H13Y19079   4.173   2.064   4.708  0.7908 -1.9944  2.5727
  169SAPE  C31419080   4.076   2.057   4.914 -0.7497 -0.1604  0.0490
  169SAPE  H14X19081   3.997   2.099   4.980 -0.9050 -1.8286  0.9931
  169SAPE  H14Y19082   4.170   2.086   4.965  0.1806  1.7508 -2.5155
  169SAPE  C31519083   4.052   1.903   4.915 -0.8249 -0.7439  0.1071
  169SAPE  H15X19084   4.132   1.854   4.857  0.4863 -0.7979  1.9012
  169SAPE  H15Y19085   3.953   1.864   4.883 -0.9300 -0.6730  0.3430
  169SAPE  C31619086   4.069   1.852   5.066  0.7918  0.6415 -0.3511
  169SAPE  H16X19087   3.984   1.903   5.117  2.4277  2.2921  0.8222
  169SAPE  H16Y19088   4.168   1.867   5.113  1.1610 -1.5255 -0.3349
  169SAPE  C31719089   4.036   1.696   5.087 -0.3753 -0.0199  0.6524
  169SAPE  H17X19090   3.966   1.664   5.007  0.1456  0.2103  0.0988
  169SAPE  H17Y19091   3.982   1.676   5.182 -2.9376 -0.7857 -0.8535
  169SAPE  C31819092   4.168   1.608   5.084  0.2246 -0.1367  0.2559
  169SAPE  H18X19093   4.141   1.501   5.093  0.2573 -0.2151 -0.5573
  169SAPE  H18Y19094   4.216   1.638   5.180  0.5405  2.0266 -0.5255
  169SAPE  H18Z19095   4.243   1.629   5.005  0.7098  0.0990  0.7646
  170SAPE     N19096   2.707   4.952   2.700  0.5291 -0.0237 -0.2870
  170SAPE   HN119097   2.740   5.039   2.654 -2.9725  1.8932  0.4307
  170SAPE   HN219098   2.717   4.970   2.802  0.4232  0.7641 -0.4096
  170SAPE   HN319099   2.779   4.880   2.683  0.5390 -0.3712  1.0697
  170SAPE   C1219100   2.569   4.905   2.656  0.2256  0.1910  0.6501
  170SAPE  H12A19101   2.563   4.936   2.549  0.6084  1.8541  1.0728
  170SAPE  H12B19102   2.492   4.959   2.715  1.9034  0.1811  3.0032
  170SAPE   C1119103   2.544   4.753   2.666  0.3606  0.3998  0.2190
  170SAPE  H11A19104   2.590   4.699   2.581  0.6523  0.4119  0.3710
  170SAPE  H11B19105   2.433   4.744   2.658  0.2807  0.0363  1.4534
  170SAPE     P19106   2.498   4.704   2.919 -0.2567 -0.1786 -0.0663
  170SAPE   O1319107   2.496   4.839   2.978 -0.0603  0.2602 -0.1730
  170SAPE   O1419108   2.370   4.638   2.906 -0.6897  0.4482 -0.5976
  170SAPE   O1219109   2.592   4.700   2.790  0.2842  0.7666  0.3286
  170SAPE   O1119110   2.583   4.601   3.010  0.2386 -0.3412  0.2595
  170SAPE    C119111   2.722   4.616   3.024  0.6268 -0.0607 -0.8614
  170SAPE    HA19112   2.783   4.610   2.931  2.2834  0.9965  0.0942
  170SAPE    HB19113   2.760   4.709   3.071  1.1176  0.9251 -3.0711
  170SAPE    C219114   2.775   4.487   3.106  0.5845 -0.0729  0.3227
  170SAPE    HS19115   2.764   4.405   3.032 -1.0377  0.1217  0.3303
  170SAPE   O2119116   2.699   4.462   3.223  0.5180  0.0415 -0.3354
  170SAPE   C2119117   2.642   4.347   3.226  0.3316 -0.3959  0.2623
  170SAPE   O2219118   2.602   4.284   3.133  0.8717 -0.0663  0.0549
  170SAPE   C2219119   2.622   4.291   3.365  0.1731 -0.9259  0.1882
  170SAPE   H2R19120   2.530   4.229   3.375  1.3545 -2.5345  1.8340
  170SAPE   H2S19121   2.712   4.236   3.400 -0.9571 -1.1171  3.0266
  170SAPE    C319122   2.928   4.508   3.138  0.6034  0.3559  0.2723
  170SAPE    HX19123   2.974   4.527   3.039 -2.8148  0.9748 -1.3141
  170SAPE    HY19124   2.958   4.404   3.164 -0.1469 -0.7994 -2.9434
  170SAPE   O3119125   2.963   4.617   3.222  0.4218 -0.0439  0.0082
  170SAPE   C3119126   2.990   4.597   3.345 -1.1240  0.4789  0.0749
  170SAPE   O3219127   2.970   4.491   3.407 -0.1007  0.1785  0.1533
  170SAPE   C3219128   3.066   4.718   3.407 -0.6972  0.2081 -1.1304
  170SAPE   H2X19129   3.011   4.811   3.381  0.0494  1.3317  1.0228
  170SAPE   H2Y19130   3.159   4.722   3.346 -1.1828  0.6881 -1.8547
  170SAPE   C2319131   2.602   4.405   3.468 -0.9788 -0.3693  0.5857
  170SAPE   H3R19132   2.689   4.474   3.464  0.2205 -1.8706 -2.8384
  170SAPE   H3S19133   2.593   4.358   3.568  0.6667  0.4098  1.1418
  170SAPE   C2419134   2.476   4.495   3.440  0.1677  0.2642  0.3923
  170SAPE   H4R19135   2.386   4.431   3.441  0.0083  0.4586 -0.7540
  170SAPE   H4S19136   2.483   4.530   3.335  1.5872 -0.1807  0.3165
  170SAPE   C2519137   2.458   4.601   3.540  0.1857  0.4802 -0.4158
  170SAPE   H5R19138   2.484   4.699   3.497  4.9483  0.2206  1.3531
  170SAPE   C2619139   2.413   4.591   3.667 -0.1121  0.6982  0.5353
  170SAPE   H6R19140   2.411   4.682   3.729 -4.2940  2.2991 -1.5302
  170SAPE   C2719141   2.350   4.467   3.739 -0.4307 -0.0488 -0.3403
  170SAPE   H7R19142   2.420   4.385   3.767  1.2618  1.4362 -0.0206
  170SAPE   H7S19143   2.291   4.431   3.652 -2.3442  1.6077  0.2027
  170SAPE   C2819144   2.239   4.491   3.843 -0.5323  0.0770  0.4211
  170SAPE   H8R19145   2.136   4.497   3.806 -0.7649  1.9739  1.2737
  170SAPE   C2919146   2.254   4.498   3.979 -1.2364  0.4602 -1.0791
  170SAPE   H9R19147   2.164   4.516   4.041 -1.4709 -1.9436 -0.6352
  170SAPE  C21019148   2.384   4.493   4.056  0.3645  0.6424  0.4232
  170SAPE  H10R19149   2.386   4.586   4.117 -0.1150  0.0001  1.4389
  170SAPE  H10S19150   2.465   4.501   3.980 -1.4496 -0.8465 -1.8188
  170SAPE  C21119151   2.390   4.365   4.143 -0.7685  0.7102 -0.2188
  170SAPE  H11R19152   2.389   4.272   4.084 -0.9130  1.8568 -2.1351
  170SAPE  C21219153   2.400   4.371   4.278 -0.0616  0.1802  0.1893
  170SAPE  H12R19154   2.412   4.278   4.335  1.3941  2.1428  3.3410
  170SAPE  C21319155   2.393   4.488   4.371 -0.6600 -0.0596  0.4263
  170SAPE  H13R19156   2.450   4.576   4.334 -2.2384  1.8246  2.2065
  170SAPE  H13S19157   2.445   4.456   4.464  2.8082  0.3321 -1.2067
  170SAPE  C21419158   2.257   4.538   4.400 -0.5133  0.1808  0.4769
  170SAPE  H14R19159   2.210   4.599   4.322 -2.1788 -1.6823 -0.0572
  170SAPE  C21519160   2.180   4.482   4.499 -0.6730 -0.2119  0.2162
  170SAPE  H15R19161   2.081   4.524   4.522 -0.0985  0.8990  0.7816
  170SAPE  C21619162   2.223   4.376   4.597 -0.5604 -0.6694  0.5622
  170SAPE  H16R19163   2.325   4.398   4.637 -0.7232 -0.5053  0.8911
  170SAPE  H16S19164   2.229   4.278   4.545  1.3286 -0.6423  0.6348
  170SAPE  C21719165   2.140   4.376   4.725 -0.7886  0.0075  0.6092
  170SAPE  H17R19166   2.043   4.325   4.703 -1.5241  1.6674 -0.2347
  170SAPE  H17S19167   2.118   4.474   4.773  0.7489  0.1659  1.0428
  170SAPE  C21819168   2.202   4.285   4.835  0.6705  0.5485  0.9006
  170SAPE  H18R19169   2.236   4.345   4.921  1.5843  0.9766  0.2535
  170SAPE  H18S19170   2.280   4.212   4.805 -0.0936 -0.2767  0.8641
  170SAPE  C21919171   2.095   4.194   4.895 -0.1639  0.4508  0.7931
  170SAPE  H19R19172   2.048   4.124   4.821 -0.3041  1.0917  0.2649
  170SAPE  H19S19173   2.021   4.265   4.937 -0.5761 -0.7685  2.2035
  170SAPE  C22019174   2.149   4.107   5.006  0.3638 -0.2067  0.0849
  170SAPE  H20R19175   2.219   4.025   4.980 -0.7999 -0.9736 -0.7535
  170SAPE  H20S19176   2.063   4.062   5.060  1.4715 -2.9209 -0.2591
  170SAPE  H20T19177   2.201   4.178   5.073 -0.3317 -0.7742  1.2498
  170SAPE   C3319178   3.100   4.710   3.562  0.4812  0.3794 -0.6012
  170SAPE   H3X19179   3.188   4.776   3.577  2.1822 -2.0430  0.7833
  170SAPE   H3Y19180   3.138   4.608   3.580  3.2573  1.3398 -0.5625
  170SAPE   C3419181   2.985   4.753   3.655  0.9155  0.0591 -0.6129
  170SAPE   H4X19182   2.903   4.681   3.635  0.2115  0.8181 -0.5161
  170SAPE   H4Y19183   2.950   4.850   3.614 -0.5772 -0.2186 -0.0384
  170SAPE   C3519184   3.017   4.753   3.804  0.3104 -0.1619 -0.3195
  170SAPE   H5X19185   3.100   4.823   3.823 -0.8515  0.6909  1.9850
  170SAPE   H5Y19186   3.060   4.654   3.831 -0.1393  0.1071  1.5134
  170SAPE   C3619187   2.896   4.769   3.892  0.1411 -0.3969  0.2122
  170SAPE   H6X19188   2.835   4.677   3.885 -1.6719  0.7870 -0.1153
  170SAPE   H6Y19189   2.852   4.866   3.858  1.5226  0.2545  0.1972
  170SAPE   C3719190   2.923   4.788   4.034 -0.5107 -0.0780 -0.2290
  170SAPE   H7X19191   2.993   4.874   4.043 -0.3247 -0.3421  1.0487
  170SAPE   H7Y19192   2.985   4.704   4.074 -1.1184  0.1911  1.3362
  170SAPE   C3819193   2.798   4.772   4.120  0.1531  0.5146 -0.1065
  170SAPE   H8X19194   2.748   4.683   4.076 -1.8906  3.0258 -3.3015
  170SAPE   H8Y19195   2.734   4.860   4.099 -1.0386  0.1797  1.8087
  170SAPE   C3919196   2.829   4.762   4.271  0.7863 -0.3955 -0.4766
  170SAPE   H9X19197   2.879   4.858   4.293  0.6264 -0.9284  2.5644
  170SAPE   H9Y19198   2.898   4.676   4.291 -0.1908 -1.0219  0.2882
  170SAPE  C31019199   2.699   4.754   4.352 -0.2669 -0.2939  0.1546
  170SAPE  H10X19200   2.642   4.661   4.332 -0.0930 -0.2296 -0.6663
  170SAPE  H10Y19201   2.631   4.827   4.304 -0.1337  1.7976  2.8603
  170SAPE  C31119202   2.708   4.790   4.503  0.6841 -0.0640  0.2140
  170SAPE  H11X19203   2.734   4.898   4.496 -2.1030  0.6296 -0.6919
  170SAPE  H11Y19204   2.787   4.727   4.549  1.6486  1.0059  0.0900
  170SAPE  C31219205   2.568   4.770   4.571 -1.2060 -0.2894  0.7499
  170SAPE  H12X19206   2.540   4.664   4.553  1.6623 -1.0243  0.0643
  170SAPE  H12Y19207   2.503   4.841   4.515 -0.2967 -0.0566 -0.0410
  170SAPE  C31319208   2.566   4.804   4.715 -0.3063  0.2486  0.1092
  170SAPE  H13X19209   2.630   4.888   4.750 -0.2241  0.0456  0.4538
  170SAPE  H13Y19210   2.617   4.722   4.771  1.7975  0.9576 -0.6812
  170SAPE  C31419211   2.425   4.808   4.772 -0.8646 -1.0409  0.5287
  170SAPE  H14X19212   2.375   4.709   4.762  1.4274 -2.2676  0.5336
  170SAPE  H14Y19213   2.383   4.892   4.712 -0.9133 -0.8799  0.7898
  170SAPE  C31519214   2.423   4.845   4.922 -0.2327 -0.2996  0.6729
  170SAPE  H15X19215   2.316   4.853   4.951 -0.5516  0.9106 -0.7079
  170SAPE  H15Y19216   2.472   4.944   4.929 -0.0641 -0.3473  0.2299
  170SAPE  C31619217   2.504   4.741   5.001  0.2822  0.1237 -0.2918
  170SAPE  H16X19218   2.524   4.772   5.106 -2.0485 -0.9878  0.5360
  170SAPE  H16Y19219   2.604   4.723   4.954 -0.3192  2.3534 -2.7199
  170SAPE  C31719220   2.428   4.606   5.022  0.6484  0.6448 -0.7089
  170SAPE  H17X19221   2.479   4.519   5.068 -3.0782 -1.0796  0.5419
  170SAPE  H17Y19222   2.392   4.575   4.922  0.8995 -1.4917 -0.1849
  170SAPE  C31819223   2.308   4.629   5.120 -0.3676  0.4802  0.7770
  170SAPE  H18X19224   2.237   4.544   5.122  1.0940 -0.8447 -0.5777
  170SAPE  H18Y19225   2.260   4.727   5.100 -2.7190 -0.9881 -1.4253
  170SAPE  H18Z19226   2.343   4.650   5.223 -2.2849 -1.8414  2.0077
  171SAPE     N19227   1.625   3.878   2.637 -0.0640 -0.8163 -0.3657
  171SAPE   HN119228   1.564   3.794   2.633 -0.5746 -0.7404  3.0928
  171SAPE   HN219229   1.589   3.961   2.585  1.0283  0.2396  0.5027
  171SAPE   HN319230   1.725   3.855   2.622  1.2635  1.1383  3.9820
  171SAPE   C1219231   1.611   3.916   2.786  0.2877 -0.3293 -0.0500
  171SAPE  H12A19232   1.644   4.021   2.798  1.3762 -0.8989  2.5905
  171SAPE  H12B19233   1.675   3.847   2.844 -1.7471 -1.1488  1.3377
  171SAPE   C1119234   1.462   3.905   2.828 -0.1765 -0.1373 -0.3803
  171SAPE  H11A19235   1.390   3.971   2.773  0.3040 -0.8994 -1.9975
  171SAPE  H11B19236   1.450   3.942   2.932 -0.6303  0.1432 -0.5300
  171SAPE     P19237   1.323   3.706   2.934  0.1162 -0.0175  0.2079
  171SAPE   O1319238   1.205   3.793   2.935 -0.1733  0.0444 -0.1383
  171SAPE   O1419239   1.304   3.565   2.899  0.0823 -0.0747 -0.1525
  171SAPE   O1219240   1.430   3.766   2.829  0.3110 -0.1630 -0.2370
  171SAPE   O1119241   1.384   3.713   3.076 -0.1681 -0.0505  0.0465
  171SAPE    C119242   1.519   3.657   3.087 -0.1919 -0.2263  0.1113
  171SAPE    HA19243   1.533   3.549   3.067  1.0937 -0.4481  1.9804
  171SAPE    HB19244   1.589   3.714   3.023 -2.9111  2.6181 -0.5692
  171SAPE    C219245   1.557   3.675   3.232  0.8574  0.0888 -0.0786
  171SAPE    HS19246   1.659   3.631   3.239  0.1924 -1.6073 -0.5668
  171SAPE   O2119247   1.463   3.602   3.319  0.0959 -0.2196 -0.1238
  171SAPE   C2119248   1.505   3.473   3.332  0.1739  0.7591 -0.7075
  171SAPE   O2219249   1.605   3.425   3.283  0.3349  0.2301 -0.3094
  171SAPE   C2219250   1.396   3.399   3.424  0.0154  0.1964 -0.2013
  171SAPE   H2R19251   1.322   3.474   3.460 -0.4510 -0.4595  0.2210
  171SAPE   H2S19252   1.344   3.331   3.354 -0.6005  1.3488 -0.9050
  171SAPE    C319253   1.558   3.816   3.280  0.3480  0.5743  0.2373
  171SAPE    HX19254   1.461   3.866   3.258 -0.7457 -0.8921  1.4429
  171SAPE    HY19255   1.638   3.868   3.224  1.6810 -1.6196 -0.0335
  171SAPE   O3119256   1.590   3.832   3.416  0.2432  0.3100  0.6813
  171SAPE   C3119257   1.489   3.849   3.507  0.1008 -0.3058 -0.0806
  171SAPE   O3219258   1.372   3.843   3.486  0.1838 -0.3188  0.0985
  171SAPE   C3219259   1.551   3.880   3.640 -0.0687  0.0089 -0.4668
  171SAPE   H2X19260   1.598   3.981   3.647 -1.2105  0.5330 -0.0222
  171SAPE   H2Y19261   1.627   3.803   3.666 -0.2985 -0.5294 -1.3634
  171SAPE   C2319262   1.453   3.310   3.538 -1.1961  0.1275 -0.3941
  171SAPE   H3R19263   1.500   3.216   3.501 -1.2970 -0.8671  1.8592
  171SAPE   H3S19264   1.379   3.256   3.601 -0.1241 -0.1843  0.6451
  171SAPE   C2419265   1.567   3.377   3.619  0.0663 -0.0728 -0.4784
  171SAPE   H4R19266   1.643   3.406   3.544 -0.2956 -1.5625 -1.4631
  171SAPE   H4S19267   1.608   3.299   3.686  0.7893  1.4738  0.9517
  171SAPE   C2519268   1.514   3.496   3.691  0.1062 -0.3812 -0.5640
  171SAPE   H5R19269   1.497   3.581   3.624 -0.8698 -0.3183 -0.2445
  171SAPE   C2619270   1.486   3.505   3.829 -0.5772  0.4509  0.1521
  171SAPE   H6R19271   1.437   3.596   3.868 -0.1121 -0.4624  3.0474
  171SAPE   C2719272   1.525   3.402   3.940  0.2863 -0.6472 -0.3198
  171SAPE   H7R19273   1.618   3.345   3.918  0.7254 -0.2575  0.4878
  171SAPE   H7S19274   1.436   3.339   3.963 -1.2318  1.8885  1.1900
  171SAPE   C2819275   1.565   3.472   4.075  0.6817 -0.1302 -0.6574
  171SAPE   H8R19276   1.628   3.562   4.063 -1.8047  1.8496  0.2138
  171SAPE   C2919277   1.549   3.426   4.198  0.1978 -0.0718  0.2184
  171SAPE   H9R19278   1.578   3.498   4.277  0.2145  1.6753 -1.3267
  171SAPE  C21019279   1.473   3.304   4.244  0.0287  0.4556  0.0449
  171SAPE  H10R19280   1.490   3.219   4.174 -0.4066 -1.0365  1.6747
  171SAPE  H10S19281   1.365   3.328   4.247 -0.0949  0.0777 -0.9890
  171SAPE  C21119282   1.529   3.251   4.374 -0.4066  0.3714  0.2539
  171SAPE  H11R19283   1.625   3.200   4.358  0.3790  2.4040 -2.1042
  171SAPE  C21219284   1.478   3.278   4.498  0.4659  1.0682  0.3245
  171SAPE  H12R19285   1.524   3.242   4.591 -1.3510 -0.5077  0.6801
  171SAPE  C21319286   1.365   3.372   4.527 -0.3185  0.4651 -0.1964
  171SAPE  H13R19287   1.305   3.312   4.599 -0.2906 -0.7989 -1.1923
  171SAPE  H13S19288   1.296   3.392   4.442 -0.7720  0.0747  0.0722
  171SAPE  C21419289   1.420   3.494   4.584  0.3283 -0.3673  0.1419
  171SAPE  H14R19290   1.439   3.566   4.502 -1.0976 -0.2575 -0.1085
  171SAPE  C21519291   1.456   3.526   4.703  1.1599 -0.4949  1.0298
  171SAPE  H15R19292   1.488   3.627   4.732  0.7729 -0.7334  2.3512
  171SAPE  C21619293   1.453   3.433   4.814 -0.0080  0.1516  0.0597
  171SAPE  H16R19294   1.475   3.332   4.772  0.0202 -0.2659  1.0329
  171SAPE  H16S19295   1.357   3.430   4.870 -0.3555  1.5504 -0.4370
  171SAPE  C21719296   1.572   3.470   4.908  0.0538 -0.2685  0.9007
  171SAPE  H17R19297   1.665   3.500   4.853  1.0228 -2.5073  1.2199
  171SAPE  H17S19298   1.611   3.374   4.948  0.2695 -2.2077 -3.3955
  171SAPE  C21819299   1.528   3.565   5.021 -0.2887  0.4455 -0.1188
  171SAPE  H18R19300   1.464   3.502   5.086  0.7838  0.4556  0.9898
  171SAPE  H18S19301   1.457   3.639   4.977  0.8897  2.3869  1.1093
  171SAPE  C21919302   1.634   3.634   5.111  0.2842  0.0316  0.0116
  171SAPE  H19R19303   1.714   3.564   5.143 -1.5138 -2.0413  0.2100
  171SAPE  H19S19304   1.588   3.652   5.211 -0.2067 -0.4481 -0.1289
  171SAPE  C22019305   1.692   3.763   5.045  0.1659  0.1331  0.4540
  171SAPE  H20R19306   1.767   3.720   4.975  0.4939  0.7415  0.4252
  171SAPE  H20S19307   1.742   3.815   5.130  1.9943 -2.0292  0.8087
  171SAPE  H20T19308   1.620   3.825   4.987  0.6469  0.8401  0.5915
  171SAPE   C3319309   1.444   3.878   3.758 -0.2576 -0.3150 -0.6922
  171SAPE   H3X19310   1.373   3.793   3.747 -0.2633 -0.3860 -0.1255
  171SAPE   H3Y19311   1.385   3.972   3.759  1.5649  0.8655  0.1585
  171SAPE   C3419312   1.508   3.864   3.899 -0.4199  0.1337  0.5104
  171SAPE   H4X19313   1.556   3.964   3.906 -1.7003  0.8305 -0.3437
  171SAPE   H4Y19314   1.583   3.782   3.905 -0.6659 -0.1963 -0.6762
  171SAPE   C3519315   1.415   3.844   4.014  0.5722 -0.4840  0.2448
  171SAPE   H5X19316   1.360   3.751   3.990  0.6941 -0.6302  0.5334
  171SAPE   H5Y19317   1.341   3.926   4.002  0.1104 -0.9853 -0.4229
  171SAPE   C3619318   1.483   3.841   4.152 -0.6649 -0.0691 -0.2012
  171SAPE   H6X19319   1.545   3.933   4.164 -1.5329  0.4263  0.6225
  171SAPE   H6Y19320   1.555   3.757   4.164  1.6008  1.0988 -3.8754
  171SAPE   C3719321   1.376   3.850   4.260 -0.2994 -0.1469  0.1009
  171SAPE   H7X19322   1.305   3.764   4.255  0.4770 -0.7364 -1.2923
  171SAPE   H7Y19323   1.328   3.946   4.231  2.2958  0.5192 -2.3642
  171SAPE   C3819324   1.405   3.874   4.406  0.3875  0.0963 -0.4256
  171SAPE   H8X19325   1.466   3.967   4.413 -1.6746  1.4979 -0.0211
  171SAPE   H8Y19326   1.460   3.786   4.444 -1.2864 -0.6097  0.4980
  171SAPE   C3919327   1.282   3.903   4.500 -0.3847 -0.1700  0.0878
  171SAPE   H9X19328   1.248   4.006   4.474 -0.3203 -0.2338 -0.2634
  171SAPE   H9Y19329   1.334   3.913   4.598 -2.3776 -1.4776  1.3352
  171SAPE  C31019330   1.178   3.792   4.504  0.4899 -0.2314 -0.5326
  171SAPE  H10X19331   1.221   3.690   4.512  0.8646 -0.0104  0.3104
  171SAPE  H10Y19332   1.121   3.795   4.408  0.9164  0.8773 -0.7633
  171SAPE  C31119333   1.076   3.810   4.622 -0.2031 -0.2568  0.5523
  171SAPE  H11X19334   1.006   3.724   4.622  0.5207 -0.8609  1.1340
  171SAPE  H11Y19335   1.018   3.904   4.611  0.9295  0.1942 -2.1252
  171SAPE  C31219336   1.148   3.804   4.757  0.0993  0.2074  0.7022
  171SAPE  H12X19337   1.250   3.760   4.748 -0.5920 -1.7831  2.1096
  171SAPE  H12Y19338   1.090   3.734   4.820 -0.0405  0.4078  0.7979
  171SAPE  C31319339   1.163   3.942   4.820  0.1399 -0.6647 -0.4715
  171SAPE  H13X19340   1.061   3.967   4.855  0.7523  0.3241  0.6444
  171SAPE  H13Y19341   1.189   4.022   4.747  1.7172 -1.0664 -0.3932
  171SAPE  C31419342   1.254   3.962   4.946  0.0699 -1.0517 -0.9455
  171SAPE  H14X19343   1.359   3.928   4.935  2.0037  3.5428  0.7022
  171SAPE  H14Y19344   1.207   3.903   5.027 -1.7847 -0.5594 -1.6011
  171SAPE  C31519345   1.268   4.099   5.009  0.3552  0.3226  0.3552
  171SAPE  H15X19346   1.162   4.127   5.026  0.2857 -0.9297  2.2710
  171SAPE  H15Y19347   1.313   4.170   4.936  0.3301  1.6445  1.5858
  171SAPE  C31619348   1.340   4.111   5.143  0.1038  0.4479 -0.1734
  171SAPE  H16X19349   1.346   4.216   5.179 -1.1981  0.2454  0.7022
  171SAPE  H16Y19350   1.443   4.071   5.127 -0.2885 -0.3197 -0.8253
  171SAPE  C31719351   1.284   4.022   5.255  0.4063  0.2324 -0.1328
  171SAPE  H17X19352   1.338   4.048   5.349  1.5347 -2.7565  0.1280
  171SAPE  H17Y19353   1.308   3.919   5.224  0.2853  0.9200 -2.7842
  171SAPE  C31819354   1.133   4.039   5.289  0.5855  0.5471  1.1178
  171SAPE  H18X19355   1.098   3.987   5.381 -0.8436 -0.2692  0.1629
  171SAPE  H18Y19356   1.070   4.005   5.204  0.1661  0.9350  1.2643
  171SAPE  H18Z19357   1.119   4.149   5.300  3.0252  0.9854  0.4021
  172SAPE     N19358   3.975   3.341   2.541  0.1481 -0.2443 -0.7723
  172SAPE   HN119359   4.012   3.340   2.444  0.9219 -0.2790 -0.4834
  172SAPE   HN219360   4.061   3.341   2.600 -0.5974  3.3333  0.5836
  172SAPE   HN319361   3.923   3.251   2.542 -0.4693  0.1016  0.4923
  172SAPE   C1219362   3.876   3.458   2.558 -1.0223  0.2956 -0.4239
  172SAPE  H12A19363   3.775   3.411   2.564 -1.4483  1.3023  0.6680
  172SAPE  H12B19364   3.889   3.517   2.464 -0.5718  0.3786 -0.3104
  172SAPE   C1119365   3.903   3.545   2.681  0.1325  0.5616 -0.6127
  172SAPE  H11A19366   3.838   3.517   2.767 -2.7770  4.3544 -1.3519
  172SAPE  H11B19367   3.859   3.645   2.666 -2.2586 -0.5615 -1.6734
  172SAPE     P19368   4.118   3.680   2.733  0.4204 -0.0658  0.2163
  172SAPE   O1319369   4.260   3.662   2.768  0.3746  0.3916  0.5301
  172SAPE   O1419370   4.091   3.759   2.609  0.0386 -0.9255  0.5381
  172SAPE   O1219371   4.045   3.544   2.714  0.0792 -0.2400  0.2070
  172SAPE   O1119372   4.034   3.750   2.853 -0.5194 -0.3219 -0.3229
  172SAPE    C119373   4.051   3.691   2.984  0.2972 -1.0129 -0.0441
  172SAPE    HA19374   3.961   3.629   3.004 -0.2007 -0.0582  0.7762
  172SAPE    HB19375   4.130   3.613   2.994  0.7407 -0.6172 -0.3882
  172SAPE    C219376   4.079   3.788   3.098  0.0803 -0.3928 -0.1609
  172SAPE    HS19377   4.110   3.748   3.197 -3.5528 -0.4517  1.0908
  172SAPE   O2119378   3.958   3.854   3.133  0.0978  0.4298 -0.7950
  172SAPE   C2119379   3.864   3.774   3.188 -0.2715  0.2646 -0.0294
  172SAPE   O2219380   3.877   3.658   3.205  0.2391 -0.0256  0.0236
  172SAPE   C2219381   3.733   3.854   3.205  0.0738 -0.3179  0.3249
  172SAPE   H2R19382   3.743   3.962   3.181 -1.5946  0.6686  3.5030
  172SAPE   H2S19383   3.665   3.809   3.129 -2.2880  5.7690 -1.8107
  172SAPE    C319384   4.181   3.893   3.060  0.5159  0.4645  0.0842
  172SAPE    HX19385   4.133   3.965   2.990  0.8483  1.8397  1.2242
  172SAPE    HY19386   4.266   3.852   3.001 -0.1081  0.9472 -1.1993
  172SAPE   O3119387   4.226   3.964   3.174  0.7594 -0.1618 -1.3410
  172SAPE   C3119388   4.311   3.909   3.257 -0.0698 -0.4789 -0.0683
  172SAPE   O3219389   4.352   3.792   3.244 -0.0305 -0.3175 -0.6593
  172SAPE   C3219390   4.365   4.016   3.354 -0.9116 -0.0252  0.9858
  172SAPE   H2X19391   4.307   4.111   3.341  2.7570  2.3238  0.2766
  172SAPE   H2Y19392   4.469   4.037   3.321 -0.9040 -2.8077 -1.0412
  172SAPE   C2319393   3.689   3.859   3.351  0.1733  0.6441 -0.6228
  172SAPE   H3R19394   3.672   3.754   3.384  1.1205  0.3939 -0.9101
  172SAPE   H3S19395   3.591   3.909   3.368 -0.8716 -1.6951  0.6669
  172SAPE   C2419396   3.786   3.924   3.447 -0.3950  0.1305  0.0316
  172SAPE   H4R19397   3.880   3.866   3.435  0.1103  1.1624 -1.2296
  172SAPE   H4S19398   3.764   3.909   3.555  1.0305 -0.4030  0.2753
  172SAPE   C2519399   3.808   4.077   3.439  0.4042  0.6354  0.6130
  172SAPE   H5R19400   3.835   4.112   3.338 -3.2279  2.3220  0.0844
  172SAPE   C2619401   3.801   4.179   3.522 -0.4541 -0.2855 -0.5779
  172SAPE   H6R19402   3.815   4.281   3.483  2.5271 -0.8648 -1.2602
  172SAPE   C2719403   3.785   4.175   3.672 -0.5140  0.2235  0.2429
  172SAPE   H7R19404   3.760   4.072   3.706  1.2749 -0.5871 -0.7549
  172SAPE   H7S19405   3.705   4.247   3.696 -1.3361 -0.7339  0.4319
  172SAPE   C2819406   3.909   4.219   3.741 -0.5700 -0.2324  0.6143
  172SAPE   H8R19407   3.997   4.246   3.681 -0.2076  2.0403  2.0669
  172SAPE   C2919408   3.919   4.234   3.872 -0.1872  0.4610 -0.7455
  172SAPE   H9R19409   4.012   4.266   3.921 -1.1631  2.3235 -0.0139
  172SAPE  C21019410   3.800   4.209   3.964  0.1420 -0.2594  0.1063
  172SAPE  H10R19411   3.809   4.104   3.998 -0.8099 -0.3880 -0.0239
  172SAPE  H10S19412   3.701   4.210   3.914 -0.1112  0.5658  0.6168
  172SAPE  C21119413   3.802   4.302   4.084  0.1883  0.6389  0.8539
  172SAPE  H11R19414   3.743   4.394   4.071  1.5818  1.5233  0.6224
  172SAPE  C21219415   3.875   4.288   4.199  0.0193  0.1684  0.6556
  172SAPE  H12R19416   3.851   4.354   4.284  1.3931 -0.3622  1.5039
  172SAPE  C21319417   3.962   4.169   4.234  0.4055  0.5498 -0.2799
  172SAPE  H13R19418   4.050   4.204   4.292  1.3481 -1.3530 -0.4688
  172SAPE  H13S19419   4.019   4.122   4.152 -0.5178 -1.1448 -0.0055
  172SAPE  C21419420   3.895   4.051   4.302  0.0149  0.3706  0.1072
  172SAPE  H14R19421   3.836   3.986   4.236 -0.4139  1.5252 -0.6794
  172SAPE  C21519422   3.898   4.021   4.435 -0.0768  0.2414 -0.5430
  172SAPE  H15R19423   3.838   3.939   4.477 -0.7610  0.2529 -1.4735
  172SAPE  C21619424   3.967   4.096   4.546 -0.2667  0.3497 -0.2986
  172SAPE  H16R19425   4.035   4.175   4.509  0.0823  0.8921  1.4218
  172SAPE  H16S19426   4.035   4.031   4.604 -0.0453  1.8795  1.2100
  172SAPE  C21719427   3.879   4.169   4.649 -0.2532 -0.0014 -0.2435
  172SAPE  H17R19428   3.930   4.185   4.747  2.6374  1.1821 -1.8287
  172SAPE  H17S19429   3.793   4.100   4.658  0.7779 -1.5638 -1.8032
  172SAPE  C21819430   3.817   4.292   4.586  0.4732  0.0061  0.0474
  172SAPE  H18R19431   3.773   4.256   4.491 -2.0386  1.0054  0.7609
  172SAPE  H18S19432   3.899   4.362   4.559  0.4081 -0.0988 -0.4277
  172SAPE  C21919433   3.712   4.357   4.680 -0.3084  0.2162 -0.2467
  172SAPE  H19R19434   3.635   4.277   4.682  0.3586 -0.4474  2.1410
  172SAPE  H19S19435   3.660   4.446   4.638  0.1366  1.3941  1.5813
  172SAPE  C22019436   3.744   4.381   4.825 -0.4830 -0.6580 -0.1388
  172SAPE  H20R19437   3.701   4.473   4.869  1.1936 -0.7096  1.8028
  172SAPE  H20S19438   3.855   4.379   4.838 -0.5362 -1.5461  0.2749
  172SAPE  H20T19439   3.691   4.301   4.881 -0.5316 -0.4849  0.0625
  172SAPE   C3319440   4.365   3.969   3.503  0.7287  0.2155  0.0954
  172SAPE   H3X19441   4.417   4.047   3.563 -2.6518  0.5425  2.9713
  172SAPE   H3Y19442   4.400   3.864   3.515  2.1749  0.7800  1.1863
  172SAPE   C3419443   4.222   3.971   3.561 -0.5254  0.2978  0.5639
  172SAPE   H4X19444   4.154   3.919   3.490 -0.3651  2.3057 -1.1614
  172SAPE   H4Y19445   4.195   4.079   3.560  0.5607  0.6093  1.5494
  172SAPE   C3519446   4.210   3.903   3.703  0.1293  0.0899  0.2174
  172SAPE   H5X19447   4.285   3.821   3.701 -0.8317 -1.0097  3.2657
  172SAPE   H5Y19448   4.113   3.853   3.722 -0.5061  0.9735 -0.5812
  172SAPE   C3619449   4.259   3.996   3.804 -0.4023 -0.0776 -0.5229
  172SAPE   H6X19450   4.191   4.081   3.824 -1.1844 -0.7790 -0.0989
  172SAPE   H6Y19451   4.361   4.032   3.779 -0.8694  0.8478 -1.1063
  172SAPE   C3719452   4.292   3.915   3.936 -0.3577 -0.4766  0.0316
  172SAPE   H7X19453   4.359   3.976   4.000  1.3988  0.7080 -2.7238
  172SAPE   H7Y19454   4.342   3.821   3.905  0.9250  0.3543 -0.5213
  172SAPE   C3819455   4.164   3.876   4.010  0.1336  0.0124 -0.1626
  172SAPE   H8X19456   4.092   3.824   3.943  0.4154 -0.4444 -0.1146
  172SAPE   H8Y19457   4.113   3.966   4.050 -2.0676 -1.7897  1.3056
  172SAPE   C3919458   4.188   3.790   4.133 -0.6897 -0.0947 -0.3302
  172SAPE   H9X19459   4.257   3.705   4.112  2.8214  2.5819 -0.6982
  172SAPE   H9Y19460   4.091   3.744   4.163 -0.4050 -1.2347 -1.0759
  172SAPE  C31019461   4.245   3.868   4.255  0.3561  0.1662  0.7686
  172SAPE  H10X19462   4.185   3.959   4.274 -2.3273 -1.8626  2.6365
  172SAPE  H10Y19463   4.354   3.890   4.245  0.1659  0.6614 -0.4538
  172SAPE  C31119464   4.225   3.791   4.381  0.0292 -0.2687 -0.5270
  172SAPE  H11X19465   4.274   3.691   4.375  1.6727  0.4313  0.4871
  172SAPE  H11Y19466   4.120   3.775   4.414 -0.0808  0.6435 -0.4227
  172SAPE  C31219467   4.292   3.850   4.504  0.0535  0.0047  0.2314
  172SAPE  H12X19468   4.264   3.957   4.516  1.6735  0.4868 -0.0311
  172SAPE  H12Y19469   4.401   3.850   4.484  0.3792  3.0549  1.4845
  172SAPE  C31319470   4.247   3.772   4.630  0.2186 -0.4526  0.7257
  172SAPE  H13X19471   4.220   3.669   4.601 -2.7595  1.2378 -3.6001
  172SAPE  H13Y19472   4.160   3.825   4.674 -0.2523 -0.7848  0.2044
  172SAPE  C31419473   4.352   3.777   4.733 -0.3014 -0.1244 -0.1376
  172SAPE  H14X19474   4.371   3.881   4.766  0.0760 -1.0372  2.8815
  172SAPE  H14Y19475   4.453   3.746   4.699  1.6330 -0.1465  4.6962
  172SAPE  C31519476   4.341   3.669   4.847  0.4051 -0.4644  0.1747
  172SAPE  H15X19477   4.323   3.576   4.789 -1.3831 -1.5668  2.3786
  172SAPE  H15Y19478   4.245   3.685   4.900  0.1284 -1.5563  0.0058
  172SAPE  C31619479   4.455   3.654   4.942 -0.2676  0.2568  0.0000
  172SAPE  H16X19480   4.465   3.745   5.005  1.5164  0.7639 -0.9509
  172SAPE  H16Y19481   4.546   3.645   4.880 -0.3206 -2.1458  0.1767
  172SAPE  C31719482   4.439   3.527   5.021  0.4462  0.3907  0.0212
  172SAPE  H17X19483   4.501   3.527   5.113 -0.8467 -4.4183  1.1376
  172SAPE  H17Y19484   4.473   3.440   4.962 -0.1636  0.9007 -1.1124
  172SAPE  C31819485   4.294   3.491   5.063 -0.3858 -0.5284  0.1700
  172SAPE  H18X19486   4.237   3.443   4.981 -2.2531  0.1142  1.0353
  172SAPE  H18Y19487   4.231   3.580   5.080  1.4066  1.3372 -2.1608
  172SAPE  H18Z19488   4.292   3.423   5.151  0.7062 -2.4390 -1.1970
  173SLPC     N19489   1.615   0.315   8.287 -0.3098  0.6942 -0.3616
  173SLPC   C1319490   1.614   0.191   8.382  0.0393  0.1856  0.6297
  173SLPC  H13A19491   1.524   0.195   8.441 -0.4470  2.6201 -0.1311
  173SLPC  H13B19492   1.603   0.095   8.333  2.8739 -0.0444  0.2769
  173SLPC  H13C19493   1.704   0.172   8.438  0.2677 -1.3079 -0.1944
  173SLPC   C1419494   1.721   0.298   8.180  0.7181  0.4371 -0.4066
  173SLPC  H14A19495   1.716   0.199   8.137 -0.2085  0.4346 -0.3000
  173SLPC  H14B19496   1.708   0.366   8.097  1.8776  0.4863 -0.5726
  173SLPC  H14C19497   1.819   0.318   8.221  1.4510 -1.2603 -1.2317
  173SLPC   C1519498   1.648   0.438   8.357  0.0143 -0.4563  0.6404
  173SLPC  H15A19499   1.589   0.468   8.442 -0.3769  1.3051 -0.2031
  173SLPC  H15B19500   1.751   0.461   8.375  0.5430 -0.2200 -2.2311
  173SLPC  H15C19501   1.635   0.519   8.287  1.1736 -1.1404 -0.4241
  173SLPC   C1219502   1.477   0.342   8.226 -0.0604  0.0400  0.7303
  173SLPC  H12A19503   1.399   0.341   8.301 -0.8003 -1.8685  0.0118
  173SLPC  H12B19504   1.462   0.246   8.179  0.5523  0.0788  0.4405
  173SLPC   C1119505   1.456   0.447   8.119 -0.4155  0.5292  0.4545
  173SLPC  H11A19506   1.482   0.542   8.171 -0.5716  1.1691 -0.6064
  173SLPC  H11B19507   1.348   0.465   8.099 -0.3223 -1.1589 -2.0157
  173SLPC     P19508   1.444   0.362   7.879  0.2840  0.1443 -0.1274
  173SLPC   O1319509   1.407   0.219   7.903  0.0747  0.1242 -0.1233
  173SLPC   O1419510   1.332   0.451   7.857 -0.0087 -0.2105 -0.1190
  173SLPC   O1219511   1.526   0.421   7.999  0.2280  0.1198 -0.1313
  173SLPC   O1119512   1.551   0.365   7.765  0.4480  0.3300 -0.0407
  173SLPC    C119513   1.576   0.465   7.667  0.7705  0.1847 -0.2705
  173SLPC    HA19514   1.553   0.566   7.707 -0.6923  0.4062 -1.5496
  173SLPC    HB19515   1.683   0.463   7.638  0.4906 -1.0990 -1.3302
  173SLPC    C219516   1.487   0.440   7.545 -0.3583  0.2673  0.1636
  173SLPC    HS19517   1.379   0.454   7.568 -0.1260  1.5082  0.6163
  173SLPC   O2119518   1.526   0.311   7.488 -0.8779  0.3291 -0.1488
  173SLPC   C2119519   1.429   0.225   7.474  0.0985  0.4991 -0.5307
  173SLPC   O2219520   1.313   0.244   7.503  0.3746 -0.1864 -0.0174
  173SLPC   C2219521   1.496   0.098   7.413  0.3088  0.1076  0.1460
  173SLPC   H2R19522   1.597   0.126   7.377 -1.0914  2.1622 -2.5067
  173SLPC   H2S19523   1.504   0.030   7.500 -0.5073  0.5022  0.5462
  173SLPC    C319524   1.521   0.549   7.440 -0.4508  0.2649 -0.5968
  173SLPC    HX19525   1.631   0.564   7.443 -0.5190  1.8059 -3.0546
  173SLPC    HY19526   1.470   0.642   7.475  0.2480  0.6377 -0.5529
  173SLPC   O3119527   1.463   0.512   7.309  0.4257  0.3256  0.0443
  173SLPC   C3119528   1.506   0.601   7.216 -0.0425 -0.0114  0.3147
  173SLPC   O3219529   1.593   0.685   7.228 -0.2406  0.0927  1.0289
  173SLPC   C3219530   1.437   0.565   7.087 -0.2642  0.2370  0.2231
  173SLPC   H2X19531   1.333   0.531   7.103  0.6484 -3.9705 -1.4281
  173SLPC   H2Y19532   1.495   0.479   7.050  2.5271  2.4340 -0.8952
  173SLPC   C2319533   1.416   0.040   7.292 -0.1440 -0.0671  0.0731
  173SLPC   H3R19534   1.320  -0.007   7.324 -0.1819 -0.8111 -1.0734
  173SLPC   H3S19535   1.481  -0.037   7.246  0.7239  0.5911  0.1822
  173SLPC   C2419536   1.386   0.148   7.194 -0.3818  0.1362 -0.5061
  173SLPC   H4R19537   1.473   0.212   7.170 -0.9793  0.3344 -2.2836
  173SLPC   H4S19538   1.303   0.206   7.240  0.7669  0.4172  1.3078
  173SLPC   C2519539   1.335   0.086   7.059 -0.1034 -0.7108 -0.9328
  173SLPC   H5R19540   1.270   0.165   7.017 -1.2918 -0.2736  1.5525
  173SLPC   H5S19541   1.267   0.001   7.082  0.2299 -0.6147  0.5209
  173SLPC   C2619542   1.450   0.057   6.967  0.5280  0.3042  0.5852
  173SLPC   H6R19543   1.522  -0.020   7.002 -0.1077  0.3831  2.1295
  173SLPC   H6S19544   1.513   0.144   6.940  0.2972 -0.6832 -3.8776
  173SLPC   C2719545   1.407   0.005   6.826 -0.1432 -1.2030 -0.4503
  173SLPC   H7R19546   1.359  -0.093   6.845 -0.1568 -0.9373  1.0067
  173SLPC   H7S19547   1.501  -0.019   6.772  1.7421  2.9294  0.6258
  173SLPC   C2819548   1.325   0.108   6.748 -0.4480 -0.2860 -0.3715
  173SLPC   H8R19549   1.233   0.132   6.805 -0.6997 -0.3809 -0.7342
  173SLPC   H8S19550   1.281   0.064   6.656  2.1930 -0.7753 -1.5025
  173SLPC   C2919551   1.384   0.247   6.724  0.3565  0.1499 -0.5630
  173SLPC   H9R19552   1.406   0.308   6.812  1.2280 -1.0488  0.0880
  173SLPC  C21019553   1.421   0.292   6.603 -0.3962 -0.2011  0.1298
  173SLPC  H10R19554   1.457   0.395   6.584  0.5271 -0.0266  2.5176
  173SLPC  C21119555   1.416   0.218   6.473  0.5526 -0.2340 -0.5696
  173SLPC  H11R19556   1.453   0.114   6.468  1.3215  0.0750 -3.8302
  173SLPC  H11S19557   1.485   0.255   6.394 -0.1699  0.9959 -0.6513
  173SLPC  C21219558   1.277   0.228   6.411  0.5158  0.6708  0.2962
  173SLPC  H12R19559   1.204   0.150   6.436  0.3764  0.8110  0.3229
  173SLPC  C21319560   1.230   0.331   6.339 -0.1717 -0.0990 -0.0769
  173SLPC  H13R19561   1.128   0.331   6.298 -0.4167  1.5453  0.4773
  173SLPC  C21419562   1.300   0.459   6.303 -0.2329  0.3822  0.0622
  173SLPC  H14R19563   1.404   0.454   6.341 -0.2340 -1.8794 -0.1087
  173SLPC  H14S19564   1.251   0.552   6.340 -1.5698 -0.8284  1.4766
  173SLPC  C21519565   1.337   0.464   6.149  0.1246 -0.6482 -0.3809
  173SLPC  H15R19566   1.375   0.567   6.129  0.1421 -0.5044  0.3948
  173SLPC  H15S19567   1.242   0.449   6.093 -0.3263 -2.8944  0.8559
  173SLPC  C21619568   1.448   0.368   6.098 -0.5434 -0.1779  0.4373
  173SLPC  H16R19569   1.424   0.263   6.126  0.1789  0.0372  1.9725
  173SLPC  H16S19570   1.539   0.411   6.145 -2.7457  3.7174  1.5899
  173SLPC  C21719571   1.474   0.381   5.946  0.0961 -0.2311 -0.2391
  173SLPC  H17R19572   1.569   0.328   5.926  0.1343 -0.0537 -0.5305
  173SLPC  H17S19573   1.502   0.484   5.914 -0.7892 -0.6165 -2.4805
  173SLPC  C21819574   1.364   0.329   5.856  0.1496  0.0781  0.2525
  173SLPC  H18R19575   1.388   0.337   5.748 -0.3422  0.4118  0.1638
  173SLPC  H18S19576   1.267   0.384   5.857  0.3330  0.4254 -0.4023
  173SLPC  H18T19577   1.330   0.225   5.877  2.1852 -0.5126  0.8234
  173SLPC   C3319578   1.466   0.674   6.976  0.0001  1.2414 -0.7361
  173SLPC   H3X19579   1.576   0.688   6.975  0.2933 -0.7533 -2.3399
  173SLPC   H3Y19580   1.429   0.775   7.003  0.5198  0.9796  1.1001
  173SLPC   C3419581   1.441   0.627   6.834  0.7279 -0.0865  0.5797
  173SLPC   H4X19582   1.334   0.611   6.811  0.7728  1.6826 -1.1978
  173SLPC   H4Y19583   1.482   0.524   6.826 -0.3964 -0.4166 -1.9978
  173SLPC   C3519584   1.518   0.716   6.732  0.8846  0.1141 -0.6952
  173SLPC   H5X19585   1.625   0.727   6.759  1.5813 -2.4629 -2.0286
  173SLPC   H5Y19586   1.468   0.814   6.745 -0.6691 -0.6316 -0.8240
  173SLPC   C3619587   1.529   0.666   6.589  0.6326 -0.2237  0.4239
  173SLPC   H6X19588   1.428   0.646   6.545  1.3071 -0.9166 -0.8833
  173SLPC   H6Y19589   1.583   0.569   6.596 -2.1402 -1.8370  0.8697
  173SLPC   C3719590   1.593   0.772   6.498  0.8221  0.2644  0.0490
  173SLPC   H7X19591   1.681   0.808   6.555  2.1487  0.0707 -1.7741
  173SLPC   H7Y19592   1.517   0.852   6.485  0.4155 -0.1279 -0.0371
  173SLPC   C3819593   1.642   0.716   6.369  0.2840  0.1985  0.2328
  173SLPC   H8X19594   1.565   0.656   6.316  0.9202  0.7200 -1.3459
  173SLPC   H8Y19595   1.731   0.652   6.383  0.9050  1.2845  1.4274
  173SLPC   C3919596   1.683   0.825   6.270 -0.0691 -0.3054 -0.5856
  173SLPC   H9X19597   1.749   0.892   6.329 -2.1812  1.5946 -0.2548
  173SLPC   H9Y19598   1.601   0.894   6.241  0.9904  1.7996  1.1140
  173SLPC  C31019599   1.751   0.781   6.139  0.3362  0.8776 -0.2191
  173SLPC  H10X19600   1.848   0.733   6.161  1.0904  1.2041 -2.5621
  173SLPC  H10Y19601   1.772   0.867   6.071  0.1093  0.3845 -0.9218
  173SLPC  C31119602   1.676   0.679   6.059 -0.2232 -0.0785 -0.1682
  173SLPC  H11X19603   1.567   0.696   6.055 -0.4575 -0.8961  1.6296
  173SLPC  H11Y19604   1.691   0.576   6.098 -1.6027 -0.0296  0.5411
  173SLPC  C31219605   1.724   0.691   5.919 -0.0586  0.6765 -0.5149
  173SLPC  H12X19606   1.697   0.594   5.870 -1.7601  1.4791 -1.2387
  173SLPC  H12Y19607   1.835   0.697   5.906  0.1756 -0.2436  0.8317
  173SLPC  C31319608   1.659   0.803   5.851 -0.0957  0.2536 -0.0486
  173SLPC  H13X19609   1.664   0.898   5.908 -1.3960  0.3180 -0.0036
  173SLPC  H13Y19610   1.553   0.774   5.831 -0.5230  1.2679  0.6539
  173SLPC  C31419611   1.721   0.835   5.713  0.3336  0.0996  0.2522
  173SLPC  H14X19612   1.802   0.910   5.725  0.3548  0.3956 -1.4113
  173SLPC  H14Y19613   1.640   0.896   5.667  0.3092 -0.2714 -0.2043
  173SLPC  C31519614   1.755   0.716   5.618 -0.6060 -0.6752  0.2976
  173SLPC  H15X19615   1.690   0.629   5.640  0.4967 -1.4341  0.6572
  173SLPC  H15Y19616   1.857   0.677   5.641  1.4542  3.2796 -1.0902
  173SLPC  C31619617   1.762   0.753   5.462  0.0727 -0.1410 -0.3193
  173SLPC  H16X19618   1.820   0.846   5.446  0.2502 -0.3283 -0.7982
  173SLPC  H16Y19619   1.658   0.780   5.434 -0.0219  1.2495  1.2517
  173SLPC  C31719620   1.806   0.641   5.372 -0.5387  0.1922 -0.1897
  173SLPC  H17X19621   1.749   0.549   5.398  0.3591 -0.5161 -0.6364
  173SLPC  H17Y19622   1.914   0.619   5.391 -0.1177  0.5455 -1.9946
  173SLPC  C31819623   1.785   0.670   5.223 -0.0768  0.3079  0.7722
  173SLPC  H18X19624   1.680   0.693   5.197  0.5224  0.7542 -1.4777
  173SLPC  H18Y19625   1.795   0.577   5.164  2.9229  0.2133  1.2673
  173SLPC  H18Z19626   1.850   0.748   5.178 -0.5956 -0.1800 -0.9074
  174SLPC     N19627   5.310   1.383   7.459  0.1589 -0.2598 -0.0811
  174SLPC   C1319628   5.196   1.310   7.525 -0.6586 -0.0117 -0.9486
  174SLPC  H13A19629   5.128   1.387   7.559 -1.2175 -0.7476 -0.3583
  174SLPC  H13B19630   5.142   1.248   7.455 -0.3752 -1.2682 -0.0812
  174SLPC  H13C19631   5.230   1.244   7.603 -0.8323  1.2017  0.1908
  174SLPC   C1419632   5.391   1.272   7.400  0.2386 -0.2481  1.1240
  174SLPC  H14A19633   5.334   1.215   7.329 -0.0119 -0.7326  1.7021
  174SLPC  H14B19634   5.466   1.321   7.340 -3.3380  2.4239 -1.6361
  174SLPC  H14C19635   5.426   1.198   7.470 -0.2816  0.6438  2.3857
  174SLPC   C1519636   5.388   1.467   7.561  0.0829 -0.3813 -0.7073
  174SLPC  H15A19637   5.454   1.413   7.627  0.8554  2.6004  1.1445
  174SLPC  H15B19638   5.430   1.549   7.504 -1.6934  1.2242  0.1954
  174SLPC  H15C19639   5.322   1.505   7.637  1.1084 -2.6363  1.4719
  174SLPC   C1219640   5.259   1.478   7.350  0.3571 -0.3443 -0.9985
  174SLPC  H12A19641   5.223   1.566   7.401  0.5432 -0.6313 -0.3650
  174SLPC  H12B19642   5.177   1.429   7.300 -1.0496  0.2666  0.6049
  174SLPC   C1119643   5.362   1.521   7.235  0.1884  0.0832 -0.9936
  174SLPC  H11A19644   5.317   1.594   7.163 -0.0213  2.2747  1.2310
  174SLPC  H11B19645   5.386   1.434   7.170 -0.4446 -1.5894  0.9422
  174SLPC     P19646   5.626   1.549   7.238 -0.0640  0.1694 -0.5546
  174SLPC   O1319647   5.719   1.648   7.298 -0.0924  0.1425 -0.3723
  174SLPC   O1419648   5.654   1.409   7.278 -0.0369  0.2164 -0.0081
  174SLPC   O1219649   5.477   1.593   7.286 -0.4609 -0.1888  0.0294
  174SLPC   O1119650   5.632   1.567   7.084  0.3180 -0.0607 -0.1633
  174SLPC    C119651   5.644   1.696   7.031  0.6574 -0.5523 -0.3591
  174SLPC    HA19652   5.664   1.773   7.108 -0.9268 -0.9580  0.5076
  174SLPC    HB19653   5.731   1.693   6.962  0.7661 -1.2938 -0.1968
  174SLPC    C219654   5.523   1.744   6.950 -0.0760 -0.0897 -0.0112
  174SLPC    HS19655   5.447   1.794   7.013  0.9125  1.1158  0.2701
  174SLPC   O2119656   5.467   1.624   6.890 -0.4649  0.5738  0.3801
  174SLPC   C2119657   5.336   1.628   6.872  0.6368 -0.7860 -0.3989
  174SLPC   O2219658   5.264   1.709   6.928 -0.0838 -0.4248 -0.7931
  174SLPC   C2219659   5.294   1.519   6.771  0.3232  0.3493 -0.4015
  174SLPC   H2R19660   5.247   1.433   6.824  0.7553  0.9277  0.9399
  174SLPC   H2S19661   5.219   1.566   6.704  0.1724  0.9792  0.2007
  174SLPC    C319662   5.562   1.855   6.839 -0.3281 -0.1124  0.2906
  174SLPC    HX19663   5.632   1.805   6.768  1.7059 -0.3290  2.3250
  174SLPC    HY19664   5.630   1.931   6.883 -1.2701  1.0021 -0.1580
  174SLPC   O3119665   5.449   1.905   6.761 -0.4935  0.2992  0.2406
  174SLPC   C3119666   5.397   2.019   6.799  0.5187  0.2206 -0.2064
  174SLPC   O3219667   5.451   2.099   6.867 -0.4551  0.0176 -0.9238
  174SLPC   C3219668   5.248   2.034   6.752  0.0440  0.6128 -0.3379
  174SLPC   H2X19669   5.184   2.047   6.843 -0.5117  1.3772 -0.8244
  174SLPC   H2Y19670   5.225   1.932   6.714 -1.0253  0.6764  0.0809
  174SLPC   C2319671   5.403   1.476   6.671  0.0598  0.1193  0.7917
  174SLPC   H3R19672   5.365   1.386   6.618 -0.1558  1.3828 -1.3145
  174SLPC   H3S19673   5.503   1.448   6.709  0.1160  0.8949  1.2285
  174SLPC   C2419674   5.419   1.584   6.560 -0.0103  0.2119 -0.1207
  174SLPC   H4R19675   5.445   1.676   6.617  0.4871 -0.5069  0.8336
  174SLPC   H4S19676   5.323   1.605   6.508 -1.2188  0.8074  2.2134
  174SLPC   C2519677   5.539   1.556   6.468 -0.6462  0.9380 -0.6837
  174SLPC   H5R19678   5.620   1.515   6.532 -0.1713 -0.0224 -1.8705
  174SLPC   H5S19679   5.575   1.648   6.416  2.2170 -0.3365 -1.1759
  174SLPC   C2619680   5.514   1.445   6.369  0.0840 -0.1457 -0.3213
  174SLPC   H6R19681   5.463   1.490   6.281  0.8812  1.8852  0.1984
  174SLPC   H6S19682   5.450   1.370   6.421  1.1945 -0.7861  0.1429
  174SLPC   C2719683   5.635   1.372   6.306 -0.4684 -0.0116 -0.1084
  174SLPC   H7R19684   5.594   1.289   6.245  3.8795 -1.2646 -1.7636
  174SLPC   H7S19685   5.704   1.336   6.386 -0.3421  1.6334  0.5626
  174SLPC   C2819686   5.713   1.468   6.211 -0.1953  0.0614  0.0407
  174SLPC   H8R19687   5.742   1.549   6.281  1.7393 -0.2984 -0.3030
  174SLPC   H8S19688   5.655   1.515   6.129  0.9794 -1.5484 -1.8032
  174SLPC   C2919689   5.826   1.383   6.160  0.6357 -0.2593 -0.6358
  174SLPC   H9R19690   5.913   1.370   6.227  0.8780 -1.4891 -1.1509
  174SLPC  C21019691   5.838   1.346   6.032 -0.6223  0.3113 -0.2475
  174SLPC  H10R19692   5.920   1.281   6.000 -0.3137 -1.4440  3.5354
  174SLPC  C21119693   5.728   1.365   5.933 -0.0062  0.4511  0.7537
  174SLPC  H11R19694   5.720   1.472   5.904  0.7337 -0.1316 -1.8821
  174SLPC  H11S19695   5.626   1.337   5.967 -0.9485  2.9025  0.1252
  174SLPC  C21219696   5.752   1.295   5.800  0.4247  0.0812 -0.4787
  174SLPC  H12R19697   5.723   1.190   5.791  0.6843 -0.1155  0.7850
  174SLPC  C21319698   5.816   1.352   5.694  0.0144 -0.6573  0.5094
  174SLPC  H13R19699   5.826   1.284   5.608 -0.1676 -0.0431  0.0003
  174SLPC  C21419700   5.894   1.481   5.684 -0.4638 -0.3434 -0.3079
  174SLPC  H14R19701   5.985   1.474   5.747 -0.6615 -2.4653 -0.1872
  174SLPC  H14S19702   5.822   1.553   5.729  0.2287 -0.4544  1.0074
  174SLPC  C21519703   5.930   1.523   5.540  1.3212  0.4060  0.4592
  174SLPC  H15R19704   5.955   1.631   5.545 -1.7443  1.2677 -0.4581
  174SLPC  H15S19705   5.845   1.510   5.470  0.2946  2.8766  1.1372
  174SLPC  C21619706   6.040   1.447   5.465  0.0746  0.0684 -0.3973
  174SLPC  H16R19707   6.123   1.420   5.534 -1.9255 -3.0014  0.9922
  174SLPC  H16S19708   6.075   1.514   5.383 -0.4321  1.5587  0.5529
  174SLPC  C21719709   5.998   1.318   5.397 -0.0846 -0.6667  0.0781
  174SLPC  H17R19710   5.901   1.344   5.349  0.0846 -0.4278 -0.1380
  174SLPC  H17S19711   5.977   1.246   5.479 -0.7434  0.3437  0.8220
  174SLPC  C21819712   6.104   1.279   5.291 -0.4833  0.0008  0.7950
  174SLPC  H18R19713   6.109   1.354   5.210  2.1902 -1.6070 -0.6948
  174SLPC  H18S19714   6.076   1.185   5.238 -0.1326  0.3167  0.0293
  174SLPC  H18T19715   6.204   1.268   5.340  0.0900 -0.9380 -0.5146
  174SLPC   C3319716   5.242   2.138   6.640 -0.1870  0.6051  0.7081
  174SLPC   H3X19717   5.294   2.231   6.673 -0.1122  0.8104  0.0155
  174SLPC   H3Y19718   5.139   2.170   6.616  0.1441 -0.9839 -3.7727
  174SLPC   C3419719   5.310   2.093   6.503  0.1568  0.4332  0.2752
  174SLPC   H4X19720   5.419   2.080   6.520  0.1362 -1.4886 -0.7217
  174SLPC   H4Y19721   5.316   2.173   6.427  1.8527 -0.2693 -0.3777
  174SLPC   C3519722   5.249   1.970   6.432 -0.5625  0.1028 -0.3265
  174SLPC   H5X19723   5.144   1.982   6.398 -2.0497 -4.0126  2.1239
  174SLPC   H5Y19724   5.248   1.891   6.509 -1.0173 -1.3972 -1.8095
  174SLPC   C3619725   5.351   1.919   6.321 -0.0681 -0.4329  0.4692
  174SLPC   H6X19726   5.313   1.820   6.286 -2.0199  0.4692 -0.1134
  174SLPC   H6Y19727   5.454   1.915   6.361 -0.3260 -0.0600  1.1757
  174SLPC   C3719728   5.352   2.016   6.196 -0.1318  0.4401  0.1697
  174SLPC   H7X19729   5.371   2.120   6.230 -0.2844 -0.0525  1.8583
  174SLPC   H7Y19730   5.250   2.008   6.151  0.0030  1.3910 -0.3145
  174SLPC   C3819731   5.440   1.985   6.072  0.0634  0.3942  0.5936
  174SLPC   H8X19732   5.547   2.004   6.094  0.4830  0.4983 -1.3174
  174SLPC   H8Y19733   5.407   2.055   5.992 -2.3235  0.6704  1.7431
  174SLPC   C3919734   5.420   1.840   6.015  0.8054  0.5039 -0.3551
  174SLPC   H9X19735   5.314   1.808   6.011  1.4827 -2.4309  1.8434
  174SLPC   H9Y19736   5.473   1.769   6.082  1.1411 -0.9023 -2.0395
  174SLPC  C31019737   5.468   1.831   5.870  0.1087 -0.2853 -0.4131
  174SLPC  H10X19738   5.575   1.854   5.852  0.7841 -2.5409  0.3643
  174SLPC  H10Y19739   5.409   1.886   5.795  1.0997  0.7194 -0.4838
  174SLPC  C31119740   5.463   1.683   5.823  0.9347 -0.5064  0.1965
  174SLPC  H11X19741   5.361   1.639   5.828  0.5713  0.3164  0.2575
  174SLPC  H11Y19742   5.531   1.628   5.890 -0.0638 -2.3416 -0.2393
  174SLPC  C31219743   5.521   1.680   5.681  0.4138  0.1200  0.2256
  174SLPC  H12X19744   5.519   1.570   5.661 -1.1888 -0.4744  3.1188
  174SLPC  H12Y19745   5.624   1.723   5.679  0.6573 -0.4062  0.9325
  174SLPC  C31319746   5.430   1.729   5.570 -0.3988 -0.5301 -0.5422
  174SLPC  H13X19747   5.413   1.839   5.571  0.5266 -0.2391  3.6845
  174SLPC  H13Y19748   5.332   1.684   5.594 -0.9366 -0.2435 -2.0616
  174SLPC  C31419749   5.475   1.675   5.434  0.6654 -0.1583  0.4070
  174SLPC  H14X19750   5.496   1.566   5.440  0.3739 -0.2558 -0.2233
  174SLPC  H14Y19751   5.569   1.730   5.410  0.1282  0.6401  0.0857
  174SLPC  C31519752   5.368   1.702   5.326  0.3173 -0.7055  0.7932
  174SLPC  H15X19753   5.333   1.806   5.307  1.3344 -0.7327 -1.5369
  174SLPC  H15Y19754   5.271   1.653   5.351  0.3135 -0.4852  1.2166
  174SLPC  C31619755   5.406   1.634   5.191 -0.6118  0.1514  0.4023
  174SLPC  H16X19756   5.443   1.532   5.214 -0.2852  0.4542  1.2556
  174SLPC  H16Y19757   5.494   1.693   5.156  0.7244 -2.8003 -1.6763
  174SLPC  C31719758   5.300   1.640   5.085  0.9793 -0.3553  0.0720
  174SLPC  H17X19759   5.267   1.745   5.071  1.3699 -0.1409  0.7061
  174SLPC  H17Y19760   5.211   1.580   5.113  0.5386  0.1962 -0.1417
  174SLPC  C31819761   5.349   1.596   4.953  0.3453 -0.2583  0.6310
  174SLPC  H18X19762   5.282   1.600   4.864  1.9494  1.6646 -0.5686
  174SLPC  H18Y19763   5.387   1.492   4.960 -1.1376 -0.9185 -0.5516
  174SLPC  H18Z19764   5.437   1.658   4.926 -0.6670  0.9143 -0.0557
  175SLPC     N19765   1.352   1.550   7.655 -1.0071  0.1056 -0.9374
  175SLPC   C1319766   1.431   1.444   7.583  0.3658 -0.2167 -0.4056
  175SLPC  H13A19767   1.496   1.487   7.509  1.1337 -0.6131  0.0283
  175SLPC  H13B19768   1.484   1.384   7.656 -2.0075 -0.3198  1.3847
  175SLPC  H13C19769   1.364   1.372   7.538  1.3994 -0.4432 -1.6230
  175SLPC   C1419770   1.445   1.609   7.758 -0.1401 -0.2185 -0.8141
  175SLPC  H14A19771   1.385   1.651   7.837  0.7522 -1.6945  0.7215
  175SLPC  H14B19772   1.515   1.541   7.804 -0.8883  0.5155  1.4965
  175SLPC  H14C19773   1.504   1.685   7.708  1.1994 -0.7857 -0.1574
  175SLPC   C1519774   1.242   1.479   7.722  0.4475  0.2167 -0.3521
  175SLPC  H15A19775   1.274   1.405   7.794 -0.2782 -0.5153 -0.7606
  175SLPC  H15B19776   1.186   1.549   7.781  0.7043  1.2720 -1.3309
  175SLPC  H15C19777   1.179   1.427   7.651 -1.9723 -0.4469  2.1248
  175SLPC   C1219778   1.289   1.658   7.565  0.0665  0.3296  0.0736
  175SLPC  H12A19779   1.239   1.728   7.630  1.0490  1.9632 -0.8836
  175SLPC  H12B19780   1.197   1.623   7.521 -1.8886 -0.7797  4.4318
  175SLPC   C1119781   1.385   1.726   7.468  0.8121  0.0238 -0.4546
  175SLPC  H11A19782   1.333   1.794   7.397  1.4079  0.2761 -0.6553
  175SLPC  H11B19783   1.445   1.659   7.404  1.4583 -0.6561  0.8322
  175SLPC     P19784   1.450   1.952   7.597  0.0142 -0.3798 -0.0419
  175SLPC   O1319785   1.310   1.978   7.639  0.3797 -0.2353 -0.1350
  175SLPC   O1419786   1.565   1.961   7.695 -0.0160 -0.0641  0.8106
  175SLPC   O1219787   1.471   1.801   7.547 -0.3536 -0.1045  0.0634
  175SLPC   O1119788   1.472   2.037   7.458 -0.1071 -0.1821  0.0797
  175SLPC    C119789   1.583   1.998   7.380 -0.4693  0.3993  1.4162
  175SLPC    HA19790   1.675   1.981   7.439 -0.4609 -0.9066  1.0425
  175SLPC    HB19791   1.552   1.900   7.339 -0.1542 -1.2067  4.7075
  175SLPC    C219792   1.615   2.098   7.258 -0.4454 -0.4101 -0.2723
  175SLPC    HS19793   1.641   2.192   7.312 -0.6683 -0.3732 -0.2285
  175SLPC   O2119794   1.497   2.139   7.183  0.1763  0.1269 -0.0480
  175SLPC   C2119795   1.417   2.047   7.146  0.1844 -0.2343  0.0916
  175SLPC   O2219796   1.436   1.925   7.147  0.3840 -0.4324 -0.0861
  175SLPC   C2219797   1.280   2.112   7.118 -0.2072  0.2850  0.2272
  175SLPC   H2R19798   1.205   2.082   7.194  0.0697 -1.4394 -0.1424
  175SLPC   H2S19799   1.305   2.220   7.114  4.2144 -0.5978 -0.9342
  175SLPC    C319800   1.734   2.052   7.168 -0.2127 -0.4721 -0.1586
  175SLPC    HX19801   1.829   2.039   7.224 -0.0086  1.2433 -0.0751
  175SLPC    HY19802   1.750   2.141   7.104 -2.1944  0.7651  0.9471
  175SLPC   O3119803   1.702   1.944   7.077 -0.3022 -0.1154  0.4146
  175SLPC   C3119804   1.733   1.825   7.118  0.1180 -1.0220  0.1777
  175SLPC   O3219805   1.755   1.794   7.233 -0.5955  0.0907  0.0114
  175SLPC   C3219806   1.727   1.732   6.997  0.1785  0.9365  0.7622
  175SLPC   H2X19807   1.691   1.637   7.042 -0.1977  1.1434  0.9003
  175SLPC   H2Y19808   1.829   1.709   6.959  0.5847  1.3884  1.5727
  175SLPC   C2319809   1.205   2.046   7.002  0.4666  0.4751 -0.3536
  175SLPC   H3R19810   1.098   2.072   7.010  0.6829  1.9410 -1.6959
  175SLPC   H3S19811   1.214   1.935   7.011 -0.3258  0.5828  2.4994
  175SLPC   C2419812   1.248   2.099   6.865  0.7296  0.3577 -0.5832
  175SLPC   H4R19813   1.359   2.091   6.866  0.7018 -0.0511  0.1371
  175SLPC   H4S19814   1.229   2.206   6.842 -1.7811  0.0443 -0.2313
  175SLPC   C2519815   1.188   2.024   6.744  0.5887 -0.4471 -0.7535
  175SLPC   H5R19816   1.078   2.024   6.758  0.5324  2.8150 -0.5309
  175SLPC   H5S19817   1.226   1.921   6.726  0.1173 -0.4438 -1.8382
  175SLPC   C2619818   1.205   2.109   6.617  0.0383  0.5559 -0.2507
  175SLPC   H6R19819   1.312   2.137   6.603  0.9270 -1.6504  1.5116
  175SLPC   H6S19820   1.141   2.199   6.630 -2.0097 -0.8673 -0.1217
  175SLPC   C2719821   1.159   2.031   6.497 -0.4578  0.2115  0.0008
  175SLPC   H7R19822   1.071   1.970   6.527 -1.2646  0.9058 -0.8764
  175SLPC   H7S19823   1.243   1.968   6.462 -0.0324  1.1915 -0.8189
  175SLPC   C2819824   1.110   2.116   6.379 -0.0454 -0.1390 -0.4759
  175SLPC   H8R19825   1.021   2.169   6.419  0.4398  0.6996 -0.4878
  175SLPC   H8S19826   1.074   2.041   6.305 -1.8371 -0.2672  0.4543
  175SLPC   C2919827   1.209   2.212   6.323  0.4583  0.4704 -0.1026
  175SLPC   H9R19828   1.258   2.270   6.403 -0.7067  0.4730  0.6247
  175SLPC  C21019829   1.234   2.243   6.199 -0.2993  0.2553 -0.0512
  175SLPC  H10R19830   1.328   2.299   6.189  0.0559 -0.2390  0.3849
  175SLPC  C21119831   1.168   2.200   6.072  0.5612 -0.0888 -0.4514
  175SLPC  H11R19832   1.169   2.285   6.001  1.1569 -0.6200 -1.0928
  175SLPC  H11S19833   1.061   2.172   6.083  1.4035 -4.2434 -1.2153
  175SLPC  C21219834   1.233   2.081   6.004  0.5108  0.0264 -1.2579
  175SLPC  H12R19835   1.332   2.065   6.048 -0.2563  1.9337  1.4962
  175SLPC  C21319836   1.181   2.020   5.902 -0.5612 -0.0429  0.0104
  175SLPC  H13R19837   1.246   1.945   5.856  0.6540  0.7811  0.3445
  175SLPC  C21419838   1.043   2.046   5.834 -0.3899 -0.1622 -0.0466
  175SLPC  H14R19839   0.984   2.120   5.892 -0.0316  0.7206 -0.7822
  175SLPC  H14S19840   0.985   1.952   5.845 -0.4264 -0.0495  0.7872
  175SLPC  C21519841   1.066   2.107   5.694  0.9101  0.9266  0.1284
  175SLPC  H15R19842   1.138   2.190   5.709  0.2861  1.6330 -0.6543
  175SLPC  H15S19843   0.966   2.145   5.665 -0.1336 -1.4283  0.4251
  175SLPC  C21619844   1.110   2.005   5.582 -0.9314 -0.0218 -0.7328
  175SLPC  H16R19845   1.020   1.941   5.573 -1.6249  0.9317 -0.7604
  175SLPC  H16S19846   1.197   1.952   5.627 -0.5749 -0.4786 -1.9259
  175SLPC  C21719847   1.133   2.081   5.452 -0.9888  0.6839 -0.8643
  175SLPC  H17R19848   1.176   2.012   5.376  0.7694  1.3850 -0.5771
  175SLPC  H17S19849   1.206   2.165   5.464  1.9381 -0.7729 -5.6107
  175SLPC  C21819850   1.019   2.148   5.386 -0.2977  0.0719  0.0815
  175SLPC  H18R19851   1.037   2.158   5.277 -0.3945  1.9951  0.2100
  175SLPC  H18S19852   1.006   2.250   5.428  1.5294  1.6272 -2.7575
  175SLPC  H18T19853   0.926   2.091   5.407  0.2844 -1.1979 -0.7027
  175SLPC   C3319854   1.623   1.780   6.890 -0.7292  0.7761  0.1420
  175SLPC   H3X19855   1.685   1.850   6.829  1.7842 -1.2134  0.2848
  175SLPC   H3Y19856   1.528   1.829   6.921 -0.7898  0.7923 -0.0649
  175SLPC   C3419857   1.589   1.667   6.796 -0.1736 -0.2322  0.2884
  175SLPC   H4X19858   1.561   1.588   6.869 -3.2403 -0.0540 -0.5811
  175SLPC   H4Y19859   1.675   1.629   6.737  1.3180  0.7774  1.7112
  175SLPC   C3519860   1.464   1.697   6.716  0.4624  0.1435  0.1444
  175SLPC   H5X19861   1.376   1.710   6.782 -0.8817 -2.3528 -1.0212
  175SLPC   H5Y19862   1.442   1.611   6.649 -0.5573 -0.5558  1.3200
  175SLPC   C3619863   1.481   1.823   6.630  0.0555  0.1444  0.1237
  175SLPC   H6X19864   1.507   1.916   6.685  0.2076  0.8416 -1.0923
  175SLPC   H6Y19865   1.385   1.848   6.580  0.2915 -3.7072 -2.6786
  175SLPC   C3719866   1.584   1.802   6.519 -0.2003 -0.1894  0.5295
  175SLPC   H7X19867   1.571   1.700   6.478 -0.3869  0.7033 -1.7487
  175SLPC   H7Y19868   1.686   1.809   6.563 -0.8801  2.3949  1.9416
  175SLPC   C3819869   1.577   1.902   6.410 -0.0395 -0.0125  0.1269
  175SLPC   H8X19870   1.596   2.006   6.443 -0.9134 -0.4888  2.3305
  175SLPC   H8Y19871   1.476   1.905   6.363  0.6409  0.4284 -1.3807
  175SLPC   C3919872   1.671   1.852   6.303  0.5502 -0.0776 -0.1276
  175SLPC   H9X19873   1.665   1.744   6.282  1.4728  0.1732 -1.8435
  175SLPC   H9Y19874   1.777   1.877   6.329  0.1179  1.9937 -0.1471
  175SLPC  C31019875   1.642   1.933   6.171 -0.8671 -0.6241  0.3752
  175SLPC  H10X19876   1.677   2.037   6.183  1.5006 -1.2038 -0.9981
  175SLPC  H10Y19877   1.536   1.919   6.140 -0.8320 -1.0518  0.4416
  175SLPC  C31119878   1.729   1.881   6.059 -0.1597  0.8179  0.5831
  175SLPC  H11X19879   1.710   1.772   6.050 -0.1541  0.8105  0.6573
  175SLPC  H11Y19880   1.836   1.890   6.085  0.3935 -2.3099 -0.2306
  175SLPC  C31219881   1.717   1.942   5.916 -0.7622 -0.8117  0.5268
  175SLPC  H12X19882   1.796   1.898   5.851  0.8756  2.6997 -0.1102
  175SLPC  H12Y19883   1.744   2.050   5.926 -2.5050 -0.2224 -0.7180
  175SLPC  C31319884   1.576   1.932   5.874  0.0913  0.5551  0.7786
  175SLPC  H13X19885   1.516   2.013   5.923 -2.5087 -0.7063 -0.1648
  175SLPC  H13Y19886   1.541   1.838   5.921  2.4667 -0.7338  0.1299
  175SLPC  C31419887   1.548   1.931   5.729  0.7050  0.0515  0.3411
  175SLPC  H14X19888   1.439   1.944   5.712 -0.0279  1.1794  4.7353
  175SLPC  H14Y19889   1.562   1.828   5.689 -1.2485 -0.2778  0.3621
  175SLPC  C31519890   1.616   2.034   5.642 -0.0034  0.4802  0.5419
  175SLPC  H15X19891   1.724   2.018   5.621  0.2074  2.9124 -0.5808
  175SLPC  H15Y19892   1.608   2.131   5.696 -0.7916  1.4758 -1.2860
  175SLPC  C31619893   1.538   2.051   5.506  0.0688  0.3915  0.0038
  175SLPC  H16X19894   1.441   2.104   5.519 -1.7202 -2.8647  1.2210
  175SLPC  H16Y19895   1.508   1.948   5.477 -0.0618  0.8729 -1.6735
  175SLPC  C31719896   1.629   2.101   5.394 -0.4848 -0.2933  0.2464
  175SLPC  H17X19897   1.588   2.070   5.296 -0.7232 -0.3779  0.3714
  175SLPC  H17Y19898   1.728   2.053   5.402 -1.3277 -1.9728  0.9843
  175SLPC  C31819899   1.642   2.253   5.385 -0.2376  0.2854 -0.0184
  175SLPC  H18X19900   1.708   2.279   5.300 -1.0458 -1.2010 -1.1329
  175SLPC  H18Y19901   1.671   2.285   5.488 -2.2989 -1.5235  1.2058
  175SLPC  H18Z19902   1.537   2.288   5.369  0.4094  2.2222 -0.3650
  176SLPC     N19903   0.580   1.513   7.721  0.2104 -0.2974 -0.2283
  176SLPC   C1319904   0.531   1.622   7.808 -0.3510 -0.1826  0.1003
  176SLPC  H13A19905   0.536   1.585   7.909  1.5701 -0.4291 -0.0448
  176SLPC  H13B19906   0.591   1.712   7.801 -0.0730 -0.4603 -1.4373
  176SLPC  H13C19907   0.430   1.657   7.790 -0.7322  1.3302  4.1047
  176SLPC   C1419908   0.480   1.403   7.733  0.0025  0.2524 -0.3109
  176SLPC  H14A19909   0.527   1.314   7.693 -0.9689 -0.7295  0.6832
  176SLPC  H14B19910   0.447   1.371   7.831  0.1123 -0.4327 -0.4881
  176SLPC  H14C19911   0.390   1.423   7.677 -1.1989 -1.0935  1.0475
  176SLPC   C1519912   0.710   1.460   7.777 -0.1882 -0.4318 -0.5648
  176SLPC  H15A19913   0.703   1.446   7.884 -0.0944 -2.4922 -0.7840
  176SLPC  H15B19914   0.742   1.367   7.731  1.7179 -0.1737  0.1190
  176SLPC  H15C19915   0.794   1.528   7.769  2.2189 -2.6789  2.6535
  176SLPC   C1219916   0.600   1.568   7.584 -0.2105 -0.4290 -0.0573
  176SLPC  H12A19917   0.680   1.640   7.592 -0.8284  0.0914  1.9559
  176SLPC  H12B19918   0.509   1.623   7.566  0.6657  1.3156  0.5706
  176SLPC   C1119919   0.650   1.479   7.463 -0.0278  0.3230  0.2011
  176SLPC  H11A19920   0.641   1.536   7.368  3.3271  1.3334  0.3433
  176SLPC  H11B19921   0.576   1.397   7.451 -0.9650  1.1065  0.4752
  176SLPC     P19922   0.903   1.519   7.432  0.1979 -0.1370 -0.0266
  176SLPC   O1319923   0.892   1.644   7.503 -0.6133 -0.4899 -0.1879
  176SLPC   O1419924   1.033   1.447   7.452 -0.1094 -0.1489 -0.4284
  176SLPC   O1219925   0.784   1.427   7.480 -0.0083  0.7262  0.0351
  176SLPC   O1119926   0.867   1.537   7.278  0.0769  0.5153 -0.3789
  176SLPC    C119927   0.871   1.428   7.181  0.6118 -0.2557 -1.2224
  176SLPC    HA19928   0.883   1.325   7.223  0.0477 -0.5373 -1.7285
  176SLPC    HB19929   0.780   1.424   7.117  0.7828  1.7261 -1.6380
  176SLPC    C219930   0.986   1.445   7.080 -0.0805 -0.1580  0.0753
  176SLPC    HS19931   1.080   1.474   7.133  0.8473 -1.8244 -0.5617
  176SLPC   O2119932   0.945   1.529   6.978 -0.5470  0.0166  0.1344
  176SLPC   C2119933   1.001   1.649   6.977  1.0704  0.1902 -0.4658
  176SLPC   O2219934   1.085   1.696   7.051  0.3326  0.2283  0.4834
  176SLPC   C2219935   0.925   1.732   6.872 -0.2986  0.1054  0.2580
  176SLPC   H2R19936   0.820   1.693   6.872 -0.1824 -0.2116  1.0516
  176SLPC   H2S19937   0.930   1.837   6.908  0.3991 -0.1240  0.8381
  176SLPC    C319938   1.034   1.312   7.018  0.4116 -0.6819 -0.2380
  176SLPC    HX19939   0.943   1.268   6.971  0.8936 -0.4908 -1.3878
  176SLPC    HY19940   1.069   1.240   7.095  0.6680  0.4412  0.7196
  176SLPC   O3119941   1.152   1.334   6.928  1.0582 -0.4118 -0.2245
  176SLPC   C3119942   1.123   1.336   6.802  0.0496 -0.3413 -0.1525
  176SLPC   O3219943   1.010   1.316   6.757 -0.0470 -0.1286  0.1726
  176SLPC   C3219944   1.247   1.352   6.717 -0.0167 -0.4905 -0.2373
  176SLPC   H2X19945   1.319   1.270   6.732  2.5865  1.6859 -0.0904
  176SLPC   H2Y19946   1.305   1.437   6.758  1.3828 -0.7092 -1.6624
  176SLPC   C2319947   0.979   1.702   6.730  0.1485 -0.7071  0.1947
  176SLPC   H3R19948   0.966   1.592   6.720 -2.2422 -0.5611  1.1530
  176SLPC   H3S19949   1.087   1.725   6.718  0.0839 -0.6843 -0.4065
  176SLPC   C2419950   0.900   1.771   6.620  1.0619 -0.2700  0.3748
  176SLPC   H4R19951   0.905   1.881   6.629 -2.6599  0.0352  0.0054
  176SLPC   H4S19952   0.795   1.750   6.650  0.6813 -0.5186 -1.0485
  176SLPC   C2519953   0.930   1.719   6.477  0.3811 -0.1535 -0.1469
  176SLPC   H5R19954   0.926   1.608   6.483 -0.5988 -0.1370 -0.3227
  176SLPC   H5S19955   1.027   1.759   6.441 -0.4038  1.7887 -0.2660
  176SLPC   C2619956   0.821   1.754   6.367  0.4553 -0.1835 -0.2287
  176SLPC   H6R19957   0.804   1.863   6.379  0.4974 -0.3149  1.0823
  176SLPC   H6S19958   0.728   1.694   6.377  0.7864 -0.7651 -0.5700
  176SLPC   C2719959   0.879   1.726   6.226  0.4853 -0.5028 -0.5917
  176SLPC   H7R19960   0.938   1.633   6.214 -0.0440 -1.1359  1.3477
  176SLPC   H7S19961   0.956   1.805   6.220 -1.3101  1.8719  3.2254
  176SLPC   C2819962   0.775   1.730   6.108  0.8433  0.4985 -0.4849
  176SLPC   H8R19963   0.832   1.737   6.012 -0.3046 -1.5482 -1.3676
  176SLPC   H8S19964   0.716   1.823   6.118 -1.0066 -0.5655 -1.0291
  176SLPC   C2919965   0.682   1.611   6.106  0.2129  0.6862  0.0374
  176SLPC   H9R19966   0.616   1.590   6.192  0.7201 -2.7395 -0.2802
  176SLPC  C21019967   0.650   1.537   6.001  0.3762 -0.0130 -0.0799
  176SLPC  H10R19968   0.574   1.459   6.013  0.1623  0.4797  2.1535
  176SLPC  C21119969   0.705   1.538   5.863 -0.8517  0.0640  0.6001
  176SLPC  H11R19970   0.701   1.444   5.804  3.1525  0.8584 -1.2967
  176SLPC  H11S19971   0.815   1.547   5.868 -0.5792 -0.0284 -2.8439
  176SLPC  C21219972   0.655   1.643   5.762 -0.6830 -0.1786  0.1990
  176SLPC  H12R19973   0.634   1.740   5.809  0.0134  0.6941 -1.2238
  176SLPC  C21319974   0.634   1.635   5.629 -0.0791  0.2730  0.1895
  176SLPC  H13R19975   0.588   1.725   5.585 -1.4332 -0.0590  0.8784
  176SLPC  C21419976   0.639   1.523   5.530 -0.1699 -0.0092  0.2764
  176SLPC  H14R19977   0.607   1.420   5.556  1.3052 -1.0339 -1.6872
  176SLPC  H14S19978   0.740   1.509   5.488 -1.4719  0.0824 -3.2434
  176SLPC  C21519979   0.548   1.567   5.411 -0.7662  0.3819 -0.2919
  176SLPC  H15R19980   0.589   1.659   5.364  2.5426 -0.1659  1.2479
  176SLPC  H15S19981   0.445   1.581   5.451 -0.9736 -0.5040 -0.4947
  176SLPC  C21619982   0.533   1.445   5.308  0.1406  0.2251 -0.3158
  176SLPC  H16R19983   0.452   1.473   5.236 -1.2100 -1.0111  0.6587
  176SLPC  H16S19984   0.498   1.354   5.361 -0.7625 -0.1472 -1.5111
  176SLPC  C21719985   0.656   1.395   5.230 -0.1338  0.8385  0.9777
  176SLPC  H17R19986   0.730   1.349   5.298  1.9723 -0.4604 -1.9695
  176SLPC  H17S19987   0.713   1.479   5.184 -0.4134 -0.6060 -2.3159
  176SLPC  C21819988   0.616   1.289   5.120  0.4991  0.1595  0.3444
  176SLPC  H18R19989   0.553   1.204   5.153  0.0570  0.2484 -0.2502
  176SLPC  H18S19990   0.703   1.248   5.063 -2.6164 -4.7051 -1.6176
  176SLPC  H18T19991   0.555   1.342   5.044  0.6730 -1.3076 -0.8878
  176SLPC   C3319992   1.218   1.378   6.572 -0.3903  0.1511  0.1719
  176SLPC   H3X19993   1.170   1.474   6.546 -2.3749 -1.2710 -1.8308
  176SLPC   H3Y19994   1.143   1.303   6.537 -0.0488  0.4246 -1.1954
  176SLPC   C3419995   1.340   1.363   6.479  0.5613 -0.2268 -0.5462
  176SLPC   H4X19996   1.380   1.259   6.476 -1.5381 -1.0667 -1.2720
  176SLPC   H4Y19997   1.422   1.422   6.524  1.2094  0.7155 -2.8422
  176SLPC   C3519998   1.320   1.412   6.330 -0.5519 -0.2552  0.6400
  176SLPC   H5X19999   1.264   1.344   6.263 -2.4083  1.1020  0.7613
  176SLPC   H5Y20000   1.419   1.408   6.279 -0.5693 -2.7838  0.7032
  176SLPC   C3620001   1.276   1.563   6.322  0.3647  0.0302 -0.9748
  176SLPC   H6X20002   1.326   1.623   6.402 -0.2053 -0.1551 -0.4740
  176SLPC   H6Y20003   1.167   1.561   6.342  0.7617  1.1285  1.8641
  176SLPC   C3720004   1.297   1.628   6.192  0.6135  0.0902  0.2232
  176SLPC   H7X20005   1.406   1.612   6.175  0.3171 -0.2527 -1.5109
  176SLPC   H7Y20006   1.273   1.737   6.197 -3.1832 -0.6307  0.3529
  176SLPC   C3820007   1.214   1.562   6.079  0.1960 -0.0285  0.7151
  176SLPC   H8X20008   1.107   1.544   6.102  0.0296 -1.0026 -0.6842
  176SLPC   H8Y20009   1.260   1.469   6.039 -0.3151  1.1562 -3.0815
  176SLPC   C3920010   1.210   1.648   5.945  0.3339 -0.1740 -0.0892
  176SLPC   H9X20011   1.314   1.664   5.909  0.7569  0.5991  1.3714
  176SLPC   H9Y20012   1.166   1.748   5.968 -0.1663 -0.4107 -0.0016
  176SLPC  C31020013   1.132   1.575   5.835 -0.0814 -0.5724  0.6866
  176SLPC  H10X20014   1.027   1.576   5.870 -0.1641  0.4297  0.4610
  176SLPC  H10Y20015   1.172   1.472   5.831  0.6937 -0.2773  0.6020
  176SLPC  C31120016   1.108   1.653   5.703 -0.5976  0.6264 -0.1939
  176SLPC  H11X20017   1.208   1.673   5.660 -0.1058 -0.0366  0.6141
  176SLPC  H11Y20018   1.055   1.747   5.729  2.3704  2.3957 -0.0827
  176SLPC  C31220019   1.020   1.580   5.596 -0.1089  0.1325 -0.2222
  176SLPC  H12X20020   1.021   1.653   5.513  0.0396 -0.7155 -0.9774
  176SLPC  H12Y20021   0.915   1.559   5.627 -0.1979 -0.4459 -0.8902
  176SLPC  C31320022   1.074   1.441   5.551  0.0567 -0.2395  0.0882
  176SLPC  H13X20023   1.035   1.364   5.621  2.0646 -0.8418  0.6299
  176SLPC  H13Y20024   1.185   1.455   5.550 -0.2023  2.6942 -1.9794
  176SLPC  C31420025   1.041   1.395   5.406 -0.6494 -0.4341 -0.2000
  176SLPC  H14X20026   1.095   1.462   5.336  0.6760 -0.9235  0.3227
  176SLPC  H14Y20027   0.934   1.426   5.400 -0.9019 -1.4230 -1.0463
  176SLPC  C31520028   1.061   1.246   5.376  0.0066 -0.3152 -0.4858
  176SLPC  H15X20029   1.009   1.179   5.447  0.4295 -1.1366 -0.9436
  176SLPC  H15Y20030   1.169   1.222   5.380 -0.1077 -0.6599  1.0857
  176SLPC  C31620031   1.011   1.199   5.238  0.0052 -0.7611 -0.1467
  176SLPC  H16X20032   0.900   1.204   5.236 -0.1157 -2.1058  1.2132
  176SLPC  H16Y20033   1.042   1.094   5.221  1.7216 -0.4702  0.9347
  176SLPC  C31720034   1.061   1.288   5.123 -0.9013 -0.3116 -0.4399
  176SLPC  H17X20035   1.036   1.393   5.146  0.9930 -0.1408  1.0846
  176SLPC  H17Y20036   1.013   1.261   5.026  0.6320  1.3944 -1.7608
  176SLPC  C31820037   1.214   1.276   5.100  0.3162  0.3518  0.0709
  176SLPC  H18X20038   1.277   1.293   5.191  0.0911  0.9962  0.1093
  176SLPC  H18Y20039   1.231   1.354   5.023  0.9763 -0.2018 -0.3484
  176SLPC  H18Z20040   1.232   1.171   5.070  1.9521  1.1074 -1.8299
  177SLPC     N20041   1.928   1.439   7.683  0.2066  0.2716 -0.1192
  177SLPC   C1320042   1.892   1.419   7.826 -0.1702  0.0560 -0.1534
  177SLPC  H13A20043   1.788   1.444   7.839  0.2854  1.4305  1.0567
  177SLPC  H13B20044   1.924   1.320   7.858 -0.3227 -0.0549 -0.3387
  177SLPC  H13C20045   1.949   1.482   7.892  0.1989 -1.0669  0.6260
  177SLPC   C1420046   2.061   1.365   7.665  0.2573 -0.1904 -0.0002
  177SLPC  H14A20047   2.132   1.389   7.587  2.9130  1.8936  2.8258
  177SLPC  H14B20048   2.115   1.393   7.754 -0.5801  2.3465 -0.2041
  177SLPC  H14C20049   2.056   1.258   7.658  0.4756 -0.1232 -1.7850
  177SLPC   C1520050   1.946   1.586   7.651 -0.0269  0.3647  0.7705
  177SLPC  H15A20051   2.034   1.625   7.701  1.1255  0.6630 -1.3396
  177SLPC  H15B20052   1.975   1.591   7.547  0.1027  0.3786  0.8069
  177SLPC  H15C20053   1.859   1.647   7.667  0.5201  1.5930 -0.6929
  177SLPC   C1220054   1.825   1.383   7.586 -0.2572  0.2948  0.1539
  177SLPC  H12A20055   1.872   1.372   7.489  0.1707  1.7908  0.1601
  177SLPC  H12B20056   1.744   1.454   7.579 -0.3268  0.3602  1.4014
  177SLPC   C1120057   1.758   1.244   7.617 -0.0060  0.6789 -0.3891
  177SLPC  H11A20058   1.692   1.231   7.528 -1.4260  5.7751 -0.3988
  177SLPC  H11B20059   1.707   1.260   7.714  1.5800  2.4942  0.2024
  177SLPC     P20060   1.942   1.070   7.526 -0.0930  0.1281 -0.2686
  177SLPC   O1320061   1.979   1.176   7.425  0.0158 -0.4186 -0.3235
  177SLPC   O1420062   2.053   1.002   7.591  0.8791 -0.0443 -0.1149
  177SLPC   O1220063   1.861   1.146   7.639 -0.4571 -0.8912  0.2041
  177SLPC   O1120064   1.836   0.968   7.459  0.9107  0.8386 -0.3104
  177SLPC    C120065   1.874   0.872   7.369 -0.0687  0.5028 -0.3242
  177SLPC    HA20066   1.969   0.817   7.389  0.7326  1.6239 -0.8964
  177SLPC    HB20067   1.806   0.785   7.362  0.2277  0.2500 -0.1256
  177SLPC    C220068   1.891   0.921   7.221  0.4490 -0.0016 -0.3190
  177SLPC    HS20069   1.970   0.999   7.225  1.6286 -1.1850  0.0457
  177SLPC   O2120070   1.767   0.984   7.186  0.0920 -0.0668  0.1311
  177SLPC   C2120071   1.774   1.074   7.087 -0.0428  0.1027  0.5183
  177SLPC   O2220072   1.871   1.115   7.033  0.0477 -0.2605  0.0639
  177SLPC   C2220073   1.626   1.111   7.060  0.4917  0.2284 -0.0251
  177SLPC   H2R20074   1.561   1.038   7.113  1.6481 -0.7280  0.1125
  177SLPC   H2S20075   1.593   1.215   7.079 -0.2669  0.1170 -0.6840
  177SLPC    C320076   1.936   0.806   7.131  0.1502 -0.0510  0.1940
  177SLPC    HX20077   1.876   0.719   7.165 -0.1645 -0.0500 -0.3532
  177SLPC    HY20078   2.044   0.787   7.151  0.1139  0.6250  1.1138
  177SLPC   O3120079   1.904   0.820   6.989 -0.5663  0.4981  0.3882
  177SLPC   C3120080   2.002   0.871   6.920  0.2876  0.5617  0.2893
  177SLPC   O3220081   2.121   0.875   6.961  0.3720 -0.2415  0.4605
  177SLPC   C3220082   1.953   0.915   6.774 -1.0469 -0.1100  0.0225
  177SLPC   H2X20083   1.924   1.021   6.785 -1.8030 -0.2195 -0.7735
  177SLPC   H2Y20084   1.870   0.856   6.729 -0.1298 -1.3138 -0.1365
  177SLPC   C2320085   1.596   1.085   6.908 -0.0758  0.0520  0.8497
  177SLPC   H3R20086   1.485   1.082   6.900 -0.1840  1.9470  1.1036
  177SLPC   H3S20087   1.646   0.991   6.876 -2.1301  0.2324 -3.8474
  177SLPC   C2420088   1.629   1.191   6.797 -0.1740 -0.1896  0.5854
  177SLPC   H4R20089   1.738   1.208   6.809 -0.2884 -0.1678  1.7029
  177SLPC   H4S20090   1.564   1.277   6.823 -0.4922  0.7122 -2.7652
  177SLPC   C2520091   1.590   1.154   6.650 -0.7151  0.1958  0.0585
  177SLPC   H5R20092   1.480   1.166   6.656 -0.5750  1.2346  1.0582
  177SLPC   H5S20093   1.621   1.047   6.647  0.3949  0.4862  0.5481
  177SLPC   C2620094   1.659   1.240   6.542  0.5912 -0.9920  0.1132
  177SLPC   H6R20095   1.761   1.266   6.576  2.1724 -1.8759 -3.4503
  177SLPC   H6S20096   1.607   1.336   6.522  0.4362 -1.1382 -0.1918
  177SLPC   C2720097   1.678   1.151   6.407 -0.1945  0.7514 -0.6512
  177SLPC   H7R20098   1.579   1.114   6.374 -0.4053  1.2214 -0.5548
  177SLPC   H7S20099   1.741   1.068   6.446 -1.7880  0.2805  1.1038
  177SLPC   C2820100   1.754   1.219   6.286 -0.7768 -0.1373 -0.3996
  177SLPC   H8R20101   1.771   1.143   6.207  0.9378  0.9458 -1.1381
  177SLPC   H8S20102   1.855   1.230   6.331 -1.5333 -0.4565  1.4714
  177SLPC   C2920103   1.696   1.346   6.239  0.0379  0.2043 -0.1815
  177SLPC   H9R20104   1.675   1.427   6.311  1.2445  0.8529 -0.5373
  177SLPC  C21020105   1.633   1.355   6.119 -0.3253 -0.0645  0.3012
  177SLPC  H10R20106   1.586   1.449   6.087 -0.1279 -0.0304  0.1060
  177SLPC  C21120107   1.635   1.246   6.014 -0.6418 -0.1073 -0.5734
  177SLPC  H11R20108   1.730   1.192   5.998  0.3106  2.1732 -3.5758
  177SLPC  H11S20109   1.626   1.298   5.916  0.0810 -0.1540 -0.6684
  177SLPC  C21220110   1.522   1.143   6.042 -0.7886 -0.1343  0.2662
  177SLPC  H12R20111   1.571   1.066   6.104 -0.2575 -0.4743 -0.5657
  177SLPC  C21320112   1.402   1.130   5.986  0.7242 -0.0840 -0.7130
  177SLPC  H13R20113   1.347   1.037   6.006  0.6937 -0.0409 -0.5994
  177SLPC  C21420114   1.342   1.221   5.879  0.1570 -0.1037  0.0495
  177SLPC  H14R20115   1.387   1.322   5.870 -1.3558  0.4640 -2.2821
  177SLPC  H14S20116   1.237   1.240   5.912  1.0532  0.1970  2.9808
  177SLPC  C21520117   1.334   1.165   5.736  0.2658  0.5034  0.5827
  177SLPC  H15R20118   1.277   1.226   5.662  1.0879  1.7893  0.9795
  177SLPC  H15S20119   1.288   1.065   5.726 -2.2476  1.7291 -1.6633
  177SLPC  C21620120   1.473   1.158   5.673 -0.5131  0.0830  1.1593
  177SLPC  H16R20121   1.536   1.086   5.731  1.1619 -0.8660 -1.6412
  177SLPC  H16S20122   1.522   1.257   5.685  0.2635  0.0359 -1.1049
  177SLPC  C21720123   1.482   1.124   5.521 -0.1082 -0.2141 -0.0370
  177SLPC  H17R20124   1.429   1.213   5.482 -0.0239  0.0155  0.3656
  177SLPC  H17S20125   1.426   1.032   5.494  1.9044 -0.6588 -3.2272
  177SLPC  C21820126   1.621   1.126   5.475 -0.0731 -1.0622  1.1027
  177SLPC  H18R20127   1.696   1.062   5.526  1.6118  0.4725  0.6598
  177SLPC  H18S20128   1.661   1.228   5.497  1.0953 -0.8868 -1.4134
  177SLPC  H18T20129   1.624   1.117   5.364  1.2623 -3.1727  1.2430
  177SLPC   C3320130   2.071   0.914   6.668  0.1878 -0.3650  0.0990
  177SLPC   H3X20131   2.116   0.815   6.649  0.3032 -0.4077  0.5802
  177SLPC   H3Y20132   2.154   0.974   6.711 -0.2151  0.6606 -0.5100
  177SLPC   C3420133   2.037   0.973   6.530  0.0833 -0.3208 -0.1377
  177SLPC   H4X20134   1.980   1.065   6.552  1.3622  0.1695  1.3568
  177SLPC   H4Y20135   1.980   0.900   6.469  0.2781 -1.9594  1.5658
  177SLPC   C3520136   2.163   1.027   6.449 -0.6606  0.2876 -0.5125
  177SLPC   H5X20137   2.221   0.938   6.419 -1.8983 -1.1167  1.0581
  177SLPC   H5Y20138   2.226   1.073   6.527  2.6217  0.0073 -2.7972
  177SLPC   C3620139   2.125   1.096   6.322  0.0585  0.2271  0.5565
  177SLPC   H6X20140   2.040   1.165   6.337 -0.8073 -0.3755 -1.3629
  177SLPC   H6Y20141   2.080   1.016   6.259 -0.6030  0.1705  1.0880
  177SLPC   C3720142   2.229   1.173   6.239 -0.4682  0.1995 -0.1770
  177SLPC   H7X20143   2.296   1.109   6.177 -1.7483 -0.7096 -0.6599
  177SLPC   H7Y20144   2.292   1.238   6.303 -0.6521  0.4788 -0.2742
  177SLPC   C3820145   2.161   1.282   6.151 -0.2339  0.0936  0.1156
  177SLPC   H8X20146   2.241   1.347   6.111 -0.7086  0.3170 -0.4883
  177SLPC   H8Y20147   2.099   1.328   6.232  0.9049 -1.9432  2.2777
  177SLPC   C3920148   2.090   1.223   6.031  0.3307  0.3927  0.1828
  177SLPC   H9X20149   2.019   1.147   6.069  3.3081 -1.9888  1.3550
  177SLPC   H9Y20150   2.165   1.170   5.969  0.1816  0.6461 -0.2235
  177SLPC  C31020151   2.024   1.331   5.938 -0.1350 -0.2365  0.2009
  177SLPC  H10X20152   1.944   1.388   5.989  0.2292  1.5305 -1.1063
  177SLPC  H10Y20153   1.988   1.281   5.846  2.1920  2.4067 -2.3570
  177SLPC  C31120154   2.134   1.435   5.898  0.5645  0.1079  0.0175
  177SLPC  H11X20155   2.221   1.375   5.864 -0.3151 -1.2465  0.0728
  177SLPC  H11Y20156   2.159   1.498   5.986  0.0041  2.1347 -1.2048
  177SLPC  C31220157   2.083   1.522   5.778  0.0534 -0.6592 -0.8394
  177SLPC  H12X20158   2.021   1.458   5.712 -2.8174  1.2964 -0.2020
  177SLPC  H12Y20159   2.167   1.564   5.717  0.3185  0.6700  0.4022
  177SLPC  C31320160   1.990   1.631   5.823 -0.0742  0.5281 -0.4596
  177SLPC  H13X20161   2.050   1.672   5.907  0.1906  1.3994 -1.0557
  177SLPC  H13Y20162   1.893   1.591   5.859  1.1366 -4.0754 -1.5823
  177SLPC  C31420163   1.973   1.738   5.713 -0.0254 -0.0698  0.0972
  177SLPC  H14X20164   2.061   1.737   5.645  0.3846  0.2864  0.6148
  177SLPC  H14Y20165   1.985   1.835   5.766  1.7779  0.1135 -0.5495
  177SLPC  C31520166   1.855   1.711   5.615  0.1486 -1.4573 -0.1048
  177SLPC  H15X20167   1.760   1.729   5.669  0.0462  1.8814 -1.1587
  177SLPC  H15Y20168   1.839   1.604   5.593 -3.6058 -0.8475 -0.9676
  177SLPC  C31620169   1.857   1.794   5.489 -0.9859  0.1466 -0.4655
  177SLPC  H16X20170   1.881   1.901   5.512  0.6104 -0.2463 -0.1780
  177SLPC  H16Y20171   1.752   1.798   5.454 -1.1886 -0.6437  0.0372
  177SLPC  C31720172   1.939   1.735   5.368 -0.2910  0.7569  0.1333
  177SLPC  H17X20173   1.898   1.634   5.350  1.7949 -0.1937  0.4040
  177SLPC  H17Y20174   2.046   1.724   5.398  0.1441  1.4582 -1.0915
  177SLPC  C31820175   1.921   1.817   5.246 -0.7976 -0.3955  0.3802
  177SLPC  H18X20176   1.814   1.821   5.213 -0.3840  4.1802 -1.1622
  177SLPC  H18Y20177   1.974   1.767   5.162  0.2108  2.8620 -1.1281
  177SLPC  H18Z20178   1.942   1.924   5.269 -3.0908 -0.2066  1.9510
  178SLPC     N20179   0.583   5.964   8.177 -0.0582 -0.8166 -0.3679
  178SLPC   C1320180   0.569   5.860   8.281  0.2978 -0.1337 -0.1842
  178SLPC  H13A20181   0.630   5.869   8.369 -1.6309  0.9141  1.1065
  178SLPC  H13B20182   0.466   5.860   8.311  0.3312 -1.9159  0.0242
  178SLPC  H13C20183   0.588   5.764   8.235 -1.7971 -1.7977  2.1769
  178SLPC   C1420184   0.727   5.989   8.150  0.5007 -1.1634 -0.4422
  178SLPC  H14A20185   0.738   6.070   8.079  0.9605 -1.5942 -0.8668
  178SLPC  H14B20186   0.791   6.001   8.237  1.5083  1.4781 -1.4126
  178SLPC  H14C20187   0.775   5.907   8.099  3.6742  0.4859 -0.3950
  178SLPC   C1520188   0.520   6.089   8.235  0.4558  0.3121 -0.8243
  178SLPC  H15A20189   0.519   6.171   8.165  1.4612 -0.0994 -1.3446
  178SLPC  H15B20190   0.416   6.069   8.253  0.8121 -0.7872  0.1124
  178SLPC  H15C20191   0.569   6.126   8.324 -2.3096  1.0904  0.4555
  178SLPC   C1220192   0.508   5.923   8.048  0.0745  0.0552 -0.6043
  178SLPC  H12A20193   0.497   6.001   7.974  0.1958 -2.6452 -3.6821
  178SLPC  H12B20194   0.404   5.900   8.068  0.4742 -0.5020  0.9483
  178SLPC   C1120195   0.581   5.812   7.970 -0.2006  0.0270 -0.0574
  178SLPC  H11A20196   0.510   5.756   7.906  0.6196 -0.8095 -0.2657
  178SLPC  H11B20197   0.595   5.731   8.045 -3.3110 -0.3496  0.2468
  178SLPC     P20198   0.678   5.933   7.769  0.0670  0.0519  0.1403
  178SLPC   O1320199   0.538   5.986   7.765  0.0046  0.0895  0.1785
  178SLPC   O1420200   0.787   6.030   7.752  0.1873 -0.2584 -0.5200
  178SLPC   O1220201   0.705   5.857   7.905  0.6155 -0.1768  0.0214
  178SLPC   O1120202   0.686   5.809   7.673  0.6062 -0.0566  0.1848
  178SLPC    C120203   0.802   5.725   7.679 -0.0435  0.2648  1.0258
  178SLPC    HA20204   0.845   5.719   7.781  1.1986  1.2538  0.5812
  178SLPC    HB20205   0.773   5.621   7.655  0.1120  0.7632 -1.5730
  178SLPC    C220206   0.911   5.773   7.581 -0.1096  0.6262 -0.3498
  178SLPC    HS20207   0.962   5.861   7.625  2.2715  0.2618 -2.1527
  178SLPC   O2120208   0.848   5.799   7.452 -0.2757  0.0297  0.4397
  178SLPC   C2120209   0.872   5.914   7.393  0.3506 -0.0823 -0.3073
  178SLPC   O2220210   0.946   6.000   7.431  0.6900 -0.2194  0.1152
  178SLPC   C2220211   0.791   5.914   7.262  0.3396 -0.0951  0.7640
  178SLPC   H2R20212   0.828   5.836   7.192  1.3652  3.2366 -2.7540
  178SLPC   H2S20213   0.684   5.895   7.287  0.0111 -1.0358 -1.1494
  178SLPC    C320214   1.017   5.665   7.560  0.6927  0.0777 -0.0686
  178SLPC    HX20215   1.046   5.622   7.659 -0.3635  2.4458  1.3491
  178SLPC    HY20216   1.114   5.685   7.510 -0.3814  0.5228 -2.1034
  178SLPC   O3120217   0.957   5.553   7.484  0.5393 -0.3470  0.6421
  178SLPC   C3120218   0.966   5.557   7.354 -0.2537  0.1453 -0.9424
  178SLPC   O3220219   1.027   5.643   7.290  0.5688  0.1710  0.4000
  178SLPC   C3220220   0.890   5.434   7.296  0.3736  0.2228  0.5281
  178SLPC   H2X20221   0.830   5.462   7.207  0.8229 -2.1490 -0.6179
  178SLPC   H2Y20222   0.824   5.400   7.378 -1.3988  0.4583 -0.7532
  178SLPC   C2320223   0.795   6.056   7.208 -0.4642 -0.2001  0.4608
  178SLPC   H3R20224   0.896   6.075   7.166 -0.5449 -0.8285 -0.0546
  178SLPC   H3S20225   0.774   6.121   7.295 -2.3524 -1.3208  0.9212
  178SLPC   C2420226   0.687   6.087   7.101 -0.3962  0.3997 -0.1035
  178SLPC   H4R20227   0.686   6.194   7.071  0.4718  0.1346 -1.1139
  178SLPC   H4S20228   0.589   6.049   7.136  0.0865 -0.0824  0.7461
  178SLPC   C2520229   0.703   6.014   6.969  0.1055  0.8827  0.1132
  178SLPC   H5R20230   0.617   6.034   6.903  0.1128 -1.4702 -0.7165
  178SLPC   H5S20231   0.708   5.904   6.981 -4.0847  0.7162  1.5959
  178SLPC   C2620232   0.835   6.042   6.898 -0.2084  0.3096  0.5516
  178SLPC   H6R20233   0.920   6.032   6.969  0.3169  0.9366  0.0143
  178SLPC   H6S20234   0.844   6.148   6.867  2.2717 -0.6963 -2.7446
  178SLPC   C2720235   0.857   5.950   6.773 -0.1748  0.3848  0.1234
  178SLPC   H7R20236   0.855   5.846   6.811 -1.3115  0.0374 -0.8324
  178SLPC   H7S20237   0.956   5.977   6.729 -1.2364  1.6422 -1.6511
  178SLPC   C2820238   0.761   5.962   6.650  0.1320 -0.1110  0.2528
  178SLPC   H8R20239   0.660   5.949   6.694  0.9915 -0.7915  2.1737
  178SLPC   H8S20240   0.760   5.877   6.578 -1.2632  0.4807 -0.4625
  178SLPC   C2920241   0.770   6.090   6.573  0.0706 -0.3531 -0.5137
  178SLPC   H9R20242   0.762   6.179   6.638 -1.5446 -0.7208 -0.1630
  178SLPC  C21020243   0.778   6.118   6.438  0.2134  0.4488  0.0980
  178SLPC  H10R20244   0.804   6.219   6.402  0.2728 -0.0578 -1.3156
  178SLPC  C21120245   0.786   6.018   6.324 -0.2960  0.4121  0.1102
  178SLPC  H11R20246   0.782   5.914   6.364  2.4343  0.5563  0.9957
  178SLPC  H11S20247   0.887   6.027   6.277  0.4359 -0.8273  1.3669
  178SLPC  C21220248   0.678   6.046   6.220  0.5565 -0.2533 -0.5065
  178SLPC  H12R20249   0.581   6.060   6.270  0.7678  3.4916 -0.9107
  178SLPC  C21320250   0.682   6.051   6.090  0.4230  0.4894 -0.0574
  178SLPC  H13R20251   0.590   6.067   6.031  0.8349 -0.4562 -1.0027
  178SLPC  C21420252   0.801   6.034   5.997 -0.2414 -0.0169 -0.4030
  178SLPC  H14R20253   0.783   5.959   5.918  0.5461 -0.9167  0.2479
  178SLPC  H14S20254   0.892   5.998   6.049 -0.8389  0.1827  0.8423
  178SLPC  C21520255   0.843   6.170   5.930  0.5803  0.1162 -0.3739
  178SLPC  H15R20256   0.931   6.165   5.862  0.9618  1.5786 -0.0300
  178SLPC  H15S20257   0.866   6.236   6.016 -0.9919 -0.7031  0.7142
  178SLPC  C21620258   0.721   6.231   5.856  0.1053  0.5361 -0.0972
  178SLPC  H16R20259   0.746   6.337   5.832 -1.0609  0.9728  0.5713
  178SLPC  H16S20260   0.635   6.233   5.926  0.4265  1.4206  0.2814
  178SLPC  C21720261   0.677   6.154   5.730  0.1867  0.1859  0.3173
  178SLPC  H17R20262   0.584   6.194   5.684 -0.6793 -2.7138 -0.6064
  178SLPC  H17S20263   0.644   6.053   5.760  3.8487 -1.7693 -1.5925
  178SLPC  C21820264   0.776   6.123   5.620  0.5858  0.5942 -0.0850
  178SLPC  H18R20265   0.738   6.053   5.543 -0.8237 -0.1529  1.2576
  178SLPC  H18S20266   0.866   6.082   5.671 -0.5779 -0.6767  1.0112
  178SLPC  H18T20267   0.812   6.217   5.572  0.0749  0.5833 -0.4964
  178SLPC   C3320268   0.989   5.320   7.263 -0.5835  0.4672  0.1000
  178SLPC   H3X20269   0.927   5.232   7.234 -0.3460  0.5107 -0.5634
  178SLPC   H3Y20270   1.050   5.289   7.350 -1.1325  1.8049  0.9968
  178SLPC   C3420271   1.086   5.349   7.149  0.0092  0.1665  0.2926
  178SLPC   H4X20272   1.148   5.257   7.138  0.5057  0.3979  1.0798
  178SLPC   H4Y20273   1.143   5.442   7.173 -0.3868  0.9663 -1.6750
  178SLPC   C3520274   1.025   5.378   7.014 -0.4728 -0.6817  0.5060
  178SLPC   H5X20275   0.954   5.463   7.018  0.6133  0.4648 -2.1015
  178SLPC   H5Y20276   0.958   5.295   6.982  0.2124 -1.4487  1.0213
  178SLPC   C3620277   1.129   5.403   6.904 -0.5368  0.1481  0.0886
  178SLPC   H6X20278   1.194   5.315   6.885 -0.3600  0.4227 -0.6080
  178SLPC   H6Y20279   1.192   5.491   6.928 -0.0548 -0.3020  0.5052
  178SLPC   C3720280   1.061   5.423   6.762  0.1175 -0.5695 -0.7318
  178SLPC   H7X20281   1.022   5.527   6.767  0.1738 -0.5804  0.0458
  178SLPC   H7Y20282   0.967   5.365   6.749 -1.5119  1.5414  0.9363
  178SLPC   C3820283   1.161   5.408   6.651 -1.3092 -0.7407 -0.0361
  178SLPC   H8X20284   1.198   5.304   6.648  0.9570 -0.0040  0.4442
  178SLPC   H8Y20285   1.248   5.474   6.671 -1.8223  0.1674 -0.6787
  178SLPC   C3920286   1.115   5.445   6.512  0.5036 -0.0822  0.0747
  178SLPC   H9X20287   1.088   5.552   6.514 -0.9031 -0.4330  2.0147
  178SLPC   H9Y20288   1.016   5.395   6.507 -1.3076  2.8683  2.7229
  178SLPC  C31020289   1.205   5.398   6.397 -0.1138  0.0799 -0.2570
  178SLPC  H10X20290   1.180   5.290   6.386  1.9886 -0.2655 -2.6359
  178SLPC  H10Y20291   1.309   5.395   6.438 -0.7518  0.1433  1.4465
  178SLPC  C31120292   1.191   5.486   6.272 -0.1191  0.3643  0.2424
  178SLPC  H11X20293   1.274   5.449   6.209 -1.3702 -2.4802  0.1196
  178SLPC  H11Y20294   1.210   5.594   6.289  1.9174  0.5813 -2.6637
  178SLPC  C31220295   1.051   5.482   6.201  0.2988  0.2425  0.0350
  178SLPC  H12X20296   0.965   5.469   6.270  0.4886 -0.3214  0.1755
  178SLPC  H12Y20297   1.049   5.387   6.143  2.6576  0.3967 -0.4011
  178SLPC  C31320298   1.028   5.589   6.099 -0.1207  0.3004 -0.3239
  178SLPC  H13X20299   1.001   5.687   6.144  3.0360 -0.2345  3.2109
  178SLPC  H13Y20300   0.934   5.567   6.043  0.9620  0.0668 -2.1213
  178SLPC  C31420301   1.138   5.588   5.990  0.3548  0.1008 -0.6599
  178SLPC  H14X20302   1.116   5.501   5.924 -0.1408 -0.1748 -0.1413
  178SLPC  H14Y20303   1.241   5.589   6.032 -0.2841  1.6514  0.9808
  178SLPC  C31520304   1.118   5.713   5.899 -0.2152  0.1463 -0.2944
  178SLPC  H15X20305   1.198   5.718   5.822 -0.4685 -1.8756 -0.7313
  178SLPC  H15Y20306   1.132   5.810   5.951  0.3275 -0.0463 -0.0873
  178SLPC  C31620307   0.981   5.720   5.826  0.5639  0.5676 -0.5917
  178SLPC  H16X20308   0.905   5.777   5.884 -0.8693 -0.9448 -0.8768
  178SLPC  H16Y20309   0.932   5.620   5.823  1.4691  0.1246 -0.8259
  178SLPC  C31720310   0.999   5.790   5.686  0.4705 -0.5958  0.1250
  178SLPC  H17X20311   1.084   5.732   5.645  0.4529  0.2633 -1.1828
  178SLPC  H17Y20312   1.019   5.897   5.706  0.0827 -0.8181  1.9692
  178SLPC  C31820313   0.878   5.781   5.592 -0.6095  0.0656  0.5929
  178SLPC  H18X20314   0.891   5.834   5.495 -0.7440  0.3990  0.7531
  178SLPC  H18Y20315   0.795   5.833   5.646 -0.8299 -0.9534  1.2636
  178SLPC  H18Z20316   0.849   5.677   5.567  0.4110  0.4696 -2.6745
  179SLPC     N20317   4.396   1.588   2.761  0.2285  0.3762  0.1810
  179SLPC   C1320318   4.440   1.564   2.621  0.0322  0.3241  0.0743
  179SLPC  H13A20319   4.367   1.597   2.548 -1.2476  2.1419  2.0354
  179SLPC  H13B20320   4.528   1.621   2.598 -1.3438  2.1169 -0.9842
  179SLPC  H13C20321   4.461   1.458   2.612  1.2202  0.4664  0.9224
  179SLPC   C1420322   4.490   1.524   2.856  0.2802  0.1384 -0.2225
  179SLPC  H14A20323   4.491   1.419   2.831  1.8442  0.0130  0.2597
  179SLPC  H14B20324   4.595   1.546   2.843  0.2846 -0.0225 -0.4721
  179SLPC  H14C20325   4.455   1.538   2.957  1.2378  2.0422 -0.1241
  179SLPC   C1520326   4.258   1.516   2.784 -0.2789 -0.4227  0.7584
  179SLPC  H15A20327   4.246   1.418   2.740 -0.8238  0.8923 -2.2116
  179SLPC  H15B20328   4.239   1.521   2.890  1.3290  1.1952  1.0098
  179SLPC  H15C20329   4.181   1.574   2.735  1.4642  0.6863 -0.7815
  179SLPC   C1220330   4.381   1.738   2.791 -0.5010 -0.1759  0.1554
  179SLPC  H12A20331   4.477   1.780   2.765 -0.8367  0.4590 -0.0735
  179SLPC  H12B20332   4.369   1.752   2.897  0.7922 -0.1312  0.3190
  179SLPC   C1120333   4.274   1.820   2.721 -0.3970  0.4509 -0.7595
  179SLPC  H11A20334   4.253   1.779   2.620 -2.6239 -3.0670  0.9240
  179SLPC  H11B20335   4.305   1.926   2.713 -1.8613  1.1877  1.8601
  179SLPC     P20336   4.107   1.902   2.908  0.2183  0.0966 -0.4626
  179SLPC   O1320337   4.074   2.025   2.847  0.5342  0.2082  0.0797
  179SLPC   O1420338   4.006   1.834   2.990 -0.2347 -0.1181 -0.1029
  179SLPC   O1220339   4.157   1.802   2.797 -0.2759  0.1381  0.1269
  179SLPC   O1120340   4.240   1.928   2.999  0.0061 -0.1034 -0.4191
  179SLPC    C120341   4.266   2.052   3.075  0.0763  0.4148  0.2733
  179SLPC    HA20342   4.355   2.108   3.038 -0.5214  1.9911  1.1381
  179SLPC    HB20343   4.181   2.124   3.068 -0.8812 -0.3516  2.7806
  179SLPC    C220344   4.295   2.021   3.224  0.2219 -0.5713  0.4610
  179SLPC    HS20345   4.307   2.117   3.279  0.1092 -1.8741  2.8990
  179SLPC   O2120346   4.408   1.925   3.229 -0.2416 -0.4545  0.6123
  179SLPC   C2120347   4.486   1.930   3.333  0.2616 -0.4904 -0.2886
  179SLPC   O2220348   4.477   2.011   3.426 -0.3097  0.7809 -0.1403
  179SLPC   C2220349   4.592   1.825   3.322 -1.0232  0.6381 -0.1401
  179SLPC   H2R20350   4.547   1.730   3.286 -0.2122  0.9725 -2.1583
  179SLPC   H2S20351   4.667   1.851   3.244 -1.9019  0.6993 -0.9843
  179SLPC    C320352   4.175   1.952   3.285 -0.1374 -0.9040  0.9358
  179SLPC    HX20353   4.163   1.849   3.245 -1.2259 -0.3217 -0.2974
  179SLPC    HY20354   4.087   2.010   3.249  0.8744  2.1146  2.8709
  179SLPC   O3120355   4.165   1.960   3.427 -0.5321 -0.1981 -0.3674
  179SLPC   C3120356   4.193   1.848   3.493 -0.0222  0.1602 -0.5128
  179SLPC   O3220357   4.231   1.743   3.450  0.0979  0.5241 -0.0019
  179SLPC   C3220358   4.200   1.885   3.643 -0.1884  0.4394  0.6690
  179SLPC   H2X20359   4.103   1.937   3.662 -0.0931  0.2474  1.7322
  179SLPC   H2Y20360   4.275   1.967   3.648  0.0620  0.2317  0.3605
  179SLPC   C2320361   4.674   1.808   3.446  0.0004  0.2048 -0.3366
  179SLPC   H3R20362   4.597   1.801   3.526  0.1918 -0.7669 -0.2201
  179SLPC   H3S20363   4.744   1.891   3.465  0.0272  0.6915 -2.3117
  179SLPC   C2420364   4.755   1.678   3.459 -0.3644  0.2330 -0.6019
  179SLPC   H4R20365   4.844   1.687   3.393 -0.0785  0.8955 -0.1322
  179SLPC   H4S20366   4.696   1.593   3.419  0.5562  0.0036 -1.5253
  179SLPC   C2520367   4.798   1.663   3.608 -0.3849  0.8890 -0.9998
  179SLPC   H5R20368   4.818   1.555   3.625 -3.2775  0.1678 -1.7130
  179SLPC   H5S20369   4.719   1.693   3.680  0.5734  0.7728  0.1370
  179SLPC   C2620370   4.919   1.736   3.635 -1.0942 -0.6712 -0.1413
  179SLPC   H6R20371   4.910   1.846   3.632  1.1140 -0.4449  0.1397
  179SLPC   H6S20372   4.982   1.723   3.544  0.6212 -0.1032  0.9334
  179SLPC   C2720373   4.998   1.697   3.764 -0.3532 -0.4490 -0.1445
  179SLPC   H7R20374   5.019   1.588   3.764  0.3126 -0.3353 -1.0165
  179SLPC   H7S20375   4.951   1.720   3.862  0.7348  0.7903  0.1140
  179SLPC   C2820376   5.127   1.784   3.771 -0.2987 -0.1888 -0.1670
  179SLPC   H8R20377   5.192   1.766   3.682  0.0842  0.0720  0.0572
  179SLPC   H8S20378   5.180   1.751   3.863 -3.3419 -1.2944  1.2998
  179SLPC   C2920379   5.094   1.926   3.787  0.2647 -0.5043  0.5226
  179SLPC   H9R20380   5.057   1.978   3.698 -0.6944  1.6176  2.0878
  179SLPC  C21020381   5.085   1.999   3.903 -0.1767 -0.0550  0.2058
  179SLPC  H10R20382   5.055   2.105   3.893 -2.9242 -0.7731  0.0606
  179SLPC  C21120383   5.120   1.958   4.047 -0.0815  0.4988  0.8731
  179SLPC  H11R20384   5.173   1.860   4.046 -3.3660 -1.5516  3.8902
  179SLPC  H11S20385   5.032   1.935   4.110  0.1296  0.0057  0.9980
  179SLPC  C21220386   5.215   2.050   4.100 -0.8481 -0.2110 -0.0238
  179SLPC  H12R20387   5.311   2.068   4.050 -2.0249  1.1411 -1.9142
  179SLPC  C21320388   5.209   2.115   4.220  0.5579 -0.1113  0.6655
  179SLPC  H13R20389   5.291   2.184   4.245 -1.1367  2.5459 -0.6052
  179SLPC  C21420390   5.097   2.103   4.313 -0.3914  0.3801 -0.6983
  179SLPC  H14R20391   5.030   2.016   4.297 -1.1344  0.6210  0.9128
  179SLPC  H14S20392   5.035   2.196   4.303 -1.6879 -0.4183 -0.4008
  179SLPC  C21520393   5.151   2.109   4.455 -0.2872  0.0500  0.2746
  179SLPC  H15R20394   5.190   2.211   4.474  0.9988 -0.1311 -1.2292
  179SLPC  H15S20395   5.234   2.039   4.480  0.1340  0.9462  1.4522
  179SLPC  C21620396   5.040   2.068   4.555 -0.1462  0.3649  0.6091
  179SLPC  H16R20397   4.998   1.967   4.535  0.0308  0.6912 -1.6228
  179SLPC  H16S20398   4.966   2.147   4.532 -1.7417 -1.3762 -0.5333
  179SLPC  C21720399   5.079   2.076   4.705 -0.7314  0.0883  0.0146
  179SLPC  H17R20400   5.161   2.147   4.730  0.1767 -1.1725  0.7635
  179SLPC  H17S20401   5.121   1.975   4.723  0.5773  0.2170 -2.0760
  179SLPC  C21820402   4.951   2.102   4.788  0.0410 -0.0360 -0.3235
  179SLPC  H18R20403   4.884   2.017   4.813 -1.5336  1.3563  0.3355
  179SLPC  H18S20404   4.876   2.172   4.745 -1.5569 -0.3675  1.7667
  179SLPC  H18T20405   4.978   2.143   4.887 -1.3542  0.9213 -0.3069
  179SLPC   C3320406   4.220   1.764   3.738 -0.2013  0.4626 -0.8746
  179SLPC   H3X20407   4.312   1.711   3.704  0.3098  1.5418 -1.2434
  179SLPC   H3Y20408   4.132   1.696   3.737 -0.3233  0.5271  1.1082
  179SLPC   C3420409   4.242   1.790   3.885 -0.2485  0.5230  0.0780
  179SLPC   H4X20410   4.342   1.836   3.895 -0.1762 -0.0381  2.3219
  179SLPC   H4Y20411   4.253   1.693   3.938 -2.1534  1.2848  1.9904
  179SLPC   C3520412   4.136   1.877   3.960 -0.1427 -0.2697  0.3771
  179SLPC   H5X20413   4.188   1.927   4.045 -2.8389 -0.8824  2.5555
  179SLPC   H5Y20414   4.102   1.964   3.900 -0.6695 -0.8541 -0.1825
  179SLPC   C3620415   4.024   1.791   4.019 -0.1530 -0.3764  0.2651
  179SLPC   H6X20416   4.079   1.716   4.081  0.9300 -1.0696 -1.4417
  179SLPC   H6Y20417   3.976   1.742   3.931  1.9426 -1.6498 -0.2397
  179SLPC   C3720418   3.925   1.865   4.105  0.1859  0.6846  0.4351
  179SLPC   H7X20419   3.877   1.953   4.057 -0.6820  0.1436  0.2894
  179SLPC   H7Y20420   3.981   1.902   4.193  1.5047 -1.1765  0.4389
  179SLPC   C3820421   3.818   1.772   4.161  1.0715 -0.1865  0.0356
  179SLPC   H8X20422   3.867   1.688   4.214 -1.5175 -1.3716  0.7070
  179SLPC   H8Y20423   3.759   1.736   4.075  0.2671 -1.7698  1.1966
  179SLPC   C3920424   3.728   1.847   4.258  0.3635 -0.1899  0.5527
  179SLPC   H9X20425   3.664   1.916   4.199  0.2616 -1.5953 -1.0853
  179SLPC   H9Y20426   3.808   1.898   4.315  4.1806 -0.5638 -3.8186
  179SLPC  C31020427   3.642   1.768   4.356  1.0218 -0.2636 -1.8649
  179SLPC  H10X20428   3.701   1.681   4.392 -0.9097 -1.4889 -1.5065
  179SLPC  H10Y20429   3.552   1.723   4.308  0.0358  0.1536 -0.4436
  179SLPC  C31120430   3.608   1.865   4.475 -0.3533  0.4328 -0.4946
  179SLPC  H11X20431   3.704   1.891   4.526  0.3940  0.4365 -1.8466
  179SLPC  H11Y20432   3.551   1.806   4.550 -0.6956  1.4244  0.0329
  179SLPC  C31220433   3.536   1.989   4.439  0.3684 -0.3443  0.0512
  179SLPC  H12X20434   3.443   1.962   4.386 -0.0048  0.4227  0.2949
  179SLPC  H12Y20435   3.599   2.054   4.374 -0.2620  1.1535  0.8729
  179SLPC  C31320436   3.512   2.090   4.559 -0.2582  0.3325 -0.0665
  179SLPC  H13X20437   3.604   2.121   4.612 -0.5960 -0.4345  1.0161
  179SLPC  H13Y20438   3.470   2.027   4.640 -1.7024 -0.9216 -1.6997
  179SLPC  C31420439   3.412   2.191   4.521  0.3968  0.1757 -0.9646
  179SLPC  H14X20440   3.326   2.136   4.477 -1.2793  0.7946  1.3177
  179SLPC  H14Y20441   3.447   2.259   4.441 -0.5044 -0.6781 -2.1182
  179SLPC  C31520442   3.376   2.266   4.651 -0.2240  0.2296 -0.3000
  179SLPC  H15X20443   3.465   2.322   4.686 -0.6106  0.4767  0.3015
  179SLPC  H15Y20444   3.337   2.194   4.726 -2.8090 -0.6011 -2.3005
  179SLPC  C31620445   3.257   2.367   4.624 -0.0453 -0.5252  0.1688
  179SLPC  H16X20446   3.156   2.321   4.613  0.2988 -1.2344 -0.1326
  179SLPC  H16Y20447   3.290   2.417   4.530 -3.3654 -0.5525 -1.1655
  179SLPC  C31720448   3.241   2.474   4.733  1.5176 -0.1765 -0.0366
  179SLPC  H17X20449   3.308   2.558   4.704  0.8410 -0.2019 -1.7924
  179SLPC  H17Y20450   3.273   2.427   4.829 -0.8528 -0.7139  0.5451
  179SLPC  C31820451   3.092   2.520   4.744 -0.3135  0.1647 -0.6276
  179SLPC  H18X20452   3.036   2.430   4.778  2.5910 -2.0679 -1.3687
  179SLPC  H18Y20453   3.048   2.553   4.647  0.6833  0.8796 -0.8530
  179SLPC  H18Z20454   3.083   2.585   4.833  0.0801 -0.3664 -0.1981
  180SLPC     N20455   2.713   0.836   3.000 -0.0129 -0.0440 -0.1921
  180SLPC   C1320456   2.794   0.819   2.875 -0.3202 -0.4730  0.1911
  180SLPC  H13A20457   2.844   0.912   2.851  0.4701 -0.2548  2.5200
  180SLPC  H13B20458   2.872   0.749   2.897  0.2452  0.1685  0.2517
  180SLPC  H13C20459   2.735   0.793   2.788  0.8072  2.2975 -1.5358
  180SLPC   C1420460   2.610   0.946   2.995  0.2416  0.1416  0.4388
  180SLPC  H14A20461   2.551   0.956   2.905  1.4442  0.5334 -0.3328
  180SLPC  H14B20462   2.542   0.940   3.078 -2.7947  0.6660 -1.8345
  180SLPC  H14C20463   2.649   1.046   3.009 -0.0036  0.1274  1.2889
  180SLPC   C1520464   2.806   0.875   3.106  0.0307  0.6195  0.0587
  180SLPC  H15A20465   2.889   0.807   3.121  0.1432  1.1971  2.4425
  180SLPC  H15B20466   2.842   0.974   3.084 -0.8457  1.3333  1.6580
  180SLPC  H15C20467   2.774   0.883   3.209 -0.2501  2.7065 -0.1506
  180SLPC   C1220468   2.633   0.715   3.034  0.1772  0.7060  0.3134
  180SLPC  H12A20469   2.577   0.739   3.124  0.2541 -2.1849  1.2399
  180SLPC  H12B20470   2.702   0.635   3.057 -2.2207 -1.3042  0.9188
  180SLPC   C1120471   2.530   0.664   2.921 -0.3370 -0.2369 -0.0232
  180SLPC  H11A20472   2.465   0.750   2.892 -2.0982 -1.6609 -0.4899
  180SLPC  H11B20473   2.474   0.582   2.969  1.8882  0.2457  3.7572
  180SLPC     P20474   2.650   0.470   2.780 -0.1986  0.1153  0.1108
  180SLPC   O1320475   2.530   0.391   2.741  0.1566  0.3831 -0.1131
  180SLPC   O1420476   2.762   0.478   2.682 -0.0178  0.5076  0.0055
  180SLPC   O1220477   2.604   0.617   2.803 -0.2305  0.1039 -0.0605
  180SLPC   O1120478   2.702   0.441   2.915  0.3897 -0.3190 -0.3098
  180SLPC    C120479   2.633   0.366   3.019  0.4612  0.5523 -0.3300
  180SLPC    HA20480   2.523   0.375   3.022  0.4252  1.6763 -2.7655
  180SLPC    HB20481   2.646   0.259   2.990 -0.4486  0.5559 -0.7981
  180SLPC    C220482   2.693   0.372   3.160  0.6541  0.1428  0.0684
  180SLPC    HS20483   2.650   0.292   3.224  1.5331 -1.8469 -1.6998
  180SLPC   O2120484   2.680   0.508   3.208 -0.1780 -0.5262 -0.3493
  180SLPC   C2120485   2.662   0.514   3.339 -0.3730  0.1549 -0.0433
  180SLPC   O2220486   2.649   0.418   3.409 -0.0173  0.6565 -0.2300
  180SLPC   C2220487   2.687   0.657   3.389 -0.3782 -0.0447  0.1801
  180SLPC   H2R20488   2.796   0.667   3.407 -0.8125  1.6099  2.5261
  180SLPC   H2S20489   2.660   0.728   3.308  0.7960 -0.9560 -1.0477
  180SLPC    C320490   2.846   0.338   3.159 -0.3282 -0.0533 -0.7082
  180SLPC    HX20491   2.891   0.414   3.091 -1.5669  1.0287 -0.3687
  180SLPC    HY20492   2.847   0.236   3.117  3.8083 -0.0362 -1.0998
  180SLPC   O3120493   2.900   0.332   3.296 -0.3352  0.2697 -0.4004
  180SLPC   C3120494   3.002   0.402   3.319 -0.4661  0.2724  0.3353
  180SLPC   O3220495   3.058   0.481   3.250 -0.4838 -0.1720  0.2865
  180SLPC   C3220496   3.053   0.366   3.457  0.0209  0.6270  0.6444
  180SLPC   H2X20497   3.112   0.273   3.445  1.0234  1.4479 -1.2789
  180SLPC   H2Y20498   2.963   0.356   3.521 -0.4398  0.0801 -0.0673
  180SLPC   C2320499   2.622   0.694   3.525 -0.0912  0.2724 -0.3391
  180SLPC   H3R20500   2.516   0.662   3.529  0.1427 -0.4009  1.2782
  180SLPC   H3S20501   2.624   0.805   3.525  1.8447  0.2783  0.1785
  180SLPC   C2420502   2.706   0.644   3.647  0.7315  0.5155 -0.2068
  180SLPC   H4R20503   2.806   0.692   3.643  0.7966  0.3338 -2.7076
  180SLPC   H4S20504   2.722   0.537   3.622 -0.0360  0.7178 -1.7428
  180SLPC   C2520505   2.634   0.650   3.784  0.5110 -0.1305 -1.0706
  180SLPC   H5R20506   2.542   0.589   3.779 -0.6566  1.3495  0.8778
  180SLPC   H5S20507   2.613   0.756   3.807 -2.7423 -0.3228 -2.6405
  180SLPC   C2620508   2.717   0.588   3.898 -0.1165 -0.2742  0.4653
  180SLPC   H6R20509   2.821   0.628   3.899  0.3581 -1.3227 -1.5879
  180SLPC   H6S20510   2.716   0.477   3.887 -0.4004 -0.4995  2.3499
  180SLPC   C2720511   2.640   0.612   4.026  0.1862  0.0785 -0.4141
  180SLPC   H7R20512   2.537   0.572   4.019 -0.0010  0.3810  0.4186
  180SLPC   H7S20513   2.627   0.720   4.047  1.7785 -0.2612  3.3031
  180SLPC   C2820514   2.700   0.544   4.151  0.2485  0.5126  0.0964
  180SLPC   H8R20515   2.801   0.588   4.163  0.0696  0.6812  1.0821
  180SLPC   H8S20516   2.708   0.437   4.122  0.6218  0.2525  1.1180
  180SLPC   C2920517   2.610   0.551   4.274 -0.1387  0.0694 -1.2955
  180SLPC   H9R20518   2.512   0.500   4.277 -0.6453  1.0505  1.2180
  180SLPC  C21020519   2.658   0.589   4.396  0.8871  0.5904  0.6445
  180SLPC  H10R20520   2.582   0.586   4.476 -2.0392 -3.1807 -1.8989
  180SLPC  C21120521   2.785   0.653   4.446  0.6905 -0.2469  0.0537
  180SLPC  H11R20522   2.751   0.742   4.503 -0.2666 -0.4119 -0.2422
  180SLPC  H11S20523   2.833   0.695   4.355 -0.7804  1.0554 -0.1659
  180SLPC  C21220524   2.873   0.565   4.533  0.1118 -0.1191  0.9676
  180SLPC  H12R20525   2.848   0.458   4.526 -1.5624  0.2868  0.4846
  180SLPC  C21320526   2.982   0.598   4.599 -0.5475  0.9392  0.6998
  180SLPC  H13R20527   3.041   0.511   4.631 -0.7903 -0.0357 -1.3537
  180SLPC  C21420528   3.047   0.730   4.619  0.0023 -0.4828 -0.2697
  180SLPC  H14R20529   2.974   0.814   4.624  1.2539  0.6963 -1.1379
  180SLPC  H14S20530   3.084   0.774   4.524 -2.8579  2.5900 -0.1730
  180SLPC  C21520531   3.153   0.732   4.726 -0.5295  0.0820 -0.0102
  180SLPC  H15R20532   3.224   0.816   4.712  3.5579 -2.5859  2.5531
  180SLPC  H15S20533   3.231   0.652   4.723  1.1657  1.5597  1.6999
  180SLPC  C21620534   3.088   0.738   4.869  1.3619 -0.0130 -0.2856
  180SLPC  H16R20535   3.021   0.651   4.884  0.5170  0.9811  2.1877
  180SLPC  H16S20536   3.027   0.830   4.873  1.2187 -0.1491  1.5499
  180SLPC  C21720537   3.185   0.746   4.988  0.2034 -0.5465  0.6606
  180SLPC  H17R20538   3.249   0.830   4.952 -0.0699 -0.5112  0.2530
  180SLPC  H17S20539   3.249   0.656   4.992  0.3978 -0.3691  2.4621
  180SLPC  C21820540   3.136   0.789   5.124 -0.0637  0.2882 -0.3753
  180SLPC  H18R20541   3.222   0.824   5.185 -0.8206  1.6102 -0.0216
  180SLPC  H18S20542   3.092   0.702   5.177  0.8560 -0.3727 -0.6793
  180SLPC  H18T20543   3.059   0.869   5.123  1.4384  1.7850 -0.3390
  180SLPC   C3320544   3.157   0.459   3.529  0.0436  0.5380  0.4019
  180SLPC   H3X20545   3.099   0.552   3.553 -1.3678 -0.1345 -0.2678
  180SLPC   H3Y20546   3.239   0.494   3.463 -0.8659  4.1356  0.9591
  180SLPC   C3420547   3.205   0.392   3.666  0.4848 -0.6478  0.0584
  180SLPC   H4X20548   3.293   0.448   3.707  0.1726  0.3653 -0.6245
  180SLPC   H4Y20549   3.254   0.293   3.652 -0.5485 -1.3384  1.1610
  180SLPC   C3520550   3.096   0.379   3.771 -0.0342 -0.5010  0.4584
  180SLPC   H5X20551   3.032   0.294   3.738 -1.8617  1.7030 -2.1871
  180SLPC   H5Y20552   3.038   0.474   3.773  3.0175  1.5638 -1.1013
  180SLPC   C3620553   3.145   0.353   3.916  0.3952 -0.6009 -0.1326
  180SLPC   H6X20554   3.227   0.428   3.924  0.2024 -0.0728 -2.3894
  180SLPC   H6Y20555   3.196   0.255   3.925 -1.7328 -1.7752 -0.4000
  180SLPC   C3720556   3.038   0.385   4.030 -0.1038  0.2115  0.5981
  180SLPC   H7X20557   2.952   0.316   4.028  1.0858 -1.3168 -1.4919
  180SLPC   H7Y20558   2.998   0.486   4.007  1.3526  0.5644 -0.5807
  180SLPC   C3820559   3.103   0.392   4.169 -0.3667  0.0888 -0.2354
  180SLPC   H8X20560   3.030   0.446   4.232 -0.1407  0.1489 -0.0275
  180SLPC   H8Y20561   3.193   0.456   4.163 -0.6241  0.3542 -4.9817
  180SLPC   C3920562   3.137   0.261   4.243  0.0148  0.5841  0.3691
  180SLPC   H9X20563   3.211   0.213   4.175 -1.7293  0.1349 -1.3242
  180SLPC   H9Y20564   3.044   0.200   4.241  1.1957 -1.2856  0.3719
  180SLPC  C31020565   3.180   0.271   4.391 -0.3436  0.0334  0.6259
  180SLPC  H10X20566   3.108   0.319   4.462  2.1345  0.1201  3.2610
  180SLPC  H10Y20567   3.269   0.337   4.402 -1.1446  1.6705 -1.9856
  180SLPC  C31120568   3.212   0.125   4.424  0.0990 -0.4006 -0.8733
  180SLPC  H11X20569   3.304   0.090   4.373  1.2404  1.5038 -0.2282
  180SLPC  H11Y20570   3.119   0.068   4.403 -2.1891  2.0740  1.7340
  180SLPC  C31220571   3.222   0.116   4.577 -0.2002  0.4673 -0.3774
  180SLPC  H12X20572   3.143   0.179   4.623 -1.6465 -1.6941  0.2390
  180SLPC  H12Y20573   3.328   0.139   4.601  0.1404 -0.5689 -0.8549
  180SLPC  C31320574   3.188  -0.025   4.625  0.2451 -0.0628  0.4650
  180SLPC  H13X20575   3.261  -0.102   4.593 -1.3453 -1.3227 -0.2770
  180SLPC  H13Y20576   3.084  -0.049   4.594 -0.6528 -0.0572  3.1733
  180SLPC  C31420577   3.191  -0.037   4.774  0.0231  1.3250 -0.2017
  180SLPC  H14X20578   3.272   0.026   4.817  0.8279 -0.6384  1.3379
  180SLPC  H14Y20579   3.222  -0.143   4.784  1.4298  1.5132 -2.1498
  180SLPC  C31520580   3.060  -0.017   4.850 -0.4374  0.1796 -0.3768
  180SLPC  H15X20581   3.069  -0.072   4.946 -1.4319  0.7627  0.0741
  180SLPC  H15Y20582   2.988  -0.083   4.797  0.3166 -2.1151  1.3155
  180SLPC  C31620583   3.020   0.125   4.872  0.6528 -0.4104  0.2888
  180SLPC  H16X20584   2.934   0.122   4.943  0.4460 -0.1337  0.0538
  180SLPC  H16Y20585   2.983   0.167   4.776  1.2754  2.6232  1.2444
  180SLPC  C31720586   3.122   0.222   4.925  0.2038  0.0502 -0.6675
  180SLPC  H17X20587   3.205   0.229   4.851 -2.1868  3.4417 -3.3593
  180SLPC  H17Y20588   3.165   0.183   5.020  1.1891  1.3925 -0.5288
  180SLPC  C31820589   3.067   0.363   4.950  0.2289  0.6790  0.3148
  180SLPC  H18X20590   2.981   0.365   5.019  0.1161  0.9017  0.1702
  180SLPC  H18Y20591   3.030   0.411   4.857  0.5037  0.7661  0.2470
  180SLPC  H18Z20592   3.150   0.426   4.988  0.6391 -0.8259  2.0552
  181SLPC     N20593   0.948   0.409   2.871  0.5753  0.7578  0.3764
  181SLPC   C1320594   0.844   0.498   2.931  0.3786 -0.3118  0.1911
  181SLPC  H13A20595   0.783   0.533   2.849  0.5885  2.4517  1.1177
  181SLPC  H13B20596   0.779   0.438   2.994  0.8472 -0.9695  0.0621
  181SLPC  H13C20597   0.885   0.584   2.981 -0.4966  0.0800  0.2498
  181SLPC   C1420598   1.049   0.482   2.792 -0.4029 -0.1596  0.3167
  181SLPC  H14A20599   1.110   0.415   2.733 -0.7867 -0.7177  0.5550
  181SLPC  H14B20600   1.009   0.557   2.725  2.3837  0.4602 -0.8007
  181SLPC  H14C20601   1.111   0.540   2.860  1.1144 -0.3271 -0.8553
  181SLPC   C1520602   0.870   0.310   2.783 -0.2576 -0.0025 -0.1898
  181SLPC  H15A20603   0.788   0.260   2.832  0.0301  0.4537  0.7777
  181SLPC  H15B20604   0.825   0.364   2.701 -1.8128 -1.7308 -0.5525
  181SLPC  H15C20605   0.939   0.240   2.739 -0.1656 -2.1380  3.0300
  181SLPC   C1220606   1.026   0.340   2.985  0.0082  0.1508 -0.0698
  181SLPC  H12A20607   1.116   0.298   2.942  1.7417  0.2948  3.1095
  181SLPC  H12B20608   0.964   0.261   3.026 -0.7670  1.4853  1.4257
  181SLPC   C1120609   1.074   0.427   3.101  0.0778  0.2376  0.0479
  181SLPC  H11A20610   1.103   0.347   3.172  2.2888  2.4135  1.7581
  181SLPC  H11B20611   1.001   0.496   3.149  0.7031  0.7548  0.2658
  181SLPC     P20612   1.316   0.485   3.150  0.0557 -0.1135  0.1592
  181SLPC   O1320613   1.362   0.348   3.194 -0.2227  0.2584  0.6070
  181SLPC   O1420614   1.421   0.565   3.085 -0.6638 -0.2199  0.2838
  181SLPC   O1220615   1.190   0.489   3.052  0.4182 -0.7559  0.2883
  181SLPC   O1120616   1.273   0.567   3.279 -0.0566 -0.3406 -0.1846
  181SLPC    C120617   1.216   0.702   3.270  0.9400  0.3759  0.2829
  181SLPC    HA20618   1.175   0.733   3.172 -0.1145 -0.3419  0.4733
  181SLPC    HB20619   1.133   0.703   3.344 -0.0978 -2.3600 -0.7088
  181SLPC    C220620   1.321   0.804   3.313  0.7229 -1.0857  0.8478
  181SLPC    HS20621   1.414   0.775   3.259  2.1264  0.6370  2.2186
  181SLPC   O2120622   1.344   0.795   3.454 -0.6083 -0.0885  0.2181
  181SLPC   C2120623   1.460   0.849   3.494  0.2585 -0.0675  0.7468
  181SLPC   O2220624   1.533   0.919   3.425  0.2300 -0.0062 -0.3929
  181SLPC   C2220625   1.479   0.806   3.629  0.6210 -0.8838 -0.9981
  181SLPC   H2R20626   1.444   0.702   3.651 -0.3940 -0.4233 -0.3671
  181SLPC   H2S20627   1.588   0.814   3.649  0.4607 -1.6598  0.3627
  181SLPC    C320628   1.290   0.942   3.252 -0.4391 -0.4367 -0.3891
  181SLPC    HX20629   1.291   0.926   3.142  1.9038 -0.6944 -0.3868
  181SLPC    HY20630   1.383   1.002   3.265  0.2532 -1.4070 -0.7517
  181SLPC   O3120631   1.189   1.016   3.327  0.6862 -0.2200  0.3622
  181SLPC   C3120632   1.061   0.987   3.319  0.1595 -0.3850 -0.6706
  181SLPC   O3220633   1.006   0.905   3.248 -0.2238  0.1390  0.2764
  181SLPC   C3220634   0.987   1.054   3.438 -0.9339  0.0713 -0.6999
  181SLPC   H2X20635   0.886   1.088   3.408  0.0704  3.2930 -0.7438
  181SLPC   H2Y20636   1.033   1.151   3.468 -0.1683 -0.4446 -0.1456
  181SLPC   C2320637   1.414   0.902   3.738 -0.5455  0.8785 -0.1128
  181SLPC   H3R20638   1.307   0.916   3.711 -1.1584  2.5620  2.8622
  181SLPC   H3S20639   1.463   1.001   3.742  0.8333  0.2763 -1.0517
  181SLPC   C2420640   1.387   0.840   3.867  0.2220  0.1653 -0.5017
  181SLPC   H4R20641   1.359   0.733   3.864 -2.5211  0.7723  0.5174
  181SLPC   H4S20642   1.295   0.888   3.905 -0.3427 -1.6113  0.4947
  181SLPC   C2520643   1.508   0.857   3.966  0.2771  0.1355  0.1452
  181SLPC   H5R20644   1.515   0.967   3.977 -1.4349  0.3546 -0.6831
  181SLPC   H5S20645   1.603   0.832   3.915 -0.3482  1.1581 -1.5915
  181SLPC   C2620646   1.495   0.795   4.105 -0.4247  0.1193 -0.5264
  181SLPC   H6R20647   1.593   0.800   4.156  0.3505 -1.0181 -1.8549
  181SLPC   H6S20648   1.469   0.688   4.113  0.0420  0.0858  0.6417
  181SLPC   C2720649   1.396   0.887   4.192 -0.8078  0.6058  0.7002
  181SLPC   H7R20650   1.300   0.886   4.135 -0.2003 -3.6522 -0.5861
  181SLPC   H7S20651   1.435   0.991   4.179 -2.1570  0.8797 -1.9700
  181SLPC   C2820652   1.366   0.847   4.338  0.1519  0.2328 -0.0002
  181SLPC   H8R20653   1.331   0.741   4.333  1.1936 -0.1356  0.1363
  181SLPC   H8S20654   1.280   0.911   4.366 -0.0630  0.0829 -0.3193
  181SLPC   C2920655   1.490   0.857   4.424  0.3638  0.4200  0.9349
  181SLPC   H9R20656   1.574   0.789   4.402  1.2089  1.0486  2.1720
  181SLPC  C21020657   1.509   0.926   4.536 -1.0160  0.7129  0.4192
  181SLPC  H10R20658   1.611   0.926   4.579 -1.1171  0.4086  0.6574
  181SLPC  C21120659   1.421   1.033   4.586  0.2516  0.5071 -0.3610
  181SLPC  H11R20660   1.367   0.999   4.677  0.4972 -1.3971 -0.8816
  181SLPC  H11S20661   1.338   1.053   4.515 -0.4448 -0.5254  0.1401
  181SLPC  C21220662   1.492   1.165   4.609 -0.9075 -0.3559 -0.0974
  181SLPC  H12R20663   1.520   1.208   4.511  1.0554 -2.4555 -0.5442
  181SLPC  C21320664   1.532   1.222   4.726 -0.5393  0.2750  0.5068
  181SLPC  H13R20665   1.591   1.315   4.721  1.9774 -1.2325  0.5014
  181SLPC  C21420666   1.517   1.146   4.858  0.3571 -0.2548 -0.4935
  181SLPC  H14R20667   1.421   1.092   4.846 -0.6279  1.5926 -1.5505
  181SLPC  H14S20668   1.507   1.230   4.931  2.5379  0.5991 -1.0743
  181SLPC  C21520669   1.626   1.043   4.896 -0.3521 -0.3619 -0.7682
  181SLPC  H15R20670   1.726   1.091   4.905  0.4392 -1.3038 -3.5392
  181SLPC  H15S20671   1.646   0.961   4.824 -1.1078 -0.3744 -0.9683
  181SLPC  C21620672   1.592   0.969   5.032  0.2509  0.4561  0.0703
  181SLPC  H16R20673   1.566   1.048   5.106  0.6817 -0.9041  1.7191
  181SLPC  H16S20674   1.679   0.914   5.073 -0.4204 -1.3429 -0.8268
  181SLPC  C21720675   1.483   0.862   5.019 -0.6301 -0.1159 -0.3734
  181SLPC  H17R20676   1.386   0.911   4.998 -1.0697 -0.1439  1.4338
  181SLPC  H17S20677   1.489   0.817   5.120 -0.8026  0.5350 -0.0727
  181SLPC  C21820678   1.508   0.749   4.921 -0.3816 -0.0273  0.7844
  181SLPC  H18R20679   1.502   0.774   4.813 -2.9872 -1.5472  0.4905
  181SLPC  H18S20680   1.423   0.678   4.930 -0.7116 -0.0483 -1.8304
  181SLPC  H18T20681   1.611   0.710   4.935 -0.1935 -0.6814 -1.9286
  181SLPC   C3320682   0.986   0.968   3.565 -0.6885 -0.5454  0.6781
  181SLPC   H3X20683   1.078   0.908   3.579 -1.4325 -1.5651  1.4281
  181SLPC   H3Y20684   0.902   0.895   3.561 -1.3491  0.0367  2.9322
  181SLPC   C3420685   0.971   1.055   3.691  0.2519  0.6835 -0.3264
  181SLPC   H4X20686   0.875   1.111   3.682  0.9991  1.7377 -2.3142
  181SLPC   H4Y20687   1.056   1.127   3.694 -0.1700  1.2332 -1.3151
  181SLPC   C3520688   0.977   0.966   3.818 -0.0138  0.1192 -0.0601
  181SLPC   H5X20689   1.074   0.913   3.808  0.1101  0.5568 -1.3299
  181SLPC   H5Y20690   0.894   0.892   3.816  0.3410 -0.2802 -0.2730
  181SLPC   C3620691   0.975   1.035   3.955  0.0593 -0.1302  0.5867
  181SLPC   H6X20692   0.895   1.112   3.950 -0.6764 -0.9339 -0.8153
  181SLPC   H6Y20693   1.070   1.080   3.989 -0.6302  0.3829  1.8833
  181SLPC   C3720694   0.932   0.941   4.072  0.1116 -0.3630  0.2443
  181SLPC   H7X20695   1.009   0.862   4.059  0.4585  0.0901 -0.5564
  181SLPC   H7Y20696   0.825   0.915   4.059  0.3188 -1.0333 -0.1974
  181SLPC   C3820697   0.952   1.005   4.207  0.4985 -0.4370 -0.1451
  181SLPC   H8X20698   0.871   1.080   4.220  4.1971  4.3654 -1.4949
  181SLPC   H8Y20699   1.042   1.071   4.199  0.4928 -0.1268  1.7418
  181SLPC   C3920700   0.965   0.907   4.330  0.3125 -0.1382 -0.4264
  181SLPC   H9X20701   1.054   0.845   4.310 -0.8573 -2.0399 -0.0201
  181SLPC   H9Y20702   0.884   0.831   4.335  1.0220 -0.8526  1.4339
  181SLPC  C31020703   0.986   0.982   4.462 -0.2917  0.4745  0.9723
  181SLPC  H10X20704   0.879   1.004   4.481 -0.5626 -0.5029  0.6805
  181SLPC  H10Y20705   1.052   1.070   4.452  1.4649 -1.0322 -2.6903
  181SLPC  C31120706   1.043   0.887   4.566 -0.6242 -0.2300 -0.5335
  181SLPC  H11X20707   1.138   0.842   4.531  1.0235 -0.0997  3.2559
  181SLPC  H11Y20708   0.967   0.810   4.590  1.1409 -1.5501  1.0847
  181SLPC  C31220709   1.067   0.954   4.706  0.2633 -0.1207 -0.1611
  181SLPC  H12X20710   0.967   0.994   4.732 -0.6905 -0.8611 -2.4430
  181SLPC  H12Y20711   1.132   1.042   4.689 -0.4802  0.3494 -0.6029
  181SLPC  C31320712   1.129   0.869   4.818  0.3810  0.3735 -0.6503
  181SLPC  H13X20713   1.193   0.924   4.891  0.3134 -0.0544 -0.2672
  181SLPC  H13Y20714   1.197   0.797   4.767  2.0450  1.5139 -0.1355
  181SLPC  C31420715   1.016   0.780   4.889 -0.5307  0.0566  0.0699
  181SLPC  H14X20716   1.055   0.685   4.933  4.3717  1.7542 -0.0589
  181SLPC  H14Y20717   0.943   0.760   4.807 -1.5186 -0.7205  1.1049
  181SLPC  C31520718   0.935   0.865   4.991 -0.4423 -0.2555  0.6473
  181SLPC  H15X20719   0.896   0.944   4.924  0.9506  0.4196  0.6057
  181SLPC  H15Y20720   0.996   0.918   5.067 -2.1836 -0.3668  2.2036
  181SLPC  C31620721   0.836   0.782   5.080 -0.0545 -0.7067  0.3660
  181SLPC  H16X20722   0.890   0.699   5.129  1.3581  0.2989  0.5981
  181SLPC  H16Y20723   0.752   0.753   5.014 -1.2954  2.3976  0.3808
  181SLPC  C31720724   0.775   0.876   5.187 -0.1816 -1.2080  0.2669
  181SLPC  H17X20725   0.720   0.955   5.131 -0.2536 -1.2518  0.2752
  181SLPC  H17Y20726   0.853   0.934   5.240  0.2947  1.4542 -3.0036
  181SLPC  C31820727   0.672   0.801   5.274 -0.2063  0.5772 -0.2010
  181SLPC  H18X20728   0.714   0.720   5.337  2.0081  0.7203 -1.4123
  181SLPC  H18Y20729   0.591   0.762   5.208 -0.0570 -0.0605 -0.0143
  181SLPC  H18Z20730   0.624   0.875   5.342  0.6257  0.3563  0.6356
  182SLPC     N20731   6.232   2.910   2.905  0.3034 -0.0498  0.5498
  182SLPC   C1320732   6.151   2.820   2.813 -0.7360  0.2810  0.3777
  182SLPC  H13A20733   6.071   2.778   2.872 -1.4012 -0.7184 -1.1475
  182SLPC  H13B20734   6.116   2.880   2.730  1.0072  0.2430 -0.4290
  182SLPC  H13C20735   6.200   2.733   2.772  0.7222  0.8096  0.9460
  182SLPC   C1420736   6.339   2.968   2.824  0.3660  0.2957  0.2421
  182SLPC  H14A20737   6.411   3.016   2.888  0.9624  2.5966 -1.9776
  182SLPC  H14B20738   6.389   2.888   2.771 -0.6757  0.2722 -0.7272
  182SLPC  H14C20739   6.305   3.033   2.745  0.7666 -1.1907 -1.2295
  182SLPC   C1520740   6.297   2.825   3.010  0.7996 -0.1624 -0.0074
  182SLPC  H15A20741   6.375   2.760   2.972  1.7915  0.6832  0.5435
  182SLPC  H15B20742   6.335   2.887   3.089  1.2335 -0.0247 -0.3163
  182SLPC  H15C20743   6.230   2.754   3.057  0.2063  0.1301 -0.3939
  182SLPC   C1220744   6.151   3.023   2.960 -0.1957  0.0059 -0.0918
  182SLPC  H12A20745   6.115   3.088   2.881 -0.9100 -0.6343 -0.3045
  182SLPC  H12B20746   6.217   3.082   3.022  1.6631 -1.1041 -0.9165
  182SLPC   C1120747   6.038   2.993   3.052  0.2103  0.2579  0.2484
  182SLPC  H11A20748   5.991   3.087   3.088 -0.0356  0.7358 -1.2570
  182SLPC  H11B20749   6.082   2.943   3.141  2.2023 -0.2309 -0.9593
  182SLPC     P20750   5.787   2.925   2.986 -0.3674 -0.4975  0.3103
  182SLPC   O1320751   5.745   3.048   2.919  0.5205 -0.1091 -0.5627
  182SLPC   O1420752   5.723   2.797   2.951 -0.4192  0.0455  0.0577
  182SLPC   O1220753   5.950   2.903   2.983 -0.0395 -0.0375 -0.1545
  182SLPC   O1120754   5.765   2.943   3.140 -0.6750  0.1346 -0.0766
  182SLPC    C120755   5.808   2.847   3.237  0.1205  0.1392  0.3284
  182SLPC    HA20756   5.887   2.776   3.205 -2.4705 -2.2562 -1.3158
  182SLPC    HB20757   5.860   2.894   3.323  0.2401 -1.1089  0.9593
  182SLPC    C220758   5.698   2.749   3.303 -0.2219 -0.4228  0.3856
  182SLPC    HS20759   5.760   2.688   3.372 -0.1616 -1.0476 -0.2106
  182SLPC   O2120760   5.620   2.671   3.209  0.1085  0.3311  0.1826
  182SLPC   C2120761   5.676   2.574   3.127  0.2817  0.2369  0.4454
  182SLPC   O2220762   5.795   2.549   3.117  0.1581  0.1008 -0.7483
  182SLPC   C2220763   5.558   2.498   3.056 -0.0821 -0.3800  0.4272
  182SLPC   H2R20764   5.465   2.496   3.117 -0.1569 -1.6373  0.2976
  182SLPC   H2S20765   5.530   2.546   2.959 -0.7361 -1.6453 -0.0315
  182SLPC    C320766   5.596   2.829   3.393 -0.0157  0.0253 -0.3935
  182SLPC    HX20767   5.558   2.748   3.459  0.2021 -0.7138 -1.1553
  182SLPC    HY20768   5.523   2.869   3.320  0.4266 -1.4142 -1.6944
  182SLPC   O3120769   5.660   2.927   3.470  0.2077 -0.5891  0.0563
  182SLPC   C3120770   5.569   3.024   3.510  0.4250  0.4557 -0.0762
  182SLPC   O3220771   5.446   3.016   3.495  0.2852  0.1898 -0.0339
  182SLPC   C3220772   5.643   3.129   3.589 -0.1862  0.0562  0.1682
  182SLPC   H2X20773   5.622   3.227   3.540  1.5552 -0.3445 -1.4962
  182SLPC   H2Y20774   5.750   3.101   3.583  0.4681  2.1233  1.4145
  182SLPC   C2320775   5.602   2.352   3.033  0.2069 -0.1050 -0.4764
  182SLPC   H3R20776   5.702   2.332   2.991 -0.1554 -0.5934 -1.1262
  182SLPC   H3S20777   5.529   2.325   2.954 -1.2266  0.6861  0.5235
  182SLPC   C2420778   5.568   2.262   3.156  0.1644  0.0577 -0.9089
  182SLPC   H4R20779   5.580   2.157   3.122  1.4172 -0.0121 -0.2889
  182SLPC   H4S20780   5.459   2.269   3.178  0.1492 -2.0247 -0.1399
  182SLPC   C2520781   5.649   2.292   3.286 -0.3370  0.0937 -0.3601
  182SLPC   H5R20782   5.632   2.398   3.313 -0.2451  0.5641 -2.0425
  182SLPC   H5S20783   5.757   2.290   3.260  0.6261  0.3787  3.0514
  182SLPC   C2620784   5.609   2.202   3.405 -0.2323 -0.0802 -0.3384
  182SLPC   H6R20785   5.643   2.101   3.376  0.9827  0.5554 -1.2229
  182SLPC   H6S20786   5.498   2.203   3.406 -0.3183  1.3741 -2.5185
  182SLPC   C2720787   5.691   2.233   3.532 -0.3564  0.2346 -0.0552
  182SLPC   H7R20788   5.693   2.343   3.547  0.0124  0.2126  0.0759
  182SLPC   H7S20789   5.798   2.205   3.519 -0.0339  0.8725  1.1220
  182SLPC   C2820790   5.637   2.157   3.653 -0.1010 -0.3474  1.1213
  182SLPC   H8R20791   5.645   2.048   3.634  0.7831  0.1974 -2.2493
  182SLPC   H8S20792   5.531   2.186   3.672 -0.1865 -1.0632  1.7683
  182SLPC   C2920793   5.725   2.189   3.776  0.4876  0.0691  0.0396
  182SLPC   H9R20794   5.834   2.185   3.756  0.6276 -1.7212  0.9938
  182SLPC  C21020795   5.683   2.218   3.905 -0.5527 -0.1044 -0.1189
  182SLPC  H10R20796   5.759   2.204   3.982 -1.1228 -2.0854  0.1408
  182SLPC  C21120797   5.542   2.239   3.961 -0.3208  0.3144  0.3079
  182SLPC  H11R20798   5.535   2.179   4.054  2.3293 -0.0573  0.3616
  182SLPC  H11S20799   5.458   2.219   3.891  0.6426 -0.5908 -0.6154
  182SLPC  C21220800   5.542   2.387   4.008 -0.3967 -0.0545  0.2701
  182SLPC  H12R20801   5.523   2.468   3.936  0.8601 -0.1648 -0.2082
  182SLPC  C21320802   5.588   2.420   4.132  0.4524  0.1247 -0.3304
  182SLPC  H13R20803   5.592   2.525   4.162 -0.3477 -0.0024  0.2563
  182SLPC  C21420804   5.630   2.325   4.239  0.3818  0.1743 -0.3071
  182SLPC  H14R20805   5.724   2.278   4.204  0.4240  0.8463 -1.1165
  182SLPC  H14S20806   5.554   2.247   4.261  2.1788 -1.9229 -1.2342
  182SLPC  C21520807   5.666   2.398   4.372  0.3048  0.5596  0.3025
  182SLPC  H15R20808   5.571   2.435   4.416  1.0730  3.0668 -0.0132
  182SLPC  H15S20809   5.723   2.493   4.360  0.2922  0.5413  0.0896
  182SLPC  C21620810   5.761   2.322   4.464  0.7041  0.3184 -0.0994
  182SLPC  H16R20811   5.848   2.281   4.408  0.8290 -1.8046  1.5234
  182SLPC  H16S20812   5.716   2.228   4.501  0.1155  1.3711  2.0256
  182SLPC  C21720813   5.827   2.384   4.591 -0.0848 -0.0828 -0.9017
  182SLPC  H17R20814   5.745   2.444   4.636  0.3593 -0.3443  0.3083
  182SLPC  H17S20815   5.905   2.457   4.559 -1.5947  1.4322 -1.2516
  182SLPC  C21820816   5.879   2.287   4.703 -0.5123  0.2140  0.2097
  182SLPC  H18R20817   5.954   2.221   4.654 -0.4986 -0.2267  0.8106
  182SLPC  H18S20818   5.790   2.234   4.745 -1.3516  1.2740 -0.1901
  182SLPC  H18T20819   5.929   2.337   4.789 -0.7632 -0.9817  1.0784
  182SLPC   C3320820   5.614   3.117   3.744  0.3373  0.2592  0.5256
  182SLPC   H3X20821   5.508   3.145   3.761  0.3895  0.8591 -0.1065
  182SLPC   H3Y20822   5.685   3.188   3.790  1.1855  0.5203 -1.1194
  182SLPC   C3420823   5.646   2.981   3.806  0.1251  0.4542 -0.5972
  182SLPC   H4X20824   5.757   2.971   3.813  0.2555  1.4344 -1.1329
  182SLPC   H4Y20825   5.597   2.896   3.754 -1.9189  0.7801  0.6959
  182SLPC   C3520826   5.599   2.982   3.949 -0.0748 -0.4093  0.3317
  182SLPC   H5X20827   5.488   2.991   3.953 -0.2194 -1.1976 -0.9645
  182SLPC   H5Y20828   5.629   3.072   4.005 -0.0280  0.3936 -0.9564
  182SLPC   C3620829   5.643   2.863   4.037 -0.7661  0.1283 -0.1084
  182SLPC   H6X20830   5.747   2.883   4.070 -0.8509  1.5973 -0.6747
  182SLPC   H6Y20831   5.659   2.769   3.979  2.6630  0.2737  0.3981
  182SLPC   C3720832   5.555   2.832   4.153  0.0921  0.1739  0.1503
  182SLPC   H7X20833   5.548   2.923   4.215 -1.1602 -0.4094  0.9112
  182SLPC   H7Y20834   5.610   2.763   4.221  0.4221  1.0189  0.7484
  182SLPC   C3820835   5.415   2.783   4.097  0.5604  0.5113 -0.5516
  182SLPC   H8X20836   5.430   2.693   4.034 -0.3412  1.8518 -2.7978
  182SLPC   H8Y20837   5.367   2.856   4.027 -1.6366 -1.5840 -1.3903
  182SLPC   C3920838   5.313   2.734   4.212 -0.0073 -0.0640  0.7498
  182SLPC   H9X20839   5.208   2.745   4.179  0.1012  2.4618  1.0773
  182SLPC   H9Y20840   5.335   2.795   4.302  3.0706 -2.5611  1.8685
  182SLPC  C31020841   5.340   2.594   4.265  0.3108  0.1139  0.3093
  182SLPC  H10X20842   5.441   2.572   4.306 -0.5996 -1.9761  1.6004
  182SLPC  H10Y20843   5.310   2.528   4.181 -0.1609  1.3293 -0.5134
  182SLPC  C31120844   5.234   2.558   4.373 -0.3696 -0.1029  0.0856
  182SLPC  H11X20845   5.235   2.447   4.385  3.1396 -0.5979 -3.0315
  182SLPC  H11Y20846   5.131   2.582   4.337  0.1764  3.5210  0.5677
  182SLPC  C31220847   5.257   2.626   4.507  0.0380 -0.0988 -1.4417
  182SLPC  H12X20848   5.166   2.613   4.569  1.1732 -3.9650 -0.2866
  182SLPC  H12Y20849   5.273   2.736   4.508 -0.0178 -0.0223  1.8135
  182SLPC  C31320850   5.373   2.582   4.590  0.5597  0.4110 -0.5301
  182SLPC  H13X20851   5.389   2.652   4.675  1.0732  1.9039 -1.8099
  182SLPC  H13Y20852   5.463   2.582   4.525 -1.0131 -0.2351 -2.8242
  182SLPC  C31420853   5.348   2.446   4.662  0.1018 -0.5126 -0.3955
  182SLPC  H14X20854   5.351   2.360   4.591 -0.6180  0.3949 -1.5644
  182SLPC  H14Y20855   5.249   2.455   4.712  0.3760  1.3188 -0.1187
  182SLPC  C31520856   5.464   2.425   4.765 -0.3316  0.3403  0.2924
  182SLPC  H15X20857   5.532   2.512   4.752 -0.1911  0.0451 -1.1849
  182SLPC  H15Y20858   5.530   2.343   4.729  1.3123  0.7546  2.1703
  182SLPC  C31620859   5.420   2.401   4.910  0.5793 -0.9965 -0.0447
  182SLPC  H16X20860   5.375   2.299   4.909  0.4954 -0.9645 -1.8149
  182SLPC  H16Y20861   5.335   2.469   4.934  0.3943 -1.3209  0.2370
  182SLPC  C31720862   5.528   2.396   5.019  0.4761  0.2234  0.4003
  182SLPC  H17X20863   5.493   2.376   5.122 -2.2115  0.1931 -0.4511
  182SLPC  H17Y20864   5.567   2.501   5.023  2.2778 -0.2787 -1.8644
  182SLPC  C31820865   5.649   2.316   4.994  0.2132  0.2069  1.2368
  182SLPC  H18X20866   5.729   2.325   5.070  2.5448 -1.6583 -0.8116
  182SLPC  H18Y20867   5.693   2.345   4.896  0.4153 -0.7961  1.0112
  182SLPC  H18Z20868   5.644   2.205   4.997 -1.5114  0.2371  0.4375
  183SLPC     N20869   1.791   2.448   2.925 -0.0809 -0.6846 -0.0070
  183SLPC   C1320870   1.824   2.363   2.807 -0.3308 -0.1130  0.0838
  183SLPC  H13A20871   1.887   2.277   2.827  0.0726 -0.0762 -0.9610
  183SLPC  H13B20872   1.733   2.332   2.759  0.2708 -0.9399 -0.5656
  183SLPC  H13C20873   1.893   2.403   2.734  1.5284 -0.7155  1.4120
  183SLPC   C1420874   1.917   2.492   2.990 -0.0691 -0.9547 -0.9354
  183SLPC  H14A20875   1.896   2.523   3.091  1.1317 -1.9513 -0.3461
  183SLPC  H14B20876   1.990   2.413   2.998 -0.7786 -1.5903 -0.6151
  183SLPC  H14C20877   1.965   2.576   2.942 -1.7547 -0.1437 -1.2656
  183SLPC   C1520878   1.714   2.368   3.023 -0.1013  0.0725 -1.5238
  183SLPC  H15A20879   1.621   2.335   2.979 -1.2816  1.4892 -0.2188
  183SLPC  H15B20880   1.765   2.284   3.067  0.0273  0.7014 -0.4162
  183SLPC  H15C20881   1.689   2.424   3.112 -1.0400 -1.6741 -0.6410
  183SLPC   C1220882   1.709   2.563   2.875  0.3754  0.4201  0.4993
  183SLPC  H12A20883   1.618   2.534   2.825 -1.6865  0.5428  3.8337
  183SLPC  H12B20884   1.761   2.601   2.789 -0.5176 -0.0296 -0.2470
  183SLPC   C1120885   1.680   2.676   2.965  0.5564  0.3546  0.0800
  183SLPC  H11A20886   1.641   2.760   2.904 -0.3297  1.2012  1.7387
  183SLPC  H11B20887   1.764   2.735   3.006  1.0830 -0.4662  0.2092
  183SLPC     P20888   1.447   2.624   3.071 -0.2566  0.0481 -0.2207
  183SLPC   O1320889   1.422   2.531   2.957  0.0727  0.0958  0.2241
  183SLPC   O1420890   1.401   2.583   3.204  0.1604 -0.0719  0.7447
  183SLPC   O1220891   1.609   2.636   3.083  0.2507  0.1228  0.0760
  183SLPC   O1120892   1.394   2.768   3.019 -0.4278  0.5022 -0.2052
  183SLPC    C120893   1.450   2.892   3.061 -0.1432  0.9203 -0.4703
  183SLPC    HA20894   1.555   2.877   3.094 -0.5669  1.3162  1.1328
  183SLPC    HB20895   1.450   2.962   2.974 -1.6850 -0.1639 -1.3793
  183SLPC    C220896   1.381   2.954   3.183 -0.0451  0.1217 -0.3252
  183SLPC    HS20897   1.427   3.050   3.213 -1.7451  0.2457  2.1486
  183SLPC   O2120898   1.391   2.881   3.312 -0.2179 -0.4635  0.3813
  183SLPC   C2120899   1.513   2.875   3.366  0.4093  0.6910 -0.0567
  183SLPC   O2220900   1.618   2.914   3.317  0.2442 -0.4245  0.3650
  183SLPC   C2220901   1.499   2.800   3.496 -0.4083  0.1939  0.3824
  183SLPC   H2R20902   1.414   2.730   3.488  1.0288 -1.5973  0.0814
  183SLPC   H2S20903   1.592   2.742   3.516 -0.9110 -1.6755 -2.1896
  183SLPC    C320904   1.231   2.991   3.153 -0.1416  0.4620  0.0639
  183SLPC    HX20905   1.178   2.894   3.148 -0.5665  0.7376 -1.5268
  183SLPC    HY20906   1.228   3.038   3.052  3.2621  2.3959  0.6965
  183SLPC   O3120907   1.183   3.082   3.250  0.5770  0.0041  0.0469
  183SLPC   C3120908   1.132   3.030   3.367  0.7330 -0.1443 -0.1339
  183SLPC   O3220909   1.118   2.912   3.397 -0.8026  0.8897  0.1304
  183SLPC   C3220910   1.115   3.159   3.456 -0.5611 -0.6684 -0.3892
  183SLPC   H2X20911   1.117   3.251   3.395 -2.3558 -0.0834  0.3706
  183SLPC   H2Y20912   1.196   3.157   3.532 -1.0341  2.1131  0.3016
  183SLPC   C2320913   1.474   2.882   3.628  0.0396 -0.4692  0.3568
  183SLPC   H3R20914   1.390   2.954   3.615  0.3680 -0.3019 -0.9242
  183SLPC   H3S20915   1.550   2.960   3.650 -1.2782  0.5842  1.3926
  183SLPC   C2420916   1.439   2.803   3.758  0.3343  0.0253  0.0605
  183SLPC   H4R20917   1.527   2.746   3.794  0.8400 -0.2222 -1.4843
  183SLPC   H4S20918   1.357   2.729   3.743 -1.2053  1.5268  0.8012
  183SLPC   C2520919   1.414   2.900   3.879 -0.5607 -0.2837  0.4003
  183SLPC   H5R20920   1.327   2.964   3.853  1.7245  1.9531 -2.3257
  183SLPC   H5S20921   1.497   2.972   3.891 -0.6756 -0.0306 -0.3337
  183SLPC   C2620922   1.392   2.833   4.017  0.1405 -0.2206 -0.7688
  183SLPC   H6R20923   1.487   2.783   4.045 -0.0067  0.0794  0.2796
  183SLPC   H6S20924   1.310   2.758   4.012  0.3137 -0.4191 -0.6597
  183SLPC   C2720925   1.358   2.926   4.141  0.6832 -0.1827  0.0157
  183SLPC   H7R20926   1.258   2.972   4.120 -0.3205 -2.3041 -0.1458
  183SLPC   H7S20927   1.426   3.014   4.144  0.9443 -0.4129  0.8533
  183SLPC   C2820928   1.367   2.860   4.278  0.3045  0.7315 -0.5042
  183SLPC   H8R20929   1.307   2.767   4.268 -0.4256  1.2466 -1.0647
  183SLPC   H8S20930   1.323   2.924   4.358  0.7862 -0.3888  0.6950
  183SLPC   C2920931   1.510   2.833   4.315 -0.0833  0.2480 -1.0295
  183SLPC   H9R20932   1.575   2.779   4.244  0.6547 -0.2071 -0.0394
  183SLPC  C21020933   1.565   2.856   4.435 -0.3036  0.3215 -0.4857
  183SLPC  H10R20934   1.675   2.849   4.441 -0.2271  1.7120  0.1324
  183SLPC  C21120935   1.501   2.914   4.558 -0.2551  0.7168  0.0406
  183SLPC  H11R20936   1.404   2.965   4.542 -0.0977  1.0106  0.0216
  183SLPC  H11S20937   1.557   3.003   4.592  0.6071  0.9691 -1.9223
  183SLPC  C21220938   1.471   2.803   4.661  0.3731  0.0311 -0.1978
  183SLPC  H12R20939   1.371   2.757   4.660  1.3065 -2.1510  0.5943
  183SLPC  C21320940   1.543   2.777   4.768  0.0806  0.3534 -0.2809
  183SLPC  H13R20941   1.521   2.699   4.843  1.0181  1.0825  0.7869
  183SLPC  C21420942   1.671   2.846   4.802 -0.2173 -0.2877 -0.5117
  183SLPC  H14R20943   1.723   2.888   4.713 -1.4069 -0.5848 -1.3697
  183SLPC  H14S20944   1.744   2.770   4.838  0.9233  0.8150 -0.3959
  183SLPC  C21520945   1.664   2.945   4.923 -0.0149 -0.5543  0.2495
  183SLPC  H15R20946   1.618   2.911   5.018 -2.1925  1.4381 -0.0001
  183SLPC  H15S20947   1.600   3.029   4.890  2.6981  2.2880  1.7810
  183SLPC  C21620948   1.803   3.003   4.957  0.1647 -0.6189 -0.1810
  183SLPC  H16R20949   1.834   3.041   4.857 -1.8947  0.1802 -0.5610
  183SLPC  H16S20950   1.873   2.928   4.999  0.4826 -0.3367 -0.1971
  183SLPC  C21720951   1.793   3.117   5.059  0.1726 -0.3063  0.1951
  183SLPC  H17R20952   1.764   3.066   5.153  0.7661  0.6875  0.9290
  183SLPC  H17S20953   1.710   3.183   5.027  1.6343  1.2339 -0.5925
  183SLPC  C21820954   1.925   3.193   5.081  0.1591  0.3772  0.1471
  183SLPC  H18R20955   2.000   3.127   5.129  0.3627  0.6636  0.2210
  183SLPC  H18S20956   1.903   3.275   5.153 -0.7112  0.2634  0.0291
  183SLPC  H18T20957   1.961   3.238   4.987  0.5075  0.7085  0.4352
  183SLPC   C3320958   0.975   3.150   3.520  0.9296  0.1836  0.8227
  183SLPC   H3X20959   0.953   3.041   3.531 -0.6884  0.5668  1.7056
  183SLPC   H3Y20960   0.899   3.181   3.446  0.6209 -2.1215  0.0739
  183SLPC   C3420961   0.941   3.237   3.646  0.2404 -0.1525  0.6650
  183SLPC   H4X20962   0.849   3.294   3.620  0.3522 -0.4396 -0.3992
  183SLPC   H4Y20963   1.004   3.327   3.653 -0.3091  0.2602  0.3728
  183SLPC   C3520964   0.929   3.168   3.780  0.1609  0.1693  0.1670
  183SLPC   H5X20965   0.886   3.066   3.765 -0.5923  0.2924  1.3114
  183SLPC   H5Y20966   0.866   3.228   3.849  1.0258  0.4022  0.7670
  183SLPC   C3620967   1.068   3.124   3.837  0.0308  0.4549  0.2035
  183SLPC   H6X20968   1.121   3.056   3.767  1.5520  1.3305  0.4437
  183SLPC   H6Y20969   1.055   3.065   3.930 -0.1723 -0.7911 -0.5887
  183SLPC   C3720970   1.171   3.236   3.874  0.2915 -0.5564  0.4860
  183SLPC   H7X20971   1.202   3.288   3.782  0.8808  0.1741  1.0862
  183SLPC   H7Y20972   1.256   3.186   3.926  0.1942 -0.2718  0.9293
  183SLPC   C3820973   1.103   3.334   3.970  0.1502 -0.7248  0.3818
  183SLPC   H8X20974   0.996   3.351   3.942  1.2324  2.6781 -2.3700
  183SLPC   H8Y20975   1.155   3.432   3.969 -2.4949  0.8164  1.0627
  183SLPC   C3920976   1.106   3.277   4.112 -0.5456  0.0101  0.0639
  183SLPC   H9X20977   1.208   3.243   4.137 -1.5583 -2.7689  0.7508
  183SLPC   H9Y20978   1.051   3.180   4.118  0.5947 -0.6084  0.7594
  183SLPC  C31020979   1.050   3.373   4.218  0.4594 -0.2482 -0.4188
  183SLPC  H10X20980   0.960   3.424   4.176 -1.4569 -2.2495  0.9775
  183SLPC  H10Y20981   1.122   3.455   4.236 -1.4420  1.0892  1.7323
  183SLPC  C31120982   1.021   3.286   4.341 -0.3196  0.0545  0.2429
  183SLPC  H11X20983   1.113   3.225   4.351  1.5286  2.4900 -0.7818
  183SLPC  H11Y20984   0.934   3.222   4.315  0.9041 -1.5590 -0.0078
  183SLPC  C31220985   1.002   3.359   4.469  0.2621 -0.0988  0.3056
  183SLPC  H12X20986   0.914   3.426   4.470 -1.8053 -2.5632 -1.5021
  183SLPC  H12Y20987   1.098   3.406   4.500  0.6250 -0.7841  0.2422
  183SLPC  C31320988   0.966   3.261   4.581  0.6165  0.2410  0.3594
  183SLPC  H13X20989   1.041   3.183   4.605 -0.6471 -1.0883  0.1011
  183SLPC  H13Y20990   0.879   3.198   4.552 -1.4408  1.6607  2.9543
  183SLPC  C31420991   0.925   3.323   4.719 -0.0110 -0.9059  0.1138
  183SLPC  H14X20992   0.909   3.248   4.800  1.3301 -0.3881  0.9023
  183SLPC  H14Y20993   0.841   3.395   4.718  0.2041 -0.6589 -0.2160
  183SLPC  C31520994   1.048   3.381   4.788 -0.4280  0.0416 -0.1502
  183SLPC  H15X20995   1.107   3.450   4.723  0.1313 -1.7626 -1.6553
  183SLPC  H15Y20996   1.125   3.303   4.806 -1.9002 -0.9542  2.2885
  183SLPC  C31620997   1.017   3.467   4.912  0.4445 -0.7005  0.1893
  183SLPC  H16X20998   0.958   3.558   4.889 -0.3539 -1.4863 -0.9680
  183SLPC  H16Y20999   1.104   3.515   4.962  0.1224  0.8551 -0.6614
  183SLPC  C31721000   0.940   3.388   5.023 -0.6729 -0.3805 -0.5467
  183SLPC  H17X21001   1.000   3.301   5.056 -1.1090 -0.1805  0.8330
  183SLPC  H17Y21002   0.846   3.341   4.989 -0.6610 -0.0142 -1.1078
  183SLPC  C31821003   0.914   3.466   5.150 -0.3711  0.2083 -0.2043
  183SLPC  H18X21004   0.869   3.392   5.219 -0.4750 -0.4961 -1.0104
  183SLPC  H18Y21005   0.842   3.551   5.143 -1.7966 -0.7996  1.4940
  183SLPC  H18Z21006   1.017   3.487   5.188 -0.3802 -2.0526  1.2801
  184SLPC     N21007   2.194   4.222   2.985 -0.3687 -0.4188  1.0937
  184SLPC   C1321008   2.171   4.089   3.059  0.0797  0.5962  0.0965
  184SLPC  H13A21009   2.133   4.020   2.985  0.0505  2.7714 -2.0390
  184SLPC  H13B21010   2.257   4.047   3.110 -0.0155 -1.8643 -1.5987
  184SLPC  H13C21011   2.101   4.095   3.141  0.1622 -1.6774  0.4048
  184SLPC   C1421012   2.074   4.263   2.907  0.2333  0.1839 -0.1474
  184SLPC  H14A21013   2.074   4.368   2.882 -1.4698  0.8823  2.3894
  184SLPC  H14B21014   2.056   4.206   2.817 -1.3837  1.0884 -0.4395
  184SLPC  H14C21015   1.985   4.262   2.968  2.0976  1.9619  2.8760
  184SLPC   C1521016   2.303   4.194   2.877 -0.2297  0.5100 -0.2667
  184SLPC  H15A21017   2.312   4.282   2.815  0.6122  0.6973  0.1058
  184SLPC  H15B21018   2.402   4.167   2.910 -0.3587 -0.8441 -0.9422
  184SLPC  H15C21019   2.268   4.109   2.820 -0.4125  0.1300  0.3940
  184SLPC   C1221020   2.256   4.333   3.076 -0.5608  0.1493 -0.0185
  184SLPC  H12A21021   2.244   4.428   3.025 -1.5201  0.1976  0.2745
  184SLPC  H12B21022   2.361   4.322   3.094 -1.0229 -0.8112  2.5403
  184SLPC   C1121023   2.199   4.346   3.218 -0.5909  0.1666 -0.3186
  184SLPC  H11A21024   2.253   4.424   3.275  0.4956  0.2070 -1.3790
  184SLPC  H11B21025   2.232   4.259   3.280 -1.2684  2.0227  2.8822
  184SLPC     P21026   1.989   4.482   3.184 -0.2424  0.1914 -0.1679
  184SLPC   O1321027   2.072   4.571   3.100  0.0364 -0.3792  0.1269
  184SLPC   O1421028   1.860   4.443   3.127  0.1946  0.0805  0.4357
  184SLPC   O1221029   2.056   4.355   3.227  0.0113 -0.2993 -0.1366
  184SLPC   O1121030   1.971   4.563   3.319  0.0400  0.1742  0.1516
  184SLPC    C121031   2.076   4.603   3.401  0.3901 -0.6501 -0.1205
  184SLPC    HA21032   2.088   4.522   3.476 -0.9318 -2.3285 -1.6461
  184SLPC    HB21033   2.167   4.635   3.346 -0.7975  0.9396 -1.2508
  184SLPC    C221034   2.027   4.736   3.470  0.1867  0.1351 -0.4414
  184SLPC    HS21035   2.124   4.770   3.511  0.4616 -0.1138 -0.8746
  184SLPC   O2121036   1.945   4.708   3.587  0.4409 -0.3834 -0.0879
  184SLPC   C2121037   1.813   4.687   3.576 -0.2725  0.0770 -0.0562
  184SLPC   O2221038   1.748   4.669   3.474  0.5288 -0.0866  0.2982
  184SLPC   C2221039   1.745   4.720   3.705 -0.1010 -0.6041 -0.5222
  184SLPC   H2R21040   1.694   4.819   3.698 -0.4422 -0.3452  3.5849
  184SLPC   H2S21041   1.664   4.643   3.715 -1.0530  0.0796 -2.3792
  184SLPC    C321042   1.955   4.842   3.380 -1.0155 -0.4601  0.1197
  184SLPC    HX21043   1.874   4.801   3.316  1.5125 -0.6562 -3.2402
  184SLPC    HY21044   2.022   4.873   3.297 -1.5239  2.2575  0.6287
  184SLPC   O3121045   1.904   4.959   3.450 -0.5513  0.1873 -0.0350
  184SLPC   C3121046   2.002   5.032   3.491 -0.2912  0.7032  0.5368
  184SLPC   O3221047   2.121   5.016   3.464  0.5593  0.0754 -0.1123
  184SLPC   C3221048   1.947   5.151   3.564 -0.4290  0.8560 -0.4786
  184SLPC   H2X21049   1.870   5.203   3.502 -1.0919  2.7665  1.7900
  184SLPC   H2Y21050   2.022   5.232   3.580  0.3178  0.0469  0.1941
  184SLPC   C2321051   1.841   4.704   3.829 -0.1299  0.1372  0.3426
  184SLPC   H3R21052   1.909   4.791   3.828  1.5305 -1.1096 -1.3255
  184SLPC   H3S21053   1.890   4.606   3.815 -0.8684 -0.2878  0.6902
  184SLPC   C2421054   1.768   4.698   3.964 -0.2668  0.0317  0.4517
  184SLPC   H4R21055   1.716   4.603   3.989 -1.2126 -0.1615 -1.9488
  184SLPC   H4S21056   1.694   4.781   3.966 -1.0159 -0.5656 -1.0044
  184SLPC   C2521057   1.859   4.731   4.078 -0.0380  0.1349 -0.6488
  184SLPC   H5R21058   1.895   4.834   4.056  0.9078 -0.0755 -0.1719
  184SLPC   H5S21059   1.949   4.666   4.067  0.2899  0.2848  0.9303
  184SLPC   C2621060   1.781   4.721   4.207 -0.1142 -0.2706  0.0515
  184SLPC   H6R21061   1.715   4.632   4.200 -0.0557 -0.2356 -1.2093
  184SLPC   H6S21062   1.708   4.802   4.223  1.7076  1.1483  1.6639
  184SLPC   C2721063   1.863   4.706   4.329  0.0754 -0.7094 -0.2772
  184SLPC   H7R21064   1.918   4.802   4.344 -1.4254  0.1183  0.1621
  184SLPC   H7S21065   1.940   4.626   4.325  0.9360  0.0133  0.9924
  184SLPC   C2821066   1.787   4.673   4.459  0.8054  0.6283  0.1855
  184SLPC   H8R21067   1.866   4.646   4.532  0.6297  0.7852  0.4356
  184SLPC   H8S21068   1.724   4.583   4.438  0.5189  1.0910 -1.0683
  184SLPC   C2921069   1.689   4.783   4.503 -0.2224  0.1277  0.3187
  184SLPC   H9R21070   1.654   4.852   4.425 -0.2866 -0.8789 -0.5639
  184SLPC  C21021071   1.699   4.831   4.628 -0.7531  0.4809 -0.5523
  184SLPC  H10R21072   1.645   4.921   4.659 -2.7197 -0.9711  0.5028
  184SLPC  C21121073   1.770   4.765   4.745 -0.0275 -0.6934 -0.0661
  184SLPC  H11R21074   1.794   4.657   4.732 -1.8485 -0.9772 -1.5577
  184SLPC  H11S21075   1.700   4.762   4.831  1.9008 -2.4862  1.5558
  184SLPC  C21221076   1.897   4.833   4.790  0.2698  0.3021  0.0340
  184SLPC  H12R21077   1.941   4.909   4.723 -0.5832 -1.3528 -2.5561
  184SLPC  C21321078   1.968   4.807   4.898  0.5341 -0.1578 -0.0209
  184SLPC  H13R21079   2.066   4.852   4.918  0.3322  0.9188 -1.2735
  184SLPC  C21421080   1.916   4.714   5.009 -0.0582 -0.3370 -0.1948
  184SLPC  H14R21081   2.002   4.648   5.034  0.0848  0.0144  0.2335
  184SLPC  H14S21082   1.833   4.645   4.983 -0.7911  1.0493 -1.6707
  184SLPC  C21521083   1.891   4.790   5.145 -0.7383  0.5013 -0.7960
  184SLPC  H15R21084   1.976   4.855   5.175 -0.5428 -0.1153  0.0233
  184SLPC  H15S21085   1.867   4.713   5.221  2.0614 -2.1273 -2.3482
  184SLPC  C21621086   1.766   4.884   5.144 -0.1989 -0.0401  0.0341
  184SLPC  H16R21087   1.681   4.836   5.091  1.5863 -2.3982 -0.8631
  184SLPC  H16S21088   1.800   4.964   5.075 -0.5739 -0.9927 -1.2880
  184SLPC  C21721089   1.731   4.941   5.288  0.1622  0.5961 -0.0384
  184SLPC  H17R21090   1.689   5.044   5.280 -0.6083  0.2850 -0.0537
  184SLPC  H17S21091   1.825   4.954   5.346 -1.1140  1.4019  1.9520
  184SLPC  C21821092   1.633   4.854   5.366  0.0419 -0.2857  0.1361
  184SLPC  H18R21093   1.554   4.820   5.296 -0.8401 -2.1873  1.9329
  184SLPC  H18S21094   1.596   4.907   5.456 -0.4543  0.1750 -0.3298
  184SLPC  H18T21095   1.676   4.755   5.395 -2.4913 -1.2596  0.8257
  184SLPC   C3321096   1.866   5.112   3.691  0.0090 -0.6788  0.0533
  184SLPC   H3X21097   1.928   5.036   3.743 -1.4937 -2.2912 -0.4412
  184SLPC   H3Y21098   1.764   5.073   3.669 -1.2705  1.9190  0.9351
  184SLPC   C3421099   1.850   5.235   3.778  0.7621  0.0267  0.1881
  184SLPC   H4X21100   1.781   5.308   3.731 -0.2282  0.5576  2.3640
  184SLPC   H4Y21101   1.948   5.288   3.785  1.6011 -1.1949 -1.4351
  184SLPC   C3521102   1.803   5.208   3.921 -0.4256 -0.2269  1.1971
  184SLPC   H5X21103   1.708   5.149   3.924 -0.0405 -0.8399  1.9042
  184SLPC   H5Y21104   1.768   5.308   3.954 -1.3671 -0.5818  1.3138
  184SLPC   C3621105   1.910   5.142   4.015 -0.5264 -0.2199  0.7509
  184SLPC   H6X21106   2.002   5.204   4.009 -1.1344  0.5339 -1.8999
  184SLPC   H6Y21107   1.934   5.043   3.970 -0.4655 -0.7727  1.9579
  184SLPC   C3721108   1.852   5.130   4.153 -0.3667  0.4223  0.0724
  184SLPC   H7X21109   1.924   5.065   4.207  0.6634  1.1408 -0.4121
  184SLPC   H7Y21110   1.751   5.082   4.152  0.2353 -0.9522  0.8399
  184SLPC   C3821111   1.851   5.260   4.229  0.2535  0.2627 -0.0216
  184SLPC   H8X21112   1.832   5.341   4.156 -0.3832 -0.8593 -1.1418
  184SLPC   H8Y21113   1.958   5.276   4.258  0.5146 -0.0174 -0.8083
  184SLPC   C3921114   1.761   5.263   4.359  1.0510  0.7556  0.1634
  184SLPC   H9X21115   1.679   5.192   4.334  1.7902  0.8109 -2.9061
  184SLPC   H9Y21116   1.706   5.358   4.376 -1.7619 -0.7963  0.3196
  184SLPC  C31021117   1.823   5.215   4.488 -0.1804  0.0868 -0.1039
  184SLPC  H10X21118   1.908   5.280   4.517 -0.0874 -0.0939  0.0274
  184SLPC  H10Y21119   1.868   5.114   4.479  0.1805  0.1362  0.9754
  184SLPC  C31121120   1.724   5.221   4.599 -0.0143  0.4872 -0.1960
  184SLPC  H11X21121   1.648   5.142   4.583  1.2711 -1.1886  1.4758
  184SLPC  H11Y21122   1.680   5.322   4.588  1.3678  0.9303 -2.5139
  184SLPC  C31221123   1.782   5.212   4.740  0.2499  0.2822  0.4101
  184SLPC  H12X21124   1.872   5.276   4.751  0.0938  0.3613  1.3796
  184SLPC  H12Y21125   1.824   5.109   4.743  1.4050  0.4400 -4.0026
  184SLPC  C31321126   1.678   5.249   4.841 -0.2504 -0.3775 -0.2472
  184SLPC  H13X21127   1.607   5.165   4.854 -2.6096  1.0043 -2.9984
  184SLPC  H13Y21128   1.611   5.331   4.807 -0.9311 -0.4308  0.9121
  184SLPC  C31421129   1.743   5.289   4.975 -0.5268  0.0639 -0.3843
  184SLPC  H14X21130   1.823   5.365   4.965  0.8765 -1.4740 -1.5745
  184SLPC  H14Y21131   1.790   5.196   5.014 -1.3581  0.3235  1.3377
  184SLPC  C31521132   1.632   5.336   5.069 -0.1159  0.0068 -0.6024
  184SLPC  H15X21133   1.559   5.253   5.077  2.3067 -2.5659 -2.7893
  184SLPC  H15Y21134   1.579   5.425   5.028  1.0064  0.3885 -1.2810
  184SLPC  C31621135   1.689   5.384   5.201 -0.1512  0.3361 -0.6786
  184SLPC  H16X21136   1.739   5.480   5.179 -1.8838  1.0381 -1.7508
  184SLPC  H16Y21137   1.755   5.308   5.248 -0.9233  0.6620  1.0172
  184SLPC  C31721138   1.582   5.401   5.311 -0.5328 -0.9065  0.6356
  184SLPC  H17X21139   1.492   5.453   5.272 -0.5643 -0.3638  1.4016
  184SLPC  H17Y21140   1.608   5.459   5.402 -1.3400 -1.6215  1.3477
  184SLPC  C31821141   1.525   5.268   5.361 -0.1621 -0.2837 -0.4636
  184SLPC  H18X21142   1.430   5.286   5.416  0.4577  0.6487  0.3335
  184SLPC  H18Y21143   1.600   5.230   5.434  2.9409  0.9948 -2.7868
  184SLPC  H18Z21144   1.516   5.198   5.275 -0.4782  1.8116 -2.2173
  185POPC     N21145   3.410   6.127   7.584 -0.9617 -0.6224 -0.3059
  185POPC   C1221146   3.549   6.066   7.582  0.0326  0.7969  0.1438
  185POPC  H12A21147   3.605   6.077   7.490  0.2263  0.4843  0.2220
  185POPC  H12B21148   3.530   5.960   7.592 -0.7315  0.8589 -0.5725
  185POPC   C1321149   3.325   6.058   7.491 -0.1118 -0.7823 -0.4031
  185POPC  H13A21150   3.375   6.061   7.395 -1.3054  0.7527 -1.0219
  185POPC  H13B21151   3.317   5.953   7.516 -0.3711 -0.8072 -0.5924
  185POPC  H13C21152   3.232   6.112   7.481  0.4099  0.7714  2.2217
  185POPC   C1421153   3.353   6.130   7.721 -0.4476  0.3526  0.3892
  185POPC  H14A21154   3.256   6.177   7.716 -1.1685 -1.1354 -0.4785
  185POPC  H14B21155   3.348   6.033   7.767  1.1984 -0.2519 -0.6272
  185POPC  H14C21156   3.422   6.188   7.779  2.2866 -1.0072 -1.3149
  185POPC   C1521157   3.428   6.264   7.536  0.1279  0.2060 -0.2737
  185POPC  H15A21158   3.339   6.324   7.529 -0.6244 -0.8045  0.4038
  185POPC  H15B21159   3.462   6.268   7.434 -2.1616 -0.3225 -1.1170
  185POPC  H15C21160   3.500   6.313   7.601 -1.5979  2.3117  0.1800
  185POPC   C1121161   3.659   6.101   7.690 -0.0004 -0.1983 -0.0563
  185POPC  H11A21162   3.740   6.029   7.668 -0.0709 -0.4968  0.6335
  185POPC  H11B21163   3.626   6.078   7.794 -0.1686  0.2336 -0.0097
  185POPC     P21164   3.831   6.273   7.614  0.3222  0.1652  0.4118
  185POPC   O1321165   3.939   6.237   7.707 -0.0262 -1.0552 -0.3793
  185POPC   O1421166   3.829   6.410   7.566  0.1162 -0.9183  0.7340
  185POPC   O1221167   3.693   6.243   7.681  0.9495  0.0004 -0.2205
  185POPC   O1121168   3.841   6.177   7.496  0.2113  0.2854 -0.2449
  185POPC    C121169   3.785   6.218   7.370 -1.0214  0.9021 -0.3209
  185POPC    HA21170   3.727   6.313   7.371  0.5751  1.9441 -1.4147
  185POPC    HB21171   3.720   6.139   7.327  0.8767 -1.1099  0.3329
  185POPC    C221172   3.895   6.228   7.259 -0.1420 -0.9405  0.2285
  185POPC    HS21173   3.950   6.323   7.273  0.2918 -0.9885 -1.0026
  185POPC   O2121174   3.843   6.227   7.128 -0.2584  0.1771  0.1783
  185POPC   C2121175   3.778   6.326   7.082 -0.5434  0.5710 -0.2165
  185POPC   O2221176   3.767   6.438   7.129  0.2174  0.2200  0.0542
  185POPC   C2221177   3.707   6.280   6.955 -0.0340 -0.1712  0.0383
  185POPC   H2R21178   3.603   6.317   6.961 -0.2601 -0.4923 -1.6022
  185POPC   H2S21179   3.716   6.170   6.939  0.8282 -0.2121  0.6819
  185POPC    C321180   4.003   6.113   7.270  0.3900  0.1610  0.5164
  185POPC    HX21181   3.944   6.019   7.259  1.0397 -0.0293 -1.6824
  185POPC    HY21182   4.035   6.118   7.377  0.5737 -2.8105  0.6982
  185POPC   O3121183   4.106   6.118   7.175 -0.3765  0.2120  0.1347
  185POPC   C3121184   4.183   6.228   7.166 -0.7849 -0.5191  0.1684
  185POPC   O3221185   4.185   6.322   7.240 -0.0410  0.1618 -0.3887
  185POPC   C3221186   4.267   6.228   7.038 -0.0147  0.4079 -0.4478
  185POPC   H2X21187   4.282   6.122   7.007  0.5263 -0.2880  1.9767
  185POPC   H2Y21188   4.360   6.281   7.065  1.3881 -1.3007 -1.7151
  185POPC   C2321189   3.791   6.341   6.838 -0.1829  0.2413  0.1651
  185POPC   H3R21190   3.899   6.320   6.853 -0.7756 -2.8672  0.7745
  185POPC   H3S21191   3.789   6.451   6.828 -0.6717  0.3859  1.5923
  185POPC   C2421192   3.735   6.280   6.711 -0.0680 -0.3161  0.6078
  185POPC   H4R21193   3.623   6.282   6.710 -0.0677  0.6182 -0.6970
  185POPC   H4S21194   3.750   6.170   6.714 -1.8121 -0.5730  1.4925
  185POPC   C2521195   3.791   6.355   6.594  0.5161 -0.2331  0.0034
  185POPC   H5R21196   3.902   6.365   6.593  0.4130  1.0685  0.3151
  185POPC   H5S21197   3.755   6.460   6.592 -0.2594 -0.4956 -0.1035
  185POPC   C2621198   3.759   6.293   6.454 -0.7356  0.5291 -0.3296
  185POPC   H6R21199   3.652   6.275   6.430 -0.2583  0.5938 -2.7239
  185POPC   H6S21200   3.812   6.196   6.449 -2.6689 -0.7160  1.7536
  185POPC   C2721201   3.816   6.365   6.330  0.4628 -0.6839 -0.9008
  185POPC   H7R21202   3.922   6.394   6.311 -0.5009  2.4157 -2.2800
  185POPC   H7S21203   3.752   6.456   6.333 -0.1307 -1.1161  0.8080
  185POPC   C2821204   3.775   6.301   6.193  0.0135 -0.0809 -0.8320
  185POPC   H8R21205   3.769   6.383   6.118 -0.7629  1.2696  0.6402
  185POPC   H8S21206   3.671   6.265   6.211 -0.2670  0.9476 -0.3653
  185POPC   C2921207   3.857   6.184   6.145 -0.0804 -0.2363 -0.1777
  185POPC   H9121208   3.855   6.094   6.208  0.9718 -0.0871  0.0786
  185POPC  C21021209   3.916   6.177   6.024 -0.5705  0.0502 -0.5865
  185POPC  H10121210   3.958   6.081   5.991  0.3406  0.9426 -2.1333
  185POPC  C21121211   3.917   6.282   5.923  0.4293 -0.0800  0.5969
  185POPC  H11R21212   3.997   6.254   5.851 -0.8060 -0.6151 -0.6361
  185POPC  H11S21213   3.934   6.386   5.959 -0.1529 -0.7714  3.0179
  185POPC  C21221214   3.782   6.291   5.833 -0.0992 -0.1000  0.1591
  185POPC  H12R21215   3.801   6.383   5.774  0.4613  0.5564  1.3215
  185POPC  H12S21216   3.698   6.309   5.903  1.5299 -0.2315  2.2398
  185POPC  C21321217   3.755   6.158   5.756  0.1955  0.0853 -0.3612
  185POPC  H13R21218   3.766   6.069   5.821 -1.3190  1.0411  1.3042
  185POPC  H13S21219   3.842   6.157   5.687  0.0252  1.4123 -0.6215
  185POPC  C21421220   3.623   6.163   5.678  0.2381 -0.1341 -0.5474
  185POPC  H14R21221   3.632   6.239   5.597 -0.5607 -0.1955 -0.7044
  185POPC  H14S21222   3.540   6.204   5.740  0.7703 -1.6626  1.2584
  185POPC  C21521223   3.582   6.035   5.609 -0.2927  0.1414  0.3896
  185POPC  H15R21224   3.549   5.950   5.673 -0.4057  1.1743  1.7539
  185POPC  H15S21225   3.677   5.999   5.564 -0.6962 -1.6879  0.9174
  185POPC  C21621226   3.475   6.063   5.498  0.4690 -0.3443  0.5835
  185POPC  H16R21227   3.410   6.148   5.529  0.4277 -0.3611  0.5431
  185POPC  H16S21228   3.411   5.972   5.489  0.3030 -0.2377  0.6851
  185POPC  C21721229   3.540   6.096   5.360 -0.0477 -0.1285 -0.6173
  185POPC  H17R21230   3.597   6.008   5.324  1.3979  0.0938  1.0104
  185POPC  H17S21231   3.607   6.184   5.370 -0.7048  0.1545  2.3401
  185POPC  C21821232   3.439   6.138   5.247 -0.6275  0.1097 -0.2891
  185POPC  H18R21233   3.476   6.152   5.143 -0.2980  1.8644  0.0220
  185POPC  H18S21234   3.389   6.232   5.277 -0.0508  0.1149  0.7042
  185POPC  H18T21235   3.357   6.063   5.243  0.1101 -1.1362  3.6664
  185POPC   C3321236   4.198   6.314   6.936  0.0141  0.3724  0.9449
  185POPC   H3X21237   4.169   6.414   6.975 -0.7695  0.7476 -0.5588
  185POPC   H3Y21238   4.106   6.264   6.899 -0.1770  1.6253 -0.3766
  185POPC   C3421239   4.271   6.343   6.809 -0.3999  0.4145 -0.8581
  185POPC   H4X21240   4.321   6.250   6.773 -1.1395  0.3856 -1.8302
  185POPC   H4Y21241   4.356   6.413   6.820 -1.8235  2.1478 -0.4724
  185POPC   C3521242   4.186   6.399   6.686  0.3162  0.2832 -0.6639
  185POPC   H5X21243   4.112   6.472   6.726  1.0643  1.0008 -0.5599
  185POPC   H5Y21244   4.131   6.312   6.644  0.2794  1.0773 -2.3627
  185POPC   C3621245   4.258   6.461   6.572 -0.2160  0.3137 -0.0418
  185POPC   H6X21246   4.337   6.388   6.547  0.3609 -0.7774  4.2220
  185POPC   H6Y21247   4.306   6.557   6.602 -0.8049  0.9553 -1.0546
  185POPC   C3721248   4.165   6.495   6.453  0.3872  0.2199  0.0210
  185POPC   H7X21249   4.098   6.581   6.474  0.4576  0.2623  0.0719
  185POPC   H7Y21250   4.104   6.403   6.441  0.3687  0.1598  0.5542
  185POPC   C3821251   4.251   6.524   6.335  0.8458 -0.0250 -0.4927
  185POPC   H8X21252   4.333   6.450   6.336  2.0470  1.2025  2.2593
  185POPC   H8Y21253   4.296   6.623   6.360  1.5680 -0.5741  0.4028
  185POPC   C3921254   4.169   6.530   6.203  0.4473 -0.7282 -0.1452
  185POPC   H9X21255   4.095   6.611   6.225 -1.6032 -2.6069  0.3161
  185POPC   H9Y21256   4.119   6.433   6.186  0.1557 -0.8952  1.4810
  185POPC  C31021257   4.251   6.571   6.079 -0.2582  0.0110  0.4494
  185POPC  H10X21258   4.319   6.484   6.067 -0.6422 -0.1776 -0.3694
  185POPC  H10Y21259   4.309   6.663   6.104  0.5648  0.6599 -3.3013
  185POPC  C31121260   4.166   6.586   5.958 -0.1149 -0.6091  0.0777
  185POPC  H11X21261   4.080   6.656   5.964  1.0142  0.7353  1.1760
  185POPC  H11Y21262   4.130   6.487   5.924  0.5409 -0.3265 -1.5422
  185POPC  C31221263   4.253   6.636   5.832  0.0400 -0.8556 -0.3024
  185POPC  H12X21264   4.351   6.584   5.825  3.2333  4.4966 -1.3871
  185POPC  H12Y21265   4.283   6.742   5.844  1.5394 -1.1555 -1.1650
  185POPC  C31321266   4.169   6.620   5.707  0.1710 -0.3015 -0.2713
  185POPC  H13X21267   4.085   6.692   5.712  0.0586 -0.3673 -1.0364
  185POPC  H13Y21268   4.123   6.519   5.703 -3.1775  1.0461  1.0334
  185POPC  C31421269   4.244   6.660   5.581  0.4293  0.2081 -0.8359
  185POPC  H14X21270   4.326   6.585   5.579  2.0151  1.6268  2.5778
  185POPC  H14Y21271   4.288   6.761   5.589  0.0110  0.2776  1.0847
  185POPC  C31521272   4.157   6.657   5.451  0.5606  0.3978 -0.2086
  185POPC  H15X21273   4.087   6.740   5.430  0.3232  0.3184  0.2630
  185POPC  H15Y21274   4.091   6.568   5.457  1.2065 -0.0083  1.4612
  185POPC  C31621275   4.244   6.636   5.325 -0.0564 -0.2895  0.6685
  185POPC  H16X21276   4.183   6.622   5.233  0.1943 -2.6575  0.7845
  185POPC  H16Y21277   4.307   6.544   5.327  1.9956  1.0294 -0.2500
  185POPC  H16Z21278   4.326   6.710   5.320  1.2396 -1.7547 -2.4564
  186POPC     N21279   5.189   5.832   8.009 -0.7788 -0.6045 -0.7864
  186POPC   C1221280   5.218   5.872   7.868 -0.6505 -0.0637  0.0550
  186POPC  H12A21281   5.316   5.914   7.877 -0.2097 -1.3733  2.1427
  186POPC  H12B21282   5.154   5.950   7.830  1.2251  0.3222 -2.5308
  186POPC   C1321283   5.248   5.704   8.056  0.6845  0.0663  0.2398
  186POPC  H13A21284   5.254   5.707   8.164  0.1197 -0.1237  0.2789
  186POPC  H13B21285   5.186   5.620   8.029  1.8976 -0.9550  0.5297
  186POPC  H13C21286   5.347   5.686   8.018  0.6730 -1.1796  0.7676
  186POPC   C1421287   5.246   5.941   8.103  0.4721  0.3882  0.0506
  186POPC  H14A21288   5.354   5.931   8.101  0.7567  2.9451 -0.1427
  186POPC  H14B21289   5.228   6.038   8.060  3.3786  0.1511 -2.0044
  186POPC  H14C21290   5.206   5.927   8.202  1.4166 -2.2633  0.1475
  186POPC   C1521291   5.043   5.833   8.045  0.3197  0.3391  0.7345
  186POPC  H15A21292   4.990   5.772   7.973 -1.1174 -0.7394  2.6129
  186POPC  H15B21293   5.003   5.932   8.029 -1.2246 -0.2074  0.9965
  186POPC  H15C21294   5.021   5.787   8.140 -0.0081  0.6546  0.8174
  186POPC   C1121295   5.235   5.761   7.761  0.1910 -0.1221  0.3470
  186POPC  H11A21296   5.331   5.709   7.781 -1.6715 -3.7960  0.7117
  186POPC  H11B21297   5.242   5.795   7.656  1.3416  2.0624  1.0798
  186POPC     P21298   4.999   5.677   7.700  0.3664  0.1515  0.0711
  186POPC   O1321299   4.979   5.815   7.644 -0.0915 -0.2078  0.1427
  186POPC   O1421300   4.895   5.631   7.793  0.0022 -0.1328  0.6091
  186POPC   O1221301   5.137   5.661   7.767  0.0168 -0.0324 -0.4985
  186POPC   O1121302   5.007   5.573   7.584  0.6484  0.4691  0.2346
  186POPC    C121303   5.123   5.515   7.527  0.4555 -0.2988 -0.3925
  186POPC    HA21304   5.104   5.410   7.495  2.9302 -0.5921 -1.1081
  186POPC    HB21305   5.203   5.501   7.603 -1.9149 -0.4339  2.2694
  186POPC    C221306   5.173   5.582   7.399 -0.0448 -0.2906 -0.6262
  186POPC    HS21307   5.204   5.685   7.428 -1.5573  0.0047  0.0188
  186POPC   O2121308   5.064   5.589   7.306  0.6129 -0.7521 -0.6973
  186POPC   C2121309   5.071   5.692   7.226  0.5666 -0.3763 -0.2770
  186POPC   O2221310   5.152   5.783   7.231  0.0514 -0.0387  0.1645
  186POPC   C2221311   4.961   5.675   7.132  0.1640 -0.4140  0.1229
  186POPC   H2R21312   4.863   5.702   7.178  1.1065  0.0651  1.9481
  186POPC   H2S21313   4.950   5.568   7.103 -1.2884 -0.6774  1.5400
  186POPC    C321314   5.299   5.503   7.351 -0.1169  0.3426  0.4063
  186POPC    HX21315   5.286   5.393   7.340 -1.2871  0.6310 -1.7321
  186POPC    HY21316   5.382   5.513   7.423  1.5235  0.1705 -1.3730
  186POPC   O3121317   5.346   5.549   7.223  0.3191 -0.0526  0.0863
  186POPC   C3121318   5.420   5.666   7.226 -1.0528 -0.2261 -0.4032
  186POPC   O3221319   5.444   5.734   7.322 -0.2885 -0.0206 -0.1530
  186POPC   C3221320   5.478   5.685   7.090 -0.4070  0.0091  0.2855
  186POPC   H2X21321   5.414   5.634   7.015  0.4504 -1.9187  0.7776
  186POPC   H2Y21322   5.582   5.646   7.084 -0.5740 -0.1948 -2.1123
  186POPC   C2321323   4.974   5.762   7.004  0.2348 -0.1567 -0.7155
  186POPC   H3R21324   4.984   5.869   7.033  1.8835 -0.8070  1.3897
  186POPC   H3S21325   4.875   5.758   6.955 -1.1760  1.0492  1.8504
  186POPC   C2421326   5.058   5.715   6.895 -0.0810 -0.1247 -0.2855
  186POPC   H4R21327   5.024   5.611   6.872  1.1094 -0.7557  0.6702
  186POPC   H4S21328   5.165   5.704   6.924  1.1582 -0.6286 -4.3615
  186POPC   C2521329   5.044   5.800   6.767 -0.8122  0.8501  0.1380
  186POPC   H5R21330   5.099   5.897   6.773  0.0698  0.4038 -0.4878
  186POPC   H5S21331   4.934   5.808   6.755 -0.9464 -0.2942  0.5141
  186POPC   C2621332   5.099   5.736   6.635  0.5163  0.8467  0.8013
  186POPC   H6R21333   5.067   5.630   6.621 -0.5319  1.1342  0.9333
  186POPC   H6S21334   5.207   5.712   6.645  0.0965 -2.2022 -0.6423
  186POPC   C2721335   5.061   5.807   6.508  0.5118  0.0560 -0.2119
  186POPC   H7R21336   4.958   5.846   6.524  1.0265  0.9880  1.0356
  186POPC   H7S21337   5.065   5.738   6.422  2.5740  1.8088 -1.6633
  186POPC   C2821338   5.143   5.934   6.477  0.0397 -0.2749 -0.5740
  186POPC   H8R21339   5.246   5.895   6.460  0.4021  0.6352 -0.4861
  186POPC   H8S21340   5.135   6.000   6.565  2.2172  1.5550 -1.6379
  186POPC   C2921341   5.107   6.019   6.356 -0.0627 -0.4978  0.8255
  186POPC   H9121342   5.017   6.078   6.376 -0.7733 -0.5262 -1.9356
  186POPC  C21021343   5.174   6.033   6.244  0.0734 -0.3961  0.7310
  186POPC  H10121344   5.127   6.100   6.171 -1.2610 -1.4898  0.5439
  186POPC  C21121345   5.307   5.974   6.201 -0.1519  0.4679  0.0320
  186POPC  H11R21346   5.342   5.892   6.267 -3.5141 -1.9672 -0.9389
  186POPC  H11S21347   5.379   6.059   6.203 -0.3139  0.6106  2.2039
  186POPC  C21221348   5.306   5.917   6.059  0.0124 -0.2465 -0.2864
  186POPC  H12R21349   5.409   5.888   6.028  0.6993 -0.8297  2.3010
  186POPC  H12S21350   5.268   5.991   5.985 -0.5588  2.5853  2.6218
  186POPC  C21321351   5.236   5.782   6.043  0.1530 -0.7324 -0.2172
  186POPC  H13R21352   5.134   5.784   6.089  0.1894  3.1538  0.0226
  186POPC  H13S21353   5.307   5.711   6.091  2.1048  2.3324  1.7623
  186POPC  C21421354   5.214   5.728   5.901 -0.3128 -0.0624  0.1742
  186POPC  H14R21355   5.177   5.806   5.831  0.9216 -0.5277 -1.0493
  186POPC  H14S21356   5.154   5.634   5.905 -0.3804 -0.0325 -0.0657
  186POPC  C21521357   5.340   5.694   5.821 -0.0432  0.2934  0.1323
  186POPC  H15R21358   5.384   5.603   5.867  1.3948  1.0488  0.3089
  186POPC  H15S21359   5.415   5.775   5.831 -0.0597  0.3275 -0.0080
  186POPC  C21621360   5.311   5.655   5.679  0.0155 -0.2501  0.2370
  186POPC  H16R21361   5.204   5.624   5.681 -0.0979  0.0748 -0.4203
  186POPC  H16S21362   5.378   5.570   5.654  0.9590  0.9696 -1.6240
  186POPC  C21721363   5.326   5.769   5.578 -0.3608 -0.1139  0.4138
  186POPC  H17R21364   5.421   5.818   5.606  0.1239 -0.5174 -0.4947
  186POPC  H17S21365   5.245   5.843   5.595  0.4130  0.5355  1.4564
  186POPC  C21821366   5.337   5.732   5.433 -0.3849 -0.2810  0.5684
  186POPC  H18R21367   5.420   5.667   5.399 -0.5563  0.4697 -1.4031
  186POPC  H18S21368   5.357   5.831   5.385 -0.1335 -0.6332 -0.0537
  186POPC  H18T21369   5.238   5.692   5.404  0.3421  0.4178 -3.4161
  186POPC   C3321370   5.469   5.841   7.062  0.4567 -0.2461 -0.2081
  186POPC   H3X21371   5.549   5.901   7.111 -0.0872  0.0474  0.3419
  186POPC   H3Y21372   5.377   5.874   7.115  0.4940 -1.7662  0.8540
  186POPC   C3421373   5.479   5.874   6.908 -0.1907  0.5009  0.0379
  186POPC   H4X21374   5.481   5.984   6.890 -0.7057  0.8465  1.8475
  186POPC   H4Y21375   5.377   5.848   6.871 -2.6478  3.5209  3.7856
  186POPC   C3521376   5.584   5.798   6.828 -0.5077 -0.1438 -0.1480
  186POPC   H5X21377   5.607   5.695   6.861  3.4669 -0.0489 -1.9724
  186POPC   H5Y21378   5.683   5.846   6.845 -1.0665  0.4491  1.5654
  186POPC   C3621379   5.538   5.813   6.688 -1.0224 -0.2729  0.1312
  186POPC   H6X21380   5.533   5.923   6.670  0.2010 -0.3535 -0.8348
  186POPC   H6Y21381   5.438   5.772   6.663 -1.2326 -0.3897  1.1438
  186POPC   C3721382   5.643   5.761   6.591 -0.5023  0.2244 -0.2782
  186POPC   H7X21383   5.680   5.657   6.604  2.2737  0.8694 -2.2084
  186POPC   H7Y21384   5.733   5.824   6.606 -0.1736 -0.6471  1.7607
  186POPC   C3821385   5.588   5.780   6.449 -0.4821  0.2335 -1.7083
  186POPC   H8X21386   5.593   5.887   6.420  2.8095  0.8281  0.5571
  186POPC   H8Y21387   5.486   5.736   6.440 -0.3964 -0.1744 -0.7645
  186POPC   C3921388   5.677   5.714   6.344  0.3488 -0.1206  0.8292
  186POPC   H9X21389   5.713   5.612   6.371 -1.1559 -0.5928  1.1570
  186POPC   H9Y21390   5.770   5.773   6.328 -0.0132  0.7468  1.7914
  186POPC  C31021391   5.604   5.692   6.214  0.0115 -0.2943  0.7270
  186POPC  H10X21392   5.541   5.781   6.197 -0.9999 -0.8496  1.5142
  186POPC  H10Y21393   5.529   5.610   6.213 -0.2780 -0.0306  0.1316
  186POPC  C31121394   5.705   5.661   6.100 -0.3965  0.0564 -0.0187
  186POPC  H11X21395   5.752   5.564   6.128 -1.1925  0.1507  1.8619
  186POPC  H11Y21396   5.780   5.742   6.113 -0.7607  0.2291  1.2409
  186POPC  C31221397   5.659   5.657   5.952  0.5752 -0.0158 -0.5195
  186POPC  H12X21398   5.595   5.744   5.928  0.3668  0.0312  0.1821
  186POPC  H12Y21399   5.584   5.575   5.942 -1.7217  2.0710 -1.2634
  186POPC  C31321400   5.767   5.661   5.842  0.4018 -0.5152  0.1531
  186POPC  H13X21401   5.821   5.566   5.864  2.4233  0.9550  2.0947
  186POPC  H13Y21402   5.840   5.744   5.852 -0.6955  0.6073 -0.8881
  186POPC  C31421403   5.713   5.681   5.699  0.2375  0.0864 -0.5314
  186POPC  H14X21404   5.683   5.787   5.685  1.9964  0.7262  0.1851
  186POPC  H14Y21405   5.631   5.611   5.675  0.1034  0.3880 -0.9571
  186POPC  C31521406   5.827   5.650   5.595  0.2146 -0.2451 -0.3661
  186POPC  H15X21407   5.843   5.541   5.591 -0.1332 -0.2619 -1.9872
  186POPC  H15Y21408   5.923   5.696   5.628  0.2317  0.3531 -1.2232
  186POPC  C31621409   5.782   5.690   5.454  0.1259  0.5694 -0.0184
  186POPC  H16X21410   5.689   5.637   5.423  1.6802 -0.7417 -2.8672
  186POPC  H16Y21411   5.850   5.653   5.374  1.0856  1.3504  0.4123
  186POPC  H16Z21412   5.776   5.801   5.449  3.1192  0.7754 -1.5117
  187POPC     N21413   0.772   6.328   2.781  0.0669  0.8810 -0.2748
  187POPC   C1221414   0.761   6.436   2.891 -0.3549  0.2661  0.6486
  187POPC  H12A21415   0.829   6.409   2.971  0.9179  1.7290  0.1072
  187POPC  H12B21416   0.661   6.431   2.932 -0.6817 -1.0437 -0.2690
  187POPC   C1321417   0.721   6.207   2.847  0.3071 -0.1511  0.0077
  187POPC  H13A21418   0.769   6.187   2.942  1.2542 -2.7586 -0.9392
  187POPC  H13B21419   0.613   6.205   2.859  0.1903  3.4212  0.6052
  187POPC  H13C21420   0.739   6.122   2.783 -0.9843  0.7414 -1.6161
  187POPC   C1421421   0.685   6.357   2.666 -0.0604 -0.2685  0.2125
  187POPC  H14A21422   0.581   6.359   2.697  0.5306 -1.4963  2.4138
  187POPC  H14B21423   0.721   6.447   2.618 -2.0652 -0.2259 -1.4075
  187POPC  H14C21424   0.687   6.277   2.594  1.8845 -0.0064 -0.0805
  187POPC   C1521425   0.916   6.308   2.739  0.7378 -0.2859  0.6776
  187POPC  H15A21426   0.922   6.235   2.659 -2.1527  1.4902 -1.3267
  187POPC  H15B21427   0.982   6.282   2.820  1.2187 -0.2276  0.3124
  187POPC  H15C21428   0.944   6.403   2.697  0.8935 -0.1476  1.0921
  187POPC   C1121429   0.799   6.587   2.853  0.2762 -0.8007  1.1216
  187POPC  H11A21430   0.903   6.592   2.816 -0.4767  1.4741 -0.9735
  187POPC  H11B21431   0.793   6.645   2.947 -0.7249  0.7445  0.1490
  187POPC     P21432   0.569   6.706   2.763  0.5021  0.1403 -0.3342
  187POPC   O1321433   0.489   6.646   2.656  0.6165  0.1062 -0.2479
  187POPC   O1421434   0.573   6.853   2.770  0.0912  0.3441 -0.4030
  187POPC   O1221435   0.717   6.647   2.746  0.1063 -0.0914  0.3226
  187POPC   O1121436   0.519   6.639   2.902 -0.0306  0.2897  0.1312
  187POPC    C121437   0.510   6.716   3.025 -0.5605 -0.4865  0.3079
  187POPC    HA21438   0.418   6.778   3.032 -1.3488 -1.6508  0.4928
  187POPC    HB21439   0.603   6.776   3.036 -0.4547 -0.6206  0.1515
  187POPC    C221440   0.511   6.625   3.149  0.2597  0.0257  0.2743
  187POPC    HS21441   0.604   6.565   3.142 -0.0597 -0.3618 -0.8622
  187POPC   O2121442   0.393   6.538   3.143  0.5557 -0.3536 -0.7237
  187POPC   C2121443   0.409   6.412   3.172  0.4281 -0.4229  0.0035
  187POPC   O2221444   0.509   6.355   3.205 -0.6539  0.6095 -0.0566
  187POPC   C2221445   0.281   6.345   3.145 -0.0554  0.3324  0.0356
  187POPC   H2R21446   0.301   6.277   3.059  0.3733  0.3971  0.0816
  187POPC   H2S21447   0.210   6.422   3.109  0.8607  0.6397 -1.1873
  187POPC    C321448   0.506   6.715   3.275  0.0561 -0.0810 -0.1318
  187POPC    HX21449   0.417   6.780   3.263 -0.5347 -1.0188 -0.9942
  187POPC    HY21450   0.594   6.783   3.266 -0.3771  0.6775  1.1096
  187POPC   O3121451   0.511   6.647   3.397  0.2109  0.1163  0.0552
  187POPC   C3121452   0.627   6.613   3.447 -0.0722 -0.5669  0.0683
  187POPC   O3221453   0.737   6.620   3.398 -0.2334 -0.1610 -0.1230
  187POPC   C3221454   0.594   6.529   3.577 -0.5167 -0.3681  0.7951
  187POPC   H2X21455   0.568   6.424   3.553 -1.8594  0.3155 -0.9679
  187POPC   H2Y21456   0.501   6.568   3.624 -0.5227 -0.4877  0.8831
  187POPC   C2321457   0.237   6.274   3.272  0.1484  0.2653  1.0467
  187POPC   H3R21458   0.309   6.193   3.297 -2.3965 -2.1577  0.9642
  187POPC   H3S21459   0.138   6.233   3.245  0.1977  0.3602  0.7223
  187POPC   C2421460   0.215   6.369   3.390 -0.4873 -0.1873 -0.3883
  187POPC   H4R21461   0.181   6.466   3.348 -1.4015 -0.2642  0.1590
  187POPC   H4S21462   0.318   6.385   3.428 -0.2053  0.5269 -1.4201
  187POPC   C2521463   0.125   6.332   3.502 -0.1039 -0.1863 -0.0370
  187POPC   H5R21464   0.023   6.304   3.468 -0.3208 -2.7918  2.3838
  187POPC   H5S21465   0.105   6.416   3.572 -1.1017 -1.9537  1.9164
  187POPC   C2621466   0.178   6.218   3.592  0.2553 -0.0064 -0.2626
  187POPC   H6R21467   0.288   6.222   3.606  0.4749 -0.4104 -1.7166
  187POPC   H6S21468   0.153   6.122   3.543 -1.0746  1.3224 -2.3395
  187POPC   C2721469   0.109   6.215   3.727  0.4538 -0.6199 -0.1038
  187POPC   H7R21470   0.129   6.123   3.786  0.7606  0.6094  1.7868
  187POPC   H7S21471  -0.001   6.216   3.710  0.1473 -0.7679  1.7021
  187POPC   C2821472   0.145   6.327   3.830  0.0707  0.7836 -0.0029
  187POPC   H8R21473   0.062   6.320   3.903 -0.2068 -0.2216 -0.3993
  187POPC   H8S21474   0.145   6.426   3.778 -0.0008  0.6303 -0.2968
  187POPC   C2921475   0.277   6.312   3.894  0.1853 -0.2458 -0.6876
  187POPC   H9121476   0.360   6.319   3.822  0.4915  1.3133 -0.2157
  187POPC  C21021477   0.296   6.287   4.025 -0.5007  0.0164  0.1088
  187POPC  H10121478   0.401   6.286   4.059 -1.0793 -0.9198  2.0312
  187POPC  C21121479   0.202   6.272   4.144 -0.0186  1.0268  0.3578
  187POPC  H11R21480   0.096   6.250   4.118  0.7680 -1.5148 -1.0178
  187POPC  H11S21481   0.216   6.360   4.210  1.4373  0.2775  1.0997
  187POPC  C21221482   0.225   6.148   4.235 -0.0444 -0.1715  0.9627
  187POPC  H12R21483   0.334   6.160   4.255  0.1233 -0.5308  0.2784
  187POPC  H12S21484   0.213   6.059   4.170 -0.7087 -0.5469  1.5938
  187POPC  C21321485   0.131   6.129   4.356 -1.0622  0.3667  0.8593
  187POPC  H13R21486   0.143   6.023   4.387  2.2882 -0.6711 -3.0874
  187POPC  H13S21487   0.028   6.137   4.315 -0.5334 -1.1652 -0.9320
  187POPC  C21421488   0.178   6.219   4.472  0.2554 -0.3227 -0.3122
  187POPC  H14R21489   0.180   6.321   4.429  1.3368 -0.2514 -0.1230
  187POPC  H14S21490   0.282   6.194   4.501 -0.0962 -0.5656  0.7902
  187POPC  C21521491   0.090   6.203   4.594  0.1517  0.0052 -0.1401
  187POPC  H15R21492   0.079   6.099   4.631  0.0520 -0.0009 -0.1851
  187POPC  H15S21493  -0.010   6.242   4.566  0.2302  0.2624 -0.0604
  187POPC  C21621494   0.143   6.294   4.712  0.0649 -0.1797 -0.5152
  187POPC  H16R21495   0.120   6.401   4.691  0.2797 -0.0537 -0.1184
  187POPC  H16S21496   0.253   6.282   4.715  0.3273  2.0109  0.4532
  187POPC  C21721497   0.102   6.262   4.857  0.4418  0.0720  0.5149
  187POPC  H17R21498   0.006   6.313   4.880 -0.1686 -1.2528  1.0393
  187POPC  H17S21499   0.174   6.314   4.924  1.0521  0.6759 -0.5936
  187POPC  C21821500   0.091   6.117   4.890  0.4406 -0.0638 -0.6367
  187POPC  H18R21501   0.006   6.064   4.840 -0.0209  0.4753 -0.4278
  187POPC  H18S21502   0.072   6.104   4.998  1.7446  1.7276 -0.1670
  187POPC  H18T21503   0.183   6.067   4.852 -0.1936 -0.9397 -1.0825
  187POPC   C3321504   0.710   6.522   3.686  0.2380 -0.3502  0.6339
  187POPC   H3X21505   0.767   6.617   3.695 -0.0124 -0.3886  3.0224
  187POPC   H3Y21506   0.787   6.451   3.649  1.6975  2.4977 -2.4349
  187POPC   C3421507   0.664   6.493   3.832  0.4450  0.1182  0.8592
  187POPC   H4X21508   0.652   6.383   3.841 -2.3960  0.2447 -0.4048
  187POPC   H4Y21509   0.567   6.541   3.859  0.2980  0.2781  0.0497
  187POPC   C3521510   0.763   6.559   3.929 -0.0963  0.4222 -0.5243
  187POPC   H5X21511   0.760   6.671   3.927  1.6899  0.5658  1.5933
  187POPC   H5Y21512   0.861   6.521   3.893  0.3116 -1.2191  2.0826
  187POPC   C3621513   0.725   6.513   4.075  0.3743  0.1200  0.1179
  187POPC   H6X21514   0.746   6.404   4.076 -1.8304 -0.3473 -0.3785
  187POPC   H6Y21515   0.616   6.526   4.090  0.0878 -0.9685 -0.8552
  187POPC   C3721516   0.797   6.584   4.186  0.7208  0.6334 -0.2414
  187POPC   H7X21517   0.768   6.692   4.186 -0.3991  0.3391 -0.3163
  187POPC   H7Y21518   0.903   6.569   4.158  0.4885  0.5224 -1.0747
  187POPC   C3821519   0.766   6.526   4.323  0.6227 -0.1287 -0.4915
  187POPC   H8X21520   0.778   6.416   4.320 -0.7087 -0.2856 -0.8480
  187POPC   H8Y21521   0.663   6.554   4.355  1.0375 -0.7706  1.5594
  187POPC   C3921522   0.856   6.585   4.435  0.4190 -0.3899 -0.9976
  187POPC   H9X21523   0.858   6.695   4.417 -0.9176  0.0110  1.0135
  187POPC   H9Y21524   0.957   6.543   4.456  0.1863 -0.5926 -0.2502
  187POPC  C31021525   0.790   6.570   4.574 -0.3226 -0.5517 -0.1330
  187POPC  H10X21526   0.751   6.467   4.565  0.2346 -0.6422 -1.7686
  187POPC  H10Y21527   0.702   6.638   4.583  0.3525  0.3769 -0.3792
  187POPC  C31121528   0.888   6.584   4.693  0.4692 -0.0467 -0.3970
  187POPC  H11X21529   0.959   6.662   4.660 -0.7620  0.3922 -2.2062
  187POPC  H11Y21530   0.936   6.484   4.684  0.9539  0.2770 -1.5790
  187POPC  C31221531   0.825   6.612   4.832  0.0683 -0.2468  0.7116
  187POPC  H12X21532   0.741   6.542   4.849 -1.1753  1.3057  1.1625
  187POPC  H12Y21533   0.783   6.714   4.828  2.4235  0.7839  0.5965
  187POPC  C31321534   0.925   6.591   4.949 -0.0119 -0.4961 -0.0669
  187POPC  H13X21535   1.001   6.672   4.938 -0.9056  0.2305 -1.0633
  187POPC  H13Y21536   0.978   6.494   4.935  1.6318  0.5390 -1.4608
  187POPC  C31421537   0.840   6.585   5.073 -0.6401 -0.6543 -0.2444
  187POPC  H14X21538   0.777   6.496   5.052 -2.4201  0.4967  0.0173
  187POPC  H14Y21539   0.780   6.678   5.077  0.2056 -0.0938  3.8409
  187POPC  C31521540   0.914   6.558   5.205 -0.1044 -0.0685  0.1126
  187POPC  H15X21541   1.013   6.609   5.206  0.1326 -0.5114 -0.3379
  187POPC  H15Y21542   0.935   6.449   5.209  1.8591  0.2515 -0.3417
  187POPC  C31621543   0.828   6.601   5.326 -0.1057 -0.4819 -0.5071
  187POPC  H16X21544   0.737   6.538   5.329  0.6067 -1.5558 -1.0515
  187POPC  H16Y21545   0.811   6.709   5.308 -0.8107 -0.7156 -1.2761
  187POPC  H16Z21546   0.888   6.595   5.419  0.9072  2.2047 -0.8992
  188POPC     N21547   1.085   5.589   2.591  0.1590 -0.0232 -0.2377
  188POPC   C1221548   0.969   5.555   2.686 -0.0737 -0.4721 -0.2589
  188POPC  H12A21549   0.911   5.476   2.640 -2.0196 -0.2406  1.6503
  188POPC  H12B21550   0.904   5.640   2.694 -0.5374 -0.9274  1.1234
  188POPC   C1321551   1.026   5.616   2.454 -0.2865 -0.1299 -0.5933
  188POPC  H13A21552   0.933   5.670   2.458 -0.4290 -0.4349  0.7370
  188POPC  H13B21553   1.097   5.656   2.383 -0.6488 -1.4543 -1.7701
  188POPC  H13C21554   0.998   5.523   2.406  2.6688 -0.6555 -1.4945
  188POPC   C1421555   1.148   5.714   2.633 -0.0250  0.3968  0.1220
  188POPC  H14A21556   1.083   5.800   2.630 -0.6822 -0.0312  1.2265
  188POPC  H14B21557   1.186   5.705   2.734 -0.8702 -0.3538  0.3921
  188POPC  H14C21558   1.239   5.730   2.577  0.3161 -1.3638  0.1087
  188POPC   C1521559   1.181   5.479   2.579 -0.6054 -0.2105 -0.0506
  188POPC  H15A21560   1.144   5.404   2.511 -2.2210 -0.0234  0.5597
  188POPC  H15B21561   1.200   5.431   2.674 -1.3917  0.4292  0.4464
  188POPC  H15C21562   1.276   5.518   2.547 -0.5036 -0.7556 -0.4239
  188POPC   C1121563   1.009   5.520   2.833 -0.2457  0.2632 -0.0809
  188POPC  H11A21564   0.925   5.529   2.905 -0.5590 -1.2315 -0.2202
  188POPC  H11B21565   1.096   5.576   2.872  1.0478 -1.4864 -0.3568
  188POPC     P21566   1.148   5.327   2.947  0.2908  0.3030 -0.2802
  188POPC   O1321567   1.279   5.392   2.960  0.4958 -0.1805  0.7593
  188POPC   O1421568   1.153   5.183   2.922 -0.2217  0.9367 -0.1669
  188POPC   O1221569   1.060   5.383   2.831  0.7128 -1.1020  0.1031
  188POPC   O1121570   1.054   5.359   3.076  0.1381 -0.2065  0.5333
  188POPC    C121571   0.922   5.314   3.100  0.6775 -0.6163 -0.3221
  188POPC    HA21572   0.890   5.217   3.058 -0.1836  0.2733 -1.7880
  188POPC    HB21573   0.856   5.392   3.056 -0.8819 -1.7236 -0.0390
  188POPC    C221574   0.884   5.301   3.256 -0.1335 -0.0053  0.6619
  188POPC    HS21575   0.774   5.287   3.262 -0.3070  0.9590  0.0053
  188POPC   O2121576   0.931   5.419   3.329  0.3440  1.0205  0.1702
  188POPC   C2121577   0.841   5.510   3.314 -0.3780 -0.2616 -0.3135
  188POPC   O2221578   0.738   5.507   3.244  0.3406 -0.0264  0.5424
  188POPC   C2221579   0.881   5.641   3.382 -0.4105 -0.2773  0.0869
  188POPC   H2R21580   0.863   5.717   3.303  1.0956 -0.8713 -0.8835
  188POPC   H2S21581   0.989   5.634   3.410  0.0507  1.0120 -1.2017
  188POPC    C321582   0.958   5.186   3.312 -0.3169 -0.1250  0.1032
  188POPC    HX21583   1.067   5.207   3.301 -0.1662 -1.6496 -1.9303
  188POPC    HY21584   0.948   5.091   3.256  2.5652 -0.3313 -0.2209
  188POPC   O3121585   0.911   5.164   3.448 -0.1257 -0.3649 -0.0164
  188POPC   C3121586   0.994   5.195   3.545  0.0465  0.1231  0.4321
  188POPC   O3221587   1.091   5.270   3.535  0.5812  0.0297 -0.2704
  188POPC   C3221588   0.942   5.128   3.675 -0.9331 -0.2046  0.6369
  188POPC   H2X21589   0.981   5.024   3.677 -1.3621 -0.4981 -2.0673
  188POPC   H2Y21590   0.831   5.123   3.672 -0.9991 -0.9239  2.9757
  188POPC   C2321591   0.806   5.669   3.510  0.9006 -0.5884  0.2144
  188POPC   H3R21592   0.698   5.649   3.498  0.7333  0.2385  0.2928
  188POPC   H3S21593   0.811   5.775   3.542 -4.4260 -0.3216  0.9575
  188POPC   C2421594   0.847   5.579   3.636  0.3836  0.1499  0.3108
  188POPC   H4R21595   0.949   5.615   3.661  0.0873  1.0776  0.2173
  188POPC   H4S21596   0.845   5.472   3.604 -0.1286  0.4903 -0.8387
  188POPC   C2521597   0.749   5.603   3.757  0.1753  0.6249  0.7120
  188POPC   H5R21598   0.666   5.531   3.739 -0.2869  1.7956 -2.5084
  188POPC   H5S21599   0.702   5.702   3.742  0.4837  0.4253 -2.0367
  188POPC   C2621600   0.818   5.597   3.891 -0.2675 -0.0632 -0.2365
  188POPC   H6R21601   0.877   5.688   3.917  2.0616 -1.8940  1.3873
  188POPC   H6S21602   0.893   5.515   3.882  0.9679  0.8259  1.2966
  188POPC   C2721603   0.730   5.556   4.010 -0.2193  0.2984  0.1115
  188POPC   H7R21604   0.677   5.460   3.992 -0.4530  0.6564 -1.2153
  188POPC   H7S21605   0.629   5.602   4.007  0.8339  2.7780 -0.4021
  188POPC   C2821606   0.799   5.562   4.152 -0.9288 -0.4987  0.0923
  188POPC   H8R21607   0.903   5.526   4.139 -0.4220 -0.3200  3.0211
  188POPC   H8S21608   0.754   5.478   4.209  0.6586 -0.1374  1.9618
  188POPC   C2921609   0.788   5.691   4.218  0.0882 -0.1992  0.0485
  188POPC   H9121610   0.794   5.785   4.161  1.7524  1.5044  2.7792
  188POPC  C21021611   0.796   5.702   4.351  0.6763  0.0852 -0.5438
  188POPC  H10121612   0.789   5.804   4.392  0.4870 -0.7962  1.7396
  188POPC  C21121613   0.793   5.591   4.451  0.1878 -0.6934  0.0199
  188POPC  H11R21614   0.876   5.527   4.415  0.2110  0.1301 -1.4592
  188POPC  H11S21615   0.706   5.521   4.450  0.4640 -1.0385 -0.1854
  188POPC  C21221616   0.819   5.630   4.599 -0.8763  0.8133 -0.2475
  188POPC  H12R21617   0.915   5.685   4.602 -0.3444 -0.1341  1.2324
  188POPC  H12S21618   0.825   5.538   4.661  0.0643  0.2609 -1.1384
  188POPC  C21321619   0.710   5.709   4.671  0.0753  0.2556 -0.4162
  188POPC  H13R21620   0.623   5.639   4.671  0.1573 -0.0019  3.0750
  188POPC  H13S21621   0.684   5.800   4.612 -0.2638  0.4965  0.0908
  188POPC  C21421622   0.732   5.730   4.820 -0.2154  0.2997 -0.2355
  188POPC  H14R21623   0.808   5.808   4.844  0.8839 -0.9037  0.3619
  188POPC  H14S21624   0.766   5.640   4.877 -0.4385  1.3257  1.5926
  188POPC  C21521625   0.607   5.792   4.887 -0.2484  0.8558 -0.2694
  188POPC  H15R21626   0.537   5.709   4.908  2.5985 -1.3925  0.9889
  188POPC  H15S21627   0.554   5.859   4.816  0.5463 -1.2960 -3.0878
  188POPC  C21621628   0.620   5.853   5.026 -0.5723  0.1050  0.0581
  188POPC  H16R21629   0.517   5.880   5.059 -0.6656  2.0764 -1.6722
  188POPC  H16S21630   0.687   5.941   5.018  0.7169 -0.8366  0.1131
  188POPC  C21721631   0.668   5.759   5.136  0.5217 -0.2230 -0.0627
  188POPC  H17R21632   0.763   5.712   5.106  1.0246 -0.1349  1.3073
  188POPC  H17S21633   0.591   5.680   5.147 -1.2596  1.4416  0.1716
  188POPC  C21821634   0.685   5.829   5.267  0.0785  0.2472 -0.2749
  188POPC  H18R21635   0.761   5.909   5.250 -0.1150  0.9037  1.7595
  188POPC  H18S21636   0.702   5.766   5.356 -4.1124  0.7007  1.0288
  188POPC  H18T21637   0.594   5.888   5.290  0.5203  0.3734  1.2080
  188POPC   C3321638   0.979   5.197   3.806  0.2167  0.2517  0.1344
  188POPC   H3X21639   0.932   5.298   3.807  1.2685  0.7665  1.4840
  188POPC   H3Y21640   1.090   5.201   3.810  0.2853 -0.0859 -1.1658
  188POPC   C3421641   0.932   5.120   3.939  0.3429 -0.5005  0.3653
  188POPC   H4X21642   0.966   5.014   3.938 -1.8682 -1.2569  1.2456
  188POPC   H4Y21643   0.822   5.118   3.949  0.2711  0.8445  0.0936
  188POPC   C3521644   0.993   5.191   4.059 -0.3760  0.1290 -0.6347
  188POPC   H5X21645   0.960   5.297   4.052  1.7408  0.7202 -3.6067
  188POPC   H5Y21646   1.102   5.198   4.041 -0.3244 -0.3751 -0.5387
  188POPC   C3621647   0.935   5.136   4.193  0.5108  0.0580 -0.3563
  188POPC   H6X21648   0.962   5.028   4.196  2.1131  0.4469  1.5659
  188POPC   H6Y21649   0.828   5.163   4.187  0.4319 -0.0417  0.5128
  188POPC   C3721650   0.993   5.211   4.313 -0.2006 -0.2281 -0.7000
  188POPC   H7X21651   0.965   5.319   4.319  1.7698  0.2333  1.7484
  188POPC   H7Y21652   1.101   5.190   4.300 -0.1776 -0.5394 -0.0464
  188POPC   C3821653   0.949   5.150   4.444  0.5881 -0.2034  0.1275
  188POPC   H8X21654   0.981   5.216   4.527 -4.6252  1.0339  1.5513
  188POPC   H8Y21655   0.982   5.047   4.469  0.8727 -0.1859 -0.1644
  188POPC   C3921656   0.796   5.152   4.468 -0.7660 -0.2093 -0.1088
  188POPC   H9X21657   0.750   5.076   4.402 -1.2421  1.0221 -1.2308
  188POPC   H9Y21658   0.755   5.251   4.441  1.5613  0.4929 -1.3676
  188POPC  C31021659   0.761   5.122   4.612 -0.1889 -0.2379 -0.4930
  188POPC  H10X21660   0.841   5.059   4.657 -1.6918 -1.7326  0.2035
  188POPC  H10Y21661   0.669   5.059   4.621  0.5724 -1.2406  0.5934
  188POPC  C31121662   0.762   5.247   4.709  0.5782 -0.7450  0.6427
  188POPC  H11X21663   0.679   5.315   4.677  1.2403 -0.2216  0.0066
  188POPC  H11Y21664   0.860   5.298   4.701 -0.1404  0.4860 -1.2404
  188POPC  C31221665   0.747   5.202   4.861 -0.1330  0.4403  0.0137
  188POPC  H12X21666   0.665   5.128   4.878  0.9558 -0.3787  2.1278
  188POPC  H12Y21667   0.716   5.299   4.904  0.3368  0.7690 -0.3878
  188POPC  C31321668   0.882   5.150   4.915  0.0902  0.2411  0.4616
  188POPC  H13X21669   0.952   5.234   4.898  1.1581 -0.9690 -1.3784
  188POPC  H13Y21670   0.909   5.064   4.851 -0.6986 -0.2165  0.7284
  188POPC  C31421671   0.886   5.097   5.061  0.5820  0.5528  0.3279
  188POPC  H14X21672   0.980   5.055   5.101 -0.9952 -0.0808  3.7317
  188POPC  H14Y21673   0.814   5.012   5.056 -1.7343  2.4479 -1.1111
  188POPC  C31521674   0.848   5.196   5.164  0.0977  0.9986  0.3250
  188POPC  H15X21675   0.756   5.253   5.141  0.3992  1.8627  1.1469
  188POPC  H15Y21676   0.924   5.278   5.164  0.8978  0.2854 -0.7318
  188POPC  C31621677   0.825   5.128   5.299  0.4837 -0.0210 -0.6064
  188POPC  H16X21678   0.915   5.069   5.327 -0.2201 -0.5941  0.4833
  188POPC  H16Y21679   0.740   5.057   5.294 -2.0295  2.7801  0.1306
  188POPC  H16Z21680   0.815   5.210   5.372  2.4876 -0.9770  0.8355
  189SAPI   C1221681   5.322   1.879   7.311  0.1522  0.5160  0.2517
  189SAPI    H221682   5.314   1.826   7.214 -1.8942  2.5810 -0.8019
  189SAPI    O221683   5.420   1.814   7.398 -0.0315 -0.9978  1.0239
  189SAPI   HO221684   5.443   1.732   7.352 -2.1365  0.2735 -2.7072
  189SAPI   C1321685   5.373   2.017   7.265  0.0190  0.0434 -0.0091
  189SAPI    H321686   5.304   2.067   7.194 -1.6000 -0.4786  1.1241
  189SAPI    O321687   5.493   2.010   7.194 -0.4200  0.3189  0.8862
  189SAPI   HO321688   5.565   1.960   7.234 -0.2758 -0.6134 -0.4709
  189SAPI   C1421689   5.391   2.107   7.389 -0.1345  0.6645  0.0610
  189SAPI    H421690   5.472   2.059   7.448 -0.1026 -2.6999 -2.4601
  189SAPI    O421691   5.436   2.236   7.361 -0.1630  0.4472  0.3549
  189SAPI   HO421692   5.508   2.229   7.298 -0.5431  0.5125 -0.0928
  189SAPI   C1521693   5.271   2.106   7.477  0.4265 -0.0821 -0.0052
  189SAPI    H521694   5.194   2.171   7.432  0.3278  0.6375  1.1689
  189SAPI    O521695   5.302   2.166   7.608  0.1350  0.7836  0.3618
  189SAPI   HO521696   5.229   2.196   7.663 -1.1802 -1.1356 -0.2232
  189SAPI   C1621697   5.199   1.968   7.504  0.5386  0.4677  0.2361
  189SAPI    H621698   5.267   1.913   7.574  0.7184  1.3746  0.7940
  189SAPI    O621699   5.076   1.982   7.566 -0.1444  0.2198  0.3707
  189SAPI   HO621700   5.005   1.985   7.501 -0.4214 -0.5421  0.6257
  189SAPI   C1121701   5.192   1.891   7.379  0.5031 -0.0652 -0.8215
  189SAPI    H121702   5.124   1.953   7.316 -1.5180 -2.0155 -0.6889
  189SAPI     P21703   4.979   1.719   7.377  0.1596 -0.1346  0.7090
  189SAPI   O1321704   4.904   1.827   7.439 -0.2983  0.2059  0.2113
  189SAPI   O1421705   4.963   1.587   7.429  0.0688 -0.6034  0.6350
  189SAPI   O1221706   5.143   1.751   7.394  0.3513 -0.9499  0.7656
  189SAPI   O1121707   4.947   1.710   7.221 -1.2369  0.0282 -0.6386
  189SAPI    C121708   4.815   1.696   7.170  0.9064 -0.3186  0.4363
  189SAPI    HA21709   4.746   1.673   7.253  0.0514  1.5035  0.2757
  189SAPI    HB21710   4.784   1.795   7.130  1.7074 -0.7787 -1.4175
  189SAPI    C221711   4.801   1.590   7.055 -0.6083 -0.0933 -0.2641
  189SAPI    HS21712   4.884   1.522   7.086 -2.7201 -3.3882 -1.3032
  189SAPI   O2121713   4.821   1.661   6.928  0.5113  0.6136  0.1357
  189SAPI   C2121714   4.900   1.603   6.840  0.0568  0.6075  0.6290
  189SAPI   O2221715   4.941   1.487   6.847  0.0884 -0.4661  0.0764
  189SAPI   C2221716   4.945   1.714   6.741  0.0165  0.0109 -0.1153
  189SAPI   H2R21717   4.883   1.806   6.742 -1.3846 -0.8725 -1.5662
  189SAPI   H2S21718   5.050   1.738   6.768 -0.5422  1.5654  0.8156
  189SAPI    C321719   4.669   1.506   7.049  0.1572  0.1384  0.6000
  189SAPI    HX21720   4.588   1.575   7.018  0.7266  0.4907 -0.1187
  189SAPI    HY21721   4.635   1.469   7.148 -2.0417 -1.2723 -0.6238
  189SAPI   O3121722   4.682   1.390   6.965  0.4124 -0.1383  0.4123
  189SAPI   C3121723   4.585   1.302   6.943  1.1760 -0.1500  0.2729
  189SAPI   O3221724   4.481   1.301   7.010  0.1110  0.2641  0.6555
  189SAPI   C3221725   4.617   1.203   6.833  0.1683  0.1903 -0.5672
  189SAPI   H2X21726   4.625   1.106   6.887  2.9181  1.4612  1.5608
  189SAPI   H2Y21727   4.717   1.231   6.795 -0.6057  1.1972 -1.9552
  189SAPI   C2321728   4.935   1.656   6.597 -0.2959 -0.8188  0.3697
  189SAPI   H3R21729   4.985   1.557   6.594 -0.9475 -1.1665 -2.6970
  189SAPI   H3S21730   4.992   1.730   6.536  0.5982 -2.3651 -0.7489
  189SAPI   C2421731   4.790   1.628   6.554 -1.0867  0.8004  0.2353
  189SAPI   H4R21732   4.735   1.572   6.633 -1.9634 -2.4129 -2.4647
  189SAPI   H4S21733   4.794   1.552   6.474 -0.2916  0.7853  0.2864
  189SAPI   C2521734   4.728   1.756   6.512  0.0190 -0.3165  0.2593
  189SAPI   H5R21735   4.666   1.810   6.585  2.9765  1.9981  1.2664
  189SAPI   C2621736   4.716   1.795   6.382 -0.1343  0.4752 -0.6157
  189SAPI   H6R21737   4.671   1.894   6.363 -0.8881  1.0275  3.1249
  189SAPI   C2721738   4.775   1.720   6.260 -0.4061 -0.5048  0.1058
  189SAPI   H7R21739   4.722   1.762   6.172  0.5049 -1.2619 -0.8369
  189SAPI   H7S21740   4.752   1.612   6.273  0.9573 -0.6318  1.9240
  189SAPI   C2821741   4.927   1.732   6.240  0.0072 -0.1932 -0.1464
  189SAPI   H8R21742   4.987   1.727   6.332 -1.0166 -0.7275  0.5022
  189SAPI   C2921743   4.998   1.716   6.127  0.0244 -0.0088 -0.3473
  189SAPI   H9R21744   5.108   1.716   6.139  0.0672 -0.1386 -0.7193
  189SAPI  C21021745   4.938   1.703   5.992 -0.3537  0.5452  0.0887
  189SAPI  H10R21746   4.938   1.811   5.965 -2.5762  1.1152  2.1236
  189SAPI  H10S21747   4.833   1.670   6.002 -0.2884 -0.7630 -2.5320
  189SAPI  C21121748   5.005   1.623   5.886 -0.4784 -0.2852  0.4329
  189SAPI  H11R21749   5.039   1.523   5.919 -0.2106 -0.3518 -0.0367
  189SAPI  C21221750   5.020   1.663   5.759  0.0055 -0.4668  0.2938
  189SAPI  H12R21751   5.068   1.588   5.695  0.0181  1.1432 -1.6569
  189SAPI  C21321752   4.983   1.791   5.687  0.0908 -0.1675  0.4286
  189SAPI  H13R21753   4.923   1.849   5.761  1.8559 -1.0533  2.6786
  189SAPI  H13S21754   4.930   1.762   5.593  2.9216  1.6535 -1.9048
  189SAPI  C21421755   5.105   1.876   5.653  0.6111  0.8440 -0.4525
  189SAPI  H14R21756   5.184   1.875   5.730 -0.3560 -0.1401  0.5521
  189SAPI  C21521757   5.143   1.936   5.544  0.1462 -0.0667  0.6687
  189SAPI  H15R21758   5.223   2.011   5.554 -0.1637  0.5940 -1.3607
  189SAPI  C21621759   5.069   1.945   5.412 -0.0096 -0.1022  0.3657
  189SAPI  H16R21760   5.012   1.851   5.398 -1.7759  0.8934  0.5902
  189SAPI  H16S21761   5.145   1.946   5.331  1.1576  0.3179  1.4442
  189SAPI  C21721762   4.981   2.067   5.404  0.2532 -0.4467  0.9006
  189SAPI  H17R21763   5.032   2.150   5.457  2.8164  0.3832 -2.4679
  189SAPI  H17S21764   4.889   2.036   5.459  0.7842 -0.7752  1.6093
  189SAPI  C21821765   4.953   2.107   5.258 -0.7834 -0.9667  0.1797
  189SAPI  H18R21766   4.936   2.020   5.190  0.2572  0.0800 -1.4899
  189SAPI  H18S21767   5.037   2.159   5.208  0.1971 -1.8775  0.8567
  189SAPI  C21921768   4.821   2.186   5.248  0.5625 -0.3506 -0.3689
  189SAPI  H19R21769   4.840   2.281   5.301 -0.3478 -1.1189  1.4018
  189SAPI  H19S21770   4.747   2.138   5.315 -0.6301  1.5599 -0.2427
  189SAPI  C22021771   4.771   2.211   5.105 -0.1493  0.1354 -0.5562
  189SAPI  H20R21772   4.835   2.287   5.055  0.9320  0.3654  1.1072
  189SAPI  H20S21773   4.666   2.245   5.117 -0.5383 -0.1782 -2.7451
  189SAPI  H20T21774   4.781   2.119   5.045  0.4094 -0.3379  0.2418
  189SAPI   C3321775   4.515   1.216   6.721  0.4867  0.1493 -0.3031
  189SAPI   H3X21776   4.498   1.321   6.687 -0.0590  0.8973  2.0949
  189SAPI   H3Y21777   4.417   1.174   6.752  0.8264 -0.6367 -0.2666
  189SAPI   C3421778   4.561   1.146   6.593 -0.8267 -0.6095  0.3800
  189SAPI   H4X21779   4.469   1.111   6.541 -1.0758  2.7263 -1.7028
  189SAPI   H4Y21780   4.627   1.063   6.626  0.3750  0.1844  0.0085
  189SAPI   C3521781   4.640   1.217   6.490  0.6112  0.7864  0.1517
  189SAPI   H5X21782   4.725   1.276   6.531  0.8766  1.7012 -1.5985
  189SAPI   H5Y21783   4.578   1.288   6.432 -0.4435  0.5563  0.9634
  189SAPI   C3621784   4.700   1.126   6.386 -0.2014 -0.4466  0.2919
  189SAPI   H6X21785   4.631   1.056   6.334  3.0785 -1.9064 -2.5272
  189SAPI   H6Y21786   4.770   1.055   6.436  0.1985  1.5181  2.7243
  189SAPI   C3721787   4.778   1.206   6.281 -0.7271 -0.5490 -0.1650
  189SAPI   H7X21788   4.840   1.134   6.223  1.8735 -0.0646  1.7745
  189SAPI   H7Y21789   4.849   1.279   6.326 -0.4631  1.3828 -3.4096
  189SAPI   C3821790   4.683   1.292   6.202  0.4150  0.1269 -0.1547
  189SAPI   H8X21791   4.663   1.388   6.254  1.9966  0.3701  0.0608
  189SAPI   H8Y21792   4.583   1.243   6.198 -1.2294  3.2279 -0.7378
  189SAPI   C3921793   4.722   1.335   6.056  0.2100  0.1666 -0.4050
  189SAPI   H9X21794   4.803   1.410   6.063 -0.9409  1.4576 -0.4024
  189SAPI   H9Y21795   4.642   1.394   6.006  1.8906  2.6526 -0.3230
  189SAPI  C31021796   4.767   1.217   5.971 -0.3985  0.3705  0.6993
  189SAPI  H10X21797   4.686   1.143   5.955 -0.4690  0.9310 -2.0623
  189SAPI  H10Y21798   4.846   1.166   6.030  0.8051  0.8044 -0.5001
  189SAPI  C31121799   4.820   1.261   5.836 -1.1166 -0.0777  0.3556
  189SAPI  H11X21800   4.903   1.335   5.839  1.2615 -2.6041  2.0413
  189SAPI  H11Y21801   4.731   1.303   5.785 -2.4861 -1.5637  1.4182
  189SAPI  C31221802   4.884   1.140   5.766 -0.3686  0.4287 -0.7153
  189SAPI  H12X21803   4.816   1.056   5.791 -0.8180  0.2553 -2.4401
  189SAPI  H12Y21804   4.979   1.123   5.821 -1.0557  0.5005  0.5236
  189SAPI  C31321805   4.896   1.154   5.617 -0.8076 -0.0280 -0.3180
  189SAPI  H13X21806   4.799   1.125   5.573 -1.0952 -0.9722  0.8669
  189SAPI  H13Y21807   4.971   1.079   5.582 -0.4682  0.5569 -0.8602
  189SAPI  C31421808   4.951   1.289   5.564 -0.2467  0.1387 -0.5451
  189SAPI  H14X21809   5.040   1.303   5.629 -1.4177 -0.8696  1.3775
  189SAPI  H14Y21810   4.886   1.377   5.580  1.5748  1.4213  0.1382
  189SAPI  C31521811   4.979   1.271   5.420 -0.2398 -0.3198  0.7786
  189SAPI  H15X21812   4.884   1.234   5.376 -0.6386  1.8987 -0.3564
  189SAPI  H15Y21813   5.048   1.186   5.404  0.0179  0.1801 -0.9925
  189SAPI  C31621814   5.022   1.399   5.344 -0.0534 -0.2210  0.2807
  189SAPI  H16X21815   5.023   1.356   5.242  1.2332  1.1998 -0.3354
  189SAPI  H16Y21816   5.120   1.425   5.389 -0.6528  2.4971  0.1971
  189SAPI  C31721817   4.939   1.525   5.344 -0.7523  0.2374 -0.6944
  189SAPI  H17X21818   4.950   1.576   5.442 -2.0099 -0.0796 -0.3695
  189SAPI  H17Y21819   4.828   1.522   5.341 -0.9876  2.2194  2.0906
  189SAPI  C31821820   4.988   1.627   5.240 -0.2201 -0.2597  0.4521
  189SAPI  H18X21821   4.916   1.709   5.220  1.1178  0.6579 -0.7884
  189SAPI  H18Y21822   5.009   1.580   5.141  0.1550 -0.6214  0.7007
  189SAPI  H18Z21823   5.083   1.671   5.277 -0.7211  1.8320 -0.6035
  190SAPI   C1221824   4.788   3.189   7.363  0.1786  0.0005  0.5442
  190SAPI    H221825   4.796   3.112   7.283 -1.0933 -1.1879  1.5154
  190SAPI    O221826   4.691   3.143   7.458 -0.1947  0.2800  0.6146
  190SAPI   HO221827   4.652   3.061   7.426 -2.6586  1.7546 -0.4788
  190SAPI   C1321828   4.924   3.192   7.422  0.1470 -0.3048 -0.0019
  190SAPI    H321829   4.993   3.234   7.346 -0.1521 -1.0193 -0.6836
  190SAPI    O321830   4.966   3.057   7.456  0.7983 -0.4784  0.5483
  190SAPI   HO321831   5.013   3.043   7.538  0.6153 -1.0058  0.5686
  190SAPI   C1421832   4.926   3.290   7.534  0.5956 -0.2919 -0.8661
  190SAPI    H421833   4.861   3.244   7.610  1.5734 -0.0306  0.1515
  190SAPI    O421834   5.062   3.302   7.586  0.5041 -0.0476  0.5398
  190SAPI   HO421835   5.120   3.304   7.509 -0.2625 -2.8658 -0.2174
  190SAPI   C1521836   4.869   3.429   7.501 -0.0365  0.0321 -0.6825
  190SAPI    H521837   4.949   3.469   7.435  1.6521 -1.3301  0.4522
  190SAPI    O521838   4.859   3.510   7.619  0.4633 -0.1226  0.3986
  190SAPI   HO521839   4.878   3.601   7.597  0.4125 -0.2091 -0.0324
  190SAPI   C1621840   4.740   3.428   7.414  0.4517 -0.0057  0.4513
  190SAPI    H621841   4.662   3.403   7.490  1.3140  0.0737  1.3909
  190SAPI    O621842   4.715   3.556   7.360  0.3367  0.2630 -0.2711
  190SAPI   HO621843   4.713   3.536   7.266 -0.0338 -2.4420  0.2546
  190SAPI   C1121844   4.751   3.323   7.311 -0.0620 -0.0409 -0.0546
  190SAPI    H121845   4.822   3.350   7.230  0.1529 -1.9159 -0.5323
  190SAPI     P21846   4.591   3.302   7.089  0.0453 -0.1535  0.3698
  190SAPI   O1321847   4.623   3.436   7.038  0.1491  0.0750  0.6835
  190SAPI   O1421848   4.453   3.248   7.071  0.4372 -0.2417 -0.2331
  190SAPI   O1221849   4.618   3.311   7.257  0.6180  0.5880  0.3617
  190SAPI   O1121850   4.701   3.202   7.041 -0.8002  0.2598  0.4950
  190SAPI    C121851   4.688   3.058   7.053  0.5301  0.4213  1.4576
  190SAPI    HA21852   4.777   3.014   7.104  0.3042 -0.6390  0.9462
  190SAPI    HB21853   4.604   3.013   7.110  1.5335 -1.6539  1.3620
  190SAPI    C221854   4.677   2.988   6.913  0.4671 -0.0737  0.4426
  190SAPI    HS21855   4.688   2.879   6.931  0.5488 -0.1773 -0.2038
  190SAPI   O2121856   4.763   3.042   6.817 -0.1367  0.2293 -0.1298
  190SAPI   C2121857   4.891   3.018   6.842  0.1875  0.5222  0.0513
  190SAPI   O2221858   4.935   2.945   6.931  0.3688  0.8267 -0.2092
  190SAPI   C2221859   4.975   3.095   6.747 -0.4673  0.3587  0.5146
  190SAPI   H2R21860   4.940   3.199   6.730 -1.2276 -0.1121 -0.9620
  190SAPI   H2S21861   5.082   3.099   6.778 -0.0534  3.0577 -0.9872
  190SAPI    C321862   4.532   3.000   6.852  1.0080  0.1216  0.3050
  190SAPI    HX21863   4.517   3.110   6.842 -0.3386 -0.0982 -0.3681
  190SAPI    HY21864   4.453   2.982   6.928 -1.9056 -0.6277 -2.6435
  190SAPI   O3121865   4.517   2.925   6.732 -0.4238 -0.1069  0.5258
  190SAPI   C3121866   4.403   2.953   6.662  0.4863  0.1345 -0.0844
  190SAPI   O3221867   4.315   3.028   6.704  0.1434 -0.2674 -0.5518
  190SAPI   C3221868   4.388   2.867   6.535 -0.3345  0.2789 -1.0662
  190SAPI   H2X21869   4.287   2.820   6.537 -0.6242  0.5209  4.6633
  190SAPI   H2Y21870   4.455   2.778   6.542 -1.3321 -0.6745 -2.8655
  190SAPI   C2321871   4.992   3.014   6.619  0.4819  0.0879  0.0380
  190SAPI   H3R21872   4.887   2.999   6.585  0.0396  3.0913 -0.2545
  190SAPI   H3S21873   5.022   2.907   6.625 -0.4133 -0.5723 -4.0581
  190SAPI   C2421874   5.056   3.090   6.500  0.0884 -0.2272 -0.2967
  190SAPI   H4R21875   5.069   3.014   6.421  3.5704 -0.2704  0.1465
  190SAPI   H4S21876   5.160   3.118   6.529 -0.7377  0.3834  2.3781
  190SAPI   C2521877   4.977   3.213   6.455  0.0087 -1.1031  0.1635
  190SAPI   H5R21878   4.985   3.299   6.523 -1.7152  0.1184 -1.1175
  190SAPI   C2621879   4.921   3.241   6.337  0.2787 -0.2185  0.4697
  190SAPI   H6R21880   4.870   3.337   6.318 -1.1030 -1.0829 -0.3999
  190SAPI   C2721881   4.905   3.146   6.221 -0.0294 -0.4306  0.3001
  190SAPI   H7R21882   4.946   3.046   6.245  0.6837 -0.1308  0.3585
  190SAPI   H7S21883   4.981   3.176   6.145  1.6872  0.3865  2.2236
  190SAPI   C2821884   4.767   3.139   6.166 -0.7526  0.3575  0.1619
  190SAPI   H8R21885   4.698   3.098   6.242 -0.5985 -0.2579 -0.0254
  190SAPI   C2921886   4.722   3.180   6.047  0.5588  0.7689  0.1407
  190SAPI   H9R21887   4.617   3.167   6.013  0.2296  0.0654  1.3734
  190SAPI  C21021888   4.808   3.245   5.945  0.2526  0.3389  0.3399
  190SAPI  H10R21889   4.853   3.167   5.880  1.2793 -1.6757  3.2798
  190SAPI  H10S21890   4.904   3.283   5.987  0.5991  0.9475 -0.9401
  190SAPI  C21121891   4.723   3.351   5.882  0.0097  0.1919 -0.0882
  190SAPI  H11R21892   4.719   3.443   5.943  0.9157  0.2238 -0.0572
  190SAPI  C21221893   4.667   3.347   5.760 -0.1217 -0.7773 -0.2922
  190SAPI  H12R21894   4.599   3.430   5.735 -1.3228 -2.1188 -1.7140
  190SAPI  C21321895   4.689   3.237   5.658  0.3155 -0.3192 -0.2574
  190SAPI  H13R21896   4.792   3.197   5.664 -0.6935 -2.8530  1.5136
  190SAPI  H13S21897   4.684   3.272   5.552  1.4991 -0.4133 -0.3587
  190SAPI  C21421898   4.594   3.122   5.678 -0.8078  0.1562  0.0151
  190SAPI  H14R21899   4.609   3.048   5.758 -2.1894  0.7601  0.8701
  190SAPI  C21521900   4.486   3.090   5.609  0.4126  0.7308  0.7488
  190SAPI  H15R21901   4.427   3.003   5.642  0.6780  1.2891  2.8305
  190SAPI  C21621902   4.435   3.163   5.483  0.5348 -0.5524  0.0535
  190SAPI  H16R21903   4.498   3.250   5.455 -2.9420  1.4797 -2.2589
  190SAPI  H16S21904   4.342   3.210   5.520 -1.0394 -3.3000 -0.1473
  190SAPI  C21721905   4.415   3.074   5.360 -0.2686  0.3438  0.2866
  190SAPI  H17R21906   4.354   2.986   5.391  2.1049 -0.5975  2.6750
  190SAPI  H17S21907   4.514   3.050   5.315 -1.3879  1.6901 -3.2993
  190SAPI  C21821908   4.341   3.131   5.237  0.4319  0.0360  0.0193
  190SAPI  H18R21909   4.380   3.233   5.221  1.7183 -0.0942  1.9318
  190SAPI  H18S21910   4.232   3.132   5.254  0.3442 -2.8840  0.2643
  190SAPI  C21921911   4.362   3.039   5.109  0.2740 -0.2579 -0.4659
  190SAPI  H19R21912   4.473   3.033   5.102  0.3632 -1.3768  1.2495
  190SAPI  H19S21913   4.336   3.096   5.018  1.3203  0.7010 -0.1932
  190SAPI  C22021914   4.299   2.902   5.112  0.0082 -0.1963 -0.5456
  190SAPI  H20R21915   4.340   2.838   5.193  1.2593 -0.1133 -1.0879
  190SAPI  H20S21916   4.310   2.857   5.011 -1.7016 -0.6193 -0.5754
  190SAPI  H20T21917   4.189   2.918   5.120 -0.0809 -1.6027  2.3111
  190SAPI   C3321918   4.407   2.941   6.406  0.1445  0.0381 -0.5152
  190SAPI   H3X21919   4.508   2.987   6.396  0.8033 -1.0881  0.6431
  190SAPI   H3Y21920   4.331   3.020   6.388  1.5607  1.5058 -0.3772
  190SAPI   C3421921   4.392   2.841   6.291 -0.0997  0.0947 -0.0139
  190SAPI   H4X21922   4.294   2.791   6.308  0.2018 -0.7099 -0.5822
  190SAPI   H4Y21923   4.471   2.764   6.308  0.2059  0.4973  0.3816
  190SAPI   C3521924   4.410   2.894   6.150 -0.6577  0.4375 -0.5761
  190SAPI   H5X21925   4.514   2.933   6.145 -0.5186  0.8932  3.0466
  190SAPI   H5Y21926   4.338   2.973   6.122 -1.4290 -0.1932 -0.4127
  190SAPI   C3621927   4.397   2.781   6.044 -0.2009 -0.1173 -0.0477
  190SAPI   H6X21928   4.288   2.759   6.036 -0.3466  0.8847 -1.1445
  190SAPI   H6Y21929   4.440   2.689   6.087  0.4629 -0.6719 -1.8229
  190SAPI   C3721930   4.466   2.813   5.913  0.2027  0.7783  1.0518
  190SAPI   H7X21931   4.561   2.868   5.929  1.1273 -0.1239 -0.9339
  190SAPI   H7Y21932   4.399   2.892   5.871  0.4062  0.9995  1.1447
  190SAPI   C3821933   4.490   2.689   5.828 -0.2529 -0.1266 -0.3834
  190SAPI   H8X21934   4.392   2.648   5.795  1.1013 -1.1394 -3.5671
  190SAPI   H8Y21935   4.547   2.608   5.878 -0.7179 -0.8932 -1.0577
  190SAPI   C3921936   4.571   2.709   5.706 -1.0727  0.3137 -0.0659
  190SAPI   H9X21937   4.676   2.710   5.744 -1.4450 -1.2193  1.1427
  190SAPI   H9Y21938   4.552   2.810   5.664 -0.5089  0.5738  0.2906
  190SAPI  C31021939   4.542   2.600   5.606 -0.6906  0.4184 -0.1835
  190SAPI  H10X21940   4.438   2.612   5.568 -0.7544  2.4588  0.5016
  190SAPI  H10Y21941   4.562   2.501   5.651  2.5267  1.5282  1.1026
  190SAPI  C31121942   4.638   2.616   5.480  0.3658 -0.6884 -0.3546
  190SAPI  H11X21943   4.712   2.536   5.500  0.0419 -0.8443  0.2710
  190SAPI  H11Y21944   4.682   2.718   5.483  0.9771 -0.9078 -1.6158
  190SAPI  C31221945   4.578   2.591   5.340  0.4579 -0.6874  0.3399
  190SAPI  H12X21946   4.529   2.688   5.315  0.6224 -1.0359 -1.4769
  190SAPI  H12Y21947   4.495   2.518   5.338 -2.0154  1.9617 -0.7685
  190SAPI  C31321948   4.681   2.584   5.221  0.3801  0.1483  0.3412
  190SAPI  H13X21949   4.716   2.479   5.217 -1.0930 -0.4657  1.9480
  190SAPI  H13Y21950   4.762   2.657   5.244 -0.3991  0.9988  0.4185
  190SAPI  C31421951   4.619   2.626   5.083  0.6529 -0.5616 -0.1483
  190SAPI  H14X21952   4.589   2.733   5.084  2.6442  0.0342  0.9824
  190SAPI  H14Y21953   4.526   2.569   5.063  0.4501 -0.6400  0.9493
  190SAPI  C31521954   4.717   2.601   4.963  0.6537  0.3090  0.0288
  190SAPI  H15X21955   4.763   2.502   4.983  0.1654  0.2091  0.6952
  190SAPI  H15Y21956   4.797   2.678   4.961 -0.6293  1.6950 -0.2507
  190SAPI  C31621957   4.648   2.586   4.829  0.4034  0.1942  0.3878
  190SAPI  H16X21958   4.728   2.586   4.752 -0.7492 -4.0604 -1.0585
  190SAPI  H16Y21959   4.584   2.677   4.822 -3.0959 -1.8278  2.6763
  190SAPI  C31721960   4.557   2.464   4.806  0.0383 -0.2530  0.1099
  190SAPI  H17X21961   4.494   2.447   4.895 -0.3947 -2.2092 -0.5258
  190SAPI  H17Y21962   4.616   2.371   4.788  1.2652  0.5914 -0.3805
  190SAPI  C31821963   4.461   2.484   4.691  0.3222 -0.6196 -0.0545
  190SAPI  H18X21964   4.394   2.573   4.701  0.8092 -0.4661  2.3737
  190SAPI  H18Y21965   4.385   2.403   4.688 -0.4426  0.0736  0.0851
  190SAPI  H18Z21966   4.502   2.492   4.588 -2.7339 -0.2692 -1.3428
  191SAPI   C1221967   6.351   4.223   2.899 -0.4653 -0.6650 -0.2483
  191SAPI    H221968   6.385   4.245   3.003  0.7472 -0.1067 -0.7518
  191SAPI    O221969   6.389   4.335   2.820  0.3246 -0.4307 -0.1166
  191SAPI   HO221970   6.398   4.405   2.885 -3.2554 -0.3743  0.5442
  191SAPI   C1321971   6.421   4.096   2.860  0.2332  0.3017  0.3040
  191SAPI    H321972   6.391   4.015   2.930  1.1032  0.9876  1.5005
  191SAPI    O321973   6.560   4.105   2.864 -0.1724 -0.8286  0.2601
  191SAPI   HO321974   6.579   4.074   2.953 -0.2502 -0.3171  0.4573
  191SAPI   C1421975   6.378   4.063   2.719 -0.1773 -0.3500 -0.0445
  191SAPI    H421976   6.402   4.152   2.658 -3.3563  1.6624  1.4084
  191SAPI    O421977   6.449   3.952   2.660  0.5110 -0.9416 -0.7064
  191SAPI   HO421978   6.529   3.948   2.714 -0.6762  1.6663  1.4933
  191SAPI   C1521979   6.227   4.055   2.699 -0.2042  0.4789  0.1189
  191SAPI    H521980   6.195   3.962   2.750 -0.5142  0.2156 -0.5337
  191SAPI    O521981   6.192   4.023   2.562 -0.1621 -0.5586  0.1843
  191SAPI   HO521982   6.104   3.985   2.560 -0.8870  1.0315 -1.5681
  191SAPI   C1621983   6.136   4.173   2.773  0.6505  0.7469 -0.5027
  191SAPI    H621984   6.142   4.259   2.704  0.9547  1.7314  0.7177
  191SAPI    O621985   6.000   4.123   2.781 -0.4057 -0.3174  0.8262
  191SAPI   HO621986   5.954   4.158   2.858 -0.5761  0.5499  0.3548
  191SAPI   C1121987   6.198   4.195   2.906  0.1565 -1.0747  0.2403
  191SAPI    H121988   6.198   4.104   2.969  1.3874 -0.5607  1.0282
  191SAPI     P21989   6.018   4.290   3.075  0.1389 -0.4623 -0.5583
  191SAPI   O1321990   5.918   4.200   3.013  0.2161 -0.3311  0.0126
  191SAPI   O1421991   5.984   4.433   3.106  0.3611  0.1460  0.3005
  191SAPI   O1221992   6.141   4.303   2.966  0.5533 -0.3185 -0.0306
  191SAPI   O1121993   6.083   4.220   3.201 -0.1558  0.1367  0.1894
  191SAPI    C121994   6.198   4.285   3.260 -0.2543 -0.2549 -0.5166
  191SAPI    HA21995   6.277   4.210   3.283  2.0151  2.4573  1.2780
  191SAPI    HB21996   6.245   4.359   3.192  2.6785 -2.1623 -0.7437
  191SAPI    C221997   6.157   4.337   3.401  0.4034 -0.4985 -0.0812
  191SAPI    HS21998   6.246   4.378   3.453 -1.6414  0.2444  3.0707
  191SAPI   O2121999   6.098   4.234   3.477  0.3327  0.0014 -0.3850
  191SAPI   C2122000   6.184   4.155   3.538 -0.2453  0.3577  0.0078
  191SAPI   O2222001   6.306   4.163   3.527 -0.2009  0.5646 -0.0771
  191SAPI   C2222002   6.104   4.069   3.634  0.2070  0.0763  0.3580
  191SAPI   H2R22003   6.002   4.051   3.595 -0.7037 -0.8730  2.9981
  191SAPI   H2S22004   6.151   3.968   3.642  0.8426  0.2887 -0.4793
  191SAPI    C322005   6.064   4.461   3.400 -0.6326 -0.3864  0.2490
  191SAPI    HX22006   5.969   4.428   3.354 -1.4290 -0.7617  2.0712
  191SAPI    HY22007   6.101   4.533   3.325  0.4407 -0.3710  0.7719
  191SAPI   O3122008   6.043   4.521   3.523 -0.7636 -0.9190 -0.1614
  191SAPI   C3122009   5.920   4.547   3.580 -0.7056  1.1895  0.1175
  191SAPI   O3222010   5.815   4.519   3.534  0.5538  0.3159  0.1157
  191SAPI   C3222011   5.929   4.600   3.718  0.3552  0.0810  0.2220
  191SAPI   H2X22012   5.969   4.519   3.782  0.1396 -0.0343  0.2107
  191SAPI   H2Y22013   5.827   4.634   3.743 -0.4852 -1.7174 -0.6289
  191SAPI   C2322014   6.102   4.121   3.781  0.4440 -0.9311  0.3569
  191SAPI   H3R22015   6.035   4.047   3.829  0.2813 -0.0630  1.5200
  191SAPI   H3S22016   6.051   4.220   3.786 -1.3342 -1.4938 -3.1376
  191SAPI   C2422017   6.239   4.124   3.850  0.5815  0.5904 -0.5851
  191SAPI   H4R22018   6.310   4.175   3.781  4.0194 -1.7221  0.9099
  191SAPI   H4S22019   6.274   4.018   3.858  0.6571  0.7427  1.5074
  191SAPI   C2522020   6.245   4.189   3.986  0.6688 -0.6001 -0.2344
  191SAPI   H5R22021   6.180   4.278   3.989  0.9573 -0.3237 -1.7013
  191SAPI   C2622022   6.314   4.149   4.095  0.0457 -0.3719 -0.2630
  191SAPI   H6R22023   6.310   4.202   4.192  1.4504  1.0018 -0.9043
  191SAPI   C2722024   6.396   4.024   4.099  0.2797 -0.6107 -0.0652
  191SAPI   H7R22025   6.458   4.013   4.008  3.2346  0.8185  1.6329
  191SAPI   H7S22026   6.320   3.943   4.098 -0.2254 -0.1405 -1.8515
  191SAPI   C2822027   6.496   4.001   4.212  0.3316  0.2585 -0.2823
  191SAPI   H8R22028   6.600   4.016   4.183  0.8864  1.5740  2.1469
  191SAPI   C2922029   6.468   3.991   4.343 -0.9730  0.1956 -0.6550
  191SAPI   H9R22030   6.549   3.977   4.416 -1.7281 -0.5463  0.0701
  191SAPI  C21022031   6.328   3.979   4.402  0.2883 -0.1620 -0.0064
  191SAPI  H10R22032   6.285   3.886   4.358 -1.3118  0.6546 -0.2264
  191SAPI  H10S22033   6.262   4.048   4.345 -0.3847 -1.1247 -0.4164
  191SAPI  C21122034   6.325   3.994   4.554  0.6096 -0.0706 -0.2717
  191SAPI  H11R22035   6.400   3.933   4.607  0.1006 -0.9916 -0.5893
  191SAPI  C21222036   6.253   4.080   4.628 -0.3306  0.4950 -0.4632
  191SAPI  H12R22037   6.252   4.067   4.737  0.0685  0.2409 -0.4889
  191SAPI  C21322038   6.151   4.175   4.573 -0.6238  0.2941  0.0086
  191SAPI  H13R22039   6.107   4.138   4.478 -1.3599 -2.0154  1.1537
  191SAPI  H13S22040   6.192   4.275   4.549  0.8162 -1.2422 -5.4741
  191SAPI  C21422041   6.041   4.186   4.674 -0.1423  0.2544  0.0100
  191SAPI  H14R22042   5.980   4.097   4.694  1.5001 -0.1783  4.1123
  191SAPI  C21522043   5.988   4.301   4.731 -0.0228  0.0433 -0.2625
  191SAPI  H15R22044   5.910   4.284   4.806  0.0686 -1.8249 -0.5226
  191SAPI  C21622045   6.038   4.445   4.720  0.4978  0.6713  0.2786
  191SAPI  H16R22046   6.068   4.456   4.614  0.2106 -0.1996  0.0968
  191SAPI  H16S22047   6.119   4.466   4.793 -0.6107  1.3427  1.3468
  191SAPI  C21722048   5.932   4.558   4.748 -0.2011 -0.1962  0.4776
  191SAPI  H17R22049   5.837   4.533   4.696 -0.7862  0.7180  1.0804
  191SAPI  H17S22050   5.967   4.646   4.690  1.6693  0.0140  1.8025
  191SAPI  C21822051   5.904   4.600   4.897 -0.3765  0.0106 -0.1694
  191SAPI  H18R22052   5.988   4.552   4.953 -0.1918 -1.0185 -1.2886
  191SAPI  H18S22053   5.813   4.554   4.943 -1.6015  3.0931  0.7151
  191SAPI  C21922054   5.891   4.751   4.910  0.5317  0.2260 -0.8663
  191SAPI  H19R22055   5.805   4.780   4.846 -2.0277 -2.0159  1.3206
  191SAPI  H19S22056   5.990   4.798   4.894  1.2347  0.2857  2.8522
  191SAPI  C22022057   5.848   4.798   5.053 -0.0192 -0.0790  0.2423
  191SAPI  H20R22058   5.775   4.725   5.095 -0.0163  0.8676  1.9536
  191SAPI  H20S22059   5.798   4.897   5.050 -3.6613 -1.7329  0.4818
  191SAPI  H20T22060   5.937   4.795   5.119  1.7598  0.6535 -2.0026
  191SAPI   C3322061   6.032   4.717   3.722  0.3705  0.3904  0.5575
  191SAPI   H3X22062   6.022   4.795   3.643  0.7845  0.9898  1.0906
  191SAPI   H3Y22063   6.136   4.677   3.719  0.4719  0.5223 -3.7320
  191SAPI   C3422064   6.022   4.792   3.861 -0.1026  0.8980 -0.4311
  191SAPI   H4X22065   6.062   4.722   3.938 -0.1297  1.5348  0.1738
  191SAPI   H4Y22066   5.918   4.823   3.885  0.2191  1.2422  0.5908
  191SAPI   C3522067   6.105   4.922   3.854  0.2160  0.3865  0.4979
  191SAPI   H5X22068   6.047   4.994   3.792 -0.3561  0.5383  1.1952
  191SAPI   H5Y22069   6.210   4.913   3.819  0.8003  1.4373  1.8612
  191SAPI   C3622070   6.109   4.999   3.989  0.2957 -0.2876  0.5633
  191SAPI   H6X22071   6.186   4.962   4.061  0.6238  2.3377  1.6883
  191SAPI   H6Y22072   6.011   4.987   4.040 -0.1822 -1.4210 -0.5999
  191SAPI   C3722073   6.139   5.145   3.974  0.4024 -0.6807  0.1129
  191SAPI   H7X22074   6.052   5.189   3.921 -1.4682 -2.8437  1.2575
  191SAPI   H7Y22075   6.238   5.166   3.927 -0.1103  0.0502 -0.6880
  191SAPI   C3822076   6.151   5.200   4.114 -0.0335 -0.3518 -0.1123
  191SAPI   H8X22077   6.250   5.160   4.143 -1.3695 -1.5296  3.3178
  191SAPI   H8Y22078   6.075   5.150   4.178 -0.5118  0.9066  0.3432
  191SAPI   C3922079   6.168   5.357   4.128  0.4133  0.8738 -0.6449
  191SAPI   H9X22080   6.175   5.397   4.025 -2.2230 -1.7639 -1.9830
  191SAPI   H9Y22081   6.266   5.379   4.177 -0.8549  1.3238  1.8682
  191SAPI  C31022082   6.064   5.435   4.217 -0.1905  0.4238 -0.1720
  191SAPI  H10X22083   5.958   5.405   4.203 -0.0970 -0.2674  0.5352
  191SAPI  H10Y22084   6.066   5.544   4.197 -0.7692  0.8528  1.9069
  191SAPI  C31122085   6.092   5.411   4.362 -0.8630 -0.4923 -0.4802
  191SAPI  H11X22086   6.203   5.404   4.362 -0.8970 -1.1270 -0.0188
  191SAPI  H11Y22087   6.045   5.324   4.412  0.2149 -0.9155 -0.1599
  191SAPI  C31222088   6.057   5.530   4.449 -0.0976  0.0866 -0.6740
  191SAPI  H12X22089   5.948   5.548   4.432  0.2128  2.0369 -0.8089
  191SAPI  H12Y22090   6.113   5.620   4.416 -0.8103 -0.1723 -2.7637
  191SAPI  C31322091   6.096   5.485   4.589 -0.4629  0.1629  0.2016
  191SAPI  H13X22092   6.206   5.466   4.594  0.2599  2.5960 -3.1360
  191SAPI  H13Y22093   6.047   5.387   4.607 -0.2672  0.4954  3.0999
  191SAPI  C31422094   6.062   5.591   4.696  0.3801  0.4919  0.6026
  191SAPI  H14X22095   6.081   5.548   4.797 -1.0129  1.5202  1.3473
  191SAPI  H14Y22096   5.956   5.622   4.687  1.0114  2.4350 -0.9139
  191SAPI  C31522097   6.166   5.707   4.678 -0.0261 -0.2355 -0.2395
  191SAPI  H15X22098   6.150   5.776   4.592 -1.6488 -0.3736 -0.0678
  191SAPI  H15Y22099   6.271   5.672   4.664  0.2873  1.1070 -1.6228
  191SAPI  C31622100   6.165   5.802   4.800 -0.1212  0.3882  0.0384
  191SAPI  H16X22101   6.057   5.810   4.824  0.0757 -1.5487  1.7657
  191SAPI  H16Y22102   6.212   5.898   4.769  0.7170  0.9552  2.7923
  191SAPI  C31722103   6.229   5.744   4.921  0.4318 -0.7121  0.5721
  191SAPI  H17X22104   6.210   5.634   4.922 -1.8041 -0.4325 -1.4768
  191SAPI  H17Y22105   6.178   5.789   5.009 -2.6630 -0.2986 -1.2863
  191SAPI  C31822106   6.378   5.764   4.916  0.5773 -0.7043  0.0678
  191SAPI  H18X22107   6.430   5.723   5.005  2.2516 -1.9339 -1.4190
  191SAPI  H18Y22108   6.393   5.874   4.927 -0.2685 -0.7813  3.1260
  191SAPI  H18Z22109   6.427   5.718   4.828  1.2006 -1.4073  0.7692
  192SAPI   C1222110   3.697   6.201   2.561  0.3526  0.2968  0.2506
  192SAPI    H222111   3.722   6.217   2.668  2.3048  1.1826 -0.2806
  192SAPI    O222112   3.632   6.310   2.508 -0.1361  0.3481  0.0468
  192SAPI   HO222113   3.539   6.297   2.527  0.4372 -1.5817  1.9202
  192SAPI   C1322114   3.819   6.152   2.488 -0.3236  0.0918  0.3164
  192SAPI    H322115   3.849   6.062   2.546  1.0113 -0.4934 -1.2030
  192SAPI    O322116   3.928   6.240   2.493 -0.4387  0.3576  0.0316
  192SAPI   HO322117   3.903   6.328   2.463  0.4983  0.9608  0.9432
  192SAPI   C1422118   3.801   6.099   2.346 -0.4680 -0.1446  0.5243
  192SAPI    H422119   3.806   6.190   2.282  3.0478 -0.1497  0.5845
  192SAPI    O422120   3.909   6.023   2.306  0.5218  0.2941 -0.2844
  192SAPI   HO422121   3.925   5.957   2.375 -1.2865 -1.8129 -1.7368
  192SAPI   C1522122   3.669   6.033   2.315 -0.1709 -0.0639  0.8154
  192SAPI    H522123   3.688   5.924   2.310 -0.3872 -0.0505 -1.0790
  192SAPI    O522124   3.620   6.063   2.185  0.0056  0.1092 -0.2257
  192SAPI   HO522125   3.610   6.158   2.176  0.9575  0.3719  1.1182
  192SAPI   C1622126   3.558   6.044   2.421 -0.6687  0.9159  0.3205
  192SAPI    H622127   3.490   6.127   2.391 -0.1190  0.7215 -1.6178
  192SAPI    O622128   3.474   5.929   2.432 -0.1202 -0.1198 -0.2448
  192SAPI   HO622129   3.384   5.964   2.434 -0.2567 -0.3969 -1.0266
  192SAPI   C1122130   3.593   6.082   2.559 -0.9777  0.7808  0.3313
  192SAPI    H122131   3.649   5.997   2.604 -0.9251 -0.1237 -1.3638
  192SAPI     P22132   3.421   6.049   2.774 -0.1307  0.5834 -0.3982
  192SAPI   O1322133   3.451   5.909   2.761 -0.1890  0.0830  0.4369
  192SAPI   O1422134   3.282   6.092   2.800 -0.2882 -0.8574 -0.1313
  192SAPI   O1222135   3.478   6.127   2.638 -0.2575  1.2414  0.1036
  192SAPI   O1122136   3.510   6.114   2.883  0.3531  0.2717 -0.1183
  192SAPI    C122137   3.507   6.251   2.922  0.9249 -0.0154  0.0390
  192SAPI    HA22138   3.548   6.318   2.843  0.7934 -1.3937 -1.2321
  192SAPI    HB22139   3.400   6.282   2.927  0.8289 -0.1316 -1.0406
  192SAPI    C222140   3.571   6.269   3.060  0.0048  0.3986  0.4348
  192SAPI    HS22141   3.538   6.372   3.084  2.8058  1.1768  1.3292
  192SAPI   O2122142   3.710   6.259   3.049  0.1142  1.0069 -0.1333
  192SAPI   C2122143   3.779   6.348   2.977  0.1860 -0.1725  0.1560
  192SAPI   O2222144   3.738   6.448   2.930  0.5363 -0.3500  0.2549
  192SAPI   C2222145   3.918   6.299   2.960 -0.1429 -0.2996 -0.2967
  192SAPI   H2R22146   3.933   6.233   3.048 -1.9626 -1.9197 -1.1131
  192SAPI   H2S22147   3.924   6.232   2.871  2.1405  0.2505 -0.6254
  192SAPI    C322148   3.527   6.155   3.156  0.2082 -0.2181  0.3418
  192SAPI    HX22149   3.548   6.061   3.101  0.3091  0.0906 -0.1551
  192SAPI    HY22150   3.419   6.158   3.182  0.3252  0.5452  0.8078
  192SAPI   O3122151   3.607   6.145   3.282 -0.5971 -0.3447  0.4356
  192SAPI   C3122152   3.561   6.231   3.369 -0.1876 -0.7844 -0.2373
  192SAPI   O3222153   3.457   6.295   3.368 -0.2831 -0.3085  0.6130
  192SAPI   C3222154   3.670   6.249   3.475 -0.0178  0.0834 -0.0903
  192SAPI   H2X22155   3.727   6.344   3.462  0.2867 -0.1518 -0.4753
  192SAPI   H2Y22156   3.743   6.166   3.470 -0.9682 -0.6688 -2.4724
  192SAPI   C2322157   4.029   6.404   2.927  0.6368  0.0368  0.5789
  192SAPI   H3R22158   3.977   6.453   2.842  0.4286 -1.8421 -0.4481
  192SAPI   H3S22159   4.119   6.350   2.890 -0.4613 -0.9032 -0.8254
  192SAPI   C2422160   4.059   6.489   3.049  0.1026 -0.1529 -0.1025
  192SAPI   H4R22161   3.970   6.529   3.102 -0.5041 -0.5613 -0.7964
  192SAPI   H4S22162   4.114   6.578   3.014  1.4591 -0.9134  0.0072
  192SAPI   C2522163   4.149   6.411   3.145 -0.1616  0.2471 -1.2641
  192SAPI   H5R22164   4.237   6.363   3.100 -1.2296 -1.1327 -1.9986
  192SAPI   C2622165   4.126   6.415   3.283  0.4260  0.0817  0.0408
  192SAPI   H6R22166   4.193   6.352   3.344  0.5001  1.0680  1.0134
  192SAPI   C2722167   4.009   6.459   3.365  0.1592  0.1369 -1.0144
  192SAPI   H7R22168   4.014   6.412   3.466  0.4468  0.1183 -1.0365
  192SAPI   H7S22169   3.911   6.437   3.320 -0.5867  1.3561 -0.0540
  192SAPI   C2822170   4.004   6.606   3.380 -0.0293 -0.2471  0.6536
  192SAPI   H8R22171   4.021   6.674   3.295 -2.8455  0.7998  0.8385
  192SAPI   C2922172   3.976   6.673   3.493  0.1488 -0.3086 -0.0853
  192SAPI   H9R22173   3.969   6.782   3.479  3.3122  0.0424  0.4060
  192SAPI  C21022174   3.930   6.620   3.631  0.0474 -0.2686  0.5485
  192SAPI  H10R22175   3.856   6.537   3.634 -1.2704  0.8640  0.5665
  192SAPI  H10S22176   3.881   6.701   3.690  2.3372  0.2930  1.7964
  192SAPI  C21122177   4.050   6.575   3.706 -0.4552  0.1177 -0.4336
  192SAPI  H11R22178   4.137   6.554   3.643 -0.5513 -1.2014 -0.1621
  192SAPI  C21222179   4.040   6.535   3.839  0.1228  0.1067 -0.1330
  192SAPI  H12R22180   4.126   6.495   3.895 -0.4513 -1.4288 -0.2861
  192SAPI  C21322181   3.914   6.542   3.925  0.1961  0.4153  0.4505
  192SAPI  H13R22182   3.893   6.456   3.993  1.0550 -0.7406 -0.7071
  192SAPI  H13S22183   3.826   6.546   3.858 -0.0778  0.7304  0.8223
  192SAPI  C21422184   3.910   6.670   4.008 -0.4689  0.1336  0.1088
  192SAPI  H14R22185   3.924   6.761   3.948 -3.1396  0.7903  0.3441
  192SAPI  C21522186   3.897   6.681   4.138  0.0232  0.0989  0.7843
  192SAPI  H15R22187   3.926   6.772   4.192  0.6227 -1.0980  2.5426
  192SAPI  C21622188   3.870   6.572   4.241 -0.0792 -0.6820  0.0004
  192SAPI  H16R22189   3.840   6.476   4.193  2.7360 -1.5915 -0.1375
  192SAPI  H16S22190   3.787   6.604   4.306 -0.6374 -0.8153 -0.6324
  192SAPI  C21722191   4.003   6.563   4.323 -0.2457  0.3398 -0.6773
  192SAPI  H17R22192   4.039   6.663   4.353  1.1747 -0.2240 -0.4451
  192SAPI  H17S22193   4.085   6.512   4.270  0.5229 -1.0774  1.7082
  192SAPI  C21822194   3.967   6.490   4.452  0.1123 -0.4062 -0.2627
  192SAPI  H18R22195   3.963   6.383   4.423  5.1201 -0.5683 -1.1923
  192SAPI  H18S22196   3.868   6.528   4.484 -0.1259 -0.6733 -0.6763
  192SAPI  C21922197   4.058   6.528   4.566  0.0687  0.4214  0.4911
  192SAPI  H19R22198   4.074   6.637   4.558  0.7801  0.5049  2.3676
  192SAPI  H19S22199   4.162   6.488   4.569 -0.2234 -0.3049  2.8634
  192SAPI  C22022200   4.004   6.478   4.700  0.4755 -0.0340  0.4696
  192SAPI  H20R22201   3.909   6.524   4.735  0.2114 -0.8740  0.8915
  192SAPI  H20S22202   4.073   6.514   4.779  0.0061 -0.2279  0.9786
  192SAPI  H20T22203   3.992   6.368   4.705 -2.1408 -0.0312 -2.7457
  192SAPI   C3322204   3.603   6.241   3.608 -0.3576 -0.0175  0.0158
  192SAPI   H3X22205   3.545   6.146   3.607 -0.8633  0.2869  0.0303
  192SAPI   H3Y22206   3.541   6.333   3.622  0.5881  1.0064 -2.0749
  192SAPI   C3422207   3.697   6.222   3.723  0.2305  0.1951  0.0462
  192SAPI   H4X22208   3.760   6.314   3.732 -0.0304  0.4376 -0.5704
  192SAPI   H4Y22209   3.764   6.138   3.697  1.0168 -0.4818  3.7342
  192SAPI   C3522210   3.620   6.192   3.851 -0.3546 -0.1133 -1.0666
  192SAPI   H5X22211   3.533   6.125   3.835 -0.9133 -0.0199  1.2645
  192SAPI   H5Y22212   3.578   6.288   3.890 -0.4436 -1.2156  1.7960
  192SAPI   C3622213   3.718   6.137   3.957 -0.3242 -0.2084 -0.1681
  192SAPI   H6X22214   3.799   6.212   3.965  1.1100 -1.7285  0.1615
  192SAPI   H6Y22215   3.760   6.044   3.914 -1.4883 -0.1051 -1.5855
  192SAPI   C3722216   3.651   6.122   4.093  0.0549 -0.9706  0.8160
  192SAPI   H7X22217   3.570   6.046   4.094 -0.1286 -0.8552  3.3678
  192SAPI   H7Y22218   3.616   6.222   4.130 -0.4252 -1.0529  0.5873
  192SAPI   C3822219   3.750   6.078   4.205 -0.4431 -0.8864  0.0085
  192SAPI   H8X22220   3.832   6.153   4.197 -1.7639  0.5903 -0.2553
  192SAPI   H8Y22221   3.785   5.974   4.192 -1.2669 -1.4147  1.7415
  192SAPI   C3922222   3.686   6.093   4.341 -0.4303  0.1098 -0.0122
  192SAPI   H9X22223   3.587   6.044   4.335 -0.1084 -0.6197  0.4615
  192SAPI   H9Y22224   3.670   6.200   4.363  1.7099  0.3820  0.5043
  192SAPI  C31022225   3.761   6.030   4.456  0.3884 -0.1589 -0.5798
  192SAPI  H10X22226   3.778   5.920   4.452  1.1589 -0.0162 -2.5425
  192SAPI  H10Y22227   3.695   6.055   4.541  1.4965 -1.8548  0.8689
  192SAPI  C31122228   3.905   6.078   4.485  0.0942 -0.5755  0.0152
  192SAPI  H11X22229   3.913   6.184   4.454  0.0114 -0.5522  0.0741
  192SAPI  H11Y22230   3.982   6.029   4.422  0.9072  0.0714  0.4837
  192SAPI  C31222231   3.934   6.046   4.634  0.6311  0.4941  0.1729
  192SAPI  H12X22232   4.044   6.051   4.652  0.2786  0.3682  2.5970
  192SAPI  H12Y22233   3.919   5.937   4.642  1.5209  0.3283 -0.1840
  192SAPI  C31322234   3.857   6.129   4.736 -0.2244  0.1817  0.3163
  192SAPI  H13X22235   3.756   6.084   4.744 -0.2700 -0.1141 -1.4734
  192SAPI  H13Y22236   3.846   6.232   4.696  0.0013 -0.2152 -0.7989
  192SAPI  C31422237   3.908   6.140   4.881  0.1668  0.7790 -0.2811
  192SAPI  H14X22238   3.841   6.210   4.935 -1.1342 -0.1414 -0.6545
  192SAPI  H14Y22239   4.012   6.178   4.883  0.5639 -0.1960 -1.1482
  192SAPI  C31522240   3.920   5.994   4.947 -0.4648  0.6463  0.2596
  192SAPI  H15X22241   4.010   5.954   4.897 -1.6827  1.2837 -2.6993
  192SAPI  H15Y22242   3.828   5.937   4.922 -0.6586  1.4795 -1.0915
  192SAPI  C31622243   3.920   6.007   5.097  0.1703  0.7270 -0.7074
  192SAPI  H16X22244   3.948   5.909   5.142 -0.5293  0.7381 -0.2190
  192SAPI  H16Y22245   3.817   6.021   5.138  0.2582  1.9764 -0.8888
  192SAPI  C31722246   4.008   6.114   5.152 -0.1383  0.3099 -0.4534
  192SAPI  H17X22247   3.959   6.211   5.126  3.4708  1.4539 -3.9835
  192SAPI  H17Y22248   4.099   6.108   5.089 -0.1167  1.2883 -0.5287
  192SAPI  C31822249   4.043   6.109   5.300 -0.5035  0.6349 -0.0005
  192SAPI  H18X22250   4.104   6.016   5.311 -1.3638  0.3220  2.6296
  192SAPI  H18Y22251   3.963   6.087   5.373 -0.2866 -1.3124 -0.2838
  192SAPI  H18Z22252   4.101   6.198   5.333 -0.0010  0.4136 -0.2708
  193SOD    SOD22253   2.331   0.335   1.874  0.3457 -0.2058 -0.2323
  194SOD    SOD22254   2.844   3.564   1.651 -0.1244 -0.0858 -0.4067
  195SOD    SOD22255   1.478   3.298   8.573 -0.4937  0.0677  0.3071
  196SOD    SOD22256   2.934   2.086   0.730 -0.0479  0.1790 -0.6810
  197SOD    SOD22257   4.672   2.332   8.660  0.3835  0.5477 -0.3761
  198SOD    SOD22258   2.399   2.780   2.599  0.0016  0.0494  0.0880
  199SOD    SOD22259   3.664   6.609   7.510 -0.3160  0.5096 -0.2019
  200SOD    SOD22260   5.549   2.198   7.051  0.0380 -0.2731 -0.0464
  201SOD    SOD22261   5.414   4.557   9.131 -0.6424 -0.5014 -0.0107
  202SOD    SOD22262   5.770   1.741   7.764 -0.0863  0.0380 -0.4408
  203SOD    SOD22263   3.817   2.645   1.874  0.1779 -0.2820 -0.2226
  204SOD    SOD22264   2.819   2.660   1.675  0.4316  0.2461 -0.1284
  205SOD    SOD22265   4.311   6.322   2.243  0.8187  0.3472 -0.4104
  206SOD    SOD22266   1.552   4.261   8.465 -0.1246 -0.2105  0.1350
  207SOD    SOD22267   2.540   5.593   2.876  0.1938 -0.1123  0.5066
  208SOD    SOD22268   1.124   1.079   8.712 -0.0762 -0.2132  0.2474
  209SOD    SOD22269   0.287   3.403   0.625  0.2008  0.2416  0.1625
  210SOD    SOD22270   3.693   5.620   8.320  0.5550  0.5238 -0.2471
  211SOD    SOD22271   2.103   0.112   8.405  0.0889 -0.2550  0.3909
  212SOD    SOD22272   0.562   3.876   2.750 -0.1044  0.0329 -0.3144
  213SOD    SOD22273   1.510   0.924   8.363 -0.0689  0.2018 -0.7918
  214SOD    SOD22274   4.561   3.407   3.050  0.1144  0.4426 -0.1781
  215SOD    SOD22275   6.062   5.618   7.569 -0.0556 -0.4411 -0.4260
  216SOD    SOD22276   5.671   1.272   8.107 -0.0132  0.6199  0.0177
  217SOD    SOD22277   5.721   0.056   7.609 -0.0970 -0.5381  0.4677
  218SOD    SOD22278   0.086   6.542   9.207 -0.4950 -0.3566  0.0637
  219SOD    SOD22279   2.091   4.816   0.735 -0.4412  0.3012 -0.3183
  220SOD    SOD22280   2.790   3.195   7.582 -0.1722  0.1254  0.3978
  221SOD    SOD22281   4.631   0.370   1.850  0.3563  0.0295 -0.5978
  222SOD    SOD22282   4.007   4.698   2.388  0.0192  0.1725 -0.6312
  223SOD    SOD22283   6.061   4.568   7.383  0.2396 -0.0267 -0.1935
  224SOD    SOD22284   4.319   0.637   8.072  0.0316 -0.2638 -0.1662
  225SOD    SOD22285   0.826   3.375   2.345  0.3639 -0.1065 -0.4715
  226SOD    SOD22286   0.322   3.634   8.218 -0.0392 -0.0235 -0.0620
  227SOD    SOD22287   5.971   2.682   2.374  0.0754 -0.0031 -0.4004
  228SOD    SOD22288   4.727   1.424   8.079  0.4745 -0.4097  0.3504
  229SOD    SOD22289   1.323   4.750   1.210 -0.1466 -0.1846  0.2113
  230SOD    SOD22290   4.251   0.994   0.707 -0.3684  0.1184 -0.5634
  231SOD    SOD22291   1.009   1.365   2.607  0.5272  0.4552  0.2859
  232SOD    SOD22292   5.288   3.289   3.161  0.5748  0.5240  0.2278
  233SOD    SOD22293   6.479   5.608   2.771 -0.2924 -0.6858  0.5653
  234CLA    CLA22294   5.875   3.093   8.762 -0.0052  0.1826  0.1261
  235CLA    CLA22295   3.708   0.206   0.541  0.0370  0.4100  0.0284
  236CLA    CLA22296   0.552   5.880   2.174 -0.1041 -0.0904  0.1167
  237CLA    CLA22297   2.885   4.382   0.720 -0.0597  0.2147 -0.2206
  238CLA    CLA22298   5.865   5.331   8.090  0.1353 -0.2808  0.2143
  239CLA    CLA22299   2.121   5.155   9.140  0.1275 -0.0147 -0.8385
  240CLA    CLA22300   0.165   5.002   1.407 -0.4869  0.0663 -0.3626
  241CLA    CLA22301   2.037   4.641   1.122 -0.3566  0.3022  0.0438
  242CLA    CLA22302   5.074   5.871   8.585 -0.3030 -0.3657 -0.2820
  243CLA    CLA22303   1.269   2.021   8.737  0.2454  0.2411 -0.0788
  244CLA    CLA22304   3.394   0.348   0.241  0.0099  0.0041  0.2360
  245CLA    CLA22305   0.195   2.445   0.853 -0.0530  0.2566  0.0090
  246CLA    CLA22306   2.105   0.404   0.703  0.2363  0.0187 -0.3433
  247CLA    CLA22307   4.423   3.164   1.366 -0.0651  0.5537 -0.0682
  248CLA    CLA22308   6.498   6.320   0.219  0.0565 -0.3864  0.1983
  249CLA    CLA22309   1.562   4.741   0.133  0.1503 -0.1505  0.1760
  250CLA    CLA22310   3.356   2.680   2.515 -0.2264 -0.2797 -0.0393
  251TIP3   OH222311   4.883   1.926   0.780 -0.4600 -0.4699  0.4568
  251TIP3    H122312   4.927   1.935   0.864  0.0598  0.4807  0.1004
  251TIP3    H222313   4.794   1.958   0.796 -1.4217 -3.3406  1.4324
  252TIP3   OH222314   1.815   1.534   2.439  0.0269  0.2871 -0.3215
  252TIP3    H122315   1.726   1.524   2.472 -0.5867 -0.8186 -2.1406
  252TIP3    H222316   1.868   1.478   2.496 -0.5015  0.6709  0.5520
  253TIP3   OH222317   0.126   3.055   8.797 -0.4631 -0.2338 -0.2580
  253TIP3    H122318   0.184   3.005   8.740 -0.8036  0.8013 -1.5753
  253TIP3    H222319   0.056   2.994   8.821  0.8944 -1.3747  1.0155
  254TIP3   OH222320   4.473   0.190   2.759 -0.1387  0.4811  0.5671
  254TIP3    H122321   4.416   0.265   2.774 -2.3750 -0.7974 -0.9638
  254TIP3    H222322   4.496   0.195   2.667  1.1292  0.1857  0.8448
  255TIP3   OH222323   0.385   5.763   1.394 -0.2815 -0.6291 -0.0979
  255TIP3    H122324   0.363   5.715   1.315 -0.2717 -0.4058 -0.2377
  255TIP3    H222325   0.419   5.697   1.454  0.5802 -0.6562 -0.6114
  256TIP3   OH222326   6.088   5.860   8.731  0.0188 -0.7446 -0.2500
  256TIP3    H122327   6.126   5.821   8.653 -1.2222  0.7292 -1.6539
  256TIP3    H222328   6.000   5.822   8.737 -0.0375 -0.5558  0.1864
  257TIP3   OH222329   3.212   2.821   0.131 -0.5981 -0.0378 -0.0027
  257TIP3    H122330   3.300   2.803   0.164 -1.1531 -2.2987  0.3978
  257TIP3    H222331   3.207   2.917   0.128  1.9652  0.1505 -0.3666
  258TIP3   OH222332   3.492   2.349   1.738 -0.3787 -0.6261  0.2507
  258TIP3    H122333   3.479   2.297   1.659 -0.0854  1.4892 -1.2668
  258TIP3    H222334   3.570   2.401   1.720  0.4041 -0.9348  2.4540
  259TIP3   OH222335   3.952   0.263   1.984 -0.3326 -0.4130  0.2570
  259TIP3    H122336   3.920   0.175   2.004  1.7428 -0.8822  1.8151
  259TIP3    H222337   3.873   0.317   1.985 -1.3389 -1.7898  2.0594
  260TIP3   OH222338   0.652   3.768   1.118  0.5704  0.7647 -0.1591
  260TIP3    H122339   0.589   3.757   1.047  0.9577  0.6025 -0.4837
  260TIP3    H222340   0.604   3.816   1.185  0.1858  0.8897 -0.5156
  261TIP3   OH222341   1.725   4.115   0.534 -0.3348 -0.0259 -0.5624
  261TIP3    H122342   1.703   4.195   0.487  1.3701  1.2929  0.7285
  261TIP3    H222343   1.818   4.102   0.515 -0.1567 -0.6743  0.6835
  262TIP3   OH222344   0.423   1.496   2.079 -0.3548  0.3403  0.4044
  262TIP3    H122345   0.351   1.554   2.054 -0.3332  0.0916 -0.2685
  262TIP3    H222346   0.383   1.409   2.087 -0.4628  0.4961  1.7969
  263TIP3   OH222347   2.732   0.292   0.629 -0.7802 -0.1541 -0.0549
  263TIP3    H122348   2.810   0.250   0.594  0.7924  1.0037  1.8383
  263TIP3    H222349   2.709   0.359   0.565 -1.8161 -2.1294 -1.8630
  264TIP3   OH222350   5.417   3.742   1.175 -0.0488  0.0017  0.4776
  264TIP3    H122351   5.454   3.823   1.141  0.9005  0.2272  1.9714
  264TIP3    H222352   5.363   3.709   1.103  1.6483  0.5699 -1.1401
  265TIP3   OH222353   0.223   1.030   8.045 -0.2694  0.1007 -0.3169
  265TIP3    H122354   0.129   1.035   8.063 -0.5874  1.7444 -2.1434
  265TIP3    H222355   0.237   0.940   8.015 -0.8589 -0.7344  1.7183
  266TIP3   OH222356   4.225   1.232   1.781  0.2806  0.1390 -0.1709
  266TIP3    H122357   4.248   1.140   1.765  1.7941  0.4512  0.0721
  266TIP3    H222358   4.160   1.229   1.850 -0.4110 -0.7980 -0.8362
  267TIP3   OH222359   5.264   1.711   2.210 -0.0460  0.3273  0.0260
  267TIP3    H122360   5.270   1.747   2.299 -0.8264 -0.0782  0.2494
  267TIP3    H222361   5.251   1.617   2.223 -0.9073  0.3646 -0.4987
  268TIP3   OH222362   4.692   5.131   3.436 -0.9015 -0.1681  1.3207
  268TIP3    H122363   4.664   5.041   3.421  0.2840 -0.2879 -0.5096
  268TIP3    H222364   4.760   5.146   3.371  0.6030  1.3011  3.1177
  269TIP3   OH222365   3.888   5.979   0.593 -0.7223  0.6787  0.2535
  269TIP3    H122366   3.797   5.987   0.566 -1.2345  0.6172  1.8294
  269TIP3    H222367   3.883   5.939   0.680  0.7397  1.8402  0.9124
  270TIP3   OH222368   1.904   1.645   0.790 -0.1999  1.1122  0.6029
  270TIP3    H122369   1.920   1.736   0.766 -1.2245  1.0522 -0.3571
  270TIP3    H222370   1.837   1.615   0.729  0.8335 -0.5985  0.2195
  271TIP3   OH222371   2.276   2.384   1.703  0.1265 -0.2494 -0.0964
  271TIP3    H122372   2.272   2.405   1.610 -2.4977  0.9669  0.1870
  271TIP3    H222373   2.225   2.303   1.711  0.2234 -0.2721  0.2969
  272TIP3   OH222374   3.664   3.929   8.959 -0.1101  0.8436  0.1801
  272TIP3    H122375   3.576   3.965   8.954 -1.3608 -1.9580 -0.2987
  272TIP3    H222376   3.652   3.843   9.001  2.2440 -0.0310 -0.7510
  273TIP3   OH222377   0.340   1.989   8.606 -0.1101  0.1223 -0.2122
  273TIP3    H122378   0.308   1.964   8.693 -0.3584 -0.1374 -0.3765
  273TIP3    H222379   0.432   2.010   8.619 -0.1339  0.0336  0.1033
  274TIP3   OH222380   2.829   2.901   1.681  0.0721  0.2731  0.7885
  274TIP3    H122381   2.812   2.989   1.714  0.4040  1.1574 -1.2145
  274TIP3    H222382   2.899   2.913   1.616 -1.6154 -1.0260 -1.4204
  275TIP3   OH222383   6.279   4.452   0.694 -0.0385  0.6666 -0.0393
  275TIP3    H122384   6.364   4.413   0.679 -0.4103 -0.7925  1.4322
  275TIP3    H222385   6.217   4.380   0.685 -0.9513  1.3451  0.5982
  276TIP3   OH222386   3.660   4.562   1.253 -0.2119 -0.3592 -0.7133
  276TIP3    H122387   3.654   4.656   1.237  0.4636 -0.2813 -0.5169
  276TIP3    H222388   3.697   4.554   1.341 -3.1031 -0.7860  0.6023
  277TIP3   OH222389   0.459   3.744   2.325  0.7343 -0.2028  0.0747
  277TIP3    H122390   0.447   3.674   2.261  0.4291  2.2898 -2.8266
  277TIP3    H222391   0.370   3.778   2.340  0.8536 -0.4969  1.6003
  278TIP3   OH222392   2.196   1.329   7.372 -0.8732  0.8206 -0.4774
  278TIP3    H122393   2.127   1.265   7.388  0.4239 -0.6340 -0.4739
  278TIP3    H222394   2.252   1.288   7.306  2.5472 -0.1851  2.7184
  279TIP3   OH222395   5.518   3.451   1.691  0.3788  0.0325  0.4642
  279TIP3    H122396   5.486   3.361   1.696  0.8091 -0.0841  1.2072
  279TIP3    H222397   5.439   3.504   1.678  0.2761 -0.5748 -1.8493
  280TIP3   OH222398   0.593   1.808   1.705 -0.4057 -0.6784  0.4942
  280TIP3    H122399   0.587   1.890   1.655 -0.4669 -0.6379  0.5681
  280TIP3    H222400   0.626   1.745   1.642 -0.1156 -0.5371  0.5060
  281TIP3   OH222401   4.513   4.883   7.692 -0.1118 -0.1033 -0.0211
  281TIP3    H122402   4.585   4.821   7.706  1.2239  0.7147 -2.6275
  281TIP3    H222403   4.443   4.831   7.655  0.2414 -0.4078 -0.2653
  282TIP3   OH222404   1.126   2.216   1.128  0.1305 -0.0088  0.2423
  282TIP3    H122405   1.135   2.252   1.216  0.2258  0.4303  0.0553
  282TIP3    H222406   1.140   2.291   1.069  1.2068 -0.5133 -0.1723
  283TIP3   OH222407   2.051   6.625   9.141  0.1906  0.2818 -0.6038
  283TIP3    H122408   2.134   6.594   9.105  0.2079  1.2137 -1.4202
  283TIP3    H222409   2.074   6.704   9.191  0.0417 -0.5030  0.7650
  284TIP3   OH222410   4.795   2.714   8.454 -0.2524  0.2150 -0.0540
  284TIP3    H122411   4.768   2.688   8.366 -0.0249  0.0614 -0.0790
  284TIP3    H222412   4.889   2.696   8.456 -0.4021 -0.5541  0.4965
  285TIP3   OH222413   3.395   6.337   8.876  0.0726  0.1900 -0.2524
  285TIP3    H122414   3.453   6.414   8.883 -0.7010  0.7712 -0.1372
  285TIP3    H222415   3.453   6.267   8.846  0.5979  1.0604 -1.3612
  286TIP3   OH222416   3.791   5.389   7.951 -0.2992  0.0686  0.6080
  286TIP3    H122417   3.866   5.421   7.901  0.1169  0.6178  1.5486
  286TIP3    H222418   3.721   5.380   7.887  1.0133 -2.1092 -0.6479
  287TIP3   OH222419   1.910   5.598   1.070  0.0534 -0.1670  0.1414
  287TIP3    H122420   1.816   5.585   1.073 -0.0811  0.5590 -0.5300
  287TIP3    H222421   1.930   5.611   0.977  0.8184 -0.3404  0.2706
  288TIP3   OH222422   1.350   5.553   0.206 -0.2409  0.3674 -0.4956
  288TIP3    H122423   1.385   5.567   0.118 -0.2847 -0.1549 -0.6017
  288TIP3    H222424   1.332   5.459   0.210  1.1359  0.1290  0.5811
  289TIP3   OH222425   3.803   3.608   1.020  0.3266 -0.1952 -0.0195
  289TIP3    H122426   3.751   3.542   0.974 -1.0050  1.3762 -0.8699
  289TIP3    H222427   3.828   3.566   1.102 -0.8145 -1.6005 -0.3516
  290TIP3   OH222428   6.506   5.895   2.329  0.2869 -0.3489  0.8205
  290TIP3    H122429   6.509   5.802   2.308  0.2384  0.0136 -0.9955
  290TIP3    H222430   6.430   5.927   2.280  0.9141  0.8298  0.5966
  291TIP3   OH222431   3.693   5.897   9.018  0.1433 -0.1855  0.1065
  291TIP3    H122432   3.766   5.873   8.961 -0.4155  0.1570 -0.7581
  291TIP3    H222433   3.683   5.821   9.076 -0.2480 -1.2026 -1.2347
  292TIP3   OH222434   5.855   5.169   0.348  0.3227 -0.1513 -0.2274
  292TIP3    H122435   5.874   5.112   0.274  1.1928  1.4040 -1.2348
  292TIP3    H222436   5.924   5.151   0.411  2.0861  1.5150 -1.5855
  293TIP3   OH222437   1.698   2.569   2.556  0.1210  0.0295  0.3409
  293TIP3    H122438   1.619   2.517   2.545  0.4602 -0.9789  2.2092
  293TIP3    H222439   1.757   2.537   2.488 -0.5206 -0.3145 -0.0603
  294TIP3   OH222440   5.825   1.344   8.260  0.9944 -0.3215  0.5359
  294TIP3    H122441   5.890   1.274   8.253  1.9213  0.4366  1.2285
  294TIP3    H222442   5.801   1.345   8.353  1.1510  0.4096  0.5748
  295TIP3   OH222443   2.721   5.925   0.764 -0.4569 -0.0416 -0.3855
  295TIP3    H122444   2.749   5.960   0.680  0.8689  1.4286  0.6217
  295TIP3    H222445   2.802   5.904   0.810 -1.1400 -0.3811  0.7096
  296TIP3   OH222446   6.301   2.701   1.659  0.7526 -0.2267  0.0336
  296TIP3    H122447   6.234   2.770   1.656  2.8443  1.9243 -1.1184
  296TIP3    H222448   6.261   2.627   1.614 -0.5038  1.3774 -1.6802
  297TIP3   OH222449   1.499   3.054   2.600 -0.0661  0.2101 -0.6413
  297TIP3    H122450   1.482   3.129   2.544 -0.6973  0.5487 -0.0057
  297TIP3    H222451   1.496   2.979   2.541  1.6456  0.7400 -1.4814
  298TIP3   OH222452   4.671   6.589   2.146 -0.3036 -0.3566 -0.2292
  298TIP3    H122453   4.703   6.535   2.073  1.3710  0.6985 -0.3472
  298TIP3    H222454   4.734   6.661   2.150 -0.3249 -0.4111  2.2969
  299TIP3   OH222455   1.287   0.123   3.076 -0.8133  0.4033 -0.2863
  299TIP3    H122456   1.374   0.096   3.046 -0.6752 -0.9490  1.1939
  299TIP3    H222457   1.300   0.210   3.113  0.1060 -0.1023  0.6451
  300TIP3   OH222458   0.160   2.216   9.234  0.7373  0.2140  0.1402
  300TIP3    H122459   0.095   2.285   9.248  0.2209 -0.1616 -0.3322
  300TIP3    H222460   0.226   2.230   9.302  0.5726  1.0878  0.1258
  301TIP3   OH222461   6.153   4.762   9.203  0.4167 -0.0898 -0.2896
  301TIP3    H122462   6.095   4.773   9.129 -0.0481 -1.2351 -0.1187
  301TIP3    H222463   6.124   4.826   9.267  0.0174  0.0508 -0.6141
  302TIP3   OH222464   3.360   6.058   1.564 -0.0584  0.5592 -0.3520
  302TIP3    H122465   3.278   6.049   1.613  0.5479 -0.8137  0.4757
  302TIP3    H222466   3.375   6.152   1.560 -2.5349  1.0066 -2.0570
  303TIP3   OH222467   4.369   6.237   1.531 -0.0396  0.0060 -0.0577
  303TIP3    H122468   4.325   6.319   1.510 -1.1082 -1.3659 -4.1826
  303TIP3    H222469   4.300   6.180   1.565  0.2598  0.1923  0.8706
  304TIP3   OH222470   2.944   4.873   3.123  0.2509  0.1507  0.2844
  304TIP3    H122471   2.965   4.932   3.194  2.3015  0.6781 -0.6910
  304TIP3    H222472   2.976   4.788   3.152  0.3725  0.2049  0.3078
  305TIP3   OH222473   0.710   3.585   9.125  0.2358  0.3179  0.4486
  305TIP3    H122474   0.759   3.506   9.102 -1.3706 -0.2736 -1.1644
  305TIP3    H222475   0.726   3.645   9.053 -0.7187  0.4283  0.3191
  306TIP3   OH222476   2.972   5.331   8.030  0.3639  0.4917  0.0589
  306TIP3    H122477   3.015   5.290   7.955 -0.0948  0.4000 -0.1569
  306TIP3    H222478   2.906   5.389   7.991  1.2056  1.6869  0.3442
  307TIP3   OH222479   0.334   1.248   9.297 -0.0925  0.2335 -0.0724
  307TIP3    H122480   0.323   1.342   9.282 -1.4323  0.0548 -0.3823
  307TIP3    H222481   0.424   1.239   9.326 -0.1057  1.6930  0.5394
  308TIP3   OH222482   5.232   3.145   1.313  0.0834 -0.5165 -0.2851
  308TIP3    H122483   5.191   3.151   1.226 -2.4282 -1.0014  0.7775
  308TIP3    H222484   5.198   3.221   1.360  1.0807 -0.4936  0.4294
  309TIP3   OH222485   6.594   6.445   2.076  1.0926  0.2617 -0.3168
  309TIP3    H122486   6.540   6.394   2.136  0.7624  1.5002  0.4851
  309TIP3    H222487   6.684   6.417   2.095  0.8366 -0.9020 -0.7722
  310TIP3   OH222488   5.482   2.483   1.823 -0.4663  0.0757 -0.1695
  310TIP3    H122489   5.515   2.565   1.861  1.6823 -0.0705 -1.5369
  310TIP3    H222490   5.388   2.497   1.815 -0.2662  2.1193  0.3439
  311TIP3   OH222491   2.363   1.453   1.566  0.1137 -0.1609  0.5974
  311TIP3    H122492   2.322   1.384   1.514 -0.8472 -0.1141  1.2789
  311TIP3    H222493   2.333   1.534   1.525 -0.3741 -0.1283  1.0133
  312TIP3   OH222494   3.107   6.080   2.595  0.6295 -0.3683 -0.4387
  312TIP3    H122495   3.156   6.062   2.675 -3.0488 -0.7071  2.0048
  312TIP3    H222496   3.046   6.150   2.620 -1.2217 -1.0634 -2.6509
  313TIP3   OH222497   5.012   1.123   8.618 -0.4544  0.1289  0.0864
  313TIP3    H122498   5.015   1.027   8.618 -2.6820 -0.0164  1.8346
  313TIP3    H222499   5.007   1.147   8.710 -0.0820  1.9431 -0.3336
  314TIP3   OH222500   5.919   3.703   0.899  0.4022 -0.6410  0.2078
  314TIP3    H122501   5.954   3.773   0.844 -1.0563  0.8481  1.1031
  314TIP3    H222502   5.830   3.731   0.920  0.3234 -2.0018  1.8974
  315TIP3   OH222503   5.066   4.505   8.129  0.4274 -0.2643 -0.1795
  315TIP3    H122504   5.103   4.455   8.056  1.9425 -0.5285  0.7125
  315TIP3    H222505   5.026   4.439   8.186 -0.4093 -0.0989 -0.5601
  316TIP3   OH222506   2.735   5.325   0.785 -0.3846  0.5111 -0.0821
  316TIP3    H122507   2.734   5.406   0.836  0.6015  0.9726 -0.7655
  316TIP3    H222508   2.824   5.291   0.798 -0.7367 -0.3717  0.0541
  317TIP3   OH222509   4.633   4.260   9.248  0.2392  0.6691 -0.7772
  317TIP3    H122510   4.587   4.340   9.275 -0.0410 -0.3624  2.1561
  317TIP3    H222511   4.564   4.197   9.229  0.3539 -0.1516  1.2766
  318TIP3   OH222512   1.099   2.319   2.263  0.2855 -0.5309  0.3595
  318TIP3    H122513   1.174   2.361   2.220 -0.9200 -0.1826 -1.5565
  318TIP3    H222514   1.072   2.381   2.331 -0.0226  0.7558 -0.8840
  319TIP3   OH222515   3.887   2.332   0.081  0.1641 -0.2403  0.0946
  319TIP3    H122516   3.806   2.298   0.120 -0.7654  0.5018 -1.1140
  319TIP3    H222517   3.956   2.299   0.138 -1.0455 -0.1138  1.7355
  320TIP3   OH222518   0.488   2.505   2.531  0.1173 -0.4841 -0.4282
  320TIP3    H122519   0.452   2.510   2.620 -0.9561  0.6979 -0.9083
  320TIP3    H222520   0.556   2.572   2.529  1.6640 -1.9512  0.1228
  321TIP3   OH222521   2.239   6.064   1.390  0.0329 -0.2397 -0.3579
  321TIP3    H122522   2.288   5.994   1.434 -0.4464 -1.1597 -1.2377
  321TIP3    H222523   2.304   6.107   1.335 -0.0703 -1.3216 -1.3600
  322TIP3   OH222524   1.374   3.528   0.487 -0.0396 -0.1370  0.0688
  322TIP3    H122525   1.400   3.574   0.567 -0.7696  1.8222 -0.7617
  322TIP3    H222526   1.422   3.445   0.491  1.1367  0.5545  1.7740
  323TIP3   OH222527   3.630   3.577   1.307  0.0174  1.0389 -0.1704
  323TIP3    H122528   3.721   3.599   1.287  0.2127 -0.1881 -0.6848
  323TIP3    H222529   3.579   3.630   1.246  0.5346 -0.8743 -2.3790
  324TIP3   OH222530   2.380   2.849   1.902  0.2518  0.6702  0.1820
  324TIP3    H122531   2.369   2.859   1.996 -1.6088  2.0040 -0.1146
  324TIP3    H222532   2.316   2.782   1.877  0.2348  0.8339 -0.2234
  325TIP3   OH222533   6.168   2.107   2.154  0.2569 -0.1007 -0.1653
  325TIP3    H122534   6.238   2.124   2.090  0.2456  1.8324  0.2553
  325TIP3    H222535   6.097   2.165   2.126 -0.4259 -0.5655  0.5760
  326TIP3   OH222536   1.667   5.885   2.339  0.5380 -0.1379 -0.3301
  326TIP3    H122537   1.702   5.927   2.418  0.3640 -2.5092  1.0955
  326TIP3    H222538   1.745   5.862   2.288  0.7652 -0.3737  0.1177
  327TIP3   OH222539   2.271   1.410   0.197 -0.2617  0.2528 -0.0405
  327TIP3    H122540   2.308   1.451   0.275 -0.5979  0.4634  0.0125
  327TIP3    H222541   2.185   1.378   0.225  0.1551 -0.8550  0.0252
  328TIP3   OH222542   0.259   2.114   7.879 -0.7309 -0.4221  0.3036
  328TIP3    H122543   0.271   2.187   7.941 -3.5897  0.2879  0.1735
  328TIP3    H222544   0.256   2.036   7.935 -1.4763  0.0028  0.8726
  329TIP3   OH222545   4.565   3.061   2.243  0.8128  0.2139  0.1333
  329TIP3    H122546   4.652   3.102   2.246  0.5492  0.7379  1.5823
  329TIP3    H222547   4.546   3.040   2.335 -0.9072  0.7935 -0.0685
  330TIP3   OH222548   5.584   4.351   9.114 -0.3332  0.4859  0.1604
  330TIP3    H122549   5.599   4.267   9.072 -1.8863  1.5851 -2.8985
  330TIP3    H222550   5.658   4.362   9.174  1.3608 -1.8284 -1.3572
  331TIP3   OH222551   2.830   4.086   0.772  0.1602 -0.0635 -0.5977
  331TIP3    H122552   2.908   4.077   0.827  0.3999  0.6866 -0.8141
  331TIP3    H222553   2.813   4.180   0.768 -0.3341 -0.1686 -1.1455
  332TIP3   OH222554   1.536   3.518   9.280 -0.5472 -0.1560 -0.1162
  332TIP3    H122555   1.511   3.513   9.187  0.4693 -0.6801 -0.3706
  332TIP3    H222556   1.510   3.434   9.317  1.4592 -1.0152 -0.5599
  333TIP3   OH222557   1.400   1.112   7.570  0.2344  0.3057 -0.5303
  333TIP3    H122558   1.468   1.067   7.519  1.3338  0.5906  0.6235
  333TIP3    H222559   1.336   1.141   7.505  1.2840  0.1458 -1.6767
  334TIP3   OH222560   1.655   2.434   8.600  0.4851 -0.1174 -0.4886
  334TIP3    H122561   1.727   2.381   8.634 -0.5293 -0.3010  1.5159
  334TIP3    H222562   1.580   2.373   8.597 -0.3502  0.8240  0.5095
  335TIP3   OH222563   4.331   2.462   7.885 -0.2050 -0.8510  0.1672
  335TIP3    H122564   4.256   2.439   7.830  0.5242  1.0078 -1.7337
  335TIP3    H222565   4.406   2.462   7.824  1.4458 -2.8847  2.0327
  336TIP3   OH222566   5.771   3.684   0.040  0.1900 -0.3478  0.4517
  336TIP3    H122567   5.805   3.774   0.042 -1.7062  0.4219  0.0488
  336TIP3    H222568   5.826   3.639  -0.025  2.2912 -0.0092  1.8996
  337TIP3   OH222569   4.749   1.787   0.282 -0.3697 -0.3830  0.1229
  337TIP3    H122570   4.829   1.813   0.236 -1.4885  0.2204 -1.5818
  337TIP3    H222571   4.762   1.819   0.371  1.0642  0.1695 -0.2459
  338TIP3   OH222572   2.157   0.294   8.244 -0.2859 -0.5373  0.1937
  338TIP3    H122573   2.079   0.347   8.228  0.0398  0.1819  0.9337
  338TIP3    H222574   2.230   0.348   8.214 -0.0485 -1.1322 -0.3216
  339TIP3   OH222575   5.631   2.479   1.304 -0.8221  0.0985 -0.0658
  339TIP3    H122576   5.570   2.552   1.303 -2.4165 -1.1957 -0.6777
  339TIP3    H222577   5.584   2.408   1.348 -0.1120 -1.2187 -1.3476
  340TIP3   OH222578   1.612   6.530   8.169 -0.0158  0.0588 -0.1476
  340TIP3    H122579   1.677   6.564   8.107 -0.9379  1.2797 -0.4994
  340TIP3    H222580   1.535   6.584   8.153 -1.3789 -1.8541 -0.2692
  341TIP3   OH222581   4.371   4.917   8.606 -0.0875  0.2053 -0.0585
  341TIP3    H122582   4.348   4.876   8.522  0.9595  1.9846 -1.2802
  341TIP3    H222583   4.466   4.909   8.611  0.1159  2.0634 -0.1723
  342TIP3   OH222584   0.252   2.518   8.437 -0.3273  0.0358 -0.2667
  342TIP3    H122585   0.231   2.460   8.364 -0.8502  0.5119 -0.4969
  342TIP3    H222586   0.173   2.571   8.450 -0.1622  0.1079  0.5011
  343TIP3   OH222587   4.438   4.878   2.280  0.5248  0.0931  0.0997
  343TIP3    H122588   4.500   4.930   2.229 -1.1261 -0.4110 -2.6283
  343TIP3    H222589   4.361   4.871   2.224 -1.2126 -1.1090  2.4523
  344TIP3   OH222590   0.723   4.322   2.356 -0.1034  0.4655  0.3038
  344TIP3    H122591   0.759   4.393   2.409 -0.4666 -0.2649  1.5862
  344TIP3    H222592   0.702   4.254   2.420 -0.0593 -0.6671 -0.8637
  345TIP3   OH222593   6.161   6.210   8.301 -0.0531  0.7530 -0.6730
  345TIP3    H122594   6.080   6.158   8.300  0.3051  0.1808 -0.1463
  345TIP3    H222595   6.164   6.251   8.214 -0.6674  0.4098 -0.8611
  346TIP3   OH222596   4.163   0.755   8.213  0.4112  0.2583  0.2274
  346TIP3    H122597   4.212   0.834   8.235  1.7003 -0.2185 -0.7846
  346TIP3    H222598   4.071   0.781   8.216  0.7764  1.5057  0.9659
  347TIP3   OH222599   5.672   1.969   7.818  0.3233 -0.1103 -0.0525
  347TIP3    H122600   5.624   2.016   7.751  0.6693 -0.8628 -0.8412
  347TIP3    H222601   5.674   2.029   7.893 -0.8593  0.3646 -0.3858
  348TIP3   OH222602   0.957   4.929   0.942  0.0780  0.1053  0.0803
  348TIP3    H122603   0.903   4.888   1.009  0.5929  1.1669  1.1759
  348TIP3    H222604   0.907   4.919   0.861 -1.7528  1.0277  1.0450
  349TIP3   OH222605   3.715   5.566   8.961 -0.2287  0.6145 -0.3409
  349TIP3    H122606   3.782   5.627   8.930 -0.2663  0.2946 -1.0683
  349TIP3    H222607   3.699   5.592   9.052  0.4975  1.0304 -0.3237
  350TIP3   OH222608   2.152   4.355   1.142  0.2290 -0.0242  0.8430
  350TIP3    H122609   2.110   4.439   1.122  1.4482  0.7440  1.3788
  350TIP3    H222610   2.219   4.377   1.207 -0.2793 -1.6277  1.9744
  351TIP3   OH222611   6.347   4.898   8.083  0.4583  0.1865  0.2105
  351TIP3    H122612   6.411   4.968   8.070  0.3558  0.4432  1.0109
  351TIP3    H222613   6.302   4.891   7.999 -1.0563  2.6280  0.6907
  352TIP3   OH222614   5.281   6.000   1.774 -0.4994  0.2476  0.0957
  352TIP3    H122615   5.325   5.953   1.845  0.7427  1.0720 -0.0955
  352TIP3    H222616   5.338   6.074   1.755 -2.3560  1.8068  0.3208
  353TIP3   OH222617   6.095   0.680   0.022 -0.6551  0.4149  0.2264
  353TIP3    H122618   6.160   0.725  -0.032  2.9781 -0.2186  3.6090
  353TIP3    H222619   6.079   0.597  -0.023  0.1786  0.9839 -1.1801
  354TIP3   OH222620   3.209   5.771   0.149 -0.6154  0.3848  0.7743
  354TIP3    H122621   3.176   5.738   0.065  0.9423  1.1292 -0.1775
  354TIP3    H222622   3.141   5.830   0.180 -1.7406 -0.7807  0.6394
  355TIP3   OH222623   0.279   5.022   7.978  0.4106  0.3604  0.2375
  355TIP3    H122624   0.258   5.109   8.013 -0.1180  0.1065  0.5805
  355TIP3    H222625   0.218   5.011   7.905  0.2201  0.1258  0.4333
  356TIP3   OH222626   5.916   2.849   0.701  0.7421 -0.1030  0.6253
  356TIP3    H122627   6.000   2.894   0.717  0.1719  0.4826  2.1553
  356TIP3    H222628   5.856   2.919   0.675  1.1178 -0.7536 -2.4847
  357TIP3   OH222629   2.521   6.026   0.919  0.0013 -0.3380  0.0669
  357TIP3    H122630   2.477   5.947   0.952  1.6395 -0.7820  1.3193
  357TIP3    H222631   2.601   5.993   0.879  0.4052  0.6534  0.0415
  358TIP3   OH222632   0.422   3.583   1.377  0.1263 -0.3963  0.3462
  358TIP3    H122633   0.424   3.488   1.375  0.2183 -0.4144  0.9899
  358TIP3    H222634   0.330   3.605   1.361 -0.0201 -0.6217  0.8436
  359TIP3   OH222635   2.349   5.001   1.033 -0.8937  0.9509  0.0967
  359TIP3    H122636   2.391   5.085   1.016  0.3493  0.1013 -1.3910
  359TIP3    H222637   2.291   4.987   0.958 -0.6580  0.2482  0.0367
  360TIP3   OH222638   1.879   2.509   1.367  0.4343  0.3441 -0.0777
  360TIP3    H122639   1.925   2.548   1.292 -0.4355 -0.4318 -1.0515
  360TIP3    H222640   1.796   2.556   1.371 -0.4239 -1.0201 -0.9682
  361TIP3   OH222641   2.009   0.299   1.216  0.3936  0.3507  0.3071
  361TIP3    H122642   1.961   0.260   1.289  2.6918 -0.3136  1.5915
  361TIP3    H222643   2.063   0.227   1.182  2.2663  1.5768  0.5566
  362TIP3   OH222644   5.594   6.529   7.952 -0.3039  0.9705 -0.2726
  362TIP3    H122645   5.587   6.471   8.028 -0.6298  1.4505  0.0697
  362TIP3    H222646   5.533   6.493   7.888  0.2185  0.3658 -0.4481
  363TIP3   OH222647   1.395   1.375   8.889 -0.1298  0.4426  0.0121
  363TIP3    H122648   1.432   1.354   8.803 -0.7553  2.2452 -0.7317
  363TIP3    H222649   1.302   1.391   8.872 -0.0996  1.6486  0.8733
  364TIP3   OH222650   2.740   5.482   2.759 -0.0132 -0.3358 -0.4274
  364TIP3    H122651   2.794   5.419   2.808  2.7466  2.0730 -0.1041
  364TIP3    H222652   2.739   5.447   2.670 -0.5791 -2.0260  0.1931
  365TIP3   OH222653   4.179   4.149   2.780  0.2557  0.1962  0.2729
  365TIP3    H122654   4.224   4.076   2.739 -1.6748 -1.4479  0.9191
  365TIP3    H222655   4.230   4.167   2.859  0.3233 -1.0224  0.5301
  366TIP3   OH222656   6.567   2.869   1.792 -0.5987  0.1495  0.7331
  366TIP3    H122657   6.477   2.846   1.769  0.5306 -1.6865 -2.6068
  366TIP3    H222658   6.604   2.788   1.828  0.3794  0.0286 -0.4623
  367TIP3   OH222659   3.360   5.817   0.559 -0.7392 -0.7291  0.2578
  367TIP3    H122660   3.280   5.853   0.523  0.9080  2.5535 -0.4486
  367TIP3    H222661   3.421   5.815   0.485  0.5504 -0.8720  1.2922
  368TIP3   OH222662   2.615   1.643   1.101 -0.0439  0.1638  0.0954
  368TIP3    H122663   2.606   1.576   1.168 -0.7033  0.2967  0.1436
  368TIP3    H222664   2.534   1.637   1.050  0.5629 -0.1431 -0.8816
  369TIP3   OH222665   3.891   5.648   1.560 -0.2398  0.3625 -0.5995
  369TIP3    H122666   3.841   5.726   1.534 -1.0734 -0.0049 -0.1436
  369TIP3    H222667   3.833   5.575   1.537  0.9248 -0.1909 -1.9187
  370TIP3   OH222668   0.469   0.134   1.821  0.5444 -0.1842 -0.4910
  370TIP3    H122669   0.440   0.088   1.900 -2.9893  0.6907 -1.1015
  370TIP3    H222670   0.438   0.079   1.749  3.8583 -1.0560 -1.4201
  371TIP3   OH222671   4.671   4.650   0.175  0.7073  0.1754  0.1797
  371TIP3    H122672   4.756   4.614   0.151  0.0833  0.6998 -3.4316
  371TIP3    H222673   4.637   4.687   0.093 -2.0899  1.8741  1.9446
  372TIP3   OH222674   5.704   0.733   9.169  0.0058 -0.1962 -0.4947
  372TIP3    H122675   5.648   0.708   9.096 -1.6507 -1.1396  1.0345
  372TIP3    H222676   5.725   0.650   9.213 -1.7594  0.5643  1.9817
  373TIP3   OH222677   4.674   4.607   2.522  0.9740  0.4430  0.1036
  373TIP3    H122678   4.690   4.539   2.587  0.4414 -0.3249 -0.5459
  373TIP3    H222679   4.761   4.634   2.493  1.1776 -0.2095  0.1087
  374TIP3   OH222680   4.955   2.937   1.445 -0.2968 -0.0800 -0.2662
  374TIP3    H122681   4.943   2.890   1.527 -1.5995 -1.7074 -1.3342
  374TIP3    H222682   4.930   3.028   1.466 -2.2252 -0.7831  0.7810
  375TIP3   OH222683   6.325   3.308   2.796 -0.2386 -0.1236  0.6119
  375TIP3    H122684   6.254   3.254   2.759  0.9202 -0.4598 -1.2362
  375TIP3    H222685   6.327   3.386   2.740  2.3849 -1.2140 -0.9652
  376TIP3   OH222686   2.672   2.254   8.075  0.4706 -0.3264  0.0601
  376TIP3    H122687   2.616   2.195   8.026  1.4268  0.1512 -1.7140
  376TIP3    H222688   2.749   2.202   8.097  1.3036  0.2035 -1.4841
  377TIP3   OH222689   4.644   1.604   7.746  0.3421 -0.0072  0.0906
  377TIP3    H122690   4.626   1.595   7.652  0.6527  0.8192 -0.0550
  377TIP3    H222691   4.561   1.583   7.789  0.2089 -0.4215 -0.3632
  378TIP3   OH222692   3.508   2.038   2.380 -0.6333  0.1213 -0.3526
  378TIP3    H122693   3.530   1.993   2.298  2.0889  1.4357 -0.4475
  378TIP3    H222694   3.535   1.977   2.449 -2.8224 -0.9371 -0.3181
  379TIP3   OH222695   3.595   3.271   0.242  0.2286 -0.0263  0.1162
  379TIP3    H122696   3.610   3.304   0.154  2.0617  0.4668  0.5774
  379TIP3    H222697   3.620   3.343   0.300 -0.7232 -0.4161  1.0597
  380TIP3   OH222698   4.497   5.161   1.625  0.0789  0.1045 -0.0473
  380TIP3    H122699   4.476   5.225   1.557 -0.1017  0.5979  0.4748
  380TIP3    H222700   4.412   5.133   1.659  0.2043  0.8245  0.8762
  381TIP3   OH222701   1.383   6.027   8.742 -0.6070  0.5631 -0.4303
  381TIP3    H122702   1.401   6.091   8.811 -0.4317  0.0152  0.0418
  381TIP3    H222703   1.388   6.077   8.661  2.5082  0.6070 -0.3346
  382TIP3   OH222704   2.058   0.331   2.462 -0.8054 -0.3757 -0.2286
  382TIP3    H122705   2.003   0.345   2.539 -0.0326 -0.6254  0.3807
  382TIP3    H222706   2.069   0.419   2.424  1.0857  0.2299  1.5494
  383TIP3   OH222707   2.466   1.037   9.129 -0.5131  0.1779 -0.4879
  383TIP3    H122708   2.395   1.008   9.187  0.3504  1.4913  1.3000
  383TIP3    H222709   2.486   1.126   9.158 -0.1996  1.0077 -3.0095
  384TIP3   OH222710   6.526   1.619   0.468 -0.9416 -0.1730  0.2198
  384TIP3    H122711   6.603   1.567   0.493 -0.8793  0.7512  2.1761
  384TIP3    H222712   6.452   1.561   0.489 -0.8155 -0.4406 -0.0690
  385TIP3   OH222713   6.416   1.208   8.039 -0.0296 -0.3294  0.3938
  385TIP3    H122714   6.369   1.291   8.035  0.0517 -0.2950  0.0730
  385TIP3    H222715   6.405   1.178   8.129  3.1837  1.9059  1.7153
  386TIP3   OH222716   0.596   4.497   8.424 -0.5696  0.1552  0.6124
  386TIP3    H122717   0.573   4.404   8.422 -0.2610  0.0700  0.9861
  386TIP3    H222718   0.574   4.529   8.336  1.6707 -0.8207 -0.3800
  387TIP3   OH222719   4.807   4.033   9.133  0.1365 -0.0476  0.1926
  387TIP3    H122720   4.712   4.023   9.138  0.2487 -1.0619  0.4032
  387TIP3    H222721   4.836   3.964   9.073  0.7793  0.0113  0.4252
  388TIP3   OH222722   6.529   0.760   0.128  0.3134 -0.1897  0.8274
  388TIP3    H122723   6.463   0.703   0.166  1.9479 -2.6763  0.1966
  388TIP3    H222724   6.601   0.758   0.190  1.1108 -0.3613 -0.0779
  389TIP3   OH222725   1.204   3.307   1.871 -0.2266  0.2220 -0.2619
  389TIP3    H122726   1.219   3.231   1.816 -1.0807 -0.7170  0.7520
  389TIP3    H222727   1.239   3.381   1.821  2.0380 -1.0082 -0.5981
  390TIP3   OH222728   1.895   3.437   8.267 -0.1619  0.2592 -0.2092
  390TIP3    H122729   1.941   3.500   8.212  0.1617  1.4823  1.4078
  390TIP3    H222730   1.822   3.486   8.305 -0.1374 -0.4187  0.7629
  391TIP3   OH222731   2.017   2.658   0.535  0.1336  0.1398 -0.2770
  391TIP3    H122732   2.077   2.584   0.536 -2.0631 -1.7402 -0.3361
  391TIP3    H222733   1.984   2.664   0.624  0.5203  1.2834 -0.1957
  392TIP3   OH222734   0.460   3.128   8.507  0.1155  0.1580  0.4800
  392TIP3    H122735   0.456   3.110   8.601  0.7240  0.6841  0.6196
  392TIP3    H222736   0.407   3.060   8.466 -0.1433 -0.0799  1.2052
  393TIP3   OH222737   5.193   1.479   2.499  0.4319  0.1986  0.1758
  393TIP3    H122738   5.162   1.388   2.495  0.6611  0.1396 -0.4708
  393TIP3    H222739   5.113   1.531   2.506  0.1077  0.0740 -1.9566
  394TIP3   OH222740   2.292   2.742   8.847 -0.2462  0.7284  0.0299
  394TIP3    H122741   2.308   2.789   8.765  1.3853  1.0787  0.5085
  394TIP3    H222742   2.216   2.688   8.829  1.6257 -1.3172 -2.6756
  395TIP3   OH222743   6.472   1.897   7.833  0.1494 -0.3417  0.4701
  395TIP3    H122744   6.558   1.916   7.796 -0.9344  0.4048 -1.8273
  395TIP3    H222745   6.456   1.969   7.894  0.0181  1.0470 -1.1610
  396TIP3   OH222746   0.650   4.854   1.556 -0.4910 -0.1959 -0.4074
  396TIP3    H122747   0.565   4.831   1.520 -0.7129 -0.0461  0.0230
  396TIP3    H222748   0.635   4.935   1.604 -0.4566 -1.0208  1.0522
  397TIP3   OH222749   0.289   5.250   1.630  0.3576  0.0375  0.2683
  397TIP3    H122750   0.288   5.158   1.604 -0.1583 -0.0201  0.4766
  397TIP3    H222751   0.284   5.247   1.726  0.2374  0.2853  0.2693
  398TIP3   OH222752   4.039   3.619   1.464  0.0691  0.5999 -0.1923
  398TIP3    H122753   4.029   3.709   1.494 -1.1146 -0.4850  3.0828
  398TIP3    H222754   4.099   3.579   1.526  1.3741 -0.6965 -2.1623
  399TIP3   OH222755   0.321   5.316   2.608  0.1671 -0.5756  0.3790
  399TIP3    H122756   0.407   5.357   2.604  0.2899 -0.7141  1.4161
  399TIP3    H222757   0.260   5.383   2.578  0.5923 -0.3477  0.0226
  400TIP3   OH222758   6.356   4.575   0.971  0.2105 -0.4147  0.3984
  400TIP3    H122759   6.403   4.510   1.023 -1.0441 -2.7399 -1.2060
  400TIP3    H222760   6.325   4.527   0.894 -0.6584  2.1440 -0.9765
  401TIP3   OH222761   1.648   0.890   1.889  0.6693  0.1015 -0.0879
  401TIP3    H122762   1.701   0.834   1.833 -0.6235  0.3836 -1.6719
  401TIP3    H222763   1.702   0.967   1.906  0.4354  0.9179 -2.6187
  402TIP3   OH222764   6.112   4.357   1.936  0.6222 -0.1855  0.4989
  402TIP3    H122765   6.114   4.268   1.902  0.0382 -0.5325  1.3456
  402TIP3    H222766   6.078   4.348   2.025 -1.9409  1.1300 -0.2397
  403TIP3   OH222767   4.168   2.345   8.971 -0.1041  0.1772 -0.3257
  403TIP3    H122768   4.203   2.265   9.011 -1.4791 -0.1177  0.3429
  403TIP3    H222769   4.138   2.318   8.884 -0.3800  0.0136 -0.1790
  404TIP3   OH222770   2.684   1.765   1.330  0.5262 -0.2209  0.8106
  404TIP3    H122771   2.665   1.674   1.357 -4.1336 -0.0644 -0.9209
  404TIP3    H222772   2.697   1.759   1.235 -2.3320  0.9547  0.2230
  405TIP3   OH222773   2.105   6.305   9.247  0.1025  0.1637  0.0597
  405TIP3    H122774   2.187   6.256   9.248 -1.3220 -2.4131 -0.2474
  405TIP3    H222775   2.094   6.331   9.156  0.8967  1.1769  0.2342
  406TIP3   OH222776   2.696   3.198   7.798  0.4551  0.2864 -0.3046
  406TIP3    H122777   2.605   3.175   7.815  0.3727  0.9126  0.1419
  406TIP3    H222778   2.746   3.133   7.847  0.3329 -1.8056 -2.7550
  407TIP3   OH222779   2.992   3.871   0.900 -0.1248  0.7026 -0.3392
  407TIP3    H122780   2.925   3.877   0.832 -1.5477 -1.9711  0.7037
  407TIP3    H222781   2.951   3.906   0.978 -0.3772 -0.9437  0.3049
  408TIP3   OH222782   6.031   1.289   1.965  0.0461  0.0529  0.5372
  408TIP3    H122783   6.104   1.270   1.906 -0.4767  2.7682 -1.1925
  408TIP3    H222784   6.063   1.263   2.051  3.6113  2.1452  0.0754
  409TIP3   OH222785   3.319   3.143   1.897  0.2263  0.0364 -0.2960
  409TIP3    H122786   3.400   3.166   1.943 -0.1062 -0.7788  0.7430
  409TIP3    H222787   3.348   3.121   1.808  1.4277 -1.8829  0.4835
  410TIP3   OH222788   3.801   3.746   8.428  0.1175 -0.3866  0.3011
  410TIP3    H122789   3.792   3.721   8.519  3.9585  0.8778  1.1892
  410TIP3    H222790   3.894   3.736   8.408 -0.5942 -1.1015 -3.6977
  411TIP3   OH222791   3.055   3.572   1.730  0.1045  0.5557 -0.2327
  411TIP3    H122792   3.110   3.583   1.808  0.0761  1.7462 -0.3535
  411TIP3    H222793   3.111   3.525   1.668 -0.8620 -3.2485  1.4819
  412TIP3   OH222794   5.093   3.958   0.189  0.1834  0.0794 -0.1396
  412TIP3    H122795   5.095   3.912   0.273 -0.6015  2.6246  1.4077
  412TIP3    H222796   5.004   3.994   0.184  0.7761  1.4741 -1.1652
  413TIP3   OH222797   2.226   1.755   1.431  0.2512 -0.1628  0.1061
  413TIP3    H122798   2.316   1.773   1.403  0.7909 -1.1994  1.0947
  413TIP3    H222799   2.188   1.842   1.447  0.5547  0.3669 -1.7841
  414TIP3   OH222800   2.444   6.176   1.238 -0.4717 -0.2788 -0.4839
  414TIP3    H122801   2.476   6.160   1.149  0.8002  1.3297 -0.3579
  414TIP3    H222802   2.504   6.127   1.294  1.7221  2.3742 -0.2791
  415TIP3   OH222803   2.886   5.118   8.475  0.1446  0.2610 -0.0196
  415TIP3    H122804   2.813   5.057   8.461 -1.4470  1.9901  0.4314
  415TIP3    H222805   2.928   5.124   8.389 -0.7776 -0.0984 -0.5174
  416TIP3   OH222806   4.192   1.148   0.886 -0.5286 -0.1460 -0.2650
  416TIP3    H122807   4.102   1.179   0.881 -0.3821  0.3178 -0.0856
  416TIP3    H222808   4.242   1.225   0.913  0.1068 -0.0617 -1.6154
  417TIP3   OH222809   3.587   0.685   7.931 -0.0111  0.8528  0.0341
  417TIP3    H122810   3.621   0.687   7.841 -1.5394  1.2246 -0.5671
  417TIP3    H222811   3.648   0.629   7.979  0.8298  0.6508 -1.2352
  418TIP3   OH222812   4.235   1.488   0.637  0.3578 -0.0073  0.0349
  418TIP3    H122813   4.151   1.502   0.681 -0.2246  0.7477 -1.2689
  418TIP3    H222814   4.298   1.535   0.691 -0.5989  2.3454 -0.7704
  419TIP3   OH222815   2.040   5.110   2.061 -0.1332  0.1354 -0.0977
  419TIP3    H122816   2.093   5.047   2.109 -0.1023 -0.1534 -0.5041
  419TIP3    H222817   1.956   5.066   2.049 -0.3375  0.4400  0.2067
  420TIP3   OH222818   4.280   0.835   8.918  0.6922  0.2000 -0.3545
  420TIP3    H122819   4.232   0.849   8.836  2.3512 -0.0685 -1.4193
  420TIP3    H222820   4.263   0.743   8.939  0.6821  0.1198 -0.6925
  421TIP3   OH222821   0.710   0.744   1.030 -0.2069  0.1062  0.1680
  421TIP3    H122822   0.718   0.673   1.093  0.8304  0.1242  0.0708
  421TIP3    H222823   0.642   0.714   0.968  0.6024 -1.0474 -0.1972
  422TIP3   OH222824   3.872   3.738   0.239 -0.3419 -0.0826 -0.1469
  422TIP3    H122825   3.880   3.703   0.150 -1.3929  1.9240 -1.1163
  422TIP3    H222826   3.872   3.833   0.227 -0.2339  0.2452  2.0481
  423TIP3   OH222827   5.852   6.102   8.490  0.3261 -0.8519  0.6254
  423TIP3    H122828   5.761   6.073   8.483 -0.3959  1.6718 -2.3458
  423TIP3    H222829   5.897   6.061   8.417  0.5765  0.9085 -0.2734
  424TIP3   OH222830   4.340   6.300   7.853 -0.0601  0.0525  0.1839
  424TIP3    H122831   4.408   6.266   7.911  2.1030  0.7069 -1.8154
  424TIP3    H222832   4.310   6.223   7.804  0.1473 -0.0581  0.2276
  425TIP3   OH222833   6.094   2.656   9.091  0.9107 -0.3501  0.1591
  425TIP3    H122834   6.059   2.568   9.073  0.8747 -0.3915  0.4316
  425TIP3    H222835   6.119   2.689   9.005  0.0040 -0.2414 -0.0742
  426TIP3   OH222836   6.442   1.970   1.359 -0.1974 -0.4305 -0.7221
  426TIP3    H122837   6.434   1.903   1.427 -1.1892 -1.5371 -1.8721
  426TIP3    H222838   6.500   1.932   1.294  1.0521  0.7753 -0.3570
  427TIP3   OH222839   3.211   4.291   7.713 -0.4937 -0.3427 -0.0104
  427TIP3    H122840   3.267   4.283   7.790 -0.2850  2.6816  0.2598
  427TIP3    H222841   3.122   4.296   7.749 -0.4641  0.2713 -0.0198
  428TIP3   OH222842   3.740   0.902   7.117 -0.6590  0.3371  0.5174
  428TIP3    H122843   3.765   0.982   7.164  0.2452  2.6796 -3.4703
  428TIP3    H222844   3.822   0.864   7.087 -1.2159 -0.6658  0.2021
  429TIP3   OH222845   2.534   0.975   8.121 -0.1661 -0.0106  0.0659
  429TIP3    H122846   2.586   0.901   8.154 -1.8001 -1.0046  0.5575
  429TIP3    H222847   2.528   1.035   8.195 -2.5778 -1.5450  1.2553
  430TIP3   OH222848   2.985   3.545   2.362  0.1517  0.2571  0.4995
  430TIP3    H122849   3.028   3.530   2.447  0.8394 -0.1466  0.0894
  430TIP3    H222850   3.056   3.563   2.302 -0.1383 -1.3597 -0.3946
  431TIP3   OH222851   2.159   1.808   3.069  0.2365 -0.0343  0.1661
  431TIP3    H122852   2.088   1.782   3.127  0.2553  0.1561  0.2734
  431TIP3    H222853   2.237   1.808   3.124  0.1048  1.0791  0.3788
  432TIP3   OH222854   3.131   5.474   0.920 -0.2877 -0.0384 -0.4105
  432TIP3    H122855   3.075   5.410   0.964 -1.3832 -0.1310 -1.8958
  432TIP3    H222856   3.094   5.559   0.944  0.3670  0.0183  0.4756
  433TIP3   OH222857   5.026   2.038   7.820 -0.5171 -0.0873  0.0043
  433TIP3    H122858   5.038   2.003   7.732 -0.6739 -0.7413  0.2393
  433TIP3    H222859   5.023   2.133   7.808 -0.9620 -0.1894 -0.7466
  434TIP3   OH222860   3.173   3.432   1.082 -0.6370  0.7358  0.2169
  434TIP3    H122861   3.106   3.438   1.013  0.6362  2.1916 -0.9598
  434TIP3    H222862   3.195   3.522   1.102  0.7122  0.2913  0.8460
  435TIP3   OH222863   1.325   0.847   0.033 -0.2382  0.2031 -0.1793
  435TIP3    H122864   1.335   0.754   0.054  0.2845  0.2104 -0.3724
  435TIP3    H222865   1.368   0.893   0.104 -1.3294  0.3435  0.4191
  436TIP3   OH222866   0.040   6.020   1.274 -1.3335  0.0549 -0.8826
  436TIP3    H122867   0.012   5.946   1.221  0.7873 -0.0448 -1.9833
  436TIP3    H222868   0.035   6.095   1.216 -3.5202  0.8657  0.2436
  437TIP3   OH222869   3.902   6.612   8.968  0.3853  0.3825  0.1120
  437TIP3    H122870   3.978   6.651   9.010  2.1435 -1.8669 -0.7158
  437TIP3    H222871   3.902   6.521   9.000 -0.7681 -0.1898 -1.4031
  438TIP3   OH222872   0.311   0.902   8.748 -0.1877  0.7895  0.3849
  438TIP3    H122873   0.325   0.971   8.683 -0.0278 -1.3053 -1.9207
  438TIP3    H222874   0.290   0.824   8.697 -1.8866 -0.5740  2.9422
  439TIP3   OH222875   0.660   1.648   8.824 -0.1089 -0.0089  0.5033
  439TIP3    H122876   0.675   1.607   8.909 -0.3335  1.4072  1.2582
  439TIP3    H222877   0.663   1.742   8.842 -0.1152  0.3211 -1.0702
  440TIP3   OH222878   0.916   1.329   1.409  0.1889  0.4708 -0.1342
  440TIP3    H122879   0.840   1.271   1.416 -1.1063  2.2678  2.1151
  440TIP3    H222880   0.880   1.417   1.420  2.3426  1.5827 -1.3573
  441TIP3   OH222881   2.067   0.515   0.255 -0.0081 -0.8382 -0.2415
  441TIP3    H122882   2.043   0.608   0.249  0.9670 -0.3198  2.5543
  441TIP3    H222883   2.149   0.509   0.204 -0.1454 -0.2143 -0.5498
  442TIP3   OH222884   3.683   6.444   9.296 -0.1493 -0.0513  0.1858
  442TIP3    H122885   3.620   6.398   9.351 -1.1451  1.0663  0.0292
  442TIP3    H222886   3.638   6.525   9.271  1.4479  0.9153  0.2789
  443TIP3   OH222887   4.401   3.944   0.525 -0.0357 -0.4801 -0.5717
  443TIP3    H122888   4.331   3.912   0.468  0.1899 -0.9357 -0.5940
  443TIP3    H222889   4.475   3.886   0.508 -0.2197 -1.1666  0.7928
  444TIP3   OH222890   6.041   2.319   9.088  0.0882 -0.2718 -0.0343
  444TIP3    H122891   6.086   2.312   9.172 -1.7666  1.4597  1.1868
  444TIP3    H222892   5.955   2.280   9.104 -1.3599  2.6073 -0.1725
  445TIP3   OH222893   3.912   2.944   9.058  0.0508 -0.1407  0.3606
  445TIP3    H122894   3.921   2.889   8.981  1.8790  1.2229 -0.4775
  445TIP3    H222895   3.901   2.883   9.131 -1.0904 -1.4697 -0.8874
  446TIP3   OH222896   3.154   2.705   9.188  0.0536 -0.1434 -0.2937
  446TIP3    H122897   3.145   2.791   9.146 -2.0172  0.1770  0.6935
  446TIP3    H222898   3.200   2.724   9.270  1.0801 -0.2597 -0.8259
  447TIP3   OH222899   4.652   6.526   1.738 -0.3265  0.0195  0.1007
  447TIP3    H122900   4.619   6.453   1.791  0.9370 -1.3915 -0.9767
  447TIP3    H222901   4.737   6.548   1.778  0.9163 -1.4489 -1.6114
  448TIP3   OH222902   1.447   0.354   1.377  0.1177 -0.1379  0.2983
  448TIP3    H122903   1.413   0.268   1.402 -1.8352  0.1239 -1.1811
  448TIP3    H222904   1.387   0.416   1.418 -0.2451  0.4037 -1.0042
  449TIP3   OH222905   0.441   5.170   8.239 -0.3497  0.3226 -0.1370
  449TIP3    H122906   0.396   5.251   8.264 -1.3332 -0.6972  1.6722
  449TIP3    H222907   0.372   5.116   8.201  0.9074  1.4186 -4.4865
  450TIP3   OH222908   3.612   1.405   8.738 -0.1081 -0.0779 -0.0784
  450TIP3    H122909   3.610   1.312   8.761  3.0149 -0.4159 -0.7368
  450TIP3    H222910   3.581   1.408   8.648  1.4268 -0.8013 -0.6732
  451TIP3   OH222911   4.962   4.615   3.464 -0.3797  0.2835 -0.1029
  451TIP3    H122912   5.055   4.627   3.444  0.2060 -0.7435  1.7947
  451TIP3    H222913   4.935   4.541   3.409 -0.0496  0.5280 -0.5971
  452TIP3   OH222914   2.828   2.022   1.192 -0.3880  0.0456 -0.3897
  452TIP3    H122915   2.834   1.928   1.207  1.9822  0.1901 -0.0686
  452TIP3    H222916   2.734   2.041   1.199 -0.7629 -1.9860  1.4298
  453TIP3   OH222917   3.971   2.730   6.768  0.0228 -0.9451  0.0774
  453TIP3    H122918   3.920   2.790   6.713 -0.9080 -1.5343  0.2779
  453TIP3    H222919   3.944   2.751   6.857  1.7604  0.2245  0.3688
  454TIP3   OH222920   4.275   6.113   3.042 -0.5151 -0.0253 -0.3315
  454TIP3    H122921   4.333   6.095   2.968  1.0780  2.9112  0.0762
  454TIP3    H222922   4.287   6.039   3.101  1.2933 -0.4470 -1.1715
  455TIP3   OH222923   4.918   5.290   0.515 -0.1946 -0.4657  0.4899
  455TIP3    H122924   4.908   5.276   0.609 -0.2135 -1.1412  0.3909
  455TIP3    H222925   4.886   5.209   0.475  2.1022 -1.2327  0.0085
  456TIP3   OH222926   1.346   5.150   8.333 -0.2007  0.0917 -0.7470
  456TIP3    H122927   1.433   5.174   8.302  0.7337 -0.4181  1.3444
  456TIP3    H222928   1.313   5.229   8.377 -0.8018  0.2763 -1.5109
  457TIP3   OH222929   2.996   2.594   0.081 -0.8093 -0.0829  0.0269
  457TIP3    H122930   3.078   2.596   0.130 -1.1392 -0.6091  0.6143
  457TIP3    H222931   3.020   2.624  -0.007 -0.5285  2.5197  0.9167
  458TIP3   OH222932   5.625   6.613   1.632 -0.4455  0.1984 -0.0900
  458TIP3    H122933   5.548   6.664   1.658  1.0846  1.2747  2.7601
  458TIP3    H222934   5.684   6.676   1.591 -0.0861 -0.0984 -0.0370
  459TIP3   OH222935   0.477   1.435   8.171  0.4301  0.3007  0.1144
  459TIP3    H122936   0.486   1.344   8.144  1.5321  0.8951 -1.6815
  459TIP3    H222937   0.401   1.467   8.122 -1.8308 -0.3342  2.9212
  460TIP3   OH222938   3.489   4.841   2.191  0.2801  0.4996 -0.6082
  460TIP3    H122939   3.401   4.839   2.228  0.1587  1.9784 -0.7800
  460TIP3    H222940   3.543   4.876   2.261  0.6966 -0.1349 -0.6032
  461TIP3   OH222941   4.564   5.982   1.070  0.6932  0.1821 -0.2076
  461TIP3    H122942   4.493   6.012   1.012  1.4113  2.2336 -0.0988
  461TIP3    H222943   4.525   5.911   1.120 -0.9925  0.6007 -0.8540
  462TIP3   OH222944   3.399   5.745   7.555 -0.0580 -0.2210 -0.0769
  462TIP3    H122945   3.310   5.712   7.571 -0.6902  1.0406 -0.8277
  462TIP3    H222946   3.419   5.719   7.466 -1.5029  3.2236 -1.5697
  463TIP3   OH222947   0.293   6.542   1.689 -0.2101 -0.0420  0.0405
  463TIP3    H122948   0.343   6.467   1.655 -2.4574 -1.4664 -0.3351
  463TIP3    H222949   0.316   6.545   1.782 -1.1129 -2.1700  0.3965
  464TIP3   OH222950   5.453   2.585   8.584  0.4510  0.5625 -0.2293
  464TIP3    H122951   5.397   2.508   8.575  0.4415  0.6972 -1.3914
  464TIP3    H222952   5.521   2.573   8.518  1.1166  0.9913  0.3647
  465TIP3   OH222953   1.199   5.944   1.764  0.5642 -0.3336  0.2411
  465TIP3    H122954   1.106   5.938   1.742  0.1931  0.7877  1.3761
  465TIP3    H222955   1.242   5.962   1.680 -0.4198  0.6557 -0.0798
  466TIP3   OH222956   3.426   2.260   7.483  0.1846 -0.2506  0.6319
  466TIP3    H122957   3.486   2.266   7.409  1.0852  0.9824  1.4165
  466TIP3    H222958   3.345   2.300   7.451  0.4405 -0.0883  0.1786
  467TIP3   OH222959   2.450   4.693   8.254  0.1241  0.3734 -0.0231
  467TIP3    H122960   2.457   4.788   8.262 -0.5530  0.3153  1.5127
  467TIP3    H222961   2.541   4.662   8.255  0.3338  0.9727 -0.1047
  468TIP3   OH222962   2.905   0.159   0.389  0.4886  0.0336  0.3133
  468TIP3    H122963   2.939   0.071   0.405 -1.1743 -1.0209 -1.4821
  468TIP3    H222964   2.978   0.207   0.351  1.3729 -0.5779  1.1963
  469TIP3   OH222965   5.892   0.854   8.472 -0.9608  0.2825 -0.2150
  469TIP3    H122966   5.814   0.805   8.447 -0.5389 -0.4212 -0.1827
  469TIP3    H222967   5.923   0.894   8.391 -0.7050 -0.3881 -0.4573
  470TIP3   OH222968   4.933   0.472   2.482  0.0583  0.7761  0.3041
  470TIP3    H122969   4.884   0.436   2.555  1.0395 -0.5211  0.3600
  470TIP3    H222970   5.024   0.468   2.510  0.2102  3.9206  0.5461
  471TIP3   OH222971   5.987   4.387   7.532 -0.7633 -0.4569  0.0966
  471TIP3    H122972   5.930   4.414   7.603 -1.1909 -1.1027  0.0065
  471TIP3    H222973   6.036   4.312   7.567 -0.3245 -0.2149  0.0102
  472TIP3   OH222974   4.262   2.500   0.344  0.1392  0.1949 -0.1924
  472TIP3    H122975   4.209   2.545   0.410  0.4917 -0.9066  0.8615
  472TIP3    H222976   4.339   2.556   0.334 -0.9521  1.5890 -1.4274
  473TIP3   OH222977   5.191   1.718   1.392  0.3096  0.3314  0.1287
  473TIP3    H122978   5.199   1.684   1.481  0.3868 -0.2131 -0.0794
  473TIP3    H222979   5.102   1.693   1.364 -0.0386  1.2606  0.3557
  474TIP3   OH222980   4.690   1.726   3.008  0.4180  0.0255 -0.5355
  474TIP3    H122981   4.733   1.722   2.922  1.2687 -0.7033 -0.0961
  474TIP3    H222982   4.747   1.781   3.061  0.0020  0.3063 -0.3759
  475TIP3   OH222983   6.563   2.802   2.416  0.0071  0.1434  0.1876
  475TIP3    H122984   6.543   2.797   2.510 -1.3055 -1.3174 -0.1308
  475TIP3    H222985   6.502   2.867   2.382  0.4077  0.5914  0.3104
  476TIP3   OH222986   3.223   6.481   8.439  0.0029 -0.2304 -0.0555
  476TIP3    H122987   3.162   6.443   8.503  2.0233  2.4061  3.8189
  476TIP3    H222988   3.308   6.443   8.461  0.4964 -0.9808 -2.8743
  477TIP3   OH222989   5.042   1.139   8.909  0.0514  0.7609  0.5769
  477TIP3    H122990   4.967   1.080   8.902  0.4856  0.1440  1.0500
  477TIP3    H222991   5.106   1.091   8.961  1.2991  0.7456 -0.9019
  478TIP3   OH222992   5.527   6.218   1.471 -0.3286  0.5806  0.0100
  478TIP3    H122993   5.460   6.157   1.438 -0.9774  1.2075  0.1488
  478TIP3    H222994   5.564   6.256   1.392 -1.3537  1.5156 -0.0460
  479TIP3   OH222995   2.134   1.395   2.142  0.3169 -0.6445 -0.6772
  479TIP3    H122996   2.040   1.400   2.159  0.1775 -0.4418 -1.4770
  479TIP3    H222997   2.175   1.425   2.223 -0.3000 -0.8748 -0.2730
  480TIP3   OH222998   0.695   3.883   2.341 -0.1014 -0.2716 -0.1705
  480TIP3    H122999   0.606   3.848   2.333 -0.7099  1.0777  0.2975
  480TIP3    H223000   0.684   3.964   2.390  1.5368 -0.5967  0.8006
  481TIP3   OH223001   5.424   2.876   8.567  0.2663  0.4208 -0.0084
  481TIP3    H123002   5.391   2.909   8.650 -1.3208  2.4103 -1.3594
  481TIP3    H223003   5.467   2.793   8.590 -0.8327  0.4950  2.6401
  482TIP3   OH223004   3.809   1.466   0.263  0.7594 -0.2099 -0.2054
  482TIP3    H123005   3.780   1.375   0.267 -0.7508  0.2476 -0.3173
  482TIP3    H223006   3.801   1.490   0.171  2.1418 -0.2352 -0.3648
  483TIP3   OH223007   1.108   6.243   1.491 -0.0827 -0.1222 -0.0308
  483TIP3    H123008   1.156   6.310   1.441  0.9200 -0.1145  0.9134
  483TIP3    H223009   1.176   6.187   1.528 -0.7610  0.1336  1.7044
  484TIP3   OH223010   5.189   6.244   0.451  0.3814  0.1857 -0.0583
  484TIP3    H123011   5.270   6.288   0.425  1.4837 -0.7264  1.6273
  484TIP3    H223012   5.124   6.315   0.458  1.2186  1.0369 -0.7431
  485TIP3   OH223013   5.507   3.563   0.714  0.6703 -0.4032  0.0662
  485TIP3    H123014   5.538   3.534   0.628 -0.7764 -0.9373 -0.3106
  485TIP3    H223015   5.430   3.509   0.731 -0.1834  0.9968  0.8553
  486TIP3   OH223016   6.371   0.360   1.093 -0.2627 -0.1427  0.3245
  486TIP3    H123017   6.350   0.266   1.093 -1.0359  0.0186  0.9415
  486TIP3    H223018   6.297   0.401   1.138  1.3478  0.4532  2.6242
  487TIP3   OH223019   2.559   4.703   8.925 -0.2058 -0.3632  0.1011
  487TIP3    H123020   2.486   4.649   8.894 -0.1272 -0.1168 -0.5189
  487TIP3    H223021   2.539   4.791   8.893  0.2050 -0.2285  0.2091
  488TIP3   OH223022   5.820   0.264   0.712 -0.2806 -0.3378  0.2979
  488TIP3    H123023   5.769   0.268   0.793  0.3925  3.8632  0.7705
  488TIP3    H223024   5.911   0.259   0.741 -0.0777  0.2968 -0.2019
  489TIP3   OH223025   6.473   0.574   8.182  0.0356  0.3861 -0.0863
  489TIP3    H123026   6.498   0.633   8.253 -0.1456  0.7436 -0.3137
  489TIP3    H223027   6.401   0.619   8.138  1.6819  1.3463 -1.9746
  490TIP3   OH223028   2.162   1.099   8.533 -0.4045 -0.2406  0.4500
  490TIP3    H123029   2.117   1.083   8.450 -0.1719 -0.3758  0.3477
  490TIP3    H223030   2.179   1.194   8.533  0.1136 -0.3237  0.0686
  491TIP3   OH223031   4.808   5.328   1.884 -0.2156  0.2586 -0.1156
  491TIP3    H123032   4.899   5.353   1.872  0.6901 -1.8692  1.5881
  491TIP3    H223033   4.776   5.310   1.795  0.7839  1.6425 -0.7855
  492TIP3   OH223034   2.594   2.106   8.709  0.3041  0.6818 -0.7897
  492TIP3    H123035   2.553   2.120   8.623 -0.7802  2.0715 -0.0843
  492TIP3    H223036   2.661   2.040   8.693 -2.2374 -1.7791 -1.9982
  493TIP3   OH223037   4.798   1.521   8.643  0.0616  0.2480 -0.2114
  493TIP3    H123038   4.792   1.435   8.603  2.4547  0.8952 -2.1942
  493TIP3    H223039   4.715   1.532   8.688  0.1792 -3.6673  1.4191
  494TIP3   OH223040   5.488   5.405   1.380  0.7517 -0.1925  0.3288
  494TIP3    H123041   5.583   5.419   1.375  0.3134  3.3675 -1.4480
  494TIP3    H223042   5.457   5.424   1.291 -1.6620 -1.5614  0.7882
  495TIP3   OH223043   0.001   0.925   2.666  0.4734 -0.2214 -0.1764
  495TIP3    H123044  -0.015   0.890   2.578  0.4512 -0.4165 -0.0942
  495TIP3    H223045   0.057   1.002   2.651 -1.2816  1.0408 -0.5542
  496TIP3   OH223046   6.241   5.504   0.575  0.3562 -0.1360  0.2584
  496TIP3    H123047   6.328   5.516   0.538 -0.2691  0.0175 -1.2289
  496TIP3    H223048   6.235   5.570   0.645  0.9280  0.8049 -0.5595
  497TIP3   OH223049   6.262   2.551   7.532  0.4107 -0.1252 -0.0710
  497TIP3    H123050   6.279   2.550   7.438 -0.4190 -1.5750 -0.2408
  497TIP3    H223051   6.309   2.628   7.564 -0.5163  1.2949 -1.8915
  498TIP3   OH223052   1.272   2.922   0.233 -0.4988 -0.1746  0.2770
  498TIP3    H123053   1.352   2.893   0.277  0.2164 -0.1903 -0.9874
  498TIP3    H223054   1.214   2.847   0.236 -0.2757 -0.3270  0.7764
  499TIP3   OH223055   3.298   1.048   8.290  0.0233  0.0995  0.0799
  499TIP3    H123056   3.259   0.968   8.325 -0.7317  0.5474  0.2930
  499TIP3    H223057   3.325   1.025   8.201  2.6235 -1.2784  1.1010
  500TIP3   OH223058   0.948   6.384   8.355  0.2939  0.1215 -0.1151
  500TIP3    H123059   0.917   6.452   8.295  2.1130  0.5805 -0.5926
  500TIP3    H223060   0.946   6.425   8.442 -1.2250 -0.1640  0.0213
  501TIP3   OH223061   5.693   2.779   8.109  0.6542 -0.4171 -0.6898
  501TIP3    H123062   5.672   2.827   8.189 -2.3651 -1.6650 -0.5618
  501TIP3    H223063   5.664   2.836   8.038  0.2260 -0.6437 -0.7020
  502TIP3   OH223064   5.726   0.263   8.418  0.0094  0.2280 -0.7527
  502TIP3    H123065   5.733   0.273   8.323 -0.3024 -2.2041 -1.0962
  502TIP3    H223066   5.632   0.251   8.434  0.1890 -0.7364 -0.3304
  503TIP3   OH223067   5.844   4.986   1.389  0.0655  0.2845 -0.3248
  503TIP3    H123068   5.846   4.941   1.305 -0.3038  0.9564 -0.7017
  503TIP3    H223069   5.750   4.995   1.409  0.1503  0.0018  0.2343
  504TIP3   OH223070   0.676   5.062   8.415 -0.0966  0.8308  0.1264
  504TIP3    H123071   0.765   5.072   8.379  1.0303 -2.4031  1.6218
  504TIP3    H223072   0.619   5.065   8.338  1.6839 -0.6636 -1.3553
  505TIP3   OH223073   6.093   3.248   8.185  0.4004 -0.0133 -0.4367
  505TIP3    H123074   6.069   3.205   8.103 -0.2600  2.3423 -1.5732
  505TIP3    H223075   6.168   3.303   8.162  0.6734  0.1270  0.7193
  506TIP3   OH223076   2.050   1.540   2.959 -0.6547 -0.1841  0.2225
  506TIP3    H123077   1.964   1.578   2.975 -0.8453 -0.2593 -0.5844
  506TIP3    H223078   2.110   1.591   3.013 -1.3174 -0.6924  1.4763
  507TIP3   OH223079   4.663   0.257   9.015 -0.7504 -0.5360 -0.6545
  507TIP3    H123080   4.616   0.196   8.959 -0.8828  1.3157 -2.6721
  507TIP3    H223081   4.595   0.317   9.048 -0.2839  0.0924 -0.8106
  508TIP3   OH223082   3.923   5.907   0.018  0.5168 -0.6669 -0.2748
  508TIP3    H123083   3.914   5.812   0.024  1.4549 -0.7857 -0.5224
  508TIP3    H223084   3.951   5.922  -0.073  0.7025 -0.1835 -0.1387
  509TIP3   OH223085   6.010   0.388   0.423  0.2567 -0.0539 -0.2236
  509TIP3    H123086   5.974   0.300   0.431  0.5163 -0.3766 -2.0722
  509TIP3    H223087   6.045   0.408   0.510  0.3996 -1.8618  0.1694
  510TIP3   OH223088   5.272   1.548   7.870  0.3194  0.2100  0.5021
  510TIP3    H123089   5.239   1.608   7.804  0.2724 -1.1838 -0.7946
  510TIP3    H223090   5.201   1.486   7.885  0.6989 -0.0926  1.1116
  511TIP3   OH223091   3.227   0.162   1.390  0.1195 -0.0287 -0.6550
  511TIP3    H123092   3.132   0.151   1.390  0.0390  0.6085  0.0527
  511TIP3    H223093   3.257   0.109   1.316 -0.8388  0.2112 -1.2347
  512TIP3   OH223094   6.345   3.385   8.522  0.6351 -0.0175 -0.4993
  512TIP3    H123095   6.321   3.397   8.614  1.9547  0.8281 -0.2401
  512TIP3    H223096   6.262   3.365   8.479 -0.5818  2.6601  0.3455
  513TIP3   OH223097   5.295   4.022   1.662  0.8269 -0.5028  0.0425
  513TIP3    H123098   5.296   4.101   1.608  0.3767 -0.2466  0.4061
  513TIP3    H223099   5.320   4.052   1.750  1.7515 -0.9455 -0.0520
  514TIP3   OH223100   2.316   2.985   8.167 -0.0596 -0.6335 -0.0631
  514TIP3    H123101   2.323   3.013   8.076  0.8197  2.0385  0.7389
  514TIP3    H223102   2.390   3.027   8.211 -1.0207 -1.0337  2.0594
  515TIP3   OH223103   6.613   4.482   0.326  0.2417  0.5313 -0.2045
  515TIP3    H123104   6.586   4.566   0.288  1.6344  0.9530 -0.3254
  515TIP3    H223105   6.631   4.502   0.417  1.7463  0.6474 -0.5134
  516TIP3   OH223106   2.456   4.197   1.278 -0.1556 -0.6222 -0.3817
  516TIP3    H123107   2.435   4.161   1.192 -1.2955  0.6328 -0.6623
  516TIP3    H223108   2.523   4.263   1.261 -0.0868 -0.6570 -0.2486
  517TIP3   OH223109   1.254   2.528   9.294  0.2481 -0.0187  0.7096
  517TIP3    H123110   1.281   2.509   9.204  2.0341 -0.2329  1.2306
  517TIP3    H223111   1.168   2.568   9.286  0.8221  0.9762 -1.1802
  518TIP3   OH223112   2.825   2.921   0.750  0.0786 -0.3915  0.3886
  518TIP3    H123113   2.909   2.921   0.704 -0.4953 -0.5367 -0.6879
  518TIP3    H223114   2.762   2.956   0.686 -0.8921 -1.3450  0.7930
  519TIP3   OH223115   5.715   4.256   2.828 -0.0054  0.2843  0.2638
  519TIP3    H123116   5.787   4.240   2.889  0.3324  0.4088 -0.0921
  519TIP3    H223117   5.665   4.328   2.867 -0.6321 -0.5984  1.1046
  520TIP3   OH223118   2.686   2.215   3.013  0.3139 -0.3657 -0.7789
  520TIP3    H123119   2.614   2.278   3.019  0.0449 -0.7735  1.5324
  520TIP3    H223120   2.666   2.150   3.081  4.5503  1.3727  2.5977
  521TIP3   OH223121   1.186   2.376   1.369  0.0148 -0.6642 -0.4005
  521TIP3    H123122   1.097   2.410   1.366 -0.2382 -1.2683 -0.0500
  521TIP3    H223123   1.232   2.421   1.299 -0.2432  0.5271  0.1827
  522TIP3   OH223124   4.490   1.492   0.817 -0.2625 -0.3067 -0.7751
  522TIP3    H123125   4.581   1.519   0.806  0.1940 -0.4013  2.1018
  522TIP3    H223126   4.456   1.548   0.886 -1.5855 -1.9885  0.0279
  523TIP3   OH223127   4.250   6.245   9.110 -0.4403  0.3284 -0.2385
  523TIP3    H123128   4.169   6.287   9.140  0.0956  1.3538 -0.1805
  523TIP3    H223129   4.242   6.154   9.139 -0.0252  1.1773  2.9630
  524TIP3   OH223130   2.554   5.014   3.150  0.6589 -0.0425  0.4838
  524TIP3    H123131   2.535   4.947   3.084  1.0583  0.2479  0.0642
  524TIP3    H223132   2.477   5.015   3.207  0.9814 -1.4258  0.9847
  525TIP3   OH223133   2.836   0.701   0.039 -0.2440 -0.2742  0.3755
  525TIP3    H123134   2.919   0.653   0.032  0.4127  1.0431 -1.8437
  525TIP3    H223135   2.853   0.769   0.105  0.7148  0.3861 -0.5102
  526TIP3   OH223136   3.224   5.770   0.906  0.1126  0.0711  0.0576
  526TIP3    H123137   3.244   5.844   0.964  1.4542 -0.8635  0.8464
  526TIP3    H223138   3.281   5.782   0.831 -0.5696  0.4879 -0.4065
  527TIP3   OH223139   4.520   6.641   1.047  0.7690 -0.3493 -0.5772
  527TIP3    H123140   4.472   6.637   0.964  0.5555  1.4404 -0.5914
  527TIP3    H223141   4.519   6.734   1.070  1.6241 -0.6925  0.9735
  528TIP3   OH223142   5.280   2.249   0.202  0.5814 -0.4822 -0.6146
  528TIP3    H123143   5.374   2.237   0.213  0.7008 -1.5462 -2.4896
  528TIP3    H223144   5.266   2.342   0.219  1.9886 -0.2673 -0.5082
  529TIP3   OH223145   4.386   5.451   1.595 -0.2960  0.0973  0.3097
  529TIP3    H123146   4.391   5.419   1.685  0.3875  0.2180  0.3251
  529TIP3    H223147   4.295   5.439   1.570 -0.0652 -1.8598  0.3107
  530TIP3   OH223148   0.832   0.084   9.215 -0.4019 -0.1657  0.4096
  530TIP3    H123149   0.752   0.067   9.265 -1.2450  0.1456 -0.8174
  530TIP3    H223150   0.889   0.130   9.277 -0.5234 -1.7849  1.8027
  531TIP3   OH223151   4.300   4.358   8.912 -0.4661  0.3309  0.6005
  531TIP3    H123152   4.322   4.286   8.853 -0.7902  0.2663  0.5579
  531TIP3    H223153   4.380   4.372   8.963 -0.2217  0.3118  0.2257
  532TIP3   OH223154   0.379   2.510   1.142 -0.1920 -0.6920  0.0744
  532TIP3    H123155   0.340   2.443   1.199  0.7004 -0.1983  1.3105
  532TIP3    H223156   0.395   2.464   1.059 -1.9987 -1.2934  0.0003
  533TIP3   OH223157   5.149   1.125   0.793  0.8096 -0.0224 -0.2654
  533TIP3    H123158   5.082   1.092   0.853  0.7104 -0.4672 -0.6231
  533TIP3    H223159   5.140   1.221   0.798  0.6095 -0.0612  0.2078
  534TIP3   OH223160   1.497   4.429   0.627 -0.2368 -0.4689  0.0278
  534TIP3    H123161   1.575   4.424   0.571  0.2437 -3.0338  0.8119
  534TIP3    H223162   1.424   4.414   0.567 -0.1690  1.6893 -0.6668
  535TIP3   OH223163   2.371   1.646   1.020 -0.1886 -0.2906  0.4588
  535TIP3    H123164   2.316   1.676   0.948  0.1953 -0.8167 -0.0598
  535TIP3    H223165   2.311   1.603   1.081 -0.1736 -2.3255 -0.8781
  536TIP3   OH223166   2.276   0.943   2.318  1.0823 -0.0933  0.6377
  536TIP3    H123167   2.301   1.026   2.359 -1.4638  1.7579 -1.2357
  536TIP3    H223168   2.293   0.956   2.225 -0.3305 -1.2694  0.1772
  537TIP3   OH223169   2.645   6.009   1.309  0.3881  0.0422  0.5411
  537TIP3    H123170   2.672   5.971   1.225 -0.6959  1.7695 -0.6835
  537TIP3    H223171   2.629   5.934   1.366  0.1131 -1.2439 -1.1504
  538TIP3   OH223172   5.902   1.145   0.551 -0.2638 -0.1445 -0.9217
  538TIP3    H123173   5.837   1.080   0.575 -1.6726  1.2157 -0.9019
  538TIP3    H223174   5.974   1.131   0.613 -0.7993 -1.2644 -0.5351
  539TIP3   OH223175   4.131   4.014   2.329 -0.2715 -0.1288 -0.1766
  539TIP3    H123176   4.083   4.048   2.404 -0.1078  0.4034 -0.3107
  539TIP3    H223177   4.219   3.998   2.362 -0.0799  0.5240 -0.3643
  540TIP3   OH223178   3.458   4.559   8.919  0.5750  0.1782  0.5374
  540TIP3    H123179   3.369   4.590   8.906  1.1902  1.4512 -1.0496
  540TIP3    H223180   3.462   4.476   8.872 -0.1193 -0.6125  1.8155
  541TIP3   OH223181   5.744   1.671   9.236  0.0831  0.1481  0.3983
  541TIP3    H123182   5.695   1.693   9.315 -2.3215  2.9619 -1.6429
  541TIP3    H223183   5.834   1.658   9.267 -1.1279 -1.2477  3.8194
  542TIP3   OH223184   4.397   0.267   0.461 -0.5640  0.0904 -0.1709
  542TIP3    H123185   4.484   0.259   0.423 -0.7731 -1.6128 -0.3839
  542TIP3    H223186   4.412   0.272   0.555 -0.2264 -0.5400 -0.1831
  543TIP3   OH223187   1.712   5.137   2.629 -0.2623 -0.9238  0.0350
  543TIP3    H123188   1.726   5.140   2.723  3.6574  0.6007 -0.3894
  543TIP3    H223189   1.673   5.222   2.608 -0.2992 -0.9001  0.2016
  544TIP3   OH223190   5.547   0.325   2.779 -0.3206 -0.0014 -0.3854
  544TIP3    H123191   5.560   0.401   2.722  0.8735 -0.9482 -1.4121
  544TIP3    H223192   5.624   0.271   2.765 -0.1168 -0.4131  1.9419
  545TIP3   OH223193   2.575   3.473   2.611  0.3016 -0.3641 -1.1577
  545TIP3    H123194   2.546   3.385   2.637 -0.5930  0.5689  1.2735
  545TIP3    H223195   2.668   3.474   2.632  0.0472 -0.3505  0.0530
  546TIP3   OH223196   0.739   3.454   8.456  0.5794 -0.0545 -0.0096
  546TIP3    H123197   0.764   3.430   8.545 -1.0616  0.2340  0.5645
  546TIP3    H223198   0.643   3.448   8.456  0.3762  2.1725 -1.0958
  547TIP3   OH223199   4.079   1.592   1.609  0.0982 -0.0539  0.0436
  547TIP3    H123200   4.095   1.685   1.624  0.2157 -0.1397  0.4889
  547TIP3    H223201   4.165   1.551   1.622  0.0531 -0.2180 -0.1742
  548TIP3   OH223202   2.186   6.638   1.444 -0.4036 -0.6323  0.6574
  548TIP3    H123203   2.217   6.729   1.445 -1.5857 -0.2075  1.2642
  548TIP3    H223204   2.243   6.594   1.382 -1.3567  1.1189 -1.6265
  549TIP3   OH223205   5.775   1.011   9.172 -0.1147  0.1215 -0.0731
  549TIP3    H123206   5.758   0.917   9.165  0.2565  0.1528 -2.6225
  549TIP3    H223207   5.692   1.049   9.198 -0.3425 -0.8847  0.6993
  550TIP3   OH223208   2.499   4.964   8.081  0.3776  0.1929 -0.5541
  550TIP3    H123209   2.480   5.004   7.996 -0.2337  1.4309  0.1335
  550TIP3    H223210   2.552   4.887   8.060 -2.7460 -1.7295 -2.4195
  551TIP3   OH223211   1.698   5.284   0.263  0.0269 -0.2425 -0.3843
  551TIP3    H123212   1.616   5.286   0.214 -0.6087 -0.2638  0.6603
  551TIP3    H223213   1.712   5.191   0.281 -0.6061 -0.1095  0.8774
  552TIP3   OH223214   4.012   3.997   2.570  0.3844 -0.0722 -0.7365
  552TIP3    H123215   3.931   4.002   2.622  0.9770  0.9878  0.1199
  552TIP3    H223216   4.041   3.906   2.580 -2.0486 -1.2892 -3.2115
  553TIP3   OH223217   5.902   1.447   0.567 -0.7222  0.0780 -0.1165
  553TIP3    H123218   5.896   1.359   0.529  0.1977 -0.4918  0.9731
  553TIP3    H223219   5.861   1.438   0.653 -0.3527  0.6427  0.1209
  554TIP3   OH223220   5.653   0.599   2.267  0.7809 -0.1442 -0.1795
  554TIP3    H123221   5.585   0.660   2.239  2.3626  0.7451 -2.3219
  554TIP3    H223222   5.640   0.591   2.362 -2.6019 -0.4639 -0.5360
  555TIP3   OH223223   2.633   2.772   0.897 -0.2103 -0.1063  0.0106
  555TIP3    H123224   2.681   2.802   0.820  2.0695  1.5335  1.9373
  555TIP3    H223225   2.628   2.849   0.954 -0.2016 -1.6933  2.2962
  556TIP3   OH223226   4.582   0.363   8.207 -0.4262  0.8104 -0.0580
  556TIP3    H123227   4.656   0.367   8.267  0.5792  1.3161 -1.2805
  556TIP3    H223228   4.573   0.270   8.187 -0.5385  0.6781  0.5912
  557TIP3   OH223229   5.518   3.107   1.407  0.1564  1.1670  0.3770
  557TIP3    H123230   5.585   3.163   1.369  0.4254  1.0512  0.6811
  557TIP3    H223231   5.437   3.135   1.365  0.3762  1.3871  0.0976
  558TIP3   OH223232   6.574   4.015   8.397 -0.1116  0.7567  0.2678
  558TIP3    H123233   6.528   3.963   8.463  1.0619  0.2194  0.6908
  558TIP3    H223234   6.601   4.094   8.444 -1.4552  1.5392 -0.2433
  559TIP3   OH223235   0.250   3.863   1.117 -0.3515  0.2901  0.3087
  559TIP3    H123236   0.248   3.851   1.212 -1.1411  0.7284  0.3578
  559TIP3    H223237   0.265   3.957   1.106  0.9688  0.0629 -0.0213
  560TIP3   OH223238   0.008   0.004   1.373 -0.4353 -0.4716  0.7483
  560TIP3    H123239   0.014  -0.007   1.278  1.3653  0.5207  0.6954
  560TIP3    H223240  -0.041   0.086   1.384  0.6526  0.2232  0.5930
  561TIP3   OH223241   5.388   5.692   8.633  0.3675  0.4946 -0.2911
  561TIP3    H123242   5.441   5.613   8.631 -2.4630 -1.5591 -2.4905
  561TIP3    H223243   5.331   5.681   8.709  0.3739  0.7188 -0.2520
  562TIP3   OH223244   2.566   1.413   2.833 -0.0891 -0.4045  0.4217
  562TIP3    H123245   2.477   1.448   2.838  0.6331  1.6325 -0.0286
  562TIP3    H223246   2.610   1.468   2.769  0.4624 -3.8756 -2.4857
  563TIP3   OH223247   2.164   5.668   1.796  0.0563 -0.1131  0.1593
  563TIP3    H123248   2.146   5.717   1.716 -0.5877  0.3949  0.6037
  563TIP3    H223249   2.234   5.607   1.772 -0.0408  0.1230 -0.7493
  564TIP3   OH223250   3.176   2.384   1.678 -0.6112 -0.1448 -0.6302
  564TIP3    H123251   3.106   2.320   1.686  0.6706 -1.5236  0.0246
  564TIP3    H223252   3.188   2.418   1.766  1.6810 -2.3651  0.0463
  565TIP3   OH223253   0.806   1.188   2.162  0.2329 -0.1595  0.4109
  565TIP3    H123254   0.757   1.240   2.099  0.3911 -0.2092  0.2474
  565TIP3    H223255   0.884   1.240   2.181 -0.5244  0.5710  1.7104
  566TIP3   OH223256   3.777   4.703   0.071  0.2712  0.4808 -0.2768
  566TIP3    H123257   3.775   4.733   0.162 -0.7983  0.8554 -0.4063
  566TIP3    H223258   3.814   4.615   0.075 -1.8140 -0.4259  0.8313
  567TIP3   OH223259   0.712   1.430   1.744 -0.1121  0.0916 -0.3088
  567TIP3    H123260   0.651   1.362   1.717 -2.3715  0.4874  3.1044
  567TIP3    H223261   0.715   1.491   1.670 -3.3357 -0.3438 -0.9342
  568TIP3   OH223262   4.242   0.264   8.260  0.4551 -0.3221  0.3512
  568TIP3    H123263   4.153   0.299   8.251  1.5458  2.8566  0.4381
  568TIP3    H223264   4.231   0.169   8.265 -2.7344 -0.2039 -1.7297
  569TIP3   OH223265   0.935   1.055   7.475  0.2933  0.3045  0.4367
  569TIP3    H123266   0.937   0.988   7.543 -0.2555 -0.6237 -0.4396
  569TIP3    H223267   0.856   1.106   7.492  0.2074  0.1340  0.5403
  570TIP3   OH223268   1.271   4.230   8.153 -0.1326  0.9649  0.2172
  570TIP3    H123269   1.235   4.317   8.138  1.3560  1.6562  0.5473
  570TIP3    H223270   1.347   4.224   8.095 -0.0268  0.0084  0.4254
  571TIP3   OH223271   1.328   2.137   2.163  0.6691  0.1716  0.0262
  571TIP3    H123272   1.353   2.174   2.078 -0.1041 -2.2016 -1.3184
  571TIP3    H223273   1.410   2.103   2.199  0.5243 -2.1272 -1.5691
  572TIP3   OH223274   3.790   3.137   1.123 -0.2094  0.2308 -0.2354
  572TIP3    H123275   3.863   3.189   1.157 -0.7396  0.8944 -0.0937
  572TIP3    H223276   3.808   3.048   1.153  1.6198 -0.0397 -1.8922
  573TIP3   OH223277   3.668   0.455   0.354 -0.2155 -0.0183 -0.5719
  573TIP3    H123278   3.582   0.425   0.325  0.1193 -1.1981 -0.3907
  573TIP3    H223279   3.699   0.386   0.413  0.3862  0.9198  0.2508
  574TIP3   OH223280   6.589   1.662   7.978  0.2036 -0.0391  0.5445
  574TIP3    H123281   6.538   1.735   7.942 -1.2690 -0.1548  2.2486
  574TIP3    H223282   6.636   1.626   7.903 -2.2513  0.0820 -1.1579
  575TIP3   OH223283   0.234   3.878   1.782  0.5540 -0.1977  0.2535
  575TIP3    H123284   0.316   3.925   1.796  0.3611 -0.0292  0.8732
  575TIP3    H223285   0.197   3.868   1.870 -0.4220  0.3207 -0.0875
  576TIP3   OH223286   2.214   3.981   0.570 -0.3791 -0.3028 -0.1373
  576TIP3    H123287   2.147   3.916   0.549 -0.7646 -0.3563  1.1795
  576TIP3    H223288   2.192   4.057   0.516 -2.0445  0.0032  0.9066
  577TIP3   OH223289   0.305   1.551   8.002  0.5461  0.0516  0.5929
  577TIP3    H123290   0.245   1.482   8.031 -0.1012  0.9575  1.4797
  577TIP3    H223291   0.251   1.608   7.947  0.6404  0.7724  1.2449
  578TIP3   OH223292   4.022   3.177   8.970 -0.1942  0.3643 -0.7527
  578TIP3    H123293   3.994   3.099   9.018 -0.1854  1.2662  0.8036
  578TIP3    H223294   4.009   3.155   8.878  0.4766 -1.7095 -0.4023
  579TIP3   OH223295   2.823   3.320   1.700  0.3838 -0.2142  0.0367
  579TIP3    H123296   2.844   3.251   1.762  1.2968 -0.4858 -0.5511
  579TIP3    H223297   2.744   3.289   1.655  0.8631 -0.9433 -0.3146
  580TIP3   OH223298   6.240   1.130   0.476 -0.2627 -0.2378  0.0915
  580TIP3    H123299   6.191   1.115   0.557 -0.1620  2.4653  0.7816
  580TIP3    H223300   6.331   1.135   0.504 -0.2778  1.2809 -0.0406
  581TIP3   OH223301   2.014   6.032   2.953 -0.4074 -0.0383  0.2521
  581TIP3    H123302   1.969   5.988   3.026 -0.7666 -0.9303 -0.4872
  581TIP3    H223303   2.089   5.976   2.935  0.4116  0.8699  0.7639
  582TIP3   OH223304   3.471   1.794   8.965 -0.2462 -0.6115 -0.4637
  582TIP3    H123305   3.495   1.860   9.030 -1.6236 -1.3232  0.8161
  582TIP3    H223306   3.379   1.809   8.948 -0.9009 -2.8490  0.6991
  583TIP3   OH223307   1.001   4.211   2.399 -0.1788 -0.2040  0.3347
  583TIP3    H123308   0.973   4.253   2.318  0.8526 -1.3692 -0.6575
  583TIP3    H223309   0.955   4.259   2.468 -2.3731 -0.2569 -1.0204
  584TIP3   OH223310   0.994   3.630   0.009 -0.2937  0.6062  0.3044
  584TIP3    H123311   0.964   3.712   0.047 -1.3341  0.0840  0.6462
  584TIP3    H223312   0.954   3.627  -0.078  0.2279  0.7353  0.0578
  585TIP3   OH223313   1.706   6.644   7.819 -0.0256 -0.2237  0.7238
  585TIP3    H123314   1.731   6.575   7.880  0.8321 -0.7977 -0.2320
  585TIP3    H223315   1.613   6.630   7.804  0.2496 -1.5779  0.0935
  586TIP3   OH223316   2.142   4.882   2.142 -0.4101 -0.1069 -0.0346
  586TIP3    H123317   2.187   4.834   2.211  1.0583 -1.0303 -1.5503
  586TIP3    H223318   2.211   4.903   2.079 -1.1340  3.3008  0.1038
  587TIP3   OH223319   3.041   6.147   7.506 -0.1976  0.4526  0.3167
  587TIP3    H123320   3.066   6.230   7.548  0.5345 -0.0691  0.9460
  587TIP3    H223321   2.975   6.172   7.441  1.1115  1.7493 -0.5804
  588TIP3   OH223322   1.300   6.342   2.891  0.1839  0.0607  0.5625
  588TIP3    H123323   1.384   6.360   2.933  1.5015 -2.1128 -1.0138
  588TIP3    H223324   1.237   6.344   2.964  1.8235  0.0255  2.0544
  589TIP3   OH223325   6.201   0.587   7.738 -0.0770  0.4345  0.3289
  589TIP3    H123326   6.222   0.645   7.665 -0.4290  0.3119  0.1306
  589TIP3    H223327   6.177   0.504   7.697  1.3481 -0.1580  0.6402
  590TIP3   OH223328   5.208   3.610   9.059 -0.0336  0.0974 -0.1615
  590TIP3    H123329   5.301   3.623   9.041 -0.5709  1.0339 -2.8105
  590TIP3    H223330   5.188   3.674   9.128  1.5646 -1.3420  1.7575
  591TIP3   OH223331   1.826   3.691   0.166  0.3357  0.1977 -0.4198
  591TIP3    H123332   1.732   3.684   0.181 -0.3740  2.1650 -3.2510
  591TIP3    H223333   1.842   3.635   0.090  1.2660  0.6735 -0.5825
  592TIP3   OH223334   1.051   4.374   8.905 -0.1513  0.6031 -0.1137
  592TIP3    H123335   0.967   4.385   8.949  0.3447  1.1825  0.7234
  592TIP3    H223336   1.116   4.396   8.972  0.6803 -0.1604 -0.6420
  593TIP3   OH223337   2.881   4.858   9.128  0.2838  0.0060  0.7178
  593TIP3    H123338   2.948   4.922   9.150  0.7907 -0.5973  0.9534
  593TIP3    H223339   2.910   4.819   9.046 -0.7569  1.0733 -0.1984
  594TIP3   OH223340   4.931   0.582   1.338  0.4943 -0.0270 -0.3279
  594TIP3    H123341   4.938   0.678   1.337  0.8459 -0.0291  0.6620
  594TIP3    H223342   4.928   0.560   1.431  0.1620 -0.9664 -0.5558
  595TIP3   OH223343   4.512   6.416   2.269  0.2527 -0.0687  0.4757
  595TIP3    H123344   4.571   6.482   2.233  1.3206 -0.7646  0.9196
  595TIP3    H223345   4.569   6.345   2.296 -0.9189 -1.4492 -0.5408
  596TIP3   OH223346   0.431   4.044   2.710  0.1604  0.9152 -0.1320
  596TIP3    H123347   0.436   4.121   2.767  1.1472  1.3233 -0.7368
  596TIP3    H223348   0.337   4.025   2.703 -0.0196  1.3224  0.9926
  597TIP3   OH223349   2.621   4.292   2.491 -0.2632 -0.6008 -0.0395
  597TIP3    H123350   2.631   4.378   2.448 -0.4250 -0.8673 -0.6202
  597TIP3    H223351   2.665   4.302   2.575  0.4722 -0.2091 -0.4627
  598TIP3   OH223352   4.184   2.658   2.330 -0.0035  0.1716  0.0057
  598TIP3    H123353   4.227   2.696   2.253 -0.3317 -0.2501 -0.3900
  598TIP3    H223354   4.256   2.625   2.384  0.2614  1.0023  0.1677
  599TIP3   OH223355   3.358   2.289   1.485  0.1035  0.3725  0.1672
  599TIP3    H123356   3.296   2.314   1.554  0.5423  0.5067  0.5211
  599TIP3    H223357   3.308   2.232   1.427 -0.8197  1.7067 -0.4239
  600TIP3   OH223358   6.069   3.736   2.504  0.0905 -0.0655 -0.4017
  600TIP3    H123359   6.010   3.802   2.540 -0.9580 -0.9180 -0.4923
  600TIP3    H223360   6.013   3.682   2.448  0.8282 -1.2500 -0.0408
  601TIP3   OH223361   4.441   3.641   8.643  0.2283  0.1053  0.0558
  601TIP3    H123362   4.415   3.637   8.551  0.0422 -1.3679  0.1345
  601TIP3    H223363   4.401   3.562   8.682  0.8783  0.3351  1.2367
  602TIP3   OH223364   2.799   0.467   7.648 -0.0096  0.2736 -0.7925
  602TIP3    H123365   2.884   0.508   7.636  0.1196  0.0067 -0.7942
  602TIP3    H223366   2.742   0.512   7.585  0.4719 -0.5537 -1.8607
  603TIP3   OH223367   6.034   0.897   7.671 -0.4504 -0.4545 -0.0410
  603TIP3    H123368   6.061   0.937   7.589  0.0068 -4.0852 -1.8310
  603TIP3    H223369   5.953   0.851   7.650 -1.6337  0.4152  2.2235
  604TIP3   OH223370   3.950   4.821   8.517  0.4289 -0.2029 -0.1676
  604TIP3    H123371   3.963   4.736   8.559  0.2977 -0.3342 -0.3859
  604TIP3    H223372   3.896   4.801   8.440 -0.6286  0.2428  0.4415
  605TIP3   OH223373   0.005   1.881   2.822  0.1768 -0.2184  0.1532
  605TIP3    H123374  -0.055   1.811   2.796  0.0305  0.5245 -1.6738
  605TIP3    H223375  -0.046   1.934   2.883 -1.0143  0.2663 -1.1841
  606TIP3   OH223376   6.568   5.515   1.575  0.1054 -0.1605 -0.1103
  606TIP3    H123377   6.480   5.490   1.547 -0.2868 -0.4999  1.3301
  606TIP3    H223378   6.617   5.432   1.574  0.3583 -0.0107 -0.6855
  607TIP3   OH223379   4.314   0.007   0.535 -0.0220 -0.4179 -0.8505
  607TIP3    H123380   4.319   0.094   0.494 -2.8319 -0.8802 -2.5065
  607TIP3    H223381   4.384  -0.043   0.494  1.2176  0.8746 -0.3657
  608TIP3   OH223382   6.364   0.693   0.479  0.3300 -0.7615  0.5934
  608TIP3    H123383   6.287   0.694   0.536 -0.6521 -0.8845 -0.6807
  608TIP3    H223384   6.438   0.692   0.539 -0.6107  0.8739  1.8877
  609TIP3   OH223385   4.618   6.309   0.001  0.0285  0.1833  0.0185
  609TIP3    H123386   4.691   6.352  -0.045  0.5253 -0.9498 -0.2852
  609TIP3    H223387   4.634   6.215  -0.011 -0.0887 -0.1497  2.1224
  610TIP3   OH223388   2.487   2.528   8.818 -0.4889 -0.0604 -0.2479
  610TIP3    H123389   2.510   2.557   8.730 -4.1476 -1.2929 -1.7791
  610TIP3    H223390   2.411   2.581   8.842 -0.8670 -1.2116  1.2575
  611TIP3   OH223391   4.012   5.072   9.041 -0.2363  0.0942  0.1636
  611TIP3    H123392   4.042   4.990   9.082 -1.4541  0.7363  2.5342
  611TIP3    H223393   3.979   5.044   8.956  1.3289 -1.5273  0.0063
  612TIP3   OH223394   1.264   2.471   1.101 -0.1219  0.6263  0.1965
  612TIP3    H123395   1.250   2.464   1.007 -2.3176  1.0721  0.4172
  612TIP3    H223396   1.337   2.413   1.120 -0.4647 -0.4460 -1.6177
  613TIP3   OH223397   6.547   3.176   8.191 -0.0228  0.3935  0.2662
  613TIP3    H123398   6.512   3.233   8.121  0.8012  0.6183  0.0251
  613TIP3    H223399   6.494   3.097   8.185 -0.4212  0.6817 -0.1670
  614TIP3   OH223400   3.589   6.612   8.886  0.2786  0.2222 -0.2414
  614TIP3    H123401   3.674   6.622   8.929  0.4180  0.3976 -0.5476
  614TIP3    H223402   3.528   6.662   8.941  0.4002  0.2025 -0.0896
  615TIP3   OH223403   6.320   5.392   1.542  0.1376 -0.0602  0.5472
  615TIP3    H123404   6.229   5.409   1.568 -0.3073  0.1372 -1.0587
  615TIP3    H223405   6.331   5.298   1.554 -0.9594 -0.4621 -1.1708
  616TIP3   OH223406   4.081   3.986   1.025  0.1767  0.6326 -0.2783
  616TIP3    H123407   4.020   4.009   0.954 -0.4638 -2.4841 -0.8627
  616TIP3    H223408   4.162   3.962   0.980  0.0129 -0.6229  0.0714
  617TIP3   OH223409   3.373   1.342   2.723 -0.3414  0.2357 -0.0603
  617TIP3    H123410   3.433   1.329   2.796 -1.5178 -1.7965  0.6492
  617TIP3    H223411   3.288   1.360   2.765 -0.4865  2.0527 -1.0178
  618TIP3   OH223412   6.081   5.259   1.872  0.3910 -0.1510 -0.2699
  618TIP3    H123413   6.022   5.285   1.943  0.9327 -0.9112  0.4774
  618TIP3    H223414   6.133   5.338   1.855 -0.2245  0.2533 -0.3236
  619TIP3   OH223415   2.664   2.367   9.297  0.2918 -0.1392 -0.0206
  619TIP3    H123416   2.665   2.271   9.295  2.2128 -0.1905 -2.5844
  619TIP3    H223417   2.589   2.392   9.243 -0.1503 -0.1611  0.5675
  620TIP3   OH223418   1.819   1.927   7.792 -0.2925 -0.1312 -0.7690
  620TIP3    H123419   1.729   1.951   7.769 -0.2976 -0.9970 -1.6888
  620TIP3    H223420   1.869   1.944   7.713  0.5179  1.0438 -0.0415
  621TIP3   OH223421   2.818   6.505   2.637  0.4474  0.7765  0.7257
  621TIP3    H123422   2.796   6.417   2.667  2.1845  0.7186  1.9703
  621TIP3    H223423   2.804   6.561   2.713 -1.1740  1.7342 -0.2021
  622TIP3   OH223424   3.129   3.812   8.669  0.4397  0.3762  0.3556
  622TIP3    H123425   3.183   3.764   8.607 -0.1952  1.0204 -0.7402
  622TIP3    H223426   3.052   3.839   8.618 -0.5659  0.1072  1.6760
  623TIP3   OH223427   1.727   1.281   2.968 -0.2214 -0.5092  0.4159
  623TIP3    H123428   1.721   1.358   2.912  0.0176 -1.6251 -1.2068
  623TIP3    H223429   1.702   1.312   3.055  1.0252  1.6581  0.0630
  624TIP3   OH223430   4.611   0.278   1.614 -0.2327 -0.0845 -0.0972
  624TIP3    H123431   4.608   0.326   1.532  0.8804  0.3444  0.0884
  624TIP3    H223432   4.609   0.185   1.589  0.6947  0.0358 -0.6597
  625TIP3   OH223433   6.018   1.781   8.738 -0.1447  0.0839  0.7827
  625TIP3    H123434   5.968   1.862   8.731 -0.2766 -0.1295 -1.7707
  625TIP3    H223435   5.973   1.731   8.806 -1.3804  1.2549  0.8738
  626TIP3   OH223436   2.685   5.444   8.512  0.1351  0.1722 -0.1864
  626TIP3    H123437   2.606   5.489   8.541  0.2839  0.2976  0.0331
  626TIP3    H223438   2.723   5.408   8.592  0.1421 -0.1415 -0.3330
  627TIP3   OH223439   4.514   4.831   2.561  0.7492 -0.4609  0.2276
  627TIP3    H123440   4.489   4.846   2.470  2.0932  2.3233  0.2117
  627TIP3    H223441   4.565   4.750   2.560 -1.3821 -1.8871 -0.9999
  628TIP3   OH223442   3.389   2.024   8.725 -0.2135 -0.0007 -0.0715
  628TIP3    H123443   3.482   2.044   8.728 -0.1589 -0.0398  3.7649
  628TIP3    H223444   3.349   2.097   8.678  1.2485  3.0989  3.0732
  629TIP3   OH223445   5.809   6.227   2.642 -0.1190  0.0402  0.4239
  629TIP3    H123446   5.716   6.216   2.662  0.1201 -0.3443  1.3843
  629TIP3    H223447   5.812   6.241   2.547 -1.1219 -0.3321  0.3261
  630TIP3   OH223448   5.939   1.452   1.285  0.2871  0.0045  0.0941
  630TIP3    H123449   5.876   1.517   1.253  2.2135  1.2800 -1.2851
  630TIP3    H223450   5.949   1.390   1.212 -0.9922 -1.5279  1.1359
  631TIP3   OH223451   1.051   0.240   1.040 -0.3203  0.6412 -0.0761
  631TIP3    H123452   1.104   0.303   0.991  0.8542  0.1456  0.5174
  631TIP3    H223453   1.017   0.289   1.114 -1.3590  1.1630 -0.8829
  632TIP3   OH223454   2.282   0.308   7.964 -0.2441 -0.0408  0.2667
  632TIP3    H123455   2.349   0.374   7.982  0.8678 -1.3031  1.0414
  632TIP3    H223456   2.205   0.358   7.939  0.7356  1.5109  0.1717
  633TIP3   OH223457   5.712   3.279   2.535  0.7586  0.3359 -0.2360
  633TIP3    H123458   5.661   3.229   2.599  1.4056  0.6968  0.5867
  633TIP3    H223459   5.655   3.352   2.511  0.6042  0.3318  0.1110
  634TIP3   OH223460   3.549   1.718   3.342 -0.7294 -0.4064 -0.0144
  634TIP3    H123461   3.461   1.723   3.304  0.3988 -0.5541 -2.9313
  634TIP3    H223462   3.573   1.626   3.336  0.0048 -0.2102 -0.2810
  635TIP3   OH223463   0.611   3.179   1.776  0.4588 -0.4501 -0.5833
  635TIP3    H123464   0.562   3.231   1.712  1.8114  2.1716  0.3692
  635TIP3    H223465   0.673   3.128   1.724 -1.8381 -2.3243 -1.6543
  636TIP3   OH223466   0.454   4.777   0.002  0.3549  0.0081 -0.3095
  636TIP3    H123467   0.423   4.716   0.069  1.1538  0.1842  0.2298
  636TIP3    H223468   0.374   4.813  -0.036 -0.1142 -0.2929  0.3671
  637TIP3   OH223469   1.211   2.381   2.973  0.6463  0.0924  0.6543
  637TIP3    H123470   1.160   2.421   3.043 -1.3493  0.0052 -0.6700
  637TIP3    H223471   1.289   2.435   2.966 -0.8168  2.3094  0.5445
  638TIP3   OH223472   6.314   4.768   8.952  0.0037  0.2415  0.1342
  638TIP3    H123473   6.288   4.774   9.044 -0.7878  0.5597 -0.0964
  638TIP3    H223474   6.359   4.851   8.935  0.2521  0.1342  0.2614
  639TIP3   OH223475   1.472   3.280   0.482 -0.5416 -0.2598  0.2758
  639TIP3    H123476   1.435   3.230   0.554 -0.4085 -1.8381 -0.6935
  639TIP3    H223477   1.531   3.219   0.438  0.2082  0.9936 -0.5351
  640TIP3   OH223478   5.847   2.040   3.164  0.4140  0.4606 -0.3984
  640TIP3    H123479   5.805   2.102   3.104  1.3362  0.3202 -1.2129
  640TIP3    H223480   5.917   2.090   3.206  0.2219  0.3631  0.0515
  641TIP3   OH223481   1.899   0.809   1.393 -0.3031 -0.1228 -0.0748
  641TIP3    H123482   1.979   0.786   1.347  0.0090  1.7682 -0.5857
  641TIP3    H223483   1.866   0.727   1.429  2.3335 -0.8163  0.9329
  642TIP3   OH223484   0.783   3.193   2.021  0.2066 -0.0318  0.5110
  642TIP3    H123485   0.846   3.122   2.016  0.5875  0.2969  0.5506
  642TIP3    H223486   0.728   3.182   1.943  0.1704 -0.4499  0.5939
  643TIP3   OH223487   3.028   3.148   8.846 -0.4738 -0.0650  0.0892
  643TIP3    H123488   3.039   3.055   8.865  0.0840 -0.0349 -0.0554
  643TIP3    H223489   2.934   3.159   8.833 -0.5078 -0.6682 -0.2062
  644TIP3   OH223490   4.818   4.474   0.747 -0.6164  0.0496  0.1006
  644TIP3    H123491   4.839   4.403   0.807  0.1503 -0.0613 -0.2837
  644TIP3    H223492   4.791   4.547   0.804 -0.9058 -0.3815  0.5178
  645TIP3   OH223493   6.440   0.460   7.841 -0.4055  0.1577  0.3390
  645TIP3    H123494   6.409   0.370   7.853 -1.3352 -0.4030 -4.2359
  645TIP3    H223495   6.362   0.514   7.852 -0.9245 -0.1821 -1.3409
  646TIP3   OH223496   3.542   2.866   2.998  0.4385 -0.6711  0.4194
  646TIP3    H123497   3.497   2.945   2.968  0.6307 -0.9151 -0.5372
  646TIP3    H223498   3.515   2.798   2.936  0.4740 -1.3058  1.0815
  647TIP3   OH223499   2.421   0.427   7.530  0.1394 -0.0886 -0.3736
  647TIP3    H123500   2.459   0.358   7.584  1.6800  0.8086 -0.2524
  647TIP3    H223501   2.353   0.466   7.584  2.3927  1.5491  1.4736
  648TIP3   OH223502   4.764   4.377   2.677 -0.2268  0.1383 -0.2191
  648TIP3    H123503   4.734   4.307   2.735  0.5742 -1.4353 -1.6148
  648TIP3    H223504   4.850   4.402   2.710 -0.3583  0.2058  0.0685
  649TIP3   OH223505   3.816   0.051   7.687  0.2756 -0.5919 -0.3610
  649TIP3    H123506   3.760   0.109   7.739  0.3072 -0.7357 -0.1653
  649TIP3    H223507   3.823  -0.029   7.739  0.5465 -0.6290 -0.4512
  650TIP3   OH223508   5.207   2.815   8.395 -0.4193 -0.2905 -0.0136
  650TIP3    H123509   5.233   2.839   8.306  0.1450 -3.3017 -0.7763
  650TIP3    H223510   5.290   2.810   8.443 -0.5989  0.1032  0.3384
  651TIP3   OH223511   3.413   4.478   2.744 -0.4641 -0.4222  0.2836
  651TIP3    H123512   3.460   4.531   2.809 -0.3469  0.8466 -0.7748
  651TIP3    H223513   3.480   4.453   2.681 -0.7082 -0.9836  0.2466
  652TIP3   OH223514   5.567   3.307   2.808  0.0574  0.5067 -0.6415
  652TIP3    H123515   5.579   3.217   2.780  0.4306  0.6742 -1.0414
  652TIP3    H223516   5.656   3.341   2.817 -0.0820  0.9454 -0.8702
  653TIP3   OH223517   1.304   0.117   1.800  0.4353  0.4028  0.3961
  653TIP3    H123518   1.223   0.122   1.850  1.0162 -0.9240  1.5385
  653TIP3    H223519   1.276   0.103   1.710 -0.6683 -2.7100  1.0855
  654TIP3   OH223520   6.349   6.585   0.060 -0.2843  0.3396  0.0064
  654TIP3    H123521   6.409   6.511   0.055 -1.1803 -0.4459  0.5336
  654TIP3    H223522   6.330   6.594   0.154 -1.8060 -0.1397 -0.2124
  655TIP3   OH223523   5.321   2.606   7.663 -0.2314  0.2960 -0.5092
  655TIP3    H123524   5.287   2.558   7.588 -0.3258  1.3683 -1.1763
  655TIP3    H223525   5.323   2.698   7.634  0.8641  0.5769  0.3715
  656TIP3   OH223526   0.359   1.128   2.916 -0.2482  0.3403 -0.2329
  656TIP3    H123527   0.412   1.093   2.844  1.6664  1.7589  0.4075
  656TIP3    H223528   0.364   1.223   2.906 -1.8260  0.5414  0.5001
  657TIP3   OH223529   5.288   5.505   9.157 -0.0132  0.3057 -0.0783
  657TIP3    H123530   5.247   5.568   9.216  0.6343 -0.5037  1.2713
  657TIP3    H223531   5.381   5.515   9.173  0.1984  0.3175 -1.2451
  658TIP3   OH223532   4.223   1.047   8.251  0.0237 -0.3797 -0.1611
  658TIP3    H123533   4.178   1.120   8.209  0.0202 -0.4932 -0.3586
  658TIP3    H223534   4.223   1.069   8.344 -1.1755 -0.7643 -0.0522
  659TIP3   OH223535   4.254   5.941   0.994 -0.5070 -0.6424  0.0886
  659TIP3    H123536   4.295   6.018   0.953 -2.3404  0.5725  0.4104
  659TIP3    H223537   4.282   5.867   0.939  0.2041  0.4326 -1.0562
  660TIP3   OH223538   3.205   3.787   9.075  0.1528  0.5056  0.1063
  660TIP3    H123539   3.275   3.725   9.051 -0.0384  0.8151 -1.3222
  660TIP3    H223540   3.144   3.735   9.127  1.6259  0.3251  1.7554
  661TIP3   OH223541   2.412   1.526   8.904  0.0988  0.1250  0.5092
  661TIP3    H123542   2.439   1.607   8.949 -0.2629  0.1145  0.7470
  661TIP3    H223543   2.316   1.529   8.905  0.0240 -1.1715  2.1260
  662TIP3   OH223544   1.874   0.422   0.987 -0.1051 -0.2357  0.2149
  662TIP3    H123545   1.888   0.384   1.074  0.0823  2.2334  1.3672
  662TIP3    H223546   1.928   0.369   0.929  0.9679 -1.0483  1.8646
  663TIP3   OH223547   4.050   5.847   2.956  0.7393 -0.1935 -0.3805
  663TIP3    H123548   4.125   5.876   3.008 -0.5910  1.2889  0.8047
  663TIP3    H223549   4.034   5.758   2.986  0.3068  0.4575  1.4697
  664TIP3   OH223550   2.575   2.958   7.305 -0.1339  0.0104 -0.1514
  664TIP3    H123551   2.524   2.890   7.260  0.7888 -1.3212  0.7234
  664TIP3    H223552   2.640   2.909   7.356  2.7788  1.6379 -2.0455
  665TIP3   OH223553   0.663   5.959   8.926 -0.5981 -0.4593  0.1496
  665TIP3    H123554   0.738   5.979   8.981  0.3353 -2.4933 -0.2698
  665TIP3    H223555   0.625   5.880   8.965 -2.6488  0.6079  0.4389
  666TIP3   OH223556   3.831   2.022   3.291 -0.2787 -0.7240  0.1178
  666TIP3    H123557   3.740   2.037   3.267 -0.6621 -0.3631  1.6567
  666TIP3    H223558   3.878   2.098   3.256 -0.8626 -0.0558  0.7306
  667TIP3   OH223559   5.607   6.614   9.003  0.3195  0.0227 -0.4388
  667TIP3    H123560   5.669   6.582   9.069 -0.7208 -1.4652 -0.1223
  667TIP3    H223561   5.628   6.563   8.924  0.5460  0.6711 -0.7992
  668TIP3   OH223562   3.102   6.362   1.405 -0.0211 -0.4431 -0.1039
  668TIP3    H123563   3.121   6.373   1.311 -3.4789  1.8550 -0.6842
  668TIP3    H223564   3.042   6.433   1.426 -0.3248 -1.6224  3.6211
  669TIP3   OH223565   3.399   5.074   0.563 -0.1471  0.2871 -1.0058
  669TIP3    H123566   3.413   5.045   0.473  0.0081  0.4964 -1.0507
  669TIP3    H223567   3.381   5.168   0.555  1.7284  0.7206 -0.6656
  670TIP3   OH223568   1.192   3.020   8.225  0.2646  0.1354  0.5044
  670TIP3    H123569   1.287   3.022   8.235  0.5324 -0.3741 -1.4878
  670TIP3    H223570   1.161   2.970   8.300  1.7349 -1.1035  0.3298
  671TIP3   OH223571   1.431   2.017   1.053 -0.2549  0.4308  0.9497
  671TIP3    H123572   1.338   2.028   1.030 -0.2569  2.1328  1.6382
  671TIP3    H223573   1.450   1.926   1.031 -1.4279  0.6972 -1.5146
  672TIP3   OH223574   4.203   5.504   0.946 -0.5532 -0.6351  0.1560
  672TIP3    H123575   4.121   5.525   0.900 -1.7907 -3.8317  0.6653
  672TIP3    H223576   4.189   5.416   0.981  2.7566 -0.8743  1.1904
  673TIP3   OH223577   1.552   1.089   8.046 -0.5673 -0.7789  0.1870
  673TIP3    H123578   1.566   0.994   8.054  0.8391 -0.9107 -2.5631
  673TIP3    H223579   1.528   1.101   7.954 -1.6472  1.4779  0.7135
  674TIP3   OH223580   4.986   1.846   8.008 -0.2416 -0.8325  0.3063
  674TIP3    H123581   4.964   1.792   7.933  1.3756 -0.7103 -0.2823
  674TIP3    H223582   5.022   1.927   7.970 -0.2314 -0.4063  1.1955
  675TIP3   OH223583   1.280   5.465   3.484  0.1770  0.1100  0.4162
  675TIP3    H123584   1.244   5.492   3.400  1.4648  0.6174  0.0089
  675TIP3    H223585   1.222   5.394   3.513  0.0755 -0.4964 -1.1797
  676TIP3   OH223586   1.216   5.700   8.554  0.0726  0.2867  0.3984
  676TIP3    H123587   1.155   5.625   8.557  0.8766 -0.3533  2.3374
  676TIP3    H223588   1.302   5.660   8.540  0.8521  0.5047  3.7467
  677TIP3   OH223589   2.017   0.997   1.600 -0.5823  0.0841  0.0248
  677TIP3    H123590   1.986   0.930   1.539  0.5145 -0.8649  0.4663
  677TIP3    H223591   2.052   0.947   1.674  0.5520  1.1308  0.2157
  678TIP3   OH223592   1.129   5.701   0.160 -0.2301  0.1402  0.9437
  678TIP3    H123593   1.164   5.771   0.216  0.4091 -0.0301  0.7655
  678TIP3    H223594   1.206   5.650   0.135 -0.7862 -1.2041  1.8546
  679TIP3   OH223595   0.504   5.694   9.038  0.6541 -0.0662 -0.1330
  679TIP3    H123596   0.444   5.637   9.085  0.8183 -0.2150 -0.1004
  679TIP3    H223597   0.591   5.659   9.059  0.7555  0.1961 -0.1147
  680TIP3   OH223598   5.989   4.760   8.947  0.3639  0.6017  0.0907
  680TIP3    H123599   6.056   4.725   8.889  0.9946  0.2027  1.0314
  680TIP3    H223600   5.918   4.696   8.943  0.5539  0.3953  0.0305
  681TIP3   OH223601   1.873   1.700   2.101  0.0391 -0.0247 -0.5739
  681TIP3    H123602   1.844   1.609   2.107 -0.7146 -0.0004 -2.8877
  681TIP3    H223603   1.927   1.704   2.022 -0.4482  1.6294 -0.8793
  682TIP3   OH223604   2.224   3.540   7.582  0.2581 -0.0374 -0.5754
  682TIP3    H123605   2.193   3.477   7.517 -1.1739 -0.6118  0.6037
  682TIP3    H223606   2.212   3.626   7.540 -0.8496 -0.3827 -0.9913
  683TIP3   OH223607   0.327   3.811   2.836 -0.2867  0.5704  0.0483
  683TIP3    H123608   0.297   3.871   2.904 -3.0727  0.3623 -0.8565
  683TIP3    H223609   0.246   3.772   2.801  1.2813 -2.8140 -0.2513
  684TIP3   OH223610   4.449   6.274   0.460  0.0771 -0.3971  0.0856
  684TIP3    H123611   4.493   6.314   0.536  1.5545  0.0708 -0.9721
  684TIP3    H223612   4.455   6.180   0.476 -0.8016 -0.3016  1.1607
  685TIP3   OH223613   2.836   0.001   8.298  0.0847 -0.1892 -0.1158
  685TIP3    H123614   2.760  -0.026   8.246 -0.1124 -0.9946  0.5693
  685TIP3    H223615   2.817  -0.032   8.386  1.5201 -0.9934 -0.0753
  686TIP3   OH223616   2.355   0.223   2.078  0.4906  0.3582 -0.0057
  686TIP3    H123617   2.343   0.273   2.159  0.4298  0.8182 -0.2943
  686TIP3    H223618   2.350   0.131   2.105 -3.1682  0.4114  0.0685
  687TIP3   OH223619   0.085   1.815   2.004 -0.5331 -0.0404 -0.5296
  687TIP3    H123620   0.163   1.800   1.952  1.4473  2.1064  1.6088
  687TIP3    H223621   0.073   1.910   2.003  1.0248  0.5012  4.5155
  688TIP3   OH223622   0.082   6.125   0.147  0.2529  0.1861 -0.2005
  688TIP3    H123623   0.120   6.188   0.085  2.4712 -0.2410  0.6528
  688TIP3    H223624   0.014   6.175   0.192 -0.0243  1.0906 -1.5452
  689TIP3   OH223625   0.556   0.351   8.724  0.0433  0.1450  0.2933
  689TIP3    H123626   0.543   0.260   8.697  2.0079  0.2478 -1.2429
  689TIP3    H223627   0.598   0.345   8.810 -1.0343 -0.3459  0.7992
  690TIP3   OH223628   5.008   0.628   8.467 -0.0618 -0.0847  0.6821
  690TIP3    H123629   5.084   0.684   8.480 -0.0436  0.0765 -0.1026
  690TIP3    H223630   5.011   0.566   8.541  0.6267  0.1407  0.8472
  691TIP3   OH223631   3.396   6.537   0.333 -0.4914  0.2273  0.2403
  691TIP3    H123632   3.330   6.603   0.314 -0.1392  0.6586  0.4819
  691TIP3    H223633   3.454   6.579   0.397 -0.0424 -0.1770  0.1066
  692TIP3   OH223634   2.090   0.122   2.271 -0.7784 -0.0407 -0.4078
  692TIP3    H123635   2.134   0.172   2.339 -2.1923 -0.7583  1.0912
  692TIP3    H223636   2.157   0.062   2.238  0.3459  1.3613 -0.7732
  693TIP3   OH223637   3.275   6.128   9.203  0.1193 -0.0182 -0.2014
  693TIP3    H123638   3.299   6.148   9.293  2.2729  1.5283 -1.0145
  693TIP3    H223639   3.192   6.082   9.209 -1.2143  2.4479  2.4060
  694TIP3   OH223640   2.556   5.202   2.890  0.2312 -0.1088  0.0442
  694TIP3    H123641   2.578   5.130   2.949  1.8536 -0.6595 -1.1412
  694TIP3    H223642   2.574   5.282   2.941  0.8440 -0.5647  0.5579
  695TIP3   OH223643   3.947   5.208   2.995 -0.4469 -1.1563  0.2909
  695TIP3    H123644   3.905   5.256   3.066 -0.3818 -1.2645  0.4026
  695TIP3    H223645   3.970   5.123   3.033 -0.4647 -1.2361  0.1250
  696TIP3   OH223646   6.114   3.254   0.133 -0.1045 -0.0765 -0.0568
  696TIP3    H123647   6.076   3.188   0.191 -1.5456  0.6682 -0.1250
  696TIP3    H223648   6.124   3.332   0.188  0.2544  0.0770 -0.3389
  697TIP3   OH223649   0.831   6.472   1.194  0.0192 -0.8335 -0.1268
  697TIP3    H123650   0.874   6.523   1.263  0.4538 -1.6842  0.2328
  697TIP3    H223651   0.759   6.428   1.239 -0.7210 -0.1024 -0.5551
  698TIP3   OH223652   4.968   2.163   3.059 -0.4197  0.3386 -0.2962
  698TIP3    H123653   4.903   2.223   3.095 -1.2567 -0.2464 -0.8202
  698TIP3    H223654   5.045   2.218   3.043 -0.1632  0.7272  1.9272
  699TIP3   OH223655   1.905   6.049   8.473  0.3117 -0.1053  0.2233
  699TIP3    H123656   1.984   6.024   8.520  0.7491  1.0245  0.1089
  699TIP3    H223657   1.931   6.123   8.419 -1.3164  1.7490  1.8323
  700TIP3   OH223658   0.503   0.527   0.961  0.1697  0.0963 -0.3566
  700TIP3    H123659   0.460   0.547   1.044  0.1453 -1.2029 -0.0300
  700TIP3    H223660   0.432   0.494   0.905  0.2030  0.8762 -0.8755
  701TIP3   OH223661   4.804   5.528   0.714 -0.4740  0.2943  0.8290
  701TIP3    H123662   4.786   5.616   0.747 -1.2170  0.2311  0.5963
  701TIP3    H223663   4.761   5.525   0.629  0.0058 -0.1152  0.5998
  702TIP3   OH223664   0.936   5.065   1.865  0.2666  0.2122  0.5111
  702TIP3    H123665   1.020   5.097   1.898  0.0898  2.2887 -0.8691
  702TIP3    H223666   0.886   5.145   1.844 -0.4447 -0.9004 -2.6328
  703TIP3   OH223667   3.635   5.431   0.332 -0.4169  0.5520 -0.5532
  703TIP3    H123668   3.728   5.451   0.318 -0.4211 -0.0244 -1.5354
  703TIP3    H223669   3.597   5.513   0.362  0.1515  1.2000 -1.5310
  704TIP3   OH223670   3.652   3.828   0.677 -0.5800  0.0197  0.1042
  704TIP3    H123671   3.673   3.846   0.585 -1.0683  0.9336  0.1646
  704TIP3    H223672   3.729   3.783   0.711  0.1102  0.7736 -0.4288
  705TIP3   OH223673   1.566   3.632   1.957  0.1345 -0.2542  0.4421
  705TIP3    H123674   1.534   3.630   1.867  1.9478  1.1601 -0.2794
  705TIP3    H223675   1.561   3.725   1.982 -1.7610 -0.7808  2.3912
  706TIP3   OH223676   0.484   2.443   0.761 -0.7416  0.2425 -0.3371
  706TIP3    H123677   0.520   2.531   0.776 -0.4413  0.3963 -1.8123
  706TIP3    H223678   0.397   2.446   0.800 -0.6557  1.1317 -0.1862
  707TIP3   OH223679   1.461   5.528   0.628  0.1759 -0.3850  0.0504
  707TIP3    H123680   1.525   5.505   0.560  0.5121 -2.3820  0.9480
  707TIP3    H223681   1.513   5.536   0.708 -0.4683 -0.0976  0.4465
  708TIP3   OH223682   2.068   4.165   1.657  0.0954  0.1370  0.2584
  708TIP3    H123683   2.081   4.070   1.664  0.8218  0.2194  0.0903
  708TIP3    H223684   1.974   4.175   1.640 -0.3852 -0.4452  2.2422
  709TIP3   OH223685   6.038   2.628   3.013  0.5380  0.5518 -0.8558
  709TIP3    H123686   6.006   2.714   3.040  0.2040  1.6163 -4.1756
  709TIP3    H223687   5.970   2.567   3.042  0.4466  1.4610  0.9641
  710TIP3   OH223688   0.476   1.026   2.683  0.1381  0.6451  0.1902
  710TIP3    H123689   0.565   1.060   2.690  0.2623  0.5975 -0.8839
  710TIP3    H223690   0.482   0.957   2.617 -0.0706 -1.6572  2.4448
  711TIP3   OH223691   0.665   5.537   2.984 -0.1888 -0.3294  0.2173
  711TIP3    H123692   0.692   5.503   3.069 -0.4568 -2.4551 -0.5121
  711TIP3    H223693   0.569   5.541   2.990 -0.2606 -1.1961 -0.2205
  712TIP3   OH223694   4.843   0.162   2.479  0.1334  0.0588 -0.6336
  712TIP3    H123695   4.873   0.237   2.531 -0.9322 -1.2488  2.0786
  712TIP3    H223696   4.748   0.170   2.478  0.0890 -0.5163 -1.5034
  713TIP3   OH223697   1.462   0.106   2.246  0.2789  0.1340  0.1146
  713TIP3    H123698   1.512   0.086   2.167  1.4476  0.9117  0.6443
  713TIP3    H223699   1.431   0.020   2.276  0.0637 -0.2015 -1.0116
  714TIP3   OH223700   2.768   2.391   0.405 -0.0089 -0.5682  0.0584
  714TIP3    H123701   2.799   2.411   0.316  1.7400  0.6514  0.8766
  714TIP3    H223702   2.673   2.385   0.396 -0.0205  1.0844 -1.6387
  715TIP3   OH223703   2.065   1.843   1.042  0.4341 -0.3449  0.4416
  715TIP3    H123704   2.071   1.870   0.950 -2.2100 -0.5022  0.1381
  715TIP3    H223705   2.005   1.906   1.082  2.6882  0.6439  2.5240
  716TIP3   OH223706   6.524   3.626   0.289 -0.9684  0.1431 -1.0599
  716TIP3    H123707   6.554   3.716   0.276  2.0429 -0.6693 -0.6948
  716TIP3    H223708   6.525   3.614   0.384  1.0339 -0.8709 -1.1421
  717TIP3   OH223709   1.137   6.218   0.967 -0.3897 -0.1445  0.3643
  717TIP3    H123710   1.096   6.298   0.934  0.5672  1.1645  2.1651
  717TIP3    H223711   1.148   6.162   0.890 -0.7001  1.6367 -1.0183
  718TIP3   OH223712   0.969   2.410   0.696 -0.5146 -0.6597  0.0742
  718TIP3    H123713   0.893   2.359   0.726 -0.8942 -0.0541  0.1517
  718TIP3    H223714   1.008   2.355   0.627 -0.8060 -1.1415  0.2857
  719TIP3   OH223715   6.448   1.546   0.791  0.1487  0.7395 -0.0998
  719TIP3    H123716   6.372   1.501   0.755  1.3617  0.3514 -2.3598
  719TIP3    H223717   6.438   1.637   0.762  0.0622  0.9064  0.4427
  720TIP3   OH223718   2.282   2.671   0.706  0.1263  0.1798  0.2777
  720TIP3    H123719   2.278   2.675   0.610  0.6948 -0.3947  0.2247
  720TIP3    H223720   2.262   2.760   0.735  1.6399  0.7670 -0.4222
  721TIP3   OH223721   5.575   0.624   0.911 -0.4435  0.2828  0.4285
  721TIP3    H123722   5.590   0.548   0.855  2.3903  0.8604  0.2321
  721TIP3    H223723   5.481   0.622   0.931 -0.3841 -3.6973  1.0847
  722TIP3   OH223724   6.132   5.162   8.670  0.4815 -0.0175  0.7123
  722TIP3    H123725   6.073   5.206   8.608 -1.0182 -1.8003  0.7954
  722TIP3    H223726   6.074   5.123   8.735  1.7869 -1.5059  1.0400
  723TIP3   OH223727   6.545   2.815   1.038  0.5278  0.0445 -0.1157
  723TIP3    H123728   6.552   2.861   0.954 -1.1514 -1.9528 -1.4432
  723TIP3    H223729   6.621   2.757   1.039  1.6892  1.4974  0.7693
  724TIP3   OH223730   4.749   1.533   1.255 -0.0843  0.8643  0.3105
  724TIP3    H123731   4.822   1.484   1.292  0.5181  0.0799 -1.7474
  724TIP3    H223732   4.752   1.619   1.298  1.0819  0.3052  1.3735
  725TIP3   OH223733   0.974   2.764   2.362 -0.2366 -0.0002 -0.0334
  725TIP3    H123734   1.034   2.690   2.373 -1.2025 -0.7492  0.3282
  725TIP3    H223735   0.950   2.789   2.451 -0.4644  0.3050 -0.1787
  726TIP3   OH223736   2.849   5.270   8.698 -0.1809  0.2376  0.0600
  726TIP3    H123737   2.765   5.230   8.718  0.3510 -0.1699  1.6363
  726TIP3    H223738   2.873   5.235   8.613 -1.0624 -0.5529  0.1247
  727TIP3   OH223739   5.709   0.906   1.585 -0.2667 -0.8067  0.1644
  727TIP3    H123740   5.740   0.923   1.674 -0.6805  0.3612  0.1009
  727TIP3    H223741   5.713   0.991   1.541  0.5128 -1.4803 -1.1327
  728TIP3   OH223742   5.535   3.117   2.247 -0.0071 -0.7560  0.1162
  728TIP3    H123743   5.505   3.087   2.162 -0.5720 -0.1892  0.1163
  728TIP3    H223744   5.619   3.071   2.260  1.3438  0.9783 -1.8247
  729TIP3   OH223745   3.271   0.752   2.621  0.4720  0.4420  0.2097
  729TIP3    H123746   3.317   0.784   2.699 -0.1699 -1.0110  1.2292
  729TIP3    H223747   3.305   0.664   2.607 -0.3793  0.1897 -0.3505
  730TIP3   OH223748   5.597   4.095   8.997 -0.3428  0.0537 -0.5674
  730TIP3    H123749   5.548   4.111   8.917 -0.3434 -0.5977 -0.7081
  730TIP3    H223750   5.597   3.999   9.006 -0.5964  0.1290  0.3697
  731TIP3   OH223751   5.764   4.451   9.283 -0.8463  0.4983 -0.3692
  731TIP3    H123752   5.786   4.542   9.302 -0.6100  0.3288  0.1784
  731TIP3    H223753   5.734   4.415   9.367  0.6862 -0.3925 -0.1722
  732TIP3   OH223754   0.298   0.519   1.221  0.4574  0.4078 -0.0669
  732TIP3    H123755   0.314   0.430   1.191  0.5779  0.1298  0.7999
  732TIP3    H223756   0.327   0.519   1.312  0.0698  1.2208  0.0626
  733TIP3   OH223757   3.951   5.478   2.745 -0.1624  0.3005  0.5912
  733TIP3    H123758   3.961   5.383   2.749  0.8655  0.3530 -0.1834
  733TIP3    H223759   3.889   5.493   2.674  1.2879  0.2476 -0.7507
  734TIP3   OH223760   1.558   2.423   2.273  0.5047 -0.6427  0.0314
  734TIP3    H123761   1.538   2.371   2.195 -0.7461 -2.2454  1.3495
  734TIP3    H223762   1.476   2.468   2.293  0.5882 -0.8510  0.8597
  735TIP3   OH223763   0.094   0.516   1.936  0.6746 -0.0192  0.1178
  735TIP3    H123764   0.069   0.520   1.844 -1.8140  0.5486  0.7557
  735TIP3    H223765   0.177   0.469   1.936  0.9506  0.3277 -2.4370
  736TIP3   OH223766   3.338   0.626   1.235 -0.0352 -0.5110  0.0901
  736TIP3    H123767   3.280   0.623   1.311  0.9285  0.1487  0.8881
  736TIP3    H223768   3.280   0.644   1.161 -0.9919 -1.1388  0.6599
  737TIP3   OH223769   5.728   0.522   1.433  0.5214 -0.8119 -0.5291
  737TIP3    H123770   5.792   0.593   1.433  0.1413 -0.4593  0.7431
  737TIP3    H223771   5.673   0.541   1.357 -0.2797  0.9160  0.4275
  738TIP3   OH223772   4.748   3.320   0.396  0.2180 -0.1863 -0.7289
  738TIP3    H123773   4.816   3.327   0.464 -1.0630 -0.6957  0.6564
  738TIP3    H223774   4.755   3.402   0.347 -0.0383  1.0633  1.2215
  739TIP3   OH223775   0.161   5.378   2.883 -0.0186 -0.1647 -0.1246
  739TIP3    H123776   0.070   5.348   2.883  0.3014 -1.2872 -1.8165
  739TIP3    H223777   0.213   5.298   2.891  0.8665  0.5895  2.4713
  740TIP3   OH223778   2.026   2.959   1.867  0.1821 -0.2195 -0.1760
  740TIP3    H123779   2.002   2.874   1.904  0.7688 -0.4211 -0.2515
  740TIP3    H223780   2.088   2.996   1.930 -0.1533  0.2040 -0.0886
  741TIP3   OH223781   5.456   2.905   0.030 -0.2922  0.6931 -0.4606
  741TIP3    H123782   5.538   2.911  -0.019  0.3790 -0.3301  0.4868
  741TIP3    H223783   5.461   2.975   0.095 -1.1653  2.0251 -1.7467
  742TIP3   OH223784   5.932   4.189   1.673 -0.1685 -0.2593  0.9523
  742TIP3    H123785   5.999   4.140   1.720  0.4722 -0.5206 -0.2297
  742TIP3    H223786   5.874   4.222   1.743  1.2246  0.0623  1.9970
  743TIP3   OH223787   0.149   6.528   0.583 -0.0363  0.2453  0.0296
  743TIP3    H123788   0.160   6.623   0.578  0.2457  0.1672 -0.8832
  743TIP3    H223789   0.119   6.502   0.496 -1.2450 -0.3683  0.5926
  744TIP3   OH223790   2.108   5.258   8.168 -0.5032 -0.5710  0.0539
  744TIP3    H123791   2.133   5.180   8.219 -2.4101 -1.4811 -0.3228
  744TIP3    H223792   2.119   5.331   8.229  0.1128 -1.2798  0.8191
  745TIP3   OH223793   0.206   2.397   1.308 -0.3907  0.1439 -0.3836
  745TIP3    H123794   0.117   2.431   1.302  0.1781  1.5909 -1.3539
  745TIP3    H223795   0.229   2.405   1.401 -1.3470 -0.5057 -0.0792
  746TIP3   OH223796   5.609   6.315   2.849  0.0066 -0.1591 -0.0686
  746TIP3    H123797   5.661   6.388   2.816 -0.4629  0.6487  0.9074
  746TIP3    H223798   5.580   6.344   2.936 -2.2740 -0.4638 -0.6642
  747TIP3   OH223799   2.937   4.186   8.921 -0.3572  0.0425  0.0315
  747TIP3    H123800   2.957   4.251   8.988  3.0320 -0.6853 -0.0780
  747TIP3    H223801   2.948   4.102   8.965 -0.9480 -0.4501 -0.7395
  748TIP3   OH223802   1.951   2.182   9.192 -1.0340  0.4576  0.2775
  748TIP3    H123803   1.867   2.143   9.168 -1.9156  1.9459  0.8432
  748TIP3    H223804   1.950   2.269   9.152  1.8080 -0.7195 -2.8758
  749TIP3   OH223805   3.463   1.628   1.837  0.0481 -0.4441  0.4863
  749TIP3    H123806   3.437   1.684   1.909 -2.9278 -2.7356  1.3922
  749TIP3    H223807   3.382   1.587   1.807  1.7173 -2.5118 -1.5993
  750TIP3   OH223808   0.331   5.877   0.434  0.1241 -0.1438  0.3299
  750TIP3    H123809   0.247   5.918   0.413  1.4269  1.8345 -1.4888
  750TIP3    H223810   0.394   5.921   0.377  2.1940 -2.6209  0.5136
  751TIP3   OH223811   2.317   2.047   8.786 -0.1059  1.2158 -0.1484
  751TIP3    H123812   2.408   2.075   8.776 -0.1565  1.1080 -1.0467
  751TIP3    H223813   2.272   2.124   8.822  0.4424  1.0765  0.8619
  752TIP3   OH223814   0.156   3.819   2.038 -0.2065  0.1212  0.3663
  752TIP3    H123815   0.180   3.801   2.129  0.5229  0.8947  0.3427
  752TIP3    H223816   0.064   3.795   2.032 -0.2560  0.0352  1.3032
  753TIP3   OH223817   2.895   1.130   7.669 -0.2632  0.3008  0.6195
  753TIP3    H123818   2.975   1.098   7.627  0.6661  2.8598  0.2345
  753TIP3    H223819   2.824   1.099   7.613  0.6100 -0.3999 -0.1251
  754TIP3   OH223820   6.249   1.265   0.854  0.5114  0.3859 -0.3898
  754TIP3    H123821   6.333   1.288   0.894  0.5024  2.1393 -1.2677
  754TIP3    H223822   6.188   1.332   0.886 -0.2706 -0.1750 -0.6909
  755TIP3   OH223823   2.775   1.200   1.656  0.4106 -0.1071  0.3663
  755TIP3    H123824   2.737   1.287   1.651 -0.0637 -0.3016  0.4998
  755TIP3    H223825   2.749   1.167   1.742 -0.9652 -1.0643 -0.3667
  756TIP3   OH223826   5.602   5.588   0.921  0.1095  0.3255 -0.2502
  756TIP3    H123827   5.550   5.570   0.843  1.9263 -2.0476 -1.0473
  756TIP3    H223828   5.683   5.539   0.908  1.3800  1.5636  2.1955
  757TIP3   OH223829   2.774   0.978   2.542  0.2011 -0.1351 -0.1304
  757TIP3    H123830   2.843   0.944   2.599  0.5139 -0.0343 -0.4442
  757TIP3    H223831   2.813   1.055   2.500  0.4980 -1.0203 -1.5695
  758TIP3   OH223832   2.414   3.857   8.056  0.2412 -0.0316  0.3814
  758TIP3    H123833   2.396   3.855   8.150 -0.1756 -0.3435  0.2953
  758TIP3    H223834   2.385   3.772   8.024  0.6136 -0.0236  0.0081
  759TIP3   OH223835   4.223   1.385   7.009  0.0541 -0.1675 -0.0879
  759TIP3    H123836   4.314   1.360   7.027  0.0032  0.5336  1.2717
  759TIP3    H223837   4.176   1.302   7.002  0.0909 -0.5902  3.2070
  760TIP3   OH223838   2.999   3.402   8.662 -0.3077  0.5855 -0.2865
  760TIP3    H123839   3.071   3.363   8.612  0.3986  1.6281 -0.0993
  760TIP3    H223840   2.965   3.330   8.715 -0.0303 -0.1472 -1.0733
  761TIP3   OH223841   1.572   1.899   8.150  0.1446 -0.3603  0.4386
  761TIP3    H123842   1.590   1.964   8.083  0.4878 -1.9875 -1.1395
  761TIP3    H223843   1.657   1.863   8.174 -0.1559 -1.5132 -0.1176
  762TIP3   OH223844   2.676   5.139   0.589 -0.3190 -0.1116 -0.0188
  762TIP3    H123845   2.642   5.189   0.514  0.0517 -0.0832 -0.1715
  762TIP3    H223846   2.659   5.195   0.665  0.9818  0.7058 -0.2968
  763TIP3   OH223847   1.175   4.137   1.918  0.4564  0.2364  0.2436
  763TIP3    H123848   1.134   4.073   1.976  1.1632  0.0670  0.5677
  763TIP3    H223849   1.104   4.166   1.860  0.2417 -1.2473 -0.2768
  764TIP3   OH223850   1.412   4.976   1.650  0.1210  0.3392 -0.1518
  764TIP3    H123851   1.376   4.927   1.575 -1.3250  1.3040 -0.1287
  764TIP3    H223852   1.336   4.999   1.702  0.8565  1.7957  0.3348
  765TIP3   OH223853   5.686   3.287   1.239 -0.4437  0.0741  0.5408
  765TIP3    H123854   5.709   3.370   1.197 -0.1643  0.1610  0.8678
  765TIP3    H223855   5.762   3.231   1.227 -0.8688 -0.3633 -0.2431
  766TIP3   OH223856   4.217   6.295   7.511  0.0460 -0.0116  0.1040
  766TIP3    H123857   4.251   6.384   7.524  1.1531 -0.3176 -0.5402
  766TIP3    H223858   4.196   6.291   7.418 -1.5948  0.0969  0.4550
  767TIP3   OH223859   5.677   2.447   0.296 -0.4180  0.7120  0.8588
  767TIP3    H123860   5.633   2.532   0.293 -1.6241  0.0886 -0.6730
  767TIP3    H223861   5.741   2.451   0.224 -2.3013 -0.5313 -1.0195
  768TIP3   OH223862   4.044   2.608   8.503 -0.0599 -0.0373 -0.4504
  768TIP3    H123863   4.020   2.700   8.516 -1.2226 -0.3364 -0.3772
  768TIP3    H223864   3.965   2.568   8.467  0.1238 -1.2098  0.4060
  769TIP3   OH223865   4.294   0.404   7.994  0.3876  0.3934  0.0434
  769TIP3    H123866   4.355   0.337   8.026  0.1218  1.1863  2.3218
  769TIP3    H223867   4.208   0.365   8.004  0.3785 -0.0691 -1.5723
  770TIP3   OH223868   0.326   3.283   0.245  0.0864 -0.4705  0.7276
  770TIP3    H123869   0.360   3.372   0.239 -0.0291 -0.5256 -1.6212
  770TIP3    H223870   0.397   3.228   0.212 -0.1711 -1.1583  1.3173
  771TIP3   OH223871   2.668   0.467   0.811 -0.4058  0.3290  0.1175
  771TIP3    H123872   2.580   0.490   0.780 -0.6895  1.0008  1.3721
  771TIP3    H223873   2.697   0.399   0.750 -2.5192 -1.2530  0.7489
  772TIP3   OH223874   2.166   5.461   8.325 -0.5732  0.3362 -0.1414
  772TIP3    H123875   2.151   5.466   8.420 -2.0873  0.0734 -0.3365
  772TIP3    H223876   2.164   5.552   8.295 -2.1919  0.3205 -0.1772
  773TIP3   OH223877   0.859   5.168   2.758 -0.2677  0.2013 -0.6646
  773TIP3    H123878   0.944   5.200   2.789 -0.6333  1.6090 -1.0689
  773TIP3    H223879   0.808   5.247   2.741 -0.7170 -0.5079 -3.0682
  774TIP3   OH223880   5.967   4.601   1.697  0.4658 -0.6955  0.2908
  774TIP3    H123881   5.905   4.585   1.625  0.7632 -0.1168 -0.1040
  774TIP3    H223882   5.952   4.692   1.721  2.3817  0.0193 -1.0147
  775TIP3   OH223883   0.588   5.346   0.079 -0.3486  0.2944 -0.0138
  775TIP3    H123884   0.583   5.285   0.153 -3.2702  0.3663 -0.0374
  775TIP3    H223885   0.664   5.401   0.099  0.8541 -1.6847  1.2893
  776TIP3   OH223886   1.906   3.380   7.386  0.2483  0.0635  0.1802
  776TIP3    H123887   2.000   3.390   7.377  0.5867 -0.3162  2.5618
  776TIP3    H223888   1.880   3.324   7.312  2.2438 -1.5240  0.5915
  777TIP3   OH223889   5.025   5.784   0.986 -0.4050 -0.7831  0.1199
  777TIP3    H123890   5.062   5.763   0.901  2.4100  1.7859  0.5408
  777TIP3    H223891   4.955   5.847   0.968  1.9761  1.9702 -0.3696
  778TIP3   OH223892   4.496   5.751   2.402 -0.2481 -0.0742 -0.0445
  778TIP3    H123893   4.551   5.705   2.466  0.4689 -0.2614 -0.7773
  778TIP3    H223894   4.525   5.842   2.407 -0.4995 -0.0079  0.2104
  779TIP3   OH223895   5.321   2.079   8.729  0.5195  0.0026 -0.3153
  779TIP3    H123896   5.387   2.148   8.717  0.0547  0.2719 -1.5307
  779TIP3    H223897   5.308   2.044   8.640 -0.8220 -0.1815 -0.0583
  780TIP3   OH223898   6.515   4.975   2.381  0.5035 -0.2892  0.2561
  780TIP3    H123899   6.554   4.920   2.313  1.2883  0.2248  0.2840
  780TIP3    H223900   6.461   4.915   2.432 -0.3311 -0.6310 -0.9894
  781TIP3   OH223901   1.087   4.883   8.943  0.0715 -0.1446 -0.4190
  781TIP3    H123902   0.995   4.856   8.932 -0.5239  1.0485  1.1686
  781TIP3    H223903   1.082   4.977   8.958  1.3180 -0.3752  1.8791
  782TIP3   OH223904   2.483   3.392   0.630  0.2161  0.1157  0.3899
  782TIP3    H123905   2.411   3.400   0.692  0.4558  1.0799  0.5587
  782TIP3    H223906   2.520   3.480   0.625 -1.1532  0.6282 -2.7822
  783TIP3   OH223907   4.667   3.846   0.246 -0.4272  0.2969  0.5209
  783TIP3    H123908   4.737   3.849   0.310 -0.0527 -0.6877  0.1779
  783TIP3    H223909   4.597   3.797   0.289  0.5576 -2.1689 -0.4359
  784TIP3   OH223910   0.549   3.533   8.805 -0.0882 -0.4107  0.4889
  784TIP3    H123911   0.628   3.493   8.768 -0.7005  0.3074 -1.7621
  784TIP3    H223912   0.480   3.468   8.793  0.1201 -1.0680  2.5224
  785TIP3   OH223913   5.242   4.537   2.780  0.4811  0.7757 -0.4156
  785TIP3    H123914   5.288   4.619   2.797 -0.6425  1.1950  0.8387
  785TIP3    H223915   5.152   4.564   2.758  0.6583 -0.0267 -2.3784
  786TIP3   OH223916   2.417   4.271   7.772 -0.1404 -0.5752 -0.1644
  786TIP3    H123917   2.347   4.219   7.812  1.9112 -2.6859  0.8985
  786TIP3    H223918   2.421   4.240   7.681 -1.7062  0.8709 -0.7819
  787TIP3   OH223919   5.028   6.060   1.706  0.2819  0.1690  0.2230
  787TIP3    H123920   5.118   6.034   1.724  0.7290  1.0307 -0.7210
  787TIP3    H223921   5.020   6.059   1.611 -0.6524  0.2628  0.2882
  788TIP3   OH223922   1.634   3.956   0.190  0.0739 -0.1101  0.2611
  788TIP3    H123923   1.586   3.922   0.114  1.1596 -1.6260  0.2024
  788TIP3    H223924   1.702   4.011   0.152 -0.4122  0.4885  0.2420
  789TIP3   OH223925   0.995   0.167   8.919  0.4833 -0.0550  0.0469
  789TIP3    H123926   0.999   0.253   8.960 -1.3266 -0.1546  0.5532
  789TIP3    H223927   0.996   0.105   8.992  0.6494 -0.4051 -0.2472
  790TIP3   OH223928   4.122   3.645   2.384 -0.2022 -0.3954 -0.1535
  790TIP3    H123929   4.197   3.590   2.406 -0.2729 -0.2353  0.4867
  790TIP3    H223930   4.104   3.696   2.463 -0.6557 -0.0487 -0.4706
  791TIP3   OH223931   0.981   3.124   8.661 -0.0378 -0.1457  0.3342
  791TIP3    H123932   0.895   3.093   8.634 -0.5521  0.9758  0.6515
  791TIP3    H223933   1.025   3.146   8.580  0.1903 -1.2799  0.1295
  792TIP3   OH223934   1.326   1.084   7.818 -0.0216  0.1438  0.2196
  792TIP3    H123935   1.367   1.071   7.733 -2.3849 -3.2235 -0.5705
  792TIP3    H223936   1.266   1.158   7.805 -0.8462 -0.7576 -1.2614
  793TIP3   OH223937   4.258   0.864   0.514 -0.3071 -0.1622  0.2114
  793TIP3    H123938   4.301   0.778   0.518 -0.4820 -0.3258 -0.8987
  793TIP3    H223939   4.198   0.856   0.439 -0.7161  0.7548  0.4362
  794TIP3   OH223940   0.019   4.444   1.340 -0.7078  0.2877  0.3492
  794TIP3    H123941  -0.008   4.354   1.319 -3.5141  0.8899  0.9623
  794TIP3    H223942   0.059   4.437   1.427 -0.0974 -0.4768  0.0191
  795TIP3   OH223943   5.623   3.997   2.899  0.5316  0.1096 -0.0348
  795TIP3    H123944   5.668   4.081   2.901  3.1832 -1.1369 -0.8991
  795TIP3    H223945   5.553   4.008   2.835  1.3097  1.4531 -0.6948
  796TIP3   OH223946   5.564   3.095   8.147  0.4748 -0.5176 -0.0188
  796TIP3    H123947   5.592   3.050   8.068 -0.6371  1.9547 -1.9653
  796TIP3    H223948   5.485   3.049   8.175 -1.6577  1.0342 -2.9629
  797TIP3   OH223949   0.115   1.142   2.281  0.4823  0.2102  0.5347
  797TIP3    H123950   0.044   1.079   2.275 -1.5310  2.3568  0.1952
  797TIP3    H223951   0.147   1.134   2.371 -1.1431  0.1279  1.1399
  798TIP3   OH223952   5.011   2.004   1.752  0.2065  0.3730 -0.6625
  798TIP3    H123953   5.034   2.059   1.827 -0.6975  0.4799 -0.4471
  798TIP3    H223954   4.920   2.026   1.734  0.6205  0.8928 -2.2766
  799TIP3   OH223955   4.123   6.241   8.684  0.0478 -0.1223  0.1873
  799TIP3    H123956   4.178   6.294   8.741 -0.8615  0.2297  0.7606
  799TIP3    H223957   4.137   6.277   8.596  0.0780  0.5228  0.4513
  800TIP3   OH223958   4.105   5.987   9.107 -0.1516 -0.1656 -0.2228
  800TIP3    H123959   4.082   5.981   9.014  0.9459 -1.8756 -0.4273
  800TIP3    H223960   4.154   5.907   9.124 -0.1936  0.2039  1.8079
  801TIP3   OH223961   2.871   1.988   0.368  0.0796 -0.4896  0.2813
  801TIP3    H123962   2.888   2.070   0.415 -1.4262 -0.3052  0.5602
  801TIP3    H223963   2.904   2.003   0.280  0.4469  0.1659  0.5262
  802TIP3   OH223964   4.222   3.268   7.891  0.2281 -0.1953  0.4884
  802TIP3    H123965   4.270   3.347   7.865 -0.6220  0.2391  0.1957
  802TIP3    H223966   4.282   3.196   7.872  0.1638  0.2053 -1.3859
  803TIP3   OH223967   5.095   4.080   7.399 -0.6289 -0.4593 -0.2704
  803TIP3    H123968   5.018   4.043   7.443 -1.1103  0.3064 -0.4634
  803TIP3    H223969   5.144   4.003   7.369 -0.2159 -1.0377  1.6842
  804TIP3   OH223970   2.175   5.943   9.242  0.1426 -0.0197  0.1529
  804TIP3    H123971   2.187   5.919   9.150  0.6719 -0.7910  0.4055
  804TIP3    H223972   2.081   5.955   9.252  0.1715  1.1471 -0.7293
  805TIP3   OH223973   2.808   0.715   7.509  0.0265  0.1510  0.1258
  805TIP3    H123974   2.833   0.776   7.579  1.0734 -0.9446  0.7357
  805TIP3    H223975   2.801   0.771   7.432 -0.2955  1.2485  0.9131
  806TIP3   OH223976   3.130   3.449   7.556  0.0659  0.9208 -0.2159
  806TIP3    H123977   3.199   3.479   7.497  0.3667  1.2856  0.3225
  806TIP3    H223978   3.173   3.385   7.612 -0.0324  1.1526  0.1246
  807TIP3   OH223979   3.667   0.028   2.009 -0.3933  0.3081 -0.1198
  807TIP3    H123980   3.577  -0.003   2.000 -0.0196 -0.5701 -1.0140
  807TIP3    H223981   3.691   0.058   1.922  0.3285  0.1276  0.0123
  808TIP3   OH223982   4.466   5.121   8.790  0.2371 -0.2589  0.8276
  808TIP3    H123983   4.396   5.148   8.849  0.6283 -0.6074  1.4630
  808TIP3    H223984   4.423   5.066   8.724 -0.6739  2.2310 -0.7945
  809TIP3   OH223985   4.257   4.124   8.757 -0.1455  0.9412  0.2240
  809TIP3    H123986   4.274   4.052   8.696 -2.0310  0.6848 -0.0549
  809TIP3    H223987   4.239   4.082   8.840  0.7352  1.2153  0.5702
  810TIP3   OH223988   6.115   3.501   7.284  0.0979  0.9670 -0.3689
  810TIP3    H123989   6.106   3.563   7.211  2.7201  2.4808  0.4533
  810TIP3    H223990   6.133   3.556   7.360  0.0234 -0.7043  0.9144
  811TIP3   OH223991   6.644   3.357   8.954  0.3508  0.7152 -0.0809
  811TIP3    H123992   6.565   3.373   9.005 -0.4466  0.2841 -1.1403
  811TIP3    H223993   6.613   3.320   8.871  1.8279 -2.3092  0.5770
  812TIP3   OH223994   6.582   3.063   0.865 -0.3664 -0.2338 -0.7219
  812TIP3    H123995   6.571   3.152   0.833  0.8146 -0.6910 -2.5737
  812TIP3    H223996   6.561   3.008   0.789 -0.6410 -1.5260  0.2555
  813TIP3   OH223997   0.696   4.004   7.340 -0.1967  0.3221 -0.3536
  813TIP3    H123998   0.640   3.951   7.283 -1.5566  1.3758 -0.0390
  813TIP3    H223999   0.761   3.943   7.374 -0.1262 -0.6000 -2.0170
  814TIP3   OH224000   3.804   5.244   0.502  0.1910 -0.1252 -0.0422
  814TIP3    H124001   3.766   5.194   0.574 -0.4182 -0.0181 -0.2876
  814TIP3    H224002   3.730   5.284   0.458  0.4976 -0.6688 -1.0969
  815TIP3   OH224003   1.463   4.044   1.412  0.3136  0.4392  0.4505
  815TIP3    H124004   1.494   4.034   1.322  0.6184 -2.8323  0.8121
  815TIP3    H224005   1.382   4.095   1.404 -0.4163 -0.9351 -1.8595
  816TIP3   OH224006   5.610   1.367   6.915  0.3020 -0.3322  0.2449
  816TIP3    H124007   5.674   1.313   6.961  0.5548 -0.6492 -0.4665
  816TIP3    H224008   5.617   1.453   6.956  0.2035 -0.7206  1.0930
  817TIP3   OH224009   0.309   6.057   8.610  0.3523  0.5140 -0.0713
  817TIP3    H124010   0.294   6.024   8.521 -0.6763  0.9720 -0.0691
  817TIP3    H224011   0.322   6.151   8.599  0.8716  0.4797  0.2015
  818TIP3   OH224012   1.854   6.627   8.841 -0.4171  0.1578 -0.2831
  818TIP3    H124013   1.837   6.533   8.847  0.5303 -0.1073 -1.3426
  818TIP3    H224014   1.785   6.668   8.894 -0.4344 -1.1550  0.7555
  819TIP3   OH224015   1.220   0.775   1.166 -0.0232  0.6654 -0.3699
  819TIP3    H124016   1.157   0.765   1.237  0.7091  1.2416  0.3935
  819TIP3    H224017   1.300   0.733   1.199 -0.1729 -0.6389 -1.5812
  820TIP3   OH224018   4.386   5.284   0.053 -0.2703  0.2376  0.5481
  820TIP3    H124019   4.453   5.232   0.097 -0.7127 -1.1366 -0.3498
  820TIP3    H224020   4.350   5.226  -0.015 -1.7753  1.2218  0.4407
  821TIP3   OH224021   5.790   5.419   0.821  0.1652  0.1591 -0.2277
  821TIP3    H124022   5.809   5.335   0.863  1.0132  0.0770 -0.7422
  821TIP3    H224023   5.863   5.475   0.846 -0.2754  0.6767 -0.0826
  822TIP3   OH224024   4.986   4.799   3.198 -0.3453  0.0269  0.2265
  822TIP3    H124025   4.974   4.713   3.160 -0.5389 -0.9508  2.3532
  822TIP3    H224026   5.079   4.802   3.222 -0.2165  0.6385 -0.3026
  823TIP3   OH224027   5.465   2.199   0.559 -0.4422 -0.2752  0.1301
  823TIP3    H124028   5.421   2.114   0.562  1.8469 -1.5244  0.9805
  823TIP3    H224029   5.500   2.211   0.647  0.9189  0.6108 -0.4976
  824TIP3   OH224030   3.536   4.913   2.490  0.1873 -0.0491 -0.6394
  824TIP3    H124031   3.471   4.869   2.543  1.1170  0.2616  0.8031
  824TIP3    H224032   3.498   4.999   2.472  0.2424  0.1727  0.2883
  825TIP3   OH224033   0.445   1.190   0.349  0.0437  0.3104  0.0193
  825TIP3    H124034   0.506   1.162   0.418 -1.2014 -1.0155  0.6427
  825TIP3    H224035   0.363   1.204   0.395 -0.6197  0.1432 -1.0867
  826TIP3   OH224036   3.337   5.681   7.282  0.1247 -0.6440 -0.0130
  826TIP3    H124037   3.345   5.744   7.210 -1.7471  0.0947  0.3762
  826TIP3    H224038   3.353   5.596   7.241  0.2706 -0.1294 -1.0590
  827TIP3   OH224039   0.295   5.044   0.656  0.4552  0.3844  0.0781
  827TIP3    H124040   0.266   4.975   0.716  0.6605 -1.1578 -1.5070
  827TIP3    H224041   0.375   5.079   0.695 -0.5067  0.8965  1.7191
  828TIP3   OH224042   3.143   1.535   8.622 -0.4046  0.8530  0.1938
  828TIP3    H124043   3.053   1.567   8.626 -0.2072  1.4149  0.2109
  828TIP3    H224044   3.191   1.602   8.573 -0.0511  0.4251 -0.0635
  829TIP3   OH224045   4.370   2.632   2.932  0.4750  0.6613  0.2409
  829TIP3    H124046   4.432   2.645   3.004  1.3841 -0.2515 -0.3345
  829TIP3    H224047   4.420   2.582   2.867 -1.0496 -0.6457  0.0090
  830TIP3   OH224048   4.070   2.929   0.542  0.5567  0.6010  0.0931
  830TIP3    H124049   4.077   2.925   0.447  0.0003 -2.5393  0.0705
  830TIP3    H224050   3.981   2.959   0.558  0.1297 -0.3386 -0.4365
  831TIP3   OH224051   1.293   3.928   8.605 -0.2291  0.4067 -0.5339
  831TIP3    H124052   1.259   3.949   8.692 -0.8482 -0.4488 -0.5472
  831TIP3    H224053   1.378   3.887   8.622  0.3608  1.6420 -0.4357
  832TIP3   OH224054   4.184   6.273   0.341  0.2407 -0.2408 -0.2510
  832TIP3    H124055   4.263   6.296   0.391  0.4115  0.5847 -0.8844
  832TIP3    H224056   4.175   6.343   0.276 -2.1232  0.7958  1.0419
  833TIP3   OH224057   2.891   1.068   1.926 -0.0479  0.6983 -0.0840
  833TIP3    H124058   2.923   0.980   1.946 -1.8838 -0.2331 -0.9921
  833TIP3    H224059   2.963   1.108   1.877  0.1655 -0.9873 -1.2629
  834TIP3   OH224060   2.699   2.461   2.836 -0.2002  0.1175 -0.3447
  834TIP3    H124061   2.624   2.454   2.777 -1.1984  0.1425  0.8769
  834TIP3    H224062   2.660   2.480   2.922  1.2870  1.5096  0.0585
  835TIP3   OH224063   3.487   4.367   1.467  0.6086  0.1645  0.1054
  835TIP3    H124064   3.493   4.461   1.484  0.5332  0.4387 -1.2492
  835TIP3    H224065   3.460   4.361   1.375 -0.5529 -1.1809  0.4943
  836TIP3   OH224066   4.273   5.904   2.099  0.5230  0.0345 -0.3056
  836TIP3    H124067   4.293   5.870   2.011  1.1311  0.4448 -0.3295
  836TIP3    H224068   4.202   5.966   2.084 -0.6765 -1.2542 -0.2497
  837TIP3   OH224069   1.555   4.830   1.217  0.0985 -0.0993 -0.1475
  837TIP3    H124070   1.617   4.851   1.147 -0.5540 -0.3835 -0.8255
  837TIP3    H224071   1.605   4.840   1.298  0.8854  0.1597 -0.6608
  838TIP3   OH224072   3.984   5.553   0.744  0.2610  0.9265 -0.1796
  838TIP3    H124073   4.044   5.527   0.674  2.1186 -1.0964  1.9480
  838TIP3    H224074   3.953   5.470   0.781 -0.8896  1.9096  1.1981
  839TIP3   OH224075   5.570   1.626   7.850 -0.2799 -0.2765  0.5856
  839TIP3    H124076   5.540   1.672   7.928 -0.2002 -1.2564  1.2135
  839TIP3    H224077   5.497   1.568   7.827 -1.2392  1.5836 -1.4299
  840TIP3   OH224078   6.473   4.670   2.153 -0.1867 -0.3485 -0.6764
  840TIP3    H124079   6.450   4.669   2.060  1.0214 -0.3459 -0.9892
  840TIP3    H224080   6.551   4.725   2.158 -0.6760  0.2886  0.4548
  841TIP3   OH224081   1.493   1.637   1.531  0.0056  0.4003 -0.2031
  841TIP3    H124082   1.439   1.563   1.560  3.0353 -1.9673 -0.1296
  841TIP3    H224083   1.468   1.649   1.439  0.1441 -1.4387 -0.5215
  842TIP3   OH224084   5.234   5.387   2.801 -0.1248 -0.0065 -0.0641
  842TIP3    H124085   5.310   5.422   2.846  0.5383 -0.2757 -0.9534
  842TIP3    H224086   5.267   5.312   2.752 -1.2142 -0.9310  0.5609
  843TIP3   OH224087   6.542   0.915   1.443  0.3723  0.5393 -0.2677
  843TIP3    H124088   6.606   0.863   1.492 -1.0766  0.3755  1.5630
  843TIP3    H224089   6.569   0.906   1.351  2.3640 -0.3141  0.3530
  844TIP3   OH224090   6.419   1.538   2.213 -0.2905 -0.5002  0.4555
  844TIP3    H124091   6.441   1.576   2.299 -1.5369  1.3913 -0.0056
  844TIP3    H224092   6.372   1.457   2.234  1.1878 -1.1261  1.5044
  845TIP3   OH224093   5.228   5.911   0.042  0.4423 -0.3273  0.2525
  845TIP3    H124094   5.207   5.994   0.085  0.0790 -0.7319  0.8726
  845TIP3    H224095   5.152   5.893  -0.014  0.3866 -0.3961  0.3509
  846TIP3   OH224096   6.637   3.870   0.257  0.8088  0.0609  0.4112
  846TIP3    H124097   6.675   3.874   0.169 -2.3089 -3.5651 -1.3514
  846TIP3    H224098   6.563   3.930   0.253 -0.5354 -1.5760 -0.2227
  847TIP3   OH224099   2.802   5.430   0.528 -0.0953  0.0892  0.5623
  847TIP3    H124100   2.760   5.405   0.611 -2.0692 -3.1087 -1.2087
  847TIP3    H224101   2.776   5.520   0.514 -1.5230  0.0263  2.4072
  848TIP3   OH224102   0.306   0.771   1.016  0.1495 -0.1993 -0.3409
  848TIP3    H124103   0.382   0.821   0.989 -0.1200 -0.2374 -1.1934
  848TIP3    H224104   0.280   0.811   1.099 -0.1307  1.1765 -1.0542
  849TIP3   OH224105   4.408   5.862   9.193  0.4739  0.2671 -0.0644
  849TIP3    H124106   4.382   5.851   9.284 -0.1731  0.7407 -0.1845
  849TIP3    H224107   4.475   5.795   9.179  1.3675  0.8983  1.0581
  850TIP3   OH224108   4.960   0.206   9.032 -0.3901 -0.5818 -0.0463
  850TIP3    H124109   4.873   0.218   9.071  0.0361  0.0108  0.7413
  850TIP3    H224110   4.944   0.212   8.938 -1.1216  0.1636  0.1049
  851TIP3   OH224111   1.620   3.861   0.489 -0.4185 -0.1734  0.4367
  851TIP3    H124112   1.609   3.868   0.394 -0.4776 -0.4770  0.4214
  851TIP3    H224113   1.685   3.928   0.510  1.8235 -1.9763 -0.2398
  852TIP3   OH224114   2.883   6.365   9.135  0.0501 -0.4081  0.3287
  852TIP3    H124115   2.814   6.327   9.189  0.7112 -2.2545 -0.0775
  852TIP3    H224116   2.908   6.445   9.181  0.3346 -1.7139  2.5806
  853TIP3   OH224117   1.873   0.453   8.632  0.2378  0.1471  0.1159
  853TIP3    H124118   1.800   0.406   8.672 -0.2942  1.3072  0.5574
  853TIP3    H224119   1.938   0.462   8.702 -1.0494  2.9348  1.0947
  854TIP3   OH224120   5.838   6.231   3.139  0.0355 -0.2873 -0.4021
  854TIP3    H124121   5.815   6.165   3.204 -0.0147  0.7006  0.6374
  854TIP3    H224122   5.761   6.289   3.137 -0.2109 -0.6361 -1.8090
  855TIP3   OH224123   2.056   2.675   2.815  0.0171 -0.3992 -0.1765
  855TIP3    H124124   2.092   2.755   2.776 -0.1082 -0.1978  0.1207
  855TIP3    H224125   2.077   2.606   2.751 -1.2484  0.1135 -1.1779
  856TIP3   OH224126   0.260   2.366   2.672  0.0064 -0.0117 -0.0165
  856TIP3    H124127   0.191   2.429   2.651  0.1113 -0.3849 -1.6057
  856TIP3    H224128   0.257   2.302   2.601  1.3326 -0.6001  0.4160
  857TIP3   OH224129   4.583   4.505   8.861 -0.6156  0.9398 -0.0038
  857TIP3    H124130   4.579   4.417   8.822 -0.7454  0.6291  0.6925
  857TIP3    H224131   4.659   4.546   8.820  1.4000 -0.6294  1.9089
  858TIP3   OH224132   1.414   4.583   8.095 -0.6984 -0.2045 -0.0015
  858TIP3    H124133   1.424   4.617   8.005 -0.0290 -0.8364 -0.1783
  858TIP3    H224134   1.331   4.536   8.094  0.2204 -1.9036 -0.8727
  859TIP3   OH224135   5.528   5.957   7.770  0.2750 -0.2017  0.4170
  859TIP3    H124136   5.616   5.980   7.801  0.2895  0.1564  0.1181
  859TIP3    H224137   5.539   5.870   7.731  0.8567  0.5167 -1.0796
  860TIP3   OH224138   1.298   0.231   8.717 -0.0237 -0.1575 -0.0070
  860TIP3    H124139   1.222   0.285   8.737 -0.0996 -0.4888  0.6272
  860TIP3    H224140   1.373   0.283   8.746 -0.1592 -0.8452  1.6964
  861TIP3   OH224141   2.089   0.958   0.353  0.0814  0.0474 -0.3741
  861TIP3    H124142   2.181   0.931   0.358  1.1063  2.9487 -1.2109
  861TIP3    H224143   2.052   0.935   0.437  1.5855 -1.1824 -0.0141
  862TIP3   OH224144   1.695   3.959   1.103  0.0798  0.1362  0.4393
  862TIP3    H124145   1.618   3.978   1.048 -0.1745 -1.2593  0.2741
  862TIP3    H224146   1.723   3.871   1.076 -0.2648 -0.7726  2.7730
  863TIP3   OH224147   5.486   3.934   8.332 -0.4759 -0.4832 -0.5315
  863TIP3    H124148   5.398   3.948   8.297 -0.1615 -1.4767 -1.7592
  863TIP3    H224149   5.476   3.859   8.390 -1.0798  1.3870  1.9941
  864TIP3   OH224150   5.420   1.512   1.121 -0.0478 -0.1831  0.4311
  864TIP3    H124151   5.428   1.536   1.029  0.6486  0.5898  0.6857
  864TIP3    H224152   5.380   1.425   1.120  0.9036 -0.6320 -0.6372
  865TIP3   OH224153   6.526   1.918   8.630  0.3292  0.5729 -0.8768
  865TIP3    H124154   6.446   1.874   8.602  0.6929  0.0808 -1.1680
  865TIP3    H224155   6.587   1.846   8.649  0.3349  0.9032  0.4790
  866TIP3   OH224156   4.449   1.869   1.867 -0.4682  0.1912 -0.1569
  866TIP3    H124157   4.517   1.864   1.935 -1.0428  0.7682  0.4843
  866TIP3    H224158   4.493   1.844   1.786  0.0972 -1.1033  0.5237
  867TIP3   OH224159   4.527   3.975   9.278 -0.1440 -0.9862  0.7966
  867TIP3    H124160   4.439   3.980   9.316 -0.2460 -2.3948  0.7928
  867TIP3    H224161   4.543   3.882   9.266  0.9747 -0.7050 -0.1169
  868TIP3   OH224162   0.709   4.814   2.154 -0.1130 -0.2105 -0.6750
  868TIP3    H124163   0.639   4.869   2.191 -0.5458 -0.8324 -0.5658
  868TIP3    H224164   0.789   4.864   2.172 -0.4593  0.1976 -0.2090
  869TIP3   OH224165   4.885   4.886   2.616 -0.2548 -0.2184 -0.5018
  869TIP3    H124166   4.806   4.894   2.669  1.5726  2.3319  2.1467
  869TIP3    H224167   4.876   4.955   2.550  1.0632  2.5152  1.9381
  870TIP3   OH224168   3.893   4.579   1.526 -0.4529 -0.5399 -0.0835
  870TIP3    H124169   3.956   4.563   1.596  0.1510 -1.8557 -0.8728
  870TIP3    H224170   3.817   4.525   1.549 -1.1190  0.6782  0.6252
  871TIP3   OH224171   3.807   5.786   2.744  0.1237  0.0283  0.7515
  871TIP3    H124172   3.886   5.784   2.689 -0.5559  0.2296 -0.2530
  871TIP3    H224173   3.814   5.867   2.794 -0.8402  1.5454 -1.4736
  872TIP3   OH224174   2.615   0.707   1.990 -0.5962 -0.0506  0.7361
  872TIP3    H124175   2.680   0.638   2.004 -0.1154  0.4800  1.1730
  872TIP3    H224176   2.666   0.782   1.958 -1.0892  0.1523  0.4224
  873TIP3   OH224177   3.139   1.024   0.280  0.2200  0.6069  0.1209
  873TIP3    H124178   3.071   1.003   0.216  0.6004  0.6201 -0.2959
  873TIP3    H224179   3.092   1.041   0.361 -0.1763 -0.8728  0.2281
  874TIP3   OH224180   6.295   0.802   1.751  0.4766  0.0917 -0.3472
  874TIP3    H124181   6.262   0.712   1.760 -1.3733  0.6905 -0.8549
  874TIP3    H224182   6.240   0.841   1.684  1.3104  1.6106 -0.1816
  875TIP3   OH224183   3.356   4.894   1.249  0.4001 -0.2264 -0.0281
  875TIP3    H124184   3.271   4.888   1.294  1.1212  3.7997  2.4003
  875TIP3    H224185   3.333   4.906   1.157 -1.5967 -0.4766  0.3870
  876TIP3   OH224186   0.724   5.537   0.718 -0.3771 -0.2431 -0.2080
  876TIP3    H124187   0.810   5.552   0.679 -0.0530 -1.1548  0.1412
  876TIP3    H224188   0.740   5.479   0.792 -0.8618  2.1300  1.8917
  877TIP3   OH224189   1.658   6.032   1.840 -0.2161  0.0308 -0.1101
  877TIP3    H124190   1.578   5.981   1.823  0.3638 -0.6337 -0.9181
  877TIP3    H224191   1.628   6.122   1.846 -1.0640 -0.2384 -0.1496
  878TIP3   OH224192   5.401   5.238   8.344 -0.1099 -0.1907  0.0794
  878TIP3    H124193   5.475   5.223   8.284 -0.6291  1.5580 -1.0736
  878TIP3    H224194   5.324   5.236   8.288 -0.4743  3.3374  0.2409
  879TIP3   OH224195   1.969   3.372   0.880 -0.6154  0.5170 -0.4817
  879TIP3    H124196   1.963   3.278   0.859 -0.1822  0.3173  0.2461
  879TIP3    H224197   1.884   3.407   0.856 -1.3022 -0.3499  0.6080
  880TIP3   OH224198   4.678   6.538   2.599  0.2524 -0.1327  0.1471
  880TIP3    H124199   4.769   6.552   2.624  0.2183  0.3043  0.0335
  880TIP3    H224200   4.674   6.446   2.572  1.0379  0.2699 -1.4650
  881TIP3   OH224201   0.868   2.932   0.107  0.1316  0.1605 -0.0900
  881TIP3    H124202   0.859   2.843   0.140 -1.6270  0.7331  1.0757
  881TIP3    H224203   0.900   2.983   0.181 -0.1210  0.7495 -0.3764
  882TIP3   OH224204   2.663   0.849   2.306  0.4418 -0.2565  0.0739
  882TIP3    H124205   2.666   0.890   2.393 -2.0399  0.7101 -0.2212
  882TIP3    H224206   2.626   0.916   2.249 -1.1836 -1.9688 -0.9949
  883TIP3   OH224207   3.920   3.616   0.009 -0.0722  0.1815  0.5435
  883TIP3    H124208   4.002   3.569   0.025 -1.0484 -1.6945  0.3065
  883TIP3    H224209   3.918   3.630  -0.086 -1.4488 -2.6819  0.0596
  884TIP3   OH224210   1.365   4.334   2.685  0.1803  0.4002 -0.1409
  884TIP3    H124211   1.284   4.315   2.733 -0.0796  2.1839  0.2036
  884TIP3    H224212   1.336   4.388   2.611  0.8935 -0.1740 -0.8546
  885TIP3   OH224213   6.001   3.202   2.068 -0.2085  0.0787  0.1825
  885TIP3    H124214   5.972   3.239   1.985  0.2500 -1.5864 -0.7584
  885TIP3    H224215   5.923   3.202   2.123 -0.8635 -0.1106 -0.7274
  886TIP3   OH224216   2.407   3.477   1.163  0.4454 -0.5061  0.0797
  886TIP3    H124217   2.339   3.544   1.167  0.8622 -0.1138  0.8735
  886TIP3    H224218   2.361   3.395   1.180 -0.2016 -0.5569 -1.6301
  887TIP3   OH224219   6.169   5.512   1.901 -0.3926 -0.2990 -0.5366
  887TIP3    H124220   6.166   5.552   1.814  0.4860  0.0188 -0.4315
  887TIP3    H224221   6.089   5.543   1.943 -0.5895 -0.0665 -1.0660
  888TIP3   OH224222   4.972   3.857   1.058  0.0435  0.2335  0.2603
  888TIP3    H124223   5.026   3.916   1.112 -1.3182  0.5413  1.3438
  888TIP3    H224224   5.035   3.798   1.017  1.2417  0.8828  1.0975
  889TIP3   OH224225   5.258   0.529   9.148  0.2665  0.4514 -0.3693
  889TIP3    H124226   5.314   0.532   9.070  0.8750  0.4940  0.0575
  889TIP3    H224227   5.320   0.521   9.221 -0.2346  1.4309  0.1793
  890TIP3   OH224228   5.684   3.131   3.272 -0.1004 -0.2349 -0.2074
  890TIP3    H124229   5.736   3.193   3.221  0.5390 -0.1130  0.5713
  890TIP3    H224230   5.706   3.046   3.235 -0.0576 -0.1011 -0.4919
  891TIP3   OH224231   3.453   4.211   1.967 -0.4200 -0.2589 -0.0430
  891TIP3    H124232   3.419   4.195   1.879 -1.4650  1.8561 -0.0966
  891TIP3    H224233   3.516   4.282   1.956 -0.0233 -0.4624  0.8306
  892TIP3   OH224234   5.271   5.125   0.401 -0.1114 -0.2426  0.4336
  892TIP3    H124235   5.238   5.207   0.364  0.8656  0.1218  0.3356
  892TIP3    H224236   5.333   5.093   0.336 -1.3596 -1.7119 -0.0950
  893TIP3   OH224237   5.658   4.664   2.733 -0.4539 -0.0277 -0.1146
  893TIP3    H124238   5.630   4.584   2.688  1.5062 -0.4334 -0.7185
  893TIP3    H224239   5.713   4.633   2.804 -0.0962  0.7774 -0.0289
  894TIP3   OH224240   4.619   1.009   8.609  0.5020 -0.2423 -0.1787
  894TIP3    H124241   4.653   0.920   8.602 -1.3269 -0.8240 -3.7438
  894TIP3    H224242   4.525   1.000   8.597  0.0397  2.0697  1.1146
  895TIP3   OH224243   3.477   5.340   8.946  0.0221  0.5371  0.5094
  895TIP3    H124244   3.546   5.274   8.953 -0.8293 -0.3321  0.9967
  895TIP3    H224245   3.523   5.424   8.949  1.1881 -0.0132 -0.6857
  896TIP3   OH224246   6.121   3.800   8.657  0.5702  0.1739 -0.1917
  896TIP3    H124247   6.051   3.781   8.594  0.5765 -0.6425  0.0364
  896TIP3    H224248   6.098   3.884   8.694 -0.4882 -0.2515  0.1373
  897TIP3   OH224249   2.015   1.756   8.386  0.2828  0.0247 -0.5720
  897TIP3    H124250   1.985   1.666   8.399 -1.5611  0.7662  0.8495
  897TIP3    H224251   2.071   1.752   8.309 -0.5710 -2.1632 -1.1584
  898TIP3   OH224252   2.086   3.525   7.808  0.4281 -0.0912 -0.1009
  898TIP3    H124253   2.028   3.457   7.772 -0.3756 -0.6876  2.1263
  898TIP3    H224254   2.156   3.533   7.743 -0.7597 -1.2598 -1.6199
  899TIP3   OH224255   5.352   2.253   1.795 -0.8621 -0.2412  0.0866
  899TIP3    H124256   5.299   2.305   1.735 -1.2011  0.4248  0.9534
  899TIP3    H224257   5.438   2.295   1.794 -0.5331 -0.8967 -0.7691
  900TIP3   OH224258   5.661   4.988   1.858  0.0002  0.5283  0.3110
  900TIP3    H124259   5.636   5.070   1.815 -1.9916 -0.2690 -0.1790
  900TIP3    H224260   5.611   4.989   1.940  0.0879 -0.1040  0.3757
  901TIP3   OH224261   6.176   0.655   2.115  0.1322 -0.1804  0.4220
  901TIP3    H124262   6.216   0.569   2.132  0.5456  0.3451  2.2962
  901TIP3    H224263   6.082   0.639   2.118  0.1520 -0.2531  2.9601
  902TIP3   OH224264   4.472   6.573   0.333  0.6097 -0.0581  0.0493
  902TIP3    H124265   4.525   6.610   0.263 -1.1341  0.8334 -0.8759
  902TIP3    H224266   4.459   6.482   0.308  0.0219  0.2485 -0.7927
  903TIP3   OH224267   0.572   4.290   1.838 -0.1489  0.0820 -0.3379
  903TIP3    H124268   0.593   4.296   1.932  1.4798 -1.1258 -0.5881
  903TIP3    H224269   0.570   4.381   1.809 -1.2520  0.5156  0.9590
  904TIP3   OH224270   2.485   0.562   1.164 -0.0441 -0.2296 -0.2058
  904TIP3    H124271   2.539   0.626   1.118 -3.7332  2.7412 -0.9839
  904TIP3    H224272   2.429   0.524   1.096  0.8670 -3.1413  0.5445
  905TIP3   OH224273   0.859   4.049   9.239 -0.0595  0.5062  1.0381
  905TIP3    H124274   0.818   4.061   9.153  0.3448 -3.8182  0.0020
  905TIP3    H224275   0.785   4.045   9.300 -0.6638 -0.0088  0.2892
  906TIP3   OH224276   1.680   5.920   8.986 -0.1782 -0.3298 -0.0141
  906TIP3    H124277   1.688   5.881   9.073 -1.2088  1.2702  0.8460
  906TIP3    H224278   1.629   6.000   9.000  2.1028  1.5411 -1.5971
  907TIP3   OH224279   5.937   0.409   8.991 -0.2886  0.1078 -0.1414
  907TIP3    H124280   5.855   0.364   8.973  0.7334 -1.6057 -0.8240
  907TIP3    H224281   5.942   0.478   8.926 -1.8118  1.1804  0.8084
  908TIP3   OH224282   2.669   4.018   7.848  0.3555 -0.4992 -0.0413
  908TIP3    H124283   2.599   3.959   7.873 -1.5808  0.9326 -1.7332
  908TIP3    H224284   2.703   3.982   7.766  0.1921 -0.0794 -0.2967
  909TIP3   OH224285   3.082   1.499   2.283 -0.7923  0.4104 -0.2801
  909TIP3    H124286   3.170   1.534   2.272 -1.3757  1.2548 -3.0354
  909TIP3    H224287   3.095   1.405   2.296  0.5016  0.3234 -1.9387
  910TIP3   OH224288   2.237   2.394   8.581 -0.2244 -0.4189  0.0906
  910TIP3    H124289   2.225   2.482   8.546  2.0545 -0.1794 -0.2493
  910TIP3    H224290   2.309   2.402   8.644  0.0378 -2.0291  0.0518
  911TIP3   OH224291   1.102   1.751   2.858 -0.4601 -0.2228 -0.2570
  911TIP3    H124292   1.035   1.819   2.853  1.5562  2.2473  2.6352
  911TIP3    H224293   1.167   1.776   2.793 -1.5220 -1.7848 -2.0167
  912TIP3   OH224294   1.220   0.303   0.558 -0.3800  0.5146 -0.1556
  912TIP3    H124295   1.141   0.308   0.505  0.2754  1.6821 -1.0833
  912TIP3    H224296   1.189   0.291   0.648 -1.5620  0.1720 -0.6003
  913TIP3   OH224297   3.049   4.696   8.904 -0.1620  0.5709 -0.1563
  913TIP3    H124298   3.079   4.605   8.915 -1.6133  0.0373 -0.3149
  913TIP3    H224299   3.129   4.746   8.889  0.5711 -0.9312 -1.6979
  914TIP3   OH224300   0.992   4.330   2.119 -0.3810  0.0400  0.1165
  914TIP3    H124301   0.925   4.285   2.068 -0.1490  1.1266 -1.2009
  914TIP3    H224302   0.948   4.405   2.158 -0.0395  0.5453 -0.4457
  915TIP3   OH224303   3.235   5.366   8.636 -0.0744 -0.4310 -0.1678
  915TIP3    H124304   3.233   5.415   8.718 -0.0085  0.2175 -0.5469
  915TIP3    H224305   3.225   5.274   8.663  1.2802 -0.3611  0.6797
  916TIP3   OH224306   5.010   3.254   0.844  0.0425 -0.4551 -0.2700
  916TIP3    H124307   4.929   3.227   0.887 -0.0455 -2.4479 -1.5442
  916TIP3    H224308   5.075   3.190   0.873  1.0053  0.6850  0.1532
  917TIP3   OH224309   2.124   0.168   0.486 -0.3096  0.6509  0.4521
  917TIP3    H124310   2.033   0.140   0.485  0.0253 -0.4823 -0.0868
  917TIP3    H224311   2.124   0.249   0.538 -1.4552  0.1169  1.3215
  918TIP3   OH224312   5.983   6.192   8.709  1.1085  0.2926 -0.1141
  918TIP3    H124313   5.937   6.165   8.630 -0.1141 -0.9794  0.9790
  918TIP3    H224314   6.072   6.159   8.698  0.6643 -0.8159 -0.5180
  919TIP3   OH224315   1.302   0.937   0.556 -1.1260  0.1405  0.2171
  919TIP3    H124316   1.381   0.894   0.590 -0.7625  1.9520  1.8439
  919TIP3    H224317   1.236   0.867   0.555 -0.4010 -0.6545  2.1365
  920TIP3   OH224318   5.824   4.772   3.161  0.3799  0.1914  0.2336
  920TIP3    H124319   5.812   4.862   3.130 -0.4582  0.2586  0.7239
  920TIP3    H224320   5.919   4.759   3.161  0.8942  2.4836  3.9392
  921TIP3   OH224321   1.295   0.669   7.676  0.7747  0.0405  0.0097
  921TIP3    H124322   1.203   0.665   7.649  0.7544  0.3028  0.0346
  921TIP3    H224323   1.306   0.596   7.737  0.8038 -0.5194 -0.6565
  922TIP3   OH224324   1.525   0.854   8.824 -0.5839 -0.1812 -0.0665
  922TIP3    H124325   1.485   0.767   8.823 -0.5490 -0.1967 -1.1365
  922TIP3    H224326   1.583   0.852   8.900  1.9594 -2.3157 -1.8095
  923TIP3   OH224327   1.877   4.976   9.221 -0.2746  0.1912  0.2211
  923TIP3    H124328   1.893   4.924   9.142 -0.0206 -1.0653  1.0691
  923TIP3    H224329   1.916   5.061   9.202 -1.4517  0.3956 -1.5320
  924TIP3   OH224330   3.214   0.074   0.226 -0.4344 -0.7968  0.7061
  924TIP3    H124331   3.170   0.080   0.142  0.9032  2.2906  0.1033
  924TIP3    H224332   3.258   0.158   0.237  1.8098 -2.1270  3.1909
  925TIP3   OH224333   3.188   3.784   0.520 -0.4147 -0.4473 -0.1170
  925TIP3    H124334   3.170   3.739   0.602 -0.1109  1.4665  1.0709
  925TIP3    H224335   3.279   3.813   0.528  0.4591 -2.3239 -2.2261
  926TIP3   OH224336   1.467   3.473   2.169 -0.5241  0.6195  0.0168
  926TIP3    H124337   1.457   3.519   2.252  0.0524 -0.3782  0.6611
  926TIP3    H224338   1.491   3.541   2.106  0.8326  1.1486  1.0492
  927TIP3   OH224339   6.110   2.247   8.627 -0.2884  0.0412  0.2600
  927TIP3    H124340   6.144   2.180   8.685 -1.3196 -1.4946 -0.8364
  927TIP3    H224341   6.061   2.306   8.685 -0.8897 -1.1710  1.0219
  928TIP3   OH224342   5.742   5.745   8.528 -0.1022 -0.1841  0.6902
  928TIP3    H124343   5.704   5.659   8.507  1.3178 -0.4879 -0.8562
  928TIP3    H224344   5.792   5.730   8.608  1.1693 -1.1791 -0.2375
  929TIP3   OH224345   1.079   2.530   2.465  0.4223 -0.1499  0.0973
  929TIP3    H124346   1.116   2.511   2.551  0.2529 -3.6981 -0.4385
  929TIP3    H224347   0.985   2.511   2.474  0.4540 -0.9028 -0.9056
  930TIP3   OH224348   0.068   0.319   0.130 -0.0116 -0.3111 -0.5177
  930TIP3    H124349   0.034   0.294   0.216 -0.2583  1.9557  0.1272
  930TIP3    H224350  -0.010   0.344   0.080  0.3749  3.3762  0.4325
  931TIP3   OH224351   6.035   5.470   1.542 -0.4316 -0.0875  0.4552
  931TIP3    H124352   5.942   5.493   1.546 -0.1387  1.1661  0.4186
  931TIP3    H224353   6.081   5.552   1.558  0.6814 -0.8803  1.5430
  932TIP3   OH224354   6.292   3.920   1.662  0.0854 -0.2502  0.5565
  932TIP3    H124355   6.265   3.887   1.748  1.0627  0.2069  1.0566
  932TIP3    H224356   6.237   3.998   1.650  2.6174  2.0843  2.6566
  933TIP3   OH224357   3.105   6.488   1.748 -0.5551  0.2673  0.0664
  933TIP3    H124358   3.112   6.410   1.804 -0.1253  0.1254 -0.1821
  933TIP3    H224359   3.177   6.479   1.686 -0.2163  1.1073  0.3320
  934TIP3   OH224360   1.981   2.250   1.503 -0.2723 -0.9114  0.3382
  934TIP3    H124361   1.921   2.234   1.576 -0.7465 -0.3183  0.0822
  934TIP3    H224362   1.947   2.328   1.460 -1.9284 -3.0131 -2.5053
  935TIP3   OH224363   2.161   5.430   0.991  0.4827  0.2464  0.3434
  935TIP3    H124364   2.112   5.371   0.934 -0.7982  2.5238 -1.0654
  935TIP3    H224365   2.253   5.413   0.969  0.1574 -1.2000 -0.0113
  936TIP3   OH224366   5.751   2.918   0.119 -0.2813  0.0298  0.5863
  936TIP3    H124367   5.740   3.013   0.105 -0.6008 -0.2826 -1.6663
  936TIP3    H224368   5.841   2.900   0.094 -0.7978 -0.5379 -0.9518
  937TIP3   OH224369   0.894   3.499   0.504  0.0445  0.7608 -0.3102
  937TIP3    H124370   0.805   3.504   0.540  0.3143 -1.8522  0.9692
  937TIP3    H224371   0.949   3.536   0.574  0.1782 -0.2221  0.1202
  938TIP3   OH224372   1.360   5.660   1.320  0.2301  0.2207 -0.2050
  938TIP3    H124373   1.354   5.662   1.225 -0.6074  2.2333 -0.1591
  938TIP3    H224374   1.275   5.693   1.351 -1.2022 -4.1169  1.4131
  939TIP3   OH224375   2.197   1.829   7.469  0.3347  0.3827  0.3510
  939TIP3    H124376   2.279   1.877   7.467  0.4898  0.1718  1.1434
  939TIP3    H224377   2.206   1.763   7.400  0.1896  1.3539 -0.6229
  940TIP3   OH224378   6.179   4.101   1.502  0.0491  0.4212 -0.1043
  940TIP3    H124379   6.094   4.121   1.462  0.4104  0.8596 -0.6637
  940TIP3    H224380   6.217   4.187   1.520 -0.0914  0.2454  1.1835
  941TIP3   OH224381   0.635   3.976   2.984 -0.7716 -0.0982  0.3214
  941TIP3    H124382   0.730   3.959   2.985 -0.7221 -0.1473 -1.6673
  941TIP3    H224383   0.602   3.929   3.061  0.6268 -1.3525  0.2032
  942TIP3   OH224384   2.809   0.630   2.230  0.1455  0.0986  0.2883
  942TIP3    H124385   2.744   0.700   2.235 -0.3990 -0.3244 -0.6973
  942TIP3    H224386   2.839   0.620   2.321  0.5966  1.9171  0.3872
  943TIP3   OH224387   1.542   4.918   8.342 -0.9035  0.3281 -0.0228
  943TIP3    H124388   1.467   4.930   8.283 -0.5609  1.3324 -0.2734
  943TIP3    H224389   1.581   5.005   8.349 -0.3569  0.0176  0.9186
  944TIP3   OH224390   0.912   3.779   1.037  0.1957 -0.4077 -0.5928
  944TIP3    H124391   0.944   3.692   1.061  1.9197  0.6440  1.2432
  944TIP3    H224392   0.820   3.777   1.061  0.4313 -1.4272  0.3411
  945TIP3   OH224393   1.407   6.425   9.237  0.0801 -0.0757 -0.0111
  945TIP3    H124394   1.379   6.467   9.319 -0.0821  1.1812 -0.6921
  945TIP3    H224395   1.463   6.490   9.195 -1.8245  0.3278 -2.0774
  946TIP3   OH224396   0.870   0.826   3.028  0.1491  0.5362 -0.1815
  946TIP3    H124397   0.902   0.835   3.118 -0.4665  0.0316  0.0999
  946TIP3    H224398   0.776   0.812   3.038  0.0018  0.9354 -0.9342
  947TIP3   OH224399   2.585   2.958   0.109 -0.0102  0.1324  0.1437
  947TIP3    H124400   2.509   2.941   0.166 -0.3160 -1.4899 -0.7045
  947TIP3    H224401   2.661   2.937   0.163 -0.2970 -1.3196  0.0187
  948TIP3   OH224402   1.849   4.063   1.296  0.4026  0.4457 -0.4539
  948TIP3    H124403   1.796   4.044   1.219 -0.4615  0.2336  0.1817
  948TIP3    H224404   1.939   4.066   1.263  0.1108 -0.2534 -1.3567
  949TIP3   OH224405   0.658   0.091   1.267 -0.3026 -0.0655  0.2146
  949TIP3    H124406   0.703   0.114   1.186  1.8642 -1.2686  0.9805
  949TIP3    H224407   0.662  -0.005   1.271  1.8396  0.0160  2.8174
  950TIP3   OH224408   2.495   3.835   8.299 -0.6251 -0.4168 -0.5117
  950TIP3    H124409   2.470   3.916   8.343  0.5543  0.2014 -0.9333
  950TIP3    H224410   2.553   3.791   8.361  1.2635  0.5865 -1.4705
  951TIP3   OH224411   0.522   0.018   1.520  0.1064  0.3911  0.1467
  951TIP3    H124412   0.455   0.084   1.537 -0.7314 -0.3435 -0.2239
  951TIP3    H224413   0.504  -0.012   1.431  1.6991  1.0513 -0.4350
  952TIP3   OH224414   4.246   4.028   0.017  0.6156  0.0835 -0.0994
  952TIP3    H124415   4.208   4.103   0.063  0.8053  0.2232 -0.1691
  952TIP3    H224416   4.170   3.980  -0.017  0.3094 -1.4259  2.4548
  953TIP3   OH224417   0.456   2.219   9.221  0.3521  0.0232  0.9038
  953TIP3    H124418   0.435   2.183   9.135 -0.1770 -0.4324  1.2221
  953TIP3    H224419   0.540   2.179   9.243  1.3265  1.3869 -0.0990
  954TIP3   OH224420   2.237   6.476   8.119  0.8487  0.1071 -0.2867
  954TIP3    H124421   2.308   6.491   8.058  0.6965  1.6925 -0.1143
  954TIP3    H224422   2.183   6.408   8.078  0.7172  1.1677 -1.9385
  955TIP3   OH224423   4.581   0.024   8.894 -0.0633 -0.0677 -0.5311
  955TIP3    H124424   4.570  -0.024   8.812 -0.3770  0.2143 -0.6564
  955TIP3    H224425   4.641  -0.029   8.946  0.5425  0.0090 -1.1482
  956TIP3   OH224426   1.641   0.060   3.654  0.1111 -0.1359  0.0010
  956TIP3    H124427   1.641   0.045   3.559  0.1644 -1.5793  0.2130
  956TIP3    H224428   1.568   0.008   3.687 -0.0417  0.5255  0.7420
  957TIP3   OH224429   0.099   1.723   2.267 -0.5244 -0.1728  0.4238
  957TIP3    H124430   0.037   1.652   2.283 -1.3908  0.6900  1.0947
  957TIP3    H224431   0.091   1.741   2.174 -0.3652 -0.8902  0.2680
  958TIP3   OH224432   4.280   5.447   1.288  0.1767  0.2676  0.1792
  958TIP3    H124433   4.313   5.364   1.323  0.4519 -0.0012 -0.7106
  958TIP3    H224434   4.186   5.443   1.301  0.0672 -0.6339 -0.7948
  959TIP3   OH224435   3.645   2.365   7.294  0.0380 -0.0488  0.9912
  959TIP3    H124436   3.684   2.444   7.254 -1.2428  0.5839  0.9348
  959TIP3    H224437   3.714   2.299   7.287  0.2825  0.3426 -1.2831
  960TIP3   OH224438   1.103   2.098   7.479 -0.6886  0.1957 -0.0426
  960TIP3    H124439   1.128   2.059   7.562 -2.1548  0.3192  0.4984
  960TIP3    H224440   1.076   2.024   7.425 -0.7276  0.2062 -0.0373
  961TIP3   OH224441   5.367   0.169   1.637 -0.3478  0.0745  0.0086
  961TIP3    H124442   5.435   0.185   1.703 -0.3878 -0.4155  0.1763
  961TIP3    H224443   5.287   0.155   1.689 -0.8650  1.9016 -0.2203
  962TIP3   OH224444   5.337   0.157   0.619  0.5692  0.2310  0.1696
  962TIP3    H124445   5.265   0.170   0.681  1.6326 -1.5268  1.9192
  962TIP3    H224446   5.412   0.198   0.662  1.2546 -0.6787 -0.1403
  963TIP3   OH224447   0.459   3.119   8.808  0.1964 -0.5477  0.6799
  963TIP3    H124448   0.453   3.024   8.815  1.1706 -0.8634 -1.7537
  963TIP3    H224449   0.373   3.151   8.836 -0.8859 -2.3033 -0.4786
  964TIP3   OH224450   3.321   6.033   1.291 -0.2411  0.2198 -0.1231
  964TIP3    H124451   3.390   5.968   1.274  0.1210  0.9394 -1.6071
  964TIP3    H224452   3.323   6.045   1.386  0.5193 -1.0132  0.0519
  965TIP3   OH224453   0.349   6.285   0.358 -1.1285  0.1904  0.3275
  965TIP3    H124454   0.442   6.285   0.335 -1.1495  1.3520  0.1753
  965TIP3    H224455   0.347   6.275   0.453 -0.6499  3.4799  0.8048
  966TIP3   OH224456   4.877   1.546   1.008  0.4016  0.4745 -0.0071
  966TIP3    H124457   4.812   1.533   1.076  0.9032  3.4041  1.1705
  966TIP3    H224458   4.828   1.541   0.926  0.0391 -4.7039  0.2283
  967TIP3   OH224459   6.204   4.897   2.055 -0.3821  0.2347 -0.0467
  967TIP3    H124460   6.112   4.914   2.073 -0.1433  1.7214 -0.0767
  967TIP3    H224461   6.213   4.802   2.063 -1.9985  0.0131 -0.5050
  968TIP3   OH224462   4.066   5.344   8.226 -0.4233  0.6737  0.1627
  968TIP3    H124463   3.976   5.320   8.248 -0.2159  0.9769  1.4334
  968TIP3    H224464   4.112   5.261   8.216 -1.1102  0.4675 -1.8852
  969TIP3   OH224465   0.681   0.294   1.758  0.2666 -0.8865 -0.4553
  969TIP3    H124466   0.628   0.222   1.794 -0.9745  0.3498  0.2600
  969TIP3    H224467   0.741   0.317   1.829  1.4596 -1.9261 -1.0798
  970TIP3   OH224468   5.122   0.003   1.517  0.5752  0.1637 -0.0047
  970TIP3    H124469   5.174  -0.057   1.569 -0.2447 -0.5401  0.0349
  970TIP3    H224470   5.104  -0.045   1.436 -0.6823  0.0423  0.3127
  971TIP3   OH224471   4.396   0.260   9.091 -0.3814  0.2923 -0.3268
  971TIP3    H124472   4.343   0.185   9.119  1.4316 -1.1830 -0.5953
  971TIP3    H224473   4.371   0.331   9.150 -0.9719 -1.0095  1.0647
  972TIP3   OH224474   3.927   3.112   8.718 -0.0511 -0.3403 -0.8051
  972TIP3    H124475   3.851   3.168   8.704  0.5221  1.5109  2.4478
  972TIP3    H224476   3.964   3.100   8.630 -3.4742 -0.5736 -2.3795
  973TIP3   OH224477   4.119   6.410   0.837  0.1808  0.2471  0.5781
  973TIP3    H124478   4.122   6.419   0.742 -1.6655  0.6567  0.5039
  973TIP3    H224479   4.049   6.346   0.853  2.7910 -2.5833  1.6115
  974TIP3   OH224480   1.042   5.085   8.490  0.3596 -0.2986  0.1789
  974TIP3    H124481   1.016   5.095   8.399 -0.1859 -1.4183  0.1880
  974TIP3    H224482   1.133   5.054   8.486  0.0700 -1.1637 -0.0323
  975TIP3   OH224483   0.669   0.305   2.504  0.4270  0.2832 -0.2031
  975TIP3    H124484   0.640   0.344   2.586 -0.9272  2.5248 -1.6373
  975TIP3    H224485   0.590   0.265   2.467  0.2751  1.8927 -1.7399
  976TIP3   OH224486   2.541   3.991   8.818  0.0900  0.1457 -0.3125
  976TIP3    H124487   2.578   4.037   8.743 -0.7106  1.4654  0.0773
  976TIP3    H224488   2.591   4.021   8.893  0.8189 -1.0947 -0.2645
  977TIP3   OH224489   5.839   1.308   1.060  0.1966 -0.3644 -0.1697
  977TIP3    H124490   5.884   1.225   1.048  2.2295  0.4717  1.2240
  977TIP3    H224491   5.892   1.372   1.013 -1.3321  0.2080 -1.2149
  978TIP3   OH224492   1.672   0.809   9.042 -0.0991  0.0324  0.0857
  978TIP3    H124493   1.711   0.896   9.053 -1.6659  0.7175  0.4637
  978TIP3    H224494   1.646   0.784   9.131 -0.0502 -0.6295 -0.0841
  979TIP3   OH224495   4.169   6.014   7.999  0.5260  0.3504  0.1265
  979TIP3    H124496   4.165   6.046   7.909 -2.2796  2.1937  0.7766
  979TIP3    H224497   4.263   5.999   8.016  1.2926  1.7661 -2.4595
  980TIP3   OH224498   5.705   2.808   1.022 -0.1746 -0.5613  0.0691
  980TIP3    H124499   5.767   2.766   1.081 -0.0814 -2.0664 -1.0410
  980TIP3    H224500   5.710   2.757   0.942  1.5044  2.8043 -2.2099
  981TIP3   OH224501   3.426   3.326   7.310  0.4675  0.6137  0.0823
  981TIP3    H124502   3.446   3.275   7.388  1.2128 -0.5885 -0.8607
  981TIP3    H224503   3.424   3.417   7.340 -0.3778  0.0885  1.6962
  982TIP3   OH224504   4.889   4.820   8.548 -0.6998 -0.7747  0.6017
  982TIP3    H124505   4.879   4.881   8.474  0.0512  0.1544  1.2378
  982TIP3    H224506   4.927   4.741   8.509 -1.6594 -0.8559 -0.2362
  983TIP3   OH224507   5.448   4.989   8.833  0.1055 -0.1283 -0.0695
  983TIP3    H124508   5.420   5.048   8.903  0.9515  1.1113 -0.7409
  983TIP3    H224509   5.368   4.944   8.806 -1.1030  2.4944 -1.1979
  984TIP3   OH224510   0.565   2.754   0.877  0.0391 -0.2032  0.3500
  984TIP3    H124511   0.620   2.718   0.807  0.5360 -0.4291  0.8591
  984TIP3    H224512   0.606   2.724   0.958 -0.5338  0.0667  0.7429
  985TIP3   OH224513   2.223   3.790   7.796  0.3333  0.0718  0.1227
  985TIP3    H124514   2.146   3.733   7.804 -0.3409  1.0418  0.7398
  985TIP3    H224515   2.263   3.764   7.713  0.3094 -1.6024  0.5926
  986TIP3   OH224516   3.075   2.740   1.166  0.3894  0.0827 -0.2608
  986TIP3    H124517   3.020   2.681   1.217 -0.7533  0.7235 -0.7100
  986TIP3    H224518   3.111   2.685   1.096 -0.2028 -0.2000 -0.3466
  987TIP3   OH224519   0.468   2.864   0.025  0.1700 -0.1664 -0.2192
  987TIP3    H124520   0.547   2.842  -0.024  0.2239 -1.1152  0.2665
  987TIP3    H224521   0.420   2.781   0.032 -1.5024  0.6116 -1.5821
  988TIP3   OH224522   2.940   3.713   7.947  0.7877 -0.0435  0.3899
  988TIP3    H124523   2.984   3.779   8.000  2.1018  1.5379 -2.4392
  988TIP3    H224524   2.923   3.756   7.863  0.0838 -2.7679 -0.9918
  989TIP3   OH224525   0.901   4.043   2.957 -0.6788 -0.0904  0.5483
  989TIP3    H124526   0.950   4.034   2.875 -0.0122  0.0610  0.9221
  989TIP3    H224527   0.968   4.056   3.023 -1.2089 -0.3669  1.1454
  990TIP3   OH224528   6.638   2.108   7.215 -0.7779 -0.3342  0.1706
  990TIP3    H124529   6.715   2.156   7.248 -0.6666  0.3827 -1.0752
  990TIP3    H224530   6.564   2.150   7.258 -0.5911  0.2157 -0.0245
  991TIP3   OH224531   6.453   1.455   7.740 -0.7151  0.3470 -0.3513
  991TIP3    H124532   6.399   1.523   7.699  0.0812  0.3554 -1.4258
  991TIP3    H224533   6.489   1.405   7.667  1.3152  0.7732  0.2875
  992TIP3   OH224534   2.612   1.257   1.928  0.0574 -0.4040  0.5664
  992TIP3    H124535   2.666   1.199   1.981 -0.1644 -0.3949  0.7988
  992TIP3    H224536   2.570   1.316   1.990 -0.4564 -0.6033  0.4113
  993TIP3   OH224537   2.597   3.837   1.039 -0.7985 -0.0742 -0.6924
  993TIP3    H124538   2.527   3.892   1.074 -0.3517  0.9982 -1.4589
  993TIP3    H224539   2.623   3.879   0.957  0.9185 -0.3034 -0.2992
  994TIP3   OH224540   2.940   2.871   1.980 -0.0557 -0.3831 -0.1278
  994TIP3    H124541   2.928   2.850   2.073 -0.1441 -0.5664 -0.1807
  994TIP3    H224542   3.009   2.937   1.979 -2.8600  2.8035  0.4254
  995TIP3   OH224543   6.362   0.978   1.052  0.0143 -0.0835 -0.0168
  995TIP3    H124544   6.412   0.917   1.106 -0.9076  0.3065  1.3540
  995TIP3    H224545   6.358   0.937   0.966 -1.3403 -2.4677  1.0612
  996TIP3   OH224546   1.616   2.497   1.034  0.0792 -0.0843  0.1915
  996TIP3    H124547   1.547   2.454   1.084  0.9881  0.2838  1.8794
  996TIP3    H224548   1.650   2.430   0.975 -1.3353 -0.4191 -0.2574
  997TIP3   OH224549   5.293   2.866   2.159  0.0334  0.7989 -0.2523
  997TIP3    H124550   5.376   2.878   2.111  0.0051  1.4981 -0.1362
  997TIP3    H224551   5.243   2.944   2.139 -0.3368  0.6844  0.2193
  998TIP3   OH224552   6.378   4.414   1.866  0.3887  0.1532 -0.2556
  998TIP3    H124553   6.291   4.387   1.896  0.4159 -1.2241 -1.2981
  998TIP3    H224554   6.436   4.400   1.941 -0.3843  1.8647  0.7180
  999TIP3   OH224555   2.155   4.060   2.013 -0.4454  0.2889 -0.2106
  999TIP3    H124556   2.215   4.132   2.030  0.7154 -0.4684 -1.0241
  999TIP3    H224557   2.076   4.082   2.064 -0.2425  2.2729 -0.6975
 1000TIP3   OH224558   4.362   3.263   2.354  0.0386 -0.3396  0.0955
 1000TIP3    H124559   4.315   3.205   2.294  0.7891 -0.1097 -0.7373
 1000TIP3    H224560   4.407   3.204   2.414 -1.5764 -0.5588  1.1370
 1001TIP3   OH224561   1.206   3.398   2.123  0.4607  0.0592  0.6409
 1001TIP3    H124562   1.297   3.423   2.140  0.4370 -0.0824  0.9652
 1001TIP3    H224563   1.207   3.364   2.033  0.7614 -0.1203  0.7115
 1002TIP3   OH224564   2.850   2.690   1.410 -0.4530  0.1424  0.5192
 1002TIP3    H124565   2.837   2.595   1.415  0.2691  0.0117  0.1325
 1002TIP3    H224566   2.806   2.716   1.329 -0.3850  0.0871  0.4643
 1003TIP3   OH224567   4.201   2.741   6.948 -0.3559  0.0421  0.2289
 1003TIP3    H124568   4.141   2.727   6.875  0.0538 -1.2729  0.1124
 1003TIP3    H224569   4.187   2.666   7.006  0.4457  0.2421  0.7138
 1004TIP3   OH224570   5.547   5.378   2.579  0.2930 -0.1188 -0.9014
 1004TIP3    H124571   5.633   5.420   2.586  0.5891 -0.8320 -0.1763
 1004TIP3    H224572   5.513   5.377   2.669 -0.0790 -0.6666 -1.0431
 1005TIP3   OH224573   4.664   0.793   9.083 -0.0771  0.2221  0.0139
 1005TIP3    H124574   4.570   0.814   9.086 -0.2503 -0.4356 -0.6403
 1005TIP3    H224575   4.676   0.729   9.153 -0.6697 -1.7417 -1.5822
 1006TIP3   OH224576   5.791   6.362   7.559  0.5207  0.1804 -0.0361
 1006TIP3    H124577   5.727   6.432   7.569 -1.1454 -1.2046 -0.3400
 1006TIP3    H224578   5.775   6.328   7.470  0.4684 -1.2976  0.5086
 1007TIP3   OH224579   2.903   4.572   9.222  0.1987  0.2286  0.2521
 1007TIP3    H124580   2.837   4.555   9.290 -0.4335  2.2000  0.1907
 1007TIP3    H224581   2.897   4.666   9.206 -0.4237 -0.3019 -3.3177
 1008TIP3   OH224582   5.207   4.465   9.018  0.2338  0.1742 -0.6226
 1008TIP3    H124583   5.165   4.501   8.940 -2.2840  0.6801  0.8577
 1008TIP3    H224584   5.135   4.450   9.080  1.6861 -3.3916  0.4581
 1009TIP3   OH224585   3.203   1.269   0.146  0.4984 -0.7186  0.1600
 1009TIP3    H124586   3.215   1.177   0.170  0.2718 -1.1075 -1.1102
 1009TIP3    H224587   3.232   1.273   0.055 -0.7789  0.1835 -0.2312
 1010TIP3   OH224588   5.376   4.785   1.790  1.0027  0.0309 -0.0801
 1010TIP3    H124589   5.407   4.852   1.852 -0.1964  0.0893  0.4720
 1010TIP3    H224590   5.373   4.830   1.705  0.9267  0.4583  0.1494
 1011TIP3   OH224591   4.559   3.996   2.996 -0.4824 -0.0582 -0.4866
 1011TIP3    H124592   4.599   3.970   3.079 -0.5273  1.2595 -0.0161
 1011TIP3    H224593   4.525   3.915   2.958  0.2634 -0.7997  0.3909
 1012TIP3   OH224594   2.505   3.936   0.552 -0.0143  0.7128  0.2499
 1012TIP3    H124595   2.413   3.916   0.570  0.3008  0.9949  2.3890
 1012TIP3    H224596   2.501   4.011   0.493 -1.1522  0.6395  0.1943
 1013TIP3   OH224597   1.383   3.688   8.355 -0.1765 -0.3976  0.3393
 1013TIP3    H124598   1.295   3.681   8.317 -0.0512 -1.2932  0.1917
 1013TIP3    H224599   1.413   3.775   8.331 -0.6413 -0.4537 -0.4729
 1014TIP3   OH224600   2.843   5.593   0.923  0.0409  0.1676  0.0880
 1014TIP3    H124601   2.799   5.666   0.966 -0.8291 -0.5563  0.4438
 1014TIP3    H224602   2.809   5.593   0.834 -1.9203 -1.3192  0.7621
 1015TIP3   OH224603   0.183   6.317   2.116  0.2545 -0.3609 -0.4411
 1015TIP3    H124604   0.239   6.343   2.189 -0.9108  1.4557 -0.1274
 1015TIP3    H224605   0.244   6.295   2.045  1.3654 -0.0825  0.4011
 1016TIP3   OH224606   0.553   0.805   0.431 -0.2054 -0.5041  0.6396
 1016TIP3    H124607   0.459   0.815   0.449 -1.0311  1.0600 -3.4234
 1016TIP3    H224608   0.587   0.894   0.437  0.7050 -0.8477  0.6472
 1017TIP3   OH224609   3.705   3.307   0.006 -0.0074  0.3059 -0.5127
 1017TIP3    H124610   3.700   3.263  -0.079 -2.5495  0.4683 -0.5447
 1017TIP3    H224611   3.744   3.392  -0.014  0.4800 -0.0927 -1.3165
 1018TIP3   OH224612   2.492   5.090   1.323 -0.0727 -0.4370 -0.5139
 1018TIP3    H124613   2.562   5.064   1.263  0.4047 -1.0189  0.2750
 1018TIP3    H224614   2.514   5.180   1.348  0.0862 -0.4232 -0.7015
 1019TIP3   OH224615   4.471   2.678   8.041  0.8134  0.4393 -0.6870
 1019TIP3    H124616   4.419   2.614   7.993  0.2049 -0.0863  0.6415
 1019TIP3    H224617   4.407   2.741   8.075  1.3203  1.2875 -1.2415
 1020TIP3   OH224618   3.262   1.259   1.432  0.2203  0.1778 -0.4249
 1020TIP3    H124619   3.320   1.219   1.497 -1.1857  0.2109  0.9084
 1020TIP3    H224620   3.309   1.336   1.402  0.5416  0.6801  1.2508
 1021TIP3   OH224621   4.941   6.338   7.828  0.0777 -0.0527  0.1190
 1021TIP3    H124622   4.930   6.432   7.840  1.8482  0.3537 -1.0944
 1021TIP3    H224623   4.979   6.307   7.911  1.5000  0.7080 -0.2151
 1022TIP3   OH224624   0.632   0.819   1.768 -0.8128  0.2301 -0.0025
 1022TIP3    H124625   0.651   0.817   1.675  0.2437 -1.5400  0.2065
 1022TIP3    H224626   0.665   0.903   1.798 -2.2266  1.3369 -1.3973
 1023TIP3   OH224627   2.700   4.667   2.051 -0.4590 -0.2396  0.5006
 1023TIP3    H124628   2.773   4.608   2.034 -1.4244 -1.4315  0.3986
 1023TIP3    H224629   2.679   4.654   2.144 -0.0375  0.7162  0.7526
 1024TIP3   OH224630   5.179   6.101   2.257  0.5441  0.2879  0.0238
 1024TIP3    H124631   5.159   6.080   2.165  3.0150  0.8059 -0.7188
 1024TIP3    H224632   5.094   6.105   2.300 -0.6099 -3.2387 -1.4913
 1025TIP3   OH224633   3.624   2.690   2.301  0.1594  0.2097 -0.5641
 1025TIP3    H124634   3.571   2.661   2.375  1.6855  1.8015  1.2742
 1025TIP3    H224635   3.708   2.646   2.313  1.7657  3.3406  1.0394
 1026TIP3   OH224636   4.601   4.115   8.855 -0.1348  0.2108  0.1260
 1026TIP3    H124637   4.606   4.023   8.827  0.0796  0.0889  0.5624
 1026TIP3    H224638   4.535   4.115   8.924  0.0721  0.3328  0.3252
 1027TIP3   OH224639   4.186   5.547   1.987  0.0940 -0.5451 -0.1695
 1027TIP3    H124640   4.200   5.624   1.932 -2.0719 -0.3638 -0.5251
 1027TIP3    H224641   4.253   5.555   2.055 -0.5734  2.1450  0.2972
 1028TIP3   OH224642   0.224   3.855   0.493  0.1906  0.3178 -1.1118
 1028TIP3    H124643   0.183   3.822   0.413 -0.9423 -1.5401  0.1656
 1028TIP3    H224644   0.270   3.780   0.529  0.6177  1.1103  0.0314
 1029TIP3   OH224645   5.422   6.463   1.767 -0.4728  0.1153 -0.3962
 1029TIP3    H124646   5.504   6.471   1.720  0.6251 -0.1172  1.3628
 1029TIP3    H224647   5.404   6.551   1.801 -0.6504  0.0466 -0.3079
 1030TIP3   OH224648   1.644   0.650   2.931  0.3458 -0.3836  0.1919
 1030TIP3    H124649   1.572   0.617   2.985 -0.6230  2.3158  0.6916
 1030TIP3    H224650   1.622   0.621   2.842 -0.6371 -0.7240  0.5249
 1031TIP3   OH224651   1.879   6.441   3.599 -0.3815  0.3322  0.5427
 1031TIP3    H124652   1.883   6.524   3.648 -1.5461  0.1763  0.9484
 1031TIP3    H224653   1.863   6.375   3.667  1.7842 -0.4223  0.3771
 1032TIP3   OH224654   3.845   0.094   8.409 -0.5784 -0.0744 -0.4327
 1032TIP3    H124655   3.841   0.003   8.379  0.8113 -0.0422 -0.8143
 1032TIP3    H224656   3.814   0.091   8.500  2.1715 -1.5014  0.6086
 1033TIP3   OH224657   5.244   2.542   2.665  0.0573  0.2977 -0.9835
 1033TIP3    H124658   5.325   2.552   2.615  0.7128  2.1173  0.3284
 1033TIP3    H224659   5.262   2.584   2.749 -1.3100 -1.8588  0.4854
 1034TIP3   OH224660   0.912   1.930   0.507 -0.5237 -0.8484  0.5920
 1034TIP3    H124661   0.857   1.860   0.472 -0.2695 -1.7443  1.9058
 1034TIP3    H224662   0.903   1.922   0.602 -1.2864  1.5626  0.7976
 1035TIP3   OH224663   4.157   0.017   8.232  0.3758  0.2598 -0.3594
 1035TIP3    H124664   4.175  -0.064   8.184 -0.0078  1.0894 -1.9960
 1035TIP3    H224665   4.071   0.044   8.202 -0.5780  0.0428  2.0194
 1036TIP3   OH224666   5.845   2.688   1.799  0.2635  0.7752  0.3318
 1036TIP3    H124667   5.837   2.606   1.847  1.4593 -0.1186 -0.9211
 1036TIP3    H224668   5.913   2.737   1.844  1.2556  0.0162 -0.3053
 1037TIP3   OH224669   6.079   3.196   0.431 -0.0004 -0.1750  0.1895
 1037TIP3    H124670   6.061   3.231   0.518 -0.3305 -0.9484  0.4428
 1037TIP3    H224671   5.992   3.178   0.394  0.1009  0.8827 -0.6232
 1038TIP3   OH224672   5.928   5.904   2.048  0.3114 -0.4612  0.6270
 1038TIP3    H124673   5.858   5.900   2.112 -0.3706  0.4588 -0.0289
 1038TIP3    H224674   5.996   5.957   2.089 -0.6463  1.2049  0.1485
 1039TIP3   OH224675   3.089   1.560   8.065 -0.7385 -0.1522  0.2550
 1039TIP3    H124676   3.058   1.499   7.998 -3.2920 -0.6132  1.7250
 1039TIP3    H224677   3.099   1.506   8.143  0.9819  0.6070  0.5910
 1040TIP3   OH224678   0.364   3.925   8.602 -0.4255  0.3177  0.2187
 1040TIP3    H124679   0.319   3.886   8.677  0.7434 -0.6384  0.4460
 1040TIP3    H224680   0.455   3.935   8.630 -0.2393  1.1398 -0.6301
 1041TIP3   OH224681   2.980   1.043   9.279 -0.0031 -0.0075 -0.4468
 1041TIP3    H124682   3.058   1.082   9.241 -1.1364  0.5566 -2.3053
 1041TIP3    H224683   2.912   1.109   9.267 -1.0168 -0.9137  0.1428
 1042TIP3   OH224684   5.118   0.450   1.730 -0.1755  0.6098 -0.9614
 1042TIP3    H124685   5.135   0.454   1.825  2.9332  1.3723 -1.4624
 1042TIP3    H224686   5.033   0.493   1.720 -0.8629  0.0001  1.5175
 1043TIP3   OH224687   4.350   2.656   2.108  0.2168 -0.3415 -0.5979
 1043TIP3    H124688   4.436   2.692   2.129  0.1244 -0.7649  0.5590
 1043TIP3    H224689   4.368   2.564   2.086  0.2133 -0.0985 -1.6650
 1044TIP3   OH224690   2.311   3.443   8.998 -0.6116 -0.2731  0.4655
 1044TIP3    H124691   2.315   3.461   9.092  0.9124  1.3828  0.1359
 1044TIP3    H224692   2.400   3.460   8.967 -0.8328 -1.7792 -1.1375
 1045TIP3   OH224693   3.881   4.150   3.036 -0.0804  0.1120  0.6296
 1045TIP3    H124694   3.896   4.058   3.014  0.2844  0.4034 -0.4264
 1045TIP3    H224695   3.964   4.179   3.074 -0.1728  0.0123  0.9015
 1046TIP3   OH224696   5.153   2.955   2.548 -0.1272 -0.0770 -0.4942
 1046TIP3    H124697   5.214   3.015   2.505 -2.3158  3.1043  0.4218
 1046TIP3    H224698   5.068   2.973   2.507 -1.1517 -1.4303  0.9104
 1047TIP3   OH224699   2.254   2.639   7.960  0.1919 -0.2247 -0.2118
 1047TIP3    H124700   2.238   2.700   7.888  1.1448 -1.4486 -1.5133
 1047TIP3    H224701   2.208   2.559   7.935  0.3336 -0.5885  0.6572
 1048TIP3   OH224702   5.819   6.029   7.793 -0.8846  0.0431 -0.0380
 1048TIP3    H124703   5.895   6.040   7.852 -0.0511 -5.5890  0.5220
 1048TIP3    H224704   5.858   6.024   7.706 -0.7787 -1.2042  0.0693
 1049TIP3   OH224705   2.382   1.589   8.525 -0.2057  0.4458  0.4433
 1049TIP3    H124706   2.326   1.656   8.564 -1.4049 -0.8505  1.0391
 1049TIP3    H224707   2.447   1.638   8.474 -0.8483  2.0484  1.1107
 1050TIP3   OH224708   2.391   1.472   8.030 -0.1377  0.2202  0.2342
 1050TIP3    H124709   2.441   1.498   8.107 -2.3187  1.4175  1.3281
 1050TIP3    H224710   2.450   1.488   7.957  1.8719 -0.6349  1.5819
 1051TIP3   OH224711   0.706   4.263   8.564  0.0237 -0.5785  0.8111
 1051TIP3    H124712   0.801   4.260   8.579  0.8105 -0.1069 -2.9424
 1051TIP3    H224713   0.675   4.333   8.622  2.0086 -0.5402  1.9151
 1052TIP3   OH224714   1.809   4.214   2.040  0.0236  0.0877  0.7507
 1052TIP3    H124715   1.804   4.296   2.089 -1.0021  0.2177  0.4539
 1052TIP3    H224716   1.756   4.230   1.961  2.7019  0.3672 -1.1328
 1053TIP3   OH224717   5.966   1.579   7.391  0.2138  0.3442  0.3611
 1053TIP3    H124718   5.884   1.620   7.365 -0.5124 -0.3845  1.4083
 1053TIP3    H224719   6.030   1.651   7.389 -0.7199  1.2270  0.7706
 1054TIP3   OH224720   3.255   0.947   8.630  0.1986  0.0002 -0.7736
 1054TIP3    H124721   3.218   0.891   8.699  2.4457 -0.3234  0.2670
 1054TIP3    H224722   3.257   1.035   8.669  0.1308  0.0998 -0.9916
 1055TIP3   OH224723   0.089   6.252   8.483  0.4825 -0.4129 -0.3461
 1055TIP3    H124724   0.062   6.321   8.544 -2.0437 -0.4313 -1.3147
 1055TIP3    H224725   0.045   6.173   8.515 -0.1211 -0.6186 -1.6269
 1056TIP3   OH224726   4.484   4.635   8.651 -0.4605  0.0503 -0.1550
 1056TIP3    H124727   4.393   4.628   8.625 -0.6095 -1.5691  0.6642
 1056TIP3    H224728   4.494   4.571   8.722  0.9793  1.1490  0.7062
 1057TIP3   OH224729   6.203   0.851   8.459 -0.0543 -0.2835  0.1914
 1057TIP3    H124730   6.223   0.773   8.407 -1.2335  0.0501 -0.8033
 1057TIP3    H224731   6.112   0.838   8.487 -1.8728  2.5709 -3.5649
 1058TIP3   OH224732   3.453   2.497   8.157 -0.0598 -0.5650  0.4619
 1058TIP3    H124733   3.422   2.586   8.173  1.1470 -0.1758  0.6880
 1058TIP3    H224734   3.453   2.488   8.062  0.0639 -0.2351  0.4309
 1059TIP3   OH224735   2.023   0.449   7.902  0.6520  0.0010  0.7507
 1059TIP3    H124736   1.972   0.454   7.983  0.3125 -1.7636  0.6788
 1059TIP3    H224737   1.959   0.431   7.834  1.2975 -2.2900  0.6579
 1060TIP3   OH224738   5.252   6.424   0.762 -0.1010 -0.2860  0.0899
 1060TIP3    H124739   5.310   6.430   0.686 -0.2365  0.7294  0.0556
 1060TIP3    H224740   5.295   6.478   0.829 -1.9040  2.0990 -0.5442
 1061TIP3   OH224741   2.172   3.281   7.879 -0.3225  0.2021 -0.0298
 1061TIP3    H124742   2.109   3.263   7.809 -0.2590 -1.0785  0.2265
 1061TIP3    H224743   2.194   3.374   7.868 -2.7585  0.8928  0.2848
 1062TIP3   OH224744   2.783   3.598   8.691  0.2903 -0.1829 -0.2143
 1062TIP3    H124745   2.817   3.674   8.739 -0.2325  0.4507 -0.8104
 1062TIP3    H224746   2.858   3.540   8.682 -0.0224 -1.3555  3.1784
 1063TIP3   OH224747   5.912   4.875   1.797  0.3445 -1.3047  0.0993
 1063TIP3    H124748   5.963   4.894   1.875  1.7906 -0.5512 -0.9876
 1063TIP3    H224749   5.831   4.925   1.809  1.6901  1.0968 -0.0851
 1064TIP3   OH224750   5.724   3.556   1.166  0.0954  0.5424  0.0116
 1064TIP3    H124751   5.711   3.572   1.260  1.9173  0.3434  0.3207
 1064TIP3    H224752   5.695   3.637   1.124 -2.0236  0.1531  0.5963
 1065TIP3   OH224753   0.576   2.746   2.679  0.0697 -0.1174 -0.1713
 1065TIP3    H124754   0.568   2.710   2.767  1.7768 -0.7837 -0.2364
 1065TIP3    H224755   0.560   2.839   2.689 -2.1956 -0.5073  0.3943
 1066TIP3   OH224756   4.888   2.834   7.278  0.2756 -0.1169 -1.0697
 1066TIP3    H124757   4.922   2.913   7.320 -2.1057  1.2970 -1.6192
 1066TIP3    H224758   4.909   2.763   7.338  1.0432  1.1654  0.2262
 1067TIP3   OH224759   2.024   0.931   8.726 -0.4198  0.4099 -0.3826
 1067TIP3    H124760   2.083   0.978   8.667  0.0281  2.1536  1.3621
 1067TIP3    H224761   2.032   0.977   8.810 -0.3165 -2.5066  1.3552
 1068TIP3   OH224762   6.182   6.541   8.109 -0.0155  0.0447  0.2706
 1068TIP3    H124763   6.214   6.591   8.034 -0.1913 -0.9795 -0.5159
 1068TIP3    H224764   6.193   6.449   8.083 -0.5717 -0.3287  1.2870
 1069TIP3   OH224765   3.442   4.861   8.977 -0.3389 -0.2701 -0.2106
 1069TIP3    H124766   3.462   4.951   9.002 -3.9584  0.5308  0.4694
 1069TIP3    H224767   3.493   4.806   9.037  0.0482  1.3952  1.0475
 1070TIP3   OH224768   4.672   6.163   1.638  0.2128 -0.0153  0.1394
 1070TIP3    H124769   4.676   6.104   1.714 -0.7820 -0.7248 -0.3486
 1070TIP3    H224770   4.579   6.181   1.626  0.3572  0.0753 -0.9237
 1071TIP3   OH224771   0.514   6.148   1.470 -0.7088 -0.0617 -0.5568
 1071TIP3    H124772   0.457   6.102   1.408 -1.1501 -1.2197  0.6547
 1071TIP3    H224773   0.602   6.115   1.450 -0.7783 -0.0521 -0.8876
 1072TIP3   OH224774   3.365   4.199   2.220  0.4124 -0.5575 -0.4351
 1072TIP3    H124775   3.400   4.208   2.131  0.9914  0.2956 -0.1327
 1072TIP3    H224776   3.374   4.105   2.239 -0.7394 -0.9632 -1.6660
 1073TIP3   OH224777   6.642   0.306   7.683  0.3231  1.3029  0.3935
 1073TIP3    H124778   6.644   0.217   7.718  1.5150  0.2160 -2.1867
 1073TIP3    H224779   6.554   0.338   7.704 -0.8690 -1.2450 -0.3583
 1074TIP3   OH224780   5.666   6.208   1.996  0.1586 -0.0891 -0.1385
 1074TIP3    H124781   5.652   6.144   1.926  1.5476 -0.5234 -0.0409
 1074TIP3    H224782   5.636   6.164   2.075 -0.6203  0.0872 -0.3271
 1075TIP3   OH224783   3.896   3.410   8.139 -0.3541 -0.3090  0.1216
 1075TIP3    H124784   3.801   3.421   8.136 -0.3315  0.1550 -4.0838
 1075TIP3    H224785   3.911   3.321   8.108  0.6174  0.1228 -0.6876
 1076TIP3   OH224786   5.049   5.565   0.461  0.7094 -0.1470  0.2681
 1076TIP3    H124787   4.985   5.500   0.489  0.7796 -0.7191 -0.8591
 1076TIP3    H224788   5.003   5.618   0.395  0.7549  0.7513  0.9368
 1077TIP3   OH224789   2.572   6.349   8.313 -0.3639 -0.0338  0.1598
 1077TIP3    H124790   2.518   6.380   8.385 -0.3942  0.7160 -0.1721
 1077TIP3    H224791   2.516   6.285   8.267 -0.6678  0.1382  0.2876
 1078TIP3   OH224792   6.267   4.902   2.553 -0.1160  0.5174  0.3022
 1078TIP3    H124793   6.215   4.926   2.629 -0.8450  3.7008 -1.0230
 1078TIP3    H224794   6.215   4.836   2.508 -1.1768  0.8823  0.9694
 1079TIP3   OH224795   6.503   3.288   0.678 -0.1478 -0.2162 -0.0150
 1079TIP3    H124796   6.409   3.293   0.663 -0.1459  0.3101  0.1095
 1079TIP3    H224797   6.540   3.266   0.593 -0.4587 -1.5200  0.1697
 1080TIP3   OH224798   5.145   4.165   0.033 -0.4748  0.1555  0.2389
 1080TIP3    H124799   5.130   4.089   0.089  0.5078  0.8744  1.5275
 1080TIP3    H224800   5.236   4.159   0.007 -0.3093  1.0284  0.5723
 1081TIP3   OH224801   4.784   5.972   1.835  0.0411 -0.0371  0.2260
 1081TIP3    H124802   4.798   5.895   1.780  2.7426  0.7682 -0.3826
 1081TIP3    H224803   4.862   6.026   1.820 -1.7818  2.8789  0.5339
 1082TIP3   OH224804   6.477   0.214   1.437  0.5664  0.0848  0.7129
 1082TIP3    H124805   6.454   0.297   1.395  0.4128 -1.2020 -1.9204
 1082TIP3    H224806   6.393   0.173   1.458  0.6063 -0.1830  0.3582
 1083TIP3   OH224807   2.204   5.260   1.787  0.1905 -0.7221 -0.4495
 1083TIP3    H124808   2.186   5.181   1.737  0.7119 -1.1891  0.0881
 1083TIP3    H224809   2.131   5.265   1.849 -0.0591 -0.5495 -0.7498
 1084TIP3   OH224810   0.649   2.133   2.198 -0.2533  0.0115  0.2674
 1084TIP3    H124811   0.638   2.040   2.176 -1.5696  0.5303 -1.5023
 1084TIP3    H224812   0.731   2.158   2.155 -1.1032  0.1944 -1.3416
 1085TIP3   OH224813   6.249   4.515   9.240 -1.0588  0.1364 -0.4235
 1085TIP3    H124814   6.181   4.575   9.208  0.4755  1.4104 -1.4457
 1085TIP3    H224815   6.272   4.548   9.326 -0.8913  0.4446 -0.5847
 1086TIP3   OH224816   2.528   3.820   2.185  0.8481  0.1125  0.5016
 1086TIP3    H124817   2.598   3.758   2.164 -0.4996 -0.5319 -2.6947
 1086TIP3    H224818   2.470   3.772   2.244  1.3621 -0.5649  0.4636
 1087TIP3   OH224819   5.252   2.859   8.113 -0.2355  0.2967  1.2407
 1087TIP3    H124820   5.218   2.877   8.025  0.4860 -1.7478  0.4809
 1087TIP3    H224821   5.317   2.790   8.099  1.7017  1.6259  3.0855
 1088TIP3   OH224822   4.483   1.014   1.230  0.4816 -0.0803 -0.2509
 1088TIP3    H124823   4.499   1.093   1.179 -0.2402  0.3552  0.1913
 1088TIP3    H224824   4.389   0.997   1.220  0.3671 -0.1087  0.7552
 1089TIP3   OH224825   5.816   3.101   8.437  0.0612  0.6210 -0.2709
 1089TIP3    H124826   5.841   3.093   8.529 -0.4573  0.1408 -0.1732
 1089TIP3    H224827   5.743   3.163   8.437  0.3739  0.9979 -0.4167
 1090TIP3   OH224828   3.750   4.498   9.150 -0.4356 -0.2632  0.1434
 1090TIP3    H124829   3.724   4.590   9.143  0.0714 -0.1955 -0.9318
 1090TIP3    H224830   3.746   4.465   9.060 -0.3915 -1.2384  0.4914
 1091TIP3   OH224831   5.617   0.524   1.176 -0.3168 -0.2637 -0.2771
 1091TIP3    H124832   5.561   0.447   1.185 -1.0309 -0.0112 -2.0959
 1091TIP3    H224833   5.564   0.587   1.127  0.3003  1.3697  1.0551
 1092TIP3   OH224834   3.579   5.700   2.620 -0.1686 -0.2526  0.4061
 1092TIP3    H124835   3.660   5.749   2.632 -0.2791  0.0973 -0.2160
 1092TIP3    H224836   3.510   5.765   2.635 -0.3185  0.1586 -1.7481
 1093TIP3   OH224837   4.934   0.584   0.801 -0.0632 -0.0372 -0.0534
 1093TIP3    H124838   4.940   0.679   0.801  3.8155 -0.1274  1.0379
 1093TIP3    H224839   5.006   0.555   0.745  0.3014 -2.3061  1.4492
 1094TIP3   OH224840   3.617   0.082   9.247  0.5488  0.1689 -0.5792
 1094TIP3    H124841   3.658   0.102   9.331  1.5809 -0.2036 -0.9873
 1094TIP3    H224842   3.650   0.150   9.188  2.8362 -1.7201 -1.5949
 1095TIP3   OH224843   4.759   5.974   9.113 -0.2405  0.1629 -0.1811
 1095TIP3    H124844   4.678   5.988   9.064 -2.1702  0.0224  2.6776
 1095TIP3    H224845   4.781   5.882   9.099 -2.0862 -0.5092  0.9637
 1096TIP3   OH224846   5.739   6.174   1.130 -0.4489 -0.0637 -0.1661
 1096TIP3    H124847   5.769   6.218   1.209 -2.3840  0.8715  0.1095
 1096TIP3    H224848   5.742   6.241   1.061 -0.3501 -0.4107 -0.5066
 1097TIP3   OH224849   5.154   4.423   1.971  0.4422 -0.4434  0.0611
 1097TIP3    H124850   5.204   4.346   1.999  1.2628 -0.5348 -1.5481
 1097TIP3    H224851   5.181   4.492   2.032  0.9857 -0.9951  0.4640
 1098TIP3   OH224852   2.483   2.116   7.939 -0.2190 -0.2063 -0.0407
 1098TIP3    H124853   2.526   2.132   7.855 -0.2754  0.0539 -0.0177
 1098TIP3    H224854   2.416   2.050   7.919  1.5464 -2.2404  0.3038
 1099TIP3   OH224855   0.533   5.954   0.271  0.4672  0.4657  0.6206
 1099TIP3    H124856   0.625   5.935   0.288  0.5344  1.4494  1.4739
 1099TIP3    H224857   0.512   5.902   0.194  1.2156 -1.2079  1.4928
 1100TIP3   OH224858   2.117   4.358   1.963 -0.2056 -0.1959  0.2274
 1100TIP3    H124859   2.085   4.448   1.975 -0.5982 -0.2557 -0.3534
 1100TIP3    H224860   2.043   4.311   1.925  0.6819 -0.2438 -1.5253
 1101TIP3   OH224861   0.349   5.899   7.612 -0.1959  0.1921  0.6823
 1101TIP3    H124862   0.426   5.927   7.660 -0.4698  0.8223  0.7637
 1101TIP3    H224863   0.382   5.834   7.550  0.4649  0.7216  0.4640
 1102TIP3   OH224864   1.979   4.222   8.642 -0.2322  0.1869 -0.4183
 1102TIP3    H124865   1.948   4.235   8.731 -2.0169 -0.1777 -0.9565
 1102TIP3    H224866   2.010   4.308   8.614 -0.5549  0.5175  0.2272
 1103TIP3   OH224867   3.916   1.687   8.691 -0.4626 -0.4802  0.3648
 1103TIP3    H124868   3.985   1.717   8.631 -1.4516  0.3173 -0.3990
 1103TIP3    H224869   3.865   1.624   8.640  0.0000 -1.4866  1.1054
 1104TIP3   OH224870   0.068   0.050   2.017 -0.5385  0.6564  0.3581
 1104TIP3    H124871   0.017  -0.026   2.043 -0.4773  0.4670 -0.0597
 1104TIP3    H224872   0.004   0.111   1.980 -0.1751 -0.9426 -3.3922
 1105TIP3   OH224873   3.632   4.830   1.229  0.2316 -0.1306  0.0895
 1105TIP3    H124874   3.651   4.867   1.143 -2.5562 -2.5667 -1.7856
 1105TIP3    H224875   3.537   4.842   1.239  0.0534 -2.2890  1.5724
 1106TIP3   OH224876   2.839   3.784   1.715  0.2439 -0.1421 -0.0163
 1106TIP3    H124877   2.870   3.791   1.805  0.2390  1.3576 -0.1166
 1106TIP3    H224878   2.753   3.825   1.715  1.6789  3.2091 -1.3770
 1107TIP3   OH224879   0.845   1.821   1.890  0.5804 -0.0408 -0.0531
 1107TIP3    H124880   0.899   1.743   1.903  2.7286  1.3266 -0.1476
 1107TIP3    H224881   0.781   1.796   1.823  1.8573 -1.4251 -0.8183
 1108TIP3   OH224882   2.141   6.118   2.436 -0.2805  0.0707  0.0475
 1108TIP3    H124883   2.085   6.129   2.513 -1.8000 -0.0088 -0.9968
 1108TIP3    H224884   2.224   6.087   2.471 -1.4209 -1.5125  1.5363
 1109TIP3   OH224885   1.842   0.371   2.668 -0.7430 -0.7671  0.1111
 1109TIP3    H124886   1.786   0.323   2.729  0.7409 -2.3836  0.2756
 1109TIP3    H224887   1.804   0.459   2.665 -1.9445 -1.1615  1.9407
 1110TIP3   OH224888   6.411   0.101   2.198  0.5241  0.3328  0.4578
 1110TIP3    H124889   6.450   0.187   2.183  0.7652  0.0473 -0.6349
 1110TIP3    H224890   6.327   0.104   2.153  0.0819  0.3111  1.2465
 1111TIP3   OH224891   3.932   1.618   1.342 -0.3019  0.3872  0.1745
 1111TIP3    H124892   3.983   1.623   1.423 -0.1520 -0.0250  0.1039
 1111TIP3    H224893   3.869   1.549   1.357 -1.7696  1.7914  0.7798
 1112TIP3   OH224894   1.316   1.446   7.300 -0.4493  0.2617  0.0791
 1112TIP3    H124895   1.337   1.502   7.224 -0.3522 -0.3303 -0.3385
 1112TIP3    H224896   1.229   1.475   7.328 -0.5009  0.4626 -0.2814
 1113TIP3   OH224897   5.105   0.285   1.489  0.0728  0.3079 -0.2659
 1113TIP3    H124898   5.161   0.307   1.564 -2.7787 -1.7569  2.7100
 1113TIP3    H224899   5.112   0.190   1.480 -2.0921  0.1313 -0.5116
 1114TIP3   OH224900   5.658   6.400   1.038  0.4497 -0.3722  0.1503
 1114TIP3    H124901   5.631   6.460   0.968  0.3151 -0.9157 -0.2710
 1114TIP3    H224902   5.748   6.427   1.059  0.2252  0.2791  0.2994
 1115TIP3   OH224903   1.401   0.194   3.404 -0.1945 -0.6610 -0.1076
 1115TIP3    H124904   1.493   0.170   3.395  0.0028  0.0026  0.0630
 1115TIP3    H224905   1.380   0.240   3.323 -0.5792 -1.4142 -0.4490
 1116TIP3   OH224906   6.351   5.992   8.321  0.6697  0.7063  0.4928
 1116TIP3    H124907   6.326   5.918   8.376 -1.8676 -0.5051 -2.0572
 1116TIP3    H224908   6.294   6.064   8.351  0.1795  0.4095  0.2883
 1117TIP3   OH224909   6.473   3.724   1.220  0.1108 -0.0748 -0.3430
 1117TIP3    H124910   6.407   3.757   1.281 -1.1914 -1.6652 -0.8075
 1117TIP3    H224911   6.455   3.771   1.138  0.3086  0.3271 -0.1583
 1118TIP3   OH224912   2.566   1.746   8.411  0.0875  0.5488 -0.3076
 1118TIP3    H124913   2.549   1.836   8.383 -1.2159  0.7625  1.0099
 1118TIP3    H224914   2.608   1.756   8.497 -1.3789 -0.0587  0.5235
 1119TIP3   OH224915   0.989   5.540   8.519  0.1302  0.3622 -0.1677
 1119TIP3    H124916   0.927   5.612   8.522 -0.5517 -0.2413  1.8087
 1119TIP3    H224917   0.975   5.500   8.433 -3.5343 -0.7880  0.7678
 1120TIP3   OH224918   3.613   1.935   9.148 -0.4079  0.2582 -0.5906
 1120TIP3    H124919   3.685   1.874   9.137 -0.1428  0.3071  0.7027
 1120TIP3    H224920   3.655   2.017   9.175 -0.9175  0.3103  0.0916
 1121TIP3   OH224921   2.085   5.849   1.580  0.2779 -0.1054  0.4624
 1121TIP3    H124922   2.031   5.891   1.512 -1.2716  0.0979  1.7734
 1121TIP3    H224923   2.171   5.889   1.569 -0.5984  1.8476  0.2685
 1122TIP3   OH224924   5.045   2.594   8.381 -0.4373 -0.3477 -0.0318
 1122TIP3    H124925   5.099   2.673   8.390  1.0785 -1.3859  0.4586
 1122TIP3    H224926   5.062   2.545   8.461 -0.8333 -1.4672 -0.6171
 1123TIP3   OH224927   6.415   3.013   2.332 -0.2280  0.3628  0.0625
 1123TIP3    H124928   6.419   3.103   2.363 -2.6079  0.3265  0.6790
 1123TIP3    H224929   6.340   3.011   2.273 -0.2239 -1.1963  0.0597
 1124TIP3   OH224930   0.420   4.491   2.019  0.2046 -0.1063  0.6347
 1124TIP3    H124931   0.469   4.571   2.000  1.3012 -0.6707  1.0067
 1124TIP3    H224932   0.424   4.483   2.115  1.3382 -1.3411  0.5121
 1125TIP3   OH224933   2.430   2.372   9.114  0.0712 -0.0438 -0.1169
 1125TIP3    H124934   2.345   2.343   9.082 -0.9161  1.5600  0.8823
 1125TIP3    H224935   2.445   2.456   9.072  2.2651 -1.2618 -1.9854
 1126TIP3   OH224936   3.025   1.110   1.566  0.1992  0.4286 -0.4324
 1126TIP3    H124937   2.943   1.141   1.605 -0.2912 -0.2491 -0.8875
 1126TIP3    H224938   3.087   1.181   1.579 -0.3040  0.7214  0.4314
 1127TIP3   OH224939   2.372   3.328   7.666  0.5156 -0.1173  0.1717
 1127TIP3    H124940   2.346   3.412   7.630  1.0966  0.5885  1.3404
 1127TIP3    H224941   2.374   3.269   7.590 -0.4704  0.7597 -0.5682
 1128TIP3   OH224942   3.712   5.404   8.221 -0.1034  0.0601 -0.8023
 1128TIP3    H124943   3.735   5.385   8.130 -0.1415 -0.0924 -0.7807
 1128TIP3    H224944   3.755   5.335   8.271 -0.9775 -0.4995 -0.7983
 1129TIP3   OH224945   3.812   1.163   0.187  0.2065 -0.0733 -0.4604
 1129TIP3    H124946   3.849   1.075   0.176  1.0624  0.1188  0.6811
 1129TIP3    H224947   3.883   1.222   0.163 -0.3848  0.3407 -1.2819
 1130TIP3   OH224948   2.561   1.705   2.793 -0.0115  0.8688 -0.7467
 1130TIP3    H124949   2.651   1.733   2.804  0.0327  0.6410 -0.5102
 1130TIP3    H224950   2.510   1.767   2.846  0.2804 -0.7590  1.6290
 1131TIP3   OH224951   5.050   6.608   8.889 -0.3914  0.1241 -0.6850
 1131TIP3    H124952   4.985   6.660   8.937  1.4390  0.1257  1.9985
 1131TIP3    H224953   5.069   6.660   8.811 -2.2577  0.9760 -0.6353
 1132TIP3   OH224954   2.669   4.983   7.410  0.2773  0.0377 -0.2705
 1132TIP3    H124955   2.630   4.900   7.437  2.2422 -0.9811 -0.4257
 1132TIP3    H224956   2.657   5.042   7.485 -0.9364 -0.4326 -0.0795
 1133TIP3   OH224957   5.529   2.870   8.315 -0.4135  0.3608  0.0789
 1133TIP3    H124958   5.504   2.893   8.404  0.9455  2.5329 -0.0293
 1133TIP3    H224959   5.566   2.782   8.322  0.1914  0.7155  1.7770
 1134TIP3   OH224960   0.855   2.093   0.242 -1.0208  0.1402 -0.1342
 1134TIP3    H124961   0.825   2.048   0.163  0.6411 -1.1890 -0.0639
 1134TIP3    H224962   0.784   2.081   0.305 -0.9297 -1.8828 -0.3337
 1135TIP3   OH224963   5.815   3.540   1.990  0.1454 -0.2392 -0.2090
 1135TIP3    H124964   5.750   3.485   2.033  1.0114  1.1661  3.1558
 1135TIP3    H224965   5.886   3.479   1.968 -0.8261 -1.1919 -0.8424
 1136TIP3   OH224966   0.098   2.853   1.274 -0.4307 -0.1357 -0.0717
 1136TIP3    H124967   0.191   2.834   1.265 -0.1352  1.0264  0.2996
 1136TIP3    H224968   0.062   2.842   1.186  0.0178 -0.7668 -0.1806
 1137TIP3   OH224969   4.071   4.377   8.068  0.3458 -0.6928 -0.0404
 1137TIP3    H124970   4.165   4.361   8.076  0.1656 -1.2357  1.3266
 1137TIP3    H224971   4.034   4.291   8.047 -0.1792 -1.3530  3.0693
 1138TIP3   OH224972   5.739   4.586   2.408  0.3814  0.0814 -0.6394
 1138TIP3    H124973   5.666   4.539   2.449  0.4439  0.3006 -0.2702
 1138TIP3    H224974   5.773   4.525   2.342 -0.3781  0.1271 -1.0831
 1139TIP3   OH224975   3.246   6.052   3.060 -0.3126 -0.6414  0.8422
 1139TIP3    H124976   3.163   6.095   3.078  0.5116  0.6101  1.8825
 1139TIP3    H224977   3.264   6.073   2.968 -1.3362 -1.2908  0.4831
 1140TIP3   OH224978   6.250   3.852   1.377 -0.0135 -0.5144 -0.6509
 1140TIP3    H124979   6.161   3.824   1.400  0.5698 -0.7392  1.5819
 1140TIP3    H224980   6.264   3.931   1.430  0.6234  0.3609 -2.0800
 1141TIP3   OH224981   6.495   1.953   1.703 -0.1033  0.2574 -0.1374
 1141TIP3    H124982   6.518   1.897   1.629 -0.5805 -2.6872  1.7727
 1141TIP3    H224983   6.402   1.936   1.718 -0.3695  1.9234  0.2808
 1142TIP3   OH224984   3.245   0.142   8.334 -0.0060  0.5291  0.2567
 1142TIP3    H124985   3.170   0.182   8.290 -0.4042 -0.4627  0.0052
 1142TIP3    H224986   3.218   0.052   8.350  1.3794 -0.0295 -0.4333
 1143TIP3   OH224987   4.329   4.331   2.301  0.3277  0.6760  0.1025
 1143TIP3    H124988   4.359   4.422   2.304  0.8334  0.4955  0.4353
 1143TIP3    H224989   4.408   4.280   2.284  0.1328  0.2452  0.4856
 1144TIP3   OH224990   2.126   6.416   1.201  0.2630 -0.1332  0.3895
 1144TIP3    H124991   2.143   6.501   1.162 -0.3910  0.1467  0.6885
 1144TIP3    H224992   2.202   6.400   1.258  1.1505 -0.4831 -0.8554
 1145TIP3   OH224993   0.383   1.134   3.269 -0.5839  0.0009 -0.1106
 1145TIP3    H124994   0.356   1.221   3.299  1.1014  0.8689 -0.9730
 1145TIP3    H224995   0.300   1.088   3.251 -1.5053  1.5771 -0.0810
 1146TIP3   OH224996   4.153   1.933   0.565  0.1203 -0.7042 -0.1429
 1146TIP3    H124997   4.107   1.935   0.481  0.0952 -2.8106 -0.2348
 1146TIP3    H224998   4.086   1.910   0.629  0.1931  0.6389  0.4372
 1147TIP3   OH224999   5.952   1.638   0.113 -0.0634  0.3963  0.2651
 1147TIP3    H125000   5.898   1.637   0.192 -1.3043 -0.6181 -0.5407
 1147TIP3    H225001   6.039   1.663   0.143 -0.7898  1.2607  1.7474
 1148TIP3   OH225002   3.049   0.527   1.360 -0.2373  0.1345 -0.1785
 1148TIP3    H125003   2.984   0.515   1.291 -0.4261  1.6713 -0.2987
 1148TIP3    H225004   3.034   0.453   1.420 -0.5946 -0.7776 -1.3456
 1149TIP3   OH225005   2.603   3.459   9.276  0.1640 -0.2327 -0.1614
 1149TIP3    H125006   2.582   3.404   9.352 -1.0582  0.2991 -0.0880
 1149TIP3    H225007   2.656   3.530   9.312  2.1019 -1.5007 -0.3171
 1150TIP3   OH225008   1.800   6.586   9.261  0.4135 -0.5360 -0.8384
 1150TIP3    H125009   1.762   6.524   9.198 -1.1052 -0.4682 -0.0300
 1150TIP3    H225010   1.886   6.606   9.225 -0.6641  0.0589 -3.2908
 1151TIP3   OH225011   0.858   1.109   3.014  0.0539 -0.1470 -0.0487
 1151TIP3    H125012   0.770   1.122   3.048  0.0226  0.4359 -0.3514
 1151TIP3    H225013   0.864   1.015   2.999 -0.0753 -0.3718  1.1772
 1152TIP3   OH225014   1.416   0.548   0.699  0.1299 -0.5691 -0.0967
 1152TIP3    H125015   1.492   0.550   0.757 -0.4147 -2.2105  0.7380
 1152TIP3    H225016   1.453   0.541   0.611  0.9530 -0.5692  0.2398
 1153TIP3   OH225017   1.177   3.724   0.493 -1.0695 -0.1703  0.0665
 1153TIP3    H125018   1.140   3.704   0.579 -0.2244  0.2667  0.5486
 1153TIP3    H225019   1.260   3.676   0.490 -0.2278  1.1969  0.2363
 1154TIP3   OH225020   3.920   3.028   0.047  0.2445  0.2641 -0.4231
 1154TIP3    H125021   3.955   2.950   0.005  1.9363  0.5916  0.3210
 1154TIP3    H225022   3.867   3.069  -0.022  1.2887 -0.2730 -1.5981
 1155TIP3   OH225023   3.830   6.288   0.294  0.3046  0.1282  0.1654
 1155TIP3    H125024   3.874   6.353   0.348 -0.6693  0.4543  0.6028
 1155TIP3    H225025   3.755   6.335   0.257  0.0307 -0.5306 -0.1337
 1156TIP3   OH225026   2.045   0.710   0.671  0.5491 -0.2050  0.4273
 1156TIP3    H125027   2.074   0.620   0.684  1.6723 -0.0301 -0.7591
 1156TIP3    H225028   2.099   0.743   0.600 -1.7605  0.5143 -1.1288
 1157TIP3   OH225029   0.752   2.580   8.613  0.3621  0.4384  0.0737
 1157TIP3    H125030   0.792   2.494   8.596  0.4446  0.8230 -1.8022
 1157TIP3    H225031   0.668   2.577   8.566  0.1046  1.1831  0.4749
 1158TIP3   OH225032   3.329   1.835   1.346  0.3924  0.0276  0.6746
 1158TIP3    H125033   3.329   1.824   1.441 -0.5332 -0.7298  0.6148
 1158TIP3    H225034   3.243   1.873   1.326 -0.0607 -1.2661  0.0235
 1159TIP3   OH225035   0.475   6.242   0.600  0.3174 -0.0897 -0.1902
 1159TIP3    H125036   0.550   6.187   0.578  0.9931  0.5671  0.4036
 1159TIP3    H225037   0.409   6.181   0.631  1.5011 -0.4900  1.7036
 1160TIP3   OH225038   6.149   3.492   2.691  0.0149  0.2333  0.5972
 1160TIP3    H125039   6.102   3.513   2.771  0.8832 -0.4872  1.3113
 1160TIP3    H225040   6.082   3.453   2.634 -0.0495 -2.0786  2.1143
 1161TIP3   OH225041   3.421   0.088   2.868 -0.2986  0.0893 -0.3855
 1161TIP3    H125042   3.378   0.007   2.898 -1.3541  0.6409 -0.3659
 1161TIP3    H225043   3.366   0.118   2.796 -0.1105  0.9778 -0.1633
 1162TIP3   OH225044   3.990   1.007   1.568  0.3040  0.5050 -0.1941
 1162TIP3    H125045   3.900   0.988   1.595  0.0180  0.7457 -0.9473
 1162TIP3    H225046   4.041   1.003   1.649 -0.2819 -0.2501  0.1502
 1163TIP3   OH225047   2.401   1.048   0.977  0.1463  0.3101  0.2265
 1163TIP3    H125048   2.313   1.024   1.006  0.8231 -2.4562  0.2497
 1163TIP3    H225049   2.459   1.016   1.046  1.3345 -0.0896 -0.9206
 1164TIP3   OH225050   2.196   3.989   9.293  0.3810 -0.2370  0.1548
 1164TIP3    H125051   2.245   4.054   9.243 -1.5010  0.7658 -0.4629
 1164TIP3    H225052   2.154   3.934   9.227 -1.9334  0.9442  0.5285
 1165TIP3   OH225053   6.002   5.761   0.687 -0.1262  0.0552  0.4219
 1165TIP3    H125054   6.092   5.740   0.662  0.3789  2.4697 -0.1275
 1165TIP3    H225055   5.948   5.711   0.626  0.9758  1.1308 -1.5422
 1166TIP3   OH225056   3.198   4.166   8.499  0.2185  0.1505 -0.0874
 1166TIP3    H125057   3.194   4.262   8.500  1.4848  0.3514 -3.2311
 1166TIP3    H225058   3.226   4.143   8.588 -1.7394  2.5034  1.2870
 1167TIP3   OH225059   4.255   1.059   7.331  0.1323  0.0908 -0.3279
 1167TIP3    H125060   4.302   0.977   7.323  1.0106  0.6256 -0.7590
 1167TIP3    H225061   4.316   1.126   7.300 -1.2009  0.7096 -1.8111
 1168TIP3   OH225062   1.830   2.335   2.089 -0.1299 -0.1463  0.3315
 1168TIP3    H125063   1.803   2.252   2.130  0.1993  0.4408  1.7911
 1168TIP3    H225064   1.749   2.372   2.054 -0.8598  0.3739  2.4190
 1169TIP3   OH225065   4.515   6.252   2.859 -0.1251 -1.0716 -0.2907
 1169TIP3    H125066   4.605   6.269   2.832 -0.7159  0.3250 -1.5435
 1169TIP3    H225067   4.518   6.165   2.900  2.1397 -0.2184  1.5962
 1170TIP3   OH225068   4.454   2.424   1.823 -0.0031 -0.2367  0.2987
 1170TIP3    H125069   4.511   2.382   1.759 -1.5179  0.0308 -1.3074
 1170TIP3    H225070   4.511   2.443   1.897  1.6006 -1.4659 -0.5511
 1171TIP3   OH225071   3.816   2.706   7.522 -0.4836 -0.5358 -0.0179
 1171TIP3    H125072   3.803   2.771   7.591 -1.0352 -1.1862  0.5014
 1171TIP3    H225073   3.729   2.670   7.506 -0.0612 -1.7801  0.3410
 1172TIP3   OH225074   0.532   3.665   0.021 -0.1270  0.2801 -0.0758
 1172TIP3    H125075   0.574   3.640  -0.062 -0.8988  0.0599 -0.4112
 1172TIP3    H225076   0.509   3.581   0.062 -0.6568  0.4030 -0.1169
 1173TIP3   OH225077   5.719   5.504   0.131 -0.4145 -0.4812  0.0397
 1173TIP3    H125078   5.726   5.481   0.224  1.0596 -0.3548 -0.0080
 1173TIP3    H225079   5.753   5.427   0.085  0.7599  0.2108 -0.2882
 1174TIP3   OH225080   6.065   6.543   7.788 -0.2750 -0.3074 -0.0263
 1174TIP3    H125081   6.074   6.621   7.842 -3.1919  0.9228 -1.1264
 1174TIP3    H225082   6.154   6.525   7.757  0.6119  2.0978  0.8742
 1175TIP3   OH225083   5.326   6.133   7.880 -0.0848 -0.6273 -0.0972
 1175TIP3    H125084   5.321   6.228   7.888 -0.2334 -0.7122  1.0552
 1175TIP3    H225085   5.418   6.114   7.864 -0.4292 -0.1414 -3.2959
 1176TIP3   OH225086   0.870   0.054   3.199  0.2796 -0.4175  0.2530
 1176TIP3    H125087   0.895   0.136   3.240  1.7976 -0.9063  0.3830
 1176TIP3    H225088   0.826   0.005   3.268  2.3807 -1.0389  1.2594
 1177TIP3   OH225089   3.135   4.848   0.808  0.1558  0.0547  0.2189
 1177TIP3    H125090   3.048   4.808   0.805  0.3863 -0.4809  0.5176
 1177TIP3    H225091   3.126   4.930   0.759 -0.5505  0.0707  0.3729
 1178TIP3   OH225092   0.534   0.374   8.440  0.5296  0.0370 -0.1525
 1178TIP3    H125093   0.449   0.372   8.394  0.9314  2.2044 -1.1246
 1178TIP3    H225094   0.511   0.365   8.532 -0.8452  1.0599 -0.3507
 1179TIP3   OH225095   2.635   0.069   0.993  0.3180  0.0013  0.1054
 1179TIP3    H125096   2.571   0.137   0.972  0.8456  0.5633  0.2836
 1179TIP3    H225097   2.612  -0.004   0.935  0.5148  0.7868 -0.9997
 1180TIP3   OH225098   3.059   1.594   1.367 -0.0796  0.1471 -0.3633
 1180TIP3    H125099   3.151   1.568   1.368  0.2563  1.1533 -1.8140
 1180TIP3    H225100   3.012   1.515   1.341  0.2567 -0.5807  1.1153
 1181TIP3   OH225101   4.061   4.695   7.533  0.0476 -0.1649  0.4354
 1181TIP3    H125102   4.011   4.774   7.511 -0.6352 -0.8489 -0.5907
 1181TIP3    H225103   4.145   4.707   7.488 -0.3794 -0.3924 -0.4462
 1182TIP3   OH225104   4.142   1.845   2.401  0.3545  0.0939 -0.2129
 1182TIP3    H125105   4.206   1.916   2.409 -1.5722  1.7571  2.0119
 1182TIP3    H225106   4.101   1.859   2.315  0.8426  0.9343 -0.3166
 1183TIP3   OH225107   1.168   3.407   0.351  0.1118  0.0253  0.4007
 1183TIP3    H125108   1.083   3.450   0.365  0.5891  1.0650  0.1669
 1183TIP3    H225109   1.226   3.447   0.416  0.6097 -0.1525  0.0659
 1184TIP3   OH225110   2.706   1.154   0.511 -0.6260 -0.2363  0.2333
 1184TIP3    H125111   2.659   1.140   0.429 -1.3381 -2.2148  0.9270
 1184TIP3    H225112   2.638   1.152   0.579  0.1827 -0.9792  1.0608
 1185TIP3   OH225113   2.717   3.323   8.586  0.2575  0.4183  0.0713
 1185TIP3    H125114   2.747   3.361   8.504  0.8698 -0.3513 -0.0797
 1185TIP3    H225115   2.717   3.395   8.648  0.6877  0.8150 -0.3815
 1186TIP3   OH225116   4.311   6.610   0.866 -0.3796 -0.2575 -0.0257
 1186TIP3    H125117   4.303   6.676   0.797 -2.0080 -0.6981 -0.3187
 1186TIP3    H225118   4.228   6.562   0.862 -0.0195 -1.0620  1.4640
 1187TIP3   OH225119   3.348   6.245   8.545 -0.3005  0.0513 -0.1842
 1187TIP3    H125120   3.386   6.221   8.460 -0.0469  1.2132 -0.4154
 1187TIP3    H225121   3.424   6.259   8.602 -0.4499  0.1153 -0.0022
 1188TIP3   OH225122   0.602   2.867   8.475  0.1169 -0.0283 -0.1552
 1188TIP3    H125123   0.590   2.935   8.409 -0.5673 -1.9551 -2.1417
 1188TIP3    H225124   0.610   2.786   8.425 -0.6622 -1.6401  2.1510
 1189TIP3   OH225125   6.386   3.498   0.094  0.2762  0.6894  0.8264
 1189TIP3    H125126   6.409   3.500   0.187  0.2991  2.3412  0.8186
 1189TIP3    H225127   6.411   3.585   0.062 -1.8933  0.9941 -0.1935
 1190TIP3   OH225128   0.741   1.809   7.993 -0.2211  0.4196  0.2569
 1190TIP3    H125129   0.776   1.790   7.906 -1.9777 -0.1193 -0.3578
 1190TIP3    H225130   0.732   1.904   7.995 -1.8944  0.3220 -0.8821
 1191TIP3   OH225131   5.820   4.882   1.136  0.2488 -0.1843 -0.6557
 1191TIP3    H125132   5.909   4.850   1.118  0.5807 -0.2196  0.8529
 1191TIP3    H225133   5.766   4.842   1.069  1.2785 -0.7335 -1.1799
 1192TIP3   OH225134   3.713   2.963   2.327 -0.1793  0.3475 -0.5370
 1192TIP3    H125135   3.698   2.888   2.270  0.9224  0.7821 -1.4347
 1192TIP3    H225136   3.722   3.037   2.267 -0.8628  1.1417  0.3124
 1193TIP3   OH225137   0.669   3.130   9.236 -0.1930  0.7497  0.4230
 1193TIP3    H125138   0.604   3.150   9.169 -2.6389 -2.4480  1.6136
 1193TIP3    H225139   0.734   3.076   9.191 -0.2316  1.0658 -0.0137
 1194TIP3   OH225140   0.720   1.372   0.344  0.2860 -0.0886 -0.5490
 1194TIP3    H125141   0.815   1.373   0.332  0.2298  2.2663 -1.3758
 1194TIP3    H225142   0.685   1.384   0.256 -0.7518 -0.3532 -0.1839
 1195TIP3   OH225143   4.726   4.649   7.720 -0.4030 -0.7165  0.0287
 1195TIP3    H125144   4.793   4.580   7.717 -0.9482 -1.2937  0.7347
 1195TIP3    H225145   4.683   4.645   7.635 -0.6233 -1.4585  0.1627
 1196TIP3   OH225146   1.261   0.325   0.208 -0.3036  0.0908  0.1077
 1196TIP3    H125147   1.345   0.313   0.252 -0.0218 -1.6578 -0.8109
 1196TIP3    H225148   1.213   0.245   0.226 -0.6222 -0.1970 -1.7553
 1197TIP3   OH225149   4.288   3.137   1.032 -0.3079  0.0312 -0.0328
 1197TIP3    H125150   4.242   3.053   1.032  0.5214 -0.4296  0.1545
 1197TIP3    H225151   4.291   3.162   1.124  0.9422 -0.5768  0.1074
 1198TIP3   OH225152   6.257   5.582   8.582  0.4589 -0.2215  0.1272
 1198TIP3    H125153   6.203   5.534   8.521  0.2886 -0.7005  0.6496
 1198TIP3    H225154   6.318   5.517   8.618  1.7024  0.3973 -0.7959
 1199TIP3   OH225155   1.986   1.698   8.715 -0.7254 -0.2742  0.2955
 1199TIP3    H125156   2.060   1.727   8.661 -1.5212  2.5489  0.5613
 1199TIP3    H225157   1.931   1.648   8.655 -1.4553  2.5470 -1.6020
 1200TIP3   OH225158   0.976   1.821   9.147  0.2067 -0.4162 -0.2052
 1200TIP3    H125159   0.881   1.806   9.150  0.1074  0.2922  1.1506
 1200TIP3    H225160   0.984   1.906   9.104  0.4246 -1.6154 -2.6984
 1201TIP3   OH225161   5.397   3.514   8.265 -0.2490  0.3174 -0.1680
 1201TIP3    H125162   5.304   3.524   8.242 -0.5719 -3.2146 -0.8772
 1201TIP3    H225163   5.397   3.518   8.361 -0.8831  1.6885 -0.1917
 1202TIP3   OH225164   1.867   5.973   1.206 -0.3571 -0.1656 -0.6234
 1202TIP3    H125165   1.820   5.903   1.251 -0.8632  0.3762 -0.2991
 1202TIP3    H225166   1.915   6.018   1.275  0.7588 -0.7886 -0.9658
 1203TIP3   OH225167   2.591   5.221   8.741  0.3901  0.0325 -0.1492
 1203TIP3    H125168   2.549   5.180   8.817 -2.4876  0.4620 -1.3840
 1203TIP3    H225169   2.538   5.298   8.723  2.9296  1.7712 -0.7111
 1204TIP3   OH225170   1.294   3.259   8.704 -0.2658 -0.0935 -0.2630
 1204TIP3    H125171   1.209   3.234   8.670 -1.2269  0.7911  1.3224
 1204TIP3    H225172   1.302   3.210   8.786 -0.1453  1.2578  0.5676
 1205TIP3   OH225173   3.258   1.866   0.413 -0.2937  0.0135  0.0758
 1205TIP3    H125174   3.353   1.858   0.411 -0.4236 -2.5880 -2.5039
 1205TIP3    H225175   3.233   1.885   0.323 -2.2387  1.8386  0.8999
 1206TIP3   OH225176   4.164   6.489   2.278 -0.2473 -0.3423  0.3240
 1206TIP3    H125177   4.173   6.559   2.343  0.6043 -1.3701  1.3480
 1206TIP3    H225178   4.070   6.485   2.260 -0.1558  2.3795 -1.2868
 1207TIP3   OH225179   4.418   1.362   1.971 -0.8895 -0.1280  0.2618
 1207TIP3    H125180   4.359   1.299   2.013 -2.4101  0.3966 -1.0092
 1207TIP3    H225181   4.379   1.378   1.885 -0.2331  2.1048  0.3204
 1208TIP3   OH225182   3.241   2.765   0.438  0.1984  0.6606 -0.2973
 1208TIP3    H125183   3.208   2.725   0.358 -2.4937 -0.8775  1.4339
 1208TIP3    H225184   3.307   2.704   0.470 -1.0801 -0.4487  0.2984
 1209TIP3   OH225185   2.180   2.336   1.184  0.9396  0.2356  1.0137
 1209TIP3    H125186   2.151   2.382   1.262 -0.7999  0.3188  0.3602
 1209TIP3    H225187   2.143   2.386   1.111  1.8094 -0.3205  0.1575
 1210TIP3   OH225188   0.973   2.603   9.299  0.2599  0.1388 -0.2559
 1210TIP3    H125189   0.980   2.519   9.343 -0.0383 -0.1968 -0.8386
 1210TIP3    H225190   0.896   2.596   9.243  1.8706 -0.3239 -2.6036
 1211TIP3   OH225191   3.075   2.506   2.554  0.0036 -0.1537 -0.6443
 1211TIP3    H125192   3.068   2.482   2.646  0.2050  0.1535 -0.5461
 1211TIP3    H225193   3.166   2.532   2.543 -0.0091 -0.2254 -0.9416
 1212TIP3   OH225194   6.226   3.193   2.535  0.1308 -0.3368  0.1384
 1212TIP3    H125195   6.158   3.247   2.494 -0.4334 -0.6868  0.5864
 1212TIP3    H225196   6.306   3.244   2.528  0.0528 -0.3849 -1.4013
 1213TIP3   OH225197   3.102   0.340   2.574 -0.0706 -0.3532  0.1989
 1213TIP3    H125198   3.040   0.367   2.506 -0.1786 -0.4362  0.2630
 1213TIP3    H225199   3.080   0.394   2.649 -0.0361 -0.3508  0.2068
 1214TIP3   OH225200   1.071   0.757   1.778 -0.5696 -0.0554  0.0439
 1214TIP3    H125201   1.165   0.756   1.793 -0.4905 -0.0271 -0.4419
 1214TIP3    H225202   1.035   0.802   1.855 -0.1189  0.6218 -0.1287
 1215TIP3   OH225203   4.521   3.554   0.648  0.5158  0.3321  0.3604
 1215TIP3    H125204   4.604   3.506   0.642 -0.6222 -1.7927  0.5176
 1215TIP3    H225205   4.465   3.497   0.701 -1.9730  0.2682 -2.1161
 1216TIP3   OH225206   2.641   0.757   8.219  0.3184  0.6162  0.0904
 1216TIP3    H125207   2.690   0.683   8.182  1.3555  0.9982  0.6594
 1216TIP3    H225208   2.596   0.721   8.295  0.4006  0.4480  0.0608
 1217TIP3   OH225209   3.992   4.075   1.282  0.1719 -0.8281  0.2982
 1217TIP3    H125210   4.033   4.030   1.208  1.5911  1.8864 -0.7014
 1217TIP3    H225211   3.902   4.090   1.253  0.3128 -1.0453 -0.2766
 1218TIP3   OH225212   4.015   4.873   0.496  0.4548  0.2137 -0.3911
 1218TIP3    H125213   4.075   4.825   0.552  3.2288  1.7831 -1.7792
 1218TIP3    H225214   4.014   4.962   0.531 -1.4926  0.1638 -0.1672
 1219TIP3   OH225215   5.526   2.501   2.698  0.4582 -0.1739  0.5213
 1219TIP3    H125216   5.517   2.592   2.727 -0.6712  0.0055 -0.3240
 1219TIP3    H225217   5.618   2.480   2.713  0.2607  0.3327  2.9470
 1220TIP3   OH225218   2.050   2.914   8.260 -0.3821 -0.8821  0.3319
 1220TIP3    H125219   2.000   2.976   8.206 -0.4250 -0.0448  1.3099
 1220TIP3    H225220   2.127   2.964   8.288  0.2743 -1.7092  0.0371
 1221TIP3   OH225221   5.682   1.232   2.145  0.5870  0.1341 -0.1535
 1221TIP3    H125222   5.643   1.230   2.232  0.9878 -2.9798  0.0723
 1221TIP3    H225223   5.617   1.276   2.090 -2.8693 -3.6253  0.4514
 1222TIP3   OH225224   2.476   1.847   1.480 -0.5940  0.0315 -0.3234
 1222TIP3    H125225   2.560   1.827   1.438 -1.8373 -2.3662 -1.8636
 1222TIP3    H225226   2.470   1.943   1.477  2.8022  0.4753  1.4309
 1223TIP3   OH225227   0.937   3.397   1.832  0.3878 -0.2757  0.6477
 1223TIP3    H125228   0.868   3.346   1.789  0.8563  0.7151 -1.3661
 1223TIP3    H225229   1.018   3.349   1.813  0.6108  0.2282  0.3106
 1224TIP3   OH225230   2.933   2.244   1.713  0.1133 -0.4656 -0.0717
 1224TIP3    H125231   2.865   2.271   1.774  0.8962  2.2408 -0.2334
 1224TIP3    H225232   2.893   2.253   1.626  0.8743  2.3113 -0.2462
 1225TIP3   OH225233   0.063   6.465   8.664 -0.2470 -0.0042  0.0392
 1225TIP3    H125234  -0.030   6.447   8.678 -0.1289 -0.1160  0.6900
 1225TIP3    H225235   0.075   6.555   8.696  0.2384 -0.6228  1.6983
 1226TIP3   OH225236   4.455   2.685   1.341  0.2129 -0.1303  0.1495
 1226TIP3    H125237   4.365   2.706   1.314 -0.2584 -2.3210 -0.2109
 1226TIP3    H225238   4.451   2.683   1.436  0.0992  0.5818  0.1668
 1227TIP3   OH225239   1.222   5.510   0.816  0.5622 -0.2206  0.1650
 1227TIP3    H125240   1.179   5.471   0.740 -0.4587  0.7602  0.2150
 1227TIP3    H225241   1.309   5.535   0.783  0.2064  0.0106 -0.6371
 1228TIP3   OH225242   4.750   5.772   8.170  0.1558 -0.4521 -0.3570
 1228TIP3    H125243   4.679   5.709   8.187 -1.9279  1.9997  0.6927
 1228TIP3    H225244   4.800   5.774   8.251 -0.6130  0.2106  0.1123
 1229TIP3   OH225245   3.934   5.319   1.703 -0.2762  0.2559  0.4278
 1229TIP3    H125246   3.981   5.302   1.784 -1.1057 -0.5222  0.7499
 1229TIP3    H225247   3.913   5.233   1.668  0.4698  0.5575 -0.8700
 1230TIP3   OH225248   1.120   1.912   0.327  0.4509 -0.4291  0.9530
 1230TIP3    H125249   1.100   1.844   0.262  0.9090 -0.3400  0.7145
 1230TIP3    H225250   1.040   1.920   0.378  0.5823 -1.5661  1.3649
 1231TIP3   OH225251   3.477   0.764   8.672  0.1628  0.5318 -0.2182
 1231TIP3    H125252   3.511   0.797   8.590 -2.0808 -0.8945 -1.8442
 1231TIP3    H225253   3.399   0.816   8.689 -0.3929 -0.3593  0.0410
 1232TIP3   OH225254   2.292   3.371   2.452 -0.3396  0.2986 -0.0025
 1232TIP3    H125255   2.207   3.416   2.451 -1.8080 -2.1984  1.5170
 1232TIP3    H225256   2.275   3.289   2.499  3.4582  0.6599  2.4281
 1233TIP3   OH225257   2.269   5.921   2.601  0.2910 -0.4108 -0.2766
 1233TIP3    H125258   2.298   5.900   2.690  0.5434  1.8773  0.2481
 1233TIP3    H225259   2.179   5.888   2.596  1.0756 -2.7144 -0.0461
 1234TIP3   OH225260   4.546   0.635   8.583 -0.7057  0.1502 -0.2588
 1234TIP3    H125261   4.575   0.662   8.670  2.6383 -0.7560 -0.9399
 1234TIP3    H225262   4.565   0.542   8.579 -1.7113 -0.0225 -1.6509
 1235TIP3   OH225263   2.148   3.383   1.339 -0.0586  0.0421 -0.1828
 1235TIP3    H125264   2.177   3.474   1.334  1.0570 -0.1043  2.1084
 1235TIP3    H225265   2.162   3.359   1.431 -0.5994 -2.3593 -0.6679
 1236TIP3   OH225266   2.758   3.116   8.832  0.6049  0.0462  0.3781
 1236TIP3    H125267   2.679   3.160   8.863 -0.1651 -0.5791 -0.6229
 1236TIP3    H225268   2.739   3.023   8.843  1.9089 -0.0919  1.7564
 1237TIP3   OH225269   6.549   1.618   1.034  0.1280  0.0596  0.3567
 1237TIP3    H125270   6.514   1.583   0.952  0.2744  0.0837  0.2828
 1237TIP3    H225271   6.557   1.541   1.091  0.6630 -0.0712  0.1180
 1238TIP3   OH225272   2.651   3.664   8.472 -0.1643  0.5767  0.5223
 1238TIP3    H125273   2.673   3.620   8.554 -1.7964 -2.0443 -0.2902
 1238TIP3    H225274   2.699   3.614   8.405 -0.0097  1.7352 -0.2640
 1239TIP3   OH225275   2.120   4.892   0.047 -0.4095  0.5831  0.8869
 1239TIP3    H125276   2.140   4.865  -0.042  1.9945  3.5539  0.3264
 1239TIP3    H225277   2.051   4.958   0.037 -0.8627  0.1865  1.3589
 1240TIP3   OH225278   6.447   5.810   2.869  0.4349 -0.7020  0.6028
 1240TIP3    H125279   6.487   5.878   2.816  0.9418 -0.8614  0.7759
 1240TIP3    H225280   6.388   5.857   2.928  0.0478 -0.5040  0.0670
 1241TIP3   OH225281   4.551   3.676   7.568 -0.0881  0.1835  0.0332
 1241TIP3    H125282   4.616   3.627   7.518 -0.8613 -0.1857 -0.6231
 1241TIP3    H225283   4.467   3.640   7.541 -0.5579  0.4244  1.1201
 1242TIP3   OH225284   4.821   0.394   1.038 -0.2234  0.1485  0.2599
 1242TIP3    H125285   4.850   0.463   0.979 -0.8871 -1.0221 -1.5216
 1242TIP3    H225286   4.902   0.362   1.079  0.3703  0.4429 -0.6561
 1243TIP3   OH225287   2.240   2.763   7.436 -0.2836  0.1640 -0.0184
 1243TIP3    H125288   2.273   2.685   7.480 -0.0341  1.5036  2.4135
 1243TIP3    H225289   2.313   2.794   7.383 -0.4849 -1.3630 -1.2405
 1244TIP3   OH225290   1.475   4.295   7.670 -0.2770  0.0748 -0.7922
 1244TIP3    H125291   1.393   4.342   7.661  0.1022  0.5277 -2.0684
 1244TIP3    H225292   1.543   4.361   7.654  0.2705 -0.7488 -2.0041
 1245TIP3   OH225293   2.392   0.790   3.244  0.3947  0.3062  0.2712
 1245TIP3    H125294   2.363   0.701   3.268  1.0880  0.1845  0.6793
 1245TIP3    H225295   2.311   0.835   3.219  0.1586 -0.7523 -0.9780
 1246TIP3   OH225296   3.710   1.453   1.416 -0.4338  0.1330 -0.2990
 1246TIP3    H125297   3.728   1.470   1.508 -0.8991  0.6491 -0.2977
 1246TIP3    H225298   3.660   1.529   1.387  1.8806  1.2805 -1.6305
 1247TIP3   OH225299   6.072   2.777   8.093 -0.3823 -0.2022  0.1611
 1247TIP3    H125300   6.020   2.800   8.170 -1.6017 -0.5510 -0.5269
 1247TIP3    H225301   6.062   2.852   8.034 -1.2893 -0.8552 -0.5460
 1248TIP3   OH225302   5.954   3.978   1.047 -0.0271 -0.0754 -0.2593
 1248TIP3    H125303   5.932   4.071   1.033 -0.0034 -0.3897 -2.7287
 1248TIP3    H225304   6.045   3.979   1.076 -0.3974  0.7079  0.9803
 1249TIP3   OH225305   2.197   1.601   7.279 -0.1481  0.1167 -0.2022
 1249TIP3    H125306   2.197   1.506   7.291  2.6739  0.1888  1.3627
 1249TIP3    H225307   2.109   1.622   7.248 -1.7114 -2.7039  1.8553
 1250TIP3   OH225308   3.999   5.171   2.197  0.1454  0.2005 -0.6518
 1250TIP3    H125309   4.005   5.240   2.263  0.9428  1.6672 -2.1987
 1250TIP3    H225310   3.917   5.190   2.151 -1.0878 -1.5815  0.6627
 1251TIP3   OH225311   0.945   2.229   7.931  0.1044  0.5795  0.3064
 1251TIP3    H125312   1.036   2.210   7.909  0.3284  1.5533  0.3385
 1251TIP3    H225313   0.929   2.316   7.894 -1.1577 -0.0364 -0.6436
 1252TIP3   OH225314   6.521   3.723   8.254 -0.1838  0.2772 -0.0040
 1252TIP3    H125315   6.529   3.659   8.324 -0.2057 -0.3904 -0.6015
 1252TIP3    H225316   6.609   3.729   8.216 -0.4246 -0.2368 -0.6637
 1253TIP3   OH225317   4.057   1.758   0.050  0.2080  0.2196 -0.0254
 1253TIP3    H125318   3.992   1.748   0.120 -0.1518  2.2526  0.0130
 1253TIP3    H225319   4.006   1.791  -0.024  1.0890  1.3292 -0.1626
 1254TIP3   OH225320   5.231   1.958   1.571 -0.0689 -0.1579 -0.0684
 1254TIP3    H125321   5.219   1.865   1.549 -0.7474 -0.0568 -0.1326
 1254TIP3    H225322   5.176   1.971   1.649  0.3359  0.0979  0.1787
 1255TIP3   OH225323   6.231   0.528   1.811 -0.4452 -0.4715 -0.7873
 1255TIP3    H125324   6.214   0.567   1.897 -0.6027  1.3066 -1.5955
 1255TIP3    H225325   6.240   0.434   1.829  2.5896  0.1243  1.6154
 1256TIP3   OH225326   4.745   4.910   0.307 -0.1678  0.9492 -0.0444
 1256TIP3    H125327   4.836   4.905   0.335  0.0083  0.5935 -0.6588
 1256TIP3    H225328   4.724   4.822   0.277 -0.3068  1.3405 -1.1384
 1257TIP3   OH225329   0.514   2.487   2.030 -0.3826 -0.2468 -0.4457
 1257TIP3    H125330   0.490   2.579   2.039  2.2254  0.3584  1.5263
 1257TIP3    H225331   0.486   2.447   2.113  2.0566 -0.2333  0.4777
 1258TIP3   OH225332   0.680   3.584   2.070 -0.4879  0.3254  0.5116
 1258TIP3    H125333   0.607   3.527   2.045 -0.2245 -0.0500  0.5784
 1258TIP3    H225334   0.716   3.615   1.987 -0.0413 -0.3714  0.4340
 1259TIP3   OH225335   3.822   2.523   8.732 -0.4014  0.4461  0.3262
 1259TIP3    H125336   3.832   2.429   8.722  0.2603  0.4569  0.8124
 1259TIP3    H225337   3.797   2.536   8.823 -2.3155  0.6278 -0.1923
 1260TIP3   OH225338   5.875   6.019   0.912  0.4298 -0.0590 -0.2030
 1260TIP3    H125339   5.834   6.069   0.983  3.7175  1.1581  1.0546
 1260TIP3    H225340   5.866   5.928   0.939  2.3281  0.3895  2.4240
 1261TIP3   OH225341   6.141   5.771   8.260 -0.6079  0.2706  0.1081
 1261TIP3    H125342   6.178   5.769   8.172  0.2009  0.6973  0.4271
 1261TIP3    H225343   6.110   5.682   8.275 -2.5191  0.6234 -1.3214
 1262TIP3   OH225344   2.571   5.817   2.815  0.2531 -0.3467  0.1676
 1262TIP3    H125345   2.648   5.852   2.860 -0.8898  0.4667  1.5922
 1262TIP3    H225346   2.522   5.895   2.789 -0.3303 -0.8641 -0.3054
 1263TIP3   OH225347   5.628   5.297   8.919  0.5094  0.4800  0.1378
 1263TIP3    H125348   5.696   5.257   8.865 -0.9321 -0.1962 -1.2413
 1263TIP3    H225349   5.546   5.277   8.874 -0.7421  0.1941  2.3964
 1264TIP3   OH225350   1.218   2.437   8.081  0.2846 -0.3437  0.7232
 1264TIP3    H125351   1.277   2.415   8.010  0.0440  2.1671 -0.3464
 1264TIP3    H225352   1.271   2.428   8.160  1.8659  0.9294 -0.1309
 1265TIP3   OH225353   5.439   6.612   8.310 -0.1958 -0.0086  0.7366
 1265TIP3    H125354   5.518   6.560   8.294  0.0298  0.1125  1.4438
 1265TIP3    H225355   5.447   6.685   8.249  0.7581  0.5510  1.4921
 1266TIP3   OH225356   1.067   0.458   1.217  0.0491 -0.7075 -0.5750
 1266TIP3    H125357   1.071   0.546   1.254 -0.5937  0.0856 -2.2929
 1266TIP3    H225358   1.158   0.428   1.217  0.1383 -0.5545  1.1160
 1267TIP3   OH225359   6.095   4.197   7.686  0.2911  0.0990 -0.1890
 1267TIP3    H125360   6.137   4.274   7.724 -0.9625  1.1610 -0.8724
 1267TIP3    H225361   6.167   4.142   7.656  1.2129  1.7840 -1.2183
 1268TIP3   OH225362   4.320   1.607   7.995 -0.0538  0.3795  0.1316
 1268TIP3    H125363   4.270   1.680   7.960 -0.1282  0.0758 -0.3894
 1268TIP3    H225364   4.349   1.638   8.082 -0.1728  0.9830 -0.0388
 1269TIP3   OH225365   5.348   4.970   9.266  0.0631  0.0982  0.2194
 1269TIP3    H125366   5.323   5.030   9.196  3.7154  1.0198 -0.5166
 1269TIP3    H225367   5.392   5.026   9.330  2.4193 -1.5158  0.1426
 1270TIP3   OH225368   0.979   0.186   1.397 -0.0113 -0.5167 -0.3023
 1270TIP3    H125369   0.985   0.265   1.344  0.2901 -1.6325 -2.0176
 1270TIP3    H225370   1.014   0.211   1.482  2.7055  0.5480 -1.6015
 1271TIP3   OH225371   5.434   0.768   2.214 -0.0430  0.4802  0.1259
 1271TIP3    H125372   5.342   0.785   2.193 -0.6303 -1.3042  1.0498
 1271TIP3    H225373   5.482   0.832   2.161 -1.6757 -0.2175 -2.4303
 1272TIP3   OH225374   5.028   0.156   8.279  0.2602  0.6337  0.8350
 1272TIP3    H125375   4.993   0.241   8.307 -3.9590 -0.5929  0.0078
 1272TIP3    H225376   5.015   0.099   8.355 -0.0855 -0.0318  0.2778
 1273TIP3   OH225377   0.425   1.219   8.007 -0.2803 -0.3777  0.1235
 1273TIP3    H125378   0.378   1.152   8.056 -0.3917 -0.9802 -0.7774
 1273TIP3    H225379   0.409   1.197   7.915 -1.3702  1.6327 -0.2106
 1274TIP3   OH225380   2.085   1.222   0.306 -0.8216 -0.3965 -0.7344
 1274TIP3    H125381   2.099   1.129   0.291 -1.4450 -0.5765 -0.2251
 1274TIP3    H225382   1.991   1.235   0.289 -1.3356 -0.3937  1.8070
 1275TIP3   OH225383   5.897   6.520   1.106  0.5487  0.4157  0.9703
 1275TIP3    H125384   5.959   6.478   1.166 -0.6480 -0.4188  1.6725
 1275TIP3    H225385   5.951   6.553   1.035  1.8403  0.0757  1.7561
 1276TIP3   OH225386   1.786   3.991   2.182  0.1864 -0.4479 -0.2181
 1276TIP3    H125387   1.773   4.057   2.250 -3.0517  0.7307 -1.7644
 1276TIP3    H225388   1.802   4.042   2.102  1.2285 -1.7047 -0.8546
 1277TIP3   OH225389   3.877   2.217   0.721  0.6246 -0.2701  0.2850
 1277TIP3    H125390   3.921   2.136   0.745  0.5227  0.1769  2.1002
 1277TIP3    H225391   3.788   2.207   0.755  0.6774  0.6892  0.7301
 1278TIP3   OH225392   6.127   0.160   8.539 -0.3092 -0.5583 -0.0317
 1278TIP3    H125393   6.114   0.065   8.545 -2.6307 -0.3024 -0.1244
 1278TIP3    H225394   6.129   0.178   8.445  0.2558 -0.5008 -0.0152
 1279TIP3   OH225395   4.456   1.016   0.816  0.5893  0.2377  0.1196
 1279TIP3    H125396   4.536   0.964   0.818  1.4135  1.4863  0.9501
 1279TIP3    H225397   4.479   1.097   0.861 -1.1019  0.6878  0.2432
 1280TIP3   OH225398   1.937   2.695   0.809  0.4245  0.2880  0.6216
 1280TIP3    H125399   1.992   2.765   0.846  1.1689  0.3314 -0.5406
 1280TIP3    H225400   1.962   2.617   0.858 -1.3957  1.0254  2.9113
 1281TIP3   OH225401   4.169   5.272   1.071  0.1089 -0.1865  0.1322
 1281TIP3    H125402   4.200   5.197   1.021 -0.2870 -0.1822 -0.1153
 1281TIP3    H225403   4.158   5.239   1.160 -0.0219 -0.4103  0.0326
 1282TIP3   OH225404   2.609   5.237   8.331 -0.2547 -0.1198 -0.3361
 1282TIP3    H125405   2.637   5.148   8.349 -1.1049 -0.1473  1.0514
 1282TIP3    H225406   2.647   5.289   8.402  0.3417  0.6547 -1.2040
 1283TIP3   OH225407   4.171   2.503   1.400  0.3143 -0.3763  0.0387
 1283TIP3    H125408   4.165   2.564   1.326  1.8857  0.1291  0.2780
 1283TIP3    H225409   4.162   2.559   1.477  3.3881 -0.0857  0.3112
 1284TIP3   OH225410   6.137   4.375   1.144  0.2078  0.0058 -0.4000
 1284TIP3    H125411   6.225   4.411   1.147 -0.0806  0.7533 -0.5832
 1284TIP3    H225412   6.103   4.388   1.233  0.3846 -0.5677 -0.2427
 1285TIP3   OH225413   3.493   1.787   0.184  0.0526  0.2226  0.3567
 1285TIP3    H125414   3.545   1.815   0.109 -1.2722 -0.6488 -0.9471
 1285TIP3    H225415   3.519   1.845   0.256  2.7925 -0.1946 -0.2126
 1286TIP3   OH225416   4.754   3.234   0.929  0.1872 -0.0072 -0.0102
 1286TIP3    H125417   4.695   3.308   0.944  0.2668 -0.2751  2.0130
 1286TIP3    H225418   4.701   3.157   0.949  0.1516 -0.5239 -1.9353
 1287TIP3   OH225419   6.380   5.114   1.527  0.6703  0.1350  0.1150
 1287TIP3    H125420   6.413   5.025   1.516 -0.6800 -0.4914  0.7524
 1287TIP3    H225421   6.286   5.107   1.508  0.6459  1.5595 -0.4231
 1288TIP3   OH225422   5.472   1.911   1.701  0.0661  0.3881  0.4603
 1288TIP3    H125423   5.399   1.953   1.656  1.0299  2.4316  0.6879
 1288TIP3    H225424   5.517   1.861   1.633 -1.5173 -0.9210  0.3254
 1289TIP3   OH225425   4.629   2.522   1.995  0.1372 -0.5347  0.2212
 1289TIP3    H125426   4.594   2.549   2.080  1.5527  1.2177  0.3112
 1289TIP3    H225427   4.724   2.521   2.008  0.5453  1.7127 -1.7725
 1290TIP3   OH225428   3.292   5.561   0.342 -0.4510  0.0603 -0.0587
 1290TIP3    H125429   3.381   5.589   0.362 -0.4722  0.0414  0.0634
 1290TIP3    H225430   3.263   5.619   0.272  0.1024 -0.7415 -0.9689
 1291TIP3   OH225431   3.243   3.042   0.401  0.5269 -0.0187 -0.5192
 1291TIP3    H125432   3.245   2.950   0.428  2.2208 -0.8499 -3.0883
 1291TIP3    H225433   3.158   3.052   0.358  0.3628 -0.3853 -0.2896
 1292TIP3   OH225434   3.955   6.246   1.256 -0.0514 -0.3539 -0.7281
 1292TIP3    H125435   4.000   6.282   1.333 -1.0781  1.2868 -0.8311
 1292TIP3    H225436   3.918   6.163   1.286  2.2703 -1.3328 -0.4057
 1293TIP3   OH225437   0.690   5.297   2.415  0.0574 -0.8696  0.5786
 1293TIP3    H125438   0.662   5.388   2.423  1.5960 -0.4661  2.0152
 1293TIP3    H225439   0.636   5.250   2.478  0.3998 -0.6471  1.0450
 1294TIP3   OH225440   1.120   4.762   2.352 -0.2195 -0.5062 -0.4388
 1294TIP3    H125441   1.197   4.800   2.394 -0.8091  0.0060  0.2077
 1294TIP3    H225442   1.155   4.699   2.289  0.7309 -0.0661 -0.3649
 1295TIP3   OH225443   3.764   2.414   1.264  0.0576 -0.3195  0.0779
 1295TIP3    H125444   3.710   2.383   1.192 -0.5852  1.8325 -0.4551
 1295TIP3    H225445   3.739   2.360   1.339 -0.3311 -1.6081 -0.9549
 1296TIP3   OH225446   2.317   3.628   8.738  0.4943 -0.0279  0.2196
 1296TIP3    H125447   2.396   3.574   8.748  1.4030  0.9079 -1.4140
 1296TIP3    H225448   2.246   3.565   8.724  1.3872 -0.8527 -0.8251
 1297TIP3   OH225449   0.652   2.301   2.388  0.0288 -0.4705 -0.2681
 1297TIP3    H125450   0.563   2.334   2.375 -0.5993 -2.4032 -1.1967
 1297TIP3    H225451   0.668   2.243   2.314  1.6677 -1.0022  0.4485
 1298TIP3   OH225452   1.561   6.600   0.121 -0.5225 -0.0238 -0.0598
 1298TIP3    H125453   1.567   6.526   0.182 -1.8044 -0.0706  0.0217
 1298TIP3    H225454   1.647   6.602   0.078 -0.3157 -1.2757  0.2582
 1299TIP3   OH225455   6.202   1.861   7.850  0.0937 -0.8627  0.1139
 1299TIP3    H125456   6.226   1.864   7.943 -0.4791  1.6467  0.2717
 1299TIP3    H225457   6.285   1.842   7.805  1.1067  0.9827  1.0336
 1300TIP3   OH225458   2.444   0.121   2.822  0.1541  0.5542  0.2603
 1300TIP3    H125459   2.387   0.121   2.899  0.0922 -0.4980  0.2377
 1300TIP3    H225460   2.450   0.213   2.796 -1.9768  0.6472 -0.0685
 1301TIP3   OH225461   5.507   5.818   1.022 -0.2618 -0.1523 -0.1049
 1301TIP3    H125462   5.556   5.738   1.004  0.6463  0.5826 -0.9900
 1301TIP3    H225463   5.569   5.875   1.068 -0.4114  0.6040 -0.8036
 1302TIP3   OH225464   4.416   2.347   2.147  0.3387 -0.0820  0.5661
 1302TIP3    H125465   4.444   2.277   2.088 -2.6696 -1.8187  0.9856
 1302TIP3    H225466   4.421   2.308   2.235 -3.0524 -0.6056  0.6778
 1303TIP3   OH225467   0.963   2.260   2.036  0.1887  0.4632 -0.4780
 1303TIP3    H125468   1.007   2.273   2.120 -0.0562  0.7101 -0.3860
 1303TIP3    H225469   0.970   2.345   1.993  0.6766  0.2211 -0.8827
 1304TIP3   OH225470   5.709   4.773   2.172 -0.0126  0.0850 -0.1330
 1304TIP3    H125471   5.761   4.700   2.137 -0.4970 -1.0999  1.4432
 1304TIP3    H225472   5.695   4.749   2.264 -1.1687  1.6349  0.1300
 1305TIP3   OH225473   3.518   5.616   1.462 -0.0709  0.3283 -0.1928
 1305TIP3    H125474   3.541   5.537   1.414  0.5632  0.1342  0.4029
 1305TIP3    H225475   3.551   5.600   1.551  1.8711  2.0467 -0.5286
 1306TIP3   OH225476   2.029   1.786   1.889  0.8717 -0.3477  0.0356
 1306TIP3    H125477   1.966   1.804   1.820  0.9551  0.5621  0.1830
 1306TIP3    H225478   2.047   1.872   1.928  1.4658 -0.7306  0.6258
 1307TIP3   OH225479   5.093   0.505   2.259  0.0456  0.6265 -0.5017
 1307TIP3    H125480   5.025   0.483   2.323  0.5046  0.1571 -0.1606
 1307TIP3    H225481   5.110   0.598   2.271  1.8811  0.0761  1.8264
 1308TIP3   OH225482   6.514   5.736   1.293 -0.2562  0.1953  0.5124
 1308TIP3    H125483   6.592   5.770   1.249 -0.1907 -0.3319  0.2203
 1308TIP3    H225484   6.532   5.643   1.304 -0.6786  0.1494  0.8005
 1309TIP3   OH225485   0.926   4.966   2.274 -0.2734 -0.0975 -0.2723
 1309TIP3    H125486   0.989   4.899   2.303  0.4533  1.0816  0.9538
 1309TIP3    H225487   0.930   5.034   2.341 -3.3110 -0.2099  0.1793
 1310TIP3   OH225488   0.427   2.226   1.899  0.0139 -0.1596  0.7626
 1310TIP3    H125489   0.484   2.286   1.947  0.5913 -0.2120  0.1530
 1310TIP3    H225490   0.356   2.281   1.865  0.5413  0.1800  0.2034
 1311TIP3   OH225491   1.083   1.199   7.722 -0.1939 -0.5361  0.2954
 1311TIP3    H125492   1.017   1.131   7.735 -1.2090  0.2610 -0.4363
 1311TIP3    H225493   1.107   1.191   7.629  3.3765 -3.0637  1.2440
 1312TIP3   OH225494   5.576   1.450   2.814 -0.1113 -0.0862 -0.0655
 1312TIP3    H125495   5.666   1.460   2.782 -0.6299  3.3589 -0.7406
 1312TIP3    H225496   5.521   1.487   2.745 -1.9752 -0.7377  0.9894
 1313TIP3   OH225497   1.062   3.985   2.536  0.1118  0.2369 -0.3471
 1313TIP3    H125498   1.045   4.074   2.504 -0.1500  0.1612 -0.4198
 1313TIP3    H225499   1.094   3.998   2.625 -1.4446  0.3250  0.2202
 1314TIP3   OH225500   0.344   0.440   1.905  0.0524 -0.3985 -0.7901
 1314TIP3    H125501   0.420   0.482   1.864  0.0045  3.1297  2.1978
 1314TIP3    H225502   0.368   0.432   1.997 -3.0542  0.6851  0.2276
 1315TIP3   OH225503   5.086   4.163   8.698 -0.4882 -0.2121 -0.1549
 1315TIP3    H125504   5.104   4.084   8.647 -1.7909 -1.2165  0.8491
 1315TIP3    H225505   5.029   4.133   8.769 -0.5596  1.5428  0.5891
 1316TIP3   OH225506   3.038   0.873   2.653 -0.0367  0.0964  0.1839
 1316TIP3    H125507   3.066   0.888   2.743 -0.0967 -1.0967  0.4175
 1316TIP3    H225508   3.115   0.837   2.610 -0.5476 -1.1183  0.2577
 1317TIP3   OH225509   0.212   1.082   2.552  0.1402 -0.1744 -0.0229
 1317TIP3    H125510   0.177   1.156   2.601  1.5525 -0.9518  2.3773
 1317TIP3    H225511   0.307   1.088   2.565  0.3074 -2.2051  0.0184
 1318TIP3   OH225512   1.323   6.575   2.435 -0.2974 -0.1764 -0.0776
 1318TIP3    H125513   1.242   6.525   2.426 -0.6462  0.4966 -0.7868
 1318TIP3    H225514   1.332   6.591   2.529  0.0432 -1.9052  0.2125
 1319TIP3   OH225515   4.966   1.873   0.064 -0.2113  0.2392 -0.2659
 1319TIP3    H125516   4.885   1.859   0.014  0.2051  0.4458 -1.0146
 1319TIP3    H225517   5.035   1.872  -0.002  0.7751 -2.9717  0.6539
 1320TIP3   OH225518   4.306   1.057   7.886 -0.1417  0.2897  0.2932
 1320TIP3    H125519   4.217   1.067   7.854 -0.4799  0.0120  1.1169
 1320TIP3    H225520   4.353   1.016   7.814 -0.0303  2.7209 -1.1435
 1321TIP3   OH225521   1.664   4.140   8.940 -0.2394 -0.2388  0.3641
 1321TIP3    H125522   1.623   4.079   9.002  0.0054  1.0449  1.8663
 1321TIP3    H225523   1.757   4.122   8.947 -0.2985 -1.0383 -0.7124
 1322TIP3   OH225524   0.121   2.184   2.396  0.1605 -0.1882 -0.1099
 1322TIP3    H125525   0.203   2.157   2.355 -0.5899  0.7334 -2.3663
 1322TIP3    H225526   0.057   2.119   2.368 -0.0351 -0.5453  1.1101
 1323TIP3   OH225527   0.968   4.591   1.881 -0.0589  0.7490 -0.2247
 1323TIP3    H125528   0.983   4.640   1.801 -0.0222  0.6383 -0.2860
 1323TIP3    H225529   1.032   4.520   1.879  0.6668  1.3672  0.4246
 1324TIP3   OH225530   3.740   5.886   1.511 -0.0070  0.5649 -0.0805
 1324TIP3    H125531   3.658   5.878   1.463 -0.0213 -1.0698  0.1744
 1324TIP3    H225532   3.714   5.900   1.602 -0.0952 -2.0707  0.3718
 1325TIP3   OH225533   2.933   2.520   2.101 -0.6305  0.7722 -0.0558
 1325TIP3    H125534   2.914   2.556   2.187  2.1569  0.3324  0.8381
 1325TIP3    H225535   2.946   2.426   2.115 -1.3372  0.4773 -1.1913
 1326TIP3   OH225536   1.743   2.293   0.843  0.0762 -0.3122 -0.3538
 1326TIP3    H125537   1.742   2.197   0.842  0.1973 -0.3153 -1.7568
 1326TIP3    H225538   1.703   2.318   0.760  2.1496  0.8329 -1.0670
 1327TIP3   OH225539   4.621   0.033   7.688  0.1664 -0.2059  0.3916
 1327TIP3    H125540   4.700   0.014   7.738  0.5333 -0.9809 -0.4399
 1327TIP3    H225541   4.550  -0.004   7.740  0.1727  1.5332  1.7309
 1328TIP3   OH225542   5.555   1.104   8.229 -0.1038 -0.5599  0.1231
 1328TIP3    H125543   5.572   1.017   8.264 -0.7305 -0.7339 -0.0049
 1328TIP3    H225544   5.461   1.118   8.241 -0.2475 -0.4200 -1.0190
 1329TIP3   OH225545   5.833   1.672   2.299  0.1653  0.6947 -0.1279
 1329TIP3    H125546   5.885   1.701   2.224  3.0475  1.2849  1.9179
 1329TIP3    H225547   5.870   1.586   2.322  0.0595  0.9628  1.1652
 1330TIP3   OH225548   3.627   3.596   0.018 -0.0282  0.1489 -0.1679
 1330TIP3    H125549   3.607   3.682  -0.018 -0.9553  1.0494  2.2874
 1330TIP3    H225550   3.723   3.592   0.017  0.0296  1.2091 -0.3569
 1331TIP3   OH225551   1.737   1.120   2.377  0.3684  0.4665  0.6095
 1331TIP3    H125552   1.825   1.154   2.388  1.5031 -1.6969 -1.0366
 1331TIP3    H225553   1.721   1.067   2.456  2.4429 -2.7510 -0.9031
 1332TIP3   OH225554   3.216   1.090   0.772 -0.4058 -0.2653  0.0406
 1332TIP3    H125555   3.132   1.102   0.728 -1.1187 -1.7002  0.9457
 1332TIP3    H225556   3.198   1.111   0.863  0.6610  1.0744 -0.0281
 1333TIP3   OH225557   0.936   3.696   2.936  0.0304 -0.3117 -0.1204
 1333TIP3    H125558   0.896   3.741   3.010 -0.5531 -2.2096  0.7789
 1333TIP3    H225559   1.023   3.734   2.928 -0.4739  1.0302  0.4928
 1334TIP3   OH225560   5.639   0.305   8.155  0.4939  0.0589 -0.4172
 1334TIP3    H125561   5.549   0.309   8.187  0.2913  0.4505 -1.0010
 1334TIP3    H225562   5.632   0.262   8.070  0.7865  0.5301 -0.6880
 1335TIP3   OH225563   2.109   0.738   7.992 -0.8042  0.7722  0.0206
 1335TIP3    H125564   2.062   0.657   8.016 -1.2156  1.0034  0.0049
 1335TIP3    H225565   2.166   0.755   8.067  1.8682 -1.3877 -1.3415
 1336TIP3   OH225566   4.550   5.738   7.940 -0.3697 -0.3317  0.5780
 1336TIP3    H125567   4.521   5.786   7.863 -1.3456 -2.8736 -0.7856
 1336TIP3    H225568   4.626   5.786   7.972 -0.4784  1.3087 -1.4461
 1337TIP3   OH225569   1.076   3.157   0.223 -0.1709 -0.2077  0.2633
 1337TIP3    H125570   1.142   3.087   0.226 -0.6365 -0.6310  1.2190
 1337TIP3    H225571   1.111   3.224   0.282 -0.4874 -0.3508  0.6221
 1338TIP3   OH225572   3.530   1.136   2.429  0.3642 -0.2731 -0.1882
 1338TIP3    H125573   3.595   1.185   2.479  0.8647 -2.1733  1.1795
 1338TIP3    H225574   3.565   1.132   2.340  1.5538 -0.3057  0.2733
 1339TIP3   OH225575   3.314   0.810   7.711 -0.0975  0.0489 -0.0264
 1339TIP3    H125576   3.355   0.741   7.658  1.0605  2.2439 -2.2402
 1339TIP3    H225577   3.247   0.847   7.653  0.2254  1.6076  0.5507
 1340TIP3   OH225578   0.708   5.222   0.284  0.9383 -0.2563  0.3386
 1340TIP3    H125579   0.659   5.183   0.357 -0.1300 -0.6906 -0.5807
 1340TIP3    H225580   0.791   5.175   0.284 -0.0659 -2.1393 -0.3304
 1341TIP3   OH225581   6.018   2.865   1.918  0.4423  0.0866 -0.2934
 1341TIP3    H125582   6.106   2.831   1.903  0.5002 -0.4840  1.2620
 1341TIP3    H225583   6.015   2.945   1.865  1.1191 -1.0113 -2.0855
 1342TIP3   OH225584   4.400   5.955   8.160 -0.3321 -0.3363  0.1636
 1342TIP3    H125585   4.364   5.893   8.224  2.6749  0.3795  2.7903
 1342TIP3    H225586   4.465   6.005   8.209  2.9324 -0.3560 -3.6358
 1343TIP3   OH225587   0.512   4.295   8.208  0.3734 -0.3764 -0.0570
 1343TIP3    H125588   0.456   4.350   8.154 -0.1387 -0.7107  0.1119
 1343TIP3    H225589   0.460   4.215   8.221  1.1746 -0.9716 -0.4561
 1344TIP3   OH225590   5.110   1.405   8.544 -0.3807 -0.3172 -0.0738
 1344TIP3    H125591   5.041   1.339   8.545 -0.1013 -0.7445  3.1802
 1344TIP3    H225592   5.185   1.362   8.502 -1.8631  0.0437 -3.3389
 1345TIP3   OH225593   0.205   0.771   1.271  0.0150  0.3970  0.2884
 1345TIP3    H125594   0.225   0.681   1.247 -0.1145  0.4183  0.0947
 1345TIP3    H225595   0.222   0.775   1.365  1.0705  0.4651  0.1047
 1346TIP3   OH225596   3.401   4.963   9.273 -0.0747 -0.6628  0.0886
 1346TIP3    H125597   3.340   5.027   9.237  0.0832 -1.2075 -1.1976
 1346TIP3    H225598   3.484   5.010   9.278  0.3298 -1.0298 -1.9611
 1347TIP3   OH225599   2.032   3.074   2.360 -0.0158  0.5995 -0.1732
 1347TIP3    H125600   1.965   3.141   2.346 -0.5621 -0.0441 -0.6635
 1347TIP3    H225601   2.081   3.106   2.436 -0.8042  1.1312  0.1290
 1348TIP3   OH225602   4.149   4.712   0.675 -0.3334 -0.1266 -0.3586
 1348TIP3    H125603   4.170   4.636   0.621  0.3021 -1.0291  1.0935
 1348TIP3    H225604   4.219   4.716   0.740  0.6836  2.8196 -1.4568
 1349TIP3   OH225605   2.595   1.056   0.756 -0.1136  0.3417 -0.5987
 1349TIP3    H125606   2.534   1.044   0.829 -1.4245  1.2847 -1.5048
 1349TIP3    H225607   2.669   1.103   0.794  0.3299 -1.2593  0.6342
 1350TIP3   OH225608   0.547   4.854   0.786  0.4880 -0.4023  0.5764
 1350TIP3    H125609   0.524   4.915   0.856  0.8258  0.0182  0.3307
 1350TIP3    H225610   0.538   4.767   0.825  0.4139 -0.1789  1.0595
 1351TIP3   OH225611   6.071   1.327   7.197 -0.3868 -0.4667 -0.3264
 1351TIP3    H125612   6.142   1.280   7.153 -0.2213 -0.3387 -0.1981
 1351TIP3    H225613   6.110   1.411   7.222 -1.0772  0.3613 -1.8703
 1352TIP3   OH225614   6.395   2.490   0.192 -0.0709  0.1463 -0.0137
 1352TIP3    H125615   6.431   2.563   0.242  0.4202 -0.2786  0.2615
 1352TIP3    H225616   6.437   2.412   0.229 -0.8126 -0.3034 -0.1037
 1353TIP3   OH225617   0.783   0.983   0.918  0.0150 -0.0050  0.0727
 1353TIP3    H125618   0.852   1.029   0.966 -0.3713 -0.1832  0.8158
 1353TIP3    H225619   0.778   0.897   0.960 -1.0451  0.2112  0.4164
 1354TIP3   OH225620   2.282   0.333   2.689 -0.5018 -0.2145 -0.3664
 1354TIP3    H125621   2.372   0.359   2.711 -0.3319 -0.6455 -0.5517
 1354TIP3    H225622   2.256   0.394   2.621  0.0561 -0.7959 -1.1153
 1355TIP3   OH225623   2.791   3.383   7.973 -0.0442  0.0121  0.6939
 1355TIP3    H125624   2.799   3.359   7.881  1.3690  0.5409  0.6592
 1355TIP3    H225625   2.703   3.354   7.998  0.0462 -1.3300 -0.4595
 1356TIP3   OH225626   4.162   1.137   8.506 -0.1874 -0.4177  0.2714
 1356TIP3    H125627   4.085   1.175   8.548  0.0684  0.5014 -0.0680
 1356TIP3    H225628   4.181   1.059   8.558 -0.9058 -0.2526  0.8042
 1357TIP3   OH225629   2.911   5.789   1.577 -0.0568 -0.0027 -0.6355
 1357TIP3    H125630   2.956   5.762   1.496  1.6714 -1.1178  0.6346
 1357TIP3    H225631   2.927   5.883   1.582  0.9149 -0.1278 -0.9844
 1358TIP3   OH225632   3.378   0.706   0.626 -0.6837 -0.5030 -0.0656
 1358TIP3    H125633   3.358   0.785   0.677 -1.2293 -1.7426  1.7342
 1358TIP3    H225634   3.439   0.657   0.682  0.2105 -1.0480 -1.4735
 1359TIP3   OH225635   0.596   2.341   1.421 -0.4351 -0.1371 -0.2010
 1359TIP3    H125636   0.612   2.424   1.466  0.7443  0.3950 -1.5381
 1359TIP3    H225637   0.511   2.312   1.454 -0.3905  1.0824  1.0550
 1360TIP3   OH225638   0.764   2.094   1.843 -0.1194 -0.2150  0.5069
 1360TIP3    H125639   0.806   2.151   1.907  0.7287 -0.4733  0.1877
 1360TIP3    H225640   0.803   2.008   1.857  0.9902 -0.0306 -1.1401
 1361TIP3   OH225641   0.243   1.261   1.783 -0.0476 -0.2005  0.0713
 1361TIP3    H125642   0.267   1.274   1.875  0.1306  0.9098 -0.1071
 1361TIP3    H225643   0.306   1.197   1.751  0.6937  0.3257  0.4252
 1362TIP3   OH225644   4.521   1.411   7.986  0.4237  0.1323 -0.1342
 1362TIP3    H125645   4.509   1.400   7.892  1.2181 -0.2666 -0.1951
 1362TIP3    H225646   4.449   1.469   8.013  0.9463  1.3032 -1.1938
 1363TIP3   OH225647   5.529   3.055   0.348  0.6307 -0.4106 -0.1588
 1363TIP3    H125648   5.484   3.087   0.270 -0.5034 -0.5511  0.4115
 1363TIP3    H225649   5.520   2.960   0.344 -2.8209 -0.3596  1.9749
 1364TIP3   OH225650   1.566   0.609   1.574  0.5469  0.1560  0.3040
 1364TIP3    H125651   1.640   0.626   1.633  0.5409  2.1796 -0.1959
 1364TIP3    H225652   1.496   0.578   1.632  1.4037 -0.6477  0.9426
 1365TIP3   OH225653   1.455   5.557   8.513  0.4513 -0.2413  0.3449
 1365TIP3    H125654   1.535   5.591   8.473 -0.7134 -0.0178 -1.9581
 1365TIP3    H225655   1.473   5.464   8.527  1.4264 -0.0082  0.7782
 1366TIP3   OH225656   0.909   4.447   9.127 -0.3401  0.0920  0.3367
 1366TIP3    H125657   0.966   4.522   9.145  1.4999 -1.1873  0.1068
 1366TIP3    H225658   0.924   4.387   9.200 -0.4247 -0.8070 -0.3627
 1367TIP3   OH225659   2.571   3.293   6.837 -0.4501 -0.2070  0.1294
 1367TIP3    H125660   2.634   3.359   6.868  0.2169  0.9928 -3.3322
 1367TIP3    H225661   2.597   3.212   6.881  0.5642  1.2111  2.2891
 1368TIP3   OH225662   4.319   5.971   2.680 -0.4630  0.1689  0.2315
 1368TIP3    H125663   4.268   6.015   2.613 -1.0997  0.0994  0.6556
 1368TIP3    H225664   4.285   5.881   2.680  0.6175 -0.2590 -0.4269
 1369TIP3   OH225665   1.110   4.835   2.003  0.6144 -0.3711  0.0228
 1369TIP3    H125666   1.086   4.913   2.053 -0.5501 -0.2775 -0.6554
 1369TIP3    H225667   1.108   4.764   2.067 -0.1638 -0.1422  0.2671
 1370TIP3   OH225668   5.344   3.553   8.778 -0.7871  0.2142 -0.2871
 1370TIP3    H125669   5.321   3.636   8.737  2.9379  1.3465 -0.4366
 1370TIP3    H225670   5.388   3.504   8.709 -0.5073 -0.7345  0.5461
 1371TIP3   OH225671   0.720   0.136   8.139  0.1511 -0.4156 -0.0072
 1371TIP3    H125672   0.736   0.209   8.079  1.2749  0.9191  1.7924
 1371TIP3    H225673   0.625   0.134   8.150 -0.0129 -0.2733 -1.3198
 1372TIP3   OH225674   2.498   1.247   2.427  0.0665  0.4228 -0.9322
 1372TIP3    H125675   2.573   1.211   2.475 -1.5306 -0.2191  1.2263
 1372TIP3    H225676   2.429   1.254   2.493 -0.7051  4.6418 -1.8868
 1373TIP3   OH225677   2.647   1.274   0.247 -0.2058  0.3871 -0.3022
 1373TIP3    H125678   2.637   1.368   0.233 -0.5047  0.6680  1.5143
 1373TIP3    H225679   2.570   1.235   0.205 -0.8009  1.1027  0.0971
 1374TIP3   OH225680   2.606   2.199   7.696  0.3157 -0.2010 -0.0310
 1374TIP3    H125681   2.695   2.210   7.663  0.1240 -0.1219 -0.5313
 1374TIP3    H225682   2.551   2.212   7.619 -0.2230  1.5946  0.6019
 1375TIP3   OH225683   4.196   4.831   7.925  0.3150 -0.4526 -0.4453
 1375TIP3    H125684   4.118   4.844   7.872 -0.4236  0.1522  0.7502
 1375TIP3    H225685   4.194   4.738   7.948 -0.2583 -0.3608 -0.1145
 1376TIP3   OH225686   2.018   4.742   2.580  0.3606 -0.1780  0.8627
 1376TIP3    H125687   1.947   4.807   2.582  0.4532 -0.0986  1.8813
 1376TIP3    H225688   1.978   4.665   2.540  0.2366  0.4784 -0.3471
 1377TIP3   OH225689   5.416   2.132   8.404  0.2054  0.0035 -0.2099
 1377TIP3    H125690   5.382   2.070   8.339  0.6991 -1.6153  0.9895
 1377TIP3    H225691   5.463   2.076   8.467  3.0037  1.8462 -0.4936
 1378TIP3   OH225692   1.441   5.215   0.612 -0.4287  0.1835  0.0267
 1378TIP3    H125693   1.355   5.181   0.637  0.0296 -0.0923  1.2929
 1378TIP3    H225694   1.453   5.185   0.522 -1.7486  0.4160 -0.2528
 1379TIP3   OH225695   3.895   4.672   1.082 -0.2235 -0.5962  0.6941
 1379TIP3    H125696   3.971   4.618   1.063 -0.2947 -0.6390  0.5327
 1379TIP3    H225697   3.838   4.617   1.134 -0.3509 -0.7189  0.4274
 1380TIP3   OH225698   3.734   3.042   0.254  0.6166 -0.2301  0.2570
 1380TIP3    H125699   3.789   3.044   0.175  0.5204 -2.2865  0.0824
 1380TIP3    H225700   3.677   3.118   0.245  1.2995  0.1605 -1.1403
 1381TIP3   OH225701   3.376   5.834   3.159  0.5995  0.1296 -0.0204
 1381TIP3    H125702   3.339   5.920   3.141 -0.0511 -0.0061  0.6270
 1381TIP3    H225703   3.301   5.774   3.152  0.9079 -0.2901  0.2248
 1382TIP3   OH225704   4.252   1.379   1.031  0.1709 -0.4310  0.1019
 1382TIP3    H125705   4.183   1.446   1.036 -1.6942 -2.0305 -2.0180
 1382TIP3    H225706   4.327   1.425   0.994  0.0322  1.1957  1.7149
 1383TIP3   OH225707   3.911   1.510   1.829  0.2456  0.1412 -0.5654
 1383TIP3    H125708   3.974   1.512   1.900  0.6855 -0.5756 -0.9242
 1383TIP3    H225709   3.960   1.539   1.752 -0.4936  1.9645 -0.4037
 1384TIP3   OH225710   5.838   6.195   8.054 -0.2950 -0.4573 -0.1222
 1384TIP3    H125711   5.858   6.120   8.110  0.4806  0.1541  0.4497
 1384TIP3    H225712   5.899   6.188   7.981 -0.0487 -0.2640  0.0592
 1385TIP3   OH225713   5.366   3.762   2.003 -0.2714 -0.2747 -0.7537
 1385TIP3    H125714   5.305   3.692   2.026 -0.5349 -0.0536 -0.7743
 1385TIP3    H225715   5.438   3.718   1.957 -0.2815 -0.5719 -0.4890
 1386TIP3   OH225716   4.483   4.422   2.876  0.1455 -0.0572 -0.0537
 1386TIP3    H125717   4.563   4.369   2.873 -0.3979 -0.8979 -0.0315
 1386TIP3    H225718   4.469   4.438   2.970  0.5122  0.4640 -0.0789
 1387TIP3   OH225719   2.936   5.876   0.928 -0.2132  0.0584  0.4003
 1387TIP3    H125720   3.026   5.858   0.901 -1.3204 -0.2521 -3.9056
 1387TIP3    H225721   2.941   5.887   1.023  4.4071  0.6371  0.3367
 1388TIP3   OH225722   5.595   0.678   3.157 -0.0598 -0.3016 -0.0735
 1388TIP3    H125723   5.687   0.676   3.131 -0.5307 -1.2597 -1.8704
 1388TIP3    H225724   5.591   0.628   3.238  1.0870  0.3090  0.3771
 1389TIP3   OH225725   0.720   2.264   2.912 -0.2837 -0.0207  0.5303
 1389TIP3    H125726   0.630   2.281   2.884 -0.2420  0.0928  0.4654
 1389TIP3    H225727   0.711   2.223   2.998 -0.4315 -0.6694  0.2174
 1390TIP3   OH225728   0.151   5.657   8.365  0.0661  0.4080 -0.2252
 1390TIP3    H125729   0.211   5.653   8.440 -0.1026 -1.0400 -0.1343
 1390TIP3    H225730   0.070   5.619   8.398  0.1313 -0.6638 -1.2641
 1391TIP3   OH225731   5.037   5.144   1.581  0.0228 -0.0331 -0.3162
 1391TIP3    H125732   5.022   5.073   1.644 -0.2373 -0.8837 -1.3121
 1391TIP3    H225733   4.954   5.191   1.577 -1.2527 -2.2442 -2.7510
 1392TIP3   OH225734   2.275   2.912   2.142 -0.1809 -0.0608 -0.3023
 1392TIP3    H125735   2.319   2.898   2.226  1.6259 -1.9141 -1.4666
 1392TIP3    H225736   2.195   2.859   2.148 -0.9519  1.1808  0.8389
 1393TIP3   OH225737   3.228   5.816   2.128  0.2704  0.1237 -0.3251
 1393TIP3    H125738   3.308   5.803   2.178  0.0096  0.4621  0.1864
 1393TIP3    H225739   3.171   5.744   2.153 -0.0467  0.5626  0.2545
 1394TIP3   OH225740   6.269   0.098   1.049  0.1771  0.1813 -0.3408
 1394TIP3    H125741   6.325   0.049   1.110  1.3595  2.1328  0.2490
 1394TIP3    H225742   6.180   0.080   1.078  0.6596 -0.2036  0.9783
 1395TIP3   OH225743   5.203   3.810   9.238  0.2597  0.1286  0.4317
 1395TIP3    H125744   5.270   3.770   9.294  1.1310 -0.4769 -1.0151
 1395TIP3    H225745   5.131   3.831   9.299  1.4800  0.2035  1.9051
 1396TIP3   OH225746   6.418   0.124   8.943 -0.4574 -0.3785  0.3828
 1396TIP3    H125747   6.332   0.145   8.906 -0.2109  0.8464  0.4569
 1396TIP3    H225748   6.473   0.198   8.919  0.4930 -0.9818  0.6472
 1397TIP3   OH225749   6.219   2.882   8.371  0.0868 -0.1709  0.5816
 1397TIP3    H125750   6.123   2.876   8.370  0.1500 -1.5875 -0.7063
 1397TIP3    H225751   6.239   2.956   8.314 -0.2243  0.1009  0.8163
 1398TIP3   OH225752   0.599   1.564   0.492  0.1052 -0.2401  0.7112
 1398TIP3    H125753   0.532   1.590   0.428  1.0919  1.6188  0.3524
 1398TIP3    H225754   0.630   1.479   0.460  0.3568  0.4954 -1.1520
 1399TIP3   OH225755   1.233   5.707   3.053 -0.2794 -0.2029 -0.1860
 1399TIP3    H125756   1.215   5.774   2.987 -2.7004 -1.0153 -0.4628
 1399TIP3    H225757   1.292   5.750   3.115 -2.5016  2.6491  0.2266
 1400TIP3   OH225758   4.000   5.770   1.784 -0.5775  0.0327  0.2143
 1400TIP3    H125759   3.990   5.709   1.712 -0.0978  1.0615 -0.7445
 1400TIP3    H225760   3.931   5.835   1.771  0.0272  0.6879  0.1838
 1401TIP3   OH225761   2.285   1.000   1.370 -0.5203  0.1705 -0.1321
 1401TIP3    H125762   2.336   0.967   1.444  0.0275  0.4015 -0.3997
 1401TIP3    H225763   2.227   0.927   1.346  0.6759 -0.6245 -0.7205
 1402TIP3   OH225764   0.029   1.438   8.106 -0.2572 -0.1737  0.4209
 1402TIP3    H125765  -0.040   1.499   8.080  0.0371  0.4472  1.0862
 1402TIP3    H225766   0.004   1.355   8.065 -1.3111  0.0871  0.5111
 1403TIP3   OH225767   5.317   4.198   7.794 -0.1357  0.9611 -0.6322
 1403TIP3    H125768   5.240   4.252   7.811 -1.3883 -0.7466 -0.6337
 1403TIP3    H225769   5.314   4.181   7.700 -0.4140 -0.0470 -0.4489
 1404TIP3   OH225770   1.541   3.903   8.247 -0.3825 -0.3272  0.0699
 1404TIP3    H125771   1.632   3.872   8.244 -0.7663 -1.4716 -2.5442
 1404TIP3    H225772   1.530   3.936   8.336  2.0320 -1.8302  1.0257
 1405TIP3   OH225773   4.591   0.355   8.560  0.4717 -0.7716 -0.2061
 1405TIP3    H125774   4.507   0.345   8.516  0.0828  0.1512  0.3042
 1405TIP3    H225775   4.609   0.269   8.597  0.0869 -1.1582 -0.8915
 1406TIP3   OH225776   3.587   3.366   8.167 -0.3335  0.7762  0.2637
 1406TIP3    H125777   3.615   3.336   8.254 -2.0280 -1.1469  0.2446
 1406TIP3    H225778   3.571   3.285   8.118 -3.3404  1.7124 -0.4968
 1407TIP3   OH225779   1.498   3.542   8.719  0.8453 -0.4420 -0.3877
 1407TIP3    H125780   1.499   3.629   8.681  1.3655 -0.6143 -0.7842
 1407TIP3    H225781   1.444   3.550   8.798  1.6928  0.4757  0.1231
 1408TIP3   OH225782   4.171   1.563   2.371  0.5450  0.4663 -0.0716
 1408TIP3    H125783   4.093   1.617   2.384  0.7109  0.7438 -0.2186
 1408TIP3    H225784   4.235   1.623   2.333  0.5046 -0.0107 -0.9060
 1409TIP3   OH225785   1.774   1.712   7.961 -0.6833  0.0207  0.2409
 1409TIP3    H125786   1.866   1.709   7.986 -0.4404  1.1253 -0.4498
 1409TIP3    H225787   1.772   1.766   7.881 -2.0336  0.9180  0.8296
 1410TIP3   OH225788   6.383   0.527   8.474  0.2267 -0.1834  0.4367
 1410TIP3    H125789   6.443   0.593   8.509 -1.2283  0.3309  2.0566
 1410TIP3    H225790   6.435   0.446   8.471  0.8973  0.1571  2.1722
 1411TIP3   OH225791   3.720   5.086   0.736  0.1005  0.6692 -0.4333
 1411TIP3    H125792   3.651   5.021   0.723 -0.0602  0.3018  1.7575
 1411TIP3    H225793   3.685   5.145   0.803  1.0249  1.8300 -0.9413
 1412TIP3   OH225794   2.420   3.134   1.158  0.1222  0.0029 -0.4536
 1412TIP3    H125795   2.386   3.120   1.246  1.6003  0.7227  0.2645
 1412TIP3    H225796   2.347   3.174   1.111 -0.3769  0.5445  0.7386
 1413TIP3   OH225797   5.128   6.231   8.137  0.2076  0.0437  0.2016
 1413TIP3    H125798   5.056   6.201   8.082  0.5708  0.2366 -0.3929
 1413TIP3    H225799   5.127   6.173   8.213  0.1962 -0.7454 -0.3888
 1414TIP3   OH225800   3.589   2.760   0.537  0.2938  0.4868 -0.4600
 1414TIP3    H125801   3.553   2.849   0.544 -0.3127  0.2765 -0.8143
 1414TIP3    H225802   3.533   2.707   0.594  1.8604  0.6614  1.3338
 1415TIP3   OH225803   4.018   3.858   1.623  0.1580  0.6126 -0.0892
 1415TIP3    H125804   3.943   3.897   1.579  0.5511  0.9180 -0.5074
 1415TIP3    H225805   4.094   3.888   1.572  0.6066  0.7790  0.6557
 1416TIP3   OH225806   2.240   2.555   3.223  0.1703 -0.5346 -0.3813
 1416TIP3    H125807   2.177   2.562   3.295  1.2127  2.2840  0.3524
 1416TIP3    H225808   2.287   2.474   3.241 -0.9012 -0.8987  0.9968
 1417TIP3   OH225809   1.658   4.593   3.239  0.0591  0.6078  0.0125
 1417TIP3    H125810   1.671   4.625   3.329  1.1366  1.6981 -0.5104
 1417TIP3    H225811   1.741   4.553   3.215 -0.1416  0.5472 -0.5920
 1418TIP3   OH225812   1.051   2.705   1.730  0.0069  0.1290  0.1351
 1418TIP3    H125813   1.120   2.749   1.681  1.6631 -0.5088  1.7807
 1418TIP3    H225814   1.004   2.777   1.773  0.1117  0.5231 -0.3952
 1419TIP3   OH225815   4.866   1.629   8.380 -0.4841 -0.3953  0.0073
 1419TIP3    H125816   4.855   1.583   8.463 -1.5879 -2.6719 -1.3042
 1419TIP3    H225817   4.799   1.698   8.381  0.1064  0.1970  1.3242
 1420TIP3   OH225818   1.126   3.433   2.661  0.2482 -0.2130  0.4301
 1420TIP3    H125819   1.076   3.366   2.707 -1.0079  0.6135  0.3109
 1420TIP3    H225820   1.202   3.449   2.717  0.4472 -1.5473  0.5761
 1421TIP3   OH225821   0.600   6.578   7.833  0.5258 -0.2497 -0.3800
 1421TIP3    H125822   0.537   6.649   7.851  0.2554 -1.0321  2.2327
 1421TIP3    H225823   0.558   6.525   7.766 -0.3991  0.7132 -0.5922
 1422TIP3   OH225824   0.796   6.278   7.665 -0.3866  0.3889  0.2118
 1422TIP3    H125825   0.818   6.192   7.700 -0.6536  0.8434  1.5379
 1422TIP3    H225826   0.711   6.299   7.705 -1.0703  0.6259 -1.2789
 1423TIP3   OH225827   1.443   1.171   0.684  0.4668 -0.5987  0.0033
 1423TIP3    H125828   1.365   1.166   0.739 -0.1657  0.3897 -0.7896
 1423TIP3    H225829   1.421   1.121   0.606  1.7601 -2.9543  1.0251
 1424TIP3   OH225830   1.904   2.530   8.264 -0.0559 -0.1440  0.5883
 1424TIP3    H125831   1.825   2.527   8.211  0.3578  1.0636 -0.1393
 1424TIP3    H225832   1.879   2.578   8.343 -0.0190  0.3539  0.2979
 1425TIP3   OH225833   2.401   1.563   2.535 -0.0470 -0.5302  0.6257
 1425TIP3    H125834   2.351   1.535   2.611  0.2696  0.6221  1.2902
 1425TIP3    H225835   2.459   1.632   2.568 -0.5496  0.6573 -0.8271
 1426TIP3   OH225836   6.292   3.459   0.462  0.0981  0.2535 -0.0591
 1426TIP3    H125837   6.357   3.401   0.422 -1.2359 -1.1270 -0.3186
 1426TIP3    H225838   6.264   3.413   0.541  1.0311  1.8906  1.2992
 1427TIP3   OH225839   1.140   6.044   0.770 -0.0000 -0.0169 -0.7454
 1427TIP3    H125840   1.217   6.036   0.713  0.1137 -0.4685 -0.5390
 1427TIP3    H225841   1.091   5.963   0.756  1.8815 -1.9308  2.4275
 1428TIP3   OH225842   2.113   3.173   0.720 -0.4360 -0.9172  0.0147
 1428TIP3    H125843   2.179   3.124   0.671 -1.2373 -1.3667 -0.6436
 1428TIP3    H225844   2.057   3.106   0.759  0.0532 -0.5601  1.3691
 1429TIP3   OH225845   2.473   2.445   8.026  0.4995  0.3225  0.9167
 1429TIP3    H125846   2.515   2.359   8.026 -0.7095 -0.3679 -1.1630
 1429TIP3    H225847   2.379   2.425   8.020  0.1882  1.7829  0.5995
 1430TIP3   OH225848   5.690   4.490   1.619  0.0121  0.3428  0.3695
 1430TIP3    H125849   5.682   4.573   1.664  2.1675  0.7664  0.0793
 1430TIP3    H225850   5.758   4.442   1.667 -0.3692 -0.7751 -0.1510
 1431TIP3   OH225851   5.152   3.567   8.190 -0.4315  0.0482  0.3597
 1431TIP3    H125852   5.156   3.648   8.139  0.7939 -0.3734 -0.2703
 1431TIP3    H225853   5.081   3.517   8.151 -1.2127  0.8251  0.7721
 1432TIP3   OH225854   3.662   5.276   8.614 -0.2360  0.1290 -0.3959
 1432TIP3    H125855   3.657   5.210   8.683  1.7277 -0.0705 -0.3910
 1432TIP3    H225856   3.723   5.342   8.647 -1.4418  1.5177 -0.7929
 1433TIP3   OH225857   3.337   0.458   3.196  0.1511 -0.2138 -0.7406
 1433TIP3    H125858   3.385   0.537   3.223  1.6457 -1.4584  0.4557
 1433TIP3    H225859   3.251   0.467   3.237  0.8901  0.0266  0.8679
 1434TIP3   OH225860   5.028   5.911   9.178  0.0871  0.0180  0.2853
 1434TIP3    H125861   4.946   5.960   9.177 -1.0426 -1.7574  1.7316
 1434TIP3    H225862   5.051   5.901   9.085  0.8136  3.8450 -0.1075
 1435TIP3   OH225863   6.119   4.670   0.696  0.2290 -0.8480  0.1115
 1435TIP3    H125864   6.034   4.633   0.672  0.3292 -0.3690 -1.0633
 1435TIP3    H225865   6.180   4.596   0.691  0.2095 -0.8145 -1.0136
 1436TIP3   OH225866   4.720   3.725   2.517 -0.3379  0.0680 -0.1391
 1436TIP3    H125867   4.626   3.738   2.507 -0.4923 -1.8326 -1.8522
 1436TIP3    H225868   4.732   3.706   2.610 -1.7865 -0.4836 -0.0400
 1437TIP3   OH225869   5.225   1.467   8.290  0.2687 -0.3884 -0.2571
 1437TIP3    H125870   5.250   1.459   8.382  1.6994  0.6440 -0.5332
 1437TIP3    H225871   5.189   1.555   8.282 -1.8169 -1.1767 -0.2917
 1438TIP3   OH225872   2.112   6.164   2.717 -0.6055 -0.1480  0.0910
 1438TIP3    H125873   2.030   6.142   2.763  0.4648 -0.0858  2.1463
 1438TIP3    H225874   2.160   6.082   2.713 -1.0318 -0.3511 -1.7986
 1439TIP3   OH225875   4.417   3.279   1.663  0.2857 -0.4118  0.6118
 1439TIP3    H125876   4.466   3.226   1.727  0.1788 -1.3334 -0.0416
 1439TIP3    H225877   4.430   3.233   1.580 -0.8351 -0.0813  0.2430
 1440TIP3   OH225878   3.085   2.995   1.772  0.0288 -0.2402  0.8192
 1440TIP3    H125879   3.139   2.985   1.851  0.6779  1.4458  0.6264
 1440TIP3    H225880   3.101   2.915   1.722  0.1662 -1.0112  2.0554
 1441TIP3   OH225881   5.932   2.500   0.124 -0.2020  0.5810  0.5282
 1441TIP3    H125882   5.973   2.559   0.187  0.1913 -0.3523  1.1702
 1441TIP3    H225883   6.005   2.454   0.082 -0.5317 -1.0300  1.6157
 1442TIP3   OH225884   3.592   5.925   1.268  0.0781  0.1279 -0.0247
 1442TIP3    H125885   3.640   5.927   1.185  0.2503  0.1377  0.0757
 1442TIP3    H225886   3.613   6.009   1.309 -0.8904  0.6122 -0.4727
 1443TIP3   OH225887   0.790   3.905   2.688 -0.4321 -0.2861  0.6677
 1443TIP3    H125888   0.817   3.818   2.716 -0.2729 -0.0254  1.3227
 1443TIP3    H225889   0.871   3.947   2.658 -0.5526 -0.4557  0.0855
 1444TIP3   OH225890   4.006   4.412   1.915 -0.1864 -0.4510 -0.4621
 1444TIP3    H125891   4.082   4.374   1.960  0.2195  1.3357  0.4446
 1444TIP3    H225892   4.042   4.456   1.839 -0.5775 -1.2931 -1.1506
 1445TIP3   OH225893   1.994   2.815   0.245  0.1242 -0.4229  0.2668
 1445TIP3    H125894   2.028   2.727   0.256  0.8807 -0.0909  0.6585
 1445TIP3    H225895   1.951   2.814   0.159 -0.7301 -1.4302  0.6787
 1446TIP3   OH225896   1.914   5.936   9.249 -0.6851 -0.2478  0.0302
 1446TIP3    H125897   1.893   6.006   9.187 -2.5738  0.1059  0.9894
 1446TIP3    H225898   1.849   5.946   9.319 -0.0730 -2.0566  0.9139
 1447TIP3   OH225899   2.943   0.779   1.450  0.3315 -0.1259 -0.4141
 1447TIP3    H125900   2.962   0.694   1.411 -2.2987  0.8307 -4.2784
 1447TIP3    H225901   2.874   0.761   1.514  0.0901 -0.9338 -0.8981
 1448TIP3   OH225902   4.801   3.065   2.720 -0.3279 -0.5419 -0.1947
 1448TIP3    H125903   4.822   3.116   2.641  0.3360 -0.5347 -0.0228
 1448TIP3    H225904   4.875   3.004   2.728  1.3053  1.5432  2.1829
 1449TIP3   OH225905   3.578   0.145   2.581  0.5387  0.0359 -0.3179
 1449TIP3    H125906   3.601   0.054   2.598  0.5485  0.4439  2.3470
 1449TIP3    H225907   3.491   0.156   2.619  0.5942  1.1447 -0.4650
 1450TIP3   OH225908   2.229   6.542   0.365 -0.4396  0.4236 -0.2203
 1450TIP3    H125909   2.150   6.537   0.311 -0.5664  1.1922 -0.1188
 1450TIP3    H225910   2.262   6.631   0.351  0.1638  0.2517  0.0780
 1451TIP3   OH225911   5.878   4.592   2.021  0.1703 -0.7167 -0.3177
 1451TIP3    H125912   5.935   4.624   1.950 -0.5546  0.0183 -0.5810
 1451TIP3    H225913   5.936   4.537   2.074  0.8835 -0.7904 -1.1324
 1452TIP3   OH225914   6.028   2.276   2.503  0.1833  0.2465 -0.2233
 1452TIP3    H125915   6.002   2.196   2.456 -1.1716  0.9856 -0.8096
 1452TIP3    H225916   6.081   2.245   2.577  0.5642 -1.1014 -1.0326
 1453TIP3   OH225917   4.665   5.394   8.117  0.6527  0.5534  0.3789
 1453TIP3    H125918   4.605   5.443   8.174  0.2243 -0.1684  0.5604
 1453TIP3    H225919   4.729   5.459   8.088  1.0346  0.8929  1.8876
 1454TIP3   OH225920   2.963   1.884   8.847 -0.5584  0.0766 -0.0940
 1454TIP3    H125921   3.041   1.869   8.901 -0.1210  0.1291 -0.7054
 1454TIP3    H225922   2.892   1.897   8.911  0.2963  2.0568  0.5080
 1455TIP3   OH225923   6.049   4.380   7.920 -0.4709  0.0796 -0.0885
 1455TIP3    H125924   6.058   4.464   7.965  0.5471  0.2872 -0.6440
 1455TIP3    H225925   6.137   4.362   7.886 -0.8380 -0.8790 -0.5551
 1456TIP3   OH225926   5.705   0.409   0.502  0.0616 -0.4713 -0.2330
 1456TIP3    H125927   5.726   0.368   0.586 -1.4340 -0.6535  0.0862
 1456TIP3    H225928   5.650   0.345   0.457 -1.5506  0.7505 -0.1145
 1457TIP3   OH225929   5.705   5.184   1.115 -0.1635  0.7188  0.1226
 1457TIP3    H125930   5.746   5.105   1.082 -0.0556  1.0411 -0.5240
 1457TIP3    H225931   5.776   5.247   1.123 -0.2560  0.7686  0.5883
 1458TIP3   OH225932   1.026   1.757   1.262 -0.3279 -0.5041 -0.4325
 1458TIP3    H125933   1.064   1.816   1.196 -0.7713 -0.3703 -0.5734
 1458TIP3    H225934   0.995   1.682   1.211  0.8244 -1.1798 -0.1820
 1459TIP3   OH225935   2.501   4.518   7.700  0.4828 -0.1302  0.2109
 1459TIP3    H125936   2.428   4.564   7.740 -1.4419 -1.9232 -1.0391
 1459TIP3    H225937   2.478   4.425   7.708  2.3858 -0.7293 -0.6880
 1460TIP3   OH225938   5.749   6.405   0.447  0.6052  0.2622  0.6446
 1460TIP3    H125939   5.736   6.362   0.532  0.0427 -0.8564  0.0109
 1460TIP3    H225940   5.766   6.496   0.470 -0.8454  0.2658  1.9320
 1461TIP3   OH225941   2.011   3.780   0.513 -0.6350 -0.3041 -0.0798
 1461TIP3    H125942   1.944   3.755   0.449 -2.0241  3.1747 -0.1669
 1461TIP3    H225943   1.980   3.742   0.596 -2.0816  0.2300 -0.3551
 1462TIP3   OH225944   4.211   1.719   1.926 -0.1798  0.1788  0.5241
 1462TIP3    H125945   4.176   1.729   1.837 -2.4004  2.0987  1.5081
 1462TIP3    H225946   4.297   1.760   1.923  0.6497 -1.5033 -1.1389
 1463TIP3   OH225947   5.256   1.022   0.536  0.1545  0.5966  0.0151
 1463TIP3    H125948   5.203   1.049   0.611  1.5150 -0.6312  1.4970
 1463TIP3    H225949   5.331   1.082   0.537  0.4772  0.1962  0.0112
 1464TIP3   OH225950   5.428   6.063   0.960  0.2765 -0.0987  0.2739
 1464TIP3    H125951   5.435   6.110   0.877 -0.8967 -0.6430 -0.1573
 1464TIP3    H225952   5.442   5.971   0.937  0.8294 -0.1642  0.8315
 1465TIP3   OH225953   0.298   5.519   9.172  0.1039 -0.4168 -0.3861
 1465TIP3    H125954   0.203   5.529   9.170  0.2799  3.3337 -3.4505
 1465TIP3    H225955   0.323   5.545   9.260 -1.6697 -1.1229  0.3621
 1466TIP3   OH225956   1.661   2.842   1.821 -0.2251 -0.3244  0.1966
 1466TIP3    H125957   1.750   2.808   1.827 -0.0293  0.4793  2.9512
 1466TIP3    H225958   1.607   2.776   1.865 -0.8406 -0.2822 -0.4756
 1467TIP3   OH225959   1.281   5.348   2.018 -0.6597  0.8122  0.0606
 1467TIP3    H125960   1.208   5.334   2.078 -0.1560 -0.3505  0.4532
 1467TIP3    H225961   1.358   5.318   2.067 -0.4469 -2.1797 -1.7976
 1468TIP3   OH225962   3.229   3.690   8.428  0.2217 -0.1910  0.1168
 1468TIP3    H125963   3.194   3.627   8.366 -0.8116  0.4593  0.0167
 1468TIP3    H225964   3.282   3.749   8.375 -2.1210  1.4735 -0.5401
 1469TIP3   OH225965   5.673   5.263   2.354 -0.2264 -0.6426 -0.2674
 1469TIP3    H125966   5.631   5.181   2.328  1.4549 -1.4743 -0.4736
 1469TIP3    H225967   5.623   5.293   2.430 -1.3537 -1.4340 -0.6720
 1470TIP3   OH225968   4.747   2.046   1.728  0.2446  0.5807 -0.3588
 1470TIP3    H125969   4.710   1.967   1.688 -0.2705  0.1183  0.9826
 1470TIP3    H225970   4.681   2.114   1.712 -0.0742  0.3388 -0.0848
 1471TIP3   OH225971   3.221   6.025   2.356 -0.4475 -0.0778 -0.1783
 1471TIP3    H125972   3.190   6.080   2.428  0.5802  2.8732 -1.8420
 1471TIP3    H225973   3.142   5.982   2.322 -0.8420 -2.4899  3.2410
 1472TIP3   OH225974   0.588   6.233   2.132  0.3659 -0.3192  0.2600
 1472TIP3    H125975   0.585   6.142   2.105  2.1917 -0.6386  0.9690
 1472TIP3    H225976   0.546   6.234   2.218  1.7857 -0.8271  0.9872
 1473TIP3   OH225977   4.653   2.797   1.179  0.4928 -0.5652  0.2245
 1473TIP3    H125978   4.584   2.778   1.243  0.3015 -1.1231 -0.1382
 1473TIP3    H225979   4.621   2.874   1.131 -0.4187 -1.4751 -0.6867
 1474TIP3   OH225980   3.001   4.335   1.830 -0.1091 -0.6171  0.1009
 1474TIP3    H125981   3.034   4.248   1.806  0.7220 -0.6107  1.1528
 1474TIP3    H225982   2.906   4.329   1.817 -0.1297 -1.8803  0.7378
 1475TIP3   OH225983   5.572   5.070   2.659 -0.6412  0.5892 -0.5691
 1475TIP3    H125984   5.609   5.130   2.724 -0.4703  0.4034 -0.4957
 1475TIP3    H225985   5.539   4.996   2.710  0.9522 -0.3302 -0.8076
 1476TIP3   OH225986   1.815   1.110   8.633  0.0721  0.1826  0.0043
 1476TIP3    H125987   1.894   1.056   8.638  1.1914  1.7455 -0.1152
 1476TIP3    H225988   1.835   1.175   8.565 -1.0581  1.0152  0.4457
 1477TIP3   OH225989   0.843   5.690   8.062 -0.3807  0.6223 -0.2208
 1477TIP3    H125990   0.902   5.657   7.994 -0.4371  0.7590 -0.3356
 1477TIP3    H225991   0.774   5.735   8.014 -1.2562 -0.5900 -0.1655
 1478TIP3   OH225992   3.620   0.044   8.602  0.1594 -0.4868  0.0833
 1478TIP3    H125993   3.587  -0.042   8.577 -0.0501 -0.4178  0.1255
 1478TIP3    H225994   3.603   0.050   8.696 -1.5210  0.3479 -0.2274
 1479TIP3   OH225995   1.963   5.949   8.928 -0.4042  0.3008  0.0215
 1479TIP3    H125996   2.008   5.866   8.912  0.8017  0.1764  3.3148
 1479TIP3    H225997   1.872   5.925   8.946 -0.3586 -0.1522 -0.3552
 1480TIP3   OH225998   3.206   4.434   8.530 -0.6177  0.2501 -0.0930
 1480TIP3    H125999   3.122   4.477   8.523  0.2537  2.0779  0.2171
 1480TIP3    H226000   3.257   4.488   8.591  1.0177 -0.4065 -0.7998
 1481TIP3   OH226001   4.866   4.276   0.929  0.1771  0.5339  0.3591
 1481TIP3    H126002   4.939   4.295   0.988 -0.4025 -0.9708  1.6296
 1481TIP3    H226003   4.827   4.195   0.963  0.1093 -0.7197 -2.3714
 1482TIP3   OH226004   1.755   5.789   1.383 -0.2698 -0.4545  0.0338
 1482TIP3    H126005   1.780   5.705   1.423 -0.8780 -0.2175  0.9429
 1482TIP3    H226006   1.675   5.814   1.429 -1.1613 -0.3014 -1.5456
 1483TIP3   OH226007   0.467   2.640   8.563 -0.3187  0.7721  0.8943
 1483TIP3    H126008   0.503   2.728   8.557  0.8554  0.1969 -1.6370
 1483TIP3    H226009   0.439   2.618   8.474  0.3536 -1.7933  1.2140
 1484TIP3   OH226010   3.228   1.917   8.939  0.4990 -0.4222  0.4501
 1484TIP3    H126011   3.210   2.003   8.977 -3.3907  0.1717 -2.1803
 1484TIP3    H226012   3.285   1.935   8.864 -2.4583  0.4667 -1.7516
 1485TIP3   OH226013   4.085   5.768   0.265 -0.7716  0.1272  0.0258
 1485TIP3    H126014   4.162   5.730   0.307 -0.1252  0.4618 -0.8325
 1485TIP3    H226015   4.074   5.854   0.306  0.4817  0.9008 -1.1437
 1486TIP3   OH226016   4.166   0.072   9.033 -0.2636 -0.4480 -0.9409
 1486TIP3    H126017   4.184   0.055   8.940  0.1225 -1.0593 -0.7569
 1486TIP3    H226018   4.194  -0.007   9.078 -2.8020 -1.1938 -0.5314
 1487TIP3   OH226019   3.436   5.396   0.084 -0.2009  0.3332 -0.3219
 1487TIP3    H126020   3.524   5.362   0.068  1.5244  3.0619  2.2733
 1487TIP3    H226021   3.393   5.329   0.137  1.3697  0.1149  0.7424
 1488TIP3   OH226022   2.197   3.304   1.060  0.4699 -0.7153  0.0126
 1488TIP3    H126023   2.156   3.310   1.146  0.1410 -0.1996 -0.1753
 1488TIP3    H226024   2.127   3.323   0.998  0.9424  0.0407 -0.3173
 1489TIP3   OH226025   3.841   1.143   2.329 -0.1582 -0.2564  0.0621
 1489TIP3    H126026   3.914   1.088   2.302 -0.4399 -0.6028 -0.0012
 1489TIP3    H226027   3.876   1.194   2.402  0.7016  0.9037 -1.1036
 1490TIP3   OH226028   6.596   2.428   0.623 -0.3679 -0.5372 -0.7254
 1490TIP3    H126029   6.660   2.458   0.687 -0.4764  0.2589 -0.9754
 1490TIP3    H226030   6.556   2.351   0.663 -0.7564  0.2128  0.3708
 1491TIP3   OH226031   3.263   5.185   8.329 -0.2110  0.4271  0.4334
 1491TIP3    H126032   3.302   5.140   8.254 -1.0421 -2.0895  1.4402
 1491TIP3    H226033   3.253   5.118   8.396 -2.1630  1.9644  1.8050
 1492TIP3   OH226034   5.706   2.943   1.550  0.2414  0.4327 -0.1729
 1492TIP3    H126035   5.633   2.954   1.489 -0.2064  1.5474  0.5497
 1492TIP3    H226036   5.765   3.016   1.531  0.6946  0.1019 -0.0717
 1493TIP3   OH226037   0.405   6.173   9.177 -0.1401  0.3098 -0.7170
 1493TIP3    H126038   0.487   6.159   9.224 -0.8169 -2.0033 -0.0875
 1493TIP3    H226039   0.427   6.235   9.108  1.5575  1.5786  0.8694
 1494TIP3   OH226040   5.714   0.043   0.496 -0.2949  0.1021  0.1762
 1494TIP3    H126041   5.643   0.095   0.459 -0.9032 -0.0787  1.0504
 1494TIP3    H226042   5.792   0.098   0.487 -0.4032  0.0472 -1.3772
 1495TIP3   OH226043   4.367   2.076   0.391 -0.1914  0.1671  0.3964
 1495TIP3    H126044   4.397   1.994   0.354 -0.4388  0.0442  0.4637
 1495TIP3    H226045   4.304   2.050   0.459  0.6324  0.3718  1.2492
 1496TIP3   OH226046   4.675   6.552   1.251 -0.4400  0.0482  0.1137
 1496TIP3    H126047   4.628   6.475   1.283  0.7163 -0.4965  0.5652
 1496TIP3    H226048   4.619   6.587   1.182 -1.2971 -0.8153  0.3469
 1497TIP3   OH226049   2.289   1.299   8.230 -0.2373 -0.4219 -0.1357
 1497TIP3    H126050   2.273   1.211   8.196  0.7383 -0.6563 -0.0011
 1497TIP3    H226051   2.327   1.347   8.156  1.7551 -0.8928  0.5295
 1498TIP3   OH226052   2.593   3.864   1.753 -0.1362 -0.3602  0.3183
 1498TIP3    H126053   2.525   3.857   1.821  0.5518  0.5009  1.1072
 1498TIP3    H226054   2.548   3.902   1.678 -1.3004 -2.7584 -0.3107
 1499TIP3   OH226055   5.352   2.772   1.032 -0.1874  0.2738  0.1099
 1499TIP3    H126056   5.264   2.742   1.053 -0.1977  0.8005  0.8594
 1499TIP3    H226057   5.398   2.693   1.003 -0.7126 -0.1267  0.3484
 1500TIP3   OH226058   5.847   4.320   0.746 -0.0718  0.3123  0.0603
 1500TIP3    H126059   5.900   4.281   0.815  2.1938 -0.1208 -1.8032
 1500TIP3    H226060   5.847   4.414   0.766 -0.9113  0.0133  1.5549
 1501TIP3   OH226061   5.910   2.225   8.452  0.1615 -0.0896  0.1771
 1501TIP3    H126062   5.994   2.214   8.494 -0.4268 -1.8381  1.0032
 1501TIP3    H226063   5.929   2.219   8.358  0.6917 -3.5108  0.3739
 1502TIP3   OH226064   0.492   2.590   3.196  0.3545 -0.0291  0.7366
 1502TIP3    H126065   0.584   2.588   3.223  0.4613  0.8439  0.4491
 1502TIP3    H226066   0.460   2.675   3.226  0.2974  0.6914 -1.2672
 1503TIP3   OH226067   4.701   2.116   2.495  0.0806 -0.2800 -0.0030
 1503TIP3    H126068   4.675   2.030   2.527  0.2566 -0.6416 -0.8045
 1503TIP3    H226069   4.712   2.104   2.400  1.6073  0.2363  0.0769
 1504TIP3   OH226070   0.396   4.795   1.457  0.2124  0.0410 -0.2087
 1504TIP3    H126071   0.340   4.870   1.433 -1.7263 -0.6023  1.8684
 1504TIP3    H226072   0.361   4.766   1.541  1.2764 -2.8604 -0.6589
 1505TIP3   OH226073   0.599   3.009   2.616  0.1382  0.1439  0.1289
 1505TIP3    H126074   0.543   3.054   2.552 -0.6632  0.0237  0.7247
 1505TIP3    H226075   0.640   3.079   2.666  0.2570  0.2319 -0.0926
 1506TIP3   OH226076   2.086   6.184   0.583  0.3004 -0.1622 -0.2199
 1506TIP3    H126077   2.138   6.197   0.503 -0.4564 -0.6564 -0.8150
 1506TIP3    H226078   2.016   6.249   0.577  1.1176  0.8587  0.8413
 1507TIP3   OH226079   2.691   1.002   1.457 -0.3601  0.4667 -0.3579
 1507TIP3    H126080   2.669   0.920   1.502 -1.0760  0.6602 -0.3477
 1507TIP3    H226081   2.771   1.033   1.500 -1.6547  1.2518  1.5847
 1508TIP3   OH226082   5.505   5.655   2.458 -0.4257  0.2813 -0.5985
 1508TIP3    H126083   5.547   5.573   2.431  2.2922  1.7856 -1.3026
 1508TIP3    H226084   5.480   5.640   2.549  0.3044 -1.2071 -0.6061
 1509TIP3   OH226085   5.626   2.309   8.435 -0.0059 -0.0334 -0.0510
 1509TIP3    H126086   5.710   2.263   8.430  0.1516  0.3338 -1.4265
 1509TIP3    H226087   5.561   2.243   8.411  0.1126  0.1488 -0.9399
 1510TIP3   OH226088   6.003   4.966   0.181  0.1630 -0.4542  0.5436
 1510TIP3    H126089   6.059   5.027   0.229 -2.6426  2.8665 -0.0534
 1510TIP3    H226090   5.985   4.896   0.244  0.2915  1.3869  2.7671
 1511TIP3   OH226091   3.654   3.142   1.802 -0.1977  0.4955  0.8860
 1511TIP3    H126092   3.596   3.082   1.755  1.5171 -0.9624  0.5207
 1511TIP3    H226093   3.667   3.215   1.741  0.0262 -0.1956  0.0781
 1512TIP3   OH226094   5.932   0.253   8.115 -0.0962 -0.2024 -0.2291
 1512TIP3    H126095   5.849   0.205   8.113 -2.2259  3.1499 -0.8668
 1512TIP3    H226096   5.967   0.245   8.026 -0.5599 -0.3598 -0.3961
 1513TIP3   OH226097   2.596   1.145   2.696 -0.3819  0.3049  0.5334
 1513TIP3    H126098   2.633   1.219   2.745  1.1877 -0.6338  0.8382
 1513TIP3    H226099   2.672   1.098   2.663 -1.3831 -0.4775 -0.7395
 1514TIP3   OH226100   3.026   4.789   2.125  0.6796 -0.7010 -0.2275
 1514TIP3    H126101   2.983   4.706   2.109  1.4902 -1.4985  1.5013
 1514TIP3    H226102   2.962   4.855   2.098 -0.7541 -1.8547  0.2611
 1515TIP3   OH226103   5.912   4.723   1.433 -0.7598 -0.7835  0.1059
 1515TIP3    H126104   5.832   4.709   1.382 -1.0142 -1.8986  0.7816
 1515TIP3    H226105   5.923   4.818   1.434 -0.6585 -0.7028 -2.1409
 1516TIP3   OH226106   3.270   6.377   0.921 -0.4661 -0.3024  0.4586
 1516TIP3    H126107   3.339   6.442   0.907  0.3289 -0.6621  2.4148
 1516TIP3    H226108   3.295   6.303   0.866 -0.5305  0.4204 -0.5676
 1517TIP3   OH226109   0.963   1.873   1.488 -0.0630  0.8429 -0.6642
 1517TIP3    H126110   1.043   1.915   1.517  0.9609 -1.3224 -0.1798
 1517TIP3    H226111   0.988   1.829   1.407 -1.3438  1.8396 -1.6505
 1518TIP3   OH226112   0.835   6.089   9.072 -0.3635 -0.2643 -0.2870
 1518TIP3    H126113   0.921   6.054   9.047 -0.8670 -0.7330 -1.4483
 1518TIP3    H226114   0.849   6.184   9.077  0.4446 -0.4093  0.5067
 1519TIP3   OH226115   2.794   0.772   0.688  0.5839  0.1592 -0.0239
 1519TIP3    H126116   2.707   0.764   0.650  0.9194  1.9967 -1.3202
 1519TIP3    H226117   2.782   0.826   0.766  0.6500  1.2913 -0.7649
 1520TIP3   OH226118   2.537   3.382   0.935  0.0344 -0.0973  0.1775
 1520TIP3    H126119   2.503   3.434   1.008  1.4930  1.3488 -0.1320
 1520TIP3    H226120   2.566   3.446   0.870  0.3576 -1.3304 -0.9434
 1521TIP3   OH226121   2.050   5.524   2.257  0.2422 -0.0014 -0.1694
 1521TIP3    H126122   1.961   5.558   2.261  1.4840  3.5435  0.3193
 1521TIP3    H226123   2.083   5.533   2.346  1.2055 -1.1064 -0.3886
 1522TIP3   OH226124   4.287   2.867   8.601  0.1947  0.2201 -0.3230
 1522TIP3    H126125   4.333   2.898   8.679 -0.4355  0.9382 -0.2334
 1522TIP3    H226126   4.342   2.896   8.528  0.5819 -0.1175 -0.1720
 1523TIP3   OH226127   0.516   0.968   8.186  0.4937  0.0446 -0.5164
 1523TIP3    H126128   0.541   0.898   8.246  0.7112  0.2556 -0.3562
 1523TIP3    H226129   0.464   0.925   8.118 -1.7562  0.1644  1.0434
 1524TIP3   OH226130   4.244   4.180   1.759 -0.1627  0.7760 -0.7376
 1524TIP3    H126131   4.196   4.135   1.689  0.9475  0.2005 -1.1563
 1524TIP3    H226132   4.248   4.271   1.730 -1.4740  0.9590 -0.4142
 1525TIP3   OH226133   5.559   1.595   2.334  0.0235  0.3936 -0.3886
 1525TIP3    H126134   5.499   1.663   2.367  0.0828  0.6821 -0.8632
 1525TIP3    H226135   5.644   1.638   2.331  0.0453  0.3225 -0.7722
 1526TIP3   OH226136   3.911   4.991   8.738 -0.0859 -0.0161 -0.5719
 1526TIP3    H126137   3.820   5.015   8.720 -0.6258 -0.8266  0.9330
 1526TIP3    H226138   3.934   4.929   8.668 -0.8427 -0.1497 -0.7107
 1527TIP3   OH226139   0.519   1.650   0.731 -0.1782  0.2973  0.2919
 1527TIP3    H126140   0.561   1.632   0.647  1.4037 -1.6510  1.4368
 1527TIP3    H226141   0.526   1.745   0.741 -1.2683  0.7249 -2.1650
 1528TIP3   OH226142   6.420   4.032   0.600 -0.1957  0.4617  0.4536
 1528TIP3    H126143   6.366   4.109   0.588 -0.5930  0.1823  0.4281
 1528TIP3    H226144   6.387   3.969   0.536 -0.5083 -0.0699  1.1241
 1529TIP3   OH226145   2.426   1.135   0.161 -0.2308  0.5945  0.1708
 1529TIP3    H126146   2.364   1.193   0.206 -0.0678 -0.4576  1.8352
 1529TIP3    H226147   2.370   1.071   0.116 -0.3691  0.2637  0.8115
 1530TIP3   OH226148   4.751   5.635   1.743  0.4926  0.1701 -0.2447
 1530TIP3    H126149   4.677   5.605   1.796  0.0847 -0.5274 -1.2024
 1530TIP3    H226150   4.743   5.588   1.661  1.5244  0.7273 -0.6798
 1531TIP3   OH226151   1.264   2.994   2.755 -0.5496  0.2828 -0.0899
 1531TIP3    H126152   1.238   2.913   2.801  0.2581 -0.6614 -1.2402
 1531TIP3    H226153   1.354   2.977   2.727 -0.3819  1.5922 -0.3734
 1532TIP3   OH226154   1.795   3.501   0.440  0.3498  0.0066  0.3248
 1532TIP3    H126155   1.726   3.541   0.387 -0.0576 -0.7586  0.2611
 1532TIP3    H226156   1.749   3.453   0.508  0.8568  0.4150  0.9791
 1533TIP3   OH226157   1.535   4.886   0.792 -0.3699  0.4490 -0.3277
 1533TIP3    H126158   1.539   4.795   0.823 -2.9188 -0.1960 -1.6183
 1533TIP3    H226159   1.585   4.886   0.710 -0.0538  0.3164 -0.1375
 1534TIP3   OH226160   1.272   0.827   2.655 -0.3120 -0.7509 -0.6114
 1534TIP3    H126161   1.276   0.812   2.749  1.8070 -1.0462 -0.6899
 1534TIP3    H226162   1.203   0.768   2.624 -2.5349  0.8671  0.9567
 1535TIP3   OH226163   4.175   6.095   7.740 -0.4056  0.3445 -0.4207
 1535TIP3    H126164   4.213   6.071   7.656  0.4522 -2.8817  0.7526
 1535TIP3    H226165   4.100   6.151   7.718 -0.6002 -0.9279 -3.3698
 1536TIP3   OH226166   2.765   0.531   1.764  0.2915  0.8550  0.6439
 1536TIP3    H126167   2.821   0.458   1.736  1.5403  1.1898  2.0881
 1536TIP3    H226168   2.823   0.586   1.817 -0.9858  2.1700  0.7409
 1537TIP3   OH226169   5.791   3.489   1.632 -0.4263  0.1152  0.1162
 1537TIP3    H126170   5.800   3.584   1.621 -1.1859  0.4061  1.7696
 1537TIP3    H226171   5.701   3.476   1.659 -0.7627 -1.2659 -1.4766
 1538TIP3   OH226172   4.686   1.331   7.678 -0.1284 -0.0542 -0.2170
 1538TIP3    H126173   4.617   1.387   7.715  0.0462 -1.3367  2.2669
 1538TIP3    H226174   4.639   1.256   7.641 -0.1490 -0.1018 -0.0930
 1539TIP3   OH226175   5.625   4.016   1.368 -0.1626 -0.8099  0.2408
 1539TIP3    H126176   5.654   4.070   1.442  1.0522 -0.8430 -0.1940
 1539TIP3    H226177   5.609   3.930   1.407  2.2414 -1.3340  0.2007
 1540TIP3   OH226178   4.104   2.022   1.889  0.3774  0.2505  0.5542
 1540TIP3    H126179   4.059   2.072   1.958  0.1254 -1.1917  1.4812
 1540TIP3    H226180   4.182   2.073   1.870 -0.1950  1.3358  0.9816
 1541TIP3   OH226181   1.230   6.019   1.181 -0.1765  0.3049  0.0147
 1541TIP3    H126182   1.282   5.957   1.129 -0.4339  0.5902 -0.5985
 1541TIP3    H226183   1.182   6.070   1.116  0.7051  1.7603  0.4753
 1542TIP3   OH226184   3.133   1.150   8.034  0.5095  0.8989 -0.4227
 1542TIP3    H126185   3.112   1.231   7.987  0.2830  1.6785  0.9659
 1542TIP3    H226186   3.151   1.179   8.124 -2.8325 -0.9165  0.9891
 1543TIP3   OH226187   3.668   5.308   0.920  0.1176  0.4068  0.7340
 1543TIP3    H126188   3.762   5.305   0.939  0.1843 -0.3092  0.2835
 1543TIP3    H226189   3.661   5.368   0.845  0.5267 -1.6420 -1.0308
 1544TIP3   OH226190   0.602   0.864   1.507  0.0266  0.4498 -0.6135
 1544TIP3    H126191   0.626   0.913   1.429  1.2380  0.0343 -0.5081
 1544TIP3    H226192   0.664   0.791   1.511 -0.3362  0.1803  0.4615
 1545TIP3   OH226193   2.559   4.387   0.760  0.0727  0.4878 -0.7303
 1545TIP3    H126194   2.649   4.367   0.734  0.2343  0.3894 -0.1096
 1545TIP3    H226195   2.552   4.482   0.752  0.6120  0.6326  0.3813
 1546TIP3   OH226196   6.421   3.311   9.125  0.6056  0.3925  0.6045
 1546TIP3    H126197   6.356   3.248   9.157 -0.5061  1.8802  1.4279
 1546TIP3    H226198   6.458   3.350   9.204 -1.2442  3.1866  0.2503
 1547TIP3   OH226199   2.275   1.800   8.947 -0.4407 -0.2330 -0.3851
 1547TIP3    H126200   2.213   1.734   8.916 -1.1305  0.1179  0.2252
 1547TIP3    H226201   2.238   1.883   8.917  0.0780 -0.0665 -0.5768
 1548TIP3   OH226202   6.619   5.637   2.322 -0.3768  0.8435 -0.1610
 1548TIP3    H126203   6.680   5.577   2.364 -2.7734 -1.3357  0.4117
 1548TIP3    H226204   6.672   5.682   2.255  2.4915  1.2761  2.2018
 1549TIP3   OH226205   2.421   3.932   0.232  0.0073 -0.0033  0.7038
 1549TIP3    H126206   2.447   3.998   0.297  0.9112 -0.1445  0.5012
 1549TIP3    H226207   2.392   3.984   0.157 -0.0443  0.1621  0.8361
 1550TIP3   OH226208   5.659   6.204   0.631 -0.4197  0.4887  0.3651
 1550TIP3    H126209   5.576   6.212   0.677 -0.1245  0.2148  0.9532
 1550TIP3    H226210   5.653   6.120   0.586  0.2207 -0.3907  1.8389
 1551TIP3   OH226211   0.549   4.186   3.176 -0.1466 -0.5314 -0.5182
 1551TIP3    H126212   0.590   4.106   3.141  0.8986 -1.0395  1.7049
 1551TIP3    H226213   0.623   4.246   3.189 -0.6595  0.0469 -0.2533
 1552TIP3   OH226214   1.430   0.211   1.014  0.5198 -0.0933  0.0986
 1552TIP3    H126215   1.436   0.266   1.092 -0.9624  0.3808 -0.0935
 1552TIP3    H226216   1.362   0.148   1.034  1.4045 -1.1639 -0.1344
 1553TIP3   OH226217   0.948   4.550   2.368  0.6687 -0.3828 -0.1276
 1553TIP3    H126218   0.991   4.632   2.393  0.6375 -0.3387 -0.2177
 1553TIP3    H226219   0.909   4.569   2.283 -1.9731  0.5158  1.1515
 1554TIP3   OH226220   0.329   5.693   0.113 -0.5482 -0.1492  0.3905
 1554TIP3    H126221   0.365   5.748   0.043  0.6786 -2.5886 -1.0396
 1554TIP3    H226222   0.242   5.729   0.130 -0.0724  1.7804 -0.8887
 1555TIP3   OH226223   0.693   3.152   1.165  0.5666  0.1628 -0.0675
 1555TIP3    H126224   0.644   3.086   1.116  1.5085 -0.0897 -0.6828
 1555TIP3    H226225   0.785   3.129   1.151  0.8779  0.1354  1.7418
 1556TIP3   OH226226   4.703   3.264   7.899 -0.4960  0.1561  0.1930
 1556TIP3    H126227   4.637   3.211   7.854  1.0081 -0.3882 -1.4739
 1556TIP3    H226228   4.675   3.354   7.885 -0.3743 -0.0328 -1.3840
 1557TIP3   OH226229   0.967   5.280   0.667  0.4915  0.2280  0.3636
 1557TIP3    H126230   0.901   5.215   0.643 -0.8123  1.6334 -0.0187
 1557TIP3    H226231   1.009   5.244   0.745 -0.4154 -0.9112  0.3511
 1558TIP3   OH226232   2.806   3.967   0.459 -0.1189 -0.3090 -0.1672
 1558TIP3    H126233   2.717   3.984   0.490  0.3072  0.4855  0.6450
 1558TIP3    H226234   2.831   3.884   0.500 -0.0386  0.0808  0.5754
 1559TIP3   OH226235   2.333   3.086   1.438  0.1810 -0.2401  0.2807
 1559TIP3    H126236   2.272   3.012   1.433  0.5429 -0.8228  3.0296
 1559TIP3    H226237   2.294   3.145   1.501  0.9616  0.9192 -0.2851
 1560TIP3   OH226238   1.890   1.934   1.473 -0.3058  0.3658 -0.2009
 1560TIP3    H126239   1.823   1.925   1.541 -1.2934 -2.7907 -1.3910
 1560TIP3    H226240   1.842   1.968   1.397 -0.1797 -0.1449 -0.5155
 1561TIP3   OH226241   2.074   4.398   0.640  0.0476  0.1501  0.0360
 1561TIP3    H126242   2.119   4.404   0.724 -0.4928  0.9268  0.2815
 1561TIP3    H226243   2.145   4.391   0.575  0.5165  1.1420  0.4282
 1562TIP3   OH226244   5.554   0.529   7.725 -0.3509 -0.3414  0.1269
 1562TIP3    H126245   5.539   0.575   7.807  1.1707  0.8342 -0.2263
 1562TIP3    H226246   5.618   0.461   7.747  0.0999  0.0103 -0.0931
 1563TIP3   OH226247   3.691   1.432   7.865 -0.5672  0.0809 -0.0079
 1563TIP3    H126248   3.608   1.453   7.823  0.0665  1.1457 -0.7802
 1563TIP3    H226249   3.752   1.418   7.793 -0.1047 -0.9019  0.5425
 1564TIP3   OH226250   6.488   5.792   9.051  0.0861 -0.3146  0.6238
 1564TIP3    H126251   6.485   5.848   9.128  0.8269  0.1580  0.3179
 1564TIP3    H226252   6.399   5.758   9.042 -0.3921  0.8770  0.7578
 1565TIP3   OH226253   0.783   5.594   2.252 -0.1150  0.2166 -0.2489
 1565TIP3    H126254   0.729   5.583   2.331 -0.3915 -0.7487 -0.5582
 1565TIP3    H226255   0.751   5.675   2.213  0.5201  1.1018  0.9986
 1566TIP3   OH226256   5.080   4.478   8.745 -0.3574  0.6817 -0.1178
 1566TIP3    H126257   5.109   4.391   8.718 -1.8674 -1.0141  3.2363
 1566TIP3    H226258   4.987   4.481   8.722  0.0704  2.3116 -2.0003
 1567TIP3   OH226259   5.609   0.438   8.709 -0.1071  0.0569  0.2791
 1567TIP3    H126260   5.617   0.533   8.699  0.8949 -0.0666 -0.1880
 1567TIP3    H226261   5.572   0.408   8.626 -0.3386  0.0220  0.3925
 1568TIP3   OH226262   4.338   4.798   8.355 -0.1827  0.2611 -0.1562
 1568TIP3    H126263   4.391   4.801   8.275 -0.3060 -0.4151 -0.2784
 1568TIP3    H226264   4.249   4.779   8.323 -0.4102  0.9161  0.0773
 1569TIP3   OH226265   4.125   5.088   7.977  0.1357  0.1724  0.7154
 1569TIP3    H126266   4.159   5.000   7.960  1.1200  0.7024 -0.1156
 1569TIP3    H226267   4.142   5.102   8.070  1.2047 -0.0023  0.5582
 1570TIP3   OH226268   6.323   1.455   1.734  0.4518 -0.2201  0.5663
 1570TIP3    H126269   6.382   1.531   1.739  1.0635 -0.3869 -2.3832
 1570TIP3    H226270   6.237   1.493   1.717  0.9035 -0.1008 -1.8360
 1571TIP3   OH226271   4.876   1.011   0.676 -0.0686  0.0456 -0.1352
 1571TIP3    H126272   4.817   0.941   0.647 -1.7172  1.1784  0.3359
 1571TIP3    H226273   4.962   0.970   0.679 -0.4593 -1.1839 -2.7026
 1572TIP3   OH226274   2.462   1.667   2.124  0.1919 -0.2572  0.5667
 1572TIP3    H126275   2.480   1.573   2.131  3.1259  0.0152 -1.6082
 1572TIP3    H226276   2.481   1.689   2.033 -0.4076  2.4830  1.0148
 1573TIP3   OH226277   6.251   0.193   2.998 -0.1463  0.2873 -0.2479
 1573TIP3    H126278   6.323   0.245   2.963 -1.2488  1.9442 -0.1633
 1573TIP3    H226279   6.280   0.102   2.987  0.9929  0.8261 -2.3131
 1574TIP3   OH226280   2.517   2.005   3.155 -0.4095 -0.4714 -0.2468
 1574TIP3    H126281   2.554   1.965   3.234 -0.5361  0.9152  0.5402
 1574TIP3    H226282   2.571   1.971   3.084  1.8509  0.7692  0.7676
 1575TIP3   OH226283   4.409   2.150   8.227 -0.2369 -0.3761 -0.1573
 1575TIP3    H126284   4.423   2.237   8.263  1.4334 -0.7395  0.1495
 1575TIP3    H226285   4.376   2.165   8.138  1.4785  0.6058 -0.6611
 1576TIP3   OH226286   0.747   4.609   0.545 -0.1787  0.0608  0.6025
 1576TIP3    H126287   0.747   4.694   0.588 -0.0899  0.0429  0.6386
 1576TIP3    H226288   0.729   4.628   0.453  1.0158  0.2359  0.3838
 1577TIP3   OH226289   2.303   6.359   1.397 -0.4938 -0.6923 -0.4458
 1577TIP3    H126290   2.329   6.330   1.485 -2.0961 -1.3275 -0.1545
 1577TIP3    H226291   2.370   6.323   1.339  0.2676 -0.7554  0.4395
 1578TIP3   OH226292   6.438   4.808   0.337  0.1658 -0.3594 -0.1027
 1578TIP3    H126293   6.528   4.814   0.304  1.0869 -0.0485  2.2649
 1578TIP3    H226294   6.446   4.822   0.431 -2.3191 -0.9529  0.2662
 1579TIP3   OH226295   1.170   3.586   8.588  0.4044  0.2324 -0.7517
 1579TIP3    H126296   1.236   3.516   8.588 -1.1409 -1.2837 -0.3248
 1579TIP3    H226297   1.168   3.616   8.497  0.9873 -0.3983 -0.9845
 1580TIP3   OH226298   2.163   5.553   1.444  0.0547 -0.0750  0.3400
 1580TIP3    H126299   2.075   5.544   1.480  0.4824  0.9826  1.7365
 1580TIP3    H226300   2.153   5.612   1.369 -0.6343 -1.2164 -0.5059
 1581TIP3   OH226301   4.876   2.426   1.349  0.3303  0.3065 -0.3845
 1581TIP3    H126302   4.785   2.433   1.319 -1.1379  0.7428  3.5612
 1581TIP3    H226303   4.915   2.511   1.327 -0.4889  0.4671 -1.2691
 1582TIP3   OH226304   0.475   0.768   2.000 -0.6980 -0.2270  0.5978
 1582TIP3    H126305   0.512   0.784   1.913  0.1605 -1.6462  0.6818
 1582TIP3    H226306   0.551   0.756   2.057 -1.2586  0.2167  1.4648
 1583TIP3   OH226307   2.176   4.147   7.215 -0.3347  0.1000  0.5685
 1583TIP3    H126308   2.159   4.090   7.290  0.6301 -0.0351  0.7016
 1583TIP3    H226309   2.226   4.220   7.252 -1.3032  0.8895  0.3476
 1584TIP3   OH226310   6.075   0.215   0.832 -0.0882 -0.0547 -0.3189
 1584TIP3    H126311   6.075   0.233   0.926 -0.9290  1.2978 -0.5461
 1584TIP3    H226312   6.059   0.121   0.825 -0.7508 -0.0423  0.8794
 1585TIP3   OH226313   0.953   1.566   0.106  0.1089  0.4038 -0.4913
 1585TIP3    H126314   0.871   1.616   0.103 -0.5382 -0.6288 -2.6528
 1585TIP3    H226315   1.020   1.627   0.075  0.3115  1.3996  1.7369
 1586TIP3   OH226316   2.846   0.926   0.913  0.0043 -0.1884 -0.0574
 1586TIP3    H126317   2.845   1.019   0.888  1.1252 -0.0103  0.4946
 1586TIP3    H226318   2.937   0.908   0.934 -0.2237 -1.3945 -0.0267
 1587TIP3   OH226319   5.006   0.730   0.184  0.7765 -0.2589 -0.0804
 1587TIP3    H126320   4.945   0.676   0.134 -0.1773 -0.3711  1.1832
 1587TIP3    H226321   5.070   0.668   0.218 -0.6771 -0.7508  1.9047
 1588TIP3   OH226322   4.502   6.020   0.153  0.8570  0.2699 -0.3007
 1588TIP3    H126323   4.504   6.010   0.248 -0.0944  0.7346 -0.2114
 1588TIP3    H226324   4.409   6.014   0.131  0.8063  2.4425 -0.9203
 1589TIP3   OH226325   1.515   0.030   2.961 -0.3569  0.1218  0.1933
 1589TIP3    H126326   1.510  -0.066   2.970 -0.4863  0.0797 -0.3244
 1589TIP3    H226327   1.604   0.051   2.989 -0.4562 -0.1060  0.6944
 1590TIP3   OH226328   5.522   5.677   8.265  0.1764 -0.2611  0.5630
 1590TIP3    H126329   5.581   5.606   8.288  1.3611 -0.0444 -1.5362
 1590TIP3    H226330   5.453   5.673   8.331  2.0686 -1.0434  2.6377
 1591TIP3   OH226331   4.457   2.978   0.747 -0.1551  0.1429  0.1633
 1591TIP3    H126332   4.545   2.999   0.714 -0.0371  0.7544  0.8343
 1591TIP3    H226333   4.444   2.886   0.724  0.7618 -0.0252  0.2708
 1592TIP3   OH226334   5.337   3.357   9.233  0.0161 -0.9251 -0.5416
 1592TIP3    H126335   5.364   3.365   9.141 -1.6990  0.5619 -0.9672
 1592TIP3    H226336   5.242   3.356   9.230 -0.1223  0.7439  1.3136
 1593TIP3   OH226337   1.709   5.469   8.936  0.1080 -0.5893 -0.2764
 1593TIP3    H126338   1.744   5.386   8.904  1.3193 -0.1343 -0.1948
 1593TIP3    H226339   1.616   5.452   8.951  0.6026 -2.3644  1.1876
 1594TIP3   OH226340   3.634   1.867   7.548  0.3068  0.0702 -0.4213
 1594TIP3    H126341   3.541   1.882   7.533  0.3576  0.1287 -0.6804
 1594TIP3    H226342   3.658   1.797   7.487  0.5345  0.3750 -0.6863
 1595TIP3   OH226343   6.364   0.185   0.832 -0.5208  0.0354  0.3286
 1595TIP3    H126344   6.365   0.280   0.835  0.8426  0.0518 -0.1760
 1595TIP3    H226345   6.338   0.159   0.921  2.7702  0.8713  1.6789
 1596TIP3   OH226346   3.656   0.447   1.177  0.0518 -0.1762  0.1482
 1596TIP3    H126347   3.600   0.434   1.253  0.1879  1.1705  0.4999
 1596TIP3    H226348   3.738   0.483   1.212  1.1039 -1.9175 -0.3811
 1597TIP3   OH226349   2.062   1.431   2.549 -0.4798 -0.7570 -0.5299
 1597TIP3    H126350   1.999   1.391   2.609  0.4609 -0.3694  0.7886
 1597TIP3    H226351   2.080   1.363   2.484  1.1662 -2.6520  1.6986
 1598TIP3   OH226352   3.003   2.902   1.438 -0.5300  0.3012  0.5054
 1598TIP3    H126353   2.967   2.813   1.431  1.1040 -0.3040 -0.9375
 1598TIP3    H226354   2.931   2.958   1.408 -0.6284 -0.8014 -1.5310
 1599TIP3   OH226355   1.699   5.290   1.447 -0.3423 -0.0671  0.5742
 1599TIP3    H126356   1.641   5.365   1.438 -1.0641 -0.5800  0.8588
 1599TIP3    H226357   1.778   5.314   1.399 -0.3700  1.0739  1.0886
 1600TIP3   OH226358   5.272   5.420   0.583 -0.0700  0.2735 -0.1764
 1600TIP3    H126359   5.231   5.346   0.628  2.1573 -0.9444 -0.0270
 1600TIP3    H226360   5.201   5.459   0.532 -1.1177 -2.6994 -1.2000
 1601TIP3   OH226361   0.202   3.053   1.004 -0.2171  0.1199 -0.6026
 1601TIP3    H126362   0.214   2.991   0.932 -0.8008 -0.5683 -0.1286
 1601TIP3    H226363   0.114   3.088   0.992 -0.3583 -0.0749 -0.1676
 1602TIP3   OH226364   6.355   6.039   1.075 -0.0740  0.3857 -0.2320
 1602TIP3    H126365   6.278   6.000   1.032  0.0097 -0.7384  0.5833
 1602TIP3    H226366   6.355   6.000   1.163  0.5955  1.5058  0.2796
 1603TIP3   OH226367   4.821   1.248   9.128 -0.3668  0.5976 -0.3865
 1603TIP3    H126368   4.778   1.220   9.208  0.6570  1.7829  0.6172
 1603TIP3    H226369   4.771   1.207   9.058 -1.6273 -0.0031  0.8318
 1604TIP3   OH226370   2.899   5.892   7.543  0.3149  0.0256  0.4998
 1604TIP3    H126371   2.922   5.978   7.507  1.1245  0.6920  2.5107
 1604TIP3    H226372   2.804   5.887   7.531  0.4453  0.5469 -0.9681
 1605TIP3   OH226373   5.118   2.718   2.424 -0.0140  0.2688 -0.0717
 1605TIP3    H126374   5.111   2.792   2.484 -1.4559  0.6561 -0.6928
 1605TIP3    H226375   5.036   2.717   2.376  0.2169 -1.3737 -0.5135
 1606TIP3   OH226376   5.604   3.047   2.694 -0.3017  0.8718  0.7260
 1606TIP3    H126377   5.664   3.038   2.768 -0.1585  1.7163  0.7264
 1606TIP3    H226378   5.615   2.966   2.644 -1.5197 -0.4233  2.4167
 1607TIP3   OH226379   3.397   4.270   2.495  0.2875 -0.2710 -0.5659
 1607TIP3    H126380   3.409   4.248   2.402 -0.5634 -0.0642 -0.7295
 1607TIP3    H226381   3.471   4.328   2.515 -0.6372  1.3785 -1.6855
 1608TIP3   OH226382   0.210   3.613   8.412 -0.3429 -0.1165  0.4136
 1608TIP3    H126383   0.176   3.679   8.472 -0.7763 -1.0011  1.1777
 1608TIP3    H226384   0.195   3.530   8.457 -0.1537 -0.7695 -0.6801
 1609TIP3   OH226385   3.639   4.992   8.431  0.4361  0.0824  0.2153
 1609TIP3    H126386   3.574   4.932   8.396  0.2934 -0.1064  0.7847
 1609TIP3    H226387   3.703   5.003   8.361  0.6014 -0.9403  0.1970
 1610TIP3   OH226388   0.360   2.728   1.607  0.9398  0.5796  1.2273
 1610TIP3    H126389   0.398   2.784   1.675  0.7801  2.4195 -0.1183
 1610TIP3    H226390   0.266   2.728   1.625  1.1914 -2.4736  3.4568
 1611TIP3   OH226391   6.208   2.492   1.501  0.1499 -0.2392  0.2081
 1611TIP3    H126392   6.227   2.467   1.410 -0.6400 -2.4818  0.6186
 1611TIP3    H226393   6.115   2.474   1.512 -0.2562  1.9589  0.9116
 1612TIP3   OH226394   0.150   4.390   2.055  0.4030 -0.2506 -0.2026
 1612TIP3    H126395   0.140   4.343   2.138 -0.6377  0.2421 -0.0350
 1612TIP3    H226396   0.245   4.397   2.043  0.5815 -1.8159  0.0859
 1613TIP3   OH226397   0.033   4.841   2.174 -0.4434 -0.5624 -0.3246
 1613TIP3    H126398   0.116   4.843   2.221 -0.4890 -2.6510 -0.0643
 1613TIP3    H226399   0.052   4.886   2.091  0.8036 -0.5817 -0.0770
 1614TIP3   OH226400   5.379   0.338   1.419 -0.0338 -0.4642  0.5025
 1614TIP3    H126401   5.474   0.352   1.422  0.3178 -1.6041 -2.3627
 1614TIP3    H226402   5.364   0.264   1.477  1.1671 -1.5841 -0.5659
 1615TIP3   OH226403   5.336   3.570   0.102 -0.2344 -0.3182 -0.3578
 1615TIP3    H126404   5.418   3.620   0.107 -0.3816 -0.1741  1.4512
 1615TIP3    H226405   5.351   3.505   0.034  1.0087  0.3702 -0.7672
 1616TIP3   OH226406   5.570   6.319   8.207  0.1379 -0.0953  0.7684
 1616TIP3    H126407   5.610   6.247   8.158  0.3435 -0.8259  1.9923
 1616TIP3    H226408   5.511   6.277   8.269 -1.2340  0.9001  0.1725
 1617TIP3   OH226409   3.427   4.031   1.214  0.0579  0.0542 -0.1012
 1617TIP3    H126410   3.402   4.096   1.148 -0.0338  0.7502  0.6021
 1617TIP3    H226411   3.343   3.996   1.245 -0.0370  1.2721  1.1480
 1618TIP3   OH226412   1.273   6.403   2.095 -0.0272  0.0920 -0.0549
 1618TIP3    H126413   1.242   6.314   2.112  0.6368 -0.1970 -0.3225
 1618TIP3    H226414   1.366   6.400   2.117 -0.2167  1.0018  0.9759
 1619TIP3   OH226415   4.270   5.153   9.014  0.4218 -0.0398 -0.4048
 1619TIP3    H126416   4.175   5.148   9.008  0.3957 -0.0543  0.0203
 1619TIP3    H226417   4.294   5.086   9.077  0.7185 -0.0598 -0.5356
 1620TIP3   OH226418   6.184   3.683   2.134  0.3054  0.2397 -0.2361
 1620TIP3    H126419   6.264   3.701   2.183  1.5303 -0.4440 -1.8939
 1620TIP3    H226420   6.192   3.591   2.109 -1.8342 -0.3466  0.9703
 1621TIP3   OH226421   1.052   3.640   2.033 -0.3873  0.4662 -0.5520
 1621TIP3    H126422   1.009   3.559   2.062  0.8860  0.0154  0.1568
 1621TIP3    H226423   1.127   3.610   1.981  0.7086  1.1305  0.5881
 1622TIP3   OH226424   5.220   1.849   1.968 -0.6605 -0.3922 -0.0613
 1622TIP3    H126425   5.274   1.799   2.030  0.9112 -1.0319 -1.8623
 1622TIP3    H226426   5.254   1.938   1.974  0.7564 -0.8137 -1.2694
 1623TIP3   OH226427   4.602   5.065   2.837  0.5563 -0.5870 -0.3522
 1623TIP3    H126428   4.577   5.138   2.894  1.3415  0.3825 -1.2137
 1623TIP3    H226429   4.525   5.047   2.784  0.1724 -0.7782  0.2645
 1624TIP3   OH226430   1.619   4.688   2.494  0.2965 -0.1064  0.2739
 1624TIP3    H126431   1.638   4.605   2.539  2.6435 -1.2904 -2.5912
 1624TIP3    H226432   1.688   4.748   2.524 -0.9337  0.6578  1.7325
 1625TIP3   OH226433   0.883   5.742   0.263 -0.2487 -0.0924 -0.3604
 1625TIP3    H126434   0.831   5.677   0.312  0.5154  0.5037  1.3147
 1625TIP3    H226435   0.950   5.691   0.219 -0.8077 -0.6192 -0.6229
 1626TIP3   OH226436   0.619   2.743   2.416  0.4263 -0.1556  0.3204
 1626TIP3    H126437   0.625   2.773   2.507 -1.6648  0.5808  0.2687
 1626TIP3    H226438   0.569   2.811   2.371 -0.7196 -1.6684 -0.8027
 1627TIP3   OH226439   3.151   3.435   8.086  0.5616  0.2797 -0.3583
 1627TIP3    H126440   3.242   3.461   8.103  1.1149 -1.4779 -0.5063
 1627TIP3    H226441   3.123   3.393   8.167  0.3161 -0.3460 -0.7653
 1628TIP3   OH226442   1.045   4.264   1.061  0.1133  0.3731 -0.7613
 1628TIP3    H126443   1.041   4.323   0.986  1.3427  0.6374 -0.6282
 1628TIP3    H226444   1.071   4.179   1.024 -1.6990 -0.1464 -0.9602
 1629TIP3   OH226445   1.129   3.969   0.387  0.1050  0.6058  0.1231
 1629TIP3    H126446   1.223   3.983   0.380  0.3211 -0.8736 -0.1779
 1629TIP3    H226447   1.120   3.886   0.434 -0.9207 -1.2022 -2.9375
 1630TIP3   OH226448   3.585   1.505   9.053  0.4289  0.1196 -0.0609
 1630TIP3    H126449   3.641   1.473   8.982  1.8124  1.5207  0.3183
 1630TIP3    H226450   3.547   1.586   9.019  0.7004  0.5319  0.5846
 1631TIP3   OH226451   0.266   1.896   8.866 -0.7825 -0.1132 -0.5905
 1631TIP3    H126452   0.178   1.925   8.840 -1.2948  0.4505  1.5611
 1631TIP3    H226453   0.250   1.827   8.931  0.3486  0.4202  0.2817
 1632TIP3   OH226454   5.484   3.356   3.251  0.2276  0.5782  0.0941
 1632TIP3    H126455   5.533   3.438   3.253  0.3922  0.5502  3.6003
 1632TIP3    H226456   5.552   3.288   3.245  0.4806  0.6245  1.9639
 1633TIP3   OH226457   1.175   4.407   8.437  0.2743 -0.1423  0.1549
 1633TIP3    H126458   1.134   4.480   8.390  0.3929 -0.5915 -0.6612
 1633TIP3    H226459   1.257   4.391   8.389 -0.6106 -2.0083 -0.8259
 1634TIP3   OH226460   1.486   6.166   2.314 -0.5483 -0.2237 -0.1774
 1634TIP3    H126461   1.492   6.079   2.274 -0.0148 -0.5736  0.6413
 1634TIP3    H226462   1.394   6.191   2.305 -1.0928 -1.6202  1.1160
 1635TIP3   OH226463   1.372   5.660   9.244  0.3201 -0.1286 -0.3127
 1635TIP3    H126464   1.286   5.677   9.206  0.8764  1.2838 -1.0074
 1635TIP3    H226465   1.413   5.596   9.185  0.1398 -0.0238 -0.5507
 1636TIP3   OH226466   0.872   2.959   1.723 -0.0482 -0.2230  1.2374
 1636TIP3    H126467   0.795   2.950   1.667 -0.1499 -3.6738  1.6950
 1636TIP3    H226468   0.942   2.985   1.663 -0.9148 -0.2195  0.2010
 1637TIP3   OH226469   0.869   5.928   2.787 -0.4404  0.1007 -0.0795
 1637TIP3    H126470   0.950   5.979   2.775  2.2925 -3.6402  0.7085
 1637TIP3    H226471   0.851   5.934   2.880 -0.2884 -0.1127 -0.0355
 1638TIP3   OH226472   6.244   3.344   0.695  0.5025 -0.1867 -0.0315
 1638TIP3    H126473   6.189   3.267   0.708 -0.6252  0.4930 -0.6227
 1638TIP3    H226474   6.254   3.382   0.783 -1.5229  0.6797 -0.1151
 1639TIP3   OH226475   1.150   5.157   1.538 -0.2774  0.0845  0.1960
 1639TIP3    H126476   1.170   5.161   1.632  0.4388  0.9240  0.0204
 1639TIP3    H226477   1.092   5.232   1.524 -2.0206 -1.1752  0.3189
 1640TIP3   OH226478   5.004   5.948   1.416 -0.6062 -0.1941 -0.5442
 1640TIP3    H126479   4.929   5.958   1.358 -3.1498 -0.7833  2.4118
 1640TIP3    H226480   4.995   5.861   1.454  0.9237  0.1394  0.7171
 1641TIP3   OH226481   2.429   4.470   8.426  0.3054 -0.3605  0.0518
 1641TIP3    H126482   2.443   4.549   8.374  1.2964  0.5187  1.5568
 1641TIP3    H226483   2.401   4.403   8.363  4.0686 -0.1702 -2.1050
 1642TIP3   OH226484   2.642   5.668   8.749 -0.4549 -0.0349  0.3528
 1642TIP3    H126485   2.637   5.752   8.795 -0.8848  0.1930 -0.1047
 1642TIP3    H226486   2.728   5.670   8.707  0.5648 -0.8619  2.2984
 1643TIP3   OH226487   2.201   4.409   0.879  0.0403 -0.0541 -0.3401
 1643TIP3    H126488   2.206   4.393   0.973 -0.5119  2.0377  0.0958
 1643TIP3    H226489   2.263   4.480   0.863 -2.6107  2.3593 -0.8010
 1644TIP3   OH226490   3.812   5.076   0.256 -0.4376 -0.0863 -0.0102
 1644TIP3    H126491   3.875   5.119   0.314 -1.6607  1.2664  0.3868
 1644TIP3    H226492   3.795   4.992   0.299  2.0818 -1.1170 -0.8621
 1645TIP3   OH226493   4.248   0.555   1.832 -0.3237 -0.0675 -0.3828
 1645TIP3    H126494   4.284   0.552   1.743 -0.2046  2.1433 -0.4682
 1645TIP3    H226495   4.154   0.569   1.819 -0.1809  1.2022 -0.2055
 1646TIP3   OH226496   0.459   6.592   9.103 -0.0644 -0.1194 -0.1113
 1646TIP3    H126497   0.481   6.683   9.122 -0.6279  0.0659 -0.3175
 1646TIP3    H226498   0.459   6.549   9.189  0.9184 -0.0961 -0.0873
 1647TIP3   OH226499   5.015   1.551   0.486  0.4180  0.0049 -0.2135
 1647TIP3    H126500   5.095   1.518   0.446 -0.2964  0.0196 -1.7027
 1647TIP3    H226501   4.966   1.591   0.414 -1.2664 -0.6580  0.5213
 1648TIP3   OH226502   2.781   0.341   0.191  0.0522 -0.1980 -0.2638
 1648TIP3    H126503   2.822   0.291   0.262 -0.9951 -2.3021 -1.0396
 1648TIP3    H226504   2.853   0.360   0.131  0.8979  1.3488  1.1634
 1649TIP3   OH226505   2.693   0.136   7.888 -0.3265  0.7622  0.1622
 1649TIP3    H126506   2.775   0.117   7.844  0.0550 -1.0537  1.5586
 1649TIP3    H226507   2.642   0.055   7.881  0.0417  0.0861  3.5638
 1650TIP3   OH226508   4.838   5.425   7.463 -0.1027  0.3738  0.2050
 1650TIP3    H126509   4.881   5.355   7.512  1.2696 -0.0050 -1.4210
 1650TIP3    H226510   4.901   5.497   7.464  0.5298 -0.0595 -1.8990
 1651TIP3   OH226511   0.922   6.575   1.415  0.0359  0.1430  0.0295
 1651TIP3    H126512   0.852   6.551   1.476 -0.7169  0.1551 -0.8125
 1651TIP3    H226513   0.923   6.670   1.416  0.9367  0.1419  1.0246
 1652TIP3   OH226514   5.804   2.142   9.299  0.0869  0.1384 -0.2024
 1652TIP3    H126515   5.713   2.126   9.274  0.1833  2.4068 -2.2814
 1652TIP3    H226516   5.797   2.190   9.382 -0.5852 -0.0793 -0.1239
 1653TIP3   OH226517   4.654   1.806   2.043  0.2691  0.1636 -0.0009
 1653TIP3    H126518   4.643   1.715   2.017 -0.1166  0.3216 -0.4042
 1653TIP3    H226519   4.749   1.818   2.049  0.3208 -0.2757  0.1040
 1654TIP3   OH226520   2.909   4.403   2.475 -0.1117 -0.0009  0.0738
 1654TIP3    H126521   2.879   4.464   2.408 -0.2797 -0.4686 -0.2822
 1654TIP3    H226522   2.896   4.449   2.558  2.1629  1.4732 -0.3000
 1655TIP3   OH226523   3.955   6.162   0.100 -0.4500 -0.5013  0.6091
 1655TIP3    H126524   3.918   6.205   0.177 -0.5400 -0.1071  0.3509
 1655TIP3    H226525   3.912   6.076   0.098  0.4964 -1.0264  1.7109
 1656TIP3   OH226526   0.279   4.181   1.061  0.0851  0.0710  0.2289
 1656TIP3    H126527   0.306   4.263   1.102 -2.1673 -0.1476  2.4177
 1656TIP3    H226528   0.354   4.155   1.008  0.6506  3.8202 -1.0865
 1657TIP3   OH226529   2.487   2.137   0.599 -0.6878  0.2210 -0.2327
 1657TIP3    H126530   2.573   2.095   0.597 -0.5952  0.4424 -1.4266
 1657TIP3    H226531   2.425   2.065   0.609 -0.3018  0.2158  4.8469
 1658TIP3   OH226532   2.582   0.360   7.788  0.0466 -0.4759 -0.5236
 1658TIP3    H126533   2.624   0.288   7.836 -0.3378 -1.5238 -1.7228
 1658TIP3    H226534   2.653   0.398   7.736  0.3511  0.3388  0.4461
 1659TIP3   OH226535   4.120   4.402   1.250  0.5098 -0.1079  0.0247
 1659TIP3    H126536   4.034   4.381   1.287  0.2776  1.4899  0.5004
 1659TIP3    H226537   4.160   4.317   1.231 -0.3916 -0.9424  1.6231
 1660TIP3   OH226538   1.074   4.938   0.508  0.0944 -0.0197  0.0717
 1660TIP3    H126539   1.142   5.005   0.504  0.8645 -0.8022 -0.1757
 1660TIP3    H226540   0.997   4.980   0.469  0.4213  0.8786  0.3690
 1661TIP3   OH226541   6.202   0.403   0.215 -0.2329 -0.0433 -0.0899
 1661TIP3    H126542   6.164   0.413   0.302  0.5630 -0.3964  0.3061
 1661TIP3    H226543   6.127   0.405   0.155 -0.7511  0.5328  0.5753
 1662TIP3   OH226544   3.022   6.461   8.252  0.4305  0.6127  0.0195
 1662TIP3    H126545   2.975   6.541   8.273  1.1796  0.7396  1.3361
 1662TIP3    H226546   3.093   6.457   8.316  0.3965 -1.1220  0.0139
 1663TIP3   OH226547   0.687   1.508   1.285 -0.0681 -0.3046  0.2332
 1663TIP3    H126548   0.688   1.413   1.280  1.0907 -0.2612 -3.2088
 1663TIP3    H226549   0.594   1.532   1.286 -0.3920 -1.4600 -0.5804
 1664TIP3   OH226550   2.433   3.498   8.319  0.5105 -0.0914 -0.5190
 1664TIP3    H126551   2.479   3.578   8.346  0.4528 -0.1310 -0.3026
 1664TIP3    H226552   2.402   3.459   8.401  2.1063 -1.2950 -0.4367
 1665TIP3   OH226553   2.365   0.514   1.994 -0.4323  0.2485  0.2177
 1665TIP3    H126554   2.281   0.546   2.026 -0.9927  0.6472 -1.5854
 1665TIP3    H226555   2.427   0.583   2.016 -1.3956  2.1203 -2.4443
 1666TIP3   OH226556   0.968   0.232   3.390 -0.0658  0.2711  0.2881
 1666TIP3    H126557   0.914   0.306   3.417 -0.0815  0.7638 -1.0161
 1666TIP3    H226558   1.050   0.243   3.439 -0.3035  0.7915  0.5778
 1667TIP3   OH226559   2.768   2.324   1.896  0.1091  0.4235  0.4643
 1667TIP3    H126560   2.768   2.379   1.974 -0.2003 -0.2342  0.9368
 1667TIP3    H226561   2.682   2.338   1.856 -0.4258 -0.5827  1.2205
 1668TIP3   OH226562   4.218   2.855   1.990  0.1795  0.7222  0.2341
 1668TIP3    H126563   4.292   2.895   1.943 -0.0296 -0.3213 -1.0291
 1668TIP3    H226564   4.249   2.768   2.013 -0.5531  0.3970 -0.0028
 1669TIP3   OH226565   2.094   3.853   9.078 -0.0556  0.6821 -0.1541
 1669TIP3    H126566   2.069   3.761   9.082 -0.3606  0.7690  3.5126
 1669TIP3    H226567   2.139   3.862   8.994 -1.8649 -2.2580 -1.5954
 1670TIP3   OH226568   0.570   0.373   8.078  0.2238 -0.0309 -0.2522
 1670TIP3    H126569   0.499   0.340   8.133  0.2371  0.5067  0.0957
 1670TIP3    H226570   0.543   0.461   8.055  0.9878  0.3460  0.2599
 1671TIP3   OH226571   0.296   3.304   8.865 -0.0139 -0.0837 -0.4405
 1671TIP3    H126572   0.326   3.341   8.948  1.4711  0.1444 -1.0484
 1671TIP3    H226573   0.201   3.301   8.873 -0.0073  1.4371  0.6470
 1672TIP3   OH226574   5.241   2.576   2.134 -0.4174 -0.2124 -0.0704
 1672TIP3    H126575   5.222   2.575   2.040  2.1169 -0.1252 -0.6634
 1672TIP3    H226576   5.238   2.668   2.158  2.6361  0.2405 -1.0193
 1673TIP3   OH226577   2.688   4.293   7.854 -0.3336 -0.1768 -0.3645
 1673TIP3    H126578   2.715   4.202   7.845  0.2218  0.0517 -1.1237
 1673TIP3    H226579   2.593   4.291   7.843 -0.3209 -0.6520 -0.4120
 1674TIP3   OH226580   2.592   4.133   2.901 -0.1248 -0.1459 -0.9186
 1674TIP3    H126581   2.598   4.156   2.994 -0.9168  0.6944 -1.0662
 1674TIP3    H226582   2.679   4.155   2.866  0.2395 -0.6401 -0.3563
 1675TIP3   OH226583   4.152   6.084   1.421 -0.0336 -0.1496  0.1424
 1675TIP3    H126584   4.189   6.141   1.354  1.9227 -0.9982  0.4275
 1675TIP3    H226585   4.212   6.009   1.425 -1.1486 -1.0290  1.5164
 1676TIP3   OH226586   6.645   0.898   1.172 -0.1760 -0.0741 -0.8599
 1676TIP3    H126587   6.717   0.850   1.213 -0.9378 -0.5704 -0.0416
 1676TIP3    H226588   6.684   0.979   1.140  0.9176 -0.7355 -1.2461
 1677TIP3   OH226589   2.208   3.331   8.750  0.1924  0.0502  0.0686
 1677TIP3    H126590   2.232   3.357   8.839 -1.1809  1.0889  0.1793
 1677TIP3    H226591   2.136   3.390   8.727  0.5867 -0.1326 -1.7775
 1678TIP3   OH226592   5.184   1.019   1.243  0.1484  0.2320  0.4505
 1678TIP3    H126593   5.271   0.987   1.265 -0.3143  0.5904  3.1614
 1678TIP3    H226594   5.158   1.072   1.318 -2.1025  0.7648 -0.6201
 1679TIP3   OH226595   0.080   4.091   2.078  0.2203  0.0232  0.2639
 1679TIP3    H126596   0.104   4.134   2.160 -1.8014 -1.6847  1.8599
 1679TIP3    H226597   0.144   4.020   2.068  0.3963  0.1579  0.4353
 1680TIP3   OH226598   3.164   2.562   1.925 -0.5433 -0.0887  0.1892
 1680TIP3    H126599   3.101   2.535   1.991 -0.7656  0.8764  0.3883
 1680TIP3    H226600   3.248   2.526   1.956 -0.9209 -1.0679  0.1060
 1681TIP3   OH226601   5.336   4.159   1.322  0.8405 -0.2703  0.6066
 1681TIP3    H126602   5.425   4.182   1.349  1.4840 -3.4287  1.5511
 1681TIP3    H226603   5.280   4.202   1.387  1.7747  0.2031  1.1274
 1682TIP3   OH226604   6.526   0.540   9.005 -0.3074  0.1921 -0.0542
 1682TIP3    H126605   6.458   0.577   9.061 -2.3923 -1.4670 -1.3188
 1682TIP3    H226606   6.541   0.606   8.938 -0.7716  0.5453  0.1834
 1683TIP3   OH226607   4.804   1.262   7.941  0.3914 -0.6503  0.1682
 1683TIP3    H126608   4.894   1.289   7.959  0.6318 -1.7524  0.6607
 1683TIP3    H226609   4.807   1.226   7.852 -0.0272  1.2825 -0.6879
 1684TIP3   OH226610   3.434   3.699   7.163  0.5299  0.1888  0.1909
 1684TIP3    H126611   3.477   3.779   7.193  1.6994 -1.0348  2.0281
 1684TIP3    H226612   3.506   3.636   7.153 -0.2854 -0.5106 -1.7898
 1685TIP3   OH226613   1.674   4.334   2.948 -0.4096  1.0452 -0.3211
 1685TIP3    H126614   1.743   4.365   3.007  1.1784  0.5276 -1.8164
 1685TIP3    H226615   1.600   4.393   2.964  1.9906  4.9467 -2.0782
 1686TIP3   OH226616   0.330   0.050   2.084  0.1055  0.8556  0.0196
 1686TIP3    H126617   0.329   0.127   2.140  0.2404  1.0629 -0.2622
 1686TIP3    H226618   0.239   0.041   2.054  0.1725  1.1464 -0.2756
 1687TIP3   OH226619   1.874   1.573   0.168 -0.5372 -0.3088 -0.3637
 1687TIP3    H126620   1.934   1.550   0.098 -1.1121 -0.6190 -0.7649
 1687TIP3    H226621   1.790   1.536   0.141 -1.1830  1.1377 -0.3878
 1688TIP3   OH226622   4.529   4.130   0.218 -0.1954 -0.1309  0.1444
 1688TIP3    H126623   4.566   4.046   0.191  0.0230 -0.2797  0.8758
 1688TIP3    H226624   4.603   4.191   0.214 -0.2510 -0.0719  0.0292
 1689TIP3   OH226625   0.689   6.064   0.624  0.1242  0.1211  0.1765
 1689TIP3    H126626   0.667   5.976   0.655  1.3600 -0.0584  0.5683
 1689TIP3    H226627   0.767   6.053   0.570 -0.5975  0.7774 -1.0588
 1690TIP3   OH226628   2.893   5.072   2.300  0.5144  0.1651  0.6713
 1690TIP3    H126629   2.816   5.128   2.297 -0.1621 -0.6811  1.4589
 1690TIP3    H226630   2.906   5.044   2.209  0.3118  0.8604  0.4257
 1691TIP3   OH226631   0.683   4.463   0.776  0.0015 -0.1794  0.2179
 1691TIP3    H126632   0.620   4.530   0.801  0.2868  0.2439 -0.1763
 1691TIP3    H226633   0.719   4.493   0.693  1.0506 -0.1726  0.6482
 1692TIP3   OH226634   5.281   6.419   7.891 -0.0126 -0.0704  0.0357
 1692TIP3    H126635   5.240   6.418   7.978  0.7129  0.8435  0.4032
 1692TIP3    H226636   5.216   6.460   7.834 -0.6489 -1.0144  0.0403
 1693TIP3   OH226637   5.587   0.968   7.524 -0.3523 -0.0120  0.0358
 1693TIP3    H126638   5.665   0.919   7.497  0.8543  0.1169  2.9112
 1693TIP3    H226639   5.593   1.051   7.478  0.7402 -0.3365 -0.4268
 1694TIP3   OH226640   1.765   1.293   8.150 -0.2815 -0.4525  0.1486
 1694TIP3    H126641   1.731   1.359   8.090  0.7541 -0.7833 -0.8260
 1694TIP3    H226642   1.786   1.218   8.094 -0.8907 -1.4113  1.1589
 1695TIP3   OH226643   3.199   1.141   1.881  0.1731 -0.1292  0.6256
 1695TIP3    H126644   3.277   1.196   1.875  0.9232 -1.1804  0.5308
 1695TIP3    H226645   3.211   1.091   1.962 -0.9272  0.4654  1.1815
 1696TIP3   OH226646   4.324   1.359   1.353  0.4135  0.4810 -0.1646
 1696TIP3    H126647   4.419   1.371   1.354  0.1419  5.1746 -2.4316
 1696TIP3    H226648   4.302   1.347   1.260 -1.2339 -0.2343  0.2798
 1697TIP3   OH226649   4.915   1.413   8.235 -0.0202  0.6648 -0.1438
 1697TIP3    H126650   4.887   1.493   8.279 -0.4089 -0.7290  2.3378
 1697TIP3    H226651   5.008   1.405   8.254 -0.2412 -0.0721  0.7256
 1698TIP3   OH226652   4.642   5.141   0.183  0.5280  0.3434 -0.0113
 1698TIP3    H126653   4.687   5.071   0.229  0.9630  1.2992  1.0672
 1698TIP3    H226654   4.700   5.164   0.111  0.9620  0.3909  0.3454
 1699TIP3   OH226655   3.015   0.207   8.196  0.1867 -0.7344 -0.4924
 1699TIP3    H126656   2.944   0.169   8.248 -1.1437 -0.0692 -1.7511
 1699TIP3    H226657   2.973   0.275   8.143  1.7291 -0.4608 -1.4414
 1700TIP3   OH226658   4.201   6.013   0.111 -0.4678 -0.5588 -0.1558
 1700TIP3    H126659   4.171   5.938   0.163  0.0321 -1.7223 -1.4799
 1700TIP3    H226660   4.122   6.062   0.090 -0.7101 -0.2090  1.4432
 1701TIP3   OH226661   5.294   4.523   2.441 -0.3641  0.2953 -0.6586
 1701TIP3    H126662   5.335   4.609   2.453  0.3202 -0.0848 -0.2327
 1701TIP3    H226663   5.210   4.531   2.485  0.7472 -0.0396  1.6452
 1702TIP3   OH226664   0.855   4.799   9.130 -0.1959 -0.0584 -0.2346
 1702TIP3    H126665   0.937   4.751   9.129 -0.2014 -0.0995 -1.6987
 1702TIP3    H226666   0.871   4.875   9.074 -0.8329  0.5015  0.3187
 1703TIP3   OH226667   4.736   4.144   1.890 -0.1052 -0.0418 -0.5003
 1703TIP3    H126668   4.662   4.097   1.852  0.1171 -0.1356 -0.8241
 1703TIP3    H226669   4.696   4.211   1.946 -0.4226 -0.7232  0.1078
 1704TIP3   OH226670   4.667   4.225   2.879 -0.0701  0.0178  0.4938
 1704TIP3    H126671   4.670   4.130   2.893  1.4460  0.1989  1.6521
 1704TIP3    H226672   4.725   4.261   2.946 -0.8422  1.8012  0.2534
 1705TIP3   OH226673   1.848   1.338   2.647  0.1661 -0.3013  0.4126
 1705TIP3    H126674   1.798   1.257   2.642 -1.0520  0.4707 -0.6883
 1705TIP3    H226675   1.789   1.400   2.690  0.9469  0.1195  0.9150
 1706TIP3   OH226676   4.709   4.043   1.605 -0.2172 -0.5089 -0.0788
 1706TIP3    H126677   4.713   4.139   1.594  0.7559 -0.7614 -2.8388
 1706TIP3    H226678   4.784   4.023   1.661  0.6622  0.2549 -0.9187
 1707TIP3   OH226679   4.191   3.150   2.165 -0.0624  0.0387 -0.1054
 1707TIP3    H126680   4.192   3.055   2.151  1.0655 -0.2922  1.7918
 1707TIP3    H226681   4.244   3.185   2.093  0.5774 -0.9044 -0.1108
 1708TIP3   OH226682   1.224   4.867   1.442 -0.3096  0.0763 -0.1825
 1708TIP3    H126683   1.176   4.949   1.438 -1.1641 -0.4061 -0.0930
 1708TIP3    H226684   1.175   4.813   1.504 -0.3596 -0.8679 -1.0095
 1709TIP3   OH226685   2.893   1.608   0.066 -0.2295 -0.3138 -0.1086
 1709TIP3    H126686   2.919   1.528   0.019 -0.4817 -0.5343  0.1226
 1709TIP3    H226687   2.956   1.614   0.138 -0.2385 -0.3306 -0.0992
 1710TIP3   OH226688   4.125   4.218   3.168  0.2429 -0.0805  0.4026
 1710TIP3    H126689   4.194   4.275   3.135 -0.4432  1.0113  0.7986
 1710TIP3    H226690   4.170   4.137   3.193  1.2763  0.3870  0.0857
 1711TIP3   OH226691   0.347   2.626   0.083  0.1448 -0.3821 -0.4750
 1711TIP3    H126692   0.340   2.553   0.021  0.7029 -0.9148  0.0602
 1711TIP3    H226693   0.412   2.596   0.147 -0.7443 -0.0466  0.6262
 1712TIP3   OH226694   5.492   1.083   7.758 -0.4485  0.5124  0.5074
 1712TIP3    H126695   5.531   1.046   7.678  0.0418  2.6747 -0.3213
 1712TIP3    H226696   5.506   1.016   7.825  3.2375  0.4107 -0.1430
 1713TIP3   OH226697   2.532   3.662   0.577  0.0969  0.3529  1.0217
 1713TIP3    H126698   2.535   3.755   0.599 -0.5937  0.2075  1.8118
 1713TIP3    H226699   2.439   3.644   0.563  0.2736 -0.1234  0.4119
 1714TIP3   OH226700   0.962   5.446   8.272 -0.0433 -0.1979  0.0641
 1714TIP3    H126701   0.901   5.492   8.215  1.6327  1.8231 -0.2255
 1714TIP3    H226702   1.028   5.409   8.213  0.3809 -0.1647  0.5064
 1715TIP3   OH226703   5.924   3.979   2.572  0.8723  0.5926  0.2349
 1715TIP3    H126704   5.860   4.028   2.522  2.3407  0.9301 -1.3788
 1715TIP3    H226705   5.947   4.036   2.645 -0.7680  0.3769  0.9723
 1716TIP3   OH226706   2.517   6.247   2.039 -0.0358  0.1465  0.1434
 1716TIP3    H126707   2.422   6.238   2.036 -0.0068 -0.2638  0.3696
 1716TIP3    H226708   2.549   6.157   2.045  0.3790  0.2654 -0.2609
 1717TIP3   OH226709   5.384   6.535   0.306  0.7549  0.3338  0.2344
 1717TIP3    H126710   5.415   6.590   0.235  2.4749 -0.1362  0.5741
 1717TIP3    H226711   5.414   6.447   0.284  3.2693  0.4872  2.4876
 1718TIP3   OH226712   2.149   5.454   9.207  0.3694  0.1578 -0.4600
 1718TIP3    H126713   2.064   5.498   9.216  0.4472  0.3554 -0.6743
 1718TIP3    H226714   2.128   5.366   9.176  0.2621  0.3072 -0.8151
 1719TIP3   OH226715   3.285   2.165   1.221  0.0645  0.1453  0.1377
 1719TIP3    H126716   3.362   2.108   1.219  0.1209  0.2309 -0.7687
 1719TIP3    H226717   3.215   2.111   1.185 -0.6383 -0.3713  2.1606
 1720TIP3   OH226718   3.426   0.556   1.733 -0.3455  0.0294  0.4942
 1720TIP3    H126719   3.377   0.485   1.692  1.5447 -1.4384  0.6378
 1720TIP3    H226720   3.405   0.634   1.681 -0.5593 -1.1254 -1.2192
 1721TIP3   OH226721   0.096   1.670   0.076 -0.4808  0.1507  0.0306
 1721TIP3    H126722   0.003   1.648   0.067 -0.6947  1.3300 -0.8629
 1721TIP3    H226723   0.096   1.758   0.115  0.3065 -0.4492  1.4750
 1722TIP3   OH226724   6.551   1.670   9.001 -0.3429  0.7801  0.1919
 1722TIP3    H126725   6.505   1.606   9.056  0.0324 -0.0704 -0.4697
 1722TIP3    H226726   6.500   1.750   9.010  0.9470  1.3962  3.6628
 1723TIP3   OH226727   0.765   5.071   1.300  0.5699 -0.2382 -0.2354
 1723TIP3    H126728   0.716   5.090   1.380  2.0945  1.5597  0.3507
 1723TIP3    H226729   0.720   5.121   1.232 -0.2861 -1.1714 -0.3689
 1724TIP3   OH226730   5.833   2.914   2.386 -0.0393 -0.0215 -0.0870
 1724TIP3    H126731   5.756   2.871   2.423 -2.3165  1.9269 -2.1811
 1724TIP3    H226732   5.878   2.952   2.461 -1.9115 -0.0079  1.0852
 1725TIP3   OH226733   4.585   5.483   8.896 -0.1143  0.2220  0.2037
 1725TIP3    H126734   4.561   5.523   8.812  0.1134 -1.2180 -0.5729
 1725TIP3    H226735   4.663   5.432   8.876  0.2336  0.2636  1.4163
 1726TIP3   OH226736   1.731   4.208   7.282  0.2962  0.8498 -0.3553
 1726TIP3    H126737   1.659   4.146   7.282  0.0736  1.1036 -0.7565
 1726TIP3    H226738   1.796   4.169   7.223 -0.0097  1.1771 -0.9232
 1727TIP3   OH226739   0.326   0.494   1.501 -0.4084  0.0024  0.3812
 1727TIP3    H126740   0.375   0.458   1.575 -0.6468 -0.3196  0.3804
 1727TIP3    H226741   0.248   0.440   1.494 -0.1734 -0.2526 -0.3897
 1728TIP3   OH226742   4.707   5.244   8.756 -0.6417  0.4643  0.0533
 1728TIP3    H126743   4.782   5.208   8.803  0.3226  0.3683 -1.4847
 1728TIP3    H226744   4.633   5.189   8.783  0.3653 -1.2202 -0.4907
 1729TIP3   OH226745   3.948   4.944   2.766  0.0202 -0.4406  0.6050
 1729TIP3    H126746   4.004   4.974   2.837 -0.5303 -0.3561  1.0029
 1729TIP3    H226747   3.863   4.928   2.807 -0.0480 -1.2838  0.1495
 1730TIP3   OH226748   0.133   0.824   7.487 -0.4170 -0.3523 -0.3685
 1730TIP3    H126749   0.079   0.850   7.562 -0.4603  0.6249 -0.7235
 1730TIP3    H226750   0.143   0.904   7.435  1.9776 -0.3199  0.0433
 1731TIP3   OH226751   2.628   6.409   8.700  0.3277 -0.1200 -0.2579
 1731TIP3    H126752   2.697   6.472   8.722  0.1084  0.5163 -1.2945
 1731TIP3    H226753   2.673   6.326   8.690  1.1837  0.4963 -2.0395
 1732TIP3   OH226754   3.631   2.771   1.898 -0.4162 -0.0909 -0.3796
 1732TIP3    H126755   3.556   2.722   1.929 -1.0694  0.8181 -0.4673
 1732TIP3    H226756   3.600   2.815   1.819 -0.3284  1.5982  0.4686
 1733TIP3   OH226757   0.557   0.593   8.924 -0.0028 -0.0922  0.3920
 1733TIP3    H126758   0.582   0.540   9.000  1.0512  1.1068  0.9163
 1733TIP3    H226759   0.496   0.658   8.959 -0.2598 -0.1245  0.0119
 1734TIP3   OH226760   6.125   6.350   1.669 -0.1560  0.0747  0.0570
 1734TIP3    H126761   6.163   6.321   1.586  0.2505 -1.2688  0.6909
 1734TIP3    H226762   6.117   6.270   1.721  0.1270  0.9824  1.5414
 1735TIP3   OH226763   6.054   3.941   8.330 -0.0591 -0.0640 -0.1276
 1735TIP3    H126764   5.998   3.963   8.405 -0.4480 -0.3185 -0.3397
 1735TIP3    H226765   5.996   3.895   8.270  0.3155 -0.0850 -0.4748
 1736TIP3   OH226766   3.997   6.565   0.377 -0.3407 -0.1025  0.6468
 1736TIP3    H126767   4.053   6.570   0.455 -0.5747 -0.1834  0.8218
 1736TIP3    H226768   4.054   6.527   0.310  0.3411  1.4269  0.3179
 1737TIP3   OH226769   5.504   1.442   8.236 -0.0835 -0.3479  0.4831
 1737TIP3    H126770   5.473   1.451   8.327 -1.5957  0.6763 -0.1019
 1737TIP3    H226771   5.500   1.531   8.201 -0.1810 -0.8464 -0.7974
 1738TIP3   OH226772   6.466   0.416   2.555 -0.6939  0.1642  0.0350
 1738TIP3    H126773   6.478   0.475   2.630 -0.7800  0.4538 -0.1752
 1738TIP3    H226774   6.542   0.359   2.557 -0.7799  0.0620  0.4419
 1739TIP3   OH226775   1.562   3.995   9.125 -0.0684 -0.1415  0.2059
 1739TIP3    H126776   1.546   3.927   9.189  1.6880 -0.2743  0.5681
 1739TIP3    H226777   1.478   4.039   9.114 -0.7879 -1.1854  1.3340
 1740TIP3   OH226778   1.234   0.150   9.267  0.2154  0.5283  0.3710
 1740TIP3    H126779   1.191   0.079   9.315 -4.2226  1.2082 -2.0741
 1740TIP3    H226780   1.250   0.216   9.334 -2.5717  0.0969  1.6301
 1741TIP3   OH226781   5.447   3.329   8.052 -0.5317 -0.0552 -0.5206
 1741TIP3    H126782   5.499   3.263   8.098 -0.5630  0.6119  0.5109
 1741TIP3    H226783   5.429   3.395   8.119 -2.1234  0.0610 -1.0317
 1742TIP3   OH226784   2.609   6.027   0.109 -0.1966 -0.4172  0.0329
 1742TIP3    H126785   2.578   6.020   0.199  0.2078 -0.7762  0.1497
 1742TIP3    H226786   2.688   5.972   0.107  0.2160  0.1805 -0.3441
 1743TIP3   OH226787   2.039   2.701   2.341  0.3363 -0.4409 -0.0130
 1743TIP3    H126788   1.974   2.769   2.355  0.9408 -0.0044  0.7981
 1743TIP3    H226789   1.993   2.619   2.361  0.1908 -0.0923  1.2075
 1744TIP3   OH226790   2.054   3.094   7.570 -0.8554  0.1078  1.0045
 1744TIP3    H126791   2.129   3.069   7.515 -0.3719 -3.0227  2.8124
 1744TIP3    H226792   1.977   3.070   7.519 -0.5458  0.8282  0.1902
 1745TIP3   OH226793   4.128   2.639   3.040  0.1976  0.5478 -0.3738
 1745TIP3    H126794   4.218   2.656   3.014  0.1208  1.7425  0.0979
 1745TIP3    H226795   4.121   2.674   3.129 -0.7618  0.5966 -0.4567
 1746TIP3   OH226796   4.429   2.829   8.329 -0.0105  0.0441  0.3180
 1746TIP3    H126797   4.360   2.763   8.333 -2.2608  2.2247  0.0306
 1746TIP3    H226798   4.470   2.825   8.416  0.7724 -2.4785 -0.0878
 1747TIP3   OH226799   0.423   1.563   1.182  0.2843  0.0434  0.0320
 1747TIP3    H126800   0.401   1.656   1.190  0.6732  0.0188  1.9810
 1747TIP3    H226801   0.359   1.519   1.238  0.2641 -0.8434 -0.6771
 1748TIP3   OH226802   1.191   1.642   8.229  0.1191  0.0391 -0.2343
 1748TIP3    H126803   1.228   1.727   8.249 -1.2793  1.7591 -3.9479
 1748TIP3    H226804   1.102   1.661   8.197 -1.0171 -3.0369  0.6912
 1749TIP3   OH226805   3.192   1.347   7.675 -0.6902  0.0529 -0.0888
 1749TIP3    H126806   3.198   1.267   7.622  1.3284 -0.4104  0.7718
 1749TIP3    H226807   3.168   1.415   7.612  0.1792 -0.7511 -1.3244
 1750TIP3   OH226808   3.839   1.795   9.105 -0.3464  0.1075 -0.6229
 1750TIP3    H126809   3.902   1.866   9.090  0.5846  0.1397  2.6665
 1750TIP3    H226810   3.844   1.743   9.025  3.0506  0.7542 -1.0179
 1751TIP3   OH226811   4.805   0.237   1.901  0.1893  0.6856  1.0593
 1751TIP3    H126812   4.821   0.165   1.840 -1.7080  0.9537  0.1551
 1751TIP3    H226813   4.827   0.202   1.987  1.7463 -0.1093  0.3869
 1752TIP3   OH226814   1.352   3.395   0.878 -0.3169 -0.1443 -0.4668
 1752TIP3    H126815   1.393   3.309   0.876 -0.9343 -0.4439 -2.5766
 1752TIP3    H226816   1.258   3.377   0.885 -0.5319  0.2744 -1.9133
 1753TIP3   OH226817   0.893   3.040   3.097  0.1343 -0.0446  0.2504
 1753TIP3    H126818   0.961   3.102   3.071  0.4290 -0.6762 -0.5008
 1753TIP3    H226819   0.821   3.096   3.129  0.6447  0.6531  0.1989
 1754TIP3   OH226820   5.243   2.308   3.022  0.3111 -0.4007  0.4629
 1754TIP3    H126821   5.303   2.278   3.091  1.4174 -0.6276 -0.5518
 1754TIP3    H226822   5.203   2.387   3.058 -0.9777 -1.8017  2.3085
 1755TIP3   OH226823   6.108   2.472   2.325  0.5785  0.0321 -0.8297
 1755TIP3    H126824   6.107   2.411   2.252  1.8870 -0.4143 -0.4944
 1755TIP3    H226825   6.090   2.418   2.402 -0.0108  0.3736 -0.7182
 1756TIP3   OH226826   4.579   5.234   0.670  0.2539 -0.4208 -0.0998
 1756TIP3    H126827   4.548   5.306   0.615 -1.1062 -0.8997 -0.0166
 1756TIP3    H226828   4.576   5.157   0.613 -2.7290 -1.2425  0.9353
 1757TIP3   OH226829   2.529   4.627   0.660 -0.0141 -0.2928  0.0864
 1757TIP3    H126830   2.537   4.719   0.686  4.9379 -0.4855  0.1220
 1757TIP3    H226831   2.551   4.627   0.567 -1.1642 -1.3953 -0.2200
 1758TIP3   OH226832   4.281   5.779   8.789  0.3363  0.2243 -0.1122
 1758TIP3    H126833   4.317   5.709   8.735 -0.9029 -0.7639  0.2932
 1758TIP3    H226834   4.244   5.841   8.725  2.4697  1.1703 -0.5254
 1759TIP3   OH226835   4.956   2.478   0.021  0.7175  0.4690 -0.1346
 1759TIP3    H126836   4.922   2.389   0.020  0.9359  0.3919 -0.6303
 1759TIP3    H226837   5.047   2.470  -0.007  0.0719  1.1059 -2.7190
 1760TIP3   OH226838   0.227   5.203   8.961 -0.1464  0.1538  0.0539
 1760TIP3    H126839   0.180   5.123   8.984 -0.3184  0.2458  0.0188
 1760TIP3    H226840   0.289   5.176   8.893 -0.3801  0.1029 -0.1398
 1761TIP3   OH226841   1.179   5.671   9.057 -0.5494 -0.1133 -0.0153
 1761TIP3    H126842   1.202   5.719   8.977 -0.7542 -0.1555 -0.1020
 1761TIP3    H226843   1.106   5.615   9.030 -0.1362 -0.6773  0.0102
 1762TIP3   OH226844   3.923   0.614   2.512  0.4467  0.4787  0.3554
 1762TIP3    H126845   3.872   0.657   2.443  1.5611  1.1846 -0.0362
 1762TIP3    H226846   3.857   0.588   2.577 -0.4163  1.3892 -0.1311
 1763TIP3   OH226847   3.978   0.823   1.299  0.1242  0.0696 -0.4189
 1763TIP3    H126848   4.071   0.800   1.298  0.2158  0.4430 -1.2087
 1763TIP3    H226849   3.974   0.902   1.352  0.4876  0.9171 -1.6026
 1764TIP3   OH226850   5.027   6.037   8.316 -0.0513  0.2823  0.0475
 1764TIP3    H126851   4.956   6.096   8.342 -0.3482 -0.0314 -0.0388
 1764TIP3    H226852   5.029   5.971   8.386 -1.4004 -1.0429 -1.0803
 1765TIP3   OH226853   4.482   0.452   0.942 -0.4426 -0.1858 -0.2651
 1765TIP3    H126854   4.477   0.529   0.998  0.0421 -0.9700  0.8831
 1765TIP3    H226855   4.553   0.472   0.881 -1.0043  0.6891 -0.6465
 1766TIP3   OH226856   3.247   2.517   2.254 -0.7551 -0.6283  0.8342
 1766TIP3    H126857   3.238   2.532   2.348 -1.8964 -0.1168  0.6533
 1766TIP3    H226858   3.301   2.589   2.224 -3.8992  1.7574  0.4356
 1767TIP3   OH226859   3.322   3.335   0.741 -0.1436  0.0586 -0.2739
 1767TIP3    H126860   3.244   3.362   0.693 -0.1866  0.7681  0.1811
 1767TIP3    H226861   3.326   3.393   0.817 -0.0332 -0.9775  0.5537
 1768TIP3   OH226862   5.214   2.361   2.443 -0.4196 -0.7350  0.3074
 1768TIP3    H126863   5.186   2.450   2.465  0.4394 -0.3227 -0.2522
 1768TIP3    H226864   5.142   2.305   2.474 -1.5254  0.2467 -0.4403
 1769TIP3   OH226865   4.169   2.262   7.744 -0.1679 -0.2223  0.2905
 1769TIP3    H126866   4.205   2.199   7.682  2.0436  1.4607 -0.2406
 1769TIP3    H226867   4.101   2.308   7.695  0.8953  0.4316 -0.5926
 1770TIP3   OH226868   3.083   4.354   0.289  0.1028 -0.0260  0.3328
 1770TIP3    H126869   3.003   4.391   0.252  0.3378  0.6426  0.4816
 1770TIP3    H226870   3.054   4.278   0.340 -0.2684 -0.7140 -0.8712
 1771TIP3   OH226871   3.920   1.794   2.542 -0.0076  0.4750  0.8232
 1771TIP3    H126872   3.928   1.866   2.605  1.0598  1.1141 -0.0114
 1771TIP3    H226873   3.994   1.806   2.482 -0.5206 -0.6067 -0.0601
 1772TIP3   OH226874   5.144   1.422   0.859  0.2254  0.4312 -0.4851
 1772TIP3    H126875   5.075   1.414   0.924 -0.3441 -0.5784 -1.1823
 1772TIP3    H226876   5.132   1.510   0.821  0.4145  0.9281  0.5829
 1773TIP3   OH226877   5.031   3.840   2.533 -0.5610  0.1082 -0.0161
 1773TIP3    H126878   4.938   3.856   2.550  0.0874  4.2676  0.7916
 1773TIP3    H226879   5.077   3.887   2.603  2.2039 -1.1808 -0.8044
 1774TIP3   OH226880   2.869   5.846   8.488 -0.4867 -0.4805 -0.1801
 1774TIP3    H126881   2.865   5.760   8.445 -0.3285  0.1015 -1.4180
 1774TIP3    H226882   2.892   5.907   8.417  1.6515  0.2743  1.0626
 1775TIP3   OH226883   4.912   1.868   2.075  0.3962 -0.4421  0.3395
 1775TIP3    H126884   4.894   1.962   2.078 -1.9785 -0.7797 -0.6897
 1775TIP3    H226885   5.006   1.861   2.093  1.0596  2.2619 -1.4101
 1776TIP3   OH226886   0.200   2.988   1.517 -0.2914  0.2089 -0.2805
 1776TIP3    H126887   0.125   2.929   1.514  1.5963 -2.6227  2.5674
 1776TIP3    H226888   0.275   2.932   1.499  1.3919  2.5049 -0.8883
 1777TIP3   OH226889   3.396   1.359   8.424  0.6846  0.1893  0.1516
 1777TIP3    H126890   3.490   1.374   8.410  0.4137  2.5916  0.5266
 1777TIP3    H226891   3.391   1.268   8.453  2.6722 -0.6366 -1.7873
 1778TIP3   OH226892   5.522   6.308   8.969  0.1556  0.3642  0.2279
 1778TIP3    H126893   5.455   6.247   9.000 -0.4174  1.3883  1.0897
 1778TIP3    H226894   5.605   6.261   8.980 -0.3540 -0.6319 -0.1039
 1779TIP3   OH226895   0.421   6.617   8.825 -0.5421  0.1160 -0.5217
 1779TIP3    H126896   0.354   6.557   8.793 -2.1976  0.7830  1.4921
 1779TIP3    H226897   0.449   6.580   8.909  1.0063  0.3306 -0.9054
 1780TIP3   OH226898   5.652   1.323   2.511 -0.0070  0.1734  0.3850
 1780TIP3    H126899   5.696   1.361   2.587  0.2836  0.2967  0.1579
 1780TIP3    H226900   5.580   1.382   2.492 -0.4718 -0.2013  0.9565
 1781TIP3   OH226901   0.468   2.337   2.886 -0.0629 -0.6115  0.4878
 1781TIP3    H126902   0.471   2.420   2.934 -1.3115 -1.1380  1.5380
 1781TIP3    H226903   0.427   2.359   2.803 -0.0674 -0.1142  0.6184
 1782TIP3   OH226904   3.540   2.814   7.935 -0.2603  0.4594  0.1066
 1782TIP3    H126905   3.458   2.837   7.890  0.3930  0.9458 -0.8755
 1782TIP3    H226906   3.548   2.880   8.004  0.1022  1.4096 -0.8156
 1783TIP3   OH226907   4.445   1.682   1.004 -0.3527 -0.2141  0.3240
 1783TIP3    H126908   4.398   1.685   1.088  1.2505 -0.4773  1.2887
 1783TIP3    H226909   4.404   1.749   0.951 -1.7856 -0.4263  1.1155
 1784TIP3   OH226910   1.458   4.462   3.061  0.4652 -0.5565 -0.2701
 1784TIP3    H126911   1.386   4.416   3.103 -1.0759  0.1491 -1.9859
 1784TIP3    H226912   1.509   4.499   3.133 -1.1025 -0.7601  0.9991
 1785TIP3   OH226913   1.492   3.409   2.724 -0.8858  0.0310 -0.3236
 1785TIP3    H126914   1.467   3.484   2.779  1.6611 -0.2864  1.4357
 1785TIP3    H226915   1.573   3.436   2.682  0.3608 -1.8677  0.7247
 1786TIP3   OH226916   4.509   4.693   1.472  0.2667  0.1337  0.1565
 1786TIP3    H126917   4.565   4.709   1.549  1.9094 -1.4036 -0.6482
 1786TIP3    H226918   4.553   4.741   1.402 -0.6103  0.6219 -0.0614
 1787TIP3   OH226919   2.339   4.186   9.079 -0.2741 -0.6142  0.4490
 1787TIP3    H126920   2.422   4.154   9.043  1.2136  0.4672  2.6683
 1787TIP3    H226921   2.293   4.223   9.004  2.3464  0.9338 -0.5279
 1788TIP3   OH226922   2.186   5.985   8.623  0.3018 -0.2867  0.3066
 1788TIP3    H126923   2.263   5.986   8.679 -0.5235  1.4927  1.5069
 1788TIP3    H226924   2.215   5.940   8.543  2.5337  0.2439  0.7434
 1789TIP3   OH226925   3.735   2.184   9.153 -0.5578  0.2271 -0.2369
 1789TIP3    H126926   3.691   2.264   9.181 -0.8554 -0.8360  2.7317
 1789TIP3    H226927   3.823   2.191   9.189 -1.1492 -1.5055  1.7732
 1790TIP3   OH226928   3.464   4.693   3.188 -0.0771 -0.4240  0.3423
 1790TIP3    H126929   3.506   4.684   3.273 -2.3265 -0.6134  1.5094
 1790TIP3    H226930   3.393   4.628   3.189  0.8503 -1.6543 -2.3932
 1791TIP3   OH226931   5.762   5.714   7.288 -0.1573 -0.0829 -0.2011
 1791TIP3    H126932   5.749   5.802   7.322  0.2742  0.5517 -1.6389
 1791TIP3    H226933   5.770   5.725   7.194  0.6160 -1.5773 -0.3421
 1792TIP3   OH226934   4.350   2.997   8.863  0.1668 -0.0050 -0.1496
 1792TIP3    H126935   4.259   2.981   8.889 -0.5095  0.3533 -2.1247
 1792TIP3    H226936   4.385   3.053   8.932 -1.6747  1.3546 -0.2411
 1793TIP3   OH226937   5.222   0.404   7.761 -0.5119 -0.5341 -0.0605
 1793TIP3    H126938   5.223   0.315   7.797  0.4032 -1.3522 -1.9990
 1793TIP3    H226939   5.314   0.428   7.750 -0.6789 -0.7799 -2.7620
 1794TIP3   OH226940   0.854   4.244   0.466  0.3422 -0.0269 -0.2991
 1794TIP3    H126941   0.771   4.280   0.436  1.0828 -0.1690 -2.6976
 1794TIP3    H226942   0.831   4.193   0.545 -1.8476 -0.1677 -0.9689
 1795TIP3   OH226943   4.695   2.632   1.528  0.4898  0.7021  0.0158
 1795TIP3    H126944   4.680   2.705   1.468 -2.4906  0.4391  0.2773
 1795TIP3    H226945   4.698   2.671   1.615 -2.6213  0.5097  0.3092
 1796TIP3   OH226946   0.766   0.149   1.016 -1.1016 -0.4589 -0.2585
 1796TIP3    H126947   0.860   0.141   1.032 -1.4415 -0.9336  1.7021
 1796TIP3    H226948   0.753   0.242   0.997 -0.2691 -0.3704 -0.4682
 1797TIP3   OH226949   5.228   3.195   8.379 -0.1764  0.2208 -0.0285
 1797TIP3    H126950   5.183   3.278   8.399 -3.8418 -1.4873 -0.4213
 1797TIP3    H226951   5.189   3.166   8.296  0.1612 -2.3979  0.6423
 1798TIP3   OH226952   1.545   0.841   2.561 -0.1528 -0.0522  0.4010
 1798TIP3    H126953   1.599   0.914   2.589 -0.0992  0.6477 -1.3866
 1798TIP3    H226954   1.473   0.837   2.625  1.0742  0.0560  1.8383
 1799TIP3   OH226955   3.466   4.538   0.160  0.9696  0.5259  0.0171
 1799TIP3    H126956   3.462   4.605   0.092 -0.0418  0.2908 -0.1822
 1799TIP3    H226957   3.543   4.559   0.212  2.8451 -0.3419 -2.2769
 1800TIP3   OH226958   1.816   1.175   1.696  0.1754 -0.0576  0.0448
 1800TIP3    H126959   1.870   1.249   1.670  0.5703 -0.1721  0.5326
 1800TIP3    H226960   1.848   1.102   1.643  0.6008 -0.1602  0.4414
 1801TIP3   OH226961   1.802   0.287   7.792  0.2317 -0.1347  0.0388
 1801TIP3    H126962   1.730   0.346   7.767 -1.1438 -1.7030  0.1263
 1801TIP3    H226963   1.758   0.208   7.824  1.9790 -0.3416  2.1945
 1802TIP3   OH226964   2.386   1.951   9.145  0.4643  0.1245 -0.1405
 1802TIP3    H126965   2.312   2.010   9.130 -0.9821 -1.5493  0.0237
 1802TIP3    H226966   2.379   1.886   9.076  0.5800 -1.1697  1.0165
 1803TIP3   OH226967   0.091   2.708   1.634 -0.0745  0.3702 -0.1699
 1803TIP3    H126968   0.116   2.624   1.672 -0.1252 -0.2320 -1.4235
 1803TIP3    H226969  -0.000   2.696   1.608  0.6464 -0.0801 -2.6763
 1804TIP3   OH226970   5.580   1.783   8.759  0.4753 -0.5994  0.1551
 1804TIP3    H126971   5.638   1.793   8.834 -1.2593  1.2250  1.3502
 1804TIP3    H226972   5.500   1.746   8.795 -0.5561  0.7346 -0.6585
 1805TIP3   OH226973   4.200   0.572   9.010  0.1179 -0.1740 -0.0075
 1805TIP3    H126974   4.236   0.508   9.071  0.2635 -0.5778 -0.5062
 1805TIP3    H226975   4.182   0.522   8.930  0.3027  0.4182 -0.4300
 1806TIP3   OH226976   2.646   1.497   1.320 -1.1159 -0.3800 -0.5071
 1806TIP3    H126977   2.575   1.474   1.379 -2.1432 -1.1071 -1.9507
 1806TIP3    H226978   2.692   1.414   1.305  0.7264  0.2421  1.1831
 1807TIP3   OH226979   0.965   3.532   0.915 -0.5237  0.4938  0.1034
 1807TIP3    H126980   0.881   3.488   0.929 -0.2651 -0.3293 -0.8509
 1807TIP3    H226981   1.030   3.461   0.917 -0.2133  0.6149 -2.6246
 1808TIP3   OH226982   4.340   0.206   8.797  0.4215 -0.6380 -0.2639
 1808TIP3    H126983   4.392   0.128   8.820  0.0065 -0.8822 -0.1434
 1808TIP3    H226984   4.333   0.254   8.879 -0.1691 -0.9797 -0.1113
 1809TIP3   OH226985   5.129   2.956   0.790 -0.3818  0.3862  0.3482
 1809TIP3    H126986   5.083   2.909   0.860  1.1842 -0.3959  0.8966
 1809TIP3    H226987   5.174   2.887   0.740  2.0124  1.2286  1.2033
 1810TIP3   OH226988   4.891   5.495   8.017  0.0996 -0.0200 -0.2581
 1810TIP3    H126989   4.906   5.552   7.941  1.5871 -0.1008 -0.0513
 1810TIP3    H226990   4.933   5.412   7.993 -2.5053 -1.3202 -0.7937
 1811TIP3   OH226991   3.706   5.483   1.707 -0.8119 -0.5762  0.4975
 1811TIP3    H126992   3.658   5.413   1.664 -0.5772  0.0178 -0.7684
 1811TIP3    H226993   3.794   5.446   1.721 -0.4681 -0.3072 -0.8368
 1812TIP3   OH226994   0.544   6.304   1.064 -0.4698  0.4409 -0.3881
 1812TIP3    H126995   0.574   6.297   0.973 -0.8644  1.3354 -0.6068
 1812TIP3    H226996   0.607   6.254   1.115 -1.9939 -2.8497 -1.4595
 1813TIP3   OH226997   0.121   5.624   1.711  0.1495 -0.1753  0.0372
 1813TIP3    H126998   0.080   5.633   1.797 -0.7731  0.2810 -0.4362
 1813TIP3    H226999   0.049   5.599   1.653  0.7838 -0.5962 -0.5820
 1814TIP3   OH227000   2.591   3.572   9.019 -0.6144 -0.0043 -0.4971
 1814TIP3    H127001   2.569   3.531   9.103 -1.2126 -1.4354 -1.3208
 1814TIP3    H227002   2.686   3.564   9.012 -0.5869 -0.0778 -0.0658
 1815TIP3   OH227003   3.387   0.156   0.921  0.2659  0.0124 -0.3988
 1815TIP3    H127004   3.455   0.090   0.907  1.6013  0.9366  1.3526
 1815TIP3    H227005   3.417   0.232   0.873 -0.1059  0.0766 -0.5318
 1816TIP3   OH227006   1.162   0.644   0.579 -0.0015 -0.4278  0.4180
 1816TIP3    H127007   1.130   0.659   0.668 -0.3249 -0.0813  0.2477
 1816TIP3    H227008   1.235   0.582   0.589  0.1716 -0.1432  0.9563
 1817TIP3   OH227009   3.081   5.873   1.910 -0.3179 -0.0102  0.0569
 1817TIP3    H127010   3.130   5.849   1.989 -0.8006 -0.3704  0.2443
 1817TIP3    H227011   2.998   5.908   1.942 -0.2092  0.5584 -0.2649
 1818TIP3   OH227012   2.210   6.300   0.784 -0.1286 -0.8378  0.1414
 1818TIP3    H127013   2.154   6.240   0.736 -2.1400  0.3413  0.9010
 1818TIP3    H227014   2.215   6.379   0.730  1.1041 -1.0283 -0.0643
 1819TIP3   OH227015   3.930   3.368   8.552  1.2407  0.1358 -0.1517
 1819TIP3    H127016   3.933   3.446   8.496 -0.7566  0.2888 -0.0991
 1819TIP3    H227017   3.866   3.311   8.511  0.2802 -0.0674  1.5301
 1820TIP3   OH227018   4.862   3.502   1.526  0.1075 -0.1918 -0.0544
 1820TIP3    H127019   4.770   3.475   1.523 -0.3225  1.2008  0.2613
 1820TIP3    H227020   4.870   3.551   1.608  0.8200  0.7808 -0.6854
 1821TIP3   OH227021   5.404   4.191   8.799  0.1928 -0.1565  0.0322
 1821TIP3    H127022   5.441   4.214   8.714  0.3776  1.5170  0.5214
 1821TIP3    H227023   5.321   4.239   8.803  0.2559 -0.1020  0.8530
 1822TIP3   OH227024   3.624   0.911   0.016  0.8350 -0.7590  0.1612
 1822TIP3    H127025   3.571   0.851  -0.036  1.3474 -0.7758 -0.3384
 1822TIP3    H227026   3.571   0.925   0.095 -0.4166  0.0720 -0.7828
 1823TIP3   OH227027   3.440   5.578   2.401 -0.7150  0.3880  1.0853
 1823TIP3    H127028   3.436   5.638   2.326 -3.1138  0.3409  1.1134
 1823TIP3    H227029   3.495   5.624   2.464 -0.1921  1.2802  0.0214
 1824TIP3   OH227030   0.349   1.444   0.737 -0.6962  0.0555  0.2329
 1824TIP3    H127031   0.323   1.501   0.810 -0.4211  0.0605  0.3315
 1824TIP3    H227032   0.433   1.481   0.708 -1.1886  0.5548 -0.6191
 1825TIP3   OH227033   6.619   5.925   1.508  0.0591  0.2380 -0.4153
 1825TIP3    H127034   6.624   5.952   1.417 -0.8742  1.2966 -0.1660
 1825TIP3    H227035   6.657   5.998   1.557 -0.5248  0.1907  0.1201
 1826TIP3   OH227036   2.733   0.362   8.363  0.3022 -0.6069  0.0323
 1826TIP3    H127037   2.662   0.302   8.340 -0.9094  0.7884 -0.0156
 1826TIP3    H227038   2.755   0.339   8.454 -0.3764 -0.8980  0.1287
 1827TIP3   OH227039   6.292   1.756   0.703 -0.2006  0.2194  0.2051
 1827TIP3    H127040   6.203   1.725   0.688 -0.8593  2.1674 -0.2599
 1827TIP3    H227041   6.312   1.809   0.626  1.4639 -0.3416  0.2058
 1828TIP3   OH227042   2.634   3.599   0.822  0.5676  0.2133 -0.4980
 1828TIP3    H127043   2.638   3.681   0.871  1.4451  0.0897 -0.3453
 1828TIP3    H227044   2.641   3.625   0.731 -1.9341  0.5196 -0.6785
 1829TIP3   OH227045   2.396   0.153   8.771  0.6441 -0.7064  0.4159
 1829TIP3    H127046   2.392   0.247   8.790  0.3644 -0.6281 -0.0255
 1829TIP3    H227047   2.311   0.119   8.800  1.2285 -1.0581  1.7950
 1830TIP3   OH227048   1.147   6.178   8.617  0.3556  0.3336  0.0769
 1830TIP3    H127049   1.133   6.099   8.564  1.0082  1.5456 -1.9803
 1830TIP3    H227050   1.234   6.208   8.594 -0.3803  2.4063 -0.2229
 1831TIP3   OH227051   5.215   5.091   1.349 -0.4092  0.0007  0.0798
 1831TIP3    H127052   5.258   5.161   1.298  1.9993 -0.6304  1.0879
 1831TIP3    H227053   5.150   5.136   1.402  1.3169  1.5750  0.9490
 1832TIP3   OH227054   2.112   2.038   9.040  0.3775 -0.2214 -0.6202
 1832TIP3    H127055   2.081   2.063   8.953  0.5166  0.9357 -0.3475
 1832TIP3    H227056   2.061   2.091   9.100 -1.1625 -2.4228  0.1634
 1833TIP3   OH227057   3.252   5.477   8.908  0.1641 -0.2047  0.0834
 1833TIP3    H127058   3.175   5.447   8.958  0.7145 -0.1097  1.0142
 1833TIP3    H227059   3.322   5.418   8.936  0.4507 -0.2402 -0.7044
 1834TIP3   OH227060   4.142   1.497   2.082 -0.1037 -0.2315 -0.3484
 1834TIP3    H127061   4.153   1.586   2.047  2.0249 -0.7473 -1.1091
 1834TIP3    H227062   4.168   1.506   2.174 -1.9445  0.3283  0.1519
 1835TIP3   OH227063   4.558   4.243   2.528 -0.0793 -0.0795 -0.2208
 1835TIP3    H127064   4.638   4.282   2.565  0.8741 -1.0243 -1.2073
 1835TIP3    H227065   4.536   4.171   2.587 -0.7848  0.7632  0.5821
 1836TIP3   OH227066   3.890   5.280   9.157 -0.1215  0.2463 -0.2004
 1836TIP3    H127067   3.898   5.195   9.115  1.7052  0.1735  0.1894
 1836TIP3    H227068   3.920   5.343   9.092 -2.3347  0.7521 -0.8185
 1837TIP3   OH227069   1.450   4.436   8.366 -0.5340  0.1263 -0.9835
 1837TIP3    H127070   1.436   4.523   8.404  0.1692  0.2736 -1.0310
 1837TIP3    H227071   1.423   4.445   8.275 -0.9425  0.1561 -0.8575
 1838TIP3   OH227072   4.490   4.283   1.340 -0.1794  0.0637  0.4897
 1838TIP3    H127073   4.462   4.221   1.408  0.8049 -0.4948  0.4131
 1838TIP3    H227074   4.425   4.274   1.271  0.7072 -1.9751 -0.1485
 1839TIP3   OH227075   5.267   4.281   2.804 -0.3560  0.1595  0.0553
 1839TIP3    H127076   5.363   4.276   2.806 -0.3660  0.3121  1.0345
 1839TIP3    H227077   5.247   4.373   2.821 -0.7050 -0.1195  1.2669
 1840TIP3   OH227078   0.179   6.209   2.557  0.2054 -0.2876 -0.0451
 1840TIP3    H127079   0.202   6.135   2.613  1.1430  1.6178  2.2989
 1840TIP3    H227080   0.164   6.171   2.471  2.4035 -2.9889  0.6131
 1841TIP3   OH227081   1.072   0.545   7.864  0.2914 -0.2197  0.0434
 1841TIP3    H127082   1.002   0.479   7.864 -0.0896  0.1789  0.1792
 1841TIP3    H227083   1.152   0.495   7.876 -0.1420 -0.5194  1.9860
 1842TIP3   OH227084   0.889   5.062   8.215  0.5254 -0.5109 -0.1057
 1842TIP3    H127085   0.963   5.087   8.160  0.2644  0.5254 -0.0076
 1842TIP3    H227086   0.857   4.980   8.177  2.0769 -1.2962  0.2069
 1843TIP3   OH227087   1.439   2.504   7.528 -0.1329 -0.9116 -0.7381
 1843TIP3    H127088   1.409   2.428   7.477 -0.4728 -0.3609 -1.3744
 1843TIP3    H227089   1.517   2.535   7.482 -1.3308  0.5358 -1.8646
 1844TIP3   OH227090   1.157   2.781   0.954 -0.1481 -0.2569  0.1704
 1844TIP3    H127091   1.234   2.796   0.900 -0.1335  0.5013  0.3951
 1844TIP3    H227092   1.119   2.700   0.919 -0.7435  0.7634 -1.7196
 1845TIP3   OH227093   5.288   3.212   8.657 -0.7113 -0.0128 -0.1998
 1845TIP3    H127094   5.255   3.222   8.567 -0.5010 -0.9865 -0.3966
 1845TIP3    H227095   5.362   3.272   8.662  0.1448 -0.9548 -1.1335
 1846TIP3   OH227096   6.593   3.981   9.291 -0.4631  0.5212 -0.3032
 1846TIP3    H127097   6.550   4.064   9.311 -0.2785  0.4848  0.2533
 1846TIP3    H227098   6.661   4.004   9.227 -0.2162  0.8466  0.0732
 1847TIP3   OH227099   4.052   1.946   7.517 -0.1574  0.8712 -0.2175
 1847TIP3    H127100   3.984   1.963   7.583 -0.0109 -1.6060  0.6931
 1847TIP3    H227101   4.005   1.901   7.446  0.3033  0.1603 -0.0834
 1848TIP3   OH227102   0.364   4.008   8.263 -0.3299 -0.0165  0.0884
 1848TIP3    H127103   0.280   3.966   8.244 -0.1498 -0.9958  1.3431
 1848TIP3    H227104   0.351   4.049   8.349  0.8791 -1.3845  0.9638
 1849TIP3   OH227105   3.267   0.595   8.204 -0.0864  0.9477  0.1712
 1849TIP3    H127106   3.282   0.658   8.133 -0.6072  0.6145 -0.2405
 1849TIP3    H227107   3.224   0.647   8.272 -0.1698  1.1246 -0.0138
 1850TIP3   OH227108   0.058   5.167   1.819 -0.1138  0.0444 -0.0736
 1850TIP3    H127109  -0.018   5.127   1.775 -0.4382 -0.5308  0.9770
 1850TIP3    H227110   0.041   5.261   1.815 -1.1473 -0.0949  0.5808
 1851TIP3   OH227111   3.330   4.736   1.742 -0.0574 -0.2570  0.5590
 1851TIP3    H127112   3.241   4.750   1.709  0.4897  1.2825 -0.3832
 1851TIP3    H227113   3.368   4.824   1.747  1.6734 -0.9375  0.1676
 1852TIP3   OH227114   0.786   2.986   8.240 -0.9266  0.8205  0.4011
 1852TIP3    H127115   0.836   2.924   8.292  0.8585  0.9917 -1.0245
 1852TIP3    H227116   0.851   3.034   8.189 -2.4992  1.2650 -1.3402
 1853TIP3   OH227117   1.246   6.648   1.084  0.4367  0.1154  0.2227
 1853TIP3    H127118   1.241   6.558   1.118  0.7274 -1.1369 -2.7778
 1853TIP3    H227119   1.168   6.657   1.030  2.3861  0.1399 -2.7777
 1854TIP3   OH227120   6.066   1.360   8.557  0.5506 -0.0202  0.2344
 1854TIP3    H127121   6.109   1.396   8.634 -0.7427 -1.5745  1.7494
 1854TIP3    H227122   6.010   1.431   8.525  0.2986  0.3079  1.3643
 1855TIP3   OH227123   1.771   4.034   8.062  0.2726 -0.0977 -0.6760
 1855TIP3    H127124   1.778   3.954   8.010  1.2944  0.0785 -0.8454
 1855TIP3    H227125   1.845   4.028   8.123  0.0352  0.4636 -0.3302
 1856TIP3   OH227126   6.216   5.128   0.294  0.4478 -0.5665 -0.5355
 1856TIP3    H127127   6.282   5.081   0.242  1.1612 -2.0145  1.5273
 1856TIP3    H227128   6.267   5.172   0.362 -0.5743 -0.0964 -0.0634
 1857TIP3   OH227129   2.229   5.220   8.768 -0.4531 -0.1347 -0.1922
 1857TIP3    H127130   2.306   5.225   8.825 -0.8400  0.2508  0.2943
 1857TIP3    H227131   2.264   5.236   8.680  0.3104 -1.7644 -0.2197
 1858TIP3   OH227132   0.357   4.660   2.490  0.2388 -0.1311 -0.5070
 1858TIP3    H127133   0.315   4.589   2.537 -0.7162 -1.1994 -2.8152
 1858TIP3    H227134   0.422   4.618   2.434 -0.6495  0.6940 -2.2545
 1859TIP3   OH227135   3.311   1.772   8.584 -0.9414 -0.5337  0.0671
 1859TIP3    H127136   3.279   1.816   8.505  0.5042 -0.2138 -0.3753
 1859TIP3    H227137   3.310   1.840   8.651  0.2411 -0.1040 -0.3358
 1860TIP3   OH227138   6.315   3.278   1.365 -0.0241  0.3885  0.3564
 1860TIP3    H127139   6.407   3.268   1.339 -0.5341  0.3428 -1.5861
 1860TIP3    H227140   6.289   3.362   1.329 -1.0864 -0.1663 -0.2056
 1861TIP3   OH227141   2.546   5.570   1.966  0.0269 -0.5005  0.1833
 1861TIP3    H127142   2.536   5.650   1.915 -1.3253 -0.4789  0.4498
 1861TIP3    H227143   2.618   5.523   1.923 -0.3790  0.0051 -1.0940
 1862TIP3   OH227144   3.417   6.149   8.094 -0.2975 -0.2274 -0.1647
 1862TIP3    H127145   3.422   6.065   8.049 -0.7488  0.6647 -1.9605
 1862TIP3    H227146   3.460   6.211   8.035  1.3386  0.6061  1.7513
 1863TIP3   OH227147   4.565   5.979   2.504 -0.0000 -0.4613 -0.0755
 1863TIP3    H127148   4.528   5.990   2.591 -0.7776  1.2787 -0.5940
 1863TIP3    H227149   4.659   5.995   2.515 -0.1140 -0.1175  0.4034
 1864TIP3   OH227150   5.637   1.887   1.228 -0.2987  0.4938 -0.9798
 1864TIP3    H127151   5.554   1.840   1.221 -1.1613  2.0002 -1.3004
 1864TIP3    H227152   5.619   1.959   1.289  1.5928 -0.8026  1.2907
 1865TIP3   OH227153   0.496   3.089   0.783 -0.3721 -0.5888 -0.2544
 1865TIP3    H127154   0.591   3.083   0.792 -0.2197  2.1549  1.3101
 1865TIP3    H227155   0.482   3.170   0.734 -1.9145 -0.6775 -0.0035
 1866TIP3   OH227156   3.302   6.023   1.016  0.6109 -0.8069 -0.2727
 1866TIP3    H127157   3.266   6.028   1.105  1.4929  1.7402  0.0217
 1866TIP3    H227158   3.384   6.071   1.021  0.1425  0.3694 -2.7284
 1867TIP3   OH227159   2.803   5.699   1.215  0.0507 -0.3598 -0.1567
 1867TIP3    H127160   2.870   5.767   1.224  0.4717 -1.0291  3.0375
 1867TIP3    H227161   2.851   5.617   1.229 -0.8725 -1.1675 -1.5015
 1868TIP3   OH227162   2.676   1.180   8.530 -0.0607 -0.0833  0.1313
 1868TIP3    H127163   2.616   1.226   8.589 -0.4209 -1.1497  0.6337
 1868TIP3    H227164   2.708   1.106   8.581 -1.0366 -1.5357 -1.2592
 1869TIP3   OH227165   4.697   1.876   9.122  0.3205 -0.2048 -0.2038
 1869TIP3    H127166   4.697   1.881   9.027 -2.2081 -1.0141 -0.3017
 1869TIP3    H227167   4.733   1.789   9.142 -0.2348 -0.4968 -0.4719
 1870TIP3   OH227168   5.752   2.121   6.989  0.3836 -0.2075  0.0314
 1870TIP3    H127169   5.811   2.109   6.915 -0.5179 -1.7404 -0.4992
 1870TIP3    H227170   5.806   2.106   7.066  0.9392 -0.3970 -0.3900
 1871TIP3   OH227171   1.570   2.113   1.736 -0.2573 -0.2188 -0.0812
 1871TIP3    H127172   1.474   2.112   1.734 -0.2961  0.4961  0.8395
 1871TIP3    H227173   1.593   2.052   1.806 -0.0837  0.5376  0.5261
 1872TIP3   OH227174   6.435   0.453   7.184 -0.1922 -0.6160  0.0264
 1872TIP3    H127175   6.437   0.380   7.122  1.4106 -0.2937 -0.3562
 1872TIP3    H227176   6.522   0.451   7.225 -0.2764  0.8257  0.3098
 1873TIP3   OH227177   3.628   2.111   8.889  0.3096 -0.2206  1.0714
 1873TIP3    H127178   3.637   2.018   8.869  0.6136 -0.3864  1.9325
 1873TIP3    H227179   3.655   2.119   8.980  1.7509  0.9417  0.5857
 1874TIP3   OH227180   3.987   2.816   7.307 -0.1125  0.1001  1.3938
 1874TIP3    H127181   4.075   2.803   7.343 -0.4267  1.8961  2.9886
 1874TIP3    H227182   3.929   2.770   7.368 -0.2950 -1.1570  0.2969
 1875TIP3   OH227183   3.427   3.285   9.037 -0.5195 -0.4283  0.4008
 1875TIP3    H127184   3.421   3.223   8.964 -0.0506 -0.7661  0.6377
 1875TIP3    H227185   3.382   3.363   9.007 -0.7917 -0.7556 -0.0499
 1876TIP3   OH227186   0.550   3.825   1.376  0.4880  0.2017  0.0756
 1876TIP3    H127187   0.506   3.740   1.369 -0.4266  0.6297  0.4374
 1876TIP3    H227188   0.536   3.852   1.467 -0.0891  1.1752 -0.2822
 1877TIP3   OH227189   1.496   5.715   2.008 -0.3418  0.2570 -0.0339
 1877TIP3    H127190   1.503   5.809   2.027 -0.2708  0.1255  0.6115
 1877TIP3    H227191   1.445   5.679   2.081 -1.7688  0.0468 -1.0973
 1878TIP3   OH227192   0.979   5.127   8.974  0.5043  0.3375  0.2731
 1878TIP3    H127193   0.909   5.142   9.037  1.7741  0.9052  1.6154
 1878TIP3    H227194   0.951   5.173   8.895  0.2613  2.3179  1.4451
 1879TIP3   OH227195   3.468   5.477   8.473 -0.6771  0.4311 -0.4460
 1879TIP3    H127196   3.518   5.400   8.501  0.0434  1.0199 -0.0704
 1879TIP3    H227197   3.380   5.462   8.509 -0.8061 -0.6347 -1.1478
 1880TIP3   OH227198   5.987   1.697   3.372  0.1674  0.1805 -0.3384
 1880TIP3    H127199   6.030   1.779   3.347  0.9169 -0.2857 -0.6477
 1880TIP3    H227200   5.894   1.713   3.356  0.2071  1.2295  0.3632
 1881TIP3   OH227201   3.533   1.792   0.945  0.0930 -0.5222  0.0346
 1881TIP3    H127202   3.439   1.780   0.964 -0.0215 -0.5982 -0.5729
 1881TIP3    H227203   3.564   1.848   1.017 -0.5739  0.0927 -0.1378
 1882TIP3   OH227204   1.153   6.021   8.197 -0.4009  0.5540 -0.0290
 1882TIP3    H127205   1.090   6.082   8.159 -1.3074 -1.4529 -1.9760
 1882TIP3    H227206   1.238   6.064   8.186 -1.0676  1.7492 -0.6614
 1883TIP3   OH227207   4.102   4.859   2.530 -0.0044 -0.2895  0.0372
 1883TIP3    H127208   4.131   4.912   2.456 -1.0040 -1.0524 -0.9363
 1883TIP3    H227209   4.050   4.919   2.583  1.4605  0.4985  0.6202
 1884TIP3   OH227210   3.069   6.297   8.571  0.3892 -0.2920  0.1758
 1884TIP3    H127211   3.073   6.270   8.663 -0.1105 -1.4576 -0.1296
 1884TIP3    H227212   3.155   6.274   8.535  1.4250  2.1616  0.8284
 1885TIP3   OH227213   0.489   3.772   8.291  0.3466 -0.0426  0.8852
 1885TIP3    H127214   0.462   3.863   8.302 -0.1078  0.1209 -1.1732
 1885TIP3    H227215   0.582   3.771   8.317  0.7730  1.3517 -0.4385
 1886TIP3   OH227216   4.227   2.934   1.367 -0.5135 -0.1506 -0.5013
 1886TIP3    H127217   4.247   2.921   1.460 -0.7985 -0.4248 -0.4751
 1886TIP3    H227218   4.261   3.021   1.347 -2.1788  0.7319  0.3493
 1887TIP3   OH227219   6.470   4.287   0.459 -0.3068 -0.0552 -0.3582
 1887TIP3    H127220   6.502   4.369   0.422 -1.5128  1.0797  1.0149
 1887TIP3    H227221   6.539   4.260   0.519 -1.2990  1.7696  1.7132
 1888TIP3   OH227222   0.734   3.962   2.076 -0.5233  0.1307 -0.1838
 1888TIP3    H127223   0.700   3.891   2.021 -1.0254 -0.3529  0.7141
 1888TIP3    H227224   0.747   3.921   2.162 -1.7636  1.3324  0.6255
 1889TIP3   OH227225   6.256   4.816   1.686 -0.3690 -0.4462 -0.3306
 1889TIP3    H127226   6.178   4.871   1.690 -0.3174 -0.3321 -0.8171
 1889TIP3    H227227   6.320   4.869   1.638 -0.4075 -1.0352 -1.0441
 1890TIP3   OH227228   6.482   4.135   8.866  0.6443 -0.5122 -0.2903
 1890TIP3    H127229   6.454   4.180   8.945  1.4240 -1.1669  0.3798
 1890TIP3    H227230   6.576   4.119   8.880  0.2675 -2.9767 -0.1606
 1891TIP3   OH227231   6.156   5.699   1.660  0.1771  0.3466 -0.3423
 1891TIP3    H127232   6.243   5.738   1.653  0.4275  0.1867  1.4443
 1891TIP3    H227233   6.103   5.763   1.707  0.6920 -1.4314  2.9716
 1892TIP3   OH227234   6.565   3.479   8.390 -0.3856 -0.1779 -0.6847
 1892TIP3    H127235   6.646   3.431   8.408  0.2740  0.7568 -1.0432
 1892TIP3    H227236   6.499   3.437   8.445  0.7433  0.2103  1.0466
 1893TIP3   OH227237   5.057   1.431   0.126  0.1615  0.3611  0.4649
 1893TIP3    H127238   5.097   1.424   0.213  1.0373  0.8866  0.1109
 1893TIP3    H227239   5.123   1.475   0.072 -0.6329  0.6408 -0.3026
 1894TIP3   OH227240   5.256   6.565   2.306  0.5820 -0.7636 -0.2340
 1894TIP3    H127241   5.279   6.599   2.393 -2.1538  0.7793  0.0051
 1894TIP3    H227242   5.275   6.637   2.247 -0.3993 -0.6861 -0.4692
 1895TIP3   OH227243   0.639   0.382   0.614  0.0467  0.1229 -0.0181
 1895TIP3    H127244   0.667   0.426   0.534 -3.9441  0.7164 -1.3316
 1895TIP3    H227245   0.704   0.406   0.680  1.5387  2.6431 -2.2314
 1896TIP3   OH227246   4.543   4.149   8.198 -0.5985 -0.2135 -0.3725
 1896TIP3    H127247   4.522   4.222   8.256 -0.6249 -0.6630  0.1878
 1896TIP3    H227248   4.637   4.133   8.213 -0.5076 -0.0630 -0.7636
 1897TIP3   OH227249   4.163   4.517   9.174  0.2329  0.4813 -0.8557
 1897TIP3    H127250   4.139   4.596   9.125  1.9149  0.2277 -2.1630
 1897TIP3    H227251   4.256   4.506   9.158  0.7920  0.0987  2.0571
 1898TIP3   OH227252   6.624   6.171   9.000 -0.1414  0.2214  0.8494
 1898TIP3    H127253   6.696   6.130   8.951  0.4516 -0.4847  2.2534
 1898TIP3    H227254   6.569   6.211   8.932  0.5086 -0.9228 -0.4125
 1899TIP3   OH227255   0.589   6.311   8.958  0.7651 -0.6725 -0.4186
 1899TIP3    H127256   0.665   6.314   9.016  1.0737 -0.2723 -0.8408
 1899TIP3    H227257   0.595   6.391   8.906  0.6252 -1.1465 -1.1759
 1900TIP3   OH227258   4.456   2.197   0.689 -0.2507 -0.1372 -0.3035
 1900TIP3    H127259   4.481   2.233   0.604  0.8985  1.8964  0.7969
 1900TIP3    H227260   4.454   2.273   0.747 -0.0757 -1.5735  1.6921
 1901TIP3   OH227261   5.428   4.102   2.235  0.4721 -0.5040 -0.0906
 1901TIP3    H127262   5.434   4.059   2.320  0.1294  0.2166  0.3105
 1901TIP3    H227263   5.385   4.186   2.254  1.6444  0.2718 -0.7546
 1902TIP3   OH227264   1.886   6.581   0.983  0.3465  0.2833 -0.4226
 1902TIP3    H127265   1.966   6.632   0.974  1.7526 -1.1566  2.4961
 1902TIP3    H227266   1.818   6.646   1.000  1.1997  1.4185 -1.1952
 1903TIP3   OH227267   2.845   1.569   1.586 -0.0624 -0.3759 -0.5890
 1903TIP3    H127268   2.762   1.586   1.543  0.0165  1.5338 -0.0723
 1903TIP3    H227269   2.910   1.579   1.517 -0.0948  0.5992 -0.4906
 1904TIP3   OH227270   3.950   3.996   1.912 -0.0001  0.2365  0.4199
 1904TIP3    H127271   4.016   4.065   1.917 -0.3031  0.5703 -0.1364
 1904TIP3    H227272   3.882   4.032   1.856 -0.4395 -0.2867  0.6133
 1905TIP3   OH227273   4.848   1.665   9.166 -0.1015 -0.3673  0.5987
 1905TIP3    H127274   4.809   1.589   9.123  2.4828 -1.8946  0.7472
 1905TIP3    H227275   4.899   1.628   9.238  1.3442  1.5050  0.5992
 1906TIP3   OH227276   3.441   4.669   1.462 -0.1659  0.3791 -0.6155
 1906TIP3    H127277   3.415   4.722   1.387 -1.1236  1.3136  0.3280
 1906TIP3    H227278   3.392   4.707   1.535 -0.3284 -1.3745  0.2246
 1907TIP3   OH227279   1.091   2.665   2.093 -0.2086  0.2294  0.5415
 1907TIP3    H127280   1.027   2.693   2.159  0.1086  1.0351  0.5191
 1907TIP3    H227281   1.169   2.718   2.111  1.4931 -2.6008  2.3460
 1908TIP3   OH227282   1.816   3.128   0.888  0.1734 -0.0078  0.1937
 1908TIP3    H127283   1.746   3.065   0.907 -0.9404  1.3682  0.9287
 1908TIP3    H227284   1.786   3.174   0.810 -1.4122  2.7110  2.2116
 1909TIP3   OH227285   4.167   5.710   9.025 -0.1195 -0.2128  0.3972
 1909TIP3    H127286   4.239   5.703   9.088  0.5964 -1.9839 -0.5291
 1909TIP3    H227287   4.208   5.742   8.944 -0.5881 -0.1336  0.1875
 1910TIP3   OH227288   3.518   5.080   1.380 -0.0756  0.3097 -0.0375
 1910TIP3    H127289   3.520   5.157   1.323  0.7445  0.1609 -0.2285
 1910TIP3    H227290   3.476   5.012   1.327  1.6115 -0.1260 -0.8888
 1911TIP3   OH227291   1.109   6.188   8.923  0.1890 -0.1589 -0.0334
 1911TIP3    H127292   1.114   6.184   8.828 -2.8834  0.8710 -0.3381
 1911TIP3    H227293   1.143   6.275   8.945  1.3493 -0.5786 -0.1025
 1912TIP3   OH227294   1.336   4.737   9.026 -0.3807  0.3006  0.1423
 1912TIP3    H127295   1.344   4.774   9.114 -1.6208 -0.7715  0.7429
 1912TIP3    H227296   1.267   4.787   8.984 -0.4968  0.1456  0.1468
 1913TIP3   OH227297   0.195   1.004   8.312  0.3513  0.2441  0.1961
 1913TIP3    H127298   0.107   0.978   8.286 -0.1435  1.4679  0.6176
 1913TIP3    H227299   0.240   1.021   8.229  0.3064 -0.6737 -0.0335
 1914TIP3   OH227300   3.658   3.663   1.623 -0.5503  0.1505  0.1583
 1914TIP3    H127301   3.568   3.685   1.649 -0.6466  0.4802 -0.4434
 1914TIP3    H227302   3.712   3.700   1.692 -0.9104 -0.7042  0.9275
 1915TIP3   OH227303   4.143   1.399   8.936 -0.3083  0.3960 -0.4089
 1915TIP3    H127304   4.175   1.470   8.992  1.0220  0.7551 -1.5657
 1915TIP3    H227305   4.183   1.320   8.972 -0.0229  0.5279 -0.4373
 1916TIP3   OH227306   4.011   4.755   1.360 -0.3851  0.2721 -0.2907
 1916TIP3    H127307   4.093   4.706   1.361 -0.5868 -0.0648  0.5729
 1916TIP3    H227308   3.955   4.709   1.422 -0.7444  1.3112  0.1766
 1917TIP3   OH227309   6.056   4.566   2.237  0.2393 -0.1927  0.6069
 1917TIP3    H127310   6.116   4.498   2.266  0.2451 -0.4777 -0.0437
 1917TIP3    H227311   6.075   4.642   2.292  0.3805 -0.6516  1.1917
 1918TIP3   OH227312   2.699   4.190   7.518  0.3870 -0.3377  0.6019
 1918TIP3    H127313   2.604   4.190   7.509 -0.0036  3.7557  2.5391
 1918TIP3    H227314   2.717   4.111   7.570 -1.7504 -1.6963 -0.5454
 1919TIP3   OH227315   1.162   1.807   7.810 -0.3063 -0.0181 -0.2004
 1919TIP3    H127316   1.216   1.784   7.886 -0.5944 -1.0024 -0.2763
 1919TIP3    H227317   1.213   1.872   7.762 -0.2362  0.8198  0.9693
 1920TIP3   OH227318   5.245   2.533   9.252 -0.1068 -0.0164  0.2024
 1920TIP3    H127319   5.339   2.519   9.234 -0.4535 -0.2841 -1.6083
 1920TIP3    H227320   5.241   2.620   9.291  0.5974  1.5904 -3.0318
 1921TIP3   OH227321   4.044   6.048   1.970  0.0613  0.1392  0.1301
 1921TIP3    H127322   3.957   6.010   1.956  0.2031  0.1162 -0.7650
 1921TIP3    H227323   4.091   6.030   1.889  1.5637 -1.5766  1.2957
 1922TIP3   OH227324   3.163   1.946   1.106  0.9601 -0.0131  0.6924
 1922TIP3    H127325   3.188   1.876   1.047 -0.1459  0.5114 -0.4460
 1922TIP3    H227326   3.101   1.905   1.166 -1.3653  0.3799 -1.2887
 1923TIP3   OH227327   2.279   2.696   8.215 -0.2124  0.6722  0.2663
 1923TIP3    H127328   2.277   2.681   8.120 -0.5227  1.0388  0.2128
 1923TIP3    H227329   2.272   2.791   8.224 -0.3384  0.6255  0.6635
 1924TIP3   OH227330   3.519   3.440   0.488  0.1661 -0.0068 -0.2889
 1924TIP3    H127331   3.571   3.494   0.429  0.2984  0.9127  0.6414
 1924TIP3    H227332   3.457   3.501   0.529 -0.4846 -0.7736 -0.0909
 1925TIP3   OH227333   2.855   2.734   0.397 -0.2424  0.3809 -0.2980
 1925TIP3    H127334   2.760   2.744   0.403 -0.4481 -0.8510 -0.9907
 1925TIP3    H227335   2.876   2.755   0.306  0.0434 -0.0511 -0.3366
 1926TIP3   OH227336   1.962   3.181   1.342 -0.0990 -0.1369 -0.0021
 1926TIP3    H127337   2.016   3.256   1.321 -0.2487 -0.2341 -0.7546
 1926TIP3    H227338   1.914   3.207   1.421 -0.8226  0.9073 -0.7539
 1927TIP3   OH227339   5.943   1.610   8.944 -0.3237 -0.5503  0.1280
 1927TIP3    H127340   5.865   1.558   8.928 -0.5522 -0.0759 -0.3262
 1927TIP3    H227341   5.975   1.581   9.030 -1.9830  0.4893  1.1379
 1928TIP3   OH227342   5.771   2.652   0.797 -0.0532  0.3289 -0.0380
 1928TIP3    H127343   5.828   2.712   0.748  0.9435 -0.4801  0.1036
 1928TIP3    H227344   5.730   2.598   0.730  0.4944 -0.0667 -0.0652
 1929TIP3   OH227345   1.693   0.964   1.515 -0.2160 -0.1885  0.2072
 1929TIP3    H127346   1.707   0.954   1.421 -0.7870 -2.5042  0.3103
 1929TIP3    H227347   1.601   0.992   1.522 -0.9906 -2.4605  0.0827
 1930TIP3   OH227348   0.308   5.327   0.842 -0.1571 -0.6415  0.8486
 1930TIP3    H127349   0.228   5.276   0.825  0.7327 -2.5003  1.9239
 1930TIP3    H227350   0.371   5.263   0.874  1.3722  1.0072  1.3074
 1931TIP3   OH227351   5.302   5.075   8.549 -0.7374 -0.0150 -0.0121
 1931TIP3    H127352   5.333   5.149   8.496  1.5682 -1.9941 -1.6155
 1931TIP3    H227353   5.208   5.071   8.530 -0.7326  1.8411 -0.6968
 1932TIP3   OH227354   0.415   4.071   0.544 -0.6031 -0.4419 -0.2051
 1932TIP3    H127355   0.359   4.149   0.542 -1.1068 -0.8137 -2.1675
 1932TIP3    H227356   0.354   3.997   0.541 -0.0894 -0.9215  0.6806
 1933TIP3   OH227357   0.030   6.441   1.108 -0.2821 -0.7509 -0.0914
 1933TIP3    H127358   0.044   6.365   1.165 -0.4671 -0.4652  0.3433
 1933TIP3    H227359   0.119   6.468   1.082  0.0507  0.7592  2.2679
 1934TIP3   OH227360   1.298   3.336   1.160  0.5767 -0.1930 -0.2282
 1934TIP3    H127361   1.296   3.386   1.078  1.4575 -0.0687 -0.1903
 1934TIP3    H227362   1.206   3.322   1.182  0.3245 -0.8409 -1.6024
 1935TIP3   OH227363   1.911   1.372   0.591  0.1155  0.9180  0.1916
 1935TIP3    H127364   1.845   1.441   0.598  0.9005  1.7208 -0.1878
 1935TIP3    H227365   1.928   1.347   0.682 -1.0623  0.3294  0.2815
 1936TIP3   OH227366   1.704   3.707   1.357  0.2870  0.3640 -0.1610
 1936TIP3    H127367   1.748   3.707   1.273  0.3077 -1.2436 -0.1833
 1936TIP3    H227368   1.628   3.650   1.344 -0.2821  0.9114  0.6361
 1937TIP3   OH227369   2.548   2.333   1.713 -0.0096 -0.4991 -0.1959
 1937TIP3    H127370   2.456   2.357   1.702  0.6147  1.2117 -2.6348
 1937TIP3    H227371   2.556   2.248   1.670 -0.1195  0.2926 -1.8581
 1938TIP3   OH227372   4.676   4.317   1.528  0.3387 -0.6579  0.7622
 1938TIP3    H127373   4.755   4.337   1.478  0.0822 -3.2355 -0.8072
 1938TIP3    H227374   4.605   4.324   1.465 -0.1100 -2.9879  0.9257
 1939TIP3   OH227375   0.897   4.573   0.180 -0.6986  0.5803  0.4332
 1939TIP3    H127376   0.815   4.524   0.175 -1.2278  1.4014  0.8870
 1939TIP3    H227377   0.871   4.665   0.177  0.2488  0.8592 -0.0402
 1940TIP3   OH227378   5.839   6.244   1.386  0.5452  0.1812  0.4814
 1940TIP3    H127379   5.924   6.264   1.347  0.3101  1.3351  0.5266
 1940TIP3    H227380   5.860   6.186   1.460  1.1568 -0.5682 -0.2577
 1941TIP3   OH227381   4.665   1.919   2.692  0.3851  1.1736  0.0468
 1941TIP3    H127382   4.629   1.955   2.773  0.5035  0.4607  0.4221
 1941TIP3    H227383   4.735   1.861   2.722 -0.4049 -0.0887 -0.4912
 1942TIP3   OH227384   3.202   4.390   0.703 -0.1565  0.0459 -0.0587
 1942TIP3    H127385   3.117   4.346   0.711 -0.0629 -0.6380 -2.2279
 1942TIP3    H227386   3.181   4.480   0.679 -0.2647  0.0600  0.0867
 1943TIP3   OH227387   0.098   3.852   1.566 -0.3074  0.1128 -0.0415
 1943TIP3    H127388   0.019   3.817   1.608 -0.0729 -1.9415 -1.1640
 1943TIP3    H227389   0.157   3.872   1.639 -1.8313  1.6962  0.8170
 1944TIP3   OH227390   1.289   6.158   1.922  0.2523  0.2961 -0.1403
 1944TIP3    H127391   1.216   6.217   1.939  1.4043  1.7382 -0.0177
 1944TIP3    H227392   1.253   6.089   1.866 -1.0733  1.2337 -0.4674
 1945TIP3   OH227393   2.106   2.880   0.922  0.1956 -0.3503 -0.6372
 1945TIP3    H127394   2.200   2.880   0.944  0.2555 -2.4983 -0.6838
 1945TIP3    H227395   2.065   2.933   0.991  1.3781  0.2049 -0.3321
 1946TIP3   OH227396   0.313   2.836   2.883 -0.1691 -0.4338  0.1803
 1946TIP3    H127397   0.231   2.812   2.839 -0.5622 -0.4906  0.9218
 1946TIP3    H227398   0.294   2.921   2.923  0.9265  0.7419 -1.6785
 1947TIP3   OH227399   0.938   0.742   0.445 -0.2474  0.0195  0.0849
 1947TIP3    H127400   1.007   0.688   0.484 -1.5843 -2.2138 -0.4298
 1947TIP3    H227401   0.916   0.805   0.513  0.5660 -0.8672  1.2102
 1948TIP3   OH227402   0.380   2.746   1.272 -0.0619  0.3249 -0.2170
 1948TIP3    H127403   0.394   2.687   1.198  1.7306  0.1775  0.1854
 1948TIP3    H227404   0.367   2.689   1.347  0.2783  0.4343 -0.0698
 1949TIP3   OH227405   3.546   6.027   9.250  0.4624  0.1499 -0.1195
 1949TIP3    H127406   3.462   6.054   9.213  0.0937 -0.5366  0.2017
 1949TIP3    H227407   3.609   6.089   9.213 -0.0063 -0.0420 -1.3099
 1950TIP3   OH227408   6.250   3.023   8.980  0.3620  0.0535 -0.2467
 1950TIP3    H127409   6.330   3.043   9.029 -0.9735  0.5330  1.8191
 1950TIP3    H227410   6.179   3.055   9.035 -1.4420 -2.7186 -0.7773
 1951TIP3   OH227411   0.524   4.378   9.045  0.2054 -0.0429 -0.4830
 1951TIP3    H127412   0.565   4.462   9.061 -0.0397 -0.2200  1.2674
 1951TIP3    H227413   0.430   4.394   9.058  0.2693 -0.8332  1.2161
 1952TIP3   OH227414   4.479   1.225   2.650 -0.2605 -0.0125 -0.0869
 1952TIP3    H127415   4.440   1.152   2.603 -1.3819  0.0968  0.6487
 1952TIP3    H227416   4.430   1.230   2.732  0.2693  1.1201  0.1772
 1953TIP3   OH227417   2.022   4.462   8.472  0.2883 -0.0451  0.7011
 1953TIP3    H127418   2.039   4.555   8.489 -0.7136  0.4679 -0.8617
 1953TIP3    H227419   2.025   4.455   8.377 -0.8487 -1.3742  0.7449
 1954TIP3   OH227420   5.890   5.995   2.326 -0.0018  0.1886  0.1144
 1954TIP3    H127421   5.814   5.956   2.370 -0.1271  0.0688 -0.2036
 1954TIP3    H227422   5.962   5.984   2.389  0.4552 -2.4641 -0.7510
 1955TIP3   OH227423   1.405   0.992   0.274  0.1265  0.4799  0.1617
 1955TIP3    H127424   1.494   0.959   0.286  0.3065  0.7672 -0.3608
 1955TIP3    H227425   1.361   0.973   0.357  0.6208  0.1711  0.3563
 1956TIP3   OH227426   0.165   4.304   1.555  0.4963 -0.1159 -0.4305
 1956TIP3    H127427   0.238   4.244   1.538  0.3228  0.0525 -1.9264
 1956TIP3    H227428   0.129   4.276   1.639  1.6749 -0.8168 -0.1413
 1957TIP3   OH227429   5.112   0.405   0.086 -0.0276  0.5980  0.2008
 1957TIP3    H127430   5.189   0.370   0.040 -0.2134 -0.7647  0.8911
 1957TIP3    H227431   5.148   0.477   0.139  0.5299  0.8615 -0.5111
 1958TIP3   OH227432   6.311   3.733   0.725  0.4710  0.2099 -0.2607
 1958TIP3    H127433   6.274   3.647   0.746 -1.3127  0.5210 -1.8297
 1958TIP3    H227434   6.288   3.747   0.634  0.1831  2.6214  0.1214
 1959TIP3   OH227435   3.267   0.007   1.996  0.3255 -0.3148 -0.2921
 1959TIP3    H127436   3.290   0.087   2.044 -1.9584 -0.5090  1.2771
 1959TIP3    H227437   3.194  -0.031   2.045  0.9116 -3.0672 -1.3354
 1960TIP3   OH227438   3.676   3.064   1.514  0.2865 -0.3140  0.4653
 1960TIP3    H127439   3.674   3.139   1.455  1.9304 -0.8162 -0.2821
 1960TIP3    H227440   3.712   2.993   1.461  1.0668 -0.9800  1.8429
 1961TIP3   OH227441   4.329   3.294   9.220  0.0385 -0.4224 -0.1633
 1961TIP3    H127442   4.259   3.296   9.285 -0.6225  1.5180 -0.8756
 1961TIP3    H227443   4.397   3.350   9.257 -0.2924  0.6022 -1.0496
 1962TIP3   OH227444   2.131   5.693   1.204  0.3436 -0.0477 -0.6045
 1962TIP3    H127445   2.112   5.779   1.166 -0.7450 -0.2339 -0.5304
 1962TIP3    H227446   2.072   5.633   1.158  0.2274 -0.5489  0.1787
 1963TIP3   OH227447   4.114   5.525   8.444  0.1558  0.0934  0.2078
 1963TIP3    H127448   4.156   5.472   8.511 -1.2584 -1.1950  0.1407
 1963TIP3    H227449   4.137   5.483   8.361  0.6546  0.7835 -0.0159
 1964TIP3   OH227450   0.281   6.508   8.085  0.4732 -0.1576  0.2541
 1964TIP3    H127451   0.232   6.439   8.041 -1.7086  1.5672 -0.1969
 1964TIP3    H227452   0.270   6.489   8.179  0.0117 -0.4972  0.1330
 1965TIP3   OH227453   2.608   3.178   9.186 -0.1445  0.4383  0.0258
 1965TIP3    H127454   2.615   3.262   9.232  0.3830  0.0927  0.5956
 1965TIP3    H227455   2.582   3.116   9.254  0.0893  0.0288 -0.2571
 1966TIP3   OH227456   6.286   1.234   9.001 -0.4068 -0.2259  0.4235
 1966TIP3    H127457   6.281   1.202   9.091 -0.6539  3.0775  1.7500
 1966TIP3    H227458   6.380   1.248   8.987 -0.4892  1.1993  1.0393
 1967TIP3   OH227459   1.932   1.016   1.083  0.2426  0.5288  0.1808
 1967TIP3    H127460   1.871   0.943   1.070 -0.9830  1.6170 -0.3538
 1967TIP3    H227461   1.886   1.076   1.141  1.8501  0.2272  1.8795
 1968TIP3   OH227462   1.572   4.915   9.188  0.1432 -0.7365 -0.2108
 1968TIP3    H127463   1.649   4.957   9.226  0.9718 -1.8492 -0.6153
 1968TIP3    H227464   1.550   4.845   9.249 -0.1194 -0.8752 -0.4610
 1969TIP3   OH227465   3.287   3.065   8.599 -0.4515  0.1872 -0.1349
 1969TIP3    H127466   3.249   3.134   8.545 -1.9155 -0.4076  0.1046
 1969TIP3    H227467   3.229   2.991   8.588  0.0813 -0.4321  1.0668
 1970TIP3   OH227468   4.856   1.565   7.945  0.1333  0.3953 -0.3129
 1970TIP3    H127469   4.792   1.592   7.879  0.0148 -1.0998 -0.8577
 1970TIP3    H227470   4.925   1.521   7.895  0.1794 -0.5100  0.5316
 1971TIP3   OH227471   3.073   6.284   1.931 -0.2630 -0.0403  0.3073
 1971TIP3    H127472   3.146   6.252   1.984 -0.2785  0.3687  0.5793
 1971TIP3    H227473   2.996   6.273   1.988 -0.3162  0.1592  0.2744
 1972TIP3   OH227474   0.845   4.564   8.712 -0.2748  0.1314 -0.5166
 1972TIP3    H127475   0.818   4.476   8.740  1.6735 -0.5207 -0.5156
 1972TIP3    H227476   0.925   4.550   8.661  0.0615  1.8964 -0.5589
 1973TIP3   OH227477   0.860   1.626   1.083  0.0175 -0.2008 -0.3341
 1973TIP3    H127478   0.807   1.581   1.148  1.0946 -0.6081  0.2913
 1973TIP3    H227479   0.806   1.700   1.054 -1.2613 -1.1647 -0.4548
 1974TIP3   OH227480   0.003   4.850   1.042  0.7358  0.0859  0.0776
 1974TIP3    H127481  -0.028   4.921   1.099  1.6827 -0.7905  1.7681
 1974TIP3    H227482   0.035   4.783   1.103  2.0190 -0.8081 -1.5164
 1975TIP3   OH227483   4.926   2.636   2.081 -0.0607  0.3570 -0.0879
 1975TIP3    H127484   4.893   2.634   2.171  1.1573 -0.3762  0.3581
 1975TIP3    H227485   4.940   2.544   2.059 -0.8160  0.4912 -1.2242
 1976TIP3   OH227486   0.516   0.536   1.698 -0.7603  0.4229  0.2856
 1976TIP3    H127487   0.552   0.624   1.709 -0.3695  0.3987 -0.6976
 1976TIP3    H227488   0.592   0.478   1.709 -0.7779  0.2839 -0.3090
 1977TIP3   OH227489   5.088   6.583   1.100  0.3532  0.1380 -0.6689
 1977TIP3    H127490   5.028   6.575   1.173  1.1080 -0.3836 -0.0907
 1977TIP3    H227491   5.045   6.538   1.028 -0.0375 -0.0507 -0.3185
 1978TIP3   OH227492   4.205   0.951   1.756  0.5541 -0.0336  0.2249
 1978TIP3    H127493   4.145   0.877   1.767 -0.5624  0.9137  0.7568
 1978TIP3    H227494   4.273   0.935   1.822  1.9073 -2.0156 -1.5193
 1979TIP3   OH227495   4.643   4.899   3.127  0.6073  0.0685 -0.0802
 1979TIP3    H127496   4.645   4.851   3.044  1.0926  0.0449 -0.0564
 1979TIP3    H227497   4.584   4.973   3.110  0.7781  0.1163 -0.4769
 1980TIP3   OH227498   0.797   6.320   1.999 -0.7118 -0.3911 -0.3940
 1980TIP3    H127499   0.720   6.282   2.041  0.3866 -0.0293  2.1063
 1980TIP3    H227500   0.785   6.415   2.007  0.3855 -0.3350  0.8593
 1981TIP3   OH227501   5.306   1.303   8.096  0.1382 -0.5283 -0.3069
 1981TIP3    H127502   5.213   1.324   8.103  0.0099 -1.4392  1.1132
 1981TIP3    H227503   5.350   1.366   8.154  0.6870  1.2812 -2.5445
 1982TIP3   OH227504   6.019   3.673   0.571 -0.3029 -0.1320 -0.0484
 1982TIP3    H127505   5.931   3.700   0.546 -0.1364  0.0711 -0.4351
 1982TIP3    H227506   6.037   3.597   0.515  0.8224  1.4984 -2.0464
 1983TIP3   OH227507   3.859   4.124   8.733 -0.2351 -0.1753 -0.8670
 1983TIP3    H127508   3.880   4.033   8.754 -0.6977  0.3587  2.3203
 1983TIP3    H227509   3.764   4.129   8.741 -0.0914  0.8790  0.3787
 1984TIP3   OH227510   2.535   3.356   1.928 -0.1050  0.0431  0.0177
 1984TIP3    H127511   2.557   3.325   2.016 -0.7313 -1.0715 -0.1918
 1984TIP3    H227512   2.556   3.282   1.871 -0.8105  0.3190 -0.6210
 1985TIP3   OH227513   3.963   6.082   1.633 -0.2852  0.7089 -0.1196
 1985TIP3    H127514   4.028   6.089   1.562  2.3177 -1.3002  1.8407
 1985TIP3    H227515   3.914   6.002   1.612  0.0690  0.4545  0.0041
 1986TIP3   OH227516   5.696   3.885   2.302 -0.2586 -0.0612  0.1145
 1986TIP3    H127517   5.716   3.963   2.352  0.3498  0.2398 -0.5831
 1986TIP3    H227518   5.699   3.913   2.211  0.2832 -0.9596 -0.1574
 1987TIP3   OH227519   3.242   2.508   7.566  0.0737  0.6338 -0.3421
 1987TIP3    H127520   3.217   2.425   7.605 -3.1702  1.7326  0.2891
 1987TIP3    H227521   3.229   2.495   7.472 -1.0709  0.5605 -0.1909
 1988TIP3   OH227522   2.717   5.217   1.937 -0.4246  0.5606  0.7454
 1988TIP3    H127523   2.640   5.187   1.888  1.5458 -0.2658 -2.1096
 1988TIP3    H227524   2.743   5.298   1.894  1.6479 -0.4235 -0.0183
 1989TIP3   OH227525   3.909   2.239   2.293  0.5923  0.4405  0.2942
 1989TIP3    H127526   3.954   2.225   2.376 -2.7290  0.5686  2.2787
 1989TIP3    H227527   3.817   2.253   2.317 -0.2924  1.9496 -3.3128
 1990TIP3   OH227528   3.946   4.478   0.063 -0.0650  0.2776 -0.0940
 1990TIP3    H127529   4.015   4.486  -0.004  0.3952 -0.0977  0.3256
 1990TIP3    H227530   3.873   4.438   0.017 -0.7589  2.5241 -1.0660
 1991TIP3   OH227531   4.287   0.600   0.134 -0.2313 -0.5434  0.0938
 1991TIP3    H127532   4.236   0.543   0.191 -1.7541  1.7233  1.0957
 1991TIP3    H227533   4.353   0.640   0.191  0.2014 -0.5365 -0.3927
 1992TIP3   OH227534   3.568   6.343   2.170 -0.2636  0.0849 -0.1657
 1992TIP3    H127535   3.547   6.403   2.098  0.3458  0.4418 -0.0518
 1992TIP3    H227536   3.555   6.396   2.249  0.6563  0.1930 -0.0785
 1993TIP3   OH227537   5.578   3.939   2.059 -0.1342  0.2292  0.1715
 1993TIP3    H127538   5.513   3.872   2.041  0.2548 -0.1952  0.3447
 1993TIP3    H227539   5.530   4.005   2.110  0.0454 -1.0548  2.0995
 1994TIP3   OH227540   5.659   3.350   2.099 -0.0367  0.5006  1.0097
 1994TIP3    H127541   5.642   3.281   2.163  2.5019  0.3224  1.5824
 1994TIP3    H227542   5.618   3.318   2.019  0.9574 -1.6677  1.2818
 1995TIP3   OH227543   0.111   0.772   9.270 -0.2219  0.6121  0.2587
 1995TIP3    H127544   0.079   0.688   9.303 -0.0288  0.8790  1.1625
 1995TIP3    H227545   0.205   0.758   9.254 -0.2404  0.5875  0.1702
 1996TIP3   OH227546   2.369   3.449   2.187 -0.3115  0.1467  0.4775
 1996TIP3    H127547   2.378   3.359   2.156 -2.2088 -0.3249  1.1404
 1996TIP3    H227548   2.364   3.441   2.282 -0.7905  0.9049  0.5289
 1997TIP3   OH227549   1.608   0.356   3.072 -0.1739  0.1627  0.8964
 1997TIP3    H127550   1.601   0.448   3.097 -1.8245  1.0098 -2.1919
 1997TIP3    H227551   1.532   0.314   3.114  0.0972  0.3759  1.6072
 1998TIP3   OH227552   2.991   1.676   2.084  0.2266 -0.2874 -0.1560
 1998TIP3    H127553   3.010   1.628   2.164  1.1540  0.5943  0.1591
 1998TIP3    H227554   3.073   1.676   2.035  0.0112  0.2699 -0.5346
 1999TIP3   OH227555   5.789   1.375   8.956 -0.2310  0.7478 -0.0644
 1999TIP3    H127556   5.717   1.315   8.936 -0.0154  0.3949  0.2069
 1999TIP3    H227557   5.865   1.335   8.913  0.0361  0.5056  0.6144
 2000TIP3   OH227558   2.422   6.000   8.750 -0.1009 -0.1065 -0.1525
 2000TIP3    H127559   2.469   5.954   8.819 -0.5778  0.8243  0.8361
 2000TIP3    H227560   2.458   5.966   8.669  1.0449 -0.6603  0.5621
 2001TIP3   OH227561   5.115   4.889   8.277 -0.6940  0.7524 -0.1053
 2001TIP3    H127562   5.029   4.911   8.313 -0.9739  0.3929 -0.5331
 2001TIP3    H227563   5.095   4.843   8.195 -0.1562 -1.0901  0.7454
 2002TIP3   OH227564   2.185   2.048   0.234  0.3806  0.0391  0.0432
 2002TIP3    H127565   2.100   2.054   0.190  1.1759  1.6993 -1.3398
 2002TIP3    H227566   2.196   1.954   0.250 -2.8097 -0.0991  2.6097
 2003TIP3   OH227567   1.257   4.614   2.160  0.1539  0.1794  0.3594
 2003TIP3    H127568   1.261   4.520   2.146 -1.1821  0.2117 -0.3430
 2003TIP3    H227569   1.276   4.652   2.075 -0.2779  0.5198  0.4108
 2004TIP3   OH227570   4.641   3.101   8.641  0.3406 -0.2707 -0.2264
 2004TIP3    H127571   4.631   3.192   8.671 -0.5734 -0.3354 -0.3013
 2004TIP3    H227572   4.734   3.084   8.648  0.8931  1.4044 -2.3243
 2005TIP3   OH227573   3.724   3.116   2.831 -0.3644  0.3144  0.1363
 2005TIP3    H127574   3.767   3.132   2.914  1.1816  1.2496 -0.7980
 2005TIP3    H227575   3.636   3.087   2.855  1.0371 -2.7549  2.1330
 2006TIP3   OH227576   1.243   4.305   3.152  0.1763  0.4264 -0.1296
 2006TIP3    H127577   1.202   4.292   3.066  0.1949  1.8192 -0.3768
 2006TIP3    H227578   1.175   4.347   3.205  0.1972 -0.3318  0.5199
 2007TIP3   OH227579   2.386   5.568   0.389 -0.0924 -1.0425 -0.0147
 2007TIP3    H127580   2.317   5.527   0.336  0.0789  0.2472 -1.3080
 2007TIP3    H227581   2.339   5.630   0.444 -0.0838 -1.0493 -0.0000
 2008TIP3   OH227582   2.045   2.206   7.645  0.2496  0.0963  0.2539
 2008TIP3    H127583   1.990   2.263   7.591 -0.5335  1.3701  2.2756
 2008TIP3    H227584   2.057   2.255   7.726  1.9282 -1.4559  1.0104
 2009TIP3   OH227585   3.920   5.728   2.184  0.0871 -0.1227  0.4419
 2009TIP3    H127586   3.932   5.787   2.258  2.6622  0.1264 -0.0658
 2009TIP3    H227587   3.975   5.652   2.206  2.6223  0.8429 -2.0264
 2010TIP3   OH227588   0.899   2.880   0.391  0.0139 -0.0694  0.0414
 2010TIP3    H127589   0.863   2.823   0.459  0.5803 -3.3129 -2.1673
 2010TIP3    H227590   0.824   2.933   0.363 -1.6451 -2.4003 -0.2945
 2011TIP3   OH227591   0.512   4.778   1.992  0.5392 -0.1162 -0.4475
 2011TIP3    H127592   0.589   4.786   2.049 -0.1330  0.6321  0.3767
 2011TIP3    H227593   0.491   4.869   1.968 -1.0949 -0.1483  0.7271
 2012TIP3   OH227594   6.521   1.421   9.118  0.5282  0.1080 -0.0001
 2012TIP3    H127595   6.536   1.408   9.211 -0.8521 -0.5503  0.1506
 2012TIP3    H227596   6.598   1.385   9.075  1.3258  0.7263  0.8941
 2013TIP3   OH227597   1.922   0.000   8.247  0.0198  0.5509  0.0626
 2013TIP3    H127598   1.912  -0.047   8.165  0.1929  0.7980 -0.0992
 2013TIP3    H227599   1.879  -0.056   8.312  2.1646 -0.9386  0.2805
 2014TIP3   OH227600   4.499   6.336   8.480  0.3493 -0.4560 -0.1665
 2014TIP3    H127601   4.566   6.352   8.413  0.8753 -0.7749  0.2794
 2014TIP3    H227602   4.542   6.279   8.544  0.4545  1.2691  1.3850
 2015TIP3   OH227603   2.037   2.009   2.314  0.6558  0.0632 -0.4466
 2015TIP3    H127604   2.080   2.086   2.278 -0.1733  0.2290 -1.1044
 2015TIP3    H227605   2.076   1.935   2.268  0.9234  0.1426 -0.3450
 2016TIP3   OH227606   2.919   1.670   8.694 -0.1008 -0.3305  0.3630
 2016TIP3    H127607   2.930   1.761   8.724 -1.5857 -0.5073  1.5688
 2016TIP3    H227608   2.915   1.619   8.775  0.1576 -1.4128 -0.2911
 2017TIP3   OH227609   2.421   4.174   7.513  0.5165 -0.1018  0.1581
 2017TIP3    H127610   2.392   4.246   7.458  0.4173 -0.8480 -0.8042
 2017TIP3    H227611   2.347   4.112   7.511 -0.2348  0.6108  2.5896
 2018TIP3   OH227612   5.393   5.548   1.086 -0.1227 -0.5363 -0.2376
 2018TIP3    H127613   5.456   5.553   1.014  0.1195  1.0359  0.0438
 2018TIP3    H227614   5.374   5.640   1.107 -0.1181 -0.9578  1.7626
 2019TIP3   OH227615   5.801   5.676   1.929  0.7667  0.3275 -0.8336
 2019TIP3    H127616   5.708   5.701   1.927  0.9789  1.0899 -2.3123
 2019TIP3    H227617   5.848   5.758   1.938  1.3316 -0.0039 -0.6884
 2020TIP3   OH227618   2.696   2.648   8.305 -0.3766  0.1104 -0.3978
 2020TIP3    H127619   2.744   2.708   8.361 -0.0401  0.6843 -1.2963
 2020TIP3    H227620   2.753   2.632   8.230  0.0383 -2.2250  0.3227
 2021TIP3   OH227621   2.769   5.196   9.140  0.4396  0.0998  0.9221
 2021TIP3    H127622   2.717   5.116   9.149  1.9067 -0.9110  0.7404
 2021TIP3    H227623   2.845   5.169   9.088  1.0586  1.5723  1.0316
 2022TIP3   OH227624   1.151   0.694   8.152  0.2308  0.4634 -0.1680
 2022TIP3    H127625   1.159   0.662   8.062 -1.7331  1.2000 -0.6468
 2022TIP3    H227626   1.127   0.616   8.203 -2.1612  0.6198 -0.9247
 2023TIP3   OH227627   6.536   5.618   8.486  0.3308 -0.1187 -0.1525
 2023TIP3    H127628   6.482   5.672   8.428  1.7169  0.4713 -0.9545
 2023TIP3    H227629   6.513   5.646   8.574 -0.3378  0.4274 -0.4905
 2024TIP3   OH227630   6.430   6.551   1.174  0.4159  0.0289 -1.0469
 2024TIP3    H127631   6.402   6.466   1.140  0.7472 -1.2677  1.6295
 2024TIP3    H227632   6.524   6.553   1.159  0.4600 -0.2475 -0.8218
 2025TIP3   OH227633   5.616   2.085   8.920 -0.1348 -0.2729  0.3524
 2025TIP3    H127634   5.618   2.180   8.928 -0.4207  0.0573 -2.4197
 2025TIP3    H227635   5.527   2.060   8.944 -0.6848  0.4502 -0.8437
 2026TIP3   OH227636   2.580   0.202   1.307  0.0330 -0.2713  0.0157
 2026TIP3    H127637   2.539   0.115   1.313  2.7222 -1.9936 -3.0096
 2026TIP3    H227638   2.532   0.246   1.236  0.3585 -0.3840 -0.2775
 2027TIP3   OH227639   2.324   5.923   8.203  0.3503  0.4795  0.6895
 2027TIP3    H127640   2.410   5.964   8.212  0.5119  0.3168 -0.0386
 2027TIP3    H227641   2.275   5.984   8.147  0.7225 -0.4911 -0.7451
 2028TIP3   OH227642   3.226   2.437   9.100  0.0425  0.4114  0.3168
 2028TIP3    H127643   3.208   2.531   9.105  0.3827  0.5921 -1.4565
 2028TIP3    H227644   3.146   2.399   9.064  0.3841  0.1937 -0.2178
 2029TIP3   OH227645   4.821   5.666   1.360  0.0817  0.0363 -0.0664
 2029TIP3    H127646   4.782   5.691   1.276  2.0714 -1.4150 -1.5030
 2029TIP3    H227647   4.892   5.607   1.337 -0.7302 -2.3024  2.7973
 2030TIP3   OH227648   1.936   1.696   3.204  0.0420  0.0202 -0.0485
 2030TIP3    H127649   1.876   1.672   3.134  0.4345  1.8835 -1.1017
 2030TIP3    H227650   1.880   1.729   3.274 -0.3074 -1.0462  0.1821
 2031TIP3   OH227651   0.410   6.266   2.785  0.1569 -0.1772 -0.7810
 2031TIP3    H127652   0.327   6.219   2.791  0.2455 -0.1791  2.2818
 2031TIP3    H227653   0.392   6.352   2.823  0.7451  1.2363 -3.4796
 2032TIP3   OH227654   6.334   1.453   7.109 -0.3198 -0.0311  0.4067
 2032TIP3    H127655   6.341   1.411   7.195 -0.9651 -1.7985 -0.3632
 2032TIP3    H227656   6.425   1.465   7.081 -0.1143 -0.6500  0.7853
 2033TIP3   OH227657   0.582   1.485   0.971  0.5055  0.1006  0.3307
 2033TIP3    H127658   0.540   1.523   1.047  1.9310  2.2713  0.0994
 2033TIP3    H227659   0.589   1.556   0.908  1.8835 -0.9145 -0.7495
 2034TIP3   OH227660   4.570   2.803   2.159  0.3560 -0.1298  0.5043
 2034TIP3    H127661   4.646   2.838   2.112 -1.2239 -0.5975 -2.6555
 2034TIP3    H227662   4.536   2.878   2.208  1.6126  0.6260  0.2713
 2035TIP3   OH227663   1.304   5.543   1.845 -0.1241  0.5367  0.1454
 2035TIP3    H127664   1.373   5.608   1.854 -0.4422  0.6944  1.7343
 2035TIP3    H227665   1.321   5.480   1.916 -1.9976  0.9747  1.0466
 2036TIP3   OH227666   3.148   0.200   0.600 -0.3442  0.3242 -0.0472
 2036TIP3    H127667   3.206   0.269   0.567 -1.3450  1.8380  1.1716
 2036TIP3    H227668   3.166   0.124   0.545 -0.7071  2.1677 -2.9288
 2037TIP3   OH227669   5.406   0.070   2.469  0.2746  0.3657  0.0789
 2037TIP3    H127670   5.475   0.020   2.512  0.4498 -1.2572 -1.9894
 2037TIP3    H227671   5.451   0.123   2.403 -0.2391  1.0294  0.2418
 2038TIP3   OH227672   5.670   5.005   0.024 -0.0280  0.1956 -0.0806
 2038TIP3    H127673   5.647   5.094  -0.004 -1.4249 -0.6952 -1.9554
 2038TIP3    H227674   5.720   4.969  -0.049 -1.8249 -1.4446 -0.5615
 2039TIP3   OH227675   0.351   0.765   1.527  0.5045  0.5445  0.3198
 2039TIP3    H127676   0.355   0.669   1.533  1.4122  0.6552  2.6771
 2039TIP3    H227677   0.441   0.791   1.509  0.2049  0.9713 -0.6208
 2040TIP3   OH227678   0.388   1.755   9.140  0.0806 -0.3192  0.0186
 2040TIP3    H127679   0.363   1.835   9.187  1.9376  0.3750 -0.1062
 2040TIP3    H227680   0.305   1.720   9.108 -1.0165  0.3770  1.9000
 2041TIP3   OH227681   2.190   0.511   1.201  0.5791  0.0584  0.4397
 2041TIP3    H127682   2.133   0.438   1.224 -0.9735  1.3831  0.9784
 2041TIP3    H227683   2.197   0.507   1.105  0.6583 -0.8909  0.4835
 2042TIP3   OH227684   2.027   1.069   8.293  0.8714 -0.2750  0.0566
 2042TIP3    H127685   2.076   1.093   8.215  0.2950  0.3443 -0.1249
 2042TIP3    H227686   2.000   0.978   8.278 -4.5901  1.4302 -3.4405
 2043TIP3   OH227687   0.621   6.262   0.270  0.3577  0.2382 -0.1657
 2043TIP3    H127688   0.700   6.228   0.313 -0.4208 -1.5348 -0.0634
 2043TIP3    H227689   0.578   6.184   0.234 -1.6576  1.0819  0.3046
 2044TIP3   OH227690   4.110   1.122   7.011  0.4932 -0.5794 -0.1411
 2044TIP3    H127691   4.017   1.142   6.998  0.4863 -0.4265  0.1331
 2044TIP3    H227692   4.113   1.026   7.013  0.3061 -0.5830  0.0805
 2045TIP3   OH227693   3.534   3.169   2.060  0.2005 -0.4535  0.1452
 2045TIP3    H127694   3.602   3.175   1.993 -0.4141 -1.4016 -0.5957
 2045TIP3    H227695   3.582   3.173   2.143  0.8967  1.7071 -0.2957
 2046TIP3   OH227696   5.114   5.402   8.949 -0.5161  0.1385  0.0442
 2046TIP3    H127697   5.062   5.372   9.024 -2.8758  1.9420 -0.7377
 2046TIP3    H227698   5.187   5.450   8.989  1.0876 -2.9672  1.1807
 2047TIP3   OH227699   4.533   1.912   0.679  0.0361 -0.0836  0.2497
 2047TIP3    H127700   4.450   1.958   0.668  0.1534 -0.2958 -2.1239
 2047TIP3    H227701   4.588   1.972   0.728 -1.4137  0.1595  1.6564
 2048TIP3   OH227702   1.269   2.740   0.546  0.2003  0.1700  0.1602
 2048TIP3    H127703   1.344   2.781   0.504  1.3359  0.3977  2.2382
 2048TIP3    H227704   1.305   2.702   0.627 -1.7004 -0.8102  0.6183
 2049TIP3   OH227705   0.889   1.105   8.688  0.8527  0.0200 -0.0178
 2049TIP3    H127706   0.884   1.112   8.783  0.9655 -0.4277  0.0274
 2049TIP3    H227707   0.799   1.112   8.658  1.0154  2.5313 -0.0791
 2050TIP3   OH227708   2.535   3.461   8.782  0.5857 -0.2808  0.5449
 2050TIP3    H127709   2.609   3.516   8.809 -0.4893  0.0844  3.0259
 2050TIP3    H227710   2.545   3.381   8.834 -1.5861  0.4469  2.2436
 2051TIP3   OH227711   2.742   6.154   8.721 -0.0519  0.3063  0.0422
 2051TIP3    H127712   2.766   6.176   8.631  1.7829 -0.9974  0.1463
 2051TIP3    H227713   2.787   6.071   8.738  0.2827  0.9037  2.4220
 2052TIP3   OH227714   5.176   3.977   2.757  0.4458  0.8454  0.0057
 2052TIP3    H127715   5.146   4.025   2.834 -0.8454 -1.3711  0.9870
 2052TIP3    H227716   5.268   3.958   2.775  0.9015  2.6392 -0.2829
 2053TIP3   OH227717   5.591   1.111   1.795  0.0156 -0.2734  0.1917
 2053TIP3    H127718   5.682   1.085   1.782  0.3231  0.7459  0.1782
 2053TIP3    H227719   5.593   1.207   1.789 -0.8481 -0.1571  1.4060
 2054TIP3   OH227720   1.439   3.177   8.053 -0.2490 -0.0303  0.1588
 2054TIP3    H127721   1.438   3.181   7.957  1.3934 -0.4481  0.0868
 2054TIP3    H227722   1.452   3.085   8.073 -1.4985 -0.0785  0.8271
 2055TIP3   OH227723   4.763   2.556   1.046 -0.0555 -0.2376 -0.4143
 2055TIP3    H127724   4.771   2.649   1.028  2.0345 -0.1301  0.7240
 2055TIP3    H227725   4.782   2.513   0.963  0.2867  0.3438 -0.6414
 2056TIP3   OH227726   2.530   0.158   3.446 -0.2674 -0.0550  0.3370
 2056TIP3    H127727   2.470   0.165   3.371 -1.8554 -0.6630  1.5093
 2056TIP3    H227728   2.560   0.248   3.461  1.5247 -0.1414 -2.1051
 2057TIP3   OH227729   3.012   1.619   0.752 -0.2373  0.2851  0.1362
 2057TIP3    H127730   3.061   1.540   0.730  0.6874  0.8417  0.1402
 2057TIP3    H227731   2.985   1.655   0.668  0.9003  0.9253  0.0359
 2058TIP3   OH227732   1.173   2.537   2.728  0.2641 -0.2180  0.3979
 2058TIP3    H127733   1.221   2.480   2.788  0.6058  0.7984  1.0995
 2058TIP3    H227734   1.081   2.526   2.753  0.4997  1.4091  2.2391
 2059TIP3   OH227735   0.043   4.880   8.523 -0.2862 -0.0160 -0.1652
 2059TIP3    H127736   0.053   4.807   8.584 -1.7745  0.0700  0.1933
 2059TIP3    H227737   0.006   4.951   8.575 -1.4679  0.0922 -1.1225
 2060TIP3   OH227738   1.091   5.528   1.232  0.4271  0.3388  0.9447
 2060TIP3    H127739   1.043   5.464   1.285 -0.3568  0.2487  0.1463
 2060TIP3    H227740   1.140   5.580   1.296 -0.6787  0.3951  1.7818
 2061TIP3   OH227741   4.007   4.515   0.441  0.0733  0.5181  0.1332
 2061TIP3    H127742   4.076   4.490   0.502 -2.0147  0.0944  2.4862
 2061TIP3    H227743   3.947   4.440   0.441 -1.4337  1.6834 -0.2026
 2062TIP3   OH227744   2.953   4.359   7.760 -0.3059 -0.6171 -0.2153
 2062TIP3    H127745   2.958   4.354   7.664 -0.2655  0.3677 -0.2720
 2062TIP3    H227746   2.860   4.353   7.779 -0.4696  0.8494 -0.4381
 2063TIP3   OH227747   3.158   2.253   0.958  0.3418 -0.2227 -0.0397
 2063TIP3    H127748   3.230   2.215   1.009 -0.6194 -2.1361 -0.0290
 2063TIP3    H227749   3.146   2.191   0.886 -0.9344  0.3615 -0.3360
 2064TIP3   OH227750   5.818   4.587   8.059 -0.0705  0.4413 -0.3784
 2064TIP3    H127751   5.781   4.653   8.119 -0.9239 -0.0282 -0.3789
 2064TIP3    H227752   5.883   4.635   8.009 -1.0761  1.4441 -0.7755
 2065TIP3   OH227753   4.303   4.178   0.381 -0.0121 -0.3111 -0.2942
 2065TIP3    H127754   4.384   4.190   0.332 -1.1146 -0.6428 -2.3282
 2065TIP3    H227755   4.327   4.123   0.455  1.5189 -0.7861 -1.1134
 2066TIP3   OH227756   6.100   6.549   0.906  0.1002  0.3038 -0.5784
 2066TIP3    H127757   6.191   6.576   0.893  0.4180 -0.1501  0.5531
 2066TIP3    H227758   6.102   6.454   0.896 -0.2625  0.2994 -0.6067
 2067TIP3   OH227759   1.676   1.407   1.487  0.3496 -0.0088 -0.1172
 2067TIP3    H127760   1.737   1.413   1.560  0.5599  1.8644 -0.3811
 2067TIP3    H227761   1.635   1.493   1.484 -0.8324 -0.5837 -1.2074
 2068TIP3   OH227762   6.287   0.008   0.328  0.2395 -0.1563 -0.1552
 2068TIP3    H127763   6.230  -0.063   0.358 -1.1803  0.5867 -1.0353
 2068TIP3    H227764   6.309   0.056   0.408 -0.1989 -0.5689  0.2189
 2069TIP3   OH227765   4.157   5.087   8.674 -0.4230 -0.5594  0.6626
 2069TIP3    H127766   4.198   5.005   8.647 -2.2510 -0.9709 -1.1159
 2069TIP3    H227767   4.092   5.060   8.739 -1.0597 -0.5557  0.0388
 2070TIP3   OH227768   4.007   2.482   9.163 -0.1216  0.1151  0.3073
 2070TIP3    H127769   4.072   2.432   9.114 -0.8332 -0.8973  0.3775
 2070TIP3    H227770   3.978   2.423   9.232 -0.5773  0.8295  0.7405
 2071TIP3   OH227771   6.025   5.141   9.054 -0.4879  0.0585  0.4413
 2071TIP3    H127772   5.990   5.090   8.981  2.2536 -0.9022 -0.3174
 2071TIP3    H227773   6.018   5.232   9.026  0.6055 -0.2989 -1.1159
 2072TIP3   OH227774   3.616   4.418   2.575 -0.4738 -0.0811  0.4011
 2072TIP3    H127775   3.621   4.476   2.499  2.7607  0.6101  0.9977
 2072TIP3    H227776   3.683   4.351   2.557  0.4207  0.1528  2.6218
 2073TIP3   OH227777   4.464   2.320   0.455  0.4122 -0.0121  0.4947
 2073TIP3    H127778   4.412   2.370   0.392  1.5963  0.2733 -0.2664
 2073TIP3    H227779   4.457   2.229   0.425 -1.6043 -0.3648  1.7846
 2074TIP3   OH227780   4.464   4.144   0.682 -0.0289  0.2551  1.0137
 2074TIP3    H127781   4.440   4.074   0.621 -0.4241  0.6985  0.6512
 2074TIP3    H227782   4.553   4.168   0.657  0.7968 -1.2812  2.2562
 2075TIP3   OH227783   2.854   2.878   0.151 -0.0072 -0.5889  0.1881
 2075TIP3    H127784   2.880   2.839   0.068  0.5847 -1.7474  0.8920
 2075TIP3    H227785   2.937   2.901   0.194 -0.2318 -1.4817  1.1317
 2076TIP3   OH227786   0.481   5.258   2.200 -0.1206  0.8546 -0.3433
 2076TIP3    H127787   0.563   5.252   2.248 -0.4999  1.2254  0.3816
 2076TIP3    H227788   0.461   5.352   2.198 -0.3692  0.7959 -0.7812
 2077TIP3   OH227789   1.938   2.358   8.613 -0.1551  0.0307 -0.0597
 2077TIP3    H127790   1.901   2.435   8.572 -1.1244 -1.3277 -1.8885
 2077TIP3    H227791   2.014   2.335   8.559  1.8730  1.2153  2.0717
 2078TIP3   OH227792   3.522   2.669   2.782  1.0130  0.6247 -0.0811
 2078TIP3    H127793   3.583   2.596   2.779  1.4310  0.9882 -0.6787
 2078TIP3    H227794   3.496   2.681   2.690 -0.3785  0.1224  0.2223
 2079TIP3   OH227795   0.705   5.376   2.782 -0.3657 -0.4289  0.3833
 2079TIP3    H127796   0.634   5.403   2.724 -1.2632 -2.6907  0.3461
 2079TIP3    H227797   0.694   5.430   2.860 -1.4477  0.0354 -0.0694
 2080TIP3   OH227798   6.053   2.390   1.806 -0.1686 -0.0845  0.2763
 2080TIP3    H127799   6.016   2.453   1.744  0.6387  1.2891  1.1204
 2080TIP3    H227800   6.136   2.363   1.766 -0.2973 -0.2489  0.1222
 2081TIP3   OH227801   2.725   1.102   2.150  0.4498 -0.0770 -0.1907
 2081TIP3    H127802   2.758   1.181   2.192  1.7835 -0.1344 -1.0658
 2081TIP3    H227803   2.801   1.065   2.105 -0.4031 -1.2528 -0.7221
 2082TIP3   OH227804   0.686   6.302   8.425 -0.2360 -0.2723  0.4573
 2082TIP3    H127805   0.777   6.311   8.396 -0.5350 -2.0623 -1.2111
 2082TIP3    H227806   0.692   6.264   8.512  0.6101 -0.1584  0.4577
 2083TIP3   OH227807   1.740   5.441   2.697 -0.0959  0.5904  0.0747
 2083TIP3    H127808   1.766   5.515   2.752  0.3839  1.0814 -0.7724
 2083TIP3    H227809   1.653   5.465   2.664  0.4855  1.3111 -1.0346
 2084TIP3   OH227810   1.334   0.209   2.542  0.0999 -0.3561 -0.3801
 2084TIP3    H127811   1.426   0.199   2.564  0.2987  1.1377 -0.4442
 2084TIP3    H227812   1.319   0.146   2.472  1.2577 -0.1082 -0.8760
 2085TIP3   OH227813   2.213   3.295   1.604 -0.1971 -0.2068 -0.2270
 2085TIP3    H127814   2.122   3.296   1.575 -0.0403  1.9558 -0.8340
 2085TIP3    H227815   2.208   3.274   1.698 -1.3746  0.4853 -0.1177
 2086TIP3   OH227816   5.661   6.505   2.108 -0.0665  0.0662  0.2799
 2086TIP3    H127817   5.627   6.439   2.168 -1.9350 -1.4935 -2.3068
 2086TIP3    H227818   5.591   6.518   2.044  2.5783 -0.1998 -2.9507
 2087TIP3   OH227819   4.209   0.336   2.008  0.2979 -0.2294 -0.2172
 2087TIP3    H127820   4.116   0.314   2.017  0.0565  0.9648  0.4045
 2087TIP3    H227821   4.212   0.396   1.933  0.4265  0.4456  0.3195
 2088TIP3   OH227822   6.586   2.183   1.825  0.4602 -0.0038  0.4510
 2088TIP3    H127823   6.651   2.178   1.896  0.3231  0.5391  0.6182
 2088TIP3    H227824   6.588   2.096   1.785  2.4489  0.4517 -0.5758
 2089TIP3   OH227825   2.220   5.132   1.398  0.2436  0.4415  0.7359
 2089TIP3    H127826   2.198   5.211   1.349  0.3921 -0.7635 -1.3494
 2089TIP3    H227827   2.298   5.098   1.356 -1.9305 -2.9002 -1.0278
 2090TIP3   OH227828   0.951   2.770   3.157 -0.0782 -0.2363  0.3116
 2090TIP3    H127829   0.931   2.859   3.127  1.2372 -0.6044 -1.9064
 2090TIP3    H227830   1.005   2.782   3.236 -2.0987  0.8267  1.6086
 2091TIP3   OH227831   3.621   5.702   0.890  0.4227 -0.2402  0.1307
 2091TIP3    H127832   3.628   5.713   0.985 -0.6020 -0.1671  0.2025
 2091TIP3    H227833   3.599   5.790   0.858 -0.7410 -0.5708 -0.0091
 2092TIP3   OH227834   0.421   0.498   2.183 -0.0807 -0.4318 -0.1405
 2092TIP3    H127835   0.413   0.493   2.278  1.0750 -0.9217 -0.0546
 2092TIP3    H227836   0.437   0.590   2.164  0.3090 -0.4324  0.1911
 2093TIP3   OH227837   3.851   4.641   8.725 -0.2314 -0.6196 -0.4465
 2093TIP3    H127838   3.915   4.640   8.795  0.2661 -0.3734 -0.8947
 2093TIP3    H227839   3.868   4.560   8.676  0.4525 -0.0327 -1.1993
 2094TIP3   OH227840   5.521   5.735   7.583 -0.0827 -0.1126  0.6348
 2094TIP3    H127841   5.520   5.734   7.487  1.8111  2.0938  0.4994
 2094TIP3    H227842   5.479   5.653   7.608 -1.2236 -0.4612 -2.0603
 2095TIP3   OH227843   1.807   1.995   2.542 -0.5299 -0.5338  0.4460
 2095TIP3    H127844   1.791   1.929   2.474 -3.3223 -0.7804  1.2153
 2095TIP3    H227845   1.854   2.064   2.496  1.3813 -2.4576 -0.6872
 2096TIP3   OH227846   3.261   4.681   2.248  0.3206  0.3137  0.2513
 2096TIP3    H127847   3.198   4.704   2.180  0.7642  0.2049 -0.2039
 2096TIP3    H227848   3.309   4.606   2.211  0.3696  0.0682  0.8051
 2097TIP3   OH227849   4.146   1.204   9.127 -0.1199  0.1403  0.0085
 2097TIP3    H127850   4.097   1.124   9.145  0.1775 -0.2138 -0.7042
 2097TIP3    H227851   4.080   1.273   9.125 -0.4824 -0.2071 -0.1324
 2098TIP3   OH227852   5.047   4.288   1.200  0.3837  0.6684  0.0899
 2098TIP3    H127853   5.129   4.309   1.157  0.5166  1.8977  0.8874
 2098TIP3    H227854   5.066   4.210   1.252  0.0939 -1.1382 -2.3341
 2099TIP3   OH227855   6.558   5.454   8.955 -0.3832  0.5434 -0.4582
 2099TIP3    H127856   6.527   5.520   8.893  0.3807  1.3991  0.0571
 2099TIP3    H227857   6.650   5.443   8.934 -0.2497  0.4314  0.1794
 2100TIP3   OH227858   0.801   0.508   2.364  0.5135 -0.0532 -0.5080
 2100TIP3    H127859   0.886   0.466   2.377  0.1895 -0.6639 -0.3308
 2100TIP3    H227860   0.737   0.440   2.385 -0.0536 -0.3326 -2.8613
 2101TIP3   OH227861   3.297   4.813   7.823 -0.0918 -0.5932  0.4905
 2101TIP3    H127862   3.311   4.907   7.806  0.1592  0.0949  3.7280
 2101TIP3    H227863   3.352   4.769   7.759  1.8552  1.5868  0.5152
 2102TIP3   OH227864   6.334   3.309   7.276 -0.1284  0.0256  0.1322
 2102TIP3    H127865   6.348   3.247   7.204 -0.3441 -0.9697  0.9245
 2102TIP3    H227866   6.263   3.365   7.245  0.4599  0.2640 -0.8382
 2103TIP3   OH227867   4.906   2.600   8.139 -0.2750 -0.0001  0.1374
 2103TIP3    H127868   4.970   2.603   8.069 -0.3417 -1.0893  0.0130
 2103TIP3    H227869   4.958   2.594   8.219 -0.2093 -1.0619  0.0251
 2104TIP3   OH227870   6.024   4.917   0.771  0.3589  0.4266 -0.4515
 2104TIP3    H127871   6.066   4.836   0.744 -2.1431 -1.4038  0.7254
 2104TIP3    H227872   6.080   4.951   0.841  1.9026  0.2567 -1.5542
 2105TIP3   OH227873   1.463   0.472   1.135 -0.4007  0.0557  0.1920
 2105TIP3    H127874   1.485   0.560   1.166  1.8901 -0.2119 -0.4497
 2105TIP3    H227875   1.449   0.421   1.214  0.4879  0.5010  0.6552
 2106TIP3   OH227876   3.715   3.858   1.408 -0.4286  0.1910 -0.0118
 2106TIP3    H127877   3.696   3.849   1.315  1.1098 -0.2769 -0.3055
 2106TIP3    H227878   3.674   3.782   1.448 -0.2935 -0.1118 -0.4391
 2107TIP3   OH227879   4.807   3.519   0.239  0.6212 -0.2071  0.4206
 2107TIP3    H127880   4.772   3.522   0.150  0.9019 -3.0695  0.1145
 2107TIP3    H227881   4.900   3.540   0.229  0.6344 -0.4305  0.0458
 2108TIP3   OH227882   4.189   4.789   9.097 -0.0345  0.1694 -0.6795
 2108TIP3    H127883   4.259   4.768   9.035  0.5643 -1.6514  0.5563
 2108TIP3    H227884   4.232   4.838   9.167 -0.5238  1.3062 -1.1326
 2109TIP3   OH227885   1.529   6.313   1.863 -0.5136  0.6633  0.5875
 2109TIP3    H127886   1.438   6.311   1.835 -0.2529 -1.8123 -0.3132
 2109TIP3    H227887   1.526   6.333   1.956 -1.9773  0.4869  0.5948
 2110TIP3   OH227888   3.812   3.760   1.840 -0.1953 -0.3008  0.5620
 2110TIP3    H127889   3.868   3.697   1.886 -0.9927 -0.4173  1.3905
 2110TIP3    H227890   3.861   3.842   1.842  0.5281 -0.7097  0.1142
 2111TIP3   OH227891   4.995   2.662   1.551 -0.2056  0.2897  0.4060
 2111TIP3    H127892   4.941   2.594   1.592  0.6475 -1.5809 -1.4153
 2111TIP3    H227893   4.962   2.669   1.462  0.5182  1.4419  0.1972
 2112TIP3   OH227894   5.337   0.571   2.705 -0.3075  0.0395 -0.0840
 2112TIP3    H127895   5.274   0.623   2.755 -1.1125  0.7807 -1.7846
 2112TIP3    H227896   5.324   0.482   2.736  0.3489  0.6572  2.1309
 2113TIP3   OH227897   5.389   1.192   1.619  0.3463 -0.1296  0.0392
 2113TIP3    H127898   5.303   1.182   1.660 -0.2837 -0.2896 -1.2639
 2113TIP3    H227899   5.449   1.144   1.676 -1.0836 -3.6681 -1.1907
 2114TIP3   OH227900   0.008   1.287   0.779  0.1524  0.2903  0.0168
 2114TIP3    H127901  -0.050   1.234   0.724 -0.7532  1.6802 -0.4238
 2114TIP3    H227902  -0.034   1.373   0.782  2.5167  1.5714 -0.8889
 2115TIP3   OH227903   4.297   1.430   1.627 -0.3554 -0.0967  0.3856
 2115TIP3    H127904   4.273   1.351   1.675  0.3071 -0.4858  0.0925
 2115TIP3    H227905   4.294   1.404   1.534 -0.2054  0.2366  0.2843
 2116TIP3   OH227906   1.591   0.498   0.898 -0.6955 -0.2611  0.5098
 2116TIP3    H127907   1.685   0.493   0.917 -0.9512  0.3524  2.0390
 2116TIP3    H227908   1.548   0.485   0.982 -1.9947 -0.3803 -0.1435
 2117TIP3   OH227909   5.863   4.836   8.586  0.4600 -0.1440 -0.4802
 2117TIP3    H127910   5.800   4.876   8.646  0.6906 -0.5993  0.0751
 2117TIP3    H227911   5.838   4.744   8.582 -0.7713  0.2271 -2.6537
 2118TIP3   OH227912   5.570   4.957   0.822 -0.0990  0.1709 -0.4137
 2118TIP3    H127913   5.509   4.967   0.749  0.0603 -0.8070 -0.6905
 2118TIP3    H227914   5.645   5.012   0.799 -0.3803  0.4698 -0.6153
 2119TIP3   OH227915   0.192   3.470   9.098  0.0607 -0.1215 -0.1080
 2119TIP3    H127916   0.134   3.411   9.051 -0.2961 -2.0742  2.5812
 2119TIP3    H227917   0.134   3.522   9.154  0.6724 -0.0666  0.4933
 2120TIP3   OH227918   3.149   4.815   0.080  0.3505  0.1574  0.1709
 2120TIP3    H127919   3.222   4.753   0.085  0.7406  0.6809  1.3156
 2120TIP3    H227920   3.167   4.868   0.003  0.3234 -0.7431 -0.4787
 2121TIP3   OH227921   2.314   2.978   0.215  0.2493 -0.0848  0.2832
 2121TIP3    H127922   2.305   3.074   0.219  0.7399  0.0296 -0.8587
 2121TIP3    H227923   2.259   2.952   0.141 -0.8711 -0.8466  1.3514
 2122TIP3   OH227924   2.588   3.227   1.576  0.0301  0.2145  0.4409
 2122TIP3    H127925   2.521   3.161   1.596  1.1240 -2.1352 -2.8361
 2122TIP3    H227926   2.553   3.276   1.502  2.2099 -1.8695 -2.1654
 2123TIP3   OH227927   2.292   0.509   0.942 -0.3786  0.5664  0.5320
 2123TIP3    H127928   2.340   0.581   0.903  1.4716 -1.0372 -0.3466
 2123TIP3    H227929   2.236   0.476   0.872 -1.1674  1.0992  0.9088
 2124TIP3   OH227930   0.962   2.613   0.890  0.4345 -0.2652 -0.6076
 2124TIP3    H127931   0.968   2.535   0.835 -2.6246  1.0176 -3.1092
 2124TIP3    H227932   0.943   2.580   0.978  4.5254 -2.3632 -0.2883
 2125TIP3   OH227933   6.611   5.252   8.245  0.0855 -0.7297  0.0728
 2125TIP3    H127934   6.614   5.292   8.332  1.7018 -0.0607 -0.2572
 2125TIP3    H227935   6.571   5.166   8.259 -0.7907 -0.1496  1.2621
 2126TIP3   OH227936   0.113   4.598   1.866 -0.4061 -0.1063 -0.5607
 2126TIP3    H127937   0.110   4.681   1.913  1.7433 -0.4124  0.2122
 2126TIP3    H227938   0.113   4.531   1.935 -0.2239 -0.6839 -1.1097
 2127TIP3   OH227939   6.165   4.737   7.252 -0.4241  0.3240 -0.9789
 2127TIP3    H127940   6.253   4.764   7.277 -0.5205 -0.0782 -0.1825
 2127TIP3    H227941   6.138   4.801   7.186 -0.1170  1.3377 -0.1391
 2128TIP3   OH227942   0.224   0.389   0.945 -0.3183  0.1003 -0.7035
 2128TIP3    H127943   0.276   0.357   1.019 -0.8988  0.3259 -0.1835
 2128TIP3    H227944   0.142   0.419   0.985 -0.7516 -0.0276 -1.4763
 2129TIP3   OH227945   4.059   2.589   1.800  0.2125  0.0372  0.1156
 2129TIP3    H127946   4.114   2.561   1.873 -1.6686 -2.0535  0.8158
 2129TIP3    H227947   4.118   2.592   1.725  1.5280 -0.8825  1.0822
 2130TIP3   OH227948   0.003   4.297   0.661 -0.0265  0.5466 -0.2995
 2130TIP3    H127949   0.061   4.362   0.701 -0.0533  0.1320  0.4430
 2130TIP3    H227950   0.006   4.223   0.721  1.0417 -0.6802 -1.8029
 2131TIP3   OH227951   5.695   0.400   9.195 -0.3396  0.3227  0.2519
 2131TIP3    H127952   5.770   0.351   9.227 -1.1623 -1.5456 -0.5141
 2131TIP3    H227953   5.646   0.337   9.141 -2.1370  1.6255  0.2479
 2132TIP3   OH227954   4.950   2.186   0.934 -0.2987  0.0425 -0.5744
 2132TIP3    H127955   4.996   2.154   0.856 -1.3194  0.6141 -1.4328
 2132TIP3    H227956   4.895   2.258   0.902 -1.0014  0.0558  0.6069
 2133TIP3   OH227957   0.306   4.964   1.108 -0.5967  0.6696  0.1757
 2133TIP3    H127958   0.239   4.995   1.169 -1.1194 -1.4780  0.7555
 2133TIP3    H227959   0.257   4.944   1.027 -0.9539 -2.0884  0.9944
 2134TIP3   OH227960   2.393   0.247   0.992  0.0460 -0.0428  0.3893
 2134TIP3    H127961   2.317   0.206   0.951  1.0255 -0.2777 -1.2614
 2134TIP3    H227962   2.377   0.341   0.984 -0.1027 -0.0903  0.1159
 2135TIP3   OH227963   0.312   0.772   0.534  0.5996  0.0001 -0.1092
 2135TIP3    H127964   0.274   0.817   0.610  0.1940 -0.3632 -0.0924
 2135TIP3    H227965   0.306   0.679   0.556 -0.2807 -0.1530 -0.9337
 2136TIP3   OH227966   4.771   2.119   8.668  0.3778 -0.4946  0.5004
 2136TIP3    H127967   4.855   2.108   8.624  1.1292  0.7526  1.5361
 2136TIP3    H227968   4.765   2.045   8.727  0.3866 -0.9982 -0.1249
 2137TIP3   OH227969   6.333   3.434   8.174  0.2492 -0.2206 -0.9055
 2137TIP3    H127970   6.283   3.516   8.167 -1.6955 -1.1778  0.9006
 2137TIP3    H227971   6.381   3.442   8.257 -0.6579 -1.2524 -0.2666
 2138TIP3   OH227972   6.598   6.147   1.057 -0.3305 -0.3544 -0.0877
 2138TIP3    H127973   6.607   6.179   0.968 -0.5778  2.2406  0.7344
 2138TIP3    H227974   6.509   6.111   1.060 -0.2396 -0.6716 -0.9331
 2139TIP3   OH227975   5.793   4.366   1.249 -0.0275  0.1257  0.1086
 2139TIP3    H127976   5.864   4.382   1.312 -0.2216 -1.7958  0.8992
 2139TIP3    H227977   5.742   4.447   1.249  1.3468  1.0239  0.6165
 2140TIP3   OH227978   3.354   2.863   8.938  0.0257 -0.0089 -0.0258
 2140TIP3    H127979   3.440   2.835   8.906  0.2943  1.4307 -0.6521
 2140TIP3    H227980   3.297   2.788   8.921  1.3427 -1.4054  1.4032
 2141TIP3   OH227981   3.029   1.769   9.131 -0.3356  0.5399 -0.2537
 2141TIP3    H127982   3.033   1.823   9.210 -2.1376  0.0082  0.2589
 2141TIP3    H227983   3.028   1.679   9.163 -2.1668  0.3311 -0.7628
 2142TIP3   OH227984   4.952   3.799   0.552  0.1723 -0.1495  0.3543
 2142TIP3    H127985   4.883   3.795   0.618 -0.6289 -1.5606 -0.5243
 2142TIP3    H227986   4.960   3.893   0.533 -1.5654  0.0619  0.4406
 2143TIP3   OH227987   1.032   0.757   2.530  0.1159  0.0297 -0.5418
 2143TIP3    H127988   1.006   0.827   2.471 -0.0056 -0.1083 -0.6511
 2143TIP3    H227989   0.970   0.686   2.513  0.7364 -0.4147 -1.0167
 2144TIP3   OH227990   1.281   6.163   0.399  0.4067  0.1823  0.4710
 2144TIP3    H127991   1.347   6.143   0.464  1.3499  2.5675  0.3578
 2144TIP3    H227992   1.268   6.082   0.351  1.7375 -0.8698  1.8185
 2145TIP3   OH227993   5.863   3.834   8.190  0.6565 -0.3636  0.2690
 2145TIP3    H127994   5.831   3.748   8.217  1.4613 -0.2974  1.4672
 2145TIP3    H227995   5.788   3.873   8.145 -0.3367 -0.9664  1.3319
 2146TIP3   OH227996   4.254   0.678   7.855 -0.4789  0.6045  0.4072
 2146TIP3    H127997   4.309   0.720   7.788  0.9211 -1.5467  0.1011
 2146TIP3    H227998   4.188   0.631   7.804 -0.1291 -0.0736  0.5674
 2147TIP3   OH227999   4.996   3.633   6.988 -0.3372 -0.4839  0.0042
 2147TIP3    H128000   4.927   3.601   6.929 -0.2072  0.6597 -0.8080
 2147TIP3    H228001   4.948   3.678   7.057 -0.4429  1.4804 -1.2568
 2148TIP3   OH228002   5.435   5.224   0.064 -0.0006 -0.0240 -0.0244
 2148TIP3    H128003   5.502   5.277   0.107 -0.0483 -1.1313  1.5018
 2148TIP3    H228004   5.453   5.234  -0.030  1.3711  0.8736  0.3055
 2149TIP3   OH228005   5.739   0.909   0.666  0.0182 -0.1576 -0.0336
 2149TIP3    H128006   5.650   0.916   0.700 -0.3352  0.8975 -1.1071
 2149TIP3    H228007   5.757   0.815   0.665 -0.1183 -0.2884  2.5557
 2150TIP3   OH228008   2.286   4.856   1.879  0.3827  0.0160  0.1733
 2150TIP3    H128009   2.272   4.857   1.785  0.1868 -0.6846  0.1856
 2150TIP3    H228010   2.354   4.790   1.893 -0.2570 -0.5709  0.5923
 2151TIP3   OH228011   0.287   0.638   8.236 -0.0981  0.4463 -0.0788
 2151TIP3    H128012   0.381   0.637   8.216  0.3629  2.0586  1.7283
 2151TIP3    H228013   0.282   0.668   8.326 -2.3674 -0.0428  0.0252
 2152TIP3   OH228014   5.334   0.140   2.174  0.2078 -0.5999 -0.5116
 2152TIP3    H128015   5.391   0.199   2.223  0.6266 -0.8087 -0.7431
 2152TIP3    H228016   5.276   0.198   2.124  0.8438 -0.3790 -1.0017
 2153TIP3   OH228017   4.534   1.834   7.957  0.5232  0.3734 -0.1185
 2153TIP3    H128018   4.444   1.807   7.937  1.0109 -2.5423  1.1355
 2153TIP3    H228019   4.537   1.836   8.053  1.0245  3.6632 -0.0865
 2154TIP3   OH228020   0.202   4.930   9.265 -0.4434 -0.0880 -0.4711
 2154TIP3    H128021   0.262   5.004   9.273 -0.4672 -0.2014  1.0638
 2154TIP3    H228022   0.121   4.968   9.231  0.2263  0.1985 -1.8034
 2155TIP3   OH228023   1.688   6.146   9.290  0.3569  0.0139 -0.2694
 2155TIP3    H128024   1.666   6.056   9.315 -0.7168  0.4328  0.3322
 2155TIP3    H228025   1.638   6.201   9.349 -1.1467  1.0269 -2.3662
 2156TIP3   OH228026   0.467   0.204   9.181 -0.0715  0.3166  0.2940
 2156TIP3    H128027   0.515   0.273   9.136  0.1358 -0.7307 -1.2067
 2156TIP3    H228028   0.430   0.246   9.258  0.2744  2.0159 -0.4149
 2157TIP3   OH228029   5.964   0.849   8.731 -0.2955  0.0436  0.0643
 2157TIP3    H128030   5.951   0.876   8.640 -0.9040  1.3226  0.4991
 2157TIP3    H228031   5.925   0.762   8.736  0.6501 -0.4770 -1.1310
 2158TIP3   OH228032   1.271   1.397   0.211 -0.0211 -0.1400  0.1945
 2158TIP3    H128033   1.278   1.419   0.119 -0.4407  1.0783  0.4341
 2158TIP3    H228034   1.259   1.302   0.213  0.7203 -0.2696 -0.9524
 2159TIP3   OH228035   5.695   2.360   8.922  0.0117 -0.2052 -0.1722
 2159TIP3    H128036   5.743   2.365   8.839  1.8240 -0.4941  0.7868
 2159TIP3    H228037   5.749   2.409   8.983  0.2701 -2.3713  1.4872
 2160TIP3   OH228038   3.485   4.754   8.304  0.4239  0.0649 -0.5779
 2160TIP3    H128039   3.498   4.778   8.212 -1.4165  1.4438 -0.5343
 2160TIP3    H228040   3.453   4.664   8.302  1.3161 -0.2543 -1.1938
 2161TIP3   OH228041   4.389   0.540   8.265 -0.1561  0.5869  0.3150
 2161TIP3    H128042   4.338   0.463   8.291  0.4409 -0.3649 -1.1790
 2161TIP3    H228043   4.472   0.504   8.233 -0.0972  1.7889 -0.9945
 2162TIP3   OH228044   2.968   3.266   9.282  0.4320 -0.4868  0.2908
 2162TIP3    H128045   3.011   3.311   9.209 -1.1099 -0.1620 -0.4638
 2162TIP3    H228046   2.888   3.316   9.297  0.2579 -1.1193  1.5826
 2163TIP3   OH228047   6.537   5.555   0.093  0.0053  0.1200 -0.0796
 2163TIP3    H128048   6.535   5.640   0.049 -0.7996 -0.5807 -1.5004
 2163TIP3    H228049   6.445   5.526   0.093  0.5983 -2.2045 -2.7327
 2164TIP3   OH228050   1.192   3.888   1.764 -0.4555  0.1072 -0.6357
 2164TIP3    H128051   1.282   3.877   1.736 -0.3149 -0.6520  0.1006
 2164TIP3    H228052   1.197   3.947   1.839 -0.8363  2.1797 -2.1417
 2165TIP3   OH228053   4.934   2.198   9.028 -0.0549  0.1221 -0.3175
 2165TIP3    H128054   5.018   2.231   9.060  0.5026 -0.3626 -1.2514
 2165TIP3    H228055   4.952   2.108   9.001 -0.9127 -0.0396 -0.3806
 2166TIP3   OH228056   5.661   4.713   0.961  0.2840  0.1088 -0.1115
 2166TIP3    H128057   5.599   4.670   1.021  1.0032  0.3475  0.8153
 2166TIP3    H228058   5.606   4.771   0.908 -0.6136 -1.4016 -0.9099
 2167TIP3   OH228059   0.151   2.001   3.041 -0.9490  0.0223  0.3273
 2167TIP3    H128060   0.117   1.918   3.008 -1.4588 -0.2273  1.4456
 2167TIP3    H228061   0.114   2.009   3.129  0.3853  0.6525  0.8573
 2168TIP3   OH228062   5.701   2.377   1.675  0.1095  0.1469  0.2450
 2168TIP3    H128063   5.652   2.448   1.716  0.9528  0.7060  0.2915
 2168TIP3    H228064   5.647   2.352   1.599  1.1089  2.7234 -1.4409
 2169TIP3   OH228065   6.533   1.617   8.709 -0.1718  0.2400 -0.4065
 2169TIP3    H128066   6.549   1.522   8.706  0.8082  0.2903  1.4880
 2169TIP3    H228067   6.536   1.638   8.803  0.3080  2.2490 -0.8375
 2170TIP3   OH228068   3.907   0.506   1.485  0.4188  0.0202  0.1684
 2170TIP3    H128069   3.820   0.477   1.456 -1.2695  1.7110  2.9817
 2170TIP3    H228070   3.922   0.459   1.567  0.7000  1.9525  1.2895
 2171TIP3   OH228071   2.291   5.073   8.282 -0.0417 -0.3175 -0.6215
 2171TIP3    H128072   2.236   5.009   8.327 -0.2549  0.1603 -0.1892
 2171TIP3    H228073   2.379   5.036   8.284  0.1785  0.2088  1.2356
 2172TIP3   OH228074   5.523   2.200   1.154  0.5271 -0.8954  0.3215
 2172TIP3    H128075   5.518   2.148   1.234 -0.6077 -1.4065 -0.0667
 2172TIP3    H228076   5.460   2.160   1.095  0.1672  0.4694 -0.2579
 2173TIP3   OH228077   3.717   0.653   8.695 -0.5428  0.0230 -0.0110
 2173TIP3    H128078   3.721   0.609   8.610 -0.7753 -3.9151  1.7965
 2173TIP3    H228079   3.627   0.685   8.702 -1.6797 -2.9181  0.1009
 2174TIP3   OH228080   2.097   3.645   2.662 -0.3790 -0.0754  0.1784
 2174TIP3    H128081   2.060   3.572   2.614 -0.7871 -0.3854  0.9469
 2174TIP3    H228082   2.192   3.635   2.652 -0.4656  0.3085 -1.1914
 2175TIP3   OH228083   6.541   5.781   0.411  0.3547 -0.3345 -0.2345
 2175TIP3    H128084   6.607   5.830   0.461  1.3313  1.8120 -3.2869
 2175TIP3    H228085   6.460   5.830   0.425  0.7930  0.7489 -1.2266
 2176TIP3   OH228086   2.965   0.125   2.806 -0.2409  0.3393  0.2197
 2176TIP3    H128087   2.945   0.200   2.749  0.1634  0.2831 -0.0018
 2176TIP3    H228088   2.881   0.081   2.818 -0.0729 -0.6159 -1.7189
 2177TIP3   OH228089   4.169   0.637   1.509  0.1936  0.0340 -0.4788
 2177TIP3    H128090   4.196   0.653   1.418  1.1891  1.8559  0.0829
 2177TIP3    H228091   4.093   0.580   1.501  0.3179  0.0554 -2.4518
 2178TIP3   OH228092   6.469   1.976   2.589  0.0732  0.9111 -0.0305
 2178TIP3    H128093   6.525   1.901   2.610 -0.1899  0.5051 -0.7499
 2178TIP3    H228094   6.388   1.959   2.637 -0.0033  0.7123 -0.2308
 2179TIP3   OH228095   4.003   0.951   9.112  0.6124  0.4697  0.7320
 2179TIP3    H128096   3.920   0.913   9.141  0.8849 -2.0372 -1.3749
 2179TIP3    H228097   4.069   0.905   9.163  0.7922  1.2505  1.2131
 2180TIP3   OH228098   5.213   3.621   2.462  0.2097  0.1952  0.1922
 2180TIP3    H128099   5.276   3.691   2.480 -0.4624  0.4649  1.5687
 2180TIP3    H228100   5.145   3.663   2.410 -0.4712  0.7240  1.4821
 2181TIP3   OH228101   3.348   6.326   1.571  0.3582 -0.5258 -0.0346
 2181TIP3    H128102   3.414   6.388   1.539  0.0751  1.3372  2.6913
 2181TIP3    H228103   3.272   6.342   1.515  0.2737  1.7283  0.6169
 2182TIP3   OH228104   3.767   2.788   0.799  0.3005 -0.0170 -0.0811
 2182TIP3    H128105   3.723   2.866   0.832  0.5009  0.0979 -0.0816
 2182TIP3    H228106   3.710   2.755   0.730  0.1167  0.0145  0.0569
 2183TIP3   OH228107   6.159   6.093   9.067 -0.0681  0.0262 -0.0914
 2183TIP3    H128108   6.089   6.157   9.055  0.5323  1.0805  1.6785
 2183TIP3    H228109   6.182   6.099   9.160  0.4356 -2.3459  0.0045
 2184TIP3   OH228110   5.496   0.275   1.169  0.8821 -0.6843  0.0988
 2184TIP3    H128111   5.407   0.293   1.198 -0.2460 -1.3951 -2.6605
 2184TIP3    H228112   5.507   0.181   1.184 -0.2163 -1.3537 -2.7802
 2185TIP3   OH228113   2.329   4.355   2.550  0.0530 -0.2573 -0.3020
 2185TIP3    H128114   2.369   4.442   2.541 -0.3944  0.3998  2.8377
 2185TIP3    H228115   2.397   4.295   2.519  2.1765  1.0386  1.4739
 2186TIP3   OH228116   1.345   4.904   8.116 -0.3325  0.0136  0.0626
 2186TIP3    H128117   1.261   4.948   8.115 -0.0428  0.5796  0.2338
 2186TIP3    H228118   1.333   4.829   8.175 -0.9426 -0.3811 -0.5517
 2187TIP3   OH228119   0.247   6.394   0.790 -0.1132  0.1666 -0.1314
 2187TIP3    H128120   0.283   6.453   0.856 -0.4693  0.5608 -0.2873
 2187TIP3    H228121   0.197   6.451   0.731 -1.1987 -0.3974  0.2147
 2188TIP3   OH228122   4.395   0.631   2.049 -0.2618 -0.3562  0.1745
 2188TIP3    H128123   4.395   0.715   2.095  0.1666  0.1191 -0.6781
 2188TIP3    H228124   4.320   0.636   1.990 -0.6723 -0.8729  0.6373
 2189TIP3   OH228125   6.117   4.565   8.098 -0.2510 -0.1401 -0.4580
 2189TIP3    H128126   6.067   4.646   8.103 -0.5314 -0.0776 -3.0882
 2189TIP3    H228127   6.197   4.590   8.052  0.7298 -0.9332  0.7437
 2190TIP3   OH228128   3.526   4.528   0.919 -0.0922  0.9099  0.2535
 2190TIP3    H128129   3.609   4.567   0.947 -0.2777  2.0574 -0.6883
 2190TIP3    H228130   3.551   4.445   0.878  0.3645  0.2302  1.8439
 2191TIP3   OH228131   6.634   0.384   1.094  0.0733 -0.2574  0.2566
 2191TIP3    H128132   6.664   0.469   1.126  2.1599 -0.7232 -0.3128
 2191TIP3    H228133   6.540   0.397   1.078  0.3947  2.0529 -0.1804
 2192TIP3   OH228134   4.327   5.716   1.491  0.3065 -0.3235 -0.1501
 2192TIP3    H128135   4.350   5.626   1.515 -1.8061 -0.7065  0.7144
 2192TIP3    H228136   4.261   5.706   1.422  2.8637  0.7023 -2.9495
 2193TIP3   OH228137   4.673   0.024   1.513 -0.2736  0.0970  0.3952
 2193TIP3    H128138   4.676  -0.024   1.431 -1.5043  1.6162 -0.6006
 2193TIP3    H228139   4.664  -0.043   1.580  0.2106 -1.1516 -0.7352
 2194TIP3   OH228140   1.029   6.628   0.759 -0.1324  0.5101  0.0015
 2194TIP3    H128141   1.122   6.604   0.755 -0.2969  0.0164 -1.6245
 2194TIP3    H228142   0.988   6.559   0.812  0.4844  0.9926  1.1370
 2195TIP3   OH228143   1.247   1.276   2.284  0.5200 -0.2810  0.1078
 2195TIP3    H128144   1.195   1.326   2.347  0.1646 -2.5498  1.7642
 2195TIP3    H228145   1.319   1.240   2.336  0.8998 -1.2452 -1.0400
 2196TIP3   OH228146   4.937   0.975   0.312  0.2738  0.9012  0.4217
 2196TIP3    H128147   4.969   0.895   0.270 -0.9612 -0.5699  2.1103
 2196TIP3    H228148   4.847   0.985   0.280 -0.0973  0.7218  1.3786
 2197TIP3   OH228149   1.954   3.277   7.724 -0.0684 -0.2439 -0.2312
 2197TIP3    H128150   1.992   3.220   7.656  0.5839  0.9963 -0.9411
 2197TIP3    H228151   1.868   3.238   7.742  0.9599 -2.3562  0.4534
 2198TIP3   OH228152   1.856   5.209   8.993 -0.2033  0.0669 -0.0317
 2198TIP3    H128153   1.939   5.173   9.026 -0.2567  1.6518  2.0143
 2198TIP3    H228154   1.796   5.203   9.067 -0.9065  2.0598 -0.3808
 2199TIP3   OH228155   4.893   1.781   7.738 -0.3644  0.2701  0.5727
 2199TIP3    H128156   4.903   1.825   7.653 -0.0671  0.7332  0.8429
 2199TIP3    H228157   4.837   1.706   7.720 -2.5686  1.8652  0.4812
 2200TIP3   OH228158   1.848   3.014   0.361  0.0587  0.3942  0.2131
 2200TIP3    H128159   1.886   2.936   0.321  1.2728  0.6797  0.7979
 2200TIP3    H228160   1.922   3.061   0.400 -0.8730  0.9734  1.3558
 2201TIP3   OH228161   2.914   0.382   7.940  0.5030  0.2776 -0.5068
 2201TIP3    H128162   2.846   0.338   7.889 -0.8451  1.3626  0.2876
 2201TIP3    H228163   2.935   0.460   7.890 -1.5215  1.8626  0.9218
 2202TIP3   OH228164   4.410   0.708   1.612 -0.4987 -0.1920 -0.2188
 2202TIP3    H128165   4.324   0.686   1.576 -1.6022  0.4819  1.8616
 2202TIP3    H228166   4.419   0.803   1.597  0.4232 -0.4293 -1.4031
 2203TIP3   OH228167   1.107   6.316   0.559 -0.7201 -0.5576 -0.4269
 2203TIP3    H128168   1.170   6.257   0.518 -0.3147  0.0519 -0.6920
 2203TIP3    H228169   1.157   6.395   0.578 -0.8117 -0.9119  1.5112
 2204TIP3   OH228170   3.617   0.917   8.473  0.7525  0.1140 -0.1179
 2204TIP3    H128171   3.591   0.905   8.381  0.9100 -1.3873 -0.0026
 2204TIP3    H228172   3.682   0.987   8.471 -0.1933  0.9963 -0.9683
 2205TIP3   OH228173   3.606   5.110   8.998 -1.0098 -0.1804  0.3516
 2205TIP3    H128174   3.664   5.055   9.051 -0.6279  1.1878  1.4447
 2205TIP3    H228175   3.619   5.080   8.909  0.7887 -0.4872  0.6675
 2206TIP3   OH228176   1.297   2.165   8.368  0.0655  0.2750  0.1179
 2206TIP3    H128177   1.268   2.164   8.276  1.8500  1.3195 -0.5203
 2206TIP3    H228178   1.369   2.103   8.371 -0.3279 -0.1457  0.9528
 2207TIP3   OH228179   1.310   2.371   7.760  0.5381  0.4608  0.8796
 2207TIP3    H128180   1.356   2.393   7.679  2.3801  0.5464  1.9156
 2207TIP3    H228181   1.220   2.402   7.745  1.3603  2.4284 -0.3085
 2208TIP3   OH228182   1.046   3.402   1.325 -0.7409 -0.5567 -0.3689
 2208TIP3    H128183   1.010   3.428   1.410 -0.9532 -0.8542 -0.3655
 2208TIP3    H228184   0.982   3.435   1.261  1.8469  4.3087 -0.8539
 2209TIP3   OH228185   3.076   0.364   0.270  0.2022  0.1924  0.0937
 2209TIP3    H128186   3.049   0.396   0.184  0.6698  3.4369  1.0314
 2209TIP3    H228187   3.172   0.363   0.266  0.2153 -0.1519  0.4278
 2210TIP3   OH228188   5.987   1.226   0.025 -0.2416 -1.0852 -0.4749
 2210TIP3    H128189   5.944   1.169  -0.038 -0.0461 -0.4722 -1.1781
 2210TIP3    H228190   5.995   1.173   0.104 -0.6673 -1.7984 -0.9014
 2211TIP3   OH228191   0.683   2.278   8.871 -0.0056 -0.5170 -0.3453
 2211TIP3    H128192   0.621   2.205   8.869  1.3540 -1.7029 -1.0879
 2211TIP3    H228193   0.751   2.251   8.931  1.5949 -0.8380 -2.1983
 2212TIP3   OH228194   5.717   2.942   2.128 -0.3443 -0.3303  0.4958
 2212TIP3    H128195   5.776   2.989   2.069 -0.2380 -2.0156 -0.8256
 2212TIP3    H228196   5.763   2.940   2.212  1.6957 -1.9004 -0.5848
 2213TIP3   OH228197   1.513   0.028   8.756  0.6310 -0.0728  1.2288
 2213TIP3    H128198   1.507  -0.062   8.725  0.1666  0.2186  0.4394
 2213TIP3    H228199   1.423   0.062   8.747  1.0171  0.7958  0.4848
 2214TIP3   OH228200   2.162   5.750   0.136  0.1371  0.4849 -0.2124
 2214TIP3    H128201   2.189   5.798   0.058  0.7326 -0.1629 -0.4123
 2214TIP3    H228202   2.236   5.692   0.156 -1.1356 -1.4681 -0.8785
 2215TIP3   OH228203   0.835   0.735   8.336  0.2876  0.4192 -0.4233
 2215TIP3    H128204   0.897   0.808   8.339  1.3564 -0.4762  0.0430
 2215TIP3    H228205   0.784   0.750   8.256 -2.0399  3.6243  1.3988
 2216TIP3   OH228206   2.283   4.636   8.676 -0.5061 -0.3727  0.1125
 2216TIP3    H128207   2.261   4.627   8.769  1.0410 -1.4396  0.4122
 2216TIP3    H228208   2.310   4.548   8.649 -1.2375 -0.1596 -1.4583
 2217TIP3   OH228209   3.671   5.226   0.079  0.3057 -0.1270 -0.6168
 2217TIP3    H128210   3.685   5.174   0.158 -4.0225 -2.4706 -1.0786
 2217TIP3    H228211   3.697   5.168   0.007 -0.1512  0.1468 -1.0129
 2218TIP3   OH228212   3.738   2.788   8.600 -0.9169  0.0278 -0.8218
 2218TIP3    H128213   3.664   2.756   8.549 -1.1193  0.0790 -0.5574
 2218TIP3    H228214   3.783   2.709   8.631 -0.7591 -0.0049 -1.1237
 2219TIP3   OH228215   0.660   4.086   0.149 -0.1493 -0.4900 -0.3279
 2219TIP3    H128216   0.632   4.016   0.209  1.3190 -0.0807  0.8982
 2219TIP3    H228217   0.663   4.164   0.204  2.3130 -0.3069 -0.6075
 2220TIP3   OH228218   0.589   1.236   1.571 -0.0038 -0.1418  0.3319
 2220TIP3    H128219   0.500   1.206   1.588 -0.2447  0.8359  0.8901
 2220TIP3    H228220   0.597   1.237   1.476 -0.9621  0.7675  0.2373
 2221TIP3   OH228221   3.094   2.958   7.817 -0.7352 -0.0413 -0.0662
 2221TIP3    H128222   3.039   2.911   7.754 -0.2623  0.1716 -0.6356
 2221TIP3    H228223   3.158   2.893   7.846  1.4287  0.7913 -2.6044
 2222TIP3   OH228224   0.083   0.761   1.564  0.1081  0.0520  0.1102
 2222TIP3    H128225   0.172   0.727   1.572  0.4806  0.6303 -1.2599
 2222TIP3    H228226   0.088   0.849   1.602 -0.4491 -0.6955  2.0722
 2223TIP3   OH228227   4.148   4.523   2.489  0.7888  0.5134  0.1260
 2223TIP3    H128228   4.242   4.510   2.506  0.7859 -0.7002 -0.6200
 2223TIP3    H228229   4.109   4.437   2.506  0.0391  0.6091 -0.9885
 2224TIP3   OH228230   0.148   1.580   0.945  0.5224  0.3810 -0.8723
 2224TIP3    H128231   0.060   1.617   0.953  0.4364 -0.0202  0.2167
 2224TIP3    H228232   0.144   1.498   0.995  1.4030  0.1570 -1.1519
 2225TIP3   OH228233   1.721   4.439   2.184  0.4106 -0.1358 -0.0832
 2225TIP3    H128234   1.674   4.490   2.250  2.4185  0.1340  1.2358
 2225TIP3    H228235   1.806   4.483   2.176  0.4221 -0.4808 -2.5004
 2226TIP3   OH228236   1.779   4.783   1.977  0.6079  0.0452  0.3979
 2226TIP3    H128237   1.837   4.710   1.955 -1.3152 -1.3944 -0.1108
 2226TIP3    H228238   1.782   4.840   1.900 -0.5163 -1.2966 -0.6951
 2227TIP3   OH228239   0.824   0.983   1.302  0.0030 -0.0088  0.4633
 2227TIP3    H128240   0.869   0.953   1.223 -1.0432 -0.8554  0.1541
 2227TIP3    H228241   0.886   0.966   1.372 -0.2686 -2.3991  0.2175
 2228TIP3   OH228242   2.916   4.696   0.808 -0.0218  0.5759 -0.1130
 2228TIP3    H128243   2.884   4.693   0.898  1.5478 -0.0115  0.4710
 2228TIP3    H228244   2.889   4.612   0.771  0.5507  0.1943  0.2955
 2229TIP3   OH228245   5.077   1.866   1.043  0.1273 -0.4749 -0.3461
 2229TIP3    H128246   5.041   1.782   1.016 -2.0104 -0.1484  1.2799
 2229TIP3    H228247   5.010   1.904   1.100  1.6264  1.7263  0.0612
 2230TIP3   OH228248   6.246   5.783   9.154  0.1772  0.6362 -0.3006
 2230TIP3    H128249   6.205   5.698   9.173  0.6815  0.6527  0.9986
 2230TIP3    H228250   6.191   5.822   9.085 -0.4748 -0.4306 -0.4092
 2231TIP3   OH228251   4.075   5.757   2.685 -0.3547  0.2685  0.1633
 2231TIP3    H128252   4.071   5.804   2.768  0.0899 -0.0392  0.3639
 2231TIP3    H228253   4.140   5.688   2.700  0.6439  0.9553 -0.8082
 2232TIP3   OH228254   0.213   2.764   8.156 -0.7199  0.1641  0.4244
 2232TIP3    H128255   0.294   2.735   8.115  0.3130  0.5578  2.0635
 2232TIP3    H228256   0.145   2.747   8.091  0.7459  0.4466 -1.2705
 2233TIP3   OH228257   3.672   1.191   9.195 -0.3193 -0.5510 -0.0361
 2233TIP3    H128258   3.655   1.101   9.221 -3.7078 -0.2483 -0.7683
 2233TIP3    H228259   3.645   1.196   9.103 -1.4042  1.4480  0.3218
 2234TIP3   OH228260   6.229   0.835   8.756 -0.3717 -0.4553  0.6990
 2234TIP3    H128261   6.219   0.789   8.673  0.3733  2.4302 -1.1524
 2234TIP3    H228262   6.141   0.869   8.776  0.1730  2.7160 -1.5230
 2235TIP3   OH228263   5.630   4.623   1.872 -0.1095 -0.4971  0.0982
 2235TIP3    H128264   5.710   4.625   1.925 -0.0188  2.2432 -0.0012
 2235TIP3    H228265   5.585   4.704   1.893 -2.3285 -1.4412 -0.7236
 2236TIP3   OH228266   0.059   6.412   2.646  0.1127 -0.0536 -1.2176
 2236TIP3    H128267  -0.019   6.380   2.693 -0.4391  1.3956 -1.0784
 2236TIP3    H228268   0.094   6.335   2.602  0.0895 -1.2883  0.7861
 2237TIP3   OH228269   2.607   6.607   8.177  0.5495 -0.2806  0.5993
 2237TIP3    H128270   2.564   6.523   8.192 -1.1728  0.1979 -1.2355
 2237TIP3    H228271   2.615   6.614   8.082  4.5314 -0.1618  0.7522
 2238TIP3   OH228272   4.813   5.807   8.428 -0.4014 -0.0760 -0.1751
 2238TIP3    H128273   4.889   5.824   8.484 -0.1410 -0.9188 -0.2543
 2238TIP3    H228274   4.738   5.839   8.480  0.0476  1.3569 -0.3765
 2239TIP3   OH228275   1.049   2.296   8.712  0.3472  0.1187  0.0056
 2239TIP3    H128276   1.081   2.206   8.710 -1.4800 -0.6124  1.2102
 2239TIP3    H228277   1.034   2.318   8.620  0.3635 -0.9720 -0.2675
 2240TIP3   OH228278   4.808   0.689   2.710  0.0455  0.5131 -0.6782
 2240TIP3    H128279   4.876   0.726   2.767 -0.2239  0.6573 -0.4501
 2240TIP3    H228280   4.850   0.612   2.671 -0.7609 -1.5710  2.2332
 2241TIP3   OH228281   3.315   5.165   0.172 -0.0526  0.7360  0.4717
 2241TIP3    H128282   3.353   5.079   0.189  0.8018  0.8338 -0.7970
 2241TIP3    H228283   3.298   5.202   0.259  3.7402  1.1062  1.2415
 2242TIP3   OH228284   3.044   0.498   0.505  0.2170  0.0511 -0.5346
 2242TIP3    H128285   3.132   0.488   0.542 -0.6683 -1.4244  1.3407
 2242TIP3    H228286   3.051   0.461   0.417  1.3604 -0.5945 -0.1988
 2243TIP3   OH228287   6.410   0.116   2.752  0.2288  0.1955  0.1293
 2243TIP3    H128288   6.480   0.178   2.773 -2.5120  3.2047  1.2614
 2243TIP3    H228289   6.415   0.050   2.822  1.1913  1.0242  0.8716
 2244TIP3   OH228290   2.003   1.912   0.786  0.0217  0.0808 -0.3594
 2244TIP3    H128291   2.004   2.004   0.813 -0.2576  0.2902 -1.0464
 2244TIP3    H228292   1.949   1.910   0.707 -1.6746 -1.0020  0.7472
 2245TIP3   OH228293   0.261   4.647   8.360  0.3076  0.2054  0.8937
 2245TIP3    H128294   0.232   4.581   8.423 -0.1880  0.6135  1.0983
 2245TIP3    H228295   0.323   4.701   8.408  0.9296 -0.2831  0.6426
 2246TIP3   OH228296   4.680   1.955   7.387  0.2100 -0.1078  0.2836
 2246TIP3    H128297   4.733   2.030   7.360 -0.3983 -0.2625 -1.4369
 2246TIP3    H228298   4.745   1.889   7.413  0.7528  0.9244  1.7450
 2247TIP3   OH228299   3.239   5.832   7.877  0.2742 -0.1565 -0.1902
 2247TIP3    H128300   3.159   5.852   7.827 -0.0750 -0.1523  0.3685
 2247TIP3    H228301   3.216   5.853   7.967  1.4084  1.3691 -0.2150
 2248TIP3   OH228302   2.905   1.332   0.625 -0.8794 -0.0029  0.6015
 2248TIP3    H128303   2.859   1.337   0.541 -1.2381  1.1569  0.8421
 2248TIP3    H228304   2.997   1.320   0.601 -1.1729 -1.4353  0.0958
 2249TIP3   OH228305   6.164   3.814   1.880 -0.6244  0.3586 -0.7772
 2249TIP3    H128306   6.177   3.774   1.966 -0.8351  1.2925 -0.3017
 2249TIP3    H228307   6.113   3.748   1.831  1.8084 -1.3750 -1.1593
 2250TIP3   OH228308   0.248   2.473   3.283  0.2352 -0.1874  0.0026
 2250TIP3    H128309   0.221   2.408   3.218  1.6046 -1.6357  0.8234
 2250TIP3    H228310   0.325   2.435   3.325  0.2786  1.3769  1.4556
 2251TIP3   OH228311   4.773   2.310   3.189 -0.4939 -0.3991  0.4005
 2251TIP3    H128312   4.766   2.405   3.180 -1.4110 -0.1674  2.7916
 2251TIP3    H228313   4.687   2.277   3.164 -0.4880 -0.4990  0.5106
 2252TIP3   OH228314   0.444   0.861   8.983 -0.3105 -0.3933 -0.3210
 2252TIP3    H128315   0.408   0.888   8.898 -1.0232  0.1405  0.1292
 2252TIP3    H228316   0.482   0.942   9.019  0.4024 -0.7208 -0.3275
 2253TIP3   OH228317   4.470   5.240   1.363 -0.1798 -0.1759 -0.3713
 2253TIP3    H128318   4.481   5.155   1.405  0.5209  0.6539  1.2032
 2253TIP3    H228319   4.540   5.242   1.297  2.2331  0.5358  2.0003
 2254TIP3   OH228320   3.235   0.795   0.973  0.0809  0.1157  0.1546
 2254TIP3    H128321   3.199   0.708   0.956 -0.4447  0.0403  1.4975
 2254TIP3    H228322   3.214   0.846   0.895  1.1381 -1.1628 -1.0208
 2255TIP3   OH228323   1.852   2.634   8.848 -0.3012 -0.7167  1.2374
 2255TIP3    H128324   1.793   2.665   8.780  1.5891 -0.1594 -0.2668
 2255TIP3    H228325   1.888   2.714   8.888  1.7562 -0.9075 -0.0710
 2256TIP3   OH228326   5.883   4.911   9.159  0.3744  0.3573  0.7421
 2256TIP3    H128327   5.927   4.996   9.165 -0.8608  1.0079  0.8561
 2256TIP3    H228328   5.928   4.866   9.087  1.4538  0.8503  1.0874
 2257TIP3   OH228329   1.256   4.962   1.150 -0.2784  0.2573  0.1526
 2257TIP3    H128330   1.180   5.011   1.180 -0.1532  0.4515  0.1539
 2257TIP3    H228331   1.288   5.012   1.075  1.9030  2.1147  2.1778
 2258TIP3   OH228332   3.854   0.709   9.266  0.0385 -0.4826 -0.3172
 2258TIP3    H128333   3.950   0.707   9.268  0.1078  0.6599  2.6193
 2258TIP3    H228334   3.827   0.655   9.340 -1.6383 -1.1463 -1.3606
 2259TIP3   OH228335   5.153   3.946   1.997  0.2647 -0.4916 -0.0488
 2259TIP3    H128336   5.195   4.031   1.984 -0.2615 -0.5235 -2.4759
 2259TIP3    H228337   5.225   3.887   2.021  0.9579  0.2556 -0.2395
 2260TIP3   OH228338   1.479   0.524   2.722 -0.8408 -0.1636 -0.1125
 2260TIP3    H128339   1.451   0.445   2.769  0.1152 -0.4893 -0.0786
 2260TIP3    H228340   1.399   0.557   2.682 -1.7462  0.2398  1.8889
 2261TIP3   OH228341   6.354   2.934   8.642  0.3220 -0.4702  0.1037
 2261TIP3    H128342   6.308   2.887   8.573  2.0529 -1.2924 -0.5604
 2261TIP3    H228343   6.313   3.020   8.644  0.3672 -0.3303 -2.1502
 2262TIP3   OH228344   3.381   0.030   9.127  0.3541  0.7557  0.0078
 2262TIP3    H128345   3.332  -0.048   9.153 -0.3613  1.5565  1.2127
 2262TIP3    H228346   3.458   0.030   9.183  0.4933  0.7697 -0.1835
 2263TIP3   OH228347   3.503   1.852   0.670 -0.3943  0.0142 -0.2323
 2263TIP3    H128348   3.444   1.787   0.633 -1.8946  0.9998  0.3699
 2263TIP3    H228349   3.521   1.821   0.758  0.0091 -0.2893 -0.4181
 2264TIP3   OH228350   3.974   5.411   0.376  0.1369 -0.7708 -0.2461
 2264TIP3    H128351   3.941   5.329   0.413  0.2285 -1.1407 -0.9760
 2264TIP3    H228352   3.967   5.400   0.282 -0.5091  0.3336 -0.3541
 2265TIP3   OH228353   0.343   1.113   8.548 -0.4633  0.1157  0.6733
 2265TIP3    H128354   0.341   1.209   8.548 -0.2271  0.1207  0.7314
 2265TIP3    H228355   0.294   1.088   8.469  1.3696  0.3262 -0.5979
 2266TIP3   OH228356   5.526   2.568   2.115  0.2340  0.2748 -0.2052
 2266TIP3    H128357   5.431   2.575   2.118  0.2125  0.0913 -0.4911
 2266TIP3    H228358   5.550   2.536   2.202 -0.0891 -1.1375 -0.6029
 2267TIP3   OH228359   4.927   4.556   1.129  0.3305 -0.2469  0.0837
 2267TIP3    H128360   4.857   4.503   1.166 -0.0337 -0.6135 -1.0732
 2267TIP3    H228361   4.998   4.493   1.113 -0.4139 -0.6259 -2.0988
 2268TIP3   OH228362   6.077   1.687   8.215  1.0902 -0.0048  0.3481
 2268TIP3    H128363   5.987   1.668   8.186  2.0065 -0.9765 -2.0930
 2268TIP3    H228364   6.080   1.652   8.304 -1.3835  1.5035  1.1301
 2269TIP3   OH228365   0.391   0.265   1.114  1.1688 -0.5020 -0.2241
 2269TIP3    H128366   0.371   0.213   1.192 -0.7298 -1.1448 -1.0705
 2269TIP3    H228367   0.469   0.225   1.077  1.1289 -1.2233  0.4517
 2270TIP3   OH228368   1.502   2.076   0.245  0.4637  0.6572 -0.2081
 2270TIP3    H128369   1.410   2.075   0.269  0.9042 -0.7139  1.6291
 2270TIP3    H228370   1.506   2.032   0.161 -0.2200 -2.8245  1.4035
 2271TIP3   OH228371   2.299   1.293   1.327  0.1819 -0.2727 -0.1464
 2271TIP3    H128372   2.290   1.198   1.336  1.6972 -0.4636 -0.3145
 2271TIP3    H228373   2.303   1.308   1.233  2.1573 -0.3386 -0.1258
 2272TIP3   OH228374   4.413   1.939   8.510  0.0561 -0.7723  0.0544
 2272TIP3    H128375   4.356   1.919   8.585  1.0054 -0.6369  0.8266
 2272TIP3    H228376   4.352   1.957   8.438 -0.9289  0.6756  1.1891
 2273TIP3   OH228377   2.421   2.129   1.950  0.1061  0.2766 -0.3842
 2273TIP3    H128378   2.432   2.053   1.893 -0.3711 -0.1423  0.0643
 2273TIP3    H228379   2.392   2.199   1.892 -2.5532 -0.7114 -0.3954
 2274TIP3   OH228380   5.567   5.096   1.473 -0.4599  0.0545  0.0417
 2274TIP3    H128381   5.574   5.133   1.561  0.7967 -1.5064  0.6305
 2274TIP3    H228382   5.542   5.171   1.418 -0.6585  1.1809  1.6036
 2275TIP3   OH228383   3.639   3.260   1.346 -0.2870  0.0460 -0.6176
 2275TIP3    H128384   3.571   3.226   1.288  0.3771  0.5765 -1.7457
 2275TIP3    H228385   3.671   3.338   1.302  2.4985 -1.3252 -1.1867
 2276TIP3   OH228386   5.850   3.579   0.277  0.1887 -0.2757  0.1064
 2276TIP3    H128387   5.943   3.556   0.284  0.1684 -0.3917  0.0102
 2276TIP3    H228388   5.840   3.608   0.187 -0.5344 -3.4029 -0.9531
 2277TIP3   OH228389   6.105   0.372   3.160 -0.3101  0.2074  0.0211
 2277TIP3    H128390   6.155   0.310   3.108 -0.1181  1.2167 -1.0339
 2277TIP3    H228391   6.081   0.324   3.239 -0.0424 -1.1498 -0.7031
 2278TIP3   OH228392   2.255   3.412   0.773 -0.3816 -0.2214  0.2806
 2278TIP3    H128393   2.260   3.393   0.867 -1.3735 -0.8658  0.2131
 2278TIP3    H228394   2.199   3.343   0.737  2.3958 -1.7768 -1.3178
 2279TIP3   OH228395   4.519   0.086   7.442 -0.3227  0.0364  0.5313
 2279TIP3    H128396   4.590   0.132   7.398  1.7959 -4.2324 -1.1003
 2279TIP3    H228397   4.554   0.063   7.528 -1.5215  1.6625  1.5091
 2280TIP3   OH228398   6.129   1.125   8.792 -0.3076  0.3635 -0.0359
 2280TIP3    H128399   6.042   1.151   8.824  0.1132  1.4914  0.2441
 2280TIP3    H228400   6.188   1.148   8.863  0.2762 -0.0371 -0.3861
 2281TIP3   OH228401   3.494   6.472   1.958 -0.0329 -0.6628  0.0985
 2281TIP3    H128402   3.413   6.521   1.952  0.8485  0.8279 -0.1574
 2281TIP3    H228403   3.484   6.399   1.896 -0.7839  0.0666 -0.6450
 2282TIP3   OH228404   0.317   0.327   8.277  0.3260  0.1239 -0.1311
 2282TIP3    H128405   0.297   0.243   8.236  1.0429  0.8222 -2.0092
 2282TIP3    H228406   0.232   0.367   8.292 -0.0410 -1.0670  1.1274
 2283TIP3   OH228407   1.482   5.672   0.870  0.1749 -0.4604  0.0954
 2283TIP3    H128408   1.550   5.661   0.937 -0.2243  0.7348  0.7205
 2283TIP3    H228409   1.413   5.723   0.913  0.1132  0.7631 -1.3393
 2284TIP3   OH228410   3.646   2.093   8.208 -0.2814 -0.3937  0.6098
 2284TIP3    H128411   3.737   2.071   8.228 -0.3751  0.6254  2.4247
 2284TIP3    H228412   3.596   2.016   8.234 -0.1004 -0.1771  1.6574
 2285TIP3   OH228413   5.824   3.417   0.485  0.0070 -0.3222  0.5236
 2285TIP3    H128414   5.834   3.327   0.456  1.2796 -0.7004  2.0184
 2285TIP3    H228415   5.803   3.466   0.406 -0.0516 -1.8265 -0.4130
 2286TIP3   OH228416   4.721   4.175   2.205 -0.1710 -0.4892 -0.0218
 2286TIP3    H128417   4.757   4.089   2.226 -0.0992 -0.5566 -0.3970
 2286TIP3    H228418   4.779   4.237   2.249 -0.8767 -0.6631  1.1673
 2287TIP3   OH228419   4.100   4.906   2.032 -0.5788 -0.1384 -0.0648
 2287TIP3    H128420   4.147   4.988   2.047 -0.8643  0.2997 -1.4575
 2287TIP3    H228421   4.111   4.856   2.113  1.1125  0.5256  0.1327
 2288TIP3   OH228422   0.775   3.907   7.953  0.0064 -0.0116  0.2900
 2288TIP3    H128423   0.763   3.937   7.863  0.4972  0.1901  0.2862
 2288TIP3    H228424   0.696   3.935   7.999 -0.5758 -0.7525 -0.2386
 2289TIP3   OH228425   4.864   6.519   1.926  0.4866  0.0394  0.0222
 2289TIP3    H128426   4.879   6.425   1.913  1.1543  0.0239  0.8124
 2289TIP3    H228427   4.943   6.550   1.971 -0.0057  0.8546  0.3492
 2290TIP3   OH228428   1.817   3.505   9.233  0.2272  0.1173 -0.0722
 2290TIP3    H128429   1.847   3.420   9.199 -0.1196  0.9172 -2.5281
 2290TIP3    H228430   1.725   3.491   9.254  0.4506 -0.3894  0.6302
 2291TIP3   OH228431   5.152   5.748   0.704 -0.4216  0.6077 -0.1272
 2291TIP3    H128432   5.145   5.828   0.653  0.9624  0.1691 -1.0211
 2291TIP3    H228433   5.103   5.682   0.654 -0.0625  0.4677 -0.2985
 2292TIP3   OH228434   3.809   6.471   1.533 -0.1091 -0.1447  0.1174
 2292TIP3    H128435   3.862   6.549   1.552 -1.4303  1.9600 -3.6234
 2292TIP3    H228436   3.863   6.420   1.473 -0.5816 -0.3039 -0.1761
 2293TIP3   OH228437   1.553   3.907   8.690 -0.6747 -0.4176 -0.3731
 2293TIP3    H128438   1.608   3.955   8.628 -0.5036 -2.2960 -1.7796
 2293TIP3    H228439   1.591   3.927   8.776 -0.5276  1.7479 -0.8915
 2294TIP3   OH228440   5.730   0.829   0.190 -0.2829 -0.4310  0.6462
 2294TIP3    H128441   5.823   0.852   0.192 -0.7128  1.7347 -0.8401
 2294TIP3    H228442   5.714   0.797   0.101 -1.0203 -0.5956  0.8233
 2295TIP3   OH228443   4.004   1.669   3.201  0.4433  0.5299  0.2296
 2295TIP3    H128444   3.949   1.699   3.274 -1.7546  0.5214 -1.3167
 2295TIP3    H228445   4.001   1.741   3.138 -0.3735 -0.7095 -1.1959
 2296TIP3   OH228446   3.728   0.432   0.047 -1.0024  0.6729  0.0792
 2296TIP3    H128447   3.712   0.434   0.141 -1.1420 -1.6510  0.1694
 2296TIP3    H228448   3.793   0.362   0.036 -0.2198  1.6000 -1.4686
 2297TIP3   OH228449   0.911   4.800   0.698 -0.4388 -0.2109  0.6558
 2297TIP3    H128450   0.948   4.733   0.756  0.5367  1.1831  1.6999
 2297TIP3    H228451   0.987   4.835   0.651 -0.6030  1.5055  1.5822
 2298TIP3   OH228452   4.932   6.388   0.492  0.4052  0.9217 -0.3055
 2298TIP3    H128453   4.927   6.437   0.574  0.0324 -0.6749  0.6624
 2298TIP3    H228454   4.855   6.417   0.443  0.0574  1.1289  0.3480
 2299TIP3   OH228455   3.701   0.408   1.911  0.2603 -0.3757  0.2358
 2299TIP3    H128456   3.672   0.338   1.852 -1.5627  0.1128  0.5162
 2299TIP3    H228457   3.647   0.397   1.989  1.0617  0.3885  0.9139
 2300TIP3   OH228458   6.271   1.626   7.610  0.3418 -0.1182 -0.0289
 2300TIP3    H128459   6.183   1.591   7.599  0.1425  0.2469  0.3927
 2300TIP3    H228460   6.292   1.667   7.526  0.3730 -0.7831 -0.3523
 2301TIP3   OH228461   5.292   3.050   3.297  0.6466 -0.0138 -0.0020
 2301TIP3    H128462   5.349   3.030   3.372  1.4460 -1.5010 -0.9604
 2301TIP3    H228463   5.214   2.996   3.311  1.6636 -1.8978 -1.2239
 2302TIP3   OH228464   3.382   4.006   9.010 -0.7820 -0.0505  0.5492
 2302TIP3    H128465   3.375   4.067   9.083 -2.7390 -0.1472  0.5126
 2302TIP3    H228466   3.302   3.954   9.015 -1.2327  0.2633 -1.9203
 2303TIP3   OH228467   3.093   4.960   2.467  0.3314 -0.0333 -0.1507
 2303TIP3    H128468   3.155   5.014   2.417 -0.7133  2.0179  0.6472
 2303TIP3    H228469   3.007   4.990   2.439 -0.3126 -1.4197  0.2371
 2304TIP3   OH228470   6.239   2.514   1.973 -0.2278 -0.4016  0.1789
 2304TIP3    H128471   6.156   2.481   1.940 -1.3630  2.2145  0.1742
 2304TIP3    H228472   6.304   2.479   1.912 -1.5856 -0.5939 -1.2283
 2305TIP3   OH228473   0.706   1.080   1.823 -0.1435  0.5859  0.3864
 2305TIP3    H128474   0.695   1.113   1.734 -0.4224 -0.7441 -0.0840
 2305TIP3    H228475   0.622   1.095   1.865 -0.3707  0.1634  0.0778
 2306TIP3   OH228476   4.729   3.898   3.190  0.0626 -0.1886  0.4960
 2306TIP3    H128477   4.750   3.937   3.275 -0.9471  1.1201  0.1853
 2306TIP3    H228478   4.785   3.821   3.184 -0.8755 -1.1863  2.9995
 2307TIP3   OH228479   1.467   3.937   2.370  0.6566 -0.0827 -0.0679
 2307TIP3    H128480   1.388   3.974   2.333  1.6171  0.6818 -1.4474
 2307TIP3    H228481   1.485   3.858   2.318  1.6812  0.6670 -0.9085
 2308TIP3   OH228482   0.879   4.964   3.026  0.0792  0.0119 -0.1753
 2308TIP3    H128483   0.839   4.915   2.955  1.2251 -1.5511  0.2091
 2308TIP3    H228484   0.854   4.916   3.105  3.4100 -1.6401  0.0141
 2309TIP3   OH228485   1.996   1.126   2.104  0.0182 -0.5788  0.4694
 2309TIP3    H128486   2.050   1.198   2.072 -1.2799 -0.6089 -2.0324
 2309TIP3    H228487   1.990   1.141   2.198  0.7932  1.8810  0.2115
 2310TIP3   OH228488   3.351   0.841   9.021  0.2975  0.4103  0.1221
 2310TIP3    H128489   3.387   0.928   9.037  1.2859 -0.2408  1.7961
 2310TIP3    H228490   3.402   0.783   9.078 -0.3952 -1.2598 -0.8644
 2311TIP3   OH228491   0.656   6.471   8.659 -0.3062  0.0636  0.2739
 2311TIP3    H128492   0.629   6.477   8.568 -1.0469 -0.5725  0.4368
 2311TIP3    H228493   0.747   6.442   8.656 -0.8073 -1.5910 -0.2567
 2312TIP3   OH228494   1.053   4.616   0.835  0.3254 -0.2323  0.0770
 2312TIP3    H128495   1.078   4.523   0.834 -0.3720 -0.4230 -0.7004
 2312TIP3    H228496   1.131   4.661   0.802  1.4008 -0.3131  2.3145
 2313TIP3   OH228497   5.320   3.419   2.954  0.1918  0.4336 -0.2049
 2313TIP3    H128498   5.304   3.499   2.904 -0.1198  1.6225  1.6828
 2313TIP3    H228499   5.414   3.404   2.945  0.0916  0.4375 -1.3784
 2314TIP3   OH228500   4.919   3.056   3.187  0.3755  0.4650  0.4306
 2314TIP3    H128501   4.847   3.106   3.226  0.4593  1.5300 -0.7389
 2314TIP3    H228502   4.878   2.977   3.153 -0.1987  0.9366  0.0188
 2315TIP3   OH228503   4.274   5.709   0.710  0.2685  0.1332  0.0927
 2315TIP3    H128504   4.323   5.686   0.631 -0.2804 -1.2493  0.1257
 2315TIP3    H228505   4.189   5.667   0.699  0.4350 -0.7209  1.7288
 2316TIP3   OH228506   4.670   0.314   7.674  0.5134  0.8832  0.5040
 2316TIP3    H128507   4.649   0.221   7.667  3.2967  0.2936 -1.8065
 2316TIP3    H228508   4.584   0.357   7.679 -0.9330 -1.6620 -0.4890
 2317TIP3   OH228509   6.119   6.262   0.854 -0.0372 -0.1078 -0.5529
 2317TIP3    H128510   6.163   6.280   0.771  1.6906  0.7792  0.5049
 2317TIP3    H228511   6.026   6.276   0.835  0.3714  0.6601 -2.1919
 2318TIP3   OH228512   4.764   4.065   8.324 -0.1530  0.3225 -0.4550
 2318TIP3    H128513   4.732   4.046   8.412  1.5374  0.0303  0.1479
 2318TIP3    H228514   4.785   3.980   8.286 -1.2483  0.4162 -1.3193
 2319TIP3   OH228515   3.877   0.083   0.832 -0.2579  0.3647  0.3810
 2319TIP3    H128516   3.838   0.109   0.748 -0.9538  1.2348  0.9509
 2319TIP3    H228517   3.908   0.165   0.870  0.5257 -0.0962  0.7437
 2320TIP3   OH228518   5.729   6.546   0.713  0.0722 -0.0004 -0.3149
 2320TIP3    H128519   5.720   6.612   0.782 -1.3040 -0.3659 -0.1190
 2320TIP3    H228520   5.710   6.593   0.632  0.1007  0.0727 -0.2795
 2321TIP3   OH228521   3.261   2.767   7.329 -1.0968  0.0655  0.2926
 2321TIP3    H128522   3.318   2.691   7.323  0.5591  1.3023 -0.8195
 2321TIP3    H228523   3.193   2.753   7.263 -0.7603 -0.4110  0.0491
 2322TIP3   OH228524   0.787   0.538   1.217 -0.1631  0.0254  0.0519
 2322TIP3    H128525   0.735   0.483   1.276  1.6688 -1.6114  0.2268
 2322TIP3    H228526   0.874   0.500   1.219  0.1120  0.1452 -3.3972
 2323TIP3   OH228527   5.833   1.104   1.951  0.5085  0.4846 -0.3807
 2323TIP3    H128528   5.782   1.146   2.021 -0.9081 -1.4903 -0.1813
 2323TIP3    H228529   5.905   1.166   1.936 -1.6249  3.1844 -0.3891
 2324TIP3   OH228530   2.353   5.789   8.470 -0.0354  0.2467  0.6161
 2324TIP3    H128531   2.337   5.796   8.376 -0.4571 -0.7794  0.6047
 2324TIP3    H228532   2.430   5.844   8.485 -1.0226  1.9119 -0.0171
 2325TIP3   OH228533   5.388   2.752   2.403  0.0388  0.1853  0.8433
 2325TIP3    H128534   5.363   2.794   2.320  1.4984 -2.2251 -0.9295
 2325TIP3    H228535   5.306   2.715   2.436 -0.2489 -0.5642 -0.6191
 2326TIP3   OH228536   0.015   1.921   7.025  0.2890  0.3507 -0.1894
 2326TIP3    H128537   0.026   1.984   7.096 -0.1662 -2.1014  2.2192
 2326TIP3    H228538  -0.080   1.910   7.018  0.2511  1.4485 -2.1150
 2327TIP3   OH228539   2.386   3.311   8.532  0.7371  0.3569 -0.5013
 2327TIP3    H128540   2.341   3.324   8.615 -0.0836  1.4687 -1.0856
 2327TIP3    H228541   2.479   3.318   8.553  0.5629  0.0163  0.4110
 2328TIP3   OH228542   1.090   5.733   8.210 -0.0590 -0.2213 -0.0916
 2328TIP3    H128543   1.025   5.698   8.149 -0.2260  0.3709 -0.2628
 2328TIP3    H228544   1.073   5.827   8.211 -0.6374 -0.3032  1.5403
 2329TIP3   OH228545   5.963   6.032   0.646  0.0124 -0.1236 -0.0319
 2329TIP3    H128546   5.965   5.939   0.667 -0.3055  0.1232  1.2129
 2329TIP3    H228547   5.933   6.074   0.727 -0.1818  1.0296 -0.6768
 2330TIP3   OH228548   6.630   5.833   0.791 -0.2973  0.2482 -0.2500
 2330TIP3    H128549   6.631   5.926   0.815  2.1446  0.8986 -2.4217
 2330TIP3    H228550   6.560   5.827   0.726  0.2197  0.8388 -0.8816
 2331TIP3   OH228551   4.252   3.896   1.277  0.1269 -0.1202 -0.0927
 2331TIP3    H128552   4.197   3.823   1.247  0.0679 -1.2630  2.5025
 2331TIP3    H228553   4.305   3.859   1.348  1.0768  2.0427  0.4205
 2332TIP3   OH228554   4.852   0.123   2.831 -0.1172 -0.2770  0.2449
 2332TIP3    H128555   4.917   0.150   2.896  0.7177 -2.7192  0.5482
 2332TIP3    H228556   4.893   0.049   2.787 -2.4742 -1.5389  0.0274
 2333TIP3   OH228557   0.746   5.007   0.686  0.2300 -0.1391  0.3738
 2333TIP3    H128558   0.668   4.958   0.711  0.1572 -0.2221  0.0015
 2333TIP3    H228559   0.816   4.942   0.685  0.0835 -0.2953 -0.3679
 2334TIP3   OH228560   5.519   1.676   0.793 -0.1049  0.1498 -0.1492
 2334TIP3    H128561   5.528   1.623   0.713  1.1295 -0.2661  0.2415
 2334TIP3    H228562   5.425   1.690   0.802 -0.3000 -0.2543 -1.3870
 2335TIP3   OH228563   3.121   3.109   2.101 -0.0045  0.1009  0.4727
 2335TIP3    H128564   3.197   3.051   2.106 -1.0297 -1.3166  0.4014
 2335TIP3    H228565   3.146   3.177   2.039  0.6726 -1.1955 -0.7239
 2336TIP3   OH228566   4.858   4.429   8.576  0.1514  0.1085 -0.3201
 2336TIP3    H128567   4.815   4.466   8.499  0.9503 -0.0409 -0.8578
 2336TIP3    H228568   4.792   4.373   8.616 -0.0945 -0.2709 -1.2289
 2337TIP3   OH228569   5.098   3.317   1.995  0.3413  0.1637  0.1568
 2337TIP3    H128570   5.088   3.308   1.900 -0.9424 -1.3231  0.3764
 2337TIP3    H228571   5.067   3.405   2.014 -1.3601 -0.2177 -0.6135
 2338TIP3   OH228572   5.604   5.978   1.847  0.3448  0.0730  0.7814
 2338TIP3    H128573   5.611   5.919   1.772  0.6121  0.1347  0.7569
 2338TIP3    H228574   5.555   6.053   1.814  2.3615  1.1370  0.0162
 2339TIP3   OH228575   1.108   0.339   7.650 -0.5073 -0.3719 -0.0799
 2339TIP3    H128576   1.087   0.431   7.634 -0.4187 -0.6092 -1.8131
 2339TIP3    H228577   1.194   0.327   7.608 -1.0294 -1.4808 -0.8796
 2340TIP3   OH228578   2.232   3.262   0.173 -0.2173 -0.0633 -0.4898
 2340TIP3    H128579   2.155   3.307   0.210 -1.1755 -1.6625 -0.4343
 2340TIP3    H228580   2.299   3.330   0.166 -1.2829  1.1368  0.5126
 2341TIP3   OH228581   4.584   1.798   1.636 -0.3149 -0.0705  0.1258
 2341TIP3    H128582   4.645   1.797   1.562 -1.0465  0.7456 -0.5224
 2341TIP3    H228583   4.575   1.707   1.661  0.5017 -0.2895 -0.3323
 2342TIP3   OH228584   4.604   1.107   7.537 -0.0991 -0.1785 -0.3778
 2342TIP3    H128585   4.649   1.101   7.454 -0.1981 -1.1165 -0.3765
 2342TIP3    H228586   4.637   1.033   7.588 -0.6211 -0.0816  0.1182
 2343TIP3   OH228587   2.236   6.506   1.712 -0.3860  0.4999 -0.4452
 2343TIP3    H128588   2.213   6.418   1.741 -0.7301  0.5800 -0.4682
 2343TIP3    H228589   2.188   6.517   1.630 -1.7527  1.3510  0.4309
 2344TIP3   OH228590   4.294   4.779   2.720 -0.2141 -0.3647 -0.3303
 2344TIP3    H128591   4.220   4.780   2.659  1.0591 -0.4206 -1.9374
 2344TIP3    H228592   4.370   4.761   2.665  0.6662 -3.6083  1.6517
 2345TIP3   OH228593   0.863   5.072   0.118  0.4698 -0.0911 -0.0507
 2345TIP3    H128594   0.951   5.039   0.132 -0.2005 -3.0986 -1.9552
 2345TIP3    H228595   0.865   5.109   0.030 -0.2320 -0.5603 -0.2771
 2346TIP3   OH228596   2.672   6.175   0.418  0.8537  0.3610 -0.2264
 2346TIP3    H128597   2.625   6.251   0.451  2.5989  1.7520 -0.7862
 2346TIP3    H228598   2.604   6.118   0.383 -0.5375  1.4353  0.6295
 2347TIP3   OH228599   6.424   4.442   1.203 -0.4532 -0.1863 -0.0468
 2347TIP3    H128600   6.431   4.347   1.200 -0.6874 -0.2077  0.0269
 2347TIP3    H228601   6.499   4.471   1.254 -1.3855 -0.4657  1.5350
 2348TIP3   OH228602   1.663   6.145   8.418 -0.0766 -0.3328  0.2926
 2348TIP3    H128603   1.678   6.206   8.346  0.0041  0.7122  1.1765
 2348TIP3    H228604   1.747   6.140   8.464 -0.4930  0.0892  1.1264
 2349TIP3   OH228605   0.636   6.131   8.701 -0.0135  0.2313 -0.0174
 2349TIP3    H128606   0.668   6.063   8.760  0.5665  0.6349  0.1362
 2349TIP3    H228607   0.580   6.186   8.755 -0.2981  0.0167 -0.0887
 2350TIP3   OH228608   6.359   3.241   7.974  0.1946  0.4915 -0.4980
 2350TIP3    H128609   6.352   3.332   8.000 -0.8678  1.0094 -2.4248
 2350TIP3    H228610   6.285   3.226   7.915  0.6314 -1.4707 -0.6350
 2351TIP3   OH228611   1.428   0.010   7.745  0.1589 -0.2079  0.0129
 2351TIP3    H128612   1.348   0.013   7.693  0.3849  0.0535 -0.3183
 2351TIP3    H228613   1.426   0.092   7.796  0.4334  0.0086 -0.3208
 2352TIP3   OH228614   5.553   0.214   7.559 -0.3305  0.4540  0.3741
 2352TIP3    H128615   5.471   0.201   7.512 -0.1829 -0.1890  0.2871
 2352TIP3    H228616   5.532   0.280   7.626 -0.0779  2.9252 -1.7842
 2353TIP3   OH228617   0.956   0.410   9.112 -0.5008  0.2500 -0.3214
 2353TIP3    H128618   0.989   0.339   9.167 -0.2622 -1.0723 -2.0745
 2353TIP3    H228619   0.962   0.488   9.167  2.9687 -0.3726  0.4397
 2354TIP3   OH228620   4.911   0.512   0.432  0.4211  0.1809  0.2031
 2354TIP3    H128621   4.957   0.509   0.516 -0.2908 -0.0488  0.5911
 2354TIP3    H228622   4.950   0.442   0.381  2.4965  1.7452 -0.5443
 2355TIP3   OH228623   2.972   2.393   9.001 -0.0021 -0.4170  0.5627
 2355TIP3    H128624   2.957   2.304   8.971 -1.3448 -1.1816  3.1885
 2355TIP3    H228625   2.884   2.427   9.020  0.5585  1.1472  0.5391
 2356TIP3   OH228626   1.180   5.320   8.988 -0.0414  0.3619  0.1938
 2356TIP3    H128627   1.170   5.345   8.896 -0.4165 -1.3205 -0.2641
 2356TIP3    H228628   1.144   5.232   8.992 -0.1838  0.4764  2.0084
 2357TIP3   OH228629   0.734   1.132   8.161 -0.1124 -0.0636  0.4079
 2357TIP3    H128630   0.659   1.076   8.184  0.7412 -1.3103  0.2787
 2357TIP3    H228631   0.799   1.071   8.127  0.0007  1.2915 -2.0252
 2358TIP3   OH228632   1.815   4.639   9.250  0.3033 -0.1165 -0.0107
 2358TIP3    H128633   1.776   4.677   9.171  0.0954 -0.5829 -0.1387
 2358TIP3    H228634   1.754   4.664   9.320 -0.6643 -1.4867 -0.3246
 2359TIP3   OH228635   1.574   0.642   9.260 -0.5180 -0.0671 -0.3116
 2359TIP3    H128636   1.505   0.597   9.211 -0.5277 -0.3096 -0.0759
 2359TIP3    H228637   1.649   0.583   9.257 -0.5466 -0.1233  0.0416
 2360TIP3   OH228638   3.361   5.561   0.682 -0.5755 -0.0415 -0.2217
 2360TIP3    H128639   3.358   5.623   0.610 -0.3672 -1.7845 -1.7932
 2360TIP3    H228640   3.272   5.561   0.718 -0.3553  1.8202  0.4627
 2361TIP3   OH228641   4.409   5.102   2.601  0.6696  0.1996  0.1961
 2361TIP3    H128642   4.444   5.014   2.589 -1.1954 -0.5580  0.0401
 2361TIP3    H228643   4.341   5.111   2.535 -1.1578  0.6443  2.0382
 2362TIP3   OH228644   5.315   6.114   9.033 -0.5599  0.1159 -0.3834
 2362TIP3    H128645   5.222   6.138   9.038 -0.8052 -0.8795  0.1459
 2362TIP3    H228646   5.326   6.079   8.945 -0.8409 -0.3383 -0.2406
 2363TIP3   OH228647   1.940   5.368   3.224 -0.3973 -0.1673  0.2104
 2363TIP3    H128648   1.990   5.447   3.201  0.4127 -1.0956 -1.3925
 2363TIP3    H228649   1.878   5.398   3.290  1.3696  1.3177  1.2973
 2364TIP3   OH228650   5.647   4.057   8.542  0.0638  0.8027  0.2564
 2364TIP3    H128651   5.591   4.127   8.574  0.6928  0.9175  1.1466
 2364TIP3    H228652   5.612   4.036   8.456 -2.3441 -0.2508  1.4128
 2365TIP3   OH228653   6.483   2.922   0.654  0.3904  0.3662 -0.2618
 2365TIP3    H128654   6.414   2.959   0.599  0.4057  2.0758  0.7997
 2365TIP3    H228655   6.535   2.868   0.594 -0.5962  0.7761 -1.5339
 2366TIP3   OH228656   0.871   1.324   0.004  0.4310 -0.2811  0.3026
 2366TIP3    H128657   0.784   1.363  -0.004  0.3134 -0.7301 -0.7596
 2366TIP3    H228658   0.919   1.384   0.061 -0.5422  0.0081  0.8463
 2367TIP3   OH228659   2.785   5.787   0.488  0.1397 -0.0594  0.5549
 2367TIP3    H128660   2.806   5.868   0.535  0.2045  1.7199 -2.3058
 2367TIP3    H228661   2.870   5.742   0.479  0.3767  0.3437  0.7625
 2368TIP3   OH228662   1.626   4.514   1.887  0.3533  0.7652 -0.7301
 2368TIP3    H128663   1.660   4.575   1.953 -1.0746 -0.1807  0.9793
 2368TIP3    H228664   1.582   4.446   1.938  1.1447 -1.2583 -2.6017
 2369TIP3   OH228665   2.883   6.496   8.545 -0.1883 -0.5223  0.3755
 2369TIP3    H128666   2.878   6.535   8.632  1.7645 -0.2606  0.4164
 2369TIP3    H228667   2.967   6.450   8.544  0.1918  0.1147 -1.6176
 2370TIP3   OH228668   1.170   0.563   0.131  0.3098 -0.0590  0.5968
 2370TIP3    H128669   1.221   0.487   0.106  0.1000  0.2758 -0.8984
 2370TIP3    H228670   1.218   0.601   0.205  1.2233 -0.7694  0.3738
 2371TIP3   OH228671   4.936   1.347   1.342  0.1333 -0.0144 -0.5133
 2371TIP3    H128672   5.030   1.352   1.323 -0.0913  0.4607 -1.5642
 2371TIP3    H228673   4.902   1.285   1.277 -0.0875 -1.1505  0.6642
 2372TIP3   OH228674   4.439   1.103   8.121  0.2602  0.2462  0.4243
 2372TIP3    H128675   4.379   1.063   8.183 -0.7884 -0.0314 -0.7326
 2372TIP3    H228676   4.393   1.100   8.037  1.3451  1.2493 -0.2429
 2373TIP3   OH228677   6.291   2.697   0.011  0.4560  0.4185  0.1233
 2373TIP3    H128678   6.231   2.676  -0.061  0.7792 -1.3028  0.3062
 2373TIP3    H228679   6.359   2.630   0.005  1.2986  1.1543  1.1295
 2374TIP3   OH228680   4.533   4.962   7.956 -0.1226  0.0303 -0.6328
 2374TIP3    H128681   4.507   4.965   7.864 -0.6454  0.5475 -0.4721
 2374TIP3    H228682   4.549   5.053   7.980  2.2268 -0.2570 -0.8190
 2375TIP3   OH228683   2.472   4.035   1.498 -0.4168  0.2722 -0.1366
 2375TIP3    H128684   2.442   4.110   1.445  1.1033  1.0844  0.0860
 2375TIP3    H228685   2.445   3.958   1.448 -1.9932  0.9414 -0.3921
 2376TIP3   OH228686   4.925   5.264   9.139  0.3282  0.4319 -1.0076
 2376TIP3    H128687   4.830   5.254   9.148  0.4634 -1.0438 -1.0084
 2376TIP3    H228688   4.956   5.273   9.229  0.3312 -0.6303 -0.8952
 2377TIP3   OH228689   1.083   3.286   0.945  0.1808 -0.5156 -0.9246
 2377TIP3    H128690   1.033   3.214   0.984  0.6562 -1.0700 -1.3323
 2377TIP3    H228691   1.092   3.262   0.853 -0.5287  0.5580 -1.3007
 2378TIP3   OH228692   0.881   6.581   7.875  0.1127 -0.2538  0.0662
 2378TIP3    H128693   0.893   6.671   7.842 -0.8789  0.4378  1.5029
 2378TIP3    H228694   0.787   6.571   7.885  0.2042 -1.5347 -0.2287
 2379TIP3   OH228695   2.254   2.795   0.424  0.2318  0.6282 -0.2420
 2379TIP3    H128696   2.161   2.777   0.408  0.6607 -1.1917 -0.9635
 2379TIP3    H228697   2.281   2.849   0.350  0.3061 -1.0178 -1.4810
 2380TIP3   OH228698   1.966   0.582   7.590 -0.3191 -0.4422  0.2562
 2380TIP3    H128699   2.033   0.588   7.522 -0.7483 -0.3573 -0.1611
 2380TIP3    H228700   1.966   0.669   7.631  0.3288 -0.6654  0.7394
 2381TIP3   OH228701   0.582   1.119   3.083  0.3578 -0.8029 -0.3621
 2381TIP3    H128702   0.536   1.125   3.166 -0.3737 -1.4908 -0.7108
 2381TIP3    H228703   0.513   1.117   3.017  0.9291  1.3067 -1.1290
 2382TIP3   OH228704   2.632   5.993   2.006 -0.0202 -0.2767 -0.0068
 2382TIP3    H128705   2.558   5.946   2.044  0.3528  0.2682  1.4999
 2382TIP3    H228706   2.677   5.928   1.952  0.1426 -1.5158  1.5280
 2383TIP3   OH228707   6.059   3.412   2.227  0.2450  0.2578 -0.4479
 2383TIP3    H128708   6.151   3.434   2.211  0.1452  0.4403 -0.7829
 2383TIP3    H228709   6.046   3.329   2.180 -0.0968  0.8885 -1.5154
 2384TIP3   OH228710   0.174   4.815   3.241  0.0178 -0.2167 -0.0728
 2384TIP3    H128711   0.160   4.904   3.272  0.4782 -0.7137  1.6591
 2384TIP3    H228712   0.091   4.791   3.198  0.0627  1.1830 -1.0269
 2385TIP3   OH228713   2.642   2.953   1.107 -0.2720  0.4964 -0.2439
 2385TIP3    H128714   2.550   2.978   1.097 -1.4028 -3.0562 -0.0706
 2385TIP3    H228715   2.665   2.981   1.195 -2.4399 -1.6500  1.1451
 2386TIP3   OH228716   0.456   5.426   1.503 -0.2867  0.1161 -0.3236
 2386TIP3    H128717   0.423   5.431   1.414 -0.6775 -1.0541 -0.2584
 2386TIP3    H228718   0.394   5.369   1.549 -0.6988  1.5289  0.9877
 2387TIP3   OH228719   6.424   6.102   1.898  0.1052 -0.1759  0.0741
 2387TIP3    H128720   6.423   6.034   1.965 -0.5548 -0.9651 -0.7177
 2387TIP3    H228721   6.517   6.114   1.877  0.4845  1.2241  2.2215
 2388TIP3   OH228722   1.401   3.094   1.186 -0.7014  0.6346  0.9531
 2388TIP3    H128723   1.461   3.086   1.112 -0.1319  1.4733  1.3148
 2388TIP3    H228724   1.383   3.188   1.192 -0.8934  0.5519  1.7602
 2389TIP3   OH228725   4.844   4.144   0.102 -0.1898 -0.3612  0.6137
 2389TIP3    H128726   4.765   4.142   0.048  0.3730 -0.5429 -0.2447
 2389TIP3    H228727   4.915   4.126   0.039  0.5539  0.1055  1.3086
 2390TIP3   OH228728   5.574   3.201   1.890  0.3881 -0.3818 -0.2979
 2390TIP3    H128729   5.543   3.131   1.947 -0.4350  1.2889  1.4094
 2390TIP3    H228730   5.533   3.182   1.805  1.4111 -2.7595 -0.3369
 2391TIP3   OH228731   6.601   2.292   1.035 -0.1053  0.6046 -0.0534
 2391TIP3    H128732   6.600   2.309   1.129 -1.2362 -1.1399  0.2971
 2391TIP3    H228733   6.650   2.365   0.998  2.8969 -0.1189  2.1654
 2392TIP3   OH228734   1.389   3.652   0.994  0.3815 -0.4167 -0.5463
 2392TIP3    H128735   1.360   3.574   0.947 -0.1543 -0.5186 -0.0525
 2392TIP3    H228736   1.355   3.725   0.942  1.0680 -0.4975 -1.1278
 2393TIP3   OH228737   1.088   0.485   3.451 -0.4569  0.4178 -0.0651
 2393TIP3    H128738   1.152   0.537   3.403 -0.0990  2.0222  2.0392
 2393TIP3    H228739   1.139   0.436   3.515 -1.2141  1.0338  1.0444
 2394TIP3   OH228740   1.185   2.911   1.217  0.1220  0.4019 -0.0786
 2394TIP3    H128741   1.249   2.977   1.191  0.0549  0.6976  0.5032
 2394TIP3    H228742   1.175   2.856   1.139  1.5870 -0.0665  0.0392
 2395TIP3   OH228743   5.626   2.364   7.899 -0.2935  0.3139  0.0048
 2395TIP3    H128744   5.589   2.311   7.828 -1.5471  1.3169 -0.1411
 2395TIP3    H228745   5.611   2.454   7.872 -2.4887  0.7754  2.2826
 2396TIP3   OH228746   1.200   4.043   3.481 -0.1370 -0.1490  0.2811
 2396TIP3    H128747   1.267   4.101   3.445  0.6208  0.1797  2.0590
 2396TIP3    H228748   1.247   3.962   3.503 -0.7123 -0.5941 -0.0725
 2397TIP3   OH228749   4.103   6.197   2.179 -0.4803 -0.1707 -0.5617
 2397TIP3    H128750   4.014   6.186   2.212 -0.1329  1.6096  1.1212
 2397TIP3    H228751   4.097   6.171   2.087 -2.6838 -0.2986 -0.4395
 2398TIP3   OH228752   3.003   0.637   8.934 -0.2360  0.1679 -0.3517
 2398TIP3    H128753   2.920   0.593   8.952 -0.2742  0.4586  0.2286
 2398TIP3    H228754   3.054   0.625   9.014 -0.4427  1.5991  0.0322
 2399TIP3   OH228755   5.985   1.700   0.837  0.0107  0.7003 -0.0902
 2399TIP3    H128756   5.906   1.750   0.853 -0.8672 -0.2547 -1.2788
 2399TIP3    H228757   6.036   1.752   0.775 -1.2237 -0.1321 -1.8806
 2400TIP3   OH228758   5.367   4.862   8.375  0.1098 -0.2182 -0.0141
 2400TIP3    H128759   5.281   4.864   8.332  0.1552 -1.4817 -0.2048
 2400TIP3    H228760   5.350   4.895   8.464  0.1300  3.0550 -1.0759
 2401TIP3   OH228761   2.126   5.767   2.044  0.6631 -0.4138  0.1775
 2401TIP3    H128762   2.171   5.699   2.094 -0.6771 -2.3254 -1.0567
 2401TIP3    H228763   2.139   5.742   1.952 -0.0316  0.9032 -0.3126
 2402TIP3   OH228764   1.233   6.184   7.881  0.3926 -0.3048  0.1797
 2402TIP3    H128765   1.326   6.184   7.861  0.1606 -0.7133 -0.9399
 2402TIP3    H228766   1.229   6.198   7.976  1.6099 -1.1698  0.3743
 2403TIP3   OH228767   1.252   0.433   0.900 -0.2932 -0.4915  0.1877
 2403TIP3    H128768   1.311   0.410   0.971  0.7351 -1.6741 -1.0073
 2403TIP3    H228769   1.307   0.436   0.822 -1.6062 -0.4828 -0.7791
 2404TIP3   OH228770   2.951   4.189   0.473 -0.2252 -0.5615  0.0113
 2404TIP3    H128771   2.893   4.114   0.478  0.7682 -1.3019  1.0771
 2404TIP3    H228772   2.948   4.228   0.561  1.2136 -0.9149  0.2528
 2405TIP3   OH228773   0.185   1.397   7.182 -0.1192 -0.2211  0.3849
 2405TIP3    H128774   0.246   1.469   7.199 -1.2798  0.9568 -0.2343
 2405TIP3    H228775   0.175   1.353   7.266  0.6575  0.3047  0.7631
 2406TIP3   OH228776   6.194   3.018   2.166 -0.0241  0.9614  0.2044
 2406TIP3    H128777   6.253   3.000   2.093  1.1614  1.9012  0.8902
 2406TIP3    H228778   6.139   3.090   2.135  0.0081  0.8910 -0.0157
 2407TIP3   OH228779   3.624   5.984   8.695 -0.0417 -0.3886 -0.3559
 2407TIP3    H128780   3.564   6.023   8.759  1.2265 -2.1633  2.0692
 2407TIP3    H228781   3.581   5.902   8.669  0.0674 -0.3192 -0.7572
 2408TIP3   OH228782   5.585   1.992   8.586 -0.4942  0.6140 -0.6237
 2408TIP3    H128783   5.653   2.040   8.633  0.2015  0.4877 -1.4859
 2408TIP3    H228784   5.561   1.921   8.645  1.0577 -0.1218 -0.8270
 2409TIP3   OH228785   2.202   2.889   9.277  0.2174  0.1436  0.0321
 2409TIP3    H128786   2.250   2.894   9.195  1.4197  0.8052  0.7407
 2409TIP3    H228787   2.110   2.899   9.252  0.1540 -3.1573 -1.5814
 2410TIP3   OH228788   3.862   3.979   8.178  0.3493  0.3189  0.0521
 2410TIP3    H128789   3.957   3.987   8.173  0.3991 -0.5980 -0.5931
 2410TIP3    H228790   3.846   3.935   8.261  0.4881  0.4501  0.1489
 2411TIP3   OH228791   3.919   1.410   9.201 -0.0688  0.4418 -0.2300
 2411TIP3    H128792   3.830   1.388   9.172 -0.5721 -0.6314  1.9048
 2411TIP3    H228793   3.937   1.495   9.161 -2.4752  1.1959  0.0973
 2412TIP3   OH228794   2.297   0.803   8.787  0.3051 -0.1471  0.4643
 2412TIP3    H128795   2.227   0.743   8.759  2.1582 -1.6544 -1.2895
 2412TIP3    H228796   2.346   0.753   8.852  1.5298 -0.3643 -0.5911
 2413TIP3   OH228797   2.831   3.420   7.571  0.0816 -0.3074  0.4628
 2413TIP3    H128798   2.808   3.513   7.568 -0.8313 -0.5645 -1.2434
 2413TIP3    H228799   2.923   3.420   7.601 -0.7047  0.9363  3.2609
 2414TIP3   OH228800   1.868   3.709   7.696  0.4607 -0.0798  0.0978
 2414TIP3    H128801   1.902   3.710   7.786  1.2482 -0.3142 -0.1896
 2414TIP3    H228802   1.932   3.760   7.646 -0.4372  0.8103 -0.1788
 2415TIP3   OH228803   3.057   3.973   0.038 -0.2698  0.5136 -0.3053
 2415TIP3    H128804   3.051   3.979   0.133  1.3608 -1.1214 -0.0517
 2415TIP3    H228805   3.005   4.048   0.006 -1.7783  0.4483  1.7987
 2416TIP3   OH228806   2.058   1.501   1.883 -0.5552 -0.2662 -0.2675
 2416TIP3    H128807   2.077   1.593   1.867  0.4044 -0.4313 -0.1373
 2416TIP3    H228808   2.075   1.489   1.976 -2.0570 -0.2669  0.0374
 2417TIP3   OH228809   1.286   2.230   2.506 -0.3624  0.4140 -0.4491
 2417TIP3    H128810   1.291   2.218   2.411 -2.8508 -1.3884 -0.4560
 2417TIP3    H228811   1.339   2.159   2.542  0.1366  0.7726 -0.4596
 2418TIP3   OH228812   1.150   0.239   8.008  0.4434  0.7264 -0.1258
 2418TIP3    H128813   1.224   0.268   7.954  1.3977 -0.5947  0.4207
 2418TIP3    H228814   1.096   0.187   7.948 -0.7717  2.7012 -0.8585
 2419TIP3   OH228815   2.415   1.773   7.722 -0.3685 -0.5308  0.2490
 2419TIP3    H128816   2.329   1.806   7.745  0.4136  0.1666  2.3775
 2419TIP3    H228817   2.449   1.836   7.659 -1.0227 -0.2873  0.1327
 2420TIP3   OH228818   4.258   6.568   1.168 -0.2467 -0.4926  0.2458
 2420TIP3    H128819   4.264   6.586   1.074  0.2047  0.8766  0.5182
 2420TIP3    H228820   4.344   6.590   1.203 -0.1415 -1.7832  0.8861
 2421TIP3   OH228821   3.318   2.235   8.290  0.4543  0.4976  0.8707
 2421TIP3    H128822   3.234   2.228   8.244  0.9846 -0.7923  0.0349
 2421TIP3    H228823   3.376   2.279   8.228  1.1893 -1.3013  0.2091
 2422TIP3   OH228824   5.481   5.900   1.503  0.3581 -0.6009 -0.0032
 2422TIP3    H128825   5.536   5.879   1.428 -0.1671 -3.5197  0.2989
 2422TIP3    H228826   5.396   5.924   1.465  0.5460 -0.5218 -0.3728
 2423TIP3   OH228827   3.584   0.227   1.724 -0.4225  0.0304  0.2008
 2423TIP3    H128828   3.491   0.250   1.717 -0.3141  0.4068 -0.0693
 2423TIP3    H228829   3.589   0.136   1.696 -0.3110  0.8627 -2.8091
 2424TIP3   OH228830   0.584   3.852   0.272 -0.9863 -0.1859 -1.0298
 2424TIP3    H128831   0.579   3.780   0.210 -1.9252 -1.0614  0.0279
 2424TIP3    H228832   0.654   3.828   0.331 -1.3004 -0.2414 -0.6762
 2425TIP3   OH228833   2.495   0.343   9.250  0.2980  0.0013 -0.1345
 2425TIP3    H128834   2.571   0.296   9.215  1.0651  0.2397  1.1626
 2425TIP3    H228835   2.531   0.426   9.281 -0.7865  0.8141 -0.9875
 2426TIP3   OH228836   0.993   1.400   0.299  0.2425 -0.5052  0.0250
 2426TIP3    H128837   1.073   1.364   0.259  2.3034  1.0764  2.3866
 2426TIP3    H228838   0.975   1.479   0.248  1.6958  0.4440  0.8888
 2427TIP3   OH228839   1.347   5.966   2.556 -0.0854  0.1185  0.4648
 2427TIP3    H128840   1.315   5.938   2.641  0.3801  0.8086  0.8696
 2427TIP3    H228841   1.362   6.060   2.564 -1.3683  0.4736 -0.8056
 2428TIP3   OH228842   4.091   2.553   0.572  0.4959 -0.6956  0.4182
 2428TIP3    H128843   4.103   2.594   0.658  3.0844 -0.3340 -0.0151
 2428TIP3    H228844   3.997   2.541   0.564 -0.0339  1.4306  2.3029
 2429TIP3   OH228845   4.798   0.191   8.096  0.0732 -0.4794  0.5467
 2429TIP3    H128846   4.772   0.113   8.048 -2.1044 -0.8907  2.2606
 2429TIP3    H228847   4.894   0.186   8.100  0.2625 -1.0925 -2.4982
 2430TIP3   OH228848   1.354   4.576   1.384  0.5468 -0.0185 -0.2075
 2430TIP3    H128849   1.394   4.601   1.467 -0.2144  0.9834 -0.1400
 2430TIP3    H228850   1.307   4.494   1.403 -0.3447  0.6612  0.5688
 2431TIP3   OH228851   3.364   1.824   2.023  0.3590  0.1708  0.1208
 2431TIP3    H128852   3.308   1.884   2.073  1.1551 -0.6225  2.0977
 2431TIP3    H228853   3.432   1.798   2.086  1.0809 -1.3687 -1.2312
 2432TIP3   OH228854   4.380   2.541   1.101 -0.2148 -0.0175  0.2280
 2432TIP3    H128855   4.449   2.564   1.164 -1.1387 -0.4728  1.4351
 2432TIP3    H228856   4.302   2.586   1.133 -1.0465 -1.4346  0.2581
 2433TIP3   OH228857   5.603   5.981   0.454 -0.5422 -0.0130 -0.1020
 2433TIP3    H128858   5.670   6.026   0.404  2.3012 -2.4998  1.1797
 2433TIP3    H228859   5.561   5.922   0.391  0.9386 -0.9578 -0.2383
 2434TIP3   OH228860   4.661   4.785   9.193  0.1161  1.0772  0.4100
 2434TIP3    H128861   4.659   4.873   9.157  0.8105  0.3825 -1.4806
 2434TIP3    H228862   4.751   4.755   9.180 -0.0070  0.2318  1.3743
 2435TIP3   OH228863   5.895   0.326   8.619  0.1571  0.3810 -0.4858
 2435TIP3    H128864   5.962   0.258   8.615 -1.3042 -1.1302 -0.3298
 2435TIP3    H228865   5.847   0.318   8.537 -0.7714  0.4354  0.0361
 2436TIP3   OH228866   4.792   5.911   0.542 -0.5213 -0.0980  0.4244
 2436TIP3    H128867   4.764   5.854   0.614 -1.4776  2.5556  2.3327
 2436TIP3    H228868   4.865   5.961   0.578  2.6509 -2.3633 -2.3655
 2437TIP3   OH228869   5.836   3.201   7.835 -0.3470 -0.0427  0.1292
 2437TIP3    H128870   5.908   3.259   7.860  0.5259 -1.6374  1.5319
 2437TIP3    H228871   5.860   3.169   7.748 -1.0060  1.8648 -0.8150
 2438TIP3   OH228872   4.002   3.332   6.779 -0.3453 -0.4187  0.0009
 2438TIP3    H128873   4.010   3.427   6.791 -1.4822 -0.3126 -0.0102
 2438TIP3    H228874   4.083   3.297   6.816  1.6967  0.7516 -3.0007
 2439TIP3   OH228875   4.299   3.549   8.081  0.1144  0.0085 -0.0728
 2439TIP3    H128876   4.345   3.513   8.005  0.5906 -0.7130  0.5477
 2439TIP3    H228877   4.286   3.473   8.139 -0.1952  0.5624  0.5900
 2440TIP3   OH228878   4.115   2.905   1.015 -0.6998 -1.3387  0.3353
 2440TIP3    H128879   4.026   2.908   1.051 -0.6509 -0.2069  0.3818
 2440TIP3    H228880   4.104   2.865   0.928 -1.5080  0.2255 -0.3271
 2441TIP3   OH228881   6.421   1.744   1.491 -0.2795  0.4395 -1.0377
 2441TIP3    H128882   6.327   1.730   1.482 -0.2377 -1.2002  0.4427
 2441TIP3    H228883   6.461   1.671   1.444  0.2185  0.5219 -0.7501
 2442TIP3   OH228884   0.958   3.031   1.103 -0.1699  0.7336 -0.2180
 2442TIP3    H128885   1.042   3.002   1.136 -0.4610  0.1229  0.0015
 2442TIP3    H228886   0.940   2.973   1.029 -0.9280  0.0860  0.4555
 2443TIP3   OH228887   4.508   4.513   9.136  0.4232  0.2832 -0.8133
 2443TIP3    H128888   4.543   4.510   9.047  1.2996  0.7796 -0.4989
 2443TIP3    H228889   4.517   4.604   9.162 -0.2419  0.2303 -0.3664
 2444TIP3   OH228890   1.473   6.018   3.031  0.2160 -0.3587  0.6567
 2444TIP3    H128891   1.546   6.080   3.028  1.2512 -1.4143  2.2062
 2444TIP3    H228892   1.515   5.932   3.033 -0.9936 -0.9842  2.4609
 2445TIP3   OH228893   0.046   2.455   0.039  0.5446  0.7335 -0.3905
 2445TIP3    H128894  -0.048   2.469   0.022  0.3739  0.5290  0.3309
 2445TIP3    H228895   0.060   2.496   0.125  1.1863  1.0366 -0.6394
 2446TIP3   OH228896   3.736   2.596   9.015 -0.2786  0.5518  0.0381
 2446TIP3    H128897   3.686   2.522   9.049 -0.2102  0.7394  0.5558
 2446TIP3    H228898   3.785   2.628   9.091 -0.3402  1.1524 -0.1728
 2447TIP3   OH228899   3.655   6.544   2.701  0.1774 -0.4075  0.6769
 2447TIP3    H128900   3.668   6.553   2.795  2.5744 -3.0167  0.7356
 2447TIP3    H228901   3.663   6.450   2.685  1.7593  0.1197 -2.3219
 2448TIP3   OH228902   1.042   0.796   2.824  0.0263  0.2218 -0.2768
 2448TIP3    H128903   1.033   0.818   2.731  0.2916 -2.2281 -0.9732
 2448TIP3    H228904   0.962   0.827   2.864 -0.2998  0.9279 -1.4262
 2449TIP3   OH228905   6.366   4.898   1.298 -0.2508 -0.6213  0.3470
 2449TIP3    H128906   6.338   4.820   1.250 -1.1078 -0.7977  1.0957
 2449TIP3    H228907   6.426   4.864   1.365  0.5247 -0.4417 -0.2388
 2450TIP3   OH228908   4.461   3.506   2.227 -0.1298 -0.2561  0.5418
 2450TIP3    H128909   4.445   3.424   2.275  0.7697 -0.8973 -0.2199
 2450TIP3    H228910   4.406   3.570   2.272  0.0878 -0.9978  1.9373
 2451TIP3   OH228911   2.469   3.684   2.449 -0.4601  0.2780 -0.5233
 2451TIP3    H128912   2.480   3.611   2.510 -0.5567  0.4524 -0.2969
 2451TIP3    H228913   2.385   3.667   2.406 -0.0108 -0.2816 -1.2057
 2452TIP3   OH228914   0.634   1.463   0.060 -0.3379 -0.2819  0.0373
 2452TIP3    H128915   0.542   1.481   0.079 -0.3959 -0.8098  0.2614
 2452TIP3    H228916   0.647   1.497  -0.028 -0.3409  1.2245  0.5951
 2453TIP3   OH228917   5.019   4.142   7.975 -0.1482  0.2598 -0.4278
 2453TIP3    H128918   5.055   4.224   7.941 -1.1373  0.9730  0.1851
 2453TIP3    H228919   5.021   4.081   7.901  0.1248  0.9969 -1.0332
 2454TIP3   OH228920   5.148   3.581   7.387  0.2576  0.1492 -0.3124
 2454TIP3    H128921   5.154   3.654   7.325  1.0422  0.5860  0.2508
 2454TIP3    H228922   5.126   3.505   7.333  2.6143  0.1671 -1.3976
 2455TIP3   OH228923   1.698   0.228   2.836  0.5462  0.6150 -0.0194
 2455TIP3    H128924   1.736   0.147   2.871 -0.4986  0.4196  0.7053
 2455TIP3    H228925   1.672   0.278   2.913  1.0247  1.5740 -0.4696
 2456TIP3   OH228926   3.176   5.986   0.406  0.4555  0.5357 -0.1416
 2456TIP3    H128927   3.146   6.068   0.446  0.0040  0.3463 -0.0851
 2456TIP3    H228928   3.104   5.960   0.349  1.4031  1.1979 -1.6826
 2457TIP3   OH228929   2.866   2.175   8.364  0.2540 -0.2630  0.6677
 2457TIP3    H128930   2.919   2.142   8.437  2.3040  0.0464 -0.5986
 2457TIP3    H228931   2.825   2.254   8.398  1.7463  0.2682  1.3058
 2458TIP3   OH228932   0.627   0.719   2.673 -0.2323 -0.0601  0.1170
 2458TIP3    H128933   0.626   0.704   2.768 -0.1255 -1.3615 -0.0749
 2458TIP3    H228934   0.625   0.632   2.635  0.6538  0.4254 -1.0826
 2459TIP3   OH228935   6.056   5.513   8.267 -0.1348  0.0571 -0.1217
 2459TIP3    H128936   6.032   5.432   8.221  0.7824 -0.5103  0.3729
 2459TIP3    H228937   6.012   5.506   8.352 -0.4386  0.3085 -0.2544
 2460TIP3   OH228938   3.900   5.794   2.474 -0.0125  0.4796 -0.1127
 2460TIP3    H128939   3.970   5.781   2.538  0.0714 -0.8240 -0.4282
 2460TIP3    H228940   3.873   5.705   2.451  1.4915  0.7270 -3.5088
 2461TIP3   OH228941   1.969   1.949   7.577  0.1737  0.5182 -0.7268
 2461TIP3    H128942   2.045   1.914   7.528 -0.0587  0.6125 -1.1607
 2461TIP3    H228943   1.972   2.043   7.561  0.3297  0.6014 -0.2200
 2462TIP3   OH228944   4.001   2.747   8.881 -0.0505 -0.1954 -0.6815
 2462TIP3    H128945   4.072   2.697   8.920  0.2937  0.5243 -0.3555
 2462TIP3    H228946   3.988   2.707   8.795 -0.7970 -1.7682  0.1238
 2463TIP3   OH228947   1.437   4.908   2.731  0.1713  0.7879 -0.2557
 2463TIP3    H128948   1.431   5.003   2.730 -0.1575  0.7695 -0.0350
 2463TIP3    H228949   1.531   4.890   2.726  0.1794  1.0959 -1.9973
 2464TIP3   OH228950   6.124   3.512   1.533  0.5501 -0.4638  0.1037
 2464TIP3    H128951   6.130   3.478   1.444 -0.3828 -1.0396  0.2516
 2464TIP3    H228952   6.214   3.539   1.554  1.3405 -2.7040 -0.0783
 2465TIP3   OH228953   3.933   3.516   7.148 -0.0871  0.6236 -0.2396
 2465TIP3    H128954   3.986   3.585   7.110  1.2652 -0.5226 -0.5168
 2465TIP3    H228955   3.975   3.435   7.120 -0.2631 -0.2924  1.9473
 2466TIP3   OH228956   4.682   1.111   0.501  0.3815 -0.5338  0.5230
 2466TIP3    H128957   4.759   1.093   0.555  0.6614 -0.4872  0.1412
 2466TIP3    H228958   4.608   1.094   0.559  0.6443 -2.0760  0.4438
 2467TIP3   OH228959   4.613   0.562   1.211  0.5822 -0.3778  1.0827
 2467TIP3    H128960   4.619   0.533   1.301 -0.2740 -1.6407  0.7501
 2467TIP3    H228961   4.688   0.522   1.167  0.3100 -0.7770  0.9760
 2468TIP3   OH228962   5.351   2.677   1.641 -0.5508 -0.1537  0.1204
 2468TIP3    H128963   5.302   2.745   1.596 -0.7308  1.8940  3.1583
 2468TIP3    H228964   5.417   2.724   1.691 -0.2682 -2.2651  1.8726
 2469TIP3   OH228965   6.423   2.131   7.990 -0.7209  0.6748  0.0004
 2469TIP3    H128966   6.465   2.113   8.074 -0.6967 -0.8323 -0.3199
 2469TIP3    H228967   6.451   2.220   7.968  3.9780 -0.7804 -1.1007
 2470TIP3   OH228968   1.831   6.420   2.665 -0.3710 -0.4329 -0.1862
 2470TIP3    H128969   1.853   6.510   2.640 -1.6264  0.1571  0.7131
 2470TIP3    H228970   1.754   6.398   2.613 -0.2252 -0.9083 -0.2105
 2471TIP3   OH228971   3.409   0.131   0.480  0.0476 -0.0854  0.4176
 2471TIP3    H128972   3.403   0.185   0.401 -1.4826 -1.3691 -0.3842
 2471TIP3    H228973   3.484   0.168   0.528  0.3525  1.3944 -1.0955
 2472TIP3   OH228974   3.118   0.572   9.170  0.0526 -0.6470  0.2620
 2472TIP3    H128975   3.187   0.521   9.128  0.0268 -0.8402  0.4545
 2472TIP3    H228976   3.165   0.632   9.228  0.0727 -0.5924  0.1891
 2473TIP3   OH228977   3.866   1.378   2.774 -0.7063 -0.2566 -0.3219
 2473TIP3    H128978   3.819   1.411   2.850  1.6902  0.7390  0.8150
 2473TIP3    H228979   3.926   1.449   2.749 -1.2809 -0.6112 -3.0628
 2474TIP3   OH228980   1.477   1.215   7.329 -0.1429 -0.2659  0.4398
 2474TIP3    H128981   1.436   1.147   7.276 -0.7136  0.2181  0.2459
 2474TIP3    H228982   1.432   1.296   7.304 -0.8350 -0.1096  2.0622
 2475TIP3   OH228983   5.133   4.306   8.470 -0.0536 -0.8601 -0.0635
 2475TIP3    H128984   5.076   4.286   8.544  1.1933  1.7921  1.7627
 2475TIP3    H228985   5.209   4.249   8.483  0.2323 -0.2872  0.8095
 2476TIP3   OH228986   5.717   5.405   0.392 -0.4787  0.3863  0.2305
 2476TIP3    H128987   5.654   5.395   0.463 -1.1921  0.9826 -0.2992
 2476TIP3    H228988   5.757   5.318   0.382 -1.7647 -0.2070  0.0848
 2477TIP3   OH228989   5.266   5.627   0.085  0.4005  0.0886  0.3390
 2477TIP3    H128990   5.265   5.721   0.100 -1.3919  0.0070  1.0550
 2477TIP3    H228991   5.320   5.591   0.155 -2.2485  0.3011  2.6677
 2478TIP3   OH228992   6.467   1.562   8.300  0.5440 -0.4015 -0.3543
 2478TIP3    H128993   6.558   1.582   8.321  0.2535 -0.5241  1.1452
 2478TIP3    H228994   6.430   1.646   8.273  1.3507 -0.5588 -2.0282
 2479TIP3   OH228995   2.970   6.365   2.475  0.3442  0.1112 -0.0660
 2479TIP3    H128996   3.012   6.418   2.408  0.7161  1.7647  1.4051
 2479TIP3    H228997   2.921   6.427   2.528 -2.3514 -1.4895 -0.4539
 2480TIP3   OH228998   1.182   1.194   8.520  0.4593 -0.1446 -0.3829
 2480TIP3    H128999   1.164   1.165   8.431 -0.2877  0.5266 -0.4661
 2480TIP3    H229000   1.229   1.277   8.508  0.9167 -0.3683 -0.1513
 2481TIP3   OH229001   2.557   2.565   2.271  0.2331 -0.0700  0.3635
 2481TIP3    H129002   2.589   2.476   2.255  0.4105  0.2413 -1.1749
 2481TIP3    H229003   2.568   2.610   2.187 -3.6951  0.2324 -0.2065
 2482TIP3   OH229004   4.693   2.329   1.655 -0.0561 -0.5290  0.3837
 2482TIP3    H129005   4.695   2.422   1.633 -0.0461 -0.3836  0.9839
 2482TIP3    H229006   4.784   2.305   1.668  0.1253 -1.0883 -1.6104
 2483TIP3   OH229007   6.411   4.832   0.896  0.3185  0.1503  0.4380
 2483TIP3    H129008   6.373   4.754   0.939  1.6790 -0.7566  0.0514
 2483TIP3    H229009   6.497   4.841   0.936 -0.6838  2.9474  2.2402
 2484TIP3   OH229010   4.762   5.970   1.292 -0.4859 -0.3881 -0.8044
 2484TIP3    H129011   4.714   5.942   1.370 -0.2424 -0.7411 -0.7784
 2484TIP3    H229012   4.693   5.989   1.228 -0.6689 -1.8525 -1.0915
 2485TIP3   OH229013   3.160   0.204   1.838 -0.1042 -0.0713  0.3389
 2485TIP3    H129014   3.194   0.154   1.912  0.7635  1.1207  0.7853
 2485TIP3    H229015   3.139   0.138   1.772  1.9533 -0.9735  0.5122
 2486TIP3   OH229016   1.621   3.137   0.289  0.3807 -0.3652  0.2227
 2486TIP3    H129017   1.698   3.091   0.322  0.6946 -0.5915 -0.8107
 2486TIP3    H229018   1.637   3.149   0.196  0.5249  2.2730  0.5080
 2487TIP3   OH229019   3.506   1.029   2.149  0.2129 -0.0972  0.1564
 2487TIP3    H129020   3.491   1.123   2.134  0.4979 -0.1725 -0.6751
 2487TIP3    H229021   3.439   0.985   2.096 -0.7305 -0.3637  1.5391
 2488TIP3   OH229022   4.132   0.734   9.225 -0.0801 -0.2302 -0.3535
 2488TIP3    H129023   4.205   0.733   9.287 -0.8152  2.6083  0.7201
 2488TIP3    H229024   4.169   0.698   9.144  1.8949 -0.8154  0.7316
 2489TIP3   OH229025   5.019   0.243   7.906  0.0986  0.3177  0.2510
 2489TIP3    H129026   4.970   0.325   7.905 -1.1550 -0.4082 -0.3849
 2489TIP3    H229027   4.962   0.181   7.859  0.8212 -1.0186  1.1000
 2490TIP3   OH229028   0.783   2.706   2.122  0.5738 -0.0463  0.4718
 2490TIP3    H129029   0.688   2.714   2.117  0.6452  0.0298 -0.9646
 2490TIP3    H229030   0.804   2.727   2.213 -0.7303  0.4777  0.6663
 2491TIP3   OH229031   2.597   4.654   1.391 -0.1693  0.8305 -0.5968
 2491TIP3    H129032   2.526   4.600   1.354  0.7924  0.2127 -1.6007
 2491TIP3    H229033   2.614   4.720   1.324  0.5255  0.6662 -0.5917
 2492TIP3   OH229034   1.075   0.484   8.720  0.1167 -0.2291 -0.3221
 2492TIP3    H129035   1.023   0.509   8.797 -0.6058  0.9389 -1.1600
 2492TIP3    H229036   1.018   0.502   8.645  1.3099 -0.0206 -1.2110
 2493TIP3   OH229037   5.044   1.201   9.274 -0.1258  0.0764 -0.0168
 2493TIP3    H129038   5.031   1.259   9.349 -0.7567 -1.0209  0.7570
 2493TIP3    H229039   4.981   1.231   9.209 -3.0382 -1.8205  1.6720
 2494TIP3   OH229040   5.065   3.840   1.641 -0.5184  0.0553  0.0915
 2494TIP3    H129041   5.147   3.888   1.639  0.0062 -0.8389 -1.4679
 2494TIP3    H229042   5.019   3.874   1.718  0.5058  1.8761 -0.0530
 2495TIP3   OH229043   5.930   0.123   9.063  0.1472  0.3085  0.0867
 2495TIP3    H129044   5.877   0.154   8.990 -1.0607 -0.7343  0.4835
 2495TIP3    H229045   6.011   0.173   9.057  0.4336 -0.3410 -2.4714
 2496TIP3   OH229046   6.017   5.240   0.951 -0.5120  0.0283  0.5124
 2496TIP3    H129047   6.058   5.157   0.928 -2.1983 -0.4728 -0.9292
 2496TIP3    H229048   6.072   5.306   0.909  0.4981 -0.3759  1.1613
 2497TIP3   OH229049   4.280   6.351   2.019 -0.3233  0.6943  0.6798
 2497TIP3    H129050   4.187   6.374   2.016 -0.9433 -1.4679  1.1618
 2497TIP3    H229051   4.304   6.338   1.927 -0.6398  0.7872  0.5839
 2498TIP3   OH229052   4.056   4.686   0.212 -0.1860 -0.3825 -0.3223
 2498TIP3    H129053   4.034   4.679   0.305 -1.1196  1.1391 -0.4125
 2498TIP3    H229054   4.013   4.611   0.172  0.0001 -0.9004  0.4174
 2499TIP3   OH229055   3.785   6.130   8.328  0.0367 -0.0027 -0.0701
 2499TIP3    H129056   3.853   6.092   8.272  1.1682 -0.1199  1.3253
 2499TIP3    H229057   3.821   6.213   8.357 -0.7878  0.3366  0.0105
 2500TIP3   OH229058   3.937   6.616   9.285  0.1242 -0.2961  0.2612
 2500TIP3    H129059   3.856   6.621   9.336  0.4618 -1.6907  0.9752
 2500TIP3    H229060   3.955   6.523   9.277  0.8810 -0.0548 -1.1740
 2501TIP3   OH229061   1.425   0.447   9.073 -0.2351  0.1303 -0.2731
 2501TIP3    H129062   1.479   0.396   9.133 -0.2061  1.0186  0.4902
 2501TIP3    H229063   1.339   0.406   9.076 -0.0594 -0.2310 -0.1342
 2502TIP3   OH229064   4.230   1.910   2.134 -0.4172 -0.2522 -0.2188
 2502TIP3    H129065   4.229   1.873   2.046 -0.3538 -0.0964 -0.2835
 2502TIP3    H229066   4.174   1.987   2.128  0.6828  0.5501 -0.4577
 2503TIP3   OH229067   0.446   6.531   0.588  0.2681  0.2409  0.1208
 2503TIP3    H129068   0.447   6.444   0.627  0.1781 -0.7080 -1.8523
 2503TIP3    H229069   0.355   6.544   0.561  0.1348  1.2581  0.9893
 2504TIP3   OH229070   6.629   0.880   9.052  0.7025  0.3928  0.3894
 2504TIP3    H129071   6.604   0.964   9.091  0.8267  0.0474  1.2397
 2504TIP3    H229072   6.671   0.832   9.124  1.7914  0.0993 -0.4139
 2505TIP3   OH229073   5.750   4.730   0.624  0.0012 -0.0663  0.9845
 2505TIP3    H129074   5.656   4.717   0.626 -0.4312  2.5353  1.4198
 2505TIP3    H229075   5.764   4.801   0.562  2.0407 -2.2725 -1.3263
 2506TIP3   OH229076   2.669   5.997   8.283 -0.0678  0.2706  0.2395
 2506TIP3    H129077   2.747   6.048   8.304 -0.4794  1.2127 -0.4408
 2506TIP3    H229078   2.675   5.980   8.189 -1.7123  2.2613 -0.3131
 2507TIP3   OH229079   2.716   4.499   7.538 -0.3880 -0.3900  0.2200
 2507TIP3    H129080   2.664   4.576   7.516 -1.0033 -1.1563 -1.1452
 2507TIP3    H229081   2.663   4.453   7.604 -0.9840 -0.6478 -0.4231
 2508TIP3   OH229082   5.653   4.409   2.175  0.6884  0.2850  0.0659
 2508TIP3    H129083   5.723   4.353   2.141  0.9131  0.4675  0.2221
 2508TIP3    H229084   5.627   4.462   2.100  0.0788 -0.4176 -0.2360
 2509TIP3   OH229085   2.293   1.958   1.220 -0.1756  0.5944  0.9171
 2509TIP3    H129086   2.223   1.999   1.271 -0.2121  0.4865  0.9534
 2509TIP3    H229087   2.248   1.895   1.163 -0.2252  1.3296  0.1275
 2510TIP3   OH229088   0.270   2.774   2.559 -0.1586 -0.2001 -0.1363
 2510TIP3    H129089   0.202   2.774   2.626 -0.5776 -0.8608 -0.5460
 2510TIP3    H229090   0.330   2.843   2.585 -1.2894  0.7856 -0.0584
 2511TIP3   OH229091   1.282   3.958   7.856  0.7110 -0.3307  0.1767
 2511TIP3    H129092   1.365   3.993   7.887 -0.2772  0.3243  2.2639
 2511TIP3    H229093   1.231   4.036   7.832 -1.1427 -0.1711  3.9221
 2512TIP3   OH229094   0.684   4.563   7.925  0.2015  0.1188  0.1247
 2512TIP3    H129095   0.697   4.615   7.845  1.3880 -1.1201 -0.5297
 2512TIP3    H229096   0.770   4.523   7.941 -1.0909 -3.2321 -0.5576
 2513TIP3   OH229097   1.264   6.461   8.190 -0.1360 -0.2723  0.3749
 2513TIP3    H129098   1.323   6.526   8.152 -2.1668  2.0964  1.0137
 2513TIP3    H229099   1.289   6.457   8.282 -1.1162  0.9913  0.7219
 2514TIP3   OH229100   2.089   1.495   0.015  0.3343  0.0851  0.5647
 2514TIP3    H129101   2.170   1.494   0.067  1.6387  0.8130 -1.3562
 2514TIP3    H229102   2.086   1.583  -0.021 -1.5902  0.2009  0.9423
 2515TIP3   OH229103   4.389   6.634   2.063  0.3388 -0.5145  0.2056
 2515TIP3    H129104   4.481   6.614   2.077  0.5461  0.1128 -0.2023
 2515TIP3    H229105   4.353   6.555   2.023  0.6599 -0.8217  0.5178
 2516TIP3   OH229106   6.336   2.171   8.371 -0.0087 -0.1193 -0.3250
 2516TIP3    H129107   6.349   2.172   8.466 -1.4228  0.4238 -0.1205
 2516TIP3    H229108   6.417   2.132   8.337  1.4382  1.6009  0.9435
 2517TIP3   OH229109   3.515   3.916   2.354  0.0529 -0.0031  0.3819
 2517TIP3    H129110   3.560   3.869   2.425  0.5220 -0.3953 -0.1632
 2517TIP3    H229111   3.580   3.979   2.324 -0.8129  1.5120  1.5766
 2518TIP3   OH229112   2.996   6.104   1.422  0.1934  0.4165 -0.3734
 2518TIP3    H129113   3.036   6.190   1.417  0.6317  0.2420  0.1429
 2518TIP3    H229114   3.019   6.071   1.508 -1.4914  0.5164  0.1536
 2519TIP3   OH229115   0.676   5.076   8.769 -0.1008 -0.6457 -0.2765
 2519TIP3    H129116   0.740   5.135   8.730  0.2794 -2.4609 -2.5637
 2519TIP3    H229117   0.714   4.989   8.761 -0.7669 -1.3411  2.7340
 2520TIP3   OH229118   6.293   3.162   1.621 -0.3991  0.1956  0.3958
 2520TIP3    H129119   6.332   3.241   1.658  3.6515 -0.6909 -1.3810
 2520TIP3    H229120   6.262   3.189   1.534  0.9155 -0.0907 -0.1809
 2521TIP3   OH229121   6.288   1.063   8.285 -0.3954 -0.1802 -0.3528
 2521TIP3    H129122   6.272   1.003   8.358  0.3340 -0.4585 -0.4117
 2521TIP3    H229123   6.321   1.143   8.326  0.0634 -0.3547 -0.3765
 2522TIP3   OH229124   5.672   4.617   1.324  0.4373  0.2259 -0.1104
 2522TIP3    H129125   5.618   4.695   1.339 -0.5777 -0.5510  0.4351
 2522TIP3    H229126   5.680   4.577   1.411  1.8944  0.3029 -0.1835
 2523TIP3   OH229127   3.553   2.394   1.094  0.5077  0.0149  0.2806
 2523TIP3    H129128   3.547   2.421   1.002  0.8336  1.2169  0.5962
 2523TIP3    H229129   3.469   2.421   1.132  1.5084  2.3185  1.0113
 2524TIP3   OH229130   1.578   0.348   8.790 -0.1622 -0.0403 -0.1255
 2524TIP3    H129131   1.520   0.408   8.838 -1.8170 -1.6132 -0.0659
 2524TIP3    H229132   1.632   0.307   8.858 -0.8111 -0.4849  0.1261
 2525TIP3   OH229133   4.572   3.053   1.088  0.0091  0.0676 -0.4542
 2525TIP3    H129134   4.503   3.097   1.038 -0.8927 -1.0453 -0.2318
 2525TIP3    H229135   4.550   3.069   1.180 -1.5997 -2.5647 -0.2812
 2526TIP3   OH229136   2.293   1.031   0.693 -0.1701  0.7079 -0.1819
 2526TIP3    H129137   2.200   1.041   0.674 -0.2519  1.2501  0.4656
 2526TIP3    H229138   2.307   1.084   0.771  0.5081 -0.0836  0.2377
 2527TIP3   OH229139   1.701   4.206   1.797 -0.1703 -0.7175  0.2749
 2527TIP3    H129140   1.751   4.223   1.718 -0.9320 -1.6624 -0.4389
 2527TIP3    H229141   1.610   4.202   1.767 -0.3630 -2.2921  0.9715
 2528TIP3   OH229142   5.488   0.976   0.196  0.3998 -0.0164  0.0079
 2528TIP3    H129143   5.465   0.926   0.117  0.3575 -0.2382  0.1612
 2528TIP3    H229144   5.575   0.945   0.220 -0.6561 -1.9829  1.6406
 2529TIP3   OH229145   6.195   6.043   0.514 -0.2463 -0.5729 -0.1171
 2529TIP3    H129146   6.107   6.053   0.550 -0.5206  0.4508 -1.0163
 2529TIP3    H229147   6.199   5.952   0.484 -0.9270 -0.6820  0.1117
 2530TIP3   OH229148   0.502   5.707   7.510 -0.1017  0.2689 -0.0068
 2530TIP3    H129149   0.560   5.734   7.581  0.1631  1.2020 -0.5573
 2530TIP3    H229150   0.528   5.618   7.490  0.5873  0.3894  0.3128
 2531TIP3   OH229151   1.607   5.872   9.254 -0.4236 -0.1454 -0.4588
 2531TIP3    H129152   1.520   5.831   9.260 -0.4209 -0.1257 -0.2605
 2531TIP3    H229153   1.650   5.849   9.337  0.3615 -1.4835 -1.2126
 2532TIP3   OH229154   5.032   0.422   8.652 -0.3698  0.5890 -0.2284
 2532TIP3    H129155   5.103   0.400   8.591 -0.7533 -0.6121 -0.2540
 2532TIP3    H229156   4.995   0.338   8.678 -1.8025  1.2057 -0.2103
 2533TIP3   OH229157   2.892   5.578   9.158  0.3628  0.0784 -0.4986
 2533TIP3    H129158   2.917   5.500   9.208 -0.4394 -0.2088 -0.5373
 2533TIP3    H229159   2.885   5.549   9.068  2.5117  0.7513 -0.9455
 2534TIP3   OH229160   3.550   4.242   7.867  0.2107 -0.3696  0.1573
 2534TIP3    H129161   3.601   4.293   7.805 -1.1378 -0.6221 -1.2102
 2534TIP3    H229162   3.564   4.151   7.841 -3.1276 -0.3875 -2.1916
 2535TIP3   OH229163   5.608   5.584   8.008 -0.2562  0.8585  1.0492
 2535TIP3    H129164   5.662   5.505   8.010  1.2771  1.8613  1.5843
 2535TIP3    H229165   5.615   5.620   8.097 -4.0297 -0.3371  1.9874
 2536TIP3   OH229166   3.280   5.147   1.893  0.0294 -0.0348 -0.3656
 2536TIP3    H129167   3.270   5.147   1.798 -1.2496  0.2567 -0.2426
 2536TIP3    H229168   3.329   5.227   1.913  0.6584 -0.3041 -0.7982
 2537TIP3   OH229169   2.840   2.036   8.147 -0.4224  0.2338 -0.3046
 2537TIP3    H129170   2.829   2.082   8.230  0.5287  1.9470 -1.0836
 2537TIP3    H229171   2.881   1.952   8.171  0.7647  1.1113  0.8702
 2538TIP3   OH229172   4.546   1.435   9.013  0.5619 -1.2550 -0.2802
 2538TIP3    H129173   4.614   1.376   9.043 -2.4083 -4.3236  1.0813
 2538TIP3    H229174   4.507   1.470   9.094 -1.0673 -1.6142 -0.8640
 2539TIP3   OH229175   3.745   0.988   1.191 -0.0998 -0.7335  0.2626
 2539TIP3    H129176   3.689   0.969   1.116  1.2844  0.7760 -1.2411
 2539TIP3    H229177   3.828   0.944   1.172  0.7350  0.7932  0.1701
 2540TIP3   OH229178   0.754   5.489   0.337 -0.1291  1.1569  0.3779
 2540TIP3    H129179   0.740   5.400   0.303 -1.4541  1.4091  0.2057
 2540TIP3    H229180   0.666   5.528   0.338  0.5676  2.8266 -0.5568
 2541TIP3   OH229181   6.042   0.846   0.967  0.0971  0.4366 -0.1825
 2541TIP3    H129182   6.089   0.767   0.996 -0.0066  0.7543  0.9058
 2541TIP3    H229183   5.950   0.825   0.980  0.0967  0.9871  0.8559
 2542TIP3   OH229184   2.603   1.403   1.687  0.2571  0.3724 -0.1900
 2542TIP3    H129185   2.581   1.382   1.778  2.9962 -1.2417  0.2118
 2542TIP3    H229186   2.523   1.386   1.638 -0.4912 -1.5129  1.5476
 2543TIP3   OH229187   3.282   6.376   3.191 -0.0341  0.4033 -0.1107
 2543TIP3    H129188   3.195   6.348   3.219 -0.1365  0.1820 -0.6232
 2543TIP3    H229189   3.341   6.346   3.260 -0.2488 -0.3241 -0.2363
 2544TIP3   OH229190   5.925   2.691   2.147 -0.0447  0.2918  0.3857
 2544TIP3    H129191   5.878   2.624   2.096  0.5756  0.9019 -1.0258
 2544TIP3    H229192   5.970   2.744   2.082  0.2318  1.5321  1.5460
 2545TIP3   OH229193   4.430   2.853   2.735 -0.0594 -0.1861  0.1162
 2545TIP3    H129194   4.438   2.947   2.750 -0.0743 -0.0730 -0.5486
 2545TIP3    H229195   4.411   2.816   2.821  2.4792  0.1104  0.8642
 2546TIP3   OH229196   0.177   0.350   8.770  0.3520 -0.2436  0.5874
 2546TIP3    H129197   0.188   0.440   8.739 -0.7195 -0.8535 -1.8081
 2546TIP3    H229198   0.266   0.321   8.791  1.0382  0.6858 -0.8412
 2547TIP3   OH229199   3.601   2.392   0.565  0.4100 -0.5382  0.5536
 2547TIP3    H129200   3.659   2.415   0.637  0.2891 -0.6293  0.6807
 2547TIP3    H229201   3.573   2.302   0.584  3.6518 -2.2215 -1.7188
 2548TIP3   OH229202   3.152   0.836   8.392 -0.1126 -0.5398  0.0382
 2548TIP3    H129203   3.195   0.870   8.470 -0.8270  1.6094 -0.4361
 2548TIP3    H229204   3.058   0.846   8.410 -0.2876 -0.0360 -1.0387
 2549TIP3   OH229205   3.203   5.078   2.149 -0.0655 -0.0383  0.3038
 2549TIP3    H129206   3.238   5.105   2.064 -2.8571  0.3236 -0.8452
 2549TIP3    H229207   3.163   4.993   2.132  0.4666 -0.5629  1.6014
 2550TIP3   OH229208   4.471   5.931   1.589  0.5989 -0.2785  0.0002
 2550TIP3    H129209   4.566   5.925   1.573  0.7190 -2.4074  1.2883
 2550TIP3    H229210   4.434   5.855   1.545 -0.4089 -0.0236  0.3779
 2551TIP3   OH229211   4.778   2.901   2.007 -0.0937  0.2086 -0.9935
 2551TIP3    H129212   4.866   2.872   1.982 -1.0464 -0.4251 -3.8724
 2551TIP3    H229213   4.784   2.997   2.007  1.2733  0.2253  1.7746
 2552TIP3   OH229214   6.188   1.697   0.255 -0.2258  0.4375 -0.0512
 2552TIP3    H129215   6.183   1.680   0.349  2.8502 -0.4775  0.0511
 2552TIP3    H229216   6.200   1.792   0.249 -3.3105  0.9507  0.2046
 2553TIP3   OH229217   1.927   4.964   0.825 -0.2307 -0.0527  0.1192
 2553TIP3    H129218   1.839   4.953   0.862 -0.3700 -0.4097 -0.3131
 2553TIP3    H229219   1.954   5.051   0.853 -0.4398 -0.2110  0.8508
 2554TIP3   OH229220   3.080   4.779   1.574  0.1227  0.1399  0.1840
 2554TIP3    H129221   3.074   4.703   1.517 -1.5653  0.9206 -0.7815
 2554TIP3    H229222   2.999   4.777   1.625  0.3831  0.8944  0.6451
 2555TIP3   OH229223   5.854   5.773   0.256 -0.2138 -0.3937 -0.2968
 2555TIP3    H129224   5.848   5.866   0.277 -1.1966 -0.5522  0.1766
 2555TIP3    H229225   5.857   5.729   0.341  1.2146 -0.7586 -0.5095
 2556TIP3   OH229226   5.001   6.280   7.564 -0.1365 -0.2663  0.0301
 2556TIP3    H129227   4.993   6.190   7.531 -0.6164 -0.4198  0.5319
 2556TIP3    H229228   4.990   6.271   7.659  1.1143  0.1693  0.2360
 2557TIP3   OH229229   0.759   4.508   2.587  0.5930  0.4908  0.0524
 2557TIP3    H129230   0.788   4.599   2.579  0.0952  0.6992  0.5176
 2557TIP3    H229231   0.838   4.459   2.611  0.7061  0.9392  0.6245
 2558TIP3   OH229232   5.183   0.348   2.035  0.1250  0.4198 -0.1261
 2558TIP3    H129233   5.261   0.365   1.983  0.3860 -0.8080 -0.1594
 2558TIP3    H229234   5.191   0.407   2.110  0.3875  1.2779 -0.8185
 2559TIP3   OH229235   1.076   3.092   2.158 -0.2128  0.1057  0.2304
 2559TIP3    H129236   1.053   3.008   2.118  1.0513  0.0559 -0.4325
 2559TIP3    H229237   1.129   3.137   2.092  0.8282  0.5677  1.3325
 2560TIP3   OH229238   2.277   1.196   2.885 -0.8121  0.0365 -0.6394
 2560TIP3    H129239   2.296   1.222   2.975 -2.0140  1.9525 -0.8843
 2560TIP3    H229240   2.268   1.101   2.889 -0.4710  0.0377  1.1701
 2561TIP3   OH229241   2.074   3.647   0.933 -0.2555 -0.5433 -0.2926
 2561TIP3    H129242   2.165   3.668   0.952 -0.3804 -1.4161  1.4939
 2561TIP3    H229243   2.077   3.560   0.893 -0.2426 -0.0541 -1.4028
 2562TIP3   OH229244   0.281   1.824   1.230  0.2619  0.6219  0.4433
 2562TIP3    H129245   0.221   1.825   1.155  0.4731 -1.0973  0.1973
 2562TIP3    H229246   0.241   1.883   1.293 -0.8165  0.7927 -0.3650
 2563TIP3   OH229247   2.181   4.717   0.526 -0.3257  0.2182 -0.0008
 2563TIP3    H129248   2.148   4.677   0.445 -1.4403 -0.4856  0.7863
 2563TIP3    H229249   2.244   4.783   0.495  0.0646 -0.7613 -1.3952
 2564TIP3   OH229250   1.429   4.457   8.908 -0.1854 -0.0978 -0.3962
 2564TIP3    H129251   1.356   4.422   8.961  0.7419 -0.2285  0.8458
 2564TIP3    H229252   1.388   4.522   8.851 -1.0197  1.3266  1.6789
 2565TIP3   OH229253   1.766   1.804   2.361 -0.0781  0.0055  0.1089
 2565TIP3    H129254   1.769   1.717   2.399 -0.1613 -0.7324 -1.4970
 2565TIP3    H229255   1.782   1.790   2.268 -1.3803  1.5560 -0.3889
 2566TIP3   OH229256   4.234   0.761   2.261 -0.2051  0.3112 -0.1152
 2566TIP3    H129257   4.159   0.739   2.205 -0.3955 -0.8159  0.5457
 2566TIP3    H229258   4.231   0.696   2.331  0.1536  1.5556  1.0990
 2567TIP3   OH229259   1.953   2.861   1.351 -0.1078  0.0636 -0.6950
 2567TIP3    H129260   1.946   2.924   1.422  0.8900 -0.7524  0.1609
 2567TIP3    H229261   1.862   2.845   1.324 -0.3150  3.5165 -2.5157
 2568TIP3   OH229262   2.369   4.263   1.992 -0.4616 -0.1178  0.1775
 2568TIP3    H129263   2.373   4.240   1.899 -0.4618 -2.2100  0.6486
 2568TIP3    H229264   2.281   4.300   2.003 -0.4564  0.1754 -0.6389
 2569TIP3   OH229265   2.164   0.038   8.902  0.1130  0.1991  0.2712
 2569TIP3    H129266   2.210   0.016   8.982 -0.4790  0.0870  0.5832
 2569TIP3    H229267   2.076   0.062   8.930 -1.0420 -2.6757 -0.5882
 2570TIP3   OH229268   0.834   0.898   2.128  0.1203  1.1561 -0.0144
 2570TIP3    H129269   0.856   0.988   2.151 -0.0947  0.9405  1.0908
 2570TIP3    H229270   0.849   0.893   2.033  1.2428  2.0279  0.0980
 2571TIP3   OH229271   3.848   4.117   1.529 -0.5645  0.1912 -0.3797
 2571TIP3    H129272   3.938   4.126   1.497  0.2135  1.2062  1.8444
 2571TIP3    H229273   3.799   4.083   1.455  1.2722  1.3731 -2.2462
 2572TIP3   OH229274   0.777   2.330   3.174 -0.3930 -0.3378  0.2903
 2572TIP3    H129275   0.753   2.402   3.232  0.6780  1.0457 -0.9112
 2572TIP3    H229276   0.865   2.352   3.143 -1.6416  0.1369 -3.4528
 2573TIP3   OH229277   6.057   3.159   0.723  0.2403 -0.4502  0.0968
 2573TIP3    H129278   5.966   3.144   0.697  0.0516 -1.0601  1.0614
 2573TIP3    H229279   6.074   3.092   0.790  1.5361 -0.6314 -0.3810
 2574TIP3   OH229280   2.250   1.349   8.499 -0.4630 -0.5081 -0.0793
 2574TIP3    H129281   2.278   1.320   8.412  0.0091 -1.8775  0.4987
 2574TIP3    H229282   2.288   1.436   8.509  1.6472 -1.3369 -0.2721
 2575TIP3   OH229283   1.053   0.089   8.320 -0.1006  0.2147  0.1800
 2575TIP3    H129284   0.976   0.127   8.362 -0.6120  1.7323 -1.9775
 2575TIP3    H229285   1.018   0.026   8.256  0.5571 -0.5638  0.5582
 2576TIP3   OH229286   1.502   1.255   2.714  0.5017 -0.2962  0.2723
 2576TIP3    H129287   1.520   1.293   2.800 -0.2890  2.4866 -0.6803
 2576TIP3    H229288   1.575   1.195   2.699  0.8717 -0.5679  2.6728
 2577TIP3   OH229289   5.918   1.312   2.401 -0.8485  0.4513  0.0622
 2577TIP3    H129290   5.826   1.298   2.422 -0.5022 -0.4579  1.0519
 2577TIP3    H229291   5.955   1.352   2.480  0.2926 -2.2259  0.9840
 2578TIP3   OH229292   0.806   3.721   0.365 -0.3379  0.1671 -0.1773
 2578TIP3    H129293   0.853   3.638   0.374 -1.5760 -0.6794 -1.0987
 2578TIP3    H229294   0.871   3.782   0.330  0.5544 -0.4472  0.3700
 2579TIP3   OH229295   5.842   5.747   8.816  0.5192 -0.5444  0.4886
 2579TIP3    H129296   5.872   5.797   8.892 -0.2097  0.7462 -0.0347
 2579TIP3    H229297   5.761   5.706   8.845 -2.1294  3.3215 -0.6793
 2580TIP3   OH229298   5.553   4.172   2.621 -0.2700  0.2233 -0.0547
 2580TIP3    H129299   5.502   4.094   2.644 -1.2976  0.8757 -0.0247
 2580TIP3    H229300   5.608   4.188   2.698 -0.8390  0.1358  0.3803
 2581TIP3   OH229301   0.640   4.485   1.202  0.1678 -0.3577 -0.7684
 2581TIP3    H129302   0.585   4.472   1.280  0.0112  0.2357 -0.7807
 2581TIP3    H229303   0.592   4.441   1.132 -0.7264  0.8731 -0.9583
 2582TIP3   OH229304   5.849   1.070   2.648  0.2865 -0.4943 -0.0797
 2582TIP3    H129305   5.912   0.998   2.649  1.2413  0.3167  0.0291
 2582TIP3    H229306   5.889   1.138   2.702 -0.3672  0.3092 -0.5739
 2583TIP3   OH229307   2.801   6.241   8.445  0.4074 -0.1453 -0.0130
 2583TIP3    H129308   2.843   6.323   8.471 -2.1480  1.0439  0.5737
 2583TIP3    H229309   2.730   6.267   8.386  0.6800 -2.1260 -1.3324
 2584TIP3   OH229310   5.805   4.898   2.725  0.1767  0.7002  0.2421
 2584TIP3    H129311   5.748   4.825   2.750 -0.8175  1.6998  0.9938
 2584TIP3    H229312   5.755   4.976   2.748  1.5209  1.6181  0.1435
 2585TIP3   OH229313   3.332   0.458   0.540 -0.2007  0.0012  0.5916
 2585TIP3    H129314   3.334   0.453   0.445  1.5365 -0.1075  0.6177
 2585TIP3    H229315   3.337   0.552   0.559 -0.5628  0.0239  0.5813
 2586TIP3   OH229316   3.410   4.025   0.298 -0.4368  0.3198 -0.2685
 2586TIP3    H129317   3.318   4.052   0.298 -0.4466  0.7647 -3.7766
 2586TIP3    H229318   3.459   4.105   0.283  0.4408 -0.0988  0.2883
 2587TIP3   OH229319   1.310   3.778   7.306 -0.5021 -0.1108 -0.2772
 2587TIP3    H129320   1.306   3.825   7.389  0.4171  1.1208 -0.8857
 2587TIP3    H229321   1.260   3.833   7.245  0.4651  0.0350 -0.9655
 2588TIP3   OH229322   1.088   1.183   1.643  0.0504 -0.0518  0.4311
 2588TIP3    H129323   1.147   1.258   1.655  1.8284 -1.7093  3.4582
 2588TIP3    H229324   1.037   1.180   1.724 -1.4155 -0.9884 -0.4815
 2589TIP3   OH229325   2.431   3.967   7.086  0.0741 -0.1081 -0.1118
 2589TIP3    H129326   2.361   3.905   7.064  0.7799 -1.9259  2.3324
 2589TIP3    H229327   2.386   4.040   7.129 -0.6774  0.8127 -2.3038
 2590TIP3   OH229328   3.452   0.714   3.211 -0.1838 -0.7461  0.0664
 2590TIP3    H129329   3.396   0.742   3.139 -0.4417 -1.2534  0.0669
 2590TIP3    H229330   3.541   0.733   3.181 -0.3860  1.0662  0.5018
 2591TIP3   OH229331   6.263   4.646   1.247  0.0230  0.1282 -0.1059
 2591TIP3    H129332   6.259   4.615   1.338  1.5101  0.4724  0.1050
 2591TIP3    H229333   6.322   4.585   1.204  1.4453  1.5062 -0.1634
 2592TIP3   OH229334   5.563   6.063   2.587 -0.6483 -0.7793 -0.3677
 2592TIP3    H129335   5.635   6.012   2.551  0.0805  0.2607 -0.4372
 2592TIP3    H229336   5.546   6.025   2.673  0.7810 -0.3028  0.1469
 2593TIP3   OH229337   1.922   0.073   1.401 -0.7495  0.3327  0.3683
 2593TIP3    H129338   1.893   0.070   1.492 -1.4458  0.3390  0.1473
 2593TIP3    H229339   2.013   0.041   1.404 -1.1236 -0.7210  0.9207
 2594TIP3   OH229340   5.281   6.045   1.362  0.1477 -0.5203  0.3477
 2594TIP3    H129341   5.302   6.009   1.275  0.1252 -0.7543  0.4399
 2594TIP3    H229342   5.191   6.016   1.379 -0.1432  0.2054  0.0964
 2595TIP3   OH229343   0.161   4.122   8.581 -0.5292  0.5700 -0.1923
 2595TIP3    H129344   0.243   4.077   8.562  0.1299  2.2852 -1.7408
 2595TIP3    H229345   0.105   4.056   8.621  1.5931 -0.6498  0.9105
 2596TIP3   OH229346   5.922   4.142   1.389 -0.2148 -0.4670 -0.4075
 2596TIP3    H129347   5.910   4.188   1.472 -0.5637  0.6789 -1.0823
 2596TIP3    H229348   5.874   4.194   1.325  0.8481 -0.8073 -1.5157
 2597TIP3   OH229349   3.346   3.287   9.289 -0.2666 -0.0452 -0.3773
 2597TIP3    H129350   3.319   3.379   9.291  1.5961  0.5322 -0.4638
 2597TIP3    H229351   3.374   3.272   9.199  0.5135 -0.3691 -0.0863
 2598TIP3   OH229352   4.223   2.286   1.869 -0.1319  0.0038 -0.7716
 2598TIP3    H129353   4.243   2.285   1.775 -0.1981  1.2302 -0.8060
 2598TIP3    H229354   4.308   2.302   1.911  0.5762 -3.8353 -0.3730
 2599TIP3   OH229355   4.219   0.906   8.658  0.0155 -0.2171 -0.2545
 2599TIP3    H129356   4.126   0.884   8.664 -0.0617  0.5441  3.2882
 2599TIP3    H229357   4.256   0.838   8.602 -2.4152 -1.3862 -0.5811
 2600TIP3   OH229358   2.063   1.472   8.267  0.4263  0.5414  0.0957
 2600TIP3    H129359   2.092   1.466   8.176  1.3005  0.9673  0.3394
 2600TIP3    H229360   2.124   1.417   8.315 -1.2774 -1.3877  0.1828
 2601TIP3   OH229361   5.149   1.701   7.696  0.1677  0.1792  0.5341
 2601TIP3    H129362   5.184   1.762   7.631  1.3741 -1.4015 -0.3770
 2601TIP3    H229363   5.058   1.727   7.708  0.8474  2.6235  0.7754
 2602TIP3   OH229364   1.687   2.751   0.174  0.1421  0.2794  0.0760
 2602TIP3    H129365   1.752   2.793   0.230 -1.3741  0.7190  1.5800
 2602TIP3    H229366   1.720   2.662   0.162  1.6074  0.8354 -0.2127
 2603TIP3   OH229367   3.974   6.002   0.969 -0.0213 -0.1782  0.3242
 2603TIP3    H129368   4.063   5.977   0.995 -0.1025 -0.9687 -0.1403
 2603TIP3    H229369   3.949   5.938   0.903 -0.2692  1.0895 -0.8616
 2604TIP3   OH229370   6.021   2.690   7.640  0.0341  0.4202  0.5534
 2604TIP3    H129371   6.051   2.612   7.593  0.9855  1.0920  0.0258
 2604TIP3    H229372   6.099   2.743   7.652 -0.4468  0.9074  1.6896
 2605TIP3   OH229373   5.084   1.381   7.864  0.8336  0.3888 -0.1778
 2605TIP3    H129374   5.116   1.294   7.840  1.9052  0.8682 -0.5704
 2605TIP3    H229375   5.041   1.413   7.785 -1.0660 -0.4191  0.4764
 2606TIP3   OH229376   6.393   1.095   2.099 -0.1716  0.0884  0.0072
 2606TIP3    H129377   6.460   1.038   2.137  1.0649 -0.4311 -2.6949
 2606TIP3    H229378   6.324   1.035   2.070 -0.7836  0.4089  0.7620
 2607TIP3   OH229379   2.949   0.993   1.263 -0.1156  0.0963 -0.8265
 2607TIP3    H129380   2.918   0.930   1.328  0.4859  1.2241  0.6252
 2607TIP3    H229381   2.892   1.069   1.274 -1.4955 -0.4802 -3.2532
 2608TIP3   OH229382   6.520   3.708   9.255 -0.4018  0.5541  0.5400
 2608TIP3    H129383   6.516   3.800   9.281 -0.0278  0.5852  0.4928
 2608TIP3    H229384   6.452   3.698   9.189  0.2303  1.0398 -0.1996
 2609TIP3   OH229385   5.104   0.964   7.546  0.2646  0.6432  0.3626
 2609TIP3    H129386   5.163   0.998   7.479 -1.0751 -0.9896 -1.7654
 2609TIP3    H229387   5.038   1.033   7.556  1.1512  1.4262  0.9514
 2610TIP3   OH229388   5.019   3.296   0.049  0.4265  0.3774 -0.3074
 2610TIP3    H129389   4.968   3.328  -0.026  1.8151  1.6980 -0.7377
 2610TIP3    H229390   5.024   3.372   0.108  0.4586 -0.2611  0.5299
 2611TIP3   OH229391   0.848   6.430   2.292  0.2379  0.4351  0.1416
 2611TIP3    H129392   0.771   6.374   2.288  0.9919 -0.6473  0.1851
 2611TIP3    H229393   0.831   6.492   2.363  0.1441 -0.9467  1.3685
 2612TIP3   OH229394   2.586   1.888   2.371  0.0234  0.8689  0.2024
 2612TIP3    H129395   2.589   1.969   2.320  0.2235 -0.2942 -1.7797
 2612TIP3    H229396   2.607   1.820   2.307  0.1005 -0.7290  1.8533
 2613TIP3   OH229397   2.940   5.761   8.159 -0.1137  0.0616  0.0342
 2613TIP3    H129398   2.868   5.705   8.186  1.2474 -1.7514  0.1446
 2613TIP3    H229399   2.938   5.758   8.063 -0.7099  0.7452  0.0217
 2614TIP3   OH229400   1.005   5.355   0.346 -0.2235  0.7924  0.3744
 2614TIP3    H129401   1.014   5.323   0.436 -0.8750  2.5261  1.1035
 2614TIP3    H229402   0.915   5.386   0.341 -0.1223  0.9402 -0.8226
 2615TIP3   OH229403   4.683   5.653   1.091  0.2967 -0.0752  0.0986
 2615TIP3    H129404   4.662   5.565   1.060  0.0984  0.1939 -0.5464
 2615TIP3    H229405   4.631   5.711   1.036  1.3295  0.5113 -0.2955
 2616TIP3   OH229406   4.941   4.235   1.643  0.0617 -0.1437  0.1034
 2616TIP3    H129407   4.947   4.307   1.581  0.8189 -1.0994 -0.9763
 2616TIP3    H229408   4.941   4.277   1.729  1.8177  1.1118 -0.4575
 2617TIP3   OH229409   2.518   6.084   1.733 -0.7291  0.2784 -0.0462
 2617TIP3    H129410   2.491   6.142   1.662  0.5673  2.8053  1.3814
 2617TIP3    H229411   2.523   6.141   1.810  0.7316 -1.7155  1.4504
 2618TIP3   OH229412   2.525   2.250   7.434  0.0564 -0.0633 -0.2495
 2618TIP3    H129413   2.575   2.231   7.355  2.7413 -0.1367  1.3559
 2618TIP3    H229414   2.434   2.235   7.409  1.0140 -2.9229 -2.5049
 2619TIP3   OH229415   4.307   0.722   8.478  0.4353  0.3404  0.4289
 2619TIP3    H129416   4.306   0.691   8.388 -1.9154  0.3773  0.3795
 2619TIP3    H229417   4.398   0.710   8.507  0.6985 -1.9421 -1.1399
 2620TIP3   OH229418   1.756   0.287   1.790  0.3287  0.6432  0.3033
 2620TIP3    H129419   1.780   0.203   1.750 -0.5124 -0.5322  2.1205
 2620TIP3    H229420   1.662   0.295   1.775  0.4701  1.4887 -0.2104
 2621TIP3   OH229421   4.927   1.469   7.668  0.0947  0.3473  0.7722
 2621TIP3    H129422   4.937   1.519   7.587  2.8489 -1.2017  0.0112
 2621TIP3    H229423   4.844   1.423   7.658  0.1491  0.5575 -0.9909
 2622TIP3   OH229424   1.336   0.881   0.939 -0.0594 -0.4812 -0.5384
 2622TIP3    H129425   1.318   0.969   0.972  0.4600 -0.4351 -0.3750
 2622TIP3    H229426   1.316   0.824   1.013  1.0743 -0.3802 -0.1479
 2623TIP3   OH229427   2.968   2.391   2.792 -0.2910 -0.3218 -0.1309
 2623TIP3    H129428   2.988   2.298   2.780  0.4632 -0.3315  1.0871
 2623TIP3    H229429   2.874   2.394   2.810 -0.3700 -0.8186 -0.4501
 2624TIP3   OH229430   1.888   6.364   0.578  0.2657  0.4189 -0.4309
 2624TIP3    H129431   1.890   6.455   0.548  1.8236  0.2782 -0.7971
 2624TIP3    H229432   1.831   6.366   0.655 -0.1394  1.5965 -0.7380
 2625TIP3   OH229433   5.865   5.632   0.508 -0.0257 -0.4096  0.5105
 2625TIP3    H129434   5.792   5.672   0.555 -1.5999  0.3501 -2.3452
 2625TIP3    H229435   5.825   5.562   0.455  1.3912 -0.4178 -0.6345
 2626TIP3   OH229436   0.004   2.749   2.174 -0.5157 -0.2318  0.3056
 2626TIP3    H129437  -0.056   2.749   2.249 -0.6068  0.8335  0.2467
 2626TIP3    H229438   0.083   2.706   2.208 -1.7663 -3.0209 -0.0471
 2627TIP3   OH229439   2.729   3.883   8.080  0.0110  0.1878  0.1277
 2627TIP3    H129440   2.651   3.836   8.109 -1.0968  1.9167  0.0793
 2627TIP3    H229441   2.695   3.955   8.027  1.7187  0.2663 -0.9093
 2628TIP3   OH229442   0.532   4.954   2.273 -0.3438 -0.0336  1.1744
 2628TIP3    H129443   0.514   4.991   2.359  0.4974  0.8795  0.9764
 2628TIP3    H229444   0.580   5.023   2.227  0.2573 -0.9564  0.3888
 2629TIP3   OH229445   3.899   2.754   7.035  0.5044 -0.0650  0.7285
 2629TIP3    H129446   3.867   2.675   7.078  0.3024 -0.1563  0.4142
 2629TIP3    H229447   3.881   2.824   7.098 -1.1003  0.0148  0.2254
 2630TIP3   OH229448   0.763   5.597   9.036 -0.4910  0.2975  0.0972
 2630TIP3    H129449   0.831   5.654   8.998 -2.0687  2.3301  0.1633
 2630TIP3    H229450   0.759   5.522   8.977  1.0585  0.6401 -0.5004
 2631TIP3   OH229451   0.408   2.292   7.230  0.4530  0.9136 -0.7552
 2631TIP3    H129452   0.493   2.249   7.241  0.4147  0.8883 -0.5414
 2631TIP3    H229453   0.426   2.385   7.247 -0.0411  0.5968  2.0609
 2632TIP3   OH229454   2.996   3.295   8.260 -0.0794 -0.3780  0.2160
 2632TIP3    H129455   2.990   3.235   8.185  0.5018  1.6546 -1.5756
 2632TIP3    H229456   2.911   3.338   8.263 -0.4266 -1.1096  1.3686
 2633TIP3   OH229457   2.227   1.758   0.157 -0.1859  0.0971 -0.2223
 2633TIP3    H129458   2.156   1.796   0.106 -0.6409  3.4981  2.5832
 2633TIP3    H229459   2.187   1.733   0.240  1.3868 -0.5317  0.3922
 2634TIP3   OH229460   4.828   3.847   8.585 -0.4773 -0.1912  0.2603
 2634TIP3    H129461   4.779   3.785   8.531  0.6861 -1.6464  0.8150
 2634TIP3    H229462   4.821   3.812   8.674 -0.5166  0.9641  0.7364
 2635TIP3   OH229463   5.687   3.625   8.254  0.2275 -0.3652  0.5969
 2635TIP3    H129464   5.738   3.544   8.258  0.4432 -0.2269  0.7059
 2635TIP3    H229465   5.597   3.597   8.244  0.4931 -0.6157 -1.7241
 2636TIP3   OH229466   3.217   0.986   2.126  0.3199  0.3739  0.5257
 2636TIP3    H129467   3.158   0.931   2.074  1.0812 -0.1113  0.1614
 2636TIP3    H229468   3.226   0.938   2.209  1.8907 -0.6736 -0.2103
 2637TIP3   OH229469   4.539   2.799   8.866 -0.1180  0.0252 -0.0337
 2637TIP3    H129470   4.555   2.825   8.775 -0.5256  1.7704  0.3564
 2637TIP3    H229471   4.464   2.851   8.893 -0.6907 -1.2657  0.9944
 2638TIP3   OH229472   1.991   5.163   0.119 -0.2596  0.5665  0.3500
 2638TIP3    H129473   1.908   5.181   0.075 -0.4368 -0.4444  0.2571
 2638TIP3    H229474   2.058   5.179   0.052 -0.4854 -0.2409 -0.0878
 2639TIP3   OH229475   3.474   1.907   7.877 -0.5228 -0.2701 -0.1166
 2639TIP3    H129476   3.443   1.842   7.814  0.3626 -1.6166  0.7820
 2639TIP3    H229477   3.460   1.991   7.834  1.9788 -1.1812 -3.0519
 2640TIP3   OH229478   1.091   3.866   8.437  0.4553 -0.0301  0.4526
 2640TIP3    H129479   1.182   3.878   8.464  0.5994  0.2142 -0.1145
 2640TIP3    H229480   1.097   3.848   8.343 -0.2281  2.5249 -0.1598
 2641TIP3   OH229481   6.196   3.129   8.731 -0.1907  0.9549 -0.1368
 2641TIP3    H129482   6.101   3.117   8.730  0.1265 -2.7428  0.3193
 2641TIP3    H229483   6.221   3.118   8.823  0.6745  2.7907 -0.0971
 2642TIP3   OH229484   6.631   4.503   8.767 -0.0157  0.0604  0.7891
 2642TIP3    H129485   6.624   4.493   8.673  0.5238  0.0730  0.7459
 2642TIP3    H229486   6.672   4.422   8.797 -1.6409 -0.6567  1.2120
 2643TIP3   OH229487   3.828   4.948   2.523  0.5340 -0.9938  0.0470
 2643TIP3    H129488   3.733   4.957   2.533  0.7236  0.8672  0.5520
 2643TIP3    H229489   3.862   4.951   2.612  1.1619 -0.1468 -0.2070
 2644TIP3   OH229490   3.690   2.591   7.843  0.1153 -0.2137 -0.4238
 2644TIP3    H129491   3.658   2.678   7.869  0.5405  0.2640 -1.4245
 2644TIP3    H229492   3.724   2.552   7.923 -0.7512  0.2452  0.1824
 2645TIP3   OH229493   5.481   0.724   9.006  0.3876 -0.6145 -0.5152
 2645TIP3    H129494   5.391   0.754   8.994  0.1046 -0.6514  1.2508
 2645TIP3    H229495   5.485   0.642   8.956 -1.0315 -1.4055  0.5812
 2646TIP3   OH229496   0.027   1.957   0.088 -0.6660  0.2328 -0.6721
 2646TIP3    H129497  -0.011   2.004   0.013 -1.7131 -0.9930 -0.9541
 2646TIP3    H229498  -0.049   1.929   0.139  0.0117  0.3358  0.4070
 2647TIP3   OH229499   5.940   3.357   7.458 -0.5386  0.4168  0.5103
 2647TIP3    H129500   5.933   3.436   7.511  2.1993  0.8209  0.4006
 2647TIP3    H229501   5.991   3.384   7.382  0.3369 -1.4059  0.4076
 2648TIP3   OH229502   4.476   3.104   8.250 -0.1735 -0.2203 -0.1620
 2648TIP3    H129503   4.446   3.017   8.277 -1.1528 -0.4277 -1.8228
 2648TIP3    H229504   4.545   3.086   8.186  0.3471  0.2453  0.2632
 2649TIP3   OH229505   0.830   4.571   2.117  0.1799 -0.1235  0.4910
 2649TIP3    H129506   0.856   4.583   2.026  0.4782 -0.0455  0.5881
 2649TIP3    H229507   0.791   4.655   2.142 -0.7831 -0.4445  0.1451
 2650TIP3   OH229508   6.536   1.187   1.844  0.3205 -0.7271  0.4689
 2650TIP3    H129509   6.515   1.107   1.891  1.7327 -2.3066 -1.4190
 2650TIP3    H229510   6.572   1.246   1.910  0.0869 -1.9766  1.7431
 2651TIP3   OH229511   4.414   1.430   7.718  0.0127 -0.2763  0.6523
 2651TIP3    H129512   4.333   1.479   7.706  0.3107  0.4196  1.3778
 2651TIP3    H229513   4.391   1.339   7.698 -0.7949  0.0008  0.2879
 2652TIP3   OH229514   5.552   2.202   0.281  0.6008  0.1199  0.7554
 2652TIP3    H129515   5.584   2.292   0.268  0.3954  0.1619  0.5241
 2652TIP3    H229516   5.545   2.192   0.375  1.8701 -0.0907  0.8443
 2653TIP3   OH229517   6.452   6.075   0.472  0.4897  0.2732 -0.3281
 2653TIP3    H129518   6.466   6.137   0.400 -0.8436  1.0128  0.0274
 2653TIP3    H229519   6.358   6.079   0.490  0.4779 -1.3795  0.1452
 2654TIP3   OH229520   3.019   5.616   1.838 -0.4107 -0.0271  0.4665
 2654TIP3    H129521   3.069   5.694   1.816 -1.8065  0.4668 -1.1284
 2654TIP3    H229522   3.058   5.546   1.785  0.9908 -0.5273  2.0674
 2655TIP3   OH229523   5.857   3.129   1.413  0.2052 -0.5676  0.0615
 2655TIP3    H129524   5.877   3.075   1.336 -0.0985 -0.4854 -0.0763
 2655TIP3    H229525   5.916   3.204   1.406 -1.4208  0.6732 -1.3925
 2656TIP3   OH229526   3.868   0.740   8.223 -0.1972  0.5469  0.2821
 2656TIP3    H129527   3.831   0.667   8.174  1.2680 -0.0580  0.0285
 2656TIP3    H229528   3.813   0.746   8.302 -2.3082  1.2609 -1.1496
 2657TIP3   OH229529   4.757   2.197   2.743  0.0643  0.1246  0.1535
 2657TIP3    H129530   4.742   2.176   2.651  0.7881 -0.4308  0.1555
 2657TIP3    H229531   4.670   2.215   2.777 -0.1068  1.3761 -0.8823
 2658TIP3   OH229532   6.236   0.654   1.124 -0.0715 -0.0699 -0.3942
 2658TIP3    H129533   6.237   0.703   1.206 -2.3993  0.1272 -0.4167
 2658TIP3    H229534   6.322   0.670   1.084  0.2614  1.6358  0.9383
 2659TIP3   OH229535   3.890   3.653   2.243 -0.5582  0.2123  0.0203
 2659TIP3    H129536   3.896   3.743   2.211 -0.0530 -0.5035 -2.0492
 2659TIP3    H229537   3.975   3.636   2.283  0.4398 -0.2080 -2.1449
 2660TIP3   OH229538   5.393   6.293   1.140 -0.0553 -0.2966 -0.2278
 2660TIP3    H129539   5.376   6.210   1.095  0.9492 -0.6718  0.0607
 2660TIP3    H229540   5.481   6.318   1.112 -0.0973  0.3497  0.1921
 2661TIP3   OH229541   5.910   4.592   7.717 -0.0910  0.5499 -0.2538
 2661TIP3    H129542   5.986   4.606   7.661  0.0134 -1.8339 -0.8237
 2661TIP3    H229543   5.843   4.649   7.681  1.0814  1.8837 -0.4118
 2662TIP3   OH229544   2.536   0.356   1.775 -0.0192  0.5064 -0.0698
 2662TIP3    H129545   2.575   0.312   1.699 -0.9517 -0.8310  0.2151
 2662TIP3    H229546   2.610   0.401   1.816  0.6110  0.7627 -1.4112
 2663TIP3   OH229547   2.444   1.543   0.431  0.2016 -0.7899 -0.2641
 2663TIP3    H129548   2.498   1.533   0.509  0.8091 -1.3107 -0.7402
 2663TIP3    H229549   2.504   1.528   0.358 -0.0825  0.8133 -0.8857
 2664TIP3   OH229550   4.707   6.359   8.291  0.7647  0.0027 -0.1863
 2664TIP3    H129551   4.796   6.343   8.321  1.2366  2.7947  0.1238
 2664TIP3    H229552   4.701   6.454   8.281 -2.0199 -0.1400 -0.7337
 2665TIP3   OH229553   0.174   1.248   0.442  0.2102 -0.2653  0.3119
 2665TIP3    H129554   0.167   1.179   0.508 -0.2970  0.2686  0.8169
 2665TIP3    H229555   0.100   1.232   0.383 -0.7332  0.6565  1.2074
 2666TIP3   OH229556   5.757   6.652   7.356  0.3418  0.5465 -0.2675
 2666TIP3    H129557   5.668   6.634   7.327 -0.1621  1.2323  0.8142
 2666TIP3    H229558   5.781   6.734   7.312 -0.0289  1.0229  0.4088
 2667TIP3   OH229559   1.123   3.982   3.134  0.1550 -0.5131  0.0456
 2667TIP3    H129560   1.182   3.993   3.208 -0.1006 -1.1150  0.3497
 2667TIP3    H229561   1.158   3.908   3.086  0.7637  0.3527 -0.8904
 2668TIP3   OH229562   3.124   3.241   8.486  0.1254  0.2897  0.0867
 2668TIP3    H129563   3.097   3.247   8.394 -0.5946 -0.7725  0.2184
 2668TIP3    H229564   3.056   3.188   8.527  0.2045  1.1248  1.3399
 2669TIP3   OH229565   2.604   5.872   8.909  0.3450 -0.4903 -0.0574
 2669TIP3    H129566   2.609   5.862   9.004 -0.1883  0.0142  0.0333
 2669TIP3    H229567   2.689   5.908   8.885  0.2791 -0.0769  0.3093
 2670TIP3   OH229568   4.714   0.965   7.895 -0.5921  0.4349  0.3324
 2670TIP3    H129569   4.746   0.908   7.964  1.6855  0.7010 -0.4124
 2670TIP3    H229570   4.686   1.044   7.941 -1.2045 -0.2277  1.1256
 2671TIP3   OH229571   5.132   0.198   1.030  0.4714 -0.2483  0.0554
 2671TIP3    H129572   5.118   0.109   1.065  0.1170  0.2355  1.2051
 2671TIP3    H229573   5.104   0.255   1.101 -1.1489  0.8147 -1.3584
 2672TIP3   OH229574   0.682   4.405   0.075 -0.2455 -0.0638 -0.6120
 2672TIP3    H129575   0.697   4.402  -0.019  1.2299 -0.4088 -0.3950
 2672TIP3    H229576   0.593   4.372   0.086 -1.5868  2.7056 -2.0822
 2673TIP3   OH229577   0.299   2.878   9.059  0.1077  0.2500  0.2181
 2673TIP3    H129578   0.354   2.807   9.093 -0.9349 -0.6129  0.1822
 2673TIP3    H229579   0.319   2.881   8.965 -1.5421 -1.6844 -0.2881
 2674TIP3   OH229580   2.546   0.070   0.673  0.2897 -0.0961 -0.6703
 2674TIP3    H129581   2.600   0.146   0.691  1.0093 -0.5168 -0.9978
 2674TIP3    H229582   2.507   0.087   0.588  0.5096 -0.1201 -0.7770
 2675TIP3   OH229583   1.253   2.677   7.636 -0.5391  0.2249 -0.3004
 2675TIP3    H129584   1.316   2.622   7.590  0.4498  0.3388  0.8542
 2675TIP3    H229585   1.183   2.617   7.661  0.5283 -0.5684  0.9541
 2676TIP3   OH229586   2.202   3.769   0.242  0.4659 -0.1730 -0.3967
 2676TIP3    H129587   2.275   3.831   0.240  1.0363 -0.7253  1.4599
 2676TIP3    H229588   2.138   3.809   0.302  0.1624 -0.6608 -0.3860
 2677TIP3   OH229589   3.729   3.203   8.422 -0.1619 -0.0388 -0.6286
 2677TIP3    H129590   3.651   3.149   8.436  0.0845  0.0639  1.3289
 2677TIP3    H229591   3.791   3.144   8.378 -0.3310 -1.0157  0.3899
 2678TIP3   OH229592   1.324   1.788   8.538  0.2737 -0.3119 -0.7423
 2678TIP3    H129593   1.306   1.860   8.599  0.0126 -0.0642 -1.1148
 2678TIP3    H229594   1.322   1.828   8.452  0.0361 -0.7851 -0.9586
 2679TIP3   OH229595   4.646   2.815   2.469  0.4192 -0.3298  0.1728
 2679TIP3    H129596   4.592   2.893   2.484  0.4306 -0.1827 -0.5130
 2679TIP3    H229597   4.588   2.742   2.490 -0.1554 -0.1845 -0.8154
 2680TIP3   OH229598   2.372   5.904   1.555  0.3041 -0.2154 -0.7295
 2680TIP3    H129599   2.422   5.948   1.624  1.2145 -1.7358 -0.3723
 2680TIP3    H229600   2.418   5.821   1.541 -2.5508 -2.0709  0.1484
 2681TIP3   OH229601   4.094   2.020   7.252 -0.4578  0.0444 -0.3073
 2681TIP3    H129602   4.168   1.992   7.305 -1.8701  0.5725  2.1045
 2681TIP3    H229603   4.030   1.949   7.259 -1.8558  1.3567  1.3060
 2682TIP3   OH229604   5.270   4.234   7.535  0.1785 -0.1337  0.3197
 2682TIP3    H129605   5.208   4.304   7.553 -0.4976 -0.5718 -0.2593
 2682TIP3    H229606   5.222   4.173   7.479  0.5052 -1.4225  1.3910
 2683TIP3   OH229607   2.898   2.331   0.119 -0.3041 -0.5036 -0.6030
 2683TIP3    H129608   2.956   2.406   0.119  0.4940 -1.0803  1.0909
 2683TIP3    H229609   2.824   2.358   0.064  1.2470  0.4597 -2.3124
 2684TIP3   OH229610   6.155   2.348   0.049 -0.1745  0.1548  0.2631
 2684TIP3    H129611   6.171   2.259   0.081 -0.1068  0.2984  0.6386
 2684TIP3    H229612   6.213   2.403   0.102  0.6725  0.3048 -0.7719
 2685TIP3   OH229613   6.139   0.717   0.635  0.5968 -0.3202  0.0934
 2685TIP3    H129614   6.063   0.769   0.660  0.0329 -0.0306 -2.0740
 2685TIP3    H229615   6.105   0.628   0.625  0.6362 -0.2691 -0.4847
 2686TIP3   OH229616   1.122   4.724   1.090 -0.4503 -0.3483  0.6156
 2686TIP3    H129617   1.104   4.806   1.043  2.6211  0.5831  0.8930
 2686TIP3    H229618   1.062   4.660   1.050 -0.0169  1.0524 -2.5634
 2687TIP3   OH229619   3.718   1.824   7.917  0.2014  0.6385 -0.4164
 2687TIP3    H129620   3.733   1.782   7.832  0.4993  0.5947 -0.3444
 2687TIP3    H229621   3.631   1.864   7.909 -0.2851 -0.3710 -0.3286
 2688TIP3   OH229622   1.525   5.305   2.477  0.1594  0.3023  0.4180
 2688TIP3    H129623   1.441   5.284   2.437 -0.1631  2.2264 -0.0118
 2688TIP3    H229624   1.518   5.398   2.501  2.1923  0.5547  0.2329
 2689TIP3   OH229625   1.402   6.199   8.507  0.1003 -0.0173  0.1621
 2689TIP3    H129626   1.494   6.174   8.494  0.1543  0.8505 -1.3262
 2689TIP3    H229627   1.369   6.215   8.419 -0.8995  1.6885  0.8028
 2690TIP3   OH229628   0.953   4.182   1.773 -0.4265  0.0385 -0.1136
 2690TIP3    H129629   0.989   4.243   1.708  0.6442 -0.5019 -0.0657
 2690TIP3    H229630   0.871   4.221   1.801 -0.9496  0.2682 -1.8406
 2691TIP3   OH229631   0.510   0.021   0.965 -0.2742 -0.6345 -0.0937
 2691TIP3    H129632   0.602   0.039   0.984  0.2049 -1.9932 -0.9304
 2691TIP3    H229633   0.491   0.072   0.886 -0.3153 -0.1844  0.2021
 2692TIP3   OH229634   2.332   4.444   0.540 -0.3290  0.3197 -0.6205
 2692TIP3    H129635   2.349   4.533   0.574 -1.7406  0.6482 -0.6916
 2692TIP3    H229636   2.411   4.395   0.561 -0.5537  0.8785  1.9407
 2693TIP3   OH229637   1.643   1.461   7.970 -0.1994 -0.0477  0.2445
 2693TIP3    H129638   1.556   1.447   8.009 -0.5497  2.7727  0.7323
 2693TIP3    H229639   1.678   1.536   8.018  2.2492 -0.6841 -0.4220
 2694TIP3   OH229640   1.777   4.575   0.325  1.3003 -0.0556  0.0536
 2694TIP3    H129641   1.837   4.650   0.325  1.1370  0.0773 -0.4310
 2694TIP3    H229642   1.700   4.606   0.278  0.5345  0.0223  1.2914
 2695TIP3   OH229643   5.270   3.378   1.150 -0.1139  0.7852 -0.0660
 2695TIP3    H129644   5.320   3.395   1.230 -2.2838  0.1593  1.5367
 2695TIP3    H229645   5.292   3.287   1.127 -0.3143  0.5881  0.4992
 2696TIP3   OH229646   2.686   0.190   7.536  0.1012 -0.1135 -0.0986
 2696TIP3    H129647   2.756   0.255   7.539 -0.0621  0.0690 -0.1788
 2696TIP3    H229648   2.706   0.136   7.460  1.4683 -1.5764  1.2252
 2697TIP3   OH229649   0.003   5.140   0.215 -0.1520 -0.1997 -0.9226
 2697TIP3    H129650   0.043   5.187   0.142 -0.1583  0.9560 -0.2110
 2697TIP3    H229651   0.077   5.102   0.262 -0.0575  0.0606 -0.8601
 2698TIP3   OH229652   0.105   3.899   8.222 -0.6244 -0.0102  0.0755
 2698TIP3    H129653   0.081   3.919   8.132  0.1888 -1.2059 -0.4265
 2698TIP3    H229654   0.029   3.927   8.273 -3.1231 -3.3769 -1.4004
 2699TIP3   OH229655   2.501   1.342   8.699 -0.9430  0.3213 -0.2300
 2699TIP3    H129656   2.446   1.367   8.773 -2.4477 -0.2805 -1.1063
 2699TIP3    H229657   2.475   1.401   8.628 -0.3892  0.0835 -0.6408
 2700TIP3   OH229658   0.830   2.681   2.916  0.0651 -0.2448  0.1151
 2700TIP3    H129659   0.753   2.726   2.949 -0.4242 -0.2480 -0.9985
 2700TIP3    H229660   0.903   2.738   2.939 -0.3771  0.2866  0.2220
 2701TIP3   OH229661   1.657   3.441   8.499  0.4601 -0.1657 -0.4200
 2701TIP3    H129662   1.654   3.473   8.409 -0.1726  0.3584 -0.2210
 2701TIP3    H229663   1.694   3.514   8.550  0.5026 -0.3353 -0.2037
 2702TIP3   OH229664   5.977   2.910   9.273  0.3271 -0.3351  0.3884
 2702TIP3    H129665   5.973   2.976   9.203 -0.2528  0.1569  0.8679
 2702TIP3    H229666   6.016   2.833   9.232 -0.3395 -0.1741 -0.5773
 2703TIP3   OH229667   1.755   2.648   0.437  0.1823  0.3052  0.1242
 2703TIP3    H129668   1.756   2.587   0.364  0.0948 -1.0091  1.1928
 2703TIP3    H229669   1.847   2.672   0.450  0.1347  1.0826 -0.8160
 2704TIP3   OH229670   5.721   4.738   3.416  0.6971 -0.3568 -0.1024
 2704TIP3    H129671   5.787   4.764   3.352 -0.1292  1.6289 -0.2065
 2704TIP3    H229672   5.729   4.642   3.421  2.0542 -0.3728 -1.7424
 2705TIP3   OH229673   2.936   3.821   2.002  0.2112  0.1207 -0.3013
 2705TIP3    H129674   2.965   3.909   2.025 -0.9091  0.0972  1.3172
 2705TIP3    H229675   3.011   3.765   2.024  0.7458  0.5842 -0.8784
 2706TIP3   OH229676   5.225   2.308   0.490  0.3611 -0.3828 -0.4488
 2706TIP3    H129677   5.314   2.275   0.504  0.3375 -0.3925 -0.3220
 2706TIP3    H229678   5.231   2.359   0.410  0.4948 -0.3359 -0.4098
 2707TIP3   OH229679   6.507   5.757   8.749 -0.2017  0.0106 -0.4884
 2707TIP3    H129680   6.496   5.788   8.839 -0.3872 -1.0964 -0.1089
 2707TIP3    H229681   6.602   5.744   8.740  0.0345  1.8477 -1.0795
 2708TIP3   OH229682   1.103   6.576   0.089  0.3675  0.3067 -0.2047
 2708TIP3    H129683   1.097   6.481   0.077 -1.7267  0.6531 -3.4743
 2708TIP3    H229684   1.047   6.595   0.164  0.0161 -1.0024 -0.1156
 2709TIP3   OH229685   3.992   3.535   0.391 -0.3780 -0.1024 -0.0584
 2709TIP3    H129686   3.946   3.601   0.340  0.8499  0.7869 -0.0562
 2709TIP3    H229687   3.926   3.469   0.410 -0.9164 -0.4285 -2.7087
 2710TIP3   OH229688   4.412   5.739   2.909 -0.1610 -0.1350 -0.1672
 2710TIP3    H129689   4.462   5.657   2.915 -2.4227 -1.5711  0.3632
 2710TIP3    H229690   4.356   5.727   2.832 -2.1786 -0.1228  1.2369
 2711TIP3   OH229691   5.450   3.821   3.045 -0.3661  0.0157 -0.1999
 2711TIP3    H129692   5.457   3.833   3.140 -1.9457 -0.0102 -0.0561
 2711TIP3    H229693   5.510   3.886   3.008  0.3649 -0.0671  0.8205
 2712TIP3   OH229694   1.627   4.179   0.805  0.4184  0.3936 -0.0246
 2712TIP3    H129695   1.668   4.186   0.719  0.1586  1.6158 -0.0632
 2712TIP3    H229696   1.689   4.220   0.865  0.8454 -0.9214  0.4832
 2713TIP3   OH229697   3.256   1.679   8.243 -0.0764  0.4754  0.2080
 2713TIP3    H129698   3.203   1.605   8.270 -1.3363  1.3156  0.1475
 2713TIP3    H229699   3.277   1.662   8.151 -0.4818  0.2648  0.1527
 2714TIP3   OH229700   5.075   1.727   0.279 -0.1563  0.2300  0.3762
 2714TIP3    H129701   5.166   1.709   0.304 -0.6150 -1.4204  0.9667
 2714TIP3    H229702   5.080   1.747   0.185  1.0107  1.9289  0.7520
 2715TIP3   OH229703   4.666   1.825   8.421 -0.1936  0.0737 -0.1765
 2715TIP3    H129704   4.676   1.909   8.377 -0.3451  0.3615  0.3250
 2715TIP3    H229705   4.594   1.839   8.484  0.8526  0.0741  1.0708
 2716TIP3   OH229706   6.574   1.654   1.842  0.4736  0.2742 -0.3290
 2716TIP3    H129707   6.601   1.730   1.893  0.0934  0.7125 -0.7668
 2716TIP3    H229708   6.655   1.610   1.819  0.6048 -1.2346  2.5730
 2717TIP3   OH229709   2.900   4.187   9.261 -0.3928  0.2497 -0.6469
 2717TIP3    H129710   2.826   4.210   9.318 -0.2427 -0.0200 -0.3402
 2717TIP3    H229711   2.933   4.271   9.229 -1.1707  0.3524 -1.2242
 2718TIP3   OH229712   1.118   3.301   9.040 -0.1134 -0.1428 -0.4919
 2718TIP3    H129713   1.179   3.374   9.034  0.8714 -0.9027  0.0467
 2718TIP3    H229714   1.115   3.280   9.134 -0.8122 -0.4468 -0.5768
 2719TIP3   OH229715   3.172   4.463   8.916  0.2041  0.4518 -0.3589
 2719TIP3    H129716   3.151   4.419   8.999 -0.7596  1.3767 -0.0896
 2719TIP3    H229717   3.234   4.404   8.873  1.9150  0.6401  1.6862
 2720TIP3   OH229718   6.151   1.583   0.518  0.1082  0.0591  0.3839
 2720TIP3    H129719   6.065   1.545   0.540 -0.8151  0.7302 -1.8006
 2720TIP3    H229720   6.211   1.509   0.524 -1.0619 -1.0139 -0.4632
 2721TIP3   OH229721   1.232   5.479   0.451  0.0740 -0.2701  0.0975
 2721TIP3    H129722   1.255   5.513   0.364 -0.1572  2.6888  1.0698
 2721TIP3    H229723   1.309   5.496   0.504 -0.3354 -0.6266  0.8164
 2722TIP3   OH229724   2.688   2.664   0.636 -0.3109 -0.4581  0.3095
 2722TIP3    H129725   2.655   2.655   0.547 -0.0036 -0.2927  0.1762
 2722TIP3    H229726   2.775   2.622   0.633 -0.2572 -0.3605  0.5046
 2723TIP3   OH229727   6.070   2.080   9.249  0.1158  0.4651  0.0373
 2723TIP3    H129728   6.073   2.010   9.184 -0.9411 -0.9106  1.3866
 2723TIP3    H229729   5.976   2.094   9.265  0.3412  1.3673  0.6414
 2724TIP3   OH229730   2.854   5.520   1.538  0.0791  0.4923  0.3594
 2724TIP3    H129731   2.922   5.452   1.534  0.5694  1.0309 -1.6327
 2724TIP3    H229732   2.897   5.595   1.579  0.0878  0.2269  0.8502
 2725TIP3   OH229733   4.117   1.145   1.348  0.1568 -0.2458 -0.2729
 2725TIP3    H129734   4.170   1.217   1.383 -0.2103 -0.3055  0.4343
 2725TIP3    H229735   4.064   1.117   1.423 -1.0774 -0.0038 -1.0371
 2726TIP3   OH229736   0.362   2.387   0.524 -0.1320 -0.3693 -0.0835
 2726TIP3    H129737   0.361   2.405   0.618 -0.1770  0.4901 -0.2383
 2726TIP3    H229738   0.318   2.302   0.515  0.7490 -0.9438  0.7612
 2727TIP3   OH229739   1.100   4.404   0.081 -0.1201  0.4749  0.3321
 2727TIP3    H129740   1.054   4.474   0.126  1.7377  1.9990  0.0007
 2727TIP3    H229741   1.064   4.323   0.117 -2.6084  1.5563  0.4447
 2728TIP3   OH229742   1.634   6.364   0.252  0.1912 -0.3706 -0.8082
 2728TIP3    H129743   1.596   6.386   0.337 -1.5955 -0.5540 -1.5056
 2728TIP3    H229744   1.706   6.304   0.272  0.0588 -0.1002  0.5824
 2729TIP3   OH229745   6.631   0.948   8.541 -0.0549 -0.1352  0.0365
 2729TIP3    H129746   6.701   0.994   8.494  0.6675 -0.2161  1.0080
 2729TIP3    H229747   6.568   1.016   8.564 -0.0299  0.0248 -0.3698
 2730TIP3   OH229748   3.654   4.308   3.031 -0.0278 -0.6027 -0.1525
 2730TIP3    H129749   3.721   4.241   3.037 -0.2422 -0.7458  0.7197
 2730TIP3    H229750   3.617   4.314   3.119  1.5328  2.2701  0.4339
 2731TIP3   OH229751   3.031   3.399   9.002 -0.1265 -0.8131 -0.0591
 2731TIP3    H129752   3.026   3.466   8.934  0.7643  0.2770  0.9212
 2731TIP3    H229753   3.061   3.321   8.955  1.1313  0.0905 -0.8271
 2732TIP3   OH229754   5.470   0.025   0.040  0.7317 -0.1757 -1.1121
 2732TIP3    H129755   5.553   0.071   0.050 -0.2235  1.3519  0.2238
 2732TIP3    H229756   5.403   0.094   0.039 -0.7152 -1.4618  0.4046
 2733TIP3   OH229757   1.687   6.451   1.668 -0.6319  0.3337 -0.4082
 2733TIP3    H129758   1.693   6.392   1.592 -1.1714  1.3853 -1.2977
 2733TIP3    H229759   1.623   6.409   1.726 -0.3078 -0.4240 -0.5843
 2734TIP3   OH229760   0.854   6.265   0.420 -0.4537  0.3098 -1.2236
 2734TIP3    H129761   0.886   6.350   0.391 -1.4857  1.0809 -0.2098
 2734TIP3    H229762   0.903   6.247   0.500 -0.6768  0.2397 -1.1021
 2735TIP3   OH229763   2.454   4.371   8.686 -0.1652  0.3772 -0.4651
 2735TIP3    H129764   2.547   4.360   8.706 -0.5902 -2.6770  0.1769
 2735TIP3    H229765   2.452   4.386   8.591  0.9286 -0.6977 -0.6861
 2736TIP3   OH229766   6.371   2.143   7.663  0.4090  0.3286  0.3828
 2736TIP3    H129767   6.345   2.215   7.720  0.0264  0.5525 -0.0758
 2736TIP3    H229768   6.323   2.067   7.697 -1.8938  0.9816 -1.2334
 2737TIP3   OH229769   2.498   1.772   0.210 -0.1641 -0.0433 -0.5622
 2737TIP3    H129770   2.503   1.865   0.189 -0.3953  0.9264  3.1084
 2737TIP3    H229771   2.407   1.748   0.192 -0.2515  0.5542 -0.9672
 2738TIP3   OH229772   6.344   0.559   1.454 -0.2481  0.2593  0.1942
 2738TIP3    H129773   6.334   0.645   1.413 -0.7016 -0.7161 -1.8569
 2738TIP3    H229774   6.255   0.536   1.482  0.0147  0.7999  1.5371
 2739TIP3   OH229775   4.901   5.775   0.312  0.7793 -0.4680 -0.0618
 2739TIP3    H129776   4.868   5.811   0.394 -0.8221 -1.7082 -0.0994
 2739TIP3    H229777   4.865   5.833   0.245 -2.6061 -2.4164 -0.1938
 2740TIP3   OH229778   4.385   0.883   7.689  0.3571  0.4158  0.8959
 2740TIP3    H129779   4.384   0.832   7.607  0.7847 -0.7316  1.5758
 2740TIP3    H229780   4.476   0.913   7.697  0.0906  1.3768  0.4625
 2741TIP3   OH229781   1.488   6.246   8.948 -0.3230 -0.3123  0.2860
 2741TIP3    H129782   1.426   6.197   9.002  0.6435 -2.7963 -0.6907
 2741TIP3    H229783   1.527   6.311   9.007 -1.7939 -0.5997  1.6101
 2742TIP3   OH229784   3.348   3.568   9.273 -0.3385 -0.7480  0.3570
 2742TIP3    H129785   3.441   3.589   9.272 -0.6860  0.9363 -0.8892
 2742TIP3    H229786   3.314   3.612   9.351 -0.6029  1.4107 -0.8907
 2743TIP3   OH229787   1.811   2.893   7.072 -0.0196 -0.1869 -0.0653
 2743TIP3    H129788   1.733   2.851   7.110  0.4922 -1.6125 -0.5282
 2743TIP3    H229789   1.885   2.846   7.111  0.5529 -0.5857 -1.5426
 2744TIP3   OH229790   4.462   4.096   1.890 -0.3139  0.3916  0.1026
 2744TIP3    H129791   4.486   4.176   1.936  0.5349  0.0813  0.2084
 2744TIP3    H229792   4.370   4.109   1.866 -0.3767  1.1167  0.7021
 2745TIP3   OH229793   2.953   2.214   0.523 -0.0503 -0.3925 -0.1667
 2745TIP3    H129794   2.885   2.265   0.479 -0.5437 -1.8747 -1.2239
 2745TIP3    H229795   3.035   2.254   0.495 -0.3426 -1.3792 -2.6921
 2746TIP3   OH229796   0.470   2.899   1.813 -1.0044 -0.2604  0.1924
 2746TIP3    H129797   0.471   2.991   1.838  1.0166 -0.4180  0.8674
 2746TIP3    H229798   0.457   2.852   1.896  2.2268 -0.6576  0.6199
 2747TIP3   OH229799   3.729   4.853   1.534 -0.5852 -0.4828 -0.2475
 2747TIP3    H129800   3.738   4.814   1.447  0.5382  0.6229 -0.6613
 2747TIP3    H229801   3.726   4.779   1.594 -1.4476 -1.2662 -1.2293
 2748TIP3   OH229802   2.860   6.050   0.554 -0.1842  0.1172 -0.2673
 2748TIP3    H129803   2.948   6.085   0.567  0.0305 -0.2620 -0.6562
 2748TIP3    H229804   2.811   6.121   0.512 -0.8236  1.2776  2.2515
 2749TIP3   OH229805   4.067   3.262   0.165  0.0241  0.4157 -0.3251
 2749TIP3    H129806   4.007   3.268   0.239  0.1325 -0.4093 -0.1577
 2749TIP3    H229807   4.068   3.169   0.143 -0.7917  0.7705 -2.0165
 2750TIP3   OH229808   1.141   1.164   8.242  0.1411 -0.0527 -0.3766
 2750TIP3    H129809   1.068   1.155   8.181 -0.1336  1.3144 -0.2775
 2750TIP3    H229810   1.187   1.243   8.213  0.9166 -0.2474  0.2636
 2751TIP3   OH229811   2.576   5.594   2.274 -0.4630 -0.6096 -0.0575
 2751TIP3    H129812   2.528   5.670   2.305  2.4187  0.5941  1.8796
 2751TIP3    H229813   2.582   5.606   2.179 -1.1084  0.9000  0.0719
 2752TIP3   OH229814   2.816   1.721   0.914  1.0054 -0.9555 -0.1439
 2752TIP3    H129815   2.884   1.687   0.856  0.7941 -0.6278 -0.5908
 2752TIP3    H229816   2.765   1.643   0.938  1.0370 -1.0829 -0.4762
 2753TIP3   OH229817   3.342   5.921   8.366 -0.1486 -0.6523 -0.6277
 2753TIP3    H129818   3.400   5.996   8.379 -2.0378  0.3971  3.6955
 2753TIP3    H229819   3.344   5.873   8.449 -2.8451 -2.4615 -1.4384
 2754TIP3   OH229820   2.005   0.566   1.686 -0.6508  0.0752 -0.4253
 2754TIP3    H129821   1.953   0.534   1.759 -0.7684  1.1313 -0.0320
 2754TIP3    H229822   1.943   0.572   1.613 -0.6638 -0.4289 -0.4542
 2755TIP3   OH229823   5.848   2.297   1.254  0.2395 -0.0126 -0.1070
 2755TIP3    H129824   5.753   2.307   1.254  0.2120 -0.1730  0.9180
 2755TIP3    H229825   5.882   2.386   1.264  0.2128  0.0996 -0.9809
 2756TIP3   OH229826   3.812   2.919   3.077  0.2266  0.0311  0.1410
 2756TIP3    H129827   3.821   3.011   3.054  0.7674  0.0300  0.3156
 2756TIP3    H229828   3.719   2.900   3.068 -0.2064  1.0808  1.8585
 2757TIP3   OH229829   1.416   4.136   3.322 -0.0708 -0.3098 -0.4011
 2757TIP3    H129830   1.350   4.185   3.273 -0.5087  0.4588  0.9007
 2757TIP3    H229831   1.490   4.129   3.261 -0.7942  0.1258 -1.3593
 2758TIP3   OH229832   3.460   6.532   2.340  0.4558  0.0860  0.4796
 2758TIP3    H129833   3.412   6.473   2.397 -0.6989  1.6639  1.1943
 2758TIP3    H229834   3.402   6.607   2.328  1.7344  0.9408 -0.6718
 2759TIP3   OH229835   2.374   4.202   0.841 -0.1058  0.3316 -0.0028
 2759TIP3    H129836   2.299   4.241   0.796  0.5866  0.4962 -1.0574
 2759TIP3    H229837   2.445   4.266   0.829  0.2671  0.0806  0.7920
 2760TIP3   OH229838   3.142   4.636   0.337 -0.3645 -0.3653 -0.1820
 2760TIP3    H129839   3.120   4.544   0.325  0.3348 -0.7914  1.4882
 2760TIP3    H229840   3.058   4.681   0.337 -0.8223 -1.2001  0.4632
 2761TIP3   OH229841   6.332   5.964   1.340 -0.4010  0.8769  0.0628
 2761TIP3    H129842   6.247   5.922   1.337 -0.4203  0.9708 -1.0489
 2761TIP3    H229843   6.395   5.892   1.345 -0.4972  0.7647 -0.3273
 2762TIP3   OH229844   1.392   3.523   9.054 -0.2648  0.4259 -0.1909
 2762TIP3    H129845   1.343   3.539   9.134 -0.4182 -0.2651 -0.1392
 2762TIP3    H229846   1.347   3.574   8.987 -1.9888 -1.3140 -0.4558
 2763TIP3   OH229847   1.633   1.344   9.077  0.0014  0.3373 -0.0951
 2763TIP3    H129848   1.549   1.344   9.031 -0.3316  3.3092  0.3452
 2763TIP3    H229849   1.686   1.408   9.031  1.0554  0.5045  1.2852
 2764TIP3   OH229850   4.560   3.391   2.633  0.7307 -0.4467 -0.1308
 2764TIP3    H129851   4.515   3.408   2.550  0.5955 -1.1843 -0.2139
 2764TIP3    H229852   4.646   3.359   2.608  1.4113  1.1622  0.0311
 2765TIP3   OH229853   1.895   0.446   2.001  0.1414  0.4070  0.6336
 2765TIP3    H129854   1.829   0.400   1.950  0.8890 -0.2397  0.2217
 2765TIP3    H229855   1.846   0.491   2.069 -0.5604 -2.3492  2.1093
 2766TIP3   OH229856   0.304   4.550   0.115 -0.3073  0.3406 -0.0597
 2766TIP3    H129857   0.226   4.588   0.074 -0.2680 -0.0196 -0.4615
 2766TIP3    H229858   0.348   4.502   0.045  0.2265  0.4607  0.1895
 2767TIP3   OH229859   3.870   5.560   1.968 -0.0119  0.1167  0.1631
 2767TIP3    H129860   3.931   5.551   1.895  0.3822  0.9028  0.3962
 2767TIP3    H229861   3.905   5.631   2.021 -1.6385  1.2609 -0.2220
 2768TIP3   OH229862   5.304   2.474   7.414  0.4488  0.1154  0.7037
 2768TIP3    H129863   5.270   2.486   7.325  0.2599  0.0538  0.7683
 2768TIP3    H229864   5.364   2.399   7.406  0.0797 -0.1875  0.7224
 2769TIP3   OH229865   6.268   3.466   0.956 -0.0835 -0.0590 -0.1658
 2769TIP3    H129866   6.304   3.554   0.966  1.0204 -0.0671 -3.0092
 2769TIP3    H229867   6.181   3.471   0.995  0.3252  1.9862  0.6349
 2770TIP3   OH229868   1.745   5.120   3.290  0.4664  0.3231  0.3122
 2770TIP3    H129869   1.810   5.058   3.322 -0.2426  0.3832  1.9627
 2770TIP3    H229870   1.674   5.065   3.255  0.9252  0.2503 -0.5264
 2771TIP3   OH229871   6.563   3.237   1.269  0.0381  0.0757  0.0304
 2771TIP3    H129872   6.535   3.155   1.228  2.4084 -0.7428 -0.1109
 2771TIP3    H229873   6.592   3.291   1.195 -2.7118  1.6463 -0.0188
 2772TIP3   OH229874   1.078   6.612   3.027 -0.9011  0.7107  0.0988
 2772TIP3    H129875   1.014   6.650   3.088 -1.4039  1.4372 -0.8503
 2772TIP3    H229876   1.159   6.661   3.043 -2.1551  4.2229 -2.8650
 2773TIP3   OH229877   1.598   4.794   8.798 -0.2263  0.5086 -0.1162
 2773TIP3    H129878   1.642   4.726   8.848  1.6376  1.2121 -0.6750
 2773TIP3    H229879   1.532   4.748   8.746 -0.7171 -0.4981  1.3634
 2774TIP3   OH229880   1.160   6.493   7.892 -0.5214  0.2700 -0.0633
 2774TIP3    H129881   1.199   6.484   7.979 -0.3398 -4.2411 -0.3950
 2774TIP3    H229882   1.069   6.517   7.909 -0.6206 -0.9940  1.4516
 2775TIP3   OH229883   4.914   2.905   2.395  0.5480  0.3775 -0.4115
 2775TIP3    H129884   4.828   2.866   2.378  1.5605 -1.2843 -2.1730
 2775TIP3    H229885   4.910   2.991   2.352 -0.3705  0.5097 -0.0807
 2776TIP3   OH229886   3.544   0.802   2.273 -0.2976 -0.0695  0.3736
 2776TIP3    H129887   3.456   0.766   2.263  0.1233 -0.7404 -1.1508
 2776TIP3    H229888   3.542   0.886   2.227  0.2423 -0.7844 -1.0108
 2777TIP3   OH229889   0.301   1.778   1.840  0.1280 -0.1080 -0.1835
 2777TIP3    H129890   0.365   1.841   1.873 -1.3015  0.7840  0.9550
 2777TIP3    H229891   0.352   1.722   1.781  2.8992 -1.8394  3.4762
 2778TIP3   OH229892   0.486   3.438   1.946  0.2647  0.0601 -0.2779
 2778TIP3    H129893   0.394   3.461   1.962  0.4358 -0.2063  1.3264
 2778TIP3    H229894   0.483   3.349   1.911 -0.0743 -0.1951  0.3804
 2779TIP3   OH229895   3.732   1.457   2.254  0.2821  0.1100  0.0649
 2779TIP3    H129896   3.785   1.534   2.234  1.5967 -0.4532  1.2343
 2779TIP3    H229897   3.795   1.385   2.258 -0.8685 -0.9784 -0.6177
 2780TIP3   OH229898   1.234   4.614   8.767  0.1455  0.5114  0.3100
 2780TIP3    H129899   1.197   4.595   8.681 -0.2655 -1.4531  0.8690
 2780TIP3    H229900   1.158   4.622   8.825  0.4561  0.2657  0.7633
 2781TIP3   OH229901   3.429   3.103   8.820 -0.0720 -0.1142 -0.0758
 2781TIP3    H129902   3.403   3.016   8.850  1.2752 -0.6504 -0.3466
 2781TIP3    H229903   3.376   3.119   8.743 -1.7976  0.2120  1.1322
 2782TIP3   OH229904   3.581   5.810   8.188  0.5243 -0.0198  0.0485
 2782TIP3    H129905   3.528   5.848   8.259 -0.4831 -1.3787  0.0514
 2782TIP3    H229906   3.556   5.860   8.110  0.0707  0.0864  0.2576
 2783TIP3   OH229907   6.648   1.233   7.906 -0.4372 -0.0519 -0.2994
 2783TIP3    H129908   6.712   1.175   7.946  0.2986  1.8330  1.4426
 2783TIP3    H229909   6.563   1.200   7.937 -0.1588 -1.0114 -0.5140
 2784TIP3   OH229910   0.678   1.004   7.920 -0.5553 -0.3314  0.4356
 2784TIP3    H129911   0.694   1.092   7.953 -1.1830  0.1260 -0.4512
 2784TIP3    H229912   0.596   1.010   7.872 -1.3341 -1.7216  1.5164
 2785TIP3   OH229913   1.205   1.971   2.343 -0.2192 -0.5386 -0.5282
 2785TIP3    H129914   1.256   2.034   2.291 -0.1777  0.2875  0.4646
 2785TIP3    H229915   1.253   1.965   2.426 -1.6290  0.1526  0.3780
 2786TIP3   OH229916   5.405   1.053   0.918  0.1935 -0.5751  0.2282
 2786TIP3    H129917   5.325   1.074   0.870 -0.0363  0.6184  1.0878
 2786TIP3    H229918   5.446   0.984   0.866 -1.1232 -0.8459 -0.5076
 2787TIP3   OH229919   1.299   1.524   2.926  0.3942 -0.4132 -0.1337
 2787TIP3    H129920   1.371   1.563   2.975 -0.6212  1.2426  0.1266
 2787TIP3    H229921   1.221   1.568   2.960 -0.6937 -1.7723 -0.7761
 2788TIP3   OH229922   0.346   3.988   0.242  0.0164  1.0256 -0.4832
 2788TIP3    H129923   0.421   3.930   0.242  0.7108  1.8827 -1.5799
 2788TIP3    H229924   0.332   4.009   0.334  0.4411  0.0233 -0.1733
 2789TIP3   OH229925   5.891   3.604   2.332  0.2510 -0.2870 -0.3637
 2789TIP3    H129926   5.938   3.536   2.283  3.6792  0.9846  0.8875
 2789TIP3    H229927   5.873   3.672   2.267  0.2695 -0.7235 -0.8365
 2790TIP3   OH229928   0.383   3.308   1.327  0.4433  0.4826 -0.5440
 2790TIP3    H129929   0.300   3.282   1.368  1.2598  0.2907  1.0435
 2790TIP3    H229930   0.361   3.320   1.234 -0.6739 -2.7722 -0.8207
 2791TIP3   OH229931   4.719   2.410   0.538  1.0424  0.0328 -0.2283
 2791TIP3    H129932   4.749   2.322   0.514  0.9899 -0.4089  1.2058
 2791TIP3    H229933   4.631   2.416   0.500  0.9920 -0.5921 -0.2300
 2792TIP3   OH229934   5.158   5.730   1.699 -0.4111 -0.3393 -0.0992
 2792TIP3    H129935   5.173   5.719   1.605  2.6116 -3.4008  0.5542
 2792TIP3    H229936   5.207   5.809   1.722 -1.1554  0.4188 -1.0229
 2793TIP3   OH229937   0.343   4.242   2.951 -0.2008 -0.4135 -0.1391
 2793TIP3    H129938   0.278   4.173   2.965 -1.1426  0.9219  3.0045
 2793TIP3    H229939   0.417   4.217   3.008 -0.1596  0.6575  0.2898
 2794TIP3   OH229940   3.174   2.981   9.098  0.0024 -0.0126 -0.1970
 2794TIP3    H129941   3.241   2.946   9.039  1.7073  0.9010  1.1122
 2794TIP3    H229942   3.210   3.063   9.131 -1.5511  0.2707  0.9549
 2795TIP3   OH229943   4.790   6.161   8.467 -0.0989  0.3185  0.0850
 2795TIP3    H129944   4.768   6.111   8.546  0.4835  0.6991  0.4944
 2795TIP3    H229945   4.834   6.240   8.499 -0.2280  0.6842 -0.5998
 2796TIP3   OH229946   4.689   4.221   0.559 -0.1067 -0.6114  0.3666
 2796TIP3    H129947   4.747   4.222   0.483  1.6284 -1.1834  1.6235
 2796TIP3    H229948   4.730   4.282   0.621 -1.0490 -0.7489  1.1501
 2797TIP3   OH229949   6.068   5.892   1.406 -0.3861  0.2710 -0.2068
 2797TIP3    H129950   6.017   5.964   1.443  0.7714  0.6165  0.7713
 2797TIP3    H229951   6.069   5.825   1.474  3.1396  1.5573  1.2184
 2798TIP3   OH229952   1.418   1.324   1.924 -0.1393 -0.1519 -0.7900
 2798TIP3    H129953   1.467   1.287   1.850  0.3634  1.6877 -1.4205
 2798TIP3    H229954   1.472   1.304   2.000 -0.5496 -1.8694 -0.8894
 2799TIP3   OH229955   1.390   1.887   0.022  0.2679 -0.4734 -0.5226
 2799TIP3    H129956   1.466   1.828   0.015  0.0617 -0.6780 -1.1038
 2799TIP3    H229957   1.389   1.934  -0.061 -0.7435 -1.0841 -0.8726
 2800TIP3   OH229958   0.714   2.365   0.334 -0.0030  0.4044 -0.4917
 2800TIP3    H129959   0.700   2.302   0.404 -1.6045  1.1714 -0.0679
 2800TIP3    H229960   0.696   2.317   0.253  0.6097 -0.1533 -0.3013
 2801TIP3   OH229961   1.118   1.783   0.077  0.1894  0.2352  0.5730
 2801TIP3    H129962   1.068   1.830   0.009  1.0290  2.3052  1.2935
 2801TIP3    H229963   1.209   1.809   0.062  0.7581 -1.4780  0.8287
 2802TIP3   OH229964   0.765   3.707   8.347  0.4848  0.4016 -0.7013
 2802TIP3    H129965   0.783   3.620   8.383  0.6536  0.2298 -1.1877
 2802TIP3    H229966   0.828   3.717   8.276 -0.8425  0.0825 -1.9820
 2803TIP3   OH229967   0.171   2.107   1.951  0.1297 -0.8341  0.2795
 2803TIP3    H129968   0.257   2.133   1.920 -1.3142  3.3224 -0.9087
 2803TIP3    H229969   0.167   2.138   2.041 -0.6351  0.6053 -0.2182
 2804TIP3   OH229970   3.508   3.018   0.046 -0.2564 -0.2078  1.1591
 2804TIP3    H129971   3.559   3.052  -0.028 -2.0498  0.1205  0.0328
 2804TIP3    H229972   3.468   3.095   0.085 -1.9459 -0.6883  0.4382
 2805TIP3   OH229973   4.750   0.949   2.637 -0.5905 -0.3947  0.1391
 2805TIP3    H129974   4.770   0.858   2.660  0.0653  0.0298  1.2860
 2805TIP3    H229975   4.784   1.001   2.709 -0.5293  0.8135 -0.7252
 2806TIP3   OH229976   4.510   6.571   8.632  0.3522  0.0035 -0.1989
 2806TIP3    H129977   4.492   6.485   8.594 -0.7429 -0.1649  0.6541
 2806TIP3    H229978   4.437   6.626   8.605  0.7907  0.5409 -0.3262
 2807TIP3   OH229979   0.466   3.265   0.582  0.3080 -0.2815 -0.0704
 2807TIP3    H129980   0.449   3.181   0.541  0.6194 -0.4491  0.1361
 2807TIP3    H229981   0.547   3.296   0.540 -0.0363  0.1175 -0.4532
 2808TIP3   OH229982   3.825   1.987   2.166 -0.5848 -0.1782 -0.0355
 2808TIP3    H129983   3.893   2.048   2.196 -1.2494  0.8997 -0.6423
 2808TIP3    H229984   3.823   1.998   2.071 -0.8034 -1.0709 -0.1433
 2809TIP3   OH229985   4.383   1.615   8.632 -0.0422  0.1919 -0.0659
 2809TIP3    H129986   4.400   1.702   8.596 -0.1688  1.6529  3.0837
 2809TIP3    H229987   4.301   1.624   8.680 -0.5971 -1.9961 -0.4608
 2810TIP3   OH229988   5.195   1.009   8.058  0.9264 -0.1928 -0.3465
 2810TIP3    H129989   5.240   1.050   8.132  1.2819 -0.0998 -0.6116
 2810TIP3    H229990   5.163   0.926   8.093 -1.1113  0.9239  0.6481
 2811TIP3   OH229991   6.078   5.532   0.363 -0.2500  0.6248 -0.5189
 2811TIP3    H129992   6.143   5.496   0.423 -1.0998  0.4206  0.2926
 2811TIP3    H229993   6.001   5.549   0.417 -1.1587  0.1218 -1.6057
 2812TIP3   OH229994   1.751   4.421   8.815 -0.0088 -0.5781  0.4840
 2812TIP3    H129995   1.681   4.389   8.873 -1.8080  1.2681 -0.5193
 2812TIP3    H229996   1.832   4.403   8.863 -1.2300 -1.6429  2.2919
 2813TIP3   OH229997   5.161   5.169   2.262  0.0765  0.2514 -0.0714
 2813TIP3    H129998   5.075   5.185   2.224  0.0314  1.0004  0.3270
 2813TIP3    H229999   5.177   5.245   2.318  0.7248 -0.1847  0.3454
 2814TIP3   OH230000   6.149   3.052   1.236 -0.2964 -0.0373  0.1831
 2814TIP3    H130001   6.110   3.090   1.157 -0.0411  0.5423  0.3306
 2814TIP3    H230002   6.233   3.097   1.246 -1.1054  1.2394  1.7755
 2815TIP3   OH230003   3.491   4.906   0.730  0.3490  0.3092  0.0310
 2815TIP3    H130004   3.454   4.969   0.667 -1.6116  0.7390  1.4972
 2815TIP3    H230005   3.450   4.823   0.708  1.1282  0.0419 -0.4327
 2816TIP3   OH230006   0.530   4.305   0.979  0.3201  0.1664 -0.7717
 2816TIP3    H130007   0.553   4.212   0.989  0.5018  0.4066  1.5512
 2816TIP3    H230008   0.551   4.325   0.888  0.4655 -2.0189 -1.2736
 2817TIP3   OH230009   3.227   0.200   9.281  0.2684  0.0620 -0.1622
 2817TIP3    H130010   3.311   0.164   9.251 -0.1620  0.4457 -1.9421
 2817TIP3    H230011   3.252   0.271   9.340  1.1929 -0.1138 -0.3209
 2818TIP3   OH230012   6.260   2.758   0.472 -0.0852 -0.3382  0.1400
 2818TIP3    H130013   6.230   2.751   0.563  0.8301 -0.9762  0.4086
 2818TIP3    H230014   6.310   2.678   0.458 -1.6794 -1.1190 -1.5021
 2819TIP3   OH230015   6.590   0.606   1.260 -0.2852  0.2911  0.7001
 2819TIP3    H130016   6.617   0.640   1.346 -0.6005  0.0506  0.8985
 2819TIP3    H230017   6.507   0.561   1.278  0.7273 -1.6774  0.6992
 2820TIP3   OH230018   4.364   4.439   2.639 -0.0665  0.1629  0.4114
 2820TIP3    H130019   4.413   4.380   2.581 -1.1916 -0.3698 -0.0256
 2820TIP3    H230020   4.412   4.437   2.722  0.1183 -1.0914  0.2933
 2821TIP3   OH230021   4.680   1.208   2.001  0.4760  0.4165 -0.1468
 2821TIP3    H130022   4.613   1.277   1.993 -0.4425 -0.5485 -1.3469
 2821TIP3    H230023   4.763   1.255   2.006 -0.2648  1.6570  1.3485
 2822TIP3   OH230024   0.773   3.369   0.825  0.1840 -0.3327 -0.0910
 2822TIP3    H130025   0.802   3.290   0.780  0.7686 -0.0380 -0.2482
 2822TIP3    H230026   0.680   3.357   0.839  0.6124 -1.9904  1.7366
 2823TIP3   OH230027   3.183   2.916   0.878  0.4322 -0.7381 -0.0973
 2823TIP3    H130028   3.144   2.997   0.912 -0.0565 -0.6316 -0.8913
 2823TIP3    H230029   3.111   2.872   0.833  0.7196 -1.5789  0.2570
 2824TIP3   OH230030   2.483   6.374   2.278  0.0260  0.0921  0.4597
 2824TIP3    H130031   2.511   6.314   2.209 -0.5938 -1.6779  1.6791
 2824TIP3    H230032   2.533   6.348   2.355  2.5549  3.6202  0.2518
 2825TIP3   OH230033   4.038   5.580   2.977 -0.4062  0.2118  0.3953
 2825TIP3    H130034   3.992   5.525   3.041 -0.2358 -0.1581  0.2010
 2825TIP3    H230035   4.003   5.552   2.893 -0.2069  0.2988  0.2854
 2826TIP3   OH230036   0.483   5.901   1.075  0.0550  0.4042 -0.2037
 2826TIP3    H130037   0.564   5.947   1.096  1.7043 -2.0751 -0.6662
 2826TIP3    H230038   0.426   5.917   1.150  1.8825  0.2899  1.2882
 2827TIP3   OH230039   6.251   6.404   8.472 -0.0771  0.1428  0.2052
 2827TIP3    H130040   6.203   6.336   8.426 -0.8137  0.3154  0.7143
 2827TIP3    H230041   6.186   6.448   8.527  0.5278  0.7900  0.4270
 2828TIP3   OH230042   2.954   3.933   9.035  0.3518  0.1850 -0.0507
 2828TIP3    H130043   3.027   3.938   9.097  0.3302  0.3268 -0.0345
 2828TIP3    H230044   2.876   3.931   9.090  0.2449  1.9809 -0.0786
 2829TIP3   OH230045   1.311   0.929   8.279 -0.3813 -0.2291 -0.2722
 2829TIP3    H130046   1.272   0.854   8.235 -0.7688  0.1609 -0.6019
 2829TIP3    H230047   1.272   1.005   8.236 -0.8368  0.1600  0.8040
 2830TIP3   OH230048   4.334   4.283   8.028  0.2786  0.3382 -0.2241
 2830TIP3    H130049   4.382   4.233   8.094 -0.6265 -0.1120  0.1077
 2830TIP3    H230050   4.294   4.216   7.972 -2.0508  0.5870  1.0076
 2831TIP3   OH230051   0.548   4.406   2.711  0.1414  0.1357 -0.0042
 2831TIP3    H130052   0.613   4.438   2.648  0.2819 -0.4885 -0.1732
 2831TIP3    H230053   0.586   4.326   2.747 -0.7252 -0.4774 -0.4156
 2832TIP3   OH230054   0.052   5.870   0.018  0.0692 -0.0136 -1.0401
 2832TIP3    H130055   0.103   5.887  -0.061  0.8987 -0.9593 -0.7324
 2832TIP3    H230056   0.085   5.932   0.082 -0.0873  0.2525 -1.2135
 2833TIP3   OH230057   2.429   4.497   2.115  0.3278  0.1034 -0.6226
 2833TIP3    H130058   2.410   4.405   2.095  0.9830 -0.1723 -0.0327
 2833TIP3    H230059   2.389   4.546   2.043  1.0877 -0.7205 -1.6451
 2834TIP3   OH230060   3.544   5.963   7.278 -0.2196 -0.0456  0.3182
 2834TIP3    H130061   3.514   5.931   7.193  1.8950 -0.4957 -0.3375
 2834TIP3    H230062   3.624   5.913   7.294  0.3071  1.2182  1.7871
 2835TIP3   OH230063   0.344   1.086   1.559  0.0401  0.6946 -0.1670
 2835TIP3    H130064   0.259   1.118   1.589 -0.1369  1.4728 -1.4287
 2835TIP3    H230065   0.336   0.990   1.563 -0.5244  0.7643  0.6855
 2836TIP3   OH230066   3.946   5.272   0.883  0.4868  0.3630 -0.3296
 2836TIP3    H130067   3.970   5.207   0.817  0.1940 -0.0926  0.0081
 2836TIP3    H230068   4.004   5.255   0.956  0.6096  0.6769 -0.3513
 2837TIP3   OH230069   4.254   1.757   7.583  0.0124 -0.5384 -0.5462
 2837TIP3    H130070   4.232   1.670   7.616 -0.4857 -0.8210 -1.5594
 2837TIP3    H230071   4.170   1.793   7.554  0.0771  0.6321  0.6214
 2838TIP3   OH230072   1.086   3.697   0.741  0.1055  0.1094  0.5717
 2838TIP3    H130073   1.048   3.642   0.811  1.6629  1.1134  2.2823
 2838TIP3    H230074   1.053   3.785   0.760 -0.5020  0.1934 -0.7826
 2839TIP3   OH230075   2.387   1.072   2.076 -0.0594 -0.5751 -0.3134
 2839TIP3    H130076   2.467   1.125   2.078 -0.3642 -0.1099  0.0904
 2839TIP3    H230077   2.326   1.123   2.022 -0.9842  0.4616  1.5934
 2840TIP3   OH230078   6.044   3.988   0.545  0.0089 -0.3001  0.6693
 2840TIP3    H130079   5.953   4.017   0.546 -0.9322 -2.8603 -0.5173
 2840TIP3    H230080   6.042   3.902   0.588  1.7901 -0.5841  0.2510
 2841TIP3   OH230081   3.708   1.366   1.116 -0.0562 -0.1981 -0.4131
 2841TIP3    H130082   3.614   1.355   1.107 -0.0541 -1.2748  0.5962
 2841TIP3    H230083   3.721   1.380   1.210  0.7746  0.1282 -0.5702
 2842TIP3   OH230084   6.009   5.903   1.790 -0.4394 -0.6029 -0.3114
 2842TIP3    H130085   5.962   5.887   1.872  1.4836 -0.2082  0.9421
 2842TIP3    H230086   6.061   5.981   1.808  0.4892 -0.8626 -1.7292
 2843TIP3   OH230087   2.873   5.567   8.354  0.1293 -0.2660  0.1624
 2843TIP3    H130088   2.945   5.505   8.360 -1.0084 -1.5460  1.1445
 2843TIP3    H230089   2.798   5.522   8.393 -0.7002  1.7970  1.1475
 2844TIP3   OH230090   6.514   6.163   2.556 -0.1010 -0.7385 -0.1048
 2844TIP3    H130091   6.498   6.217   2.633  0.0303 -1.2501  0.2913
 2844TIP3    H230092   6.523   6.074   2.591 -1.4799 -1.2059 -0.8600
 2845TIP3   OH230093   5.172   1.124   7.804  0.2392  0.7170 -0.0000
 2845TIP3    H130094   5.187   1.044   7.754  0.1863  0.6452  0.0979
 2845TIP3    H230095   5.160   1.094   7.894 -1.3964  0.6843 -0.1990
 2846TIP3   OH230096   0.928   0.424   0.576  0.3057 -0.4582  0.1166
 2846TIP3    H130097   0.917   0.348   0.633  2.7101 -0.4347  0.7399
 2846TIP3    H230098   0.886   0.496   0.623 -1.4729 -1.2496 -0.2020
 2847TIP3   OH230099   4.820   0.915   2.367 -0.7621 -0.0260  0.0049
 2847TIP3    H130100   4.797   0.919   2.460  1.0300  0.5310  0.4714
 2847TIP3    H230101   4.801   0.825   2.341  0.4337 -0.7378  1.4358
 2848TIP3   OH230102   3.840   6.164   7.942  0.7063  0.5211 -0.4203
 2848TIP3    H130103   3.887   6.175   7.860 -0.7326 -0.8175 -1.4942
 2848TIP3    H230104   3.747   6.161   7.916  0.3367 -3.1844  0.7775
 2849TIP3   OH230105   2.018   6.281   8.374 -0.0288 -0.1919  0.3516
 2849TIP3    H130106   2.027   6.288   8.279 -1.3136 -2.3300 -0.0100
 2849TIP3    H230107   2.059   6.360   8.409 -1.0813  1.5374 -2.0589
 2850TIP3   OH230108   5.623   0.842   8.348 -0.0248  0.1186 -0.2495
 2850TIP3    H130109   5.704   0.836   8.298  0.1536  0.8367 -0.0590
 2850TIP3    H230110   5.558   0.796   8.295  0.8391 -1.8919  0.3497
 2851TIP3   OH230111   6.427   1.754   2.818  0.1583 -0.2297  0.5015
 2851TIP3    H130112   6.381   1.689   2.871  0.4202 -0.9228 -0.1015
 2851TIP3    H230113   6.359   1.813   2.786 -0.4744 -1.7134 -1.0620
 2852TIP3   OH230114   1.774   6.196   1.068 -0.5566  0.1358 -0.3462
 2852TIP3    H130115   1.706   6.252   1.105 -0.0542  0.6055 -0.1154
 2852TIP3    H230116   1.776   6.120   1.126  0.6955  1.1733  1.0690
 2853TIP3   OH230117   6.512   0.909   1.898 -0.0653  0.0203 -0.0593
 2853TIP3    H130118   6.488   0.875   1.985  2.2918  0.6013  0.9013
 2853TIP3    H230119   6.462   0.856   1.837 -0.8860 -1.2323  1.6159
 2854TIP3   OH230120   2.057   4.098   1.052  0.0366 -0.6048 -0.3929
 2854TIP3    H130121   2.007   4.125   0.975 -0.8307 -1.0263  0.0142
 2854TIP3    H230122   2.079   4.180   1.097  0.2312 -0.3834 -0.8811
 2855TIP3   OH230123   4.706   6.247   1.105 -0.5671  0.1410 -0.0603
 2855TIP3    H130124   4.685   6.302   1.181 -0.7846 -0.2677  0.1796
 2855TIP3    H230125   4.655   6.167   1.119 -0.4595 -0.0108 -0.5438
 2856TIP3   OH230126   0.827   4.802   8.840 -0.2162  0.3242 -0.3277
 2856TIP3    H130127   0.843   4.726   8.785 -0.2662 -0.6608  0.9776
 2856TIP3    H230128   0.744   4.783   8.885 -0.4892  1.3693 -0.3537
 2857TIP3   OH230129   2.986   2.268   2.175  0.4987  1.3753 -0.1630
 2857TIP3    H130130   2.972   2.209   2.101  1.0931  0.2929  0.5441
 2857TIP3    H230131   3.080   2.285   2.175  0.9998 -0.7754  1.8047
 2858TIP3   OH230132   2.502   2.419   3.045 -0.0876 -0.1114 -0.0236
 2858TIP3    H130133   2.422   2.470   3.028  1.8600  2.9590 -0.7523
 2858TIP3    H230134   2.497   2.398   3.138 -2.5971 -1.7904 -0.4164
 2859TIP3   OH230135   4.325   3.237   0.792  0.2002 -0.1965  0.1235
 2859TIP3    H130136   4.306   3.229   0.885 -0.0800 -1.1805 -0.0122
 2859TIP3    H230137   4.398   3.177   0.777  0.4294  0.1701 -0.2376
 2860TIP3   OH230138   6.117   4.242   8.588 -0.2353 -0.1299 -0.4892
 2860TIP3    H130139   6.211   4.242   8.568 -0.0445  0.8388  0.3562
 2860TIP3    H230140   6.099   4.330   8.621 -1.3711 -0.4186 -0.2914
 2861TIP3   OH230141   0.620   6.435   1.372 -0.2767  0.0243 -0.1358
 2861TIP3    H130142   0.533   6.403   1.398  0.0780 -0.2229  0.7901
 2861TIP3    H230143   0.681   6.388   1.429  0.2580  2.4441  1.4659
 2862TIP3   OH230144   3.537   5.301   1.194 -0.1545  0.5483  0.3503
 2862TIP3    H130145   3.444   5.308   1.172 -0.0242  1.0249 -0.0897
 2862TIP3    H230146   3.581   5.313   1.110  0.2750 -0.9356  0.3414
 2863TIP3   OH230147   0.279   1.944   8.079 -0.1201 -0.3490 -0.2129
 2863TIP3    H130148   0.215   1.889   8.125  0.3113 -0.1433  0.6540
 2863TIP3    H230149   0.364   1.916   8.114  0.2276 -0.2667 -0.9758
 2864TIP3   OH230150   3.109   6.467   0.699 -0.2858 -0.4812 -0.5216
 2864TIP3    H130151   3.155   6.435   0.777  0.2743 -0.0810 -0.6828
 2864TIP3    H230152   3.035   6.517   0.733  1.4835  2.0626 -0.1381
 2865TIP3   OH230153   3.777   4.357   8.908 -0.1176  0.2129  0.3240
 2865TIP3    H130154   3.871   4.371   8.895  0.1347 -1.5528  0.0391
 2865TIP3    H230155   3.739   4.362   8.821 -0.4358  1.6964  0.5195
 2866TIP3   OH230156   2.696   5.499   3.327  0.3281  0.5297  0.2403
 2866TIP3    H130157   2.644   5.478   3.404  2.3404  1.5936  1.9963
 2866TIP3    H230158   2.715   5.593   3.336 -0.0974  0.8933 -2.0408
 2867TIP3   OH230159   5.976   3.327   8.948  0.5459  0.0478  0.7260
 2867TIP3    H130160   6.060   3.362   8.920 -0.2068  1.4126  0.0571
 2867TIP3    H230161   5.952   3.264   8.880  1.6565 -1.4454  1.6567
 2868TIP3   OH230162   3.276   0.701   2.268 -0.6611 -0.3602 -0.2388
 2868TIP3    H130163   3.292   0.629   2.329 -2.3224 -0.3502  0.2501
 2868TIP3    H230164   3.235   0.660   2.192 -0.9065 -0.0312 -0.2857
 2869TIP3   OH230165   6.069   5.729   7.348  0.0652 -0.4252 -0.4008
 2869TIP3    H130166   6.131   5.716   7.276  0.7310 -1.3190  0.3008
 2869TIP3    H230167   6.034   5.817   7.335  3.0195  0.9670  0.3038
 2870TIP3   OH230168   0.290   5.280   1.935  0.2226 -0.1653 -0.2878
 2870TIP3    H130169   0.206   5.242   1.909  1.0003 -2.3989  0.1974
 2870TIP3    H230170   0.268   5.351   1.995 -1.3621  0.9462 -2.0716
 2871TIP3   OH230171   6.312   3.134   1.022  0.0609 -0.8819  1.1546
 2871TIP3    H130172   6.386   3.087   1.060  0.6898 -0.1388  0.8775
 2871TIP3    H230173   6.340   3.226   1.020 -0.7781 -0.6205  0.8334
 2872TIP3   OH230174   4.027   6.526   7.413  0.3368 -0.4140  0.0559
 2872TIP3    H130175   3.969   6.470   7.465 -1.1965 -0.1394 -1.2987
 2872TIP3    H230176   4.113   6.514   7.453 -0.4433 -1.6472  1.4756
 2873TIP3   OH230177   1.230   3.535   9.266  0.5451 -0.1032  0.5540
 2873TIP3    H130178   1.221   3.442   9.286 -1.6799  0.0321  0.4626
 2873TIP3    H230179   1.142   3.571   9.281  1.2266  1.8763  0.0590
 2874TIP3   OH230180   6.461   1.235   1.035 -0.2621  0.5288  0.4519
 2874TIP3    H130181   6.435   1.146   1.057 -0.6336  0.1892 -1.1677
 2874TIP3    H230182   6.554   1.229   1.015 -0.4312  0.3428 -0.3209
 2875TIP3   OH230183   0.027   3.312   1.855  0.2159 -0.2507  0.2662
 2875TIP3    H130184   0.059   3.343   1.771  0.1810  0.3020  0.4500
 2875TIP3    H230185   0.060   3.222   1.863 -0.0333 -0.4089 -0.4642
 2876TIP3   OH230186   2.265   1.187   8.995 -0.0561  0.0891  0.1735
 2876TIP3    H130187   2.332   1.120   8.984 -1.0538 -0.6720 -1.7215
 2876TIP3    H230188   2.304   1.251   9.054  1.4494 -1.4580  0.9374
 2877TIP3   OH230189   3.167   4.351   1.268  0.5557 -0.2845 -0.5342
 2877TIP3    H130190   3.152   4.349   1.173 -0.8458 -1.0885 -0.3250
 2877TIP3    H230191   3.254   4.390   1.278 -0.6685  3.1729 -1.9767
 2878TIP3   OH230192   0.870   3.382   9.045  0.0920 -1.0219 -0.5835
 2878TIP3    H130193   0.863   3.317   9.115  2.2139 -1.1167 -0.4135
 2878TIP3    H230194   0.956   3.367   9.006 -1.1183 -1.1818 -3.4727
 2879TIP3   OH230195   2.373   6.610   1.117 -0.9049  0.3267 -0.1005
 2879TIP3    H130196   2.394   6.598   1.025  1.0040  2.4289 -0.0404
 2879TIP3    H230197   2.455   6.590   1.163 -0.8582  2.2584  0.7996
 2880TIP3   OH230198   0.230   5.958   0.922  0.6797 -0.1745 -0.1973
 2880TIP3    H130199   0.250   6.038   0.969  0.2820 -0.5541  0.6435
 2880TIP3    H230200   0.304   5.945   0.864  1.5974 -0.1252  0.9221
 2881TIP3   OH230201   6.010   4.033   2.150  0.0796  0.6332 -0.4164
 2881TIP3    H130202   5.970   3.947   2.161 -0.0478  0.6371 -0.8449
 2881TIP3    H230203   6.087   4.031   2.208  0.3392  0.0661 -0.7740
 2882TIP3   OH230204   6.559   4.283   2.027  1.1543 -0.0887  0.0569
 2882TIP3    H130205   6.586   4.191   2.023 -1.1274 -0.7729 -1.4255
 2882TIP3    H230206   6.630   4.330   1.983  2.2265 -1.1281  0.5891
 2883TIP3   OH230207   6.036   1.053   7.058 -0.5133 -0.0874  0.0833
 2883TIP3    H130208   5.988   1.083   7.135 -1.1102 -3.3111  1.1080
 2883TIP3    H230209   5.969   1.045   6.990 -0.2932  1.0684 -0.2973
 2884TIP3   OH230210   4.713   6.243   0.785  0.0869  0.1768  0.1607
 2884TIP3    H130211   4.642   6.304   0.767  0.3633  0.7051  0.8093
 2884TIP3    H230212   4.670   6.168   0.826 -0.1975  0.1400 -0.2062
 2885TIP3   OH230213   1.563   0.888   7.422  0.1032 -0.0151 -0.4448
 2885TIP3    H130214   1.639   0.944   7.409  1.1652 -1.0248  1.1616
 2885TIP3    H230215   1.554   0.840   7.340 -1.3957  3.0434 -2.2382
 2886TIP3   OH230216   6.394   5.740   1.011 -0.8358 -0.0760 -0.2693
 2886TIP3    H130217   6.392   5.683   1.088 -1.5832 -0.0045 -0.2232
 2886TIP3    H230218   6.443   5.817   1.040  3.1536 -1.9714 -1.2986
 2887TIP3   OH230219   4.788   2.612   2.315 -0.5027  0.0493  0.3406
 2887TIP3    H130220   4.696   2.637   2.329 -0.3773  0.7985 -0.1238
 2887TIP3    H230221   4.788   2.517   2.324 -1.3864  0.0049  0.0172
 2888TIP3   OH230222   1.390   6.125   9.164  0.0336  0.0009  0.2951
 2888TIP3    H130223   1.395   6.211   9.204  0.9135 -1.2761  3.1696
 2888TIP3    H230224   1.355   6.068   9.232  3.2481 -2.6884 -0.0014
 2889TIP3   OH230225   0.967   5.505   2.084  0.5380  0.1276  0.6925
 2889TIP3    H130226   0.995   5.595   2.071  0.7973 -0.1384 -0.6787
 2889TIP3    H230227   0.890   5.512   2.142  1.7210  1.0507  2.2409
 2890TIP3   OH230228   2.980   5.869   2.279  0.1976  0.1609 -0.3508
 2890TIP3    H130229   2.977   5.923   2.200  1.8530  0.7826 -0.0196
 2890TIP3    H230230   2.956   5.782   2.249 -1.0756  0.7487 -1.1689
 2891TIP3   OH230231   3.838   1.902   0.525  0.3218  0.1218  0.0245
 2891TIP3    H130232   3.871   1.883   0.613 -0.7152 -1.0674  0.1791
 2891TIP3    H230233   3.889   1.845   0.468  0.6560  0.5381 -0.0974
 2892TIP3   OH230234   6.220   0.743   7.508 -0.0096  0.2694 -0.2370
 2892TIP3    H130235   6.198   0.825   7.463 -0.0852 -0.4616 -1.5712
 2892TIP3    H230236   6.310   0.724   7.480 -0.4009 -0.7057 -0.8715
 2893TIP3   OH230237   0.059   3.556   0.076  0.4178  0.0371  0.5152
 2893TIP3    H130238  -0.000   3.623   0.041  0.5114  0.4860  1.1913
 2893TIP3    H230239   0.019   3.530   0.159  0.9193  0.0002  0.7479
 2894TIP3   OH230240   5.748   0.265   7.228  0.6084 -0.1597  0.3555
 2894TIP3    H130241   5.663   0.277   7.272  0.5584 -0.6729  0.4050
 2894TIP3    H230242   5.797   0.344   7.251  0.2855 -0.0375  0.6538
 2895TIP3   OH230243   4.007   0.540   0.485 -0.5342 -0.4273 -0.1735
 2895TIP3    H130244   4.016   0.497   0.570  1.3759  0.7041  0.2460
 2895TIP3    H230245   4.081   0.508   0.434 -0.9727 -0.1469 -1.0059
 2896TIP3   OH230246   0.579   4.626   8.183  0.3797  0.4705  0.3142
 2896TIP3    H130247   0.523   4.704   8.177 -0.7018 -0.0953  2.0990
 2896TIP3    H230248   0.585   4.594   8.093 -1.2207  1.2155 -0.0983
 2897TIP3   OH230249   6.004   4.448   1.409 -0.1363 -0.1596 -0.3577
 2897TIP3    H130250   6.048   4.424   1.491  0.2150  1.1843 -0.1233
 2897TIP3    H230251   6.013   4.543   1.405 -1.9592  0.0269 -0.9218
 2898TIP3   OH230252   0.720   1.932   1.186  0.2846 -0.3629 -0.2970
 2898TIP3    H130253   0.726   2.027   1.195  1.9693 -0.3285 -1.3195
 2898TIP3    H230254   0.711   1.900   1.276  1.0181  0.6893  0.1743
 2899TIP3   OH230255   3.864   2.542   1.034 -0.4088 -0.5218  0.0954
 2899TIP3    H130256   3.852   2.492   1.114  0.7219 -0.4951  0.2882
 2899TIP3    H230257   3.785   2.524   0.983 -1.2259 -0.3996  1.2746
 2900TIP3   OH230258   1.475   3.053   1.766 -0.0706  0.1753  0.2605
 2900TIP3    H130259   1.547   2.990   1.767  0.1424  0.4232  0.6462
 2900TIP3    H230260   1.518   3.139   1.770 -0.3504  0.3541 -0.4209
 2901TIP3   OH230261   6.182   4.778   0.443 -0.0992  0.3133  0.0718
 2901TIP3    H130262   6.196   4.741   0.530  0.1905  1.0884  0.3684
 2901TIP3    H230263   6.269   4.794   0.409 -0.2127 -0.0560 -0.3954
 2902TIP3   OH230264   0.211   3.203   0.683 -0.0950  0.1511 -0.1025
 2902TIP3    H130265   0.260   3.151   0.620  1.2782  0.6874  0.5008
 2902TIP3    H230266   0.136   3.148   0.706  1.3740 -1.6319  0.6259
 2903TIP3   OH230267   6.516   0.342   9.206  0.7635  0.4005 -0.0009
 2903TIP3    H130268   6.553   0.408   9.147  1.6063  0.1140  0.1942
 2903TIP3    H230269   6.422   0.347   9.191  0.8198  1.5808 -0.0607
 2904TIP3   OH230270   1.931   4.645   0.796 -0.0428 -0.3403 -0.7709
 2904TIP3    H130271   1.891   4.558   0.795 -0.7596 -0.0256 -0.5715
 2904TIP3    H230272   1.954   4.661   0.887 -1.2397  0.2501 -0.5523
 2905TIP3   OH230273   6.011   5.748   7.761  0.1981  0.1034  0.1869
 2905TIP3    H130274   5.916   5.741   7.748 -0.0499 -1.2094  2.2634
 2905TIP3    H230275   6.025   5.717   7.851  2.7705 -1.0998 -0.5498
 2906TIP3   OH230276   2.419   3.921   2.813  0.1809  0.0322  0.1689
 2906TIP3    H130277   2.445   3.829   2.822  1.2219 -0.1357 -3.0542
 2906TIP3    H230278   2.499   3.970   2.831  0.2563  0.1334 -0.4235
 2907TIP3   OH230279   0.314   3.120   1.976 -0.7582  0.1202 -0.5156
 2907TIP3    H130280   0.287   3.134   1.885 -0.3265 -0.3034 -0.7143
 2907TIP3    H230281   0.231   3.109   2.024 -1.0022  0.7029 -0.7877
 2908TIP3   OH230282   1.679   1.959   1.950 -0.0295 -0.1827  0.1052
 2908TIP3    H130283   1.633   1.878   1.970 -1.8157  1.0158  1.1782
 2908TIP3    H230284   1.701   1.996   2.036 -1.8450  1.8345 -0.2158
 2909TIP3   OH230285   5.494   0.790   1.192 -0.2926 -0.5144 -0.6804
 2909TIP3    H130286   5.428   0.729   1.159 -0.8394  0.2023 -0.9292
 2909TIP3    H230287   5.464   0.810   1.281 -0.4218 -0.1730 -0.8014
 2910TIP3   OH230288   3.770   4.814   0.347 -0.3816 -0.0210 -0.0188
 2910TIP3    H130289   3.837   4.809   0.416  0.7470 -0.8532 -1.1377
 2910TIP3    H230290   3.707   4.746   0.370  0.5818 -1.0751 -0.3846
 2911TIP3   OH230291   0.474   5.017   9.000  0.3229  0.5127  0.6436
 2911TIP3    H130292   0.522   5.066   8.933  0.1940  0.6664  0.6631
 2911TIP3    H230293   0.493   4.925   8.982 -1.6677  0.3752 -1.1409
 2912TIP3   OH230294   4.915   3.003   1.176  0.0103 -0.3730 -0.0451
 2912TIP3    H130295   4.939   2.996   1.268  1.0177 -0.2854 -0.2847
 2912TIP3    H230296   4.878   3.091   1.167  0.9986  0.0693  0.0576
 2913TIP3   OH230297   2.308   0.529   3.320 -0.4245  0.3282 -0.3430
 2913TIP3    H130298   2.284   0.501   3.408  1.4705 -0.0352  0.1102
 2913TIP3    H230299   2.333   0.448   3.275 -1.8371  0.4442 -1.4057
 2914TIP3   OH230300   6.463   1.466   1.248  0.0591 -0.1552 -0.1999
 2914TIP3    H130301   6.390   1.528   1.254  1.2648  1.1425  3.2573
 2914TIP3    H230302   6.421   1.381   1.232 -1.9409  0.9434 -1.1852
 2915TIP3   OH230303   4.724   1.568   2.363  0.3097  0.4130 -0.4242
 2915TIP3    H130304   4.819   1.573   2.355  0.6400 -1.4777  1.4471
 2915TIP3    H230305   4.693   1.655   2.338  2.4584  0.8639 -1.7297
 2916TIP3   OH230306   3.922   4.952   1.125 -0.2048  0.2816  0.5287
 2916TIP3    H130307   3.890   4.862   1.114  0.4502 -0.0661  1.3041
 2916TIP3    H230308   3.996   4.943   1.185 -0.1359  1.3464  0.6157
 2917TIP3   OH230309   1.824   1.449   1.238  0.1108  0.4199  0.7105
 2917TIP3    H130310   1.811   1.490   1.324 -0.2758  1.2840  0.2493
 2917TIP3    H230311   1.837   1.357   1.258 -0.8908  0.4598  1.6409
 2918TIP3   OH230312   0.609   1.033   9.116  0.2785  0.0799 -0.2744
 2918TIP3    H130313   0.692   0.985   9.124 -0.4098 -1.2733 -0.8999
 2918TIP3    H230314   0.592   1.067   9.204  2.2137  1.6536 -0.4508
 2919TIP3   OH230315   3.426   2.964   7.297 -0.4502  0.1468  0.4081
 2919TIP3    H130316   3.450   2.966   7.204 -0.5149  0.4637  0.3965
 2919TIP3    H230317   3.363   2.893   7.304 -1.0393  0.6176  0.0610
 2920TIP3   OH230318   2.212   4.063   8.674  1.2292  0.3653 -0.0895
 2920TIP3    H130319   2.136   4.119   8.696  0.4539 -1.0935  1.1098
 2920TIP3    H230320   2.207   3.990   8.735  3.3724 -0.0230 -0.2984
 2921TIP3   OH230321   4.193   6.577   8.781  0.3425 -0.3241  0.4675
 2921TIP3    H130322   4.208   6.607   8.692 -0.6020 -0.3561  0.2969
 2921TIP3    H230323   4.264   6.514   8.797 -0.4322 -1.5747 -0.8536
 2922TIP3   OH230324   6.418   2.910   1.491 -0.0771 -0.2545  0.1291
 2922TIP3    H130325   6.404   2.828   1.539  0.0037 -0.2452  0.1690
 2922TIP3    H230326   6.385   2.978   1.550 -1.1069 -0.3379 -0.3297
 2923TIP3   OH230327   1.165   0.902   8.578 -0.2371 -0.3996  0.1079
 2923TIP3    H130328   1.184   0.809   8.590  2.2643 -0.0556 -0.6945
 2923TIP3    H230329   1.114   0.906   8.497  0.2901 -1.0229 -0.2637
 2924TIP3   OH230330   6.025   1.159   8.384 -0.1243  1.0604 -0.2414
 2924TIP3    H130331   6.100   1.123   8.336  0.1445  1.5227 -0.1717
 2924TIP3    H230332   6.063   1.193   8.465 -0.7140 -0.6708  0.8225
 2925TIP3   OH230333   6.434   2.985   1.234  0.0572  0.6330  0.3693
 2925TIP3    H130334   6.432   2.961   1.326 -1.3286  1.9521  0.7255
 2925TIP3    H230335   6.471   2.909   1.190 -0.8123 -0.6903  1.8236
 2926TIP3   OH230336   5.838   3.975   0.792 -0.0173 -0.2383 -0.0953
 2926TIP3    H130337   5.743   3.990   0.789  0.1769  1.0438 -1.1689
 2926TIP3    H230338   5.857   3.957   0.884 -1.4736 -1.9022 -0.0779
 2927TIP3   OH230339   4.736   0.616   3.174 -0.1022 -0.0634 -0.3381
 2927TIP3    H130340   4.742   0.692   3.231  0.2949 -0.0935 -0.3406
 2927TIP3    H230341   4.775   0.645   3.092 -0.6636 -0.0227 -0.5980
 2928TIP3   OH230342   2.601   2.246   1.409 -0.8436 -0.1880 -0.4126
 2928TIP3    H130343   2.568   2.182   1.471  1.6131 -1.7106 -0.5210
 2928TIP3    H230344   2.542   2.239   1.333 -1.8871 -0.7314  0.4244
 2929TIP3   OH230345   2.391   2.099   1.526  0.8935  0.3894 -0.4873
 2929TIP3    H130346   2.352   2.096   1.614  0.7203  2.0449 -0.4774
 2929TIP3    H230347   2.320   2.131   1.470  0.8165 -1.2414 -1.3617
 2930TIP3   OH230348   0.230   6.471   8.353  0.1102 -0.0422 -0.4055
 2930TIP3    H130349   0.180   6.396   8.385 -0.5899  0.1036 -1.1194
 2930TIP3    H230350   0.238   6.529   8.429 -0.5510 -0.2053 -0.2055
 2931TIP3   OH230351   0.567   2.936   2.917  0.3674 -0.2635 -0.1200
 2931TIP3    H130352   0.551   3.027   2.941 -0.9626 -1.2315  3.4244
 2931TIP3    H230353   0.480   2.902   2.894  0.6338 -0.8981 -0.1933
 2932TIP3   OH230354   5.566   4.902   7.946 -0.2500 -0.0260  0.8275
 2932TIP3    H130355   5.534   4.855   7.868  2.2030  1.3068 -1.1276
 2932TIP3    H230356   5.488   4.915   8.000 -1.8897 -1.8230 -0.9656
 2933TIP3   OH230357   3.790   1.462   3.041  0.3431  0.1513 -0.0215
 2933TIP3    H130358   3.852   1.398   3.077 -0.5560 -1.0987 -0.6146
 2933TIP3    H230359   3.716   1.460   3.102 -0.9817 -1.6228 -1.5677
 2934TIP3   OH230360   6.018   2.335   2.110 -0.4387  0.4926 -0.3178
 2934TIP3    H130361   6.045   2.360   2.022  1.0581 -0.4404 -0.1671
 2934TIP3    H230362   5.923   2.326   2.105 -0.3057 -0.2183 -2.0175
 2935TIP3   OH230363   3.830   2.057   7.658 -0.3041  0.4238 -0.6915
 2935TIP3    H130364   3.764   1.997   7.623 -0.6215  0.2394  0.1974
 2935TIP3    H230365   3.782   2.112   7.719  0.2041  0.8672 -0.6838
 2936TIP3   OH230366   4.543   1.964   2.930 -0.1634  0.0217  0.0966
 2936TIP3    H130367   4.610   1.906   2.968 -2.1974 -3.3099 -0.9455
 2936TIP3    H230368   4.489   1.990   3.004 -0.2504 -0.9538  0.3967
 2937TIP3   OH230369   1.016   4.154   0.221  0.6209 -0.1258 -0.1926
 2937TIP3    H130370   1.045   4.120   0.306 -1.2600  1.2006  1.0697
 2937TIP3    H230371   0.965   4.232   0.243  1.5220  1.2771 -2.6878
 2938TIP3   OH230372   6.589   2.249   2.156  0.6888  0.0046 -0.0480
 2938TIP3    H130373   6.508   2.296   2.174  0.5409 -0.0499 -0.5599
 2938TIP3    H230374   6.597   2.186   2.228 -1.1531 -1.8746 -1.3602
 2939TIP3   OH230375   0.930   0.194   7.800 -0.3295 -0.6211  0.3664
 2939TIP3    H130376   0.858   0.255   7.812 -0.1233 -0.6251  1.7400
 2939TIP3    H230377   1.002   0.248   7.768 -0.1707 -0.1397  1.5014
 2940TIP3   OH230378   2.943   2.669   7.875 -0.0825 -0.1113  0.0766
 2940TIP3    H130379   2.920   2.746   7.823  1.3079  0.5791  0.4374
 2940TIP3    H230380   2.928   2.595   7.816  0.9994  0.6228 -1.1582
 2941TIP3   OH230381   4.897   6.459   1.586  0.6129  0.1286  0.1158
 2941TIP3    H130382   4.919   6.545   1.550  0.9979  0.0203  0.0863
 2941TIP3    H230383   4.931   6.460   1.675  1.0039 -0.1458 -0.0267
 2942TIP3   OH230384   5.116   4.275   2.539 -0.2384  0.3199 -0.1897
 2942TIP3    H130385   5.035   4.226   2.555 -0.1707  0.6642  1.3286
 2942TIP3    H230386   5.156   4.285   2.626  2.0128 -0.7859 -1.0225
 2943TIP3   OH230387   1.873   0.580   0.052  0.3638 -0.0708 -0.7777
 2943TIP3    H130388   1.918   0.530   0.120 -0.1254 -0.2985 -0.6144
 2943TIP3    H230389   1.875   0.670   0.083 -0.9017 -0.3279  0.1472
 2944TIP3   OH230390   6.065   4.874   3.278  0.2895  0.3926  0.0533
 2944TIP3    H130391   6.009   4.936   3.324 -0.0017 -0.3828  0.7535
 2944TIP3    H230392   6.154   4.909   3.290 -0.0165  1.7391 -1.2340
 2945TIP3   OH230393   5.577   1.760   8.432  0.0112  0.6496  0.5020
 2945TIP3    H130394   5.664   1.777   8.395  0.9316 -2.2407  1.0528
 2945TIP3    H230395   5.584   1.790   8.523  0.7187 -0.1890  0.7434
 2946TIP3   OH230396   4.616   2.458   1.261 -0.0965 -0.4943  0.2043
 2946TIP3    H130397   4.600   2.528   1.325  2.4677 -0.0805  0.5150
 2946TIP3    H230398   4.680   2.496   1.200  0.1483 -2.0451 -0.5598
 2947TIP3   OH230399   5.237   4.796   8.718  0.2906 -0.1018 -0.1728
 2947TIP3    H130400   5.277   4.736   8.655  1.3631 -1.8564  2.0382
 2947TIP3    H230401   5.176   4.741   8.768 -0.3841  1.1795  0.4669
 2948TIP3   OH230402   4.692   6.624   7.973 -0.2459 -0.2045  0.3909
 2948TIP3    H130403   4.650   6.540   7.993  1.4507 -1.0747  0.4378
 2948TIP3    H230404   4.763   6.602   7.913  0.0005  1.2604  0.0989
 2949TIP3   OH230405   3.007   5.166   8.237 -0.0263 -0.5485 -0.0319
 2949TIP3    H130406   2.990   5.238   8.176  0.7413 -0.0827  0.2804
 2949TIP3    H230407   3.102   5.153   8.232  0.1331 -0.1417  1.4362
 2950TIP3   OH230408   2.382   4.011   8.494 -0.3557  0.2546  0.2805
 2950TIP3    H130409   2.443   4.085   8.502  0.7584 -0.7646  1.6387
 2950TIP3    H230410   2.318   4.026   8.564 -0.7553  0.4811 -0.1281
 2951TIP3   OH230411   6.395   4.995   0.120  0.4237  0.1876  0.2817
 2951TIP3    H130412   6.385   4.907   0.158 -3.8301  1.1237  1.9325
 2951TIP3    H230413   6.468   5.033   0.169 -0.3100 -1.0927  2.5354
 2952TIP3   OH230414   4.784   6.249   2.060 -0.2823 -0.2366 -0.4240
 2952TIP3    H130415   4.811   6.163   2.028  1.3554  0.5403 -1.2738
 2952TIP3    H230416   4.851   6.273   2.123 -0.4839  0.6052 -0.5237
 2953TIP3   OH230417   3.282   1.622   2.636  0.2873 -0.0968 -0.5915
 2953TIP3    H130418   3.253   1.602   2.724 -0.8970 -0.3692 -1.0290
 2953TIP3    H230419   3.325   1.541   2.606 -0.9468 -0.6550 -0.9128
 2954TIP3   OH230420   5.328   1.986   1.042 -0.6249 -0.4080 -0.1690
 2954TIP3    H130421   5.237   1.956   1.040 -1.0839  0.9309 -0.5432
 2954TIP3    H230422   5.378   1.912   1.008 -1.4643 -1.4757  0.8160
 2955TIP3   OH230423   4.360   6.174   0.870  0.5056 -0.2780  0.5204
 2955TIP3    H130424   4.386   6.255   0.914  0.5995  0.3600 -0.6932
 2955TIP3    H230425   4.278   6.195   0.826 -0.1735 -1.2369  1.2833
 2956TIP3   OH230426   3.374   5.395   1.976  0.2828 -0.2357  0.2177
 2956TIP3    H130427   3.283   5.425   1.973  0.0811 -0.9378 -1.2221
 2956TIP3    H230428   3.423   5.466   1.936  0.0224 -0.9427 -1.4565
 2957TIP3   OH230429   3.643   4.711   2.721  0.0016  0.1291  0.3963
 2957TIP3    H130430   3.673   4.764   2.796 -0.8049  0.8724  0.2032
 2957TIP3    H230431   3.597   4.637   2.761 -2.3795  1.6485  0.6801
 2958TIP3   OH230432   5.278   0.792   2.490  0.2083 -0.0983  0.0518
 2958TIP3    H130433   5.316   0.733   2.555  0.3334 -1.9633 -1.6141
 2958TIP3    H230434   5.324   0.772   2.409 -0.8008  1.2574 -0.9095
 2959TIP3   OH230435   4.758   3.212   9.119  0.0644  0.4429 -0.1949
 2959TIP3    H130436   4.717   3.151   9.180 -2.1446  1.5807 -0.4265
 2959TIP3    H230437   4.844   3.175   9.101  0.0840 -0.8408  2.2150
 2960TIP3   OH230438   2.001   1.612   1.416  0.3980 -0.4696  0.3852
 2960TIP3    H130439   1.956   1.671   1.477  0.4722  0.8428 -0.7669
 2960TIP3    H230440   2.086   1.654   1.402  0.8047 -1.3423  0.2293
 2961TIP3   OH230441   2.055   2.295   8.360 -0.3980 -0.1090 -0.1012
 2961TIP3    H130442   2.135   2.343   8.385 -0.2589 -0.7496  0.7038
 2961TIP3    H230443   2.006   2.358   8.306  0.2611  0.5824  0.0841
 2962TIP3   OH230444   1.862   0.844   8.221 -0.5072 -0.1834  0.1420
 2962TIP3    H130445   1.786   0.813   8.271 -0.0787 -2.3418 -0.4371
 2962TIP3    H230446   1.852   0.802   8.135  0.9960  0.0302 -0.1595
 2963TIP3   OH230447   5.834   3.266   1.817 -0.5944 -0.2366  0.2866
 2963TIP3    H130448   5.814   3.340   1.761  1.0132 -0.7106 -1.0051
 2963TIP3    H230449   5.750   3.236   1.850 -1.3512  1.5221  0.0131
 2964TIP3   OH230450   0.052   4.829   0.226  0.1132  0.0020 -0.4323
 2964TIP3    H130451   0.097   4.783   0.155  1.8001  0.3294  0.3640
 2964TIP3    H230452   0.108   4.905   0.244  0.5922 -0.8844  2.2380
 2965TIP3   OH230453   4.825   6.145   0.329 -0.0052 -0.1900  0.1153
 2965TIP3    H130454   4.795   6.234   0.347  0.0193  0.1523 -1.4066
 2965TIP3    H230455   4.802   6.095   0.408 -1.3696  0.8288  0.3880
 2966TIP3   OH230456   1.451   3.998   0.694  0.5785  0.4958  0.2935
 2966TIP3    H130457   1.495   3.988   0.610  2.0357  1.2693  0.9211
 2966TIP3    H230458   1.509   4.056   0.744  0.5378 -1.1324  2.3641
 2967TIP3   OH230459   5.970   4.308   0.354  0.1739 -0.3345  0.6549
 2967TIP3    H130460   5.917   4.387   0.364  2.0323  0.8587  1.5791
 2967TIP3    H230461   5.912   4.236   0.381 -1.0317  0.8819  1.3889
 2968TIP3   OH230462   4.211   4.616   8.593 -0.0874  0.0098  0.5728
 2968TIP3    H130463   4.129   4.577   8.563  0.6775 -0.4191 -1.0701
 2968TIP3    H230464   4.219   4.697   8.541  0.9061 -0.3668  0.1141
 2969TIP3   OH230465   3.660   5.980   0.978 -0.2046  0.0525  0.4754
 2969TIP3    H130466   3.605   5.979   0.900  1.5571  0.2055 -0.8058
 2969TIP3    H230467   3.657   6.070   1.009 -3.2625 -0.5234  2.4357
 2970TIP3   OH230468   0.454   4.759   7.776  0.2485 -0.5824  0.3203
 2970TIP3    H130469   0.400   4.731   7.703  1.3514 -0.5599 -0.5359
 2970TIP3    H230470   0.454   4.685   7.836  0.3698 -1.0969 -0.3100
 2971TIP3   OH230471   2.614   1.262   3.076 -0.2885  0.2855 -0.5221
 2971TIP3    H130472   2.580   1.290   2.991 -0.1976 -2.5024 -1.5839
 2971TIP3    H230473   2.537   1.254   3.132 -0.6305 -0.0488 -1.0389
 2972TIP3   OH230474   6.291   2.366   8.940 -0.3981 -0.4690 -0.0481
 2972TIP3    H130475   6.310   2.430   8.871  0.8549 -0.1683  0.5473
 2972TIP3    H230476   6.197   2.374   8.955 -0.2496  1.3502  0.1114
 2973TIP3   OH230477   3.515   3.040   8.454 -0.0338  0.9716  0.2646
 2973TIP3    H130478   3.527   2.945   8.466 -0.4219  0.9452  0.4686
 2973TIP3    H230479   3.445   3.062   8.515 -0.0851  1.3560  0.0627
 2974TIP3   OH230480   3.712   3.122   9.110  0.0171 -1.1256  0.3000
 2974TIP3    H130481   3.649   3.130   9.039  0.1262  0.4841  0.3572
 2974TIP3    H230482   3.777   3.060   9.077 -0.0361 -0.5600 -0.9321
 2975TIP3   OH230483   5.301   1.987   8.196 -0.3329  0.1542  0.4246
 2975TIP3    H130484   5.317   2.029   8.111  0.9538  0.6515  0.8856
 2975TIP3    H230485   5.215   2.018   8.223  0.1977  1.7964  0.3270
 2976TIP3   OH230486   2.017   5.103   8.633 -1.0086  0.0219 -0.1708
 2976TIP3    H130487   1.962   5.179   8.654 -1.2942 -0.4187  0.6910
 2976TIP3    H230488   2.094   5.113   8.689 -1.4016 -0.7323  0.5180
 2977TIP3   OH230489   1.558   0.808   7.688 -0.2595 -0.3779 -0.2269
 2977TIP3    H130490   1.465   0.789   7.675 -0.5157  0.6348  0.0420
 2977TIP3    H230491   1.587   0.841   7.603 -0.3145 -0.0746 -0.1311
 2978TIP3   OH230492   0.292   4.145   1.837 -0.4706 -0.0767 -0.1061
 2978TIP3    H130493   0.362   4.198   1.875  0.6559 -1.7720  0.3335
 2978TIP3    H230494   0.216   4.161   1.892  1.0605 -2.3604  3.0198
 2979TIP3   OH230495   4.401   4.500   1.082  0.0731  0.3543  0.1998
 2979TIP3    H130496   4.324   4.443   1.073  0.4371 -0.0994 -0.0404
 2979TIP3    H230497   4.457   4.476   1.008  0.2266  1.0315  0.0943
 2980TIP3   OH230498   0.260   1.186   0.845 -0.4433 -0.2102 -0.2643
 2980TIP3    H130499   0.171   1.204   0.814  0.1504 -0.6153 -2.3727
 2980TIP3    H230500   0.314   1.251   0.800  0.2595  0.7211  1.7870
 2981TIP3   OH230501   1.879   5.532   0.748  0.3191  0.1149  0.4433
 2981TIP3    H130502   1.894   5.553   0.656 -0.3844  1.7754  0.6772
 2981TIP3    H230503   1.801   5.476   0.747  0.2116  0.2673  0.0431
 2982TIP3   OH230504   1.832   3.787   8.294 -0.9138  0.1558 -0.2189
 2982TIP3    H130505   1.903   3.778   8.231 -2.4679 -1.9731 -1.7890
 2982TIP3    H230506   1.767   3.721   8.268 -2.0792 -0.1932  3.0312
 2983TIP3   OH230507   3.273   3.318   0.403 -0.3236 -0.4352 -0.0946
 2983TIP3    H130508   3.261   3.224   0.412 -0.6935 -0.5463 -1.4791
 2983TIP3    H230509   3.362   3.334   0.434 -0.1150 -1.3111 -0.2209
 2984TIP3   OH230510   4.974   0.247   0.319  0.2976 -0.5442 -0.7217
 2984TIP3    H130511   5.045   0.192   0.351  1.3400  1.4358  0.6385
 2984TIP3    H230512   5.002   0.273   0.231  1.3498  0.2398 -0.1915
 2985TIP3   OH230513   4.719   3.215   8.172 -0.2168 -0.1012 -0.3995
 2985TIP3    H130514   4.804   3.257   8.180 -1.7578  3.2989  0.0202
 2985TIP3    H230515   4.703   3.208   8.078  0.7967 -1.5098 -0.4907
 2986TIP3   OH230516   2.927   6.585   0.862  0.5492 -0.2871 -0.7787
 2986TIP3    H130517   2.836   6.602   0.888  0.0529 -0.7110 -2.1304
 2986TIP3    H230518   2.965   6.672   0.851  0.5056 -0.1070  0.4168
 2987TIP3   OH230519   1.316   2.617   0.258  0.5412  0.3573  0.3617
 2987TIP3    H130520   1.310   2.545   0.195 -0.3153  1.1780 -0.5286
 2987TIP3    H230521   1.226   2.647   0.270  1.0159  2.2454 -0.4505
 2988TIP3   OH230522   5.542   5.589   9.238 -0.2566 -0.3795  0.0773
 2988TIP3    H130523   5.581   5.555   9.318  2.4857 -1.3784 -1.5780
 2988TIP3    H230524   5.528   5.682   9.256  0.1922 -0.6003  1.7329
 2989TIP3   OH230525   2.457   2.652   9.088 -0.7684 -0.0678  0.3691
 2989TIP3    H130526   2.409   2.719   9.039 -0.4694  0.0181  0.1977
 2989TIP3    H230527   2.515   2.701   9.146 -1.1561 -0.1668  0.8514
 2990TIP3   OH230528   2.455   4.136   0.393  0.4380  0.3655 -0.1927
 2990TIP3    H130529   2.384   4.192   0.360  0.0688  0.1934  0.2951
 2990TIP3    H230530   2.525   4.198   0.415  0.2962  0.5743 -0.3235
 2991TIP3   OH230531   6.155   4.667   7.578 -0.0451  0.0326  0.1558
 2991TIP3    H130532   6.174   4.759   7.556  1.1085 -0.6939 -2.1986
 2991TIP3    H230533   6.221   4.645   7.644  0.8557  0.4037 -0.5959
 2992TIP3   OH230534   1.553   0.647   0.447  0.3253 -0.0745 -0.3991
 2992TIP3    H130535   1.596   0.620   0.366  1.2639 -2.6492  0.8617
 2992TIP3    H230536   1.625   0.681   0.501 -0.0601  0.2876 -0.1152
 2993TIP3   OH230537   0.820   6.033   0.196 -0.4857  0.1903 -1.0136
 2993TIP3    H130538   0.857   6.044   0.284 -1.7689  0.1847 -0.4650
 2993TIP3    H230539   0.836   5.941   0.175 -3.6888 -0.9864  0.9171
 2994TIP3   OH230540   4.199   5.165   1.613  0.3627 -0.4281  0.2311
 2994TIP3    H130541   4.167   5.183   1.701  1.9628  1.1962  0.5362
 2994TIP3    H230542   4.159   5.081   1.590 -1.1926 -0.2236  1.9367
 2995TIP3   OH230543   0.313   4.405   1.256  0.3003 -0.4509  0.6738
 2995TIP3    H130544   0.235   4.433   1.303  0.3755 -2.0208  1.7702
 2995TIP3    H230545   0.384   4.417   1.318  0.7410 -0.3260  0.1515
 2996TIP3   OH230546   2.297   2.595   2.958  0.3492  0.3798  0.1752
 2996TIP3    H130547   2.236   2.546   2.903  0.5187 -2.1846  2.0924
 2996TIP3    H230548   2.259   2.591   3.046  1.9204  1.0923  0.9278
 2997TIP3   OH230549   1.697   2.678   2.204  0.4045 -0.6135 -0.6338
 2997TIP3    H130550   1.781   2.637   2.183  0.9658  0.0874  0.1793
 2997TIP3    H230551   1.636   2.605   2.215  0.6406 -1.1028 -2.2757
 2998TIP3   OH230552   0.360   2.423   2.289  0.0965 -0.4163 -0.2730
 2998TIP3    H130553   0.350   2.330   2.309  1.1398 -0.3977  0.3874
 2998TIP3    H230554   0.393   2.462   2.370  2.8207 -0.0473 -1.4537
 2999TIP3   OH230555   1.370   4.360   0.229  0.3385 -0.1642 -0.1464
 2999TIP3    H130556   1.306   4.357   0.158 -0.3778  1.5136  0.3887
 2999TIP3    H230557   1.318   4.363   0.309  1.1132 -0.4584  0.3776
 3000TIP3   OH230558   0.923   3.800   8.146  0.3484  0.7749 -0.5765
 3000TIP3    H130559   0.975   3.727   8.112  0.8413  0.3008  1.0706
 3000TIP3    H230560   0.877   3.835   8.070 -1.2125 -2.2740 -1.1856
 3001TIP3   OH230561   3.692   5.823   8.444  0.1946  0.0851  0.1170
 3001TIP3    H130562   3.701   5.892   8.379  2.9838 -1.1025 -0.9328
 3001TIP3    H230563   3.774   5.826   8.494  0.3945 -2.4005  0.0529
 3002TIP3   OH230564   5.496   5.510   2.826  0.4809 -0.4574  0.4550
 3002TIP3    H130565   5.556   5.515   2.900 -0.3909  0.4904  1.1238
 3002TIP3    H230566   5.483   5.601   2.799 -0.0890 -0.7043 -0.1444
 3003TIP3   OH230567   1.354   3.396   8.392  0.2870  0.4802  0.2496
 3003TIP3    H130568   1.347   3.487   8.362 -1.7590  1.0113  2.0680
 3003TIP3    H230569   1.276   3.354   8.356  1.6631 -0.8566 -1.3161
 3004TIP3   OH230570   5.123   6.375   8.753  0.3472 -0.0698  0.0605
 3004TIP3    H130571   5.218   6.387   8.759  0.2741  0.4775  0.2153
 3004TIP3    H230572   5.087   6.441   8.812 -0.1183 -0.6558  0.4419
 3005TIP3   OH230573   2.858   1.668   0.507 -0.1620  0.9428  0.4603
 3005TIP3    H130574   2.790   1.716   0.460 -1.1587  0.7658  1.6743
 3005TIP3    H230575   2.810   1.603   0.559  0.8005  1.7276  2.4197
 3006TIP3   OH230576   1.725   5.615   8.635 -0.2064  0.1824 -0.3917
 3006TIP3    H130577   1.669   5.684   8.670 -0.5732  0.0137 -0.6356
 3006TIP3    H230578   1.767   5.576   8.712 -1.1848 -0.3421 -0.1031
 3007TIP3   OH230579   6.243   5.454   0.969 -0.1108 -0.2120 -0.3891
 3007TIP3    H130580   6.283   5.468   1.055  0.7092  0.8282 -0.9249
 3007TIP3    H230581   6.169   5.516   0.967  0.6495  0.7119 -0.9101
 3008TIP3   OH230582   1.906   2.388   9.044  0.1717 -0.8317  0.4877
 3008TIP3    H130583   1.882   2.387   8.951 -0.0619 -0.7243  0.5476
 3008TIP3    H230584   1.832   2.431   9.088  0.0630 -1.3097  0.7820
 3009TIP3   OH230585   2.248   4.981   0.790  0.1604  0.0455  0.3913
 3009TIP3    H130586   2.296   4.986   0.707 -0.7110 -0.1257 -0.1348
 3009TIP3    H230587   2.199   5.064   0.794 -0.7206 -0.4457  0.1406
 3010TIP3   OH230588   0.062   3.020   2.127  0.2829  0.4589 -0.5410
 3010TIP3    H130589   0.093   2.998   2.215  0.1856 -0.4988 -0.7304
 3010TIP3    H230590   0.049   2.935   2.085  0.3736  0.9116 -1.4991
 3011TIP3   OH230591   5.882   0.747   1.423  0.6251 -0.1749 -0.2336
 3011TIP3    H130592   5.939   0.764   1.498  0.0168 -2.7020  0.9214
 3011TIP3    H230593   5.804   0.800   1.440  0.5481 -0.6161  0.8755
 3012TIP3   OH230594   2.146   0.758   1.276 -0.5179 -0.3734 -0.3479
 3012TIP3    H130595   2.161   0.797   1.190 -0.7309 -1.9479 -1.1480
 3012TIP3    H230596   2.152   0.663   1.260  0.6124 -0.6773  1.6032
 3013TIP3   OH230597   6.106   6.418   1.943  0.1994  0.4302  0.4441
 3013TIP3    H130598   6.065   6.395   1.860  0.0457 -1.8778  1.1011
 3013TIP3    H230599   6.194   6.448   1.918 -0.8737  2.8922 -0.7430
 3014TIP3   OH230600   0.247   0.737   2.552 -0.2604 -0.1948  0.0318
 3014TIP3    H130601   0.177   0.715   2.490 -0.7256  1.3977 -0.0602
 3014TIP3    H230602   0.244   0.667   2.617 -0.0472 -1.6666 -1.4852
 3015TIP3   OH230603   6.407   6.440   8.965  0.0806  0.4176  0.3737
 3015TIP3    H130604   6.469   6.403   9.028 -1.1950 -0.9078  0.8955
 3015TIP3    H230605   6.381   6.523   9.005 -0.7906 -0.4515  1.6936
 3016TIP3   OH230606   1.153   1.429   1.273 -1.0618  0.2827 -0.1374
 3016TIP3    H130607   1.073   1.390   1.308  0.0135 -1.8700  0.0972
 3016TIP3    H230608   1.173   1.379   1.194  0.7651 -0.2050  0.5631
 3017TIP3   OH230609   1.664   4.669   8.241  0.1493  0.3322 -0.4146
 3017TIP3    H130610   1.592   4.637   8.186 -0.0769  0.3465 -0.1318
 3017TIP3    H230611   1.634   4.753   8.273  0.5774  0.6490 -0.8320
 3018TIP3   OH230612   3.127   1.411   8.898  0.4326 -0.0078 -0.0634
 3018TIP3    H130613   3.124   1.432   8.804 -0.8623  0.7292  0.1206
 3018TIP3    H230614   3.074   1.332   8.906  0.4373  0.0019  0.0615
 3019TIP3   OH230615   1.940   3.795   8.799 -0.4654  0.0489 -0.4455
 3019TIP3    H130616   1.954   3.889   8.810  1.4371 -0.2786  0.3984
 3019TIP3    H230617   1.941   3.761   8.889  0.4245 -0.9472 -0.8154
 3020TIP3   OH230618   1.784   2.038   1.211 -0.4162  0.3208  0.4896
 3020TIP3    H130619   1.743   2.122   1.233 -0.2379  0.7794 -0.8669
 3020TIP3    H230620   1.855   2.061   1.150 -1.1415 -0.9088 -0.8729
 3021TIP3   OH230621   5.096   4.160   0.541 -0.2626 -0.1628  0.1635
 3021TIP3    H130622   5.019   4.191   0.494  0.4283 -2.2299 -2.6124
 3021TIP3    H230623   5.063   4.091   0.598 -0.5591 -1.0121 -0.9838
 3022TIP3   OH230624   0.809   6.260   1.466 -0.5944 -0.0045  0.0246
 3022TIP3    H130625   0.904   6.270   1.462 -0.5499 -0.4586 -0.0902
 3022TIP3    H230626   0.792   6.232   1.556 -0.6382  0.2478  0.0962
 3023TIP3   OH230627   4.331   5.116   2.090  0.0692 -0.2711  0.1489
 3023TIP3    H130628   4.412   5.123   2.039 -1.9685  0.6028 -3.3245
 3023TIP3    H230629   4.327   5.197   2.141  0.5123  0.6021 -1.1476
 3024TIP3   OH230630   4.821   4.646   8.922 -0.4773 -0.4046 -0.2401
 3024TIP3    H130631   4.818   4.553   8.941 -2.1816 -0.1858  0.7470
 3024TIP3    H230632   4.882   4.682   8.987 -0.2529 -0.7305 -0.2666
 3025TIP3   OH230633   1.495   2.807   0.347 -0.6030  0.0494 -0.5347
 3025TIP3    H130634   1.453   2.723   0.331  0.0259  0.1118 -2.9097
 3025TIP3    H230635   1.575   2.804   0.296  0.9468  1.0041  1.6778
 3026TIP3   OH230636   2.777   3.351   0.638  0.3067  0.5248  0.2113
 3026TIP3    H130637   2.697   3.331   0.686 -1.2668  1.9311 -1.6620
 3026TIP3    H230638   2.837   3.279   0.659 -1.1747 -0.1812  2.2298
 3027TIP3   OH230639   6.411   2.234   1.481 -0.0414 -0.2971  0.1777
 3027TIP3    H130640   6.446   2.161   1.430  1.1164 -1.1154  2.0284
 3027TIP3    H230641   6.332   2.198   1.523 -0.6466  0.1835 -0.5183
 3028TIP3   OH230642   6.561   0.899   3.040  0.1317 -0.4396 -0.0748
 3028TIP3    H130643   6.618   0.963   2.999 -0.6545  0.4726  0.2188
 3028TIP3    H230644   6.472   0.931   3.022 -0.2689 -1.2203  0.4346
 3029TIP3   OH230645   3.095   1.209   2.318 -0.2941 -0.2092  0.0510
 3029TIP3    H130646   3.069   1.173   2.233  0.1668  1.0959 -0.6753
 3029TIP3    H230647   3.165   1.151   2.348  0.4765  0.0751 -1.1261
 3030TIP3   OH230648   6.004   3.101   9.073 -0.3739 -0.0503  0.2390
 3030TIP3    H130649   6.008   3.196   9.059 -0.6462  0.2726  2.0865
 3030TIP3    H230650   5.929   3.072   9.020  0.1209  0.6292 -0.8748
 3031TIP3   OH230651   0.307   5.923   1.635  0.1078 -0.0689 -0.4368
 3031TIP3    H130652   0.366   5.860   1.592  0.2547 -0.1626 -0.1043
 3031TIP3    H230653   0.231   5.870   1.660  0.0277 -0.0171 -0.5696
 3032TIP3   OH230654   3.839   5.416   8.772  0.4968  0.0614  0.2451
 3032TIP3    H130655   3.916   5.387   8.820 -0.4247 -1.3006  0.9417
 3032TIP3    H230656   3.793   5.474   8.832  0.0387 -0.5779  0.5173
 3033TIP3   OH230657   1.094   6.281   3.064  0.2454  0.3245 -0.3220
 3033TIP3    H130658   1.002   6.301   3.082  0.7008  2.4900 -0.1032
 3033TIP3    H230659   1.141   6.319   3.138  1.4266  0.6552 -1.2252
 3034TIP3   OH230660   3.653   1.846   8.773 -0.0071 -0.0683  0.0188
 3034TIP3    H130661   3.654   1.786   8.698  0.5456 -0.1350  0.0728
 3034TIP3    H230662   3.580   1.816   8.827  0.6245 -1.0683  0.3391
 3035TIP3   OH230663   3.980   3.993   8.490 -0.2707  0.0428  0.1899
 3035TIP3    H130664   3.911   3.952   8.542 -0.6732 -0.2809 -0.5878
 3035TIP3    H230665   3.970   4.087   8.507 -0.6545 -0.0301  0.3739
 3036TIP3   OH230666   6.321   4.644   2.401  0.3868 -0.4327  0.8291
 3036TIP3    H130667   6.390   4.656   2.466  0.8824 -1.3818  0.4929
 3036TIP3    H230668   6.364   4.657   2.317 -0.1131  0.1476  0.6563
 3037TIP3   OH230669   0.686   4.037   0.997 -0.2284 -0.2045 -0.5058
 3037TIP3    H130670   0.628   4.008   1.068  0.2339  1.6939  0.7253
 3037TIP3    H230671   0.649   3.996   0.918 -1.2555 -1.7091  0.6835
 3038TIP3   OH230672   4.242   0.741   1.253  0.1818  0.2284 -0.3658
 3038TIP3    H130673   4.226   0.822   1.204  1.2569  1.2354  0.8561
 3038TIP3    H230674   4.336   0.728   1.249  0.4114  0.7493  1.9414
 3039TIP3   OH230675   3.961   1.334   8.630  0.0961 -0.1704 -0.2292
 3039TIP3    H130676   4.031   1.367   8.686 -1.0422  0.7984  0.6864
 3039TIP3    H230677   3.910   1.412   8.607  0.5392 -0.5276 -2.6831
 3040TIP3   OH230678   0.751   4.758   2.833 -0.1123  0.3782 -0.0009
 3040TIP3    H130679   0.688   4.759   2.760 -0.8762 -2.4011  0.5346
 3040TIP3    H230680   0.834   4.732   2.793  0.3867  2.3479 -0.3981
 3041TIP3   OH230681   4.794   4.041   1.334 -0.2784 -0.0667  0.3799
 3041TIP3    H130682   4.865   4.100   1.359  0.4279 -1.5166  2.1200
 3041TIP3    H230683   4.726   4.056   1.400 -1.6760  1.3384 -1.2992
 3042TIP3   OH230684   2.425   5.693   7.787 -0.3679 -0.5052  0.1463
 3042TIP3    H130685   2.404   5.776   7.744  0.5309 -0.2652  0.1643
 3042TIP3    H230686   2.516   5.676   7.764 -0.1548 -0.8358  1.2164
 3043TIP3   OH230687   3.373   3.579   7.418 -0.0473  0.6347 -0.0179
 3043TIP3    H130688   3.405   3.644   7.355 -0.3451 -0.6361 -1.5514
 3043TIP3    H230689   3.445   3.569   7.481  0.9331  0.7585 -1.0905
 3044TIP3   OH230690   2.413   1.060   0.462 -0.4414 -0.3594  0.3080
 3044TIP3    H130691   2.385   1.146   0.431  0.2764  0.5345  2.0333
 3044TIP3    H230692   2.393   1.060   0.555  1.0520 -1.4480  0.6632
 3045TIP3   OH230693   6.327   0.834   0.815 -0.5815  0.2982  0.0909
 3045TIP3    H130694   6.348   0.761   0.873  4.1280  0.7685 -0.6371
 3045TIP3    H230695   6.275   0.794   0.745 -0.4685 -1.7421  1.0918
 3046TIP3   OH230696   5.247   1.864   8.450 -0.9440  0.1973 -0.4175
 3046TIP3    H130697   5.239   1.888   8.358 -0.0211  2.3587 -0.0122
 3046TIP3    H230698   5.312   1.795   8.452  1.5376  2.3420 -1.2052
 3047TIP3   OH230699   0.153   1.504   1.640  0.3354 -0.0507 -0.3039
 3047TIP3    H130700   0.161   1.414   1.670  0.0587 -0.2254 -0.7466
 3047TIP3    H230701   0.065   1.509   1.604  0.1788  0.5254  0.1390
 3048TIP3   OH230702   0.554   3.732   2.567 -0.2787  0.1141 -0.3219
 3048TIP3    H130703   0.639   3.689   2.566  0.3091  1.2411 -1.4043
 3048TIP3    H230704   0.532   3.744   2.474 -1.0798  0.8576 -0.0545
 3049TIP3   OH230705   0.333   1.938   2.468  0.2494  0.0606  0.0585
 3049TIP3    H130706   0.401   1.876   2.497  1.0885  0.7784 -0.3120
 3049TIP3    H230707   0.311   1.987   2.547 -2.6552 -2.6519  1.1335
 3050TIP3   OH230708   5.406   2.495   8.164 -0.0356 -0.0571 -0.2154
 3050TIP3    H130709   5.408   2.505   8.069  0.6575 -0.0842 -0.2101
 3050TIP3    H230710   5.314   2.481   8.185 -0.4080  1.4233 -0.7326
 3051TIP3   OH230711   3.675   5.940   1.781 -0.2526 -0.0951 -0.7642
 3051TIP3    H130712   3.595   5.990   1.792 -0.6480 -0.8067 -0.2937
 3051TIP3    H230713   3.705   5.923   1.870  0.2921 -0.0443 -0.9331
 3052TIP3   OH230714   2.228   1.826   2.225 -0.3414  0.3728  0.3253
 3052TIP3    H130715   2.169   1.767   2.179 -1.0928  1.4776 -0.1642
 3052TIP3    H230716   2.316   1.794   2.202 -0.7298 -0.6568  0.2271
 3053TIP3   OH230717   3.417   1.462   7.763 -0.3384  0.2796 -0.0302
 3053TIP3    H130718   3.337   1.416   7.739 -0.6087 -0.6951  2.4115
 3053TIP3    H230719   3.461   1.479   7.680 -2.3790 -0.4302 -1.3296
 3054TIP3   OH230720   6.576   5.107   8.640 -0.0451 -0.5134 -0.1894
 3054TIP3    H130721   6.569   5.122   8.734  0.4234 -0.9511 -0.0812
 3054TIP3    H230722   6.588   5.194   8.602  0.4364 -0.4010  0.2171
 3055TIP3   OH230723   6.234   2.395   1.250  0.1893 -0.6130 -0.0176
 3055TIP3    H130724   6.325   2.398   1.221  0.0562  1.6229 -0.4352
 3055TIP3    H230725   6.212   2.302   1.253  2.4889 -1.2129  0.1598
 3056TIP3   OH230726   4.962   6.371   8.491  0.3545  0.0596  0.5834
 3056TIP3    H130727   5.013   6.354   8.570 -0.3410 -0.2363  0.9852
 3056TIP3    H230728   5.026   6.391   8.423  0.9284  2.4562  1.7149
 3057TIP3   OH230729   5.085   3.231   3.072 -1.0429  0.1371  0.3524
 3057TIP3    H130730   5.025   3.254   3.000 -0.5708  2.7727  0.7021
 3057TIP3    H230731   5.033   3.173   3.128 -1.7054 -1.3058 -1.6359
 3058TIP3   OH230732   3.166   6.379   0.266 -0.3558 -0.1315 -0.1401
 3058TIP3    H130733   3.243   6.406   0.315 -0.1835 -0.7859 -0.0455
 3058TIP3    H230734   3.096   6.436   0.298  0.1289  0.6180 -0.3931
 3059TIP3   OH230735   1.068   3.260   3.053 -0.0976  0.5266 -0.0487
 3059TIP3    H130736   1.156   3.285   3.084  1.2624 -2.7458 -0.9037
 3059TIP3    H230737   1.076   3.256   2.958 -0.7703 -1.0158 -0.0666
 3060TIP3   OH230738   4.460   4.655   0.381 -0.2202  0.0072 -0.0852
 3060TIP3    H130739   4.537   4.653   0.325  1.1775  0.9440  1.7102
 3060TIP3    H230740   4.475   4.586   0.446  0.0763  1.4399  1.4255
 3061TIP3   OH230741   3.409   3.683   1.809  0.0745 -0.3470 -0.0226
 3061TIP3    H130742   3.346   3.636   1.864  1.0899 -0.2029  1.3135
 3061TIP3    H230743   3.434   3.759   1.861 -0.4777  0.9589 -1.5731
 3062TIP3   OH230744   4.909   0.675   1.633  0.8623  0.5087 -0.3027
 3062TIP3    H130745   4.991   0.695   1.588  0.9259  0.2141 -0.3184
 3062TIP3    H230746   4.895   0.750   1.691  0.3046  1.3580 -1.4785
 3063TIP3   OH230747   1.353   4.727   1.917 -0.7524  0.8022  0.5919
 3063TIP3    H130748   1.423   4.779   1.956  0.2018 -0.0809  0.1151
 3063TIP3    H230749   1.278   4.786   1.913  0.5544  2.4624 -0.8597
 3064TIP3   OH230750   3.994   4.301   2.596 -0.3927 -0.3423  0.4712
 3064TIP3    H130751   4.063   4.234   2.605 -2.0993 -2.0426  1.9582
 3064TIP3    H230752   3.923   4.255   2.551 -0.4230  1.5402 -1.5336
 3065TIP3   OH230753   2.291   0.592   2.589  0.3119 -0.1329 -0.0839
 3065TIP3    H130754   2.360   0.657   2.577 -1.7477  2.7595  2.2495
 3065TIP3    H230755   2.221   0.619   2.530 -1.2257  0.9723  2.0871
 3066TIP3   OH230756   1.892   5.013   8.410 -0.5719 -0.4741  0.4662
 3066TIP3    H130757   1.919   5.071   8.481  0.2566 -0.0016 -0.2252
 3066TIP3    H230758   1.831   5.066   8.358  0.8732  0.1146 -0.6752
 3067TIP3   OH230759   6.401   4.384   2.222  0.0991  0.6899 -0.8045
 3067TIP3    H130760   6.407   4.472   2.182 -1.0716 -0.0967 -2.8837
 3067TIP3    H230761   6.453   4.328   2.164  0.7944 -0.0372  0.4772
 3068TIP3   OH230762   5.549   2.081   9.198  0.6226 -0.3372  0.0013
 3068TIP3    H130763   5.591   2.028   9.129 -0.1142 -1.0125  0.0495
 3068TIP3    H230764   5.456   2.073   9.179  0.4621  0.1980  0.5715
 3069TIP3   OH230765   2.352   1.661   9.212 -0.3103 -0.4904  0.7664
 3069TIP3    H130766   2.277   1.702   9.169  0.0338 -0.1149  0.5225
 3069TIP3    H230767   2.340   1.681   9.305 -0.0364  0.3472  0.6281
 3070TIP3   OH230768   5.471   1.936   0.292 -0.9624  0.0612  0.0878
 3070TIP3    H130769   5.381   1.957   0.268 -0.9700  2.7925  2.0085
 3070TIP3    H230770   5.522   2.010   0.259  0.1751 -0.2181  1.1597
 3071TIP3   OH230771   6.462   6.367   7.976 -0.2563 -0.3782 -0.1368
 3071TIP3    H130772   6.510   6.330   7.903  1.9876  1.4153  0.3207
 3071TIP3    H230773   6.425   6.449   7.942 -0.5714 -0.3343  0.2967
 3072TIP3   OH230774   6.075   6.552   8.913 -0.0185  0.0219 -0.3258
 3072TIP3    H130775   6.010   6.558   8.984 -1.2610 -0.2665 -1.4066
 3072TIP3    H230776   6.116   6.639   8.912 -0.4931  0.2689  0.2687
 3073TIP3   OH230777   0.708   6.197   1.730 -0.3278 -0.1634 -0.3121
 3073TIP3    H130778   0.634   6.144   1.760 -0.1811 -0.8516 -1.1288
 3073TIP3    H230779   0.679   6.287   1.742 -0.2228 -0.3813  2.0093
 3074TIP3   OH230780   5.204   0.107   0.377 -0.1326 -0.0926 -0.7200
 3074TIP3    H130781   5.245   0.100   0.463  1.2285  0.3303 -1.3090
 3074TIP3    H230782   5.240   0.034   0.327  0.5539  0.7513 -1.4927
 3075TIP3   OH230783   5.724   0.330   7.810  0.6217  0.0575  0.4509
 3075TIP3    H130784   5.676   0.250   7.831 -0.6065  0.8635  0.8009
 3075TIP3    H230785   5.781   0.305   7.737 -2.0279 -0.3690 -1.6108
 3076TIP3   OH230786   5.787   5.561   1.672 -0.2755 -0.0706  0.0200
 3076TIP3    H130787   5.791   5.601   1.759  1.9898  0.8632 -0.4145
 3076TIP3    H230788   5.759   5.471   1.687  0.7107 -0.1172  1.8229
 3077TIP3   OH230789   2.109   5.168   2.362  0.0362  0.2441 -0.6347
 3077TIP3    H130790   2.032   5.224   2.370  0.2162  0.2586  1.4531
 3077TIP3    H230791   2.171   5.220   2.311  0.2449  2.0793  1.3228
 3078TIP3   OH230792   5.626   5.732   0.632 -0.4825 -0.6772  0.3913
 3078TIP3    H130793   5.545   5.720   0.681 -0.8615  0.8051  0.1862
 3078TIP3    H230794   5.612   5.813   0.582  1.1696 -0.3096  0.4621
 3079TIP3   OH230795   0.236   2.055   2.706  0.1593 -0.0912  0.1753
 3079TIP3    H130796   0.241   2.139   2.751 -1.4190 -0.5041  1.1841
 3079TIP3    H230797   0.157   2.014   2.740  1.7379 -2.6992  0.9020
 3080TIP3   OH230798   5.426   6.463   8.748 -0.0468 -0.2244 -0.1217
 3080TIP3    H130799   5.427   6.410   8.828  0.7599  1.0317  0.7454
 3080TIP3    H230800   5.487   6.418   8.689 -0.8835 -1.3331 -0.1730
 3081TIP3   OH230801   0.370   1.406   2.872 -0.3674  0.3551  0.1989
 3081TIP3    H130802   0.359   1.467   2.944 -0.1561  1.9318 -1.0492
 3081TIP3    H230803   0.297   1.425   2.813  0.7934  0.7713 -1.1395
 3082TIP3   OH230804   0.370   5.505   1.255  0.3765 -0.2051  0.0876
 3082TIP3    H130805   0.369   5.562   1.178 -0.7628  0.0147  0.2440
 3082TIP3    H230806   0.304   5.438   1.236  1.0429 -0.9388  0.3039
 3083TIP3   OH230807   5.808   1.283   7.102  0.4776 -0.0850 -0.7748
 3083TIP3    H130808   5.769   1.326   7.178  1.7464 -1.3942  0.7104
 3083TIP3    H230809   5.902   1.302   7.110  0.6426 -0.3462 -1.9517
 3084TIP3   OH230810   5.186   2.688   8.825 -0.5647 -0.2650  0.3567
 3084TIP3    H130811   5.274   2.654   8.843 -0.3255  0.3520  0.3495
 3084TIP3    H230812   5.200   2.779   8.799 -1.1663 -0.2988 -0.0878
 3085TIP3   OH230813   5.725   1.999   2.211 -0.0988 -0.3352  0.3237
 3085TIP3    H130814   5.736   1.920   2.157 -2.1809 -0.5240  0.1220
 3085TIP3    H230815   5.639   2.033   2.188  0.4392  1.6265  0.9425
 3086TIP3   OH230816   5.565   3.858   1.602 -0.3154  0.1050  0.4416
 3086TIP3    H130817   5.490   3.915   1.586  0.8841  1.5902 -0.2026
 3086TIP3    H230818   5.568   3.848   1.697 -1.4252 -0.1546  0.4661
 3087TIP3   OH230819   3.218   2.513   0.244  0.3278 -0.0222 -0.2086
 3087TIP3    H130820   3.294   2.563   0.275  0.8814  0.6561 -2.4899
 3087TIP3    H230821   3.255   2.451   0.182 -0.8408 -0.6849 -0.2547
 3088TIP3   OH230822   6.577   0.711   2.464  0.3443 -0.2998 -0.2544
 3088TIP3    H130823   6.550   0.652   2.393  2.5140 -0.3423 -1.1183
 3088TIP3    H230824   6.570   0.657   2.543  1.1388 -1.3987 -0.8891
 3089TIP3   OH230825   1.500   3.806   0.023  0.3038 -0.0050 -0.3263
 3089TIP3    H130826   1.560   3.734   0.041  1.5946  1.1848  0.3246
 3089TIP3    H230827   1.414   3.774   0.052  0.9333 -1.0948  0.3752
 3090TIP3   OH230828   2.604   2.945   0.572 -0.3192  0.0903  0.1969
 3090TIP3    H130829   2.608   2.849   0.570 -2.8927 -0.0779 -0.1751
 3090TIP3    H230830   2.511   2.965   0.584  0.2558  2.5557  1.0614
 3091TIP3   OH230831   3.448   2.957   7.017  0.4820 -0.1239 -0.2357
 3091TIP3    H130832   3.419   3.048   7.008  0.7290 -0.2064 -2.2848
 3091TIP3    H230833   3.543   2.961   7.009  0.6341 -0.4391  1.1359
 3092TIP3   OH230834   4.519   3.700   9.030 -0.4180 -0.5455 -0.5211
 3092TIP3    H130835   4.552   3.612   9.014  1.1610 -0.2303  0.7552
 3092TIP3    H230836   4.534   3.715   9.123 -2.1873  0.4826 -0.3561
 3093TIP3   OH230837   3.590   1.447   3.247 -0.4067 -0.3636 -0.1322
 3093TIP3    H130838   3.558   1.490   3.168  1.7955  0.6294 -0.5647
 3093TIP3    H230839   3.527   1.377   3.264 -2.3263  0.9776 -1.2907
 3094TIP3   OH230840   1.095   3.222   1.558  0.1738  0.3864  0.2132
 3094TIP3    H130841   1.028   3.275   1.602 -1.7811 -1.0177 -0.9075
 3094TIP3    H230842   1.155   3.286   1.521 -0.4076  1.7124  1.4644
 3095TIP3   OH230843   3.562   1.883   2.611  0.2979 -0.2414  0.0032
 3095TIP3    H130844   3.482   1.892   2.663 -1.6475  0.8943 -2.9173
 3095TIP3    H230845   3.622   1.949   2.646 -1.4070  1.3393  0.0540
 3096TIP3   OH230846   2.243   4.830   1.596  0.1534 -0.5700  0.2652
 3096TIP3    H130847   2.271   4.743   1.626  1.5762  0.1222  1.0389
 3096TIP3    H230848   2.216   4.816   1.505  1.1831 -1.6638  0.0939
 3097TIP3   OH230849   0.290   2.962   8.348  0.4464 -0.3120  0.2205
 3097TIP3    H130850   0.315   3.004   8.266 -0.2285 -1.2620 -0.5026
 3097TIP3    H230851   0.273   2.871   8.324 -1.6490 -0.1885  1.0256
 3098TIP3   OH230852   5.732   2.767   8.972 -0.5279 -0.1638 -0.3997
 3098TIP3    H130853   5.718   2.861   8.983 -0.1048  0.1148 -2.0394
 3098TIP3    H230854   5.758   2.757   8.880  0.0662 -1.8106 -0.0823
 3099TIP3   OH230855   1.667   5.351   0.746  1.0441 -0.0316  0.4974
 3099TIP3    H130856   1.699   5.288   0.810 -0.2415 -1.2199  0.0169
 3099TIP3    H230857   1.607   5.301   0.690 -0.4313  1.7036  0.4112
 3100TIP3   OH230858   3.494   5.912   7.952 -0.2292 -0.2674  0.0102
 3100TIP3    H130859   3.401   5.893   7.940  0.1808 -2.7889  0.3625
 3100TIP3    H230860   3.535   5.880   7.873  0.3019  1.8346 -0.6401
 3101TIP3   OH230861   3.079   4.583   2.775  0.7936  0.4521  0.0196
 3101TIP3    H130862   3.036   4.508   2.815  2.6367  0.3035  1.9189
 3101TIP3    H230863   3.101   4.555   2.686 -1.5584  0.0261 -0.4928
 3102TIP3   OH230864   4.123   0.130   0.088 -0.1798  0.0185 -0.5783
 3102TIP3    H130865   4.071   0.064   0.043 -0.6457 -1.3483  1.7707
 3102TIP3    H230866   4.059   0.178   0.142  0.6716 -0.1749  0.6357
 3103TIP3   OH230867   3.606   0.734   0.457  0.4540  0.4120 -0.0353
 3103TIP3    H130868   3.615   0.649   0.413  2.0037 -0.5399  1.9287
 3103TIP3    H230869   3.534   0.777   0.412  0.1990 -1.5795 -1.6888
 3104TIP3   OH230870   5.339   4.932   1.524  0.0871  0.1294 -0.3828
 3104TIP3    H130871   5.275   4.971   1.464 -0.9074 -0.2202  0.4067
 3104TIP3    H230872   5.422   4.973   1.501  0.1387 -1.3292 -3.2081
 3105TIP3   OH230873   5.076   2.244   2.211  0.2697 -0.6668 -1.2285
 3105TIP3    H130874   5.044   2.173   2.267 -0.0168 -0.0250 -0.5660
 3105TIP3    H230875   5.143   2.287   2.264  0.3726 -0.3795 -1.5907
 3106TIP3   OH230876   2.333   2.412   1.418 -0.6262  0.4037 -0.9236
 3106TIP3    H130877   2.364   2.356   1.347  0.1253 -0.1797 -0.1559
 3106TIP3    H230878   2.361   2.500   1.392  0.9768  0.0053 -0.6675
 3107TIP3   OH230879   0.176   1.042   8.953 -0.6203  0.1054 -0.2445
 3107TIP3    H130880   0.229   0.999   8.886  0.7085 -0.7646  1.2938
 3107TIP3    H230881   0.095   0.992   8.955 -0.0352 -0.8589 -0.1218
 3108TIP3   OH230882   0.217   4.460   2.617 -0.0207  0.1060  0.1766
 3108TIP3    H130883   0.127   4.442   2.590  0.2537 -1.2978  0.1113
 3108TIP3    H230884   0.215   4.456   2.713 -0.6055  3.1529  0.3762
 3109TIP3   OH230885   0.083   5.233   1.065 -0.5432  0.6911  0.1772
 3109TIP3    H130886   0.025   5.169   1.105  0.1292 -1.0333 -1.4590
 3109TIP3    H230887   0.051   5.242   0.976  0.6372  1.0579 -0.2251
 3110TIP3   OH230888   3.058   4.604   7.789 -0.7386  0.4048  0.0799
 3110TIP3    H130889   3.121   4.634   7.723 -2.4279  2.8152 -0.5666
 3110TIP3    H230890   3.014   4.529   7.749 -0.4973  0.7081 -0.7682
 3111TIP3   OH230891   4.961   2.845   0.972 -0.1446  0.0681 -0.6811
 3111TIP3    H130892   4.962   2.898   1.052  0.0183 -1.0443  0.0824
 3111TIP3    H230893   4.873   2.859   0.936 -0.2581  0.5090 -0.2584
 3112TIP3   OH230894   5.178   4.063   8.257  0.0027  0.3967 -0.0843
 3112TIP3    H130895   5.116   4.120   8.212 -0.4651  0.1522  0.2301
 3112TIP3    H230896   5.123   3.995   8.297  0.6691 -1.5502 -2.2257
 3113TIP3   OH230897   1.398   4.639   1.004  0.3123 -0.5147  0.1818
 3113TIP3    H130898   1.443   4.581   0.943  0.5038  0.0228 -0.1978
 3113TIP3    H230899   1.316   4.661   0.961  0.8718  0.6422 -0.3357
 3114TIP3   OH230900   0.773   0.665   1.522  0.1889  0.2359  0.1696
 3114TIP3    H130901   0.827   0.632   1.594 -0.5903  1.6859  1.4595
 3114TIP3    H230902   0.767   0.591   1.461  2.6521 -0.3311  0.5164
 3115TIP3   OH230903   0.138   3.564   0.695 -0.4600 -0.2894  0.6639
 3115TIP3    H130904   0.079   3.622   0.743  1.2147  0.0560  2.4310
 3115TIP3    H230905   0.096   3.552   0.610 -3.3743 -0.6040  2.0349
 3116TIP3   OH230906   0.291   5.697   1.064 -0.1094 -0.7255  0.3571
 3116TIP3    H130907   0.291   5.643   0.985 -3.1836 -0.2705 -0.0699
 3116TIP3    H230908   0.317   5.784   1.035  1.0812 -1.0727  0.3331
 3117TIP3   OH230909   3.647   0.424   1.472  0.4180  0.5695 -0.0788
 3117TIP3    H130910   3.566   0.384   1.440 -1.0175  2.7836  0.5256
 3117TIP3    H230911   3.650   0.401   1.565 -0.9706  2.5157  0.5309
 3118TIP3   OH230912   1.736   0.179   8.654  0.2071 -0.0001  0.1931
 3118TIP3    H130913   1.731   0.099   8.706  0.2034  0.1616  0.4448
 3118TIP3    H230914   1.659   0.230   8.681 -0.0995 -0.1587 -0.3786
 3119TIP3   OH230915   3.572   1.326   0.115  0.4296  0.3041 -0.1230
 3119TIP3    H130916   3.623   1.246   0.131  2.4426  1.6173  0.3376
 3119TIP3    H230917   3.562   1.330   0.020  1.3971  0.1477 -0.2369
 3120TIP3   OH230918   0.792   5.990   0.937 -0.0736 -0.0395 -0.0452
 3120TIP3    H130919   0.812   5.967   1.028  1.5499  1.2414 -0.0364
 3120TIP3    H230920   0.877   5.987   0.892 -0.8635 -0.7628 -1.5687
 3121TIP3   OH230921   0.629   4.078   9.059 -0.0086  0.3819  0.2509
 3121TIP3    H130922   0.554   4.037   9.102  0.1533  0.8959  1.0403
 3121TIP3    H230923   0.606   4.170   9.052  0.8754  0.7009  1.2489
 3122TIP3   OH230924   1.789   0.566   2.279 -0.4982 -0.1240  0.1105
 3122TIP3    H130925   1.738   0.499   2.326 -0.8151  1.3780  2.0352
 3122TIP3    H230926   1.866   0.580   2.334 -0.0479  0.5539 -0.6773
 3123TIP3   OH230927   1.815   6.192   0.367 -0.1894  0.0299 -0.4757
 3123TIP3    H130928   1.847   6.247   0.439 -1.8534  0.2351  0.1670
 3123TIP3    H230929   1.859   6.108   0.378 -0.8442 -0.1311  1.1626
 3124TIP3   OH230930   6.065   1.977   8.491 -0.7243  0.2089 -0.3488
 3124TIP3    H130931   6.126   2.024   8.435 -0.6878  0.3122 -0.2228
 3124TIP3    H230932   6.121   1.922   8.546 -0.6347  1.4113  0.8051
 3125TIP3   OH230933   3.444   0.363   7.179  0.2271  0.0802 -0.3172
 3125TIP3    H130934   3.459   0.379   7.273 -0.0285  1.5739 -0.5082
 3125TIP3    H230935   3.385   0.433   7.152  0.4054 -0.2607 -1.6352
 3126TIP3   OH230936   0.618   6.411   8.095 -0.3990  0.3956  0.0771
 3126TIP3    H130937   0.672   6.339   8.063  3.3072  2.1364  1.7430
 3126TIP3    H230938   0.582   6.451   8.016  0.7310 -0.9354 -1.1649
 3127TIP3   OH230939   5.755   0.016   8.159 -0.1503 -0.1984 -0.1128
 3127TIP3    H130940   5.711  -0.011   8.078 -0.1780  0.6456 -0.3848
 3127TIP3    H230941   5.802  -0.063   8.188 -0.4396 -0.6114 -0.7468
 3128TIP3   OH230942   5.842   3.166   0.310 -0.7218  0.4813 -0.2007
 3128TIP3    H130943   5.786   3.089   0.318 -1.5506  0.6054 -3.2812
 3128TIP3    H230944   5.796   3.223   0.248  0.7332  2.6450  0.5794
 3129TIP3   OH230945   3.790   1.549   8.502 -0.1763  0.4046 -0.0440
 3129TIP3    H130946   3.699   1.578   8.513 -0.5246 -0.4723 -0.5710
 3129TIP3    H230947   3.787   1.485   8.432  0.7117 -0.3045  0.5435
 3130TIP3   OH230948   5.663   6.572   2.516  0.2133 -0.3854 -0.3263
 3130TIP3    H130949   5.584   6.520   2.513  0.5774 -1.0417  0.8221
 3130TIP3    H230950   5.700   6.555   2.603 -1.0846  3.9080  1.2961
 3131TIP3   OH230951   3.544   4.555   2.972 -0.2440  0.8445  0.1923
 3131TIP3    H130952   3.572   4.467   2.996 -1.9255  0.1163 -0.3469
 3131TIP3    H230953   3.522   4.597   3.055 -1.9016 -0.1744  0.3194
 3132TIP3   OH230954   3.464   6.031   8.905  0.6082 -0.1338 -0.7003
 3132TIP3    H130955   3.517   5.988   8.971  1.4605  2.2585  0.2938
 3132TIP3    H230956   3.374   6.018   8.934  0.9163 -0.1108  0.2973
 3133TIP3   OH230957   1.898   4.137   2.665  0.0339 -0.1805  0.0011
 3133TIP3    H130958   1.848   4.164   2.587 -3.5617  0.3256  2.2308
 3133TIP3    H230959   1.911   4.043   2.654  0.8915  0.1059 -1.8011
 3134TIP3   OH230960   2.635   1.460   0.612  0.1271  0.1135 -0.2500
 3134TIP3    H130961   2.706   1.395   0.609  1.9844  2.0262 -0.9885
 3134TIP3    H230962   2.591   1.444   0.695  0.4069 -2.1389 -0.4765
 3135TIP3   OH230963   5.298   3.803   0.471 -0.2556  0.1196  0.4281
 3135TIP3    H130964   5.384   3.772   0.500  0.7534  1.6563 -0.7445
 3135TIP3    H230965   5.248   3.723   0.454  1.7517 -0.9064 -1.1311
 3136TIP3   OH230966   1.600   3.274   9.020  0.4178  0.2928 -0.1803
 3136TIP3    H130967   1.598   3.348   8.959 -0.8517  0.6935  0.3002
 3136TIP3    H230968   1.511   3.238   9.015 -0.1487  1.1502  2.3536
 3137TIP3   OH230969   3.165   1.319   0.552  0.1885  0.1784  0.0298
 3137TIP3    H130970   3.163   1.402   0.505 -2.8102 -0.1169 -0.5736
 3137TIP3    H230971   3.235   1.269   0.509  0.8215  1.6970 -0.8085
 3138TIP3   OH230972   2.462   6.493   8.502 -0.0203  0.0626  0.0572
 3138TIP3    H130973   2.515   6.471   8.579 -0.3613  0.6762  0.4784
 3138TIP3    H230974   2.468   6.588   8.496 -0.8512  0.1163 -0.0484
 3139TIP3   OH230975   2.129   2.046   1.413  0.4803 -0.3891  0.2745
 3139TIP3    H130976   2.051   1.991   1.406 -0.1774  0.6834 -1.5144
 3139TIP3    H230977   2.097   2.128   1.451  0.4656  0.4357 -1.4125
 3140TIP3   OH230978   2.755   1.908   2.124 -0.1710  0.0871  0.2120
 3140TIP3    H130979   2.699   1.982   2.149 -0.0042  0.0578  0.6753
 3140TIP3    H230980   2.833   1.949   2.087 -0.3190  0.1329 -0.0561
 3141TIP3   OH230981   2.131   3.630   1.775 -0.2648  0.1456 -0.3846
 3141TIP3    H130982   2.047   3.585   1.777 -0.7008  0.8509  3.4199
 3141TIP3    H230983   2.171   3.611   1.859  0.6458  4.6962  0.4982
 3142TIP3   OH230984   5.697   1.393   9.215  0.4883  0.5385 -0.0393
 3142TIP3    H130985   5.721   1.484   9.201 -0.6425  1.1696  1.8483
 3142TIP3    H230986   5.720   1.350   9.133  0.7708  2.5637 -1.0857
 3143TIP3   OH230987   4.017   1.247   2.497 -0.2527 -1.0678 -0.0508
 3143TIP3    H130988   4.057   1.199   2.570 -0.8969  0.7593  1.6077
 3143TIP3    H230989   4.056   1.334   2.502 -2.4419 -0.0268 -0.0283
 3144TIP3   OH230990   6.303   1.382   0.327  0.4675  0.6888 -0.7568
 3144TIP3    H130991   6.270   1.292   0.326 -1.7778  1.4009  0.6155
 3144TIP3    H230992   6.261   1.424   0.251 -0.1148  1.0512 -0.2493
 3145TIP3   OH230993   1.927   0.716   0.952 -0.1285  0.3599 -0.4479
 3145TIP3    H130994   1.908   0.624   0.971  1.0690  0.1373 -0.2106
 3145TIP3    H230995   1.955   0.716   0.861 -2.7439  0.9340 -1.3207
 3146TIP3   OH230996   4.467   4.045   2.709  0.1864  0.1894 -0.5473
 3146TIP3    H130997   4.479   3.958   2.746 -2.2857  0.1685  0.3895
 3146TIP3    H230998   4.467   4.104   2.785  1.4775  1.0010 -1.1387
 3147TIP3   OH230999   4.592   4.737   1.078  0.1997  0.2620 -0.2369
 3147TIP3    H131000   4.644   4.674   1.028  2.7068  0.7948  1.5233
 3147TIP3    H231001   4.645   4.757   1.155 -1.6893  2.5443  0.6044
 3148TIP3   OH231002   5.215   5.375   1.448  0.5168 -0.5541 -0.5956
 3148TIP3    H131003   5.306   5.383   1.420  0.2706  2.2626 -0.8393
 3148TIP3    H231004   5.219   5.368   1.543  0.9819  0.9917 -0.4808
 3149TIP3   OH231005   1.040   2.909   8.415 -0.4221 -0.5389  0.0943
 3149TIP3    H131006   1.017   2.883   8.504  0.7113 -0.3092  0.4745
 3149TIP3    H231007   1.032   2.829   8.364  1.1096 -1.2272  0.8618
 3150TIP3   OH231008   1.362   1.060   2.528 -0.5414 -0.4543  0.0206
 3150TIP3    H131009   1.328   0.977   2.562 -2.3609  0.3440  0.2789
 3150TIP3    H231010   1.405   1.101   2.603  2.4752 -2.1016 -0.6408
 3151TIP3   OH231011   5.142   0.339   2.683 -0.0089  0.1939 -0.0121
 3151TIP3    H131012   5.116   0.346   2.775 -1.8463 -0.8440 -0.3913
 3151TIP3    H231013   5.181   0.252   2.676 -0.1040  0.1689 -0.2469
 3152TIP3   OH231014   1.683   3.169   0.018 -0.1296  0.8652  0.2415
 3152TIP3    H131015   1.662   3.188  -0.074 -1.7745 -0.3624  0.3314
 3152TIP3    H231016   1.777   3.188   0.025  0.5053 -0.8871 -2.2057
 3153TIP3   OH231017   2.398   0.424   8.873  0.3242  0.1910  0.2031
 3153TIP3    H131018   2.449   0.496   8.909  3.4607 -1.9409  0.3984
 3153TIP3    H231019   2.368   0.376   8.950 -0.1581  0.2302  0.0438
 3154TIP3   OH231020   2.719   1.160   8.025  0.0021  0.0329 -0.0360
 3154TIP3    H131021   2.647   1.114   8.069 -0.6323 -0.0298 -1.0945
 3154TIP3    H231022   2.787   1.093   8.016  0.2258  0.1132  1.0489
 3155TIP3   OH231023   4.050   3.707   8.784 -0.1871 -0.4122  0.2246
 3155TIP3    H131024   4.106   3.693   8.708 -0.7220 -0.4698 -0.1680
 3155TIP3    H231025   4.110   3.727   8.856  0.2712  1.2292 -0.5623
 3156TIP3   OH231026   1.579   1.696   9.251 -0.2232  0.2001 -0.0839
 3156TIP3    H131027   1.566   1.615   9.299  0.4083  0.1770  0.0576
 3156TIP3    H231028   1.564   1.673   9.159 -0.3625 -0.0020 -0.0095
 3157TIP3   OH231029   0.764   1.408   8.144 -0.9939 -0.1777 -0.4148
 3157TIP3    H131030   0.733   1.318   8.135 -0.7867 -0.2480 -0.4442
 3157TIP3    H231031   0.694   1.453   8.190 -1.3850 -0.1892 -0.9984
 3158TIP3   OH231032   0.904   5.957   8.630 -0.2446  0.4404  0.3860
 3158TIP3    H131033   0.977   5.970   8.569 -0.5158 -0.5715 -0.1593
 3158TIP3    H231034   0.916   6.026   8.696  1.2936  0.2009  0.3882
 3159TIP3   OH231035   3.652   6.317   0.784  0.4947  0.2193 -0.2131
 3159TIP3    H131036   3.680   6.395   0.737  0.7972 -0.3560 -1.0207
 3159TIP3    H231037   3.733   6.278   0.816  0.3124  0.4565  0.5664
 3160TIP3   OH231038   0.234   5.283   8.038 -0.1017  0.6627  0.9887
 3160TIP3    H131039   0.296   5.352   8.061  1.5074 -0.1400 -0.7090
 3160TIP3    H231040   0.172   5.325   7.979  1.8101  0.3775 -1.3482
 3161TIP3   OH231041   3.403   4.308   8.831 -0.3642 -0.2200  0.1953
 3161TIP3    H131042   3.339   4.258   8.781 -1.4564  1.5969 -0.3059
 3161TIP3    H231043   3.488   4.280   8.796 -1.0379 -0.1343 -1.6242
 3162TIP3   OH231044   4.712   4.754   2.049  0.7733  0.3465  0.2846
 3162TIP3    H131045   4.697   4.665   2.081  0.6573  0.3918  0.3572
 3162TIP3    H231046   4.805   4.757   2.029  1.3911  1.0387  2.8510
 3163TIP3   OH231047   0.073   4.988   8.956 -0.5245 -0.2128  0.3836
 3163TIP3    H131048  -0.010   4.995   9.004 -1.2793 -2.7299 -0.3918
 3163TIP3    H231049   0.077   4.896   8.929  2.2719 -0.0332 -0.0950
 3164TIP3   OH231050   4.511   3.578   3.210  0.4407 -0.2153 -0.3672
 3164TIP3    H131051   4.441   3.643   3.210  0.5177 -0.1138  0.6192
 3164TIP3    H231052   4.579   3.615   3.154  1.9038  2.1871  2.6885
 3165TIP3   OH231053   1.694   2.929   2.249 -0.0042  0.0516 -0.5570
 3165TIP3    H131054   1.687   2.837   2.221 -1.8434  0.0562 -0.2601
 3165TIP3    H231055   1.611   2.947   2.292  0.5773  1.6936 -0.0499
 3166TIP3   OH231056   0.132   1.799   0.725  0.6138  0.3556  0.6982
 3166TIP3    H131057   0.146   1.868   0.789 -0.1434  1.0309  0.1465
 3166TIP3    H231058   0.169   1.720   0.766  1.8044  1.1432  1.1838
 3167TIP3   OH231059   0.386   2.104   1.283  0.3087  0.7763  0.3289
 3167TIP3    H131060   0.406   2.147   1.199 -2.5747  0.5171 -0.6123
 3167TIP3    H231061   0.290   2.099   1.284  0.0851  2.4435  4.5160
 3168TIP3   OH231062   3.010   5.977   0.196  0.0525  0.8002 -0.3257
 3168TIP3    H131063   2.917   5.956   0.196  0.1501  0.0770 -2.6165
 3168TIP3    H231064   3.031   5.992   0.104  2.3861  0.0766  0.0215
 3169TIP3   OH231065   0.100   2.153   0.811 -0.3874  0.1143  0.3688
 3169TIP3    H131066   0.121   2.246   0.813  0.4864 -0.0442 -0.5669
 3169TIP3    H231067   0.007   2.149   0.832 -0.0905  1.0589  2.0385
 3170TIP3   OH231068   4.832   5.984   7.828 -0.4058  0.1956 -0.3874
 3170TIP3    H131069   4.739   5.976   7.806 -0.5472 -0.6417  0.4314
 3170TIP3    H231070   4.875   5.919   7.773 -0.3591  0.3151 -0.4905
 3171TIP3   OH231071   5.074   3.919   8.533  0.6777 -0.3309  0.2531
 3171TIP3    H131072   5.091   3.832   8.569  0.3170 -0.5872 -0.1952
 3171TIP3    H231073   4.979   3.924   8.527  0.7584 -0.7321 -1.7649
 3172TIP3   OH231074   6.141   0.434   0.668 -0.3771  0.5237 -0.4311
 3172TIP3    H131075   6.109   0.468   0.751 -1.6095  1.0209 -1.0830
 3172TIP3    H231076   6.142   0.339   0.679 -1.8655  0.5055 -0.2921
 3173TIP3   OH231077   1.405   3.898   1.152  0.5647  0.5804 -0.4128
 3173TIP3    H131078   1.500   3.890   1.162  0.7704  0.6113 -2.0146
 3173TIP3    H231079   1.388   3.869   1.062 -1.0627 -0.2793  0.1233
 3174TIP3   OH231080   5.087   3.408   1.389  0.3336  0.2636  0.0360
 3174TIP3    H131081   5.003   3.434   1.428  0.3700  2.3404 -1.1273
 3174TIP3    H231082   5.152   3.462   1.435  1.0978 -1.3837  0.9853
 3175TIP3   OH231083   2.453   5.600   1.554  0.4665 -0.1245 -0.5580
 3175TIP3    H131084   2.397   5.589   1.477  1.0502  1.2558 -1.2215
 3175TIP3    H231085   2.417   5.540   1.619 -0.3994 -0.8908 -1.7116
 3176TIP3   OH231086   1.266   1.465   1.530  0.0947 -0.0876 -0.4460
 3176TIP3    H131087   1.232   1.522   1.599  0.5558 -0.4277  0.0749
 3176TIP3    H231088   1.234   1.504   1.449 -0.1065  0.5646 -0.0661
 3177TIP3   OH231089   3.312   0.322   1.660  0.0308  0.4018 -0.0471
 3177TIP3    H131090   3.242   0.286   1.714 -1.8572  2.7599 -0.7628
 3177TIP3    H231091   3.299   0.282   1.574  1.7713 -1.7755  0.6198
 3178TIP3   OH231092   3.451   0.495   8.781 -0.5528 -0.6756  0.5135
 3178TIP3    H131093   3.545   0.481   8.776 -0.3822  0.5640 -0.2123
 3178TIP3    H231094   3.440   0.589   8.764 -2.1449 -1.3362 -3.0375
 3179TIP3   OH231095   5.252   2.442   1.575 -0.5585 -0.3094  1.1930
 3179TIP3    H131096   5.294   2.528   1.575  1.0035 -1.0352  0.3230
 3179TIP3    H231097   5.240   2.421   1.483 -0.7814 -1.1064  1.3975
 3180TIP3   OH231098   5.539   5.002   2.106  0.1822  0.2089  0.6712
 3180TIP3    H131099   5.509   5.027   2.194  2.4080 -0.6038  1.7297
 3180TIP3    H231100   5.578   4.915   2.117  2.2626  0.8938 -0.6926
 3181TIP3   OH231101   5.784   6.467   9.161  0.1166  0.1153 -0.0531
 3181TIP3    H131102   5.781   6.373   9.145  0.4934  0.1776 -0.5034
 3181TIP3    H231103   5.877   6.485   9.176  0.1116  0.5023 -0.4955
 3182TIP3   OH231104   5.883   4.054   8.932 -0.4004  0.4707  0.0547
 3182TIP3    H131105   5.850   3.970   8.962 -0.4398  0.0860 -1.0434
 3182TIP3    H231106   5.810   4.115   8.945 -2.4948 -0.7496 -4.2891
 3183TIP3   OH231107   4.209   4.138   7.822  0.2718 -0.1518  0.2081
 3183TIP3    H131108   4.125   4.183   7.818  0.6177  0.4970  0.0976
 3183TIP3    H231109   4.225   4.110   7.732  1.0076  1.3060 -0.1441
 3184TIP3   OH231110   0.474   3.002   1.085 -0.1408 -0.3672  0.2327
 3184TIP3    H131111   0.380   3.016   1.076 -0.0355  2.2937  1.8736
 3184TIP3    H231112   0.489   2.912   1.056 -2.8634 -0.2506 -1.9315
 3185TIP3   OH231113   1.319   1.433   8.354  0.0553  0.2832  0.3060
 3185TIP3    H131114   1.264   1.497   8.309 -0.6213 -0.5651 -0.1069
 3185TIP3    H231115   1.393   1.484   8.388  0.0928  1.1080 -0.9349
 3186TIP3   OH231116   6.139   5.652   1.222  0.4270  0.2157  0.1429
 3186TIP3    H131117   6.066   5.713   1.220 -0.0159 -0.2976  0.5331
 3186TIP3    H231118   6.195   5.684   1.293  0.3328  0.3116  0.1738
 3187TIP3   OH231119   5.633   0.010   0.938  0.2913 -0.3563  0.2944
 3187TIP3    H131120   5.625   0.102   0.915  1.2239 -0.4700 -0.5358
 3187TIP3    H231121   5.616   0.007   1.032  0.8725  0.7557  0.4470
 3188TIP3   OH231122   2.654   4.745   0.120  0.0995 -0.4430  0.2578
 3188TIP3    H131123   2.560   4.736   0.100  0.2026 -1.1988  0.0650
 3188TIP3    H231124   2.666   4.838   0.137  0.0873  0.4923 -3.8664
 3189TIP3   OH231125   6.589   2.001   2.301  0.0090 -0.5661  0.6023
 3189TIP3    H131126   6.506   1.971   2.338 -0.7441  0.2707 -0.3416
 3189TIP3    H231127   6.636   1.920   2.279 -0.2453 -1.0514  1.7855
 3190TIP3   OH231128   3.587   2.955   8.199 -0.1463 -0.0412  0.4840
 3190TIP3    H131129   3.620   3.039   8.168 -0.9589 -0.0112 -0.3276
 3190TIP3    H231130   3.555   2.973   8.288 -3.0177  1.2555 -0.6917
 3191TIP3   OH231131   0.036   5.527   7.191  0.5335  0.6523 -0.3576
 3191TIP3    H131132  -0.058   5.505   7.195  0.5811  0.5085 -0.0430
 3191TIP3    H231133   0.045   5.605   7.245  0.9343 -0.4935  1.2926
 3192TIP3   OH231134   4.511   1.741   7.472 -0.3773 -0.1895  0.2479
 3192TIP3    H131135   4.547   1.820   7.433 -0.0509 -0.8192 -0.7620
 3192TIP3    H231136   4.428   1.769   7.511 -1.2978  0.2784 -1.8892
 3193TIP3   OH231137   4.327   4.720   0.895 -0.1440 -0.0425  0.2394
 3193TIP3    H131138   4.335   4.663   0.972 -0.1885  0.9986  1.0442
 3193TIP3    H231139   4.354   4.806   0.927  0.4425  0.2801 -1.0889
 3194TIP3   OH231140   0.214   2.396   1.825 -0.5387  0.7018 -0.0065
 3194TIP3    H131141   0.121   2.401   1.806 -0.3796  1.6315 -0.6468
 3194TIP3    H231142   0.221   2.422   1.917 -0.9184  0.5430  0.0672
 3195TIP3   OH231143   6.002   1.129   0.276  0.4001 -0.0285  0.2347
 3195TIP3    H131144   5.968   1.041   0.258  0.9206 -0.3114  0.6310
 3195TIP3    H231145   5.990   1.141   0.370 -1.3241  1.0345 -0.0523
 3196TIP3   OH231146   5.141   2.279   2.781  0.0440  0.3281 -0.2476
 3196TIP3    H131147   5.158   2.353   2.839  0.2697 -0.1993  0.3570
 3196TIP3    H231148   5.187   2.302   2.700  0.0374  0.8852 -0.1012
 3197TIP3   OH231149   2.599   6.476   1.899  0.3662 -0.2518  0.1102
 3197TIP3    H131150   2.535   6.489   1.828  0.4280  0.8378  0.2491
 3197TIP3    H231151   2.564   6.401   1.948 -1.6279  1.2106  1.0521
 3198TIP3   OH231152   3.363   3.935   8.303 -0.4612  0.0788  0.5086
 3198TIP3    H131153   3.269   3.942   8.321 -0.7971  0.8542 -1.3507
 3198TIP3    H231154   3.390   4.023   8.278  0.4766 -0.3976 -0.2480
 3199TIP3   OH231155   4.387   2.431   9.222 -0.3442 -0.0189 -0.6329
 3199TIP3    H131156   4.307   2.482   9.230  1.0563  2.1439  0.4149
 3199TIP3    H231157   4.450   2.490   9.182  1.1290 -1.1823 -0.1309
 3200TIP3   OH231158   4.955   4.416   1.435 -0.2576  0.2632 -0.8038
 3200TIP3    H131159   5.011   4.379   1.366 -0.0276 -1.3430  0.1779
 3200TIP3    H231160   4.993   4.502   1.454  1.9757 -0.7977 -0.1354
 3201TIP3   OH231161   1.587   5.864   8.438 -0.3470 -0.1469  0.5522
 3201TIP3    H131162   1.599   5.959   8.438  0.6065 -0.2569 -0.0879
 3201TIP3    H231163   1.597   5.839   8.530  1.4310  0.1496  0.4721
 3202TIP3   OH231164   0.533   4.021   8.043 -0.6213 -0.3472 -0.4880
 3202TIP3    H131165   0.529   4.105   7.998  0.7927 -0.2265 -0.4259
 3202TIP3    H231166   0.499   4.039   8.130  1.3391  0.6146  0.1293
 3203TIP3   OH231167   1.315   1.086   1.132  0.2552  0.8276  0.0720
 3203TIP3    H131168   1.384   1.148   1.153  1.6742 -0.3459 -0.9281
 3203TIP3    H231169   1.292   1.045   1.215  0.8488  1.1373  0.3909
 3204TIP3   OH231170   0.507   1.921   0.128  0.0556  0.1550  0.1186
 3204TIP3    H131171   0.439   1.944   0.064 -0.4001 -0.3148  0.4280
 3204TIP3    H231172   0.543   2.006   0.155  0.8194  0.3271 -1.3523
 3205TIP3   OH231173   1.458   2.258   8.650 -0.2047  0.5487  0.0442
 3205TIP3    H131174   1.415   2.186   8.696 -0.8687  0.6183 -0.4581
 3205TIP3    H231175   1.403   2.275   8.574 -0.3800  1.9745  0.4607
 3206TIP3   OH231176   0.089   6.402   1.437  0.6060  0.1208  0.3111
 3206TIP3    H131177   0.168   6.371   1.391  0.6197  0.9808 -0.2633
 3206TIP3    H231178   0.080   6.493   1.411 -1.5199 -0.3905 -0.9719
 3207TIP3   OH231179   3.489   4.445   1.756  0.6009 -0.4106 -0.2191
 3207TIP3    H131180   3.524   4.484   1.836  2.0956 -0.8791 -0.6191
 3207TIP3    H231181   3.422   4.506   1.727  0.5600  0.1415  0.9837
 3208TIP3   OH231182   3.926   0.854   1.855 -0.3374  0.4319  0.0173
 3208TIP3    H131183   3.833   0.833   1.841  0.2767 -2.2864 -0.5819
 3208TIP3    H231184   3.960   0.778   1.903  1.9197  0.5656 -1.2587
 3209TIP3   OH231185   4.076   1.615   1.088 -0.3254 -0.5319 -0.4611
 3209TIP3    H131186   4.002   1.609   1.149 -1.0886 -3.3420 -1.4928
 3209TIP3    H231187   4.056   1.692   1.034 -1.0804  0.3242  0.9691
 3210TIP3   OH231188   0.526   5.866   8.686 -0.2900 -0.4177  0.0937
 3210TIP3    H131189   0.563   5.887   8.772  3.6613 -1.5037 -1.1337
 3210TIP3    H231190   0.499   5.951   8.651  0.4466  0.3870  1.4004
 3211TIP3   OH231191   2.362   2.328   7.751 -0.0035  0.0363 -0.6153
 3211TIP3    H131192   2.446   2.283   7.762  0.4208  0.8717 -0.3855
 3211TIP3    H231193   2.318   2.318   7.835 -0.0535 -0.2330 -0.6723
 3212TIP3   OH231194   0.511   1.217   1.043 -0.2886  0.5956  0.5734
 3212TIP3    H131195   0.447   1.199   0.974  0.2718 -0.2446  0.2549
 3212TIP3    H231196   0.543   1.305   1.023  2.7987 -1.0445 -2.7009
 3213TIP3   OH231197   0.200   4.192   2.281 -0.3479 -0.7913  0.3194
 3213TIP3    H131198   0.285   4.186   2.324 -0.2564 -0.8994  0.1247
 3213TIP3    H231199   0.137   4.187   2.353 -0.1754  0.5947  0.5932
 3214TIP3   OH231200   0.138   3.229   3.182  0.0632  0.5215 -0.0596
 3214TIP3    H131201   0.080   3.293   3.225  1.4756  0.8881  1.4170
 3214TIP3    H231202   0.137   3.153   3.240  0.7380  0.3919 -0.2094
 3215TIP3   OH231203   4.300   2.620   1.658  0.3510  1.1032  0.4276
 3215TIP3    H131204   4.368   2.586   1.716 -0.5571  1.0781  1.5168
 3215TIP3    H231205   4.297   2.714   1.677 -0.2103  1.0315  0.7048
 3216TIP3   OH231206   2.475   2.507   0.793 -0.0548  0.0528 -0.2004
 3216TIP3    H131207   2.404   2.571   0.790  0.4537  0.7291  1.1442
 3216TIP3    H231208   2.554   2.559   0.812  0.6619 -0.7763 -0.8005
 3217TIP3   OH231209   5.961   3.861   1.313 -1.0601 -0.0001  0.4774
 3217TIP3    H131210   5.938   3.850   1.221  1.1773 -0.2364 -0.0982
 3217TIP3    H231211   5.931   3.949   1.335 -1.5355  0.0902 -0.5029
 3218TIP3   OH231212   1.877   4.176   2.390  0.0405  0.1762  0.0917
 3218TIP3    H131213   1.838   4.264   2.396 -0.5231  0.0176 -0.9361
 3218TIP3    H231214   1.948   4.185   2.327 -0.4627 -0.2408 -0.5499
 3219TIP3   OH231215   0.978   5.539   0.593 -0.1683 -0.0878 -0.5852
 3219TIP3    H131216   0.978   5.447   0.617  0.5449 -0.1469 -0.7914
 3219TIP3    H231217   1.055   5.550   0.536  0.3427  0.8301  0.2413
 3220TIP3   OH231218   3.708   1.192   0.435 -0.5182  0.1562  0.0656
 3220TIP3    H131219   3.697   1.111   0.484  1.1891  0.1318  0.4908
 3220TIP3    H231220   3.730   1.164   0.346  3.3446 -0.0545  0.9065
 3221TIP3   OH231221   3.040   4.945   1.364  0.2567  0.3470 -0.2040
 3221TIP3    H131222   3.040   4.881   1.292 -1.0229 -0.2048  0.2509
 3221TIP3    H231223   3.056   4.892   1.442 -2.7255  0.1831  0.4245
 3222TIP3   OH231224   0.056   0.199   0.391 -0.3156 -0.0341  0.0817
 3222TIP3    H131225   0.000   0.140   0.443  1.5851 -0.5548  1.6358
 3222TIP3    H231226   0.138   0.204   0.441  0.4384  2.0306 -1.2745
 3223TIP3   OH231227   3.436   2.947   0.818 -0.2333  0.0922 -0.5599
 3223TIP3    H131228   3.413   2.949   0.725 -0.6069 -1.1746 -0.5180
 3223TIP3    H231229   3.352   2.938   0.863 -0.0516  0.7071 -0.0996
 3224TIP3   OH231230   3.440   2.607   0.728 -0.0192  0.4799  0.0671
 3224TIP3    H131231   3.415   2.634   0.817  0.4914 -1.2210  0.7722
 3224TIP3    H231232   3.368   2.550   0.700  0.9786 -1.0159  0.4261
 3225TIP3   OH231233   0.760   3.426   7.619 -0.1523  0.2290  0.5578
 3225TIP3    H131234   0.759   3.521   7.612  1.1385  0.2714  0.6623
 3225TIP3    H231235   0.838   3.400   7.570  1.4222 -0.5046  3.2604
 3226TIP3   OH231236   4.802   3.439   0.680 -0.2472 -0.4348 -0.2436
 3226TIP3    H131237   4.799   3.490   0.761 -1.3618 -0.3684 -0.3134
 3226TIP3    H231238   4.823   3.350   0.708 -2.9060 -0.9391  0.4267
 3227TIP3   OH231239   0.822   5.836   1.955 -0.4249  0.3397  0.0754
 3227TIP3    H131240   0.756   5.797   1.898 -0.7677  1.3431 -0.2322
 3227TIP3    H231241   0.772   5.872   2.028 -0.1225  0.3095  0.2999
 3228TIP3   OH231242   6.562   0.315   2.075 -0.0461  0.0852  0.0929
 3228TIP3    H131243   6.614   0.394   2.059  0.8425 -0.6834 -1.0007
 3228TIP3    H231244   6.529   0.290   1.989 -0.0372 -0.9273  0.3745
 3229TIP3   OH231245   6.176   2.481   0.464  0.4155  0.5609  0.3811
 3229TIP3    H131246   6.177   2.549   0.397 -0.1052  1.2255  1.0275
 3229TIP3    H231247   6.171   2.529   0.547 -1.9347 -0.2613  0.7946
 3230TIP3   OH231248   4.061   1.969   0.314  0.2958  0.4876 -0.0059
 3230TIP3    H131249   4.103   1.980   0.228 -0.1315 -1.8560 -0.5791
 3230TIP3    H231250   3.969   1.954   0.293  0.3682 -1.1879  0.7723
 3231TIP3   OH231251   3.867   3.275   1.990  0.2355 -0.4619 -0.6382
 3231TIP3    H131252   3.846   3.183   1.972  0.4071 -0.3195 -1.6285
 3231TIP3    H231253   3.922   3.301   1.917 -1.0880  0.8823 -1.1954
 3232TIP3   OH231254   2.704   0.944   9.299 -0.0971  0.1170  0.3320
 3232TIP3    H131255   2.734   0.854   9.290 -1.4975 -0.4561  1.0090
 3232TIP3    H231256   2.617   0.944   9.259 -0.7790  0.7703  1.7547
 3233TIP3   OH231257   0.997   5.074   2.526  0.2137 -0.4685 -0.3069
 3233TIP3    H131258   0.968   5.093   2.616 -0.5875 -0.4879 -0.5589
 3233TIP3    H231259   1.092   5.080   2.531  0.2185 -1.0390  0.6832
 3234TIP3   OH231260   3.214   2.644   2.808 -0.3091  0.2314  0.1268
 3234TIP3    H131261   3.127   2.682   2.804  0.3290  1.7580  0.1429
 3234TIP3    H231262   3.262   2.683   2.735  0.3240 -0.7136  0.0089
 3235TIP3   OH231263   1.098   1.636   8.508 -0.4527 -0.2114 -0.4754
 3235TIP3    H131264   1.111   1.597   8.421  0.1935  0.8856 -0.8897
 3235TIP3    H231265   1.170   1.698   8.517 -2.1120  1.7747 -0.3592
 3236TIP3   OH231266   4.292   4.456   8.389 -0.3251  0.1660 -0.6515
 3236TIP3    H131267   4.375   4.450   8.341 -0.1964  0.2201 -0.4373
 3236TIP3    H231268   4.315   4.500   8.471 -0.1437 -1.7305  0.3696
 3237TIP3   OH231269   6.483   6.409   0.520  0.4865 -0.4145  0.5420
 3237TIP3    H131270   6.457   6.391   0.430 -0.2684 -0.7438  0.8145
 3237TIP3    H231271   6.562   6.358   0.534 -0.5198 -1.9831  0.6875
 3238TIP3   OH231272   2.985   0.380   0.009  0.4976 -0.1579  0.0028
 3238TIP3    H131273   3.039   0.431  -0.051  0.9660 -0.8355 -0.1613
 3238TIP3    H231274   2.980   0.293  -0.032  1.4551 -0.8530  1.3051
 3239TIP3   OH231275   1.801   0.806   8.671 -0.1087  0.0898  0.8544
 3239TIP3    H131276   1.881   0.854   8.693 -0.5985  0.8174  1.0946
 3239TIP3    H231277   1.731   0.871   8.680 -0.4569  0.3301 -2.2902
 3240TIP3   OH231278   6.327   3.369   2.180 -0.1963 -0.4254 -0.7359
 3240TIP3    H131279   6.381   3.299   2.144 -1.1756 -1.3338 -0.4956
 3240TIP3    H231280   6.386   3.419   2.236  0.1860 -2.0609  0.4250
 3241TIP3   OH231281   3.720   0.901   2.456 -0.2178  0.0895  0.0957
 3241TIP3    H131282   3.754   0.975   2.406 -0.9147  1.3928  1.4656
 3241TIP3    H231283   3.645   0.870   2.406 -1.8798  2.3813  0.9908
 3242TIP3   OH231284   4.162   6.543   2.553 -0.1995 -0.0672 -0.0056
 3242TIP3    H131285   4.101   6.469   2.556  0.6153 -0.7329  2.9933
 3242TIP3    H231286   4.234   6.517   2.610  2.0550  1.4869 -1.9578
 3243TIP3   OH231287   0.465   0.995   2.213 -0.2364  0.1427 -0.6425
 3243TIP3    H131288   0.466   0.942   2.292  0.4816  1.6110  0.3716
 3243TIP3    H231289   0.474   0.932   2.142 -0.0168 -1.1330  0.4799
 3244TIP3   OH231290   2.864   6.570   1.920 -0.0229 -0.2183  0.3407
 3244TIP3    H131291   2.778   6.531   1.907 -0.8069  1.7925 -1.0319
 3244TIP3    H231292   2.922   6.523   1.861 -0.8169  0.2615 -0.8466
 3245TIP3   OH231293   3.385   3.544   8.204  0.2031 -0.1986  0.3845
 3245TIP3    H131294   3.417   3.600   8.274 -0.5112 -1.1087  1.4924
 3245TIP3    H231295   3.462   3.497   8.173  0.6910  0.9104 -0.1118
 3246TIP3   OH231296   4.735   1.888   2.312  0.1538 -0.1079  0.3286
 3246TIP3    H131297   4.815   1.838   2.326 -0.2555 -0.9479 -0.1948
 3246TIP3    H231298   4.726   1.893   2.217  0.5237  1.5491  0.3624
 3247TIP3   OH231299   3.940   5.643   0.073 -0.2037  0.3223 -0.0876
 3247TIP3    H131300   4.016   5.666   0.127  0.6297 -2.3162 -0.0014
 3247TIP3    H231301   3.914   5.557   0.104 -3.0125  0.9486 -0.4385
 3248TIP3   OH231302   5.887   5.296   9.294 -0.3736 -0.1146  0.5704
 3248TIP3    H131303   5.961   5.272   9.349  0.8060  0.3148 -0.7723
 3248TIP3    H231304   5.922   5.359   9.232 -1.7026 -0.4181 -0.5536
 3249TIP3   OH231305   5.190   2.446   1.301 -0.2511  0.0344  0.1044
 3249TIP3    H131306   5.146   2.364   1.278 -0.9366  0.6660 -0.9193
 3249TIP3    H231307   5.147   2.512   1.247 -0.1611  1.1879  1.3955
 3250TIP3   OH231308   3.115   5.084   0.670 -0.0913  0.3140  0.6600
 3250TIP3    H131309   3.208   5.077   0.647 -0.1728 -1.8838  0.7888
 3250TIP3    H231310   3.070   5.093   0.586  0.1186 -0.5904  0.4421
 3251TIP3   OH231311   6.184   3.380   1.878  0.0105  0.1437 -0.4506
 3251TIP3    H131312   6.211   3.292   1.905 -2.2053 -0.9774 -1.6495
 3251TIP3    H231313   6.265   3.431   1.880  1.7874 -2.4058 -1.6845
 3252TIP3   OH231314   0.822   4.641   8.384  0.2320  0.6367 -0.1337
 3252TIP3    H131315   0.750   4.585   8.415  1.4273 -1.7817 -1.5126
 3252TIP3    H231316   0.809   4.723   8.432 -0.2727 -1.4986  3.8267
 3253TIP3   OH231317   4.859   0.890   1.306  0.2872 -0.2950  0.0928
 3253TIP3    H131318   4.797   0.918   1.373 -0.5559 -0.2838 -0.6719
 3253TIP3    H231319   4.945   0.903   1.346 -0.1833  0.0887  1.0163
 3254TIP3   OH231320   3.295   2.798   2.245  0.3218  0.3850  0.6727
 3254TIP3    H131321   3.302   2.890   2.267  2.1599  0.4996 -0.1909
 3254TIP3    H231322   3.309   2.752   2.328  1.2478  0.8755  0.7992
 3255TIP3   OH231323   2.143   6.472   2.014  0.3538  0.0368 -0.0297
 3255TIP3    H131324   2.159   6.400   1.954 -2.0882 -1.9880  1.5581
 3255TIP3    H231325   2.101   6.539   1.960  2.2567  0.1847 -1.4339
 3256TIP3   OH231326   4.944   2.853   2.831 -0.2098 -0.2059  0.4834
 3256TIP3    H131327   5.024   2.802   2.826 -1.4334 -2.2339  0.4111
 3256TIP3    H231328   4.924   2.858   2.925 -0.8739 -1.2050  0.4098
 3257TIP3   OH231329   1.436   6.004   0.880  0.2076 -0.3814 -0.3629
 3257TIP3    H131330   1.406   6.092   0.904 -0.8963 -0.9287  0.3431
 3257TIP3    H231331   1.531   6.009   0.888  0.2995  1.1719 -1.8772
 3258TIP3   OH231332   4.512   2.212   1.451  0.0575 -0.5521 -0.2774
 3258TIP3    H131333   4.508   2.281   1.386 -3.3354  0.3974  0.7401
 3258TIP3    H231334   4.549   2.254   1.529 -1.4221  0.0405  0.1470
 3259TIP3   OH231335   6.500   5.350   1.988 -0.0860 -0.5208  0.2709
 3259TIP3    H131336   6.446   5.272   1.973  1.0554 -1.0852 -1.1280
 3259TIP3    H231337   6.550   5.329   2.067 -0.2986 -0.9155  0.3042
 3260TIP3   OH231338   1.056   4.381   1.605 -0.1909  0.1644  0.5147
 3260TIP3    H131339   1.135   4.416   1.647  1.2947 -0.6087 -1.4628
 3260TIP3    H231340   1.014   4.457   1.565  1.0571  0.2597 -0.6935
 3261TIP3   OH231341   4.417   1.838   8.232 -0.6958 -0.2949  0.4643
 3261TIP3    H131342   4.508   1.853   8.257 -0.0998 -0.8397 -1.2750
 3261TIP3    H231343   4.378   1.925   8.231  0.5528  0.2929 -1.4438
 3262TIP3   OH231344   2.783   3.090   1.904 -0.3115  0.2361 -0.0575
 3262TIP3    H131345   2.764   3.133   1.987 -3.5732 -1.4571  0.2327
 3262TIP3    H231346   2.832   3.011   1.928  0.0654  0.5105  0.0819
 3263TIP3   OH231347   2.605   4.922   3.425 -0.1061 -0.4326  0.4074
 3263TIP3    H131348   2.645   4.969   3.352  1.3633  0.2695  1.6052
 3263TIP3    H231349   2.512   4.941   3.418 -0.0901 -0.9234 -1.6395
 3264TIP3   OH231350   0.749   0.410   0.892 -0.4041 -0.0890  0.1730
 3264TIP3    H131351   0.791   0.488   0.854 -0.2086  0.4865  1.5295
 3264TIP3    H231352   0.671   0.443   0.936 -1.4968 -0.9624 -1.0135
 3265TIP3   OH231353   5.590   1.758   1.526 -0.1134 -0.0759  0.1797
 3265TIP3    H131354   5.549   1.759   1.440 -1.1767  1.7648  0.6482
 3265TIP3    H231355   5.623   1.668   1.536  0.0167 -0.3447 -2.0970
 3266TIP3   OH231356   2.088   1.509   0.414  0.2419  0.0886 -0.4001
 3266TIP3    H131357   2.001   1.527   0.378 -0.2732  1.6356  1.4545
 3266TIP3    H231358   2.073   1.447   0.485  1.1367 -2.2491 -2.1332
 3267TIP3   OH231359   2.239   1.058   8.097  0.2953  0.4643 -0.5092
 3267TIP3    H131360   2.321   1.008   8.098 -1.1061 -1.9978  0.0028
 3267TIP3    H231361   2.220   1.072   8.004  2.0800  2.5973 -0.6339
 3268TIP3   OH231362   1.296   3.883   0.873  0.3170  0.6548  0.4177
 3268TIP3    H131363   1.323   3.941   0.802 -0.5015  0.6499  0.0993
 3268TIP3    H231364   1.227   3.931   0.919 -1.0365 -0.4457 -0.4228
 3269TIP3   OH231365   1.443   5.182   2.767 -0.0015 -0.2626 -0.4598
 3269TIP3    H131366   1.522   5.167   2.819  1.5332  2.9028 -1.6402
 3269TIP3    H231367   1.385   5.231   2.824  0.3304  0.3793 -0.6666
 3270TIP3   OH231368   2.064   4.315   2.562 -0.1331  0.6712  0.5656
 3270TIP3    H131369   2.157   4.298   2.577 -0.4603 -1.4681  0.4537
 3270TIP3    H231370   2.019   4.253   2.619 -1.4791  0.1236 -1.0237
 3271TIP3   OH231371   6.197   0.315   1.990  0.4719  0.1976 -0.2807
 3271TIP3    H131372   6.113   0.312   1.945  0.2273  3.1699 -0.2216
 3271TIP3    H231373   6.192   0.246   2.056 -1.6188 -0.1672 -0.7579
 3272TIP3   OH231374   1.785   4.894   2.525 -0.5124 -0.6323 -1.0931
 3272TIP3    H131375   1.757   4.971   2.574 -0.6674 -0.4103 -1.5177
 3272TIP3    H231376   1.836   4.929   2.452  0.6146 -1.0171 -0.5095
 3273TIP3   OH231377   0.644   4.104   2.527 -0.2612 -1.2246  0.3919
 3273TIP3    H131378   0.726   4.074   2.567 -0.6853 -0.4003  1.9515
 3273TIP3    H231379   0.577   4.087   2.594 -1.1775 -0.7853 -0.3860
 3274TIP3   OH231380   0.088   1.576   8.338 -0.2283 -0.1208 -0.0520
 3274TIP3    H131381   0.168   1.624   8.359 -1.0804  0.8864  1.0098
 3274TIP3    H231382   0.116   1.509   8.275  1.1217  1.3389 -1.0732
 3275TIP3   OH231383   6.332   4.962   8.603 -0.0607 -0.3647  0.4858
 3275TIP3    H131384   6.268   5.025   8.635  0.9246  0.1248  1.5877
 3275TIP3    H231385   6.407   5.016   8.577  1.0788 -1.1009  2.1210
 3276TIP3   OH231386   5.118   4.662   1.672  0.2799  0.2187  0.0060
 3276TIP3    H131387   5.194   4.644   1.618 -0.6257 -3.7407 -0.2810
 3276TIP3    H231388   5.151   4.716   1.744  2.8459  0.4151 -1.2297
 3277TIP3   OH231389   0.787   1.370   2.512  0.6387 -0.4159  0.1767
 3277TIP3    H131390   0.715   1.415   2.557  1.9604  0.4108  1.5315
 3277TIP3    H231391   0.745   1.294   2.472 -0.8257 -0.4801  1.7210
 3278TIP3   OH231392   4.763   0.661   2.290 -0.1804  0.6702  0.2270
 3278TIP3    H131393   4.780   0.579   2.337  1.5814  0.6253 -0.4192
 3278TIP3    H231394   4.777   0.638   2.198 -0.3227  1.5634 -0.0211
 3279TIP3   OH231395   5.137   1.125   0.313 -0.6232 -0.9353 -0.4281
 3279TIP3    H131396   5.056   1.076   0.299 -1.8584  1.4093 -2.0943
 3279TIP3    H231397   5.176   1.084   0.390 -1.1115 -4.9737 -2.0377
 3280TIP3   OH231398   3.427   4.494   8.335  0.1144 -0.4502  0.0426
 3280TIP3    H131399   3.339   4.499   8.371 -0.3666 -0.8737 -1.0408
 3280TIP3    H231400   3.484   4.519   8.408 -0.9370  0.6636  0.5176
 3281TIP3   OH231401   5.552   5.783   0.270 -0.1215 -0.5058  0.5542
 3281TIP3    H131402   5.537   5.827   0.186 -1.0741 -0.8392  0.5391
 3281TIP3    H231403   5.632   5.731   0.255 -0.4348 -0.7775 -0.2348
 3282TIP3   OH231404   4.926   6.535   1.324  0.4699 -0.1668  0.0862
 3282TIP3    H131405   4.921   6.441   1.310  0.8785 -0.0239 -1.1140
 3282TIP3    H231406   4.840   6.568   1.299  0.8418 -0.0435 -1.0699
 3283TIP3   OH231407   5.410   2.379   7.018 -0.9517  0.2059 -0.1229
 3283TIP3    H131408   5.344   2.420   7.073  0.1077 -1.1908  2.4122
 3283TIP3    H231409   5.457   2.452   6.978 -0.9227  1.4095  1.9575
 3284TIP3   OH231410   2.396   3.968   2.538  0.7077  0.1837 -0.0095
 3284TIP3    H131411   2.391   3.874   2.522 -0.0438  0.3073 -0.5604
 3284TIP3    H231412   2.412   3.976   2.632 -2.4797 -0.4690  0.7157
 3285TIP3   OH231413   6.113   1.483   0.997 -0.1381 -0.3117 -0.0044
 3285TIP3    H131414   6.182   1.529   1.045 -0.2377 -1.8112  1.6607
 3285TIP3    H231415   6.061   1.553   0.957  0.9347  0.9242  0.6924
 3286TIP3   OH231416   4.753   5.593   2.060 -0.0843 -0.1892 -0.2828
 3286TIP3    H131417   4.688   5.637   2.005 -0.8525 -0.0192  0.7232
 3286TIP3    H231418   4.747   5.501   2.036  0.1222 -0.0230 -0.9989
 3287TIP3   OH231419   5.454   3.472   0.433  0.0406  0.0004 -0.1738
 3287TIP3    H131420   5.370   3.435   0.403  0.2312 -0.0835 -0.6125
 3287TIP3    H231421   5.506   3.396   0.457  0.3273 -0.0054 -0.7970
 3288TIP3   OH231422   2.764   5.490   1.819  0.3220  0.6810 -0.3908
 3288TIP3    H131423   2.760   5.464   1.727  1.4387 -1.7048  0.1565
 3288TIP3    H231424   2.842   5.544   1.826 -0.0595  1.3183 -0.9072
 3289TIP3   OH231425   3.822   4.689   8.324 -0.3408  0.3328 -0.3165
 3289TIP3    H131426   3.906   4.693   8.278  0.3439 -0.1970  0.8549
 3289TIP3    H231427   3.771   4.625   8.275  0.9291 -1.3725  0.4880
 3290TIP3   OH231428   4.448   0.243   1.915 -0.0683  0.0426  0.0292
 3290TIP3    H131429   4.440   0.152   1.943 -1.3130 -0.3355 -1.3964
 3290TIP3    H231430   4.374   0.287   1.957  0.1301  0.2536  0.1613
 3291TIP3   OH231431   1.778   3.133   7.202 -0.1143  0.2569  0.2022
 3291TIP3    H131432   1.685   3.147   7.181  0.2912  2.9091 -0.1246
 3291TIP3    H231433   1.806   3.068   7.138 -1.1381  1.4142 -1.5109
 3292TIP3   OH231434   0.527   4.751   8.899  0.5479  0.4887  0.1175
 3292TIP3    H131435   0.542   4.700   8.979  1.0376 -0.5449 -0.6255
 3292TIP3    H231436   0.472   4.696   8.844  0.3637  1.1191 -0.3464
 3293TIP3   OH231437   1.717   0.320   1.351  0.1668  0.0934  0.3203
 3293TIP3    H131438   1.707   0.266   1.429 -1.3088 -0.6537 -0.3417
 3293TIP3    H231439   1.628   0.348   1.330  0.6925  1.2968 -0.3926
 3294TIP3   OH231440   1.123   2.901   7.583 -0.5151  0.0444  0.2199
 3294TIP3    H131441   1.178   2.832   7.620  1.5247  0.9931 -0.8713
 3294TIP3    H231442   1.107   2.873   7.493 -1.5314 -0.0358  0.4173
 3295TIP3   OH231443   5.078   1.692   0.695 -0.4499  0.0410  0.1870
 3295TIP3    H131444   5.070   1.640   0.615 -1.8829 -0.6398  0.7377
 3295TIP3    H231445   5.074   1.783   0.665 -0.1679 -0.1846 -0.5747
 3296TIP3   OH231446   0.966   5.904   2.349 -0.5889  0.3263  0.0981
 3296TIP3    H131447   1.050   5.890   2.306 -1.0600  2.2232 -1.5871
 3296TIP3    H231448   0.919   5.964   2.291 -3.0158 -0.4622  1.1263
 3297TIP3   OH231449   3.561   5.923   0.734 -0.4677 -0.4095  0.5250
 3297TIP3    H131450   3.614   5.948   0.658 -0.6221 -2.1420 -0.2020
 3297TIP3    H231451   3.480   5.889   0.696 -0.4392 -1.5541  1.4486
 3298TIP3   OH231452   5.210   5.439   7.883 -0.1265  0.1714 -0.7514
 3298TIP3    H131453   5.128   5.393   7.865 -0.1639 -0.4537  0.8051
 3298TIP3    H231454   5.194   5.529   7.854 -2.1745  0.6126  1.3943
 3299TIP3   OH231455   0.447   3.333   7.976  0.5371  0.6806  0.0439
 3299TIP3    H131456   0.537   3.302   7.990  1.8377  3.8023 -0.5403
 3299TIP3    H231457   0.427   3.386   8.053 -1.3770 -0.9345  0.7564
 3300TIP3   OH231458   1.269   1.396   1.018  0.0332  0.2933  0.3251
 3300TIP3    H131459   1.347   1.341   1.025  0.0450  0.3872  0.9517
 3300TIP3    H231460   1.288   1.453   0.943  0.4372  0.1095  0.2824
 3301TIP3   OH231461   5.738   0.533   2.698  0.4848 -0.0621  0.1380
 3301TIP3    H131462   5.751   0.601   2.633  2.1018 -0.7996 -0.3515
 3301TIP3    H231463   5.768   0.571   2.780  0.2293  0.2185  0.1036
 3302TIP3   OH231464   4.473   0.954   0.222 -1.0418  0.2201 -0.5830
 3302TIP3    H131465   4.488   1.023   0.286 -0.2915 -1.7720  1.5267
 3302TIP3    H231466   4.531   0.975   0.149 -1.9582  2.5785 -0.7055
 3303TIP3   OH231467   6.198   1.038   1.592  0.8569 -0.0173  0.2240
 3303TIP3    H131468   6.210   1.087   1.674  0.8119  1.0071 -0.3742
 3303TIP3    H231469   6.280   1.051   1.545  0.1864  0.9733 -0.7122
 3304TIP3   OH231470   3.854   1.108   2.859 -0.5043 -0.3046 -0.5399
 3304TIP3    H131471   3.856   1.199   2.829  2.7468 -0.7096 -2.0198
 3304TIP3    H231472   3.881   1.113   2.951  1.4006  0.2008 -1.0723
 3305TIP3   OH231473   5.684   3.174   0.023  0.2777  0.0528 -0.0953
 3305TIP3    H131474   5.740   3.210  -0.046  1.4180  0.7042  1.1181
 3305TIP3    H231475   5.600   3.217   0.011  0.8759  1.2166 -0.2250
 3306TIP3   OH231476   0.087   5.973   0.401 -0.0592  0.0749 -0.3727
 3306TIP3    H131477   0.040   6.024   0.467  0.8384  0.3034  0.1075
 3306TIP3    H231478   0.064   6.013   0.318 -0.2743  0.5338 -0.0952
 3307TIP3   OH231479   3.615   5.657   7.106  0.1330 -0.0405  0.2754
 3307TIP3    H131480   3.620   5.646   7.201 -1.0374 -0.0831  0.3571
 3307TIP3    H231481   3.686   5.603   7.071  0.7479  0.2032  1.1352
 3308TIP3   OH231482   5.917   3.764   2.118  0.1845  0.6072  0.0110
 3308TIP3    H131483   6.011   3.750   2.107  0.3212 -2.5800  3.4185
 3308TIP3    H231484   5.877   3.706   2.054  0.3942  2.2368 -1.7028
 3309TIP3   OH231485   3.493   2.592   2.085 -0.1864  0.3234 -0.1460
 3309TIP3    H131486   3.571   2.549   2.050 -0.0832 -0.3114  0.8138
 3309TIP3    H231487   3.526   2.648   2.156 -0.5995 -0.0189  0.3274
 3310TIP3   OH231488   0.166   3.661   1.361  0.0735  0.3646  0.0945
 3310TIP3    H131489   0.102   3.611   1.311 -0.3095 -0.7791  1.6509
 3310TIP3    H231490   0.116   3.733   1.399  0.0870  0.4931 -0.1335
 3311TIP3   OH231491   5.852   0.642   2.918  0.1159  0.1860 -0.5733
 3311TIP3    H131492   5.932   0.616   2.871  0.6988  1.2234 -0.2052
 3311TIP3    H231493   5.878   0.646   3.010 -0.5691 -0.1917 -0.3591
 3312TIP3   OH231494   4.428   1.926   1.246  0.2093  0.4564 -0.1310
 3312TIP3    H131495   4.395   1.837   1.261  2.2549 -0.2409  0.4729
 3312TIP3    H231496   4.496   1.915   1.180  0.7016  1.5334  0.1857
 3313TIP3   OH231497   4.314   5.678   0.375 -0.3047 -0.4265  0.7857
 3313TIP3    H131498   4.393   5.699   0.325 -1.4651  1.1750 -0.5003
 3313TIP3    H231499   4.324   5.586   0.398  1.7517 -0.3685  0.3439
 3314TIP3   OH231500   5.917   4.236   1.011 -0.1320  0.4903 -0.2748
 3314TIP3    H131501   5.858   4.284   1.069  0.0090  0.0512  0.2428
 3314TIP3    H231502   5.995   4.292   1.005  0.1841  0.1641  0.6272
 3315TIP3   OH231503   6.581   6.372   9.186 -0.3106  0.6106 -0.3725
 3315TIP3    H131504   6.546   6.342   9.270 -0.1622  2.0970  0.2625
 3315TIP3    H231505   6.609   6.293   9.142 -0.4456 -0.2148  0.9596
 3316TIP3   OH231506   3.246   3.607   2.256  0.1816  0.7409 -0.7203
 3316TIP3    H131507   3.250   3.628   2.349  2.6751 -1.1933 -0.2954
 3316TIP3    H231508   3.292   3.679   2.213  2.9929 -0.4501  0.0758
 3317TIP3   OH231509   6.072   5.756   2.731  0.1739  0.2965  0.7103
 3317TIP3    H131510   6.090   5.703   2.808  1.4705 -0.0142  0.2125
 3317TIP3    H231511   6.110   5.842   2.749  2.4073 -0.3886 -0.3768
 3318TIP3   OH231512   3.774   0.762   1.556  0.1194  0.6159  0.7087
 3318TIP3    H131513   3.702   0.743   1.497  1.4588  0.1336 -0.8371
 3318TIP3    H231514   3.829   0.683   1.553 -0.0767  0.3202  3.0947
 3319TIP3   OH231515   0.648   1.215   1.285  0.0585 -0.4007 -0.6104
 3319TIP3    H131516   0.698   1.136   1.302  0.0835 -0.3803 -0.5889
 3319TIP3    H231517   0.649   1.225   1.189  1.0674  0.2244 -0.5472
 3320TIP3   OH231518   4.548   1.237   0.939  0.1611 -0.0642  0.2280
 3320TIP3    H131519   4.522   1.318   0.894 -0.4951 -0.8740 -0.8856
 3320TIP3    H231520   4.635   1.217   0.905  0.4085  0.2529  0.6501
 3321TIP3   OH231521   3.844   3.379   8.953  0.1544  0.2381  0.1395
 3321TIP3    H131522   3.904   3.305   8.961  0.0771  0.1993  0.3830
 3321TIP3    H231523   3.784   3.354   8.883 -1.0947 -0.7999  1.5227
 3322TIP3   OH231524   2.535   0.938   1.218  0.3974  0.0910 -0.1872
 3322TIP3    H131525   2.451   0.964   1.255  1.0524  0.3886  1.1447
 3322TIP3    H231526   2.599   0.957   1.287  1.5372 -0.2982 -1.1012
 3323TIP3   OH231527   5.788   2.651   1.471 -0.7189 -0.2215  0.7336
 3323TIP3    H131528   5.698   2.624   1.452 -1.1973  1.0998  1.0314
 3323TIP3    H231529   5.780   2.712   1.544  0.1681  1.6424 -0.6429
 3324TIP3   OH231530   5.320   6.261   9.289 -0.5980  0.4159 -0.0656
 3324TIP3    H131531   5.330   6.196   9.219  0.1300  0.4990 -0.0486
 3324TIP3    H231532   5.321   6.345   9.245 -0.4331  0.4564  0.0126
 3325TIP3   OH231533   4.819   0.458   8.393 -0.0644 -0.2741  0.1140
 3325TIP3    H131534   4.883   0.527   8.412 -1.5961  0.8806  1.3144
 3325TIP3    H231535   4.766   0.452   8.473 -0.8268 -1.9066 -0.4782
 3326TIP3   OH231536   2.552   2.036   1.161 -0.1549 -0.3361  0.3435
 3326TIP3    H131537   2.468   2.001   1.190  0.3215 -0.7825  1.2480
 3326TIP3    H231538   2.532   2.123   1.127 -1.0329 -0.6006  0.1605
 3327TIP3   OH231539   0.122   5.724   8.851  0.3290  0.6323  0.4252
 3327TIP3    H131540   0.165   5.640   8.866 -0.9280 -0.0369  0.4133
 3327TIP3    H231541   0.146   5.777   8.927  0.1938 -0.1500  1.0322
 3328TIP3   OH231542   0.230   3.392   8.600  0.4672 -0.3972 -0.6213
 3328TIP3    H131543   0.292   3.351   8.661  1.0687  0.4177 -0.6675
 3328TIP3    H231544   0.144   3.369   8.634  0.7810  0.5875  0.9475
 3329TIP3   OH231545   5.982   1.195   1.444  0.0322 -0.3497  0.0283
 3329TIP3    H131546   6.036   1.265   1.407  0.8154 -1.1780 -0.4282
 3329TIP3    H231547   6.038   1.117   1.441 -1.0573 -1.1519 -0.1069
 3330TIP3   OH231548   4.690   0.490   7.417  0.6963  0.1201  0.2216
 3330TIP3    H131549   4.750   0.416   7.428  1.5467  0.9299  1.1585
 3330TIP3    H231550   4.725   0.538   7.342  1.1382  0.5130  0.6783
 3331TIP3   OH231551   6.574   3.516   8.025 -0.0284 -0.6454  0.3210
 3331TIP3    H131552   6.565   3.605   7.990  0.1130 -0.4960  0.6633
 3331TIP3    H231553   6.497   3.504   8.081 -1.3941 -1.6462 -1.6522
 3332TIP3   OH231554   4.546   0.589   1.803 -0.1664  0.2168  0.1584
 3332TIP3    H131555   4.502   0.633   1.731 -1.7768 -0.9911  0.3342
 3332TIP3    H231556   4.504   0.623   1.882  0.5037  0.4007  0.4401
 3333TIP3   OH231557   1.764   1.132   1.970  0.1384  0.0432  0.1167
 3333TIP3    H131558   1.802   1.170   1.890 -2.7403  0.0081 -1.3762
 3333TIP3    H231559   1.839   1.125   2.030  1.8398  3.0111 -1.4080
 3334TIP3   OH231560   4.326   6.545   7.469  0.2831  0.0271  0.2160
 3334TIP3    H131561   4.366   6.498   7.396 -0.7231 -0.4281 -0.0670
 3334TIP3    H231562   4.389   6.613   7.492  0.9302 -0.2784 -0.6126
 3335TIP3   OH231563   5.153   5.678   1.423  0.3452 -0.0247 -0.2432
 3335TIP3    H131564   5.185   5.681   1.333  0.3902  0.6248 -0.2115
 3335TIP3    H231565   5.094   5.603   1.426  0.4554 -0.1326 -0.7755
 3336TIP3   OH231566   2.400   3.659   2.747 -0.4929  0.2673  0.3853
 3336TIP3    H131567   2.477   3.609   2.721 -0.9234  0.0536 -0.4980
 3336TIP3    H231568   2.341   3.594   2.785 -0.0907  0.4936  1.4513
 3337TIP3   OH231569   5.721   1.818   8.999  0.0387 -0.1092  0.0549
 3337TIP3    H131570   5.703   1.761   9.074  0.9651 -2.2399 -1.2488
 3337TIP3    H231571   5.812   1.844   9.010  0.0012  0.0506 -0.0164
 3338TIP3   OH231572   0.198   2.220   8.492 -0.4333  0.5928 -0.6841
 3338TIP3    H131573   0.123   2.265   8.531 -1.0203  0.4797 -1.6552
 3338TIP3    H231574   0.208   2.141   8.545 -1.0324  0.5848 -0.5719
 3339TIP3   OH231575   4.817   6.274   1.407  0.0870 -0.0072  0.2272
 3339TIP3    H131576   4.775   6.214   1.468 -1.8053 -0.3803 -1.3313
 3339TIP3    H231577   4.865   6.336   1.462 -0.0099 -1.4083  1.9659
 3340TIP3   OH231578   1.519   4.119   2.571  0.1795 -0.0196  0.2110
 3340TIP3    H131579   1.455   4.188   2.587  1.3680  1.1994 -0.1263
 3340TIP3    H231580   1.509   4.097   2.479  0.8553  0.8487 -0.0880
 3341TIP3   OH231581   3.415   1.393   2.473 -0.2340  0.7915 -0.4063
 3341TIP3    H131582   3.493   1.344   2.445 -1.1446  0.2386 -2.1000
 3341TIP3    H231583   3.392   1.353   2.557  0.5019  0.0065 -0.5500
 3342TIP3   OH231584   1.774   3.863   1.585  0.0786 -0.1888 -0.1064
 3342TIP3    H131585   1.775   3.958   1.573  1.6721 -0.2637 -0.7658
 3342TIP3    H231586   1.737   3.829   1.504  0.4094 -0.1713 -0.2662
 3343TIP3   OH231587   2.823   1.609   8.952  0.7062  0.4013 -0.0796
 3343TIP3    H131588   2.736   1.624   8.988  0.9195  0.7233  0.3053
 3343TIP3    H231589   2.880   1.598   9.028  0.7733 -1.2329 -0.3280
 3344TIP3   OH231590   2.242   3.744   8.500 -0.2024  0.1734  0.1469
 3344TIP3    H131591   2.299   3.820   8.497 -1.4559  1.1392  0.0141
 3344TIP3    H231592   2.260   3.704   8.585  0.3210  0.7332  0.3041
 3345TIP3   OH231593   3.396   0.387   1.352 -0.6032 -0.4204  0.0609
 3345TIP3    H131594   3.358   0.452   1.292 -0.8977 -0.1118  0.5724
 3345TIP3    H231595   3.329   0.318   1.357 -0.4735 -0.5607 -0.1554
 3346TIP3   OH231596   5.529   0.532   2.509  0.0835 -0.1842  0.0604
 3346TIP3    H131597   5.488   0.552   2.593  0.0439  0.5975 -0.1345
 3346TIP3    H231598   5.455   0.517   2.450  0.0589  0.8826 -0.2087
 3347TIP3   OH231599   5.619   0.959   8.874 -0.1308 -0.5462 -0.2850
 3347TIP3    H131600   5.619   0.894   8.945 -1.0334  0.1390  0.3786
 3347TIP3    H231601   5.549   1.021   8.899  1.2781  1.1800 -0.4220
 3348TIP3   OH231602   5.554   1.373   0.343 -0.2947 -0.3493  0.4697
 3348TIP3    H131603   5.497   1.327   0.282 -0.0273 -0.0697  0.0031
 3348TIP3    H231604   5.639   1.376   0.300  0.0230 -0.5701  1.0645
 3349TIP3   OH231605   3.876   5.973   8.590  0.1830 -0.2185 -0.3746
 3349TIP3    H131606   3.834   6.024   8.520  0.5301  0.4637 -0.0929
 3349TIP3    H231607   3.832   6.002   8.670  1.1033  0.4261 -0.0896
 3350TIP3   OH231608   3.719   0.976   8.147  0.1560 -0.0335  0.0898
 3350TIP3    H131609   3.750   1.063   8.122  0.0169  0.1484  0.5377
 3350TIP3    H231610   3.799   0.926   8.163  0.2369  0.5132  1.5150
 3351TIP3   OH231611   0.935   1.528   2.739  0.2712 -0.7986  0.3101
 3351TIP3    H131612   0.852   1.575   2.732  0.0117 -1.4066 -1.1295
 3351TIP3    H231613   0.997   1.593   2.771  0.0732  0.7346 -2.1847
 3352TIP3   OH231614   0.464   4.441   2.289 -0.3945 -0.3277 -0.1237
 3352TIP3    H131615   0.553   4.408   2.276 -0.8264 -0.7539 -2.2347
 3352TIP3    H231616   0.430   4.390   2.362  0.4944 -1.4114 -0.4547
 3353TIP3   OH231617   1.007   1.534   8.017  0.2816  0.3222  0.2915
 3353TIP3    H131618   0.991   1.627   8.033 -1.5389  0.3487 -1.2909
 3353TIP3    H231619   0.949   1.489   8.077  0.3521  0.2248  0.2864
 3354TIP3   OH231620   4.000   0.879   3.039 -0.2750  0.3349  0.7635
 3354TIP3    H131621   4.051   0.822   3.097 -0.7588 -0.6600  0.2364
 3354TIP3    H231622   4.030   0.968   3.060  2.3488 -0.2420 -0.1195
 3355TIP3   OH231623   6.316   0.806   1.334 -0.3881  0.1009  0.2563
 3355TIP3    H131624   6.377   0.862   1.383 -0.2077 -1.4177  1.8959
 3355TIP3    H231625   6.230   0.838   1.360 -0.3627  1.9055 -1.6496
 3356TIP3   OH231626   1.633   6.261   8.156  0.4336 -0.1787 -0.3799
 3356TIP3    H131627   1.614   6.351   8.182  0.1181 -0.8416  1.9297
 3356TIP3    H231628   1.660   6.267   8.065  0.1811  2.2147 -0.3495
 3357TIP3   OH231629   0.921   5.911   1.462  0.5391  0.0210 -0.3166
 3357TIP3    H131630   0.963   5.979   1.516 -0.7169  1.3054 -0.8866
 3357TIP3    H231631   0.876   5.855   1.526  0.1540  0.7592  0.0807
 3358TIP3   OH231632   3.744   4.117   1.783  0.0698  0.2305 -0.0349
 3358TIP3    H131633   3.654   4.105   1.756  0.8198 -3.5476 -1.3679
 3358TIP3    H231634   3.793   4.127   1.702  1.2872 -2.2633  0.2930
 3359TIP3   OH231635   4.160   3.745   1.834  0.1053  0.0312 -0.4660
 3359TIP3    H131636   4.101   3.794   1.777  0.1148  2.2045  1.2755
 3359TIP3    H231637   4.103   3.688   1.885  0.0102 -1.2115 -1.8869
 3360TIP3   OH231638   2.380   2.868   0.948  0.0268  0.4352  0.2639
 3360TIP3    H131639   2.383   2.963   0.951  0.0329  0.5085 -1.4786
 3360TIP3    H231640   2.457   2.842   0.898  0.5160 -0.5504  1.4712
 3361TIP3   OH231641   2.659   3.699   0.320 -0.1750  0.4500 -0.1529
 3361TIP3    H131642   2.642   3.657   0.404 -1.1395 -1.1502 -1.0809
 3361TIP3    H231643   2.572   3.711   0.282  0.1460  2.4895 -0.3415
 3362TIP3   OH231644   5.028   2.087   8.507  0.5294 -0.4140  0.1329
 3362TIP3    H131645   4.970   2.110   8.434  0.3314 -0.3296  0.3130
 3362TIP3    H231646   5.091   2.026   8.470  1.8972  1.4090 -0.7153
 3363TIP3   OH231647   2.756   6.549   2.256  0.3164  0.1040  1.4086
 3363TIP3    H131648   2.827   6.610   2.272 -0.1162  1.6095 -1.5430
 3363TIP3    H231649   2.683   6.582   2.309  0.8213  0.6309  1.7826
 3364TIP3   OH231650   4.422   2.682   0.683  0.3628 -0.8555  0.5313
 3364TIP3    H131651   4.456   2.603   0.726 -0.8824 -1.2672  0.8123
 3364TIP3    H231652   4.329   2.683   0.707  0.3338  0.6154  0.3963
 3365TIP3   OH231653   4.299   1.747   0.741  0.3293  0.0395  0.5719
 3365TIP3    H131654   4.379   1.794   0.718 -0.2319  0.7461  0.0388
 3365TIP3    H231655   4.238   1.767   0.671  0.0670 -1.5017  0.3240
 3366TIP3   OH231656   1.691   2.512   8.068  0.1666  0.3270  0.0405
 3366TIP3    H131657   1.610   2.467   8.046  1.0525 -0.4325 -1.9389
 3366TIP3    H231658   1.748   2.498   7.992  2.1786  0.7837  1.3761
 3367TIP3   OH231659   2.757   1.360   2.248 -0.2923 -0.3550  0.0049
 3367TIP3    H131660   2.852   1.360   2.238 -0.2390 -0.0781  0.4729
 3367TIP3    H231661   2.735   1.451   2.267 -0.7737 -0.2160 -1.1430
 3368TIP3   OH231662   4.201   3.356   1.260 -0.4079  0.0675  0.0189
 3368TIP3    H131663   4.218   3.449   1.276 -1.2463  0.8301 -2.9680
 3368TIP3    H231664   4.275   3.312   1.300 -0.5216  1.8575  2.5073
 3369TIP3   OH231665   1.385   2.791   0.797 -0.0884 -0.2152  0.7237
 3369TIP3    H131666   1.428   2.858   0.744 -2.3376 -0.1522 -1.1630
 3369TIP3    H231667   1.457   2.734   0.826  1.3571  0.1501 -1.8374
 3370TIP3   OH231668   5.866   5.547   7.469  0.6352  0.0497 -0.2671
 3370TIP3    H131669   5.793   5.490   7.493 -1.2723  2.9722  1.6379
 3370TIP3    H231670   5.830   5.606   7.403  1.6506  0.7880 -0.1806
 3371TIP3   OH231671   2.435   2.228   8.488 -0.7520 -0.2200 -0.3344
 3371TIP3    H131672   2.348   2.258   8.512  0.4830  1.7364  2.0832
 3371TIP3    H231673   2.462   2.286   8.417 -0.5549  0.6681  0.4612
 3372TIP3   OH231674   3.568   0.779   8.229 -0.5765 -0.0882  0.0181
 3372TIP3    H131675   3.505   0.773   8.158  0.3375  0.5432 -0.8881
 3372TIP3    H231676   3.631   0.845   8.199  0.6852 -0.9307  0.7279
 3373TIP3   OH231677   0.614   2.878   3.203  0.0284  0.0277  0.2681
 3373TIP3    H131678   0.637   2.961   3.245  0.4099 -0.8495  1.8875
 3373TIP3    H231679   0.608   2.899   3.110  2.3538  1.4057  0.3443
 3374TIP3   OH231680   5.135   3.459   0.678  0.4782  0.4398 -0.2411
 3374TIP3    H131681   5.206   3.430   0.735  0.8386 -0.6819 -1.2064
 3374TIP3    H231682   5.061   3.403   0.703  1.5547 -2.6422 -3.0710
 3375TIP3   OH231683   1.480   2.916   8.146 -0.6031 -0.4398 -0.0988
 3375TIP3    H131684   1.497   2.836   8.196 -2.1268  0.7377  2.5795
 3375TIP3    H231685   1.417   2.890   8.079 -0.9127 -1.5540  0.5992
 3376TIP3   OH231686   3.358   2.242   8.551  0.1670  0.1208 -0.1841
 3376TIP3    H131687   3.312   2.320   8.583  1.8409  1.3007 -0.5324
 3376TIP3    H231688   3.324   2.230   8.462 -0.8006 -0.1475  0.2033
 3377TIP3   OH231689   5.893   5.186   2.196  0.4003  0.6388  0.0294
 3377TIP3    H131690   5.812   5.210   2.240  0.5021  0.6688  0.2054
 3377TIP3    H231691   5.895   5.238   2.117  1.3982  2.4644  1.1834
 3378TIP3   OH231692   1.797   4.854   1.072 -0.2961  0.0879 -0.2319
 3378TIP3    H131693   1.830   4.936   1.108 -0.0427 -0.2478  0.3140
 3378TIP3    H231694   1.872   4.795   1.074 -1.0491 -0.8788  1.5952
 3379TIP3   OH231695   6.353   5.334   8.174 -0.2585 -0.4322 -0.3642
 3379TIP3    H131696   6.441   5.298   8.170  0.3449  0.7239  1.1228
 3379TIP3    H231697   6.301   5.266   8.217  0.6379  0.0040  1.5283
 3380TIP3   OH231698   2.687   0.225   9.124 -0.5002 -0.0342 -0.5462
 3380TIP3    H131699   2.762   0.192   9.174  0.7748  2.0033 -0.9932
 3380TIP3    H231700   2.663   0.153   9.066  2.1386 -0.2403 -1.4832
 3381TIP3   OH231701   5.370   0.487   2.289  0.4796 -0.0986 -0.0672
 3381TIP3    H131702   5.377   0.571   2.242  0.1123 -0.6006 -1.0501
 3381TIP3    H231703   5.276   0.469   2.291  0.5352 -0.3448  0.3980
 3382TIP3   OH231704   2.353   0.826   1.938 -0.2419 -0.1107 -0.6923
 3382TIP3    H131705   2.368   0.897   2.000 -0.6536 -1.3757  0.9553
 3382TIP3    H231706   2.430   0.770   1.947 -1.4106 -1.6023  0.6026
 3383TIP3   OH231707   3.987   6.520   1.194 -0.1672 -0.3124  0.0204
 3383TIP3    H131708   4.076   6.540   1.164  0.1081  0.5433  1.2872
 3383TIP3    H231709   3.983   6.425   1.196  0.6227 -0.3606 -0.3605
 3384TIP3   OH231710   2.196   5.849   3.131  0.0171 -0.1326  0.2408
 3384TIP3    H131711   2.219   5.761   3.101 -0.5918 -0.1366 -0.2490
 3384TIP3    H231712   2.278   5.886   3.163  0.7847 -0.0304 -1.7116
 3385TIP3   OH231713   6.578   0.054   9.151 -0.0194 -0.0800 -0.5268
 3385TIP3    H131714   6.579   0.144   9.184  2.9545  0.5451 -1.9785
 3385TIP3    H231715   6.511   0.054   9.083 -1.1980  0.5193  0.5727
 3386TIP3   OH231716   3.157   5.086   8.657 -0.8050 -0.0666 -0.1223
 3386TIP3    H131717   3.071   5.106   8.621  0.1305  2.4080 -1.1938
 3386TIP3    H231718   3.194   5.021   8.597 -1.2169  0.2370 -0.7137
 3387TIP3   OH231719   3.236   1.781   2.422 -0.1313  0.8414 -0.2500
 3387TIP3    H131720   3.284   1.764   2.341 -1.8064  0.7256 -1.2524
 3387TIP3    H231721   3.257   1.707   2.479  0.0279  0.2371 -1.0776
 3388TIP3   OH231722   1.343   0.310   2.821 -0.8216 -0.3043 -0.8988
 3388TIP3    H131723   1.345   0.240   2.887 -1.2974 -0.3049 -0.8813
 3388TIP3    H231724   1.335   0.264   2.737  1.4840 -0.3929 -1.1343
 3389TIP3   OH231725   1.076   1.490   2.399 -0.0182 -0.4664  0.0598
 3389TIP3    H131726   0.988   1.525   2.413  0.2558  1.0458 -1.6605
 3389TIP3    H231727   1.128   1.565   2.370  0.6025 -2.1886 -3.9351
 3390TIP3   OH231728   0.751   5.853   2.530  0.6004  0.8544 -0.1665
 3390TIP3    H131729   0.773   5.851   2.623  1.3783  0.3611 -0.3514
 3390TIP3    H231730   0.836   5.861   2.485  0.2841  0.5333 -0.8472
 3391TIP3   OH231731   1.533   1.575   8.475 -0.4427  0.9342  0.1175
 3391TIP3    H131732   1.493   1.662   8.485 -0.6496  0.8385  0.1398
 3391TIP3    H231733   1.627   1.590   8.486 -0.5434  1.0341  0.9723
 3392TIP3   OH231734   3.960   2.317   0.484  0.2721  0.0642 -1.0611
 3392TIP3    H131735   3.935   2.276   0.567  1.3116 -1.1956 -1.3373
 3392TIP3    H231736   4.043   2.361   0.503  0.6368 -0.4329 -1.4750
 3393TIP3   OH231737   0.634   1.530   2.270 -0.0076 -0.6019 -0.5557
 3393TIP3    H131738   0.712   1.511   2.218  0.5258 -0.2397  0.0904
 3393TIP3    H231739   0.561   1.516   2.210  0.6388  1.1492 -1.8310
 3394TIP3   OH231740   5.272   0.694   1.670 -0.2299 -0.3038  0.0239
 3394TIP3    H131741   5.368   0.694   1.674 -0.2181  0.0472 -0.1765
 3394TIP3    H231742   5.248   0.602   1.667  0.0304 -0.4501  1.6590
 3395TIP3   OH231743   3.826   1.582   8.070  1.0455  0.2805  0.1997
 3395TIP3    H131744   3.774   1.520   8.018 -0.2569  0.3349  1.3889
 3395TIP3    H231745   3.841   1.655   8.010 -1.6668  0.9970  0.2619
 3396TIP3   OH231746   0.719   1.200   7.565 -0.4321 -0.0904 -0.1724
 3396TIP3    H131747   0.734   1.286   7.526  0.5970  0.8264  2.0384
 3396TIP3    H231748   0.632   1.175   7.536  0.5880  0.0000 -3.7704
 3397TIP3   OH231749   0.369   4.278   2.475  0.4970  0.1534  0.3215
 3397TIP3    H131750   0.324   4.337   2.535  0.5617  1.5887 -0.9501
 3397TIP3    H231751   0.423   4.223   2.531  1.2615  2.0378  1.5632
 3398TIP3   OH231752   0.282   0.141   1.557  0.1474  0.1845 -0.5991
 3398TIP3    H131753   0.241   0.063   1.593  1.5108  0.0922  0.8447
 3398TIP3    H231754   0.235   0.214   1.597 -1.1324  0.1629 -1.9544
 3399TIP3   OH231755   4.490   0.053   8.273  0.6771 -0.5447  0.2560
 3399TIP3    H131756   4.490  -0.043   8.272  1.8105 -0.5722 -1.0345
 3399TIP3    H231757   4.451   0.077   8.188  2.1058  0.0820 -0.2501
 3400TIP3   OH231758   1.459   2.290   1.130  0.8767 -0.4843 -0.4688
 3400TIP3    H131759   1.518   2.278   1.205  1.0102 -2.7037 -0.8442
 3400TIP3    H231760   1.453   2.203   1.091 -1.2398  0.0726 -1.5204
 3401TIP3   OH231761   5.266   2.511   0.700 -0.2363  0.1660  0.4535
 3401TIP3    H131762   5.239   2.468   0.620  0.7430 -0.6904  0.5685
 3401TIP3    H231763   5.262   2.443   0.767 -0.3026  0.6767  0.9820
 3402TIP3   OH231764   4.826   0.964   8.942 -0.3641  0.0489 -0.0894
 3402TIP3    H131765   4.783   0.909   9.007  0.0531  0.7667  0.8110
 3402TIP3    H231766   4.758   1.024   8.912 -1.2980 -1.9843 -2.3338
 3403TIP3   OH231767   0.541   3.828   1.646 -0.2803  0.1328  0.0662
 3403TIP3    H131768   0.622   3.781   1.667  0.2828  0.6635 -0.8688
 3403TIP3    H231769   0.559   3.919   1.671 -0.3420  0.3788 -0.7688
 3404TIP3   OH231770   3.643   6.037   0.501  0.0758 -0.6003  0.2372
 3404TIP3    H131771   3.644   6.133   0.508  0.3187 -0.3553 -2.1928
 3404TIP3    H231772   3.650   6.020   0.407 -2.0289 -2.9847  0.3907
 3405TIP3   OH231773   3.039   0.073   1.619 -0.6103 -0.1858 -0.3709
 3405TIP3    H131774   3.073  -0.011   1.648  0.4801  0.5183  0.4376
 3405TIP3    H231775   3.023   0.061   1.525 -0.0593 -1.1551 -0.3558
 3406TIP3   OH231776   3.477   3.009   0.553  0.5764  0.5495  0.5363
 3406TIP3    H131777   3.537   3.080   0.574  0.4017  0.8083  0.1677
 3406TIP3    H231778   3.410   3.049   0.498  1.7935 -0.4077 -1.7792
 3407TIP3   OH231779   2.757   4.719   1.625 -0.0211 -0.0565 -0.0945
 3407TIP3    H131780   2.757   4.624   1.616  1.9072 -0.1608  0.6073
 3407TIP3    H231781   2.701   4.749   1.554  0.8277 -1.6250 -1.4951
 3408TIP3   OH231782   3.336   1.377   9.188  0.1320  0.2901  0.4534
 3408TIP3    H131783   3.363   1.425   9.266 -0.6413  2.0988 -0.3295
 3408TIP3    H231784   3.396   1.408   9.120 -0.8422  0.7069 -0.2290
 3409TIP3   OH231785   3.451   2.142   0.618 -0.2988 -0.5313  0.1954
 3409TIP3    H131786   3.429   2.159   0.526  1.0358  0.0526 -0.0493
 3409TIP3    H231787   3.481   2.051   0.619 -0.6599 -0.6504  0.1173
 3410TIP3   OH231788   3.464   6.638   8.226  0.2466  0.3800  0.1539
 3410TIP3    H131789   3.530   6.653   8.293 -0.2956  2.5287  0.2734
 3410TIP3    H231790   3.393   6.699   8.248 -0.9508 -0.5029 -1.0616
 3411TIP3   OH231791   5.317   3.376   7.782 -0.3424  0.1222 -0.1924
 3411TIP3    H131792   5.375   3.367   7.857 -0.4578 -1.6488 -0.2622
 3411TIP3    H231793   5.277   3.289   7.772 -0.9671  0.5489 -1.7799
 3412TIP3   OH231794   0.665   0.064   0.152 -0.0893 -0.2854 -0.3399
 3412TIP3    H131795   0.577   0.085   0.121  0.6454  3.1671 -0.3975
 3412TIP3    H231796   0.651   0.017   0.234 -1.9444 -1.1166 -1.0661
 3413TIP3   OH231797   6.593   0.036   0.867 -0.2573 -0.2339  0.3155
 3413TIP3    H131798   6.519   0.096   0.859 -0.3263 -0.4351 -0.6461
 3413TIP3    H231799   6.553  -0.050   0.881 -0.1749 -0.1839  0.8885
 3414TIP3   OH231800   6.214   6.309   0.614  0.9490  0.1618  0.0982
 3414TIP3    H131801   6.280   6.348   0.557 -1.7623  1.6803 -2.2786
 3414TIP3    H231802   6.194   6.225   0.573  0.5796  0.2463  0.1048
 3415TIP3   OH231803   4.875   6.535   9.286  0.5087 -0.0734 -1.0208
 3415TIP3    H131804   4.961   6.565   9.255  0.4248  1.7270  0.3226
 3415TIP3    H231805   4.893   6.453   9.332  1.3798 -0.1191 -1.4215
 3416TIP3   OH231806   1.952   4.968   0.497  0.3142  0.3000 -0.0578
 3416TIP3    H131807   2.007   5.020   0.438 -0.6448  1.4410  0.0182
 3416TIP3    H231808   1.901   5.033   0.545  1.6933 -0.5274  2.7013
 3417TIP3   OH231809   3.858   1.220   7.015 -0.1280  0.0572 -0.0385
 3417TIP3    H131810   3.772   1.198   7.053 -0.4672 -2.9637 -2.1972
 3417TIP3    H231811   3.842   1.300   6.965 -1.0397  0.8473  1.4152
 3418TIP3   OH231812   3.324   6.153   0.191  0.0285 -0.5543 -0.3240
 3418TIP3    H131813   3.280   6.080   0.235  0.0639 -0.2966  0.1523
 3418TIP3    H231814   3.278   6.231   0.222  0.2824 -0.3430 -0.4723
 3419TIP3   OH231815   0.965   4.285   8.622 -0.2081 -0.1223  1.2308
 3419TIP3    H131816   1.001   4.299   8.710  1.6285 -0.6292  0.6083
 3419TIP3    H231817   1.026   4.330   8.564 -2.0981  1.3129  0.2719
 3420TIP3   OH231818   6.444   4.128   2.320 -0.1563 -0.0579 -0.2081
 3420TIP3    H131819   6.429   4.221   2.301 -0.9781  0.2834  1.8378
 3420TIP3    H231820   6.356   4.089   2.318  0.0763 -0.5924 -0.0493
 3421TIP3   OH231821   3.941   3.923   0.553  0.4385  0.1759  0.0446
 3421TIP3    H131822   3.860   3.914   0.503  1.1253  2.0681 -1.5364
 3421TIP3    H231823   3.925   3.875   0.634 -1.5342 -1.1232 -1.0335
 3422TIP3   OH231824   4.722   5.945   2.225  0.6583  0.3055 -0.3136
 3422TIP3    H131825   4.738   5.873   2.287  0.5172  0.3418 -0.2346
 3422TIP3    H231826   4.773   5.921   2.148  1.5572  0.6884  0.1395
 3423TIP3   OH231827   0.918   0.916   0.678 -0.7966  0.0309  0.3400
 3423TIP3    H131828   0.897   0.909   0.771  0.7060  0.9292  0.7886
 3423TIP3    H231829   0.870   0.993   0.648 -0.4279  0.3866  0.6496
 3424TIP3   OH231830   4.370   3.595   1.314  0.3690 -0.0488 -1.1758
 3424TIP3    H131831   4.465   3.594   1.311  0.3619 -1.7812 -2.0345
 3424TIP3    H231832   4.344   3.615   1.224 -0.0717 -0.3064 -1.1083
 3425TIP3   OH231833   6.127   4.120   8.848  0.1859  0.2112  0.0250
 3425TIP3    H131834   6.137   4.182   8.776 -0.1732 -1.8626 -1.9241
 3425TIP3    H231835   6.032   4.106   8.855  0.2308  0.2525  0.7870
 3426TIP3   OH231836   2.923   0.310   1.967  0.1080  0.2772  0.2469
 3426TIP3    H131837   2.868   0.234   1.987  0.1262  0.6718  1.9305
 3426TIP3    H231838   3.009   0.272   1.947 -0.1697 -0.2087 -0.0404
 3427TIP3   OH231839   5.093   3.078   2.115  0.4997  0.0530  0.0515
 3427TIP3    H131840   5.115   3.168   2.094  1.3288 -0.3375 -0.8668
 3427TIP3    H231841   5.024   3.084   2.181 -1.4099  1.3696 -1.9523
 3428TIP3   OH231842   0.880   1.919   0.794 -0.8044 -0.4504  0.0943
 3428TIP3    H131843   0.936   1.949   0.866 -1.7478 -2.3947  1.7578
 3428TIP3    H231844   0.794   1.906   0.835 -1.9760  0.5171 -1.9253
 3429TIP3   OH231845   3.450   4.226   0.983 -0.1654  0.4530 -0.0044
 3429TIP3    H131846   3.515   4.168   0.944 -1.1213  0.3729 -1.5749
 3429TIP3    H231847   3.376   4.223   0.923 -2.3853 -0.8643  2.5531
 3430TIP3   OH231848   1.536   2.630   7.749  0.0056  0.8117  0.0142
 3430TIP3    H131849   1.518   2.624   7.655 -2.5840 -1.5641  0.5099
 3430TIP3    H231850   1.612   2.573   7.763 -0.3804  0.1624 -0.4969
 3431TIP3   OH231851   3.153   1.649   0.184 -0.1876  0.4937  0.2856
 3431TIP3    H131852   3.159   1.730   0.135 -0.4013 -0.1750 -0.8979
 3431TIP3    H231853   3.227   1.597   0.155 -1.0164 -0.4052 -0.2906
 3432TIP3   OH231854   6.216   1.070   1.265 -0.1855 -0.5250  0.0975
 3432TIP3    H131855   6.271   1.034   1.195 -0.9752 -1.0327 -0.2720
 3432TIP3    H231856   6.255   1.155   1.285  0.5457 -0.7388 -0.3692
 3433TIP3   OH231857   4.290   2.975   7.642  0.0819  0.1184  0.0948
 3433TIP3    H131858   4.217   3.037   7.639  1.3179  1.6075  0.0399
 3433TIP3    H231859   4.277   2.919   7.565 -1.4821 -0.2232  0.5756
 3434TIP3   OH231860   3.003   4.755   8.628 -0.3017 -0.0743 -0.5528
 3434TIP3    H131861   3.008   4.660   8.628  0.4516 -0.0622  0.9910
 3434TIP3    H231862   2.969   4.778   8.714 -0.0962  1.0705 -0.7569
 3435TIP3   OH231863   2.250   4.275   8.029 -0.0012  0.0130 -0.1727
 3435TIP3    H131864   2.223   4.342   7.967  2.2149  1.3273  0.1555
 3435TIP3    H231865   2.269   4.198   7.975 -1.2424  0.0553 -0.7044
 3436TIP3   OH231866   1.685   3.318   7.999  0.1162 -0.2878 -0.4282
 3436TIP3    H131867   1.720   3.273   7.922 -0.4298 -0.0810 -0.8008
 3436TIP3    H231868   1.602   3.275   8.017 -0.1485  0.2062 -0.4547
 3437TIP3   OH231869   4.796   0.841   8.155 -0.0369 -0.5888 -0.1533
 3437TIP3    H131870   4.796   0.746   8.150 -3.9618 -0.8394  1.1741
 3437TIP3    H231871   4.788   0.860   8.249 -0.4043  0.9872 -0.4748
 3438TIP3   OH231872   0.709   2.442   1.849  0.2191  0.3232 -0.0895
 3438TIP3    H131873   0.642   2.459   1.915  0.0839 -0.1411 -0.1040
 3438TIP3    H231874   0.789   2.480   1.886 -0.3720  2.4071 -0.8136
 3439TIP3   OH231875   1.794   0.144   0.147  0.2379  0.4405  0.0264
 3439TIP3    H131876   1.797   0.067   0.091  1.4639  1.1185 -0.8767
 3439TIP3    H231877   1.883   0.178   0.146 -0.3441  2.0446  0.1580
 3440TIP3   OH231878   2.167   0.101   0.796 -0.4301 -0.7850 -0.9066
 3440TIP3    H131879   2.154   0.038   0.726 -2.7189  0.0538 -1.3255
 3440TIP3    H231880   2.145   0.186   0.757 -1.6745 -0.2922  0.7471
 3441TIP3   OH231881   1.744   2.884   8.434  0.2379  0.0249 -0.6209
 3441TIP3    H131882   1.725   2.806   8.382 -1.1581 -0.2700  0.2766
 3441TIP3    H231883   1.660   2.929   8.441  0.8878  1.2583 -0.5589
 3442TIP3   OH231884   1.277   0.685   0.350  0.0723 -0.2747  0.0969
 3442TIP3    H131885   1.356   0.634   0.370  0.5886  0.8419  0.9935
 3442TIP3    H231886   1.227   0.685   0.431 -0.3905 -0.1672 -0.1868
 3443TIP3   OH231887   0.202   2.801   1.925 -0.9179  0.2409  0.4716
 3443TIP3    H131888   0.124   2.754   1.954 -1.6503  0.5531 -0.9227
 3443TIP3    H231889   0.169   2.873   1.872  0.3117  0.5715  0.1137
 3444TIP3   OH231890   0.814   5.370   0.931  0.3102  0.0222  0.4777
 3444TIP3    H131891   0.764   5.330   1.003  1.5223 -0.3985  1.1291
 3444TIP3    H231892   0.894   5.318   0.927  0.8514  0.8921 -0.2976
 3445TIP3   OH231893   1.174   0.939   2.297  0.2243 -0.4176  0.0707
 3445TIP3    H131894   1.237   0.982   2.238  1.2506 -2.5803 -0.5414
 3445TIP3    H231895   1.168   0.849   2.263 -1.8196 -0.7820  1.2427
 3446TIP3   OH231896   1.486   0.623   8.566  0.1808 -0.7912  0.4109
 3446TIP3    H131897   1.480   0.629   8.662  0.0814 -0.4581  0.3860
 3446TIP3    H231898   1.415   0.565   8.541 -0.0555 -0.5436  0.5047
 3447TIP3   OH231899   2.364   2.817   2.827  0.2417  0.3694 -0.2374
 3447TIP3    H131900   2.362   2.731   2.869  0.0116  0.0733 -0.8434
 3447TIP3    H231901   2.350   2.879   2.898  0.0075 -0.1174  0.1444
 3448TIP3   OH231902   3.347   3.004   1.218 -0.0924 -0.1767  0.0503
 3448TIP3    H131903   3.327   2.950   1.294  1.5615  0.2320  0.8292
 3448TIP3    H231904   3.344   3.094   1.251 -1.5871  0.1713 -0.9338
 3449TIP3   OH231905   3.624   1.959   1.162 -0.4317 -0.0337 -0.2336
 3449TIP3    H131906   3.717   1.976   1.154 -0.6672  0.7530 -1.4915
 3449TIP3    H231907   3.605   1.977   1.254  0.6204 -0.0790  0.0070
 3450TIP3   OH231908   0.776   3.404   2.563 -0.6369 -0.2270  0.0204
 3450TIP3    H131909   0.747   3.345   2.633  1.4211 -0.1887  0.9728
 3450TIP3    H231910   0.819   3.476   2.608 -1.4113  1.0722 -1.2206
 3451TIP3   OH231911   6.444   5.759   1.653 -0.0577  0.2504  0.1183
 3451TIP3    H131912   6.504   5.819   1.607  1.0584  0.9405  2.3407
 3451TIP3    H231913   6.492   5.676   1.655  0.7724  0.7342  1.6673
 3452TIP3   OH231914   4.673   2.743   1.820  0.2021 -0.5442  0.0325
 3452TIP3    H131915   4.680   2.803   1.894 -0.7509 -0.6633  0.2444
 3452TIP3    H231916   4.646   2.660   1.861 -0.3583 -0.6015 -0.4496
 3453TIP3   OH231917   5.963   2.051   2.365 -0.0474  0.3645  0.3431
 3453TIP3    H131918   6.027   2.070   2.297 -0.7095  1.9911  0.1167
 3453TIP3    H231919   5.880   2.043   2.318 -0.2437 -0.2862  0.7830
 3454TIP3   OH231920   4.853   1.150   1.180  0.3542  0.1582  0.2088
 3454TIP3    H131921   4.896   1.146   1.095  2.6309  0.9118  1.2363
 3454TIP3    H231922   4.837   1.058   1.203  1.2307 -0.1488 -0.3418
 3455TIP3   OH231923   5.369   6.285   8.403  0.2071  1.0380  0.5783
 3455TIP3    H131924   5.280   6.315   8.417 -0.0888  0.5628 -0.2322
 3455TIP3    H231925   5.369   6.194   8.434 -0.0200  0.5223 -0.8626
 3456TIP3   OH231926   2.831   0.966   9.048 -0.6807  0.1978 -0.2275
 3456TIP3    H131927   2.814   1.020   9.125 -0.2098 -1.0813  0.8128
 3456TIP3    H231928   2.906   1.007   9.005 -0.3710  0.4038  0.5071
 3457TIP3   OH231929   5.306   2.053   7.933  0.2739 -0.4046  0.2128
 3457TIP3    H131930   5.223   2.060   7.886 -0.2210 -1.9126  0.8041
 3457TIP3    H231931   5.373   2.046   7.865  0.0218  1.4287 -0.2830
 3458TIP3   OH231932   2.301   3.261   0.474  0.5098  0.5479  0.7175
 3458TIP3    H131933   2.292   3.320   0.400  1.3334 -0.0880  0.0870
 3458TIP3    H231934   2.379   3.293   0.521  1.9983 -0.9909 -0.5842
 3459TIP3   OH231935   6.185   5.116   3.153  0.0475 -0.2148  0.0290
 3459TIP3    H131936   6.264   5.166   3.133  0.4461 -1.5425 -1.9584
 3459TIP3    H231937   6.217   5.034   3.191 -0.4540 -0.3057  0.2737
 3460TIP3   OH231938   3.318   6.357   2.500  0.3394 -0.6074  0.2818
 3460TIP3    H131939   3.249   6.370   2.435  0.7847  1.3223  0.1217
 3460TIP3    H231940   3.271   6.349   2.583 -0.1103  0.6918  0.1727
 3461TIP3   OH231941   2.412   5.906   2.186  0.0431  0.2107 -0.1995
 3461TIP3    H131942   2.395   5.828   2.239  0.7081  0.6426  0.6737
 3461TIP3    H231943   2.409   5.979   2.248  3.3606  0.4925 -0.2011
 3462TIP3   OH231944   5.807   2.777   8.722 -0.2912 -0.0089  0.0210
 3462TIP3    H131945   5.823   2.871   8.718 -3.7206  0.6911 -3.1546
 3462TIP3    H231946   5.804   2.749   8.631  1.8027 -3.5897  0.8613
 3463TIP3   OH231947   0.181   3.473   1.061  0.8004  0.5511 -0.0691
 3463TIP3    H131948   0.108   3.488   1.001  0.1435 -2.7597 -0.2639
 3463TIP3    H231949   0.259   3.501   1.012 -0.0143  0.8989 -1.1951
 3464TIP3   OH231950   5.299   4.591   8.264  0.0940  0.4245  0.0332
 3464TIP3    H131951   5.336   4.676   8.241 -0.7161  0.9738  0.6974
 3464TIP3    H231952   5.228   4.577   8.201  1.9473 -1.0857 -1.8841
 3465TIP3   OH231953   4.138   4.108   1.513  0.3063 -0.4573 -0.2953
 3465TIP3    H131954   4.113   4.104   1.420 -0.7792 -1.3838  0.0097
 3465TIP3    H231955   4.229   4.078   1.514  0.6029  0.3592 -1.1420
 3466TIP3   OH231956   0.098   4.125   8.983 -0.0911 -0.7587 -0.0231
 3466TIP3    H131957   0.038   4.170   9.043  0.7401 -0.6738  0.7676
 3466TIP3    H231958   0.180   4.118   9.032 -0.0380 -2.6840 -0.3352
 3467TIP3   OH231959   0.342   6.434   2.293  0.2571  0.1604  0.2597
 3467TIP3    H131960   0.415   6.493   2.274  0.8517 -0.2748  1.0892
 3467TIP3    H231961   0.318   6.455   2.384  0.4844 -0.8537  0.5704
 3468TIP3   OH231962   3.122   4.534   0.975 -0.0717  0.3706  0.1478
 3468TIP3    H131963   3.087   4.542   0.886 -1.6143 -1.8893  0.4740
 3468TIP3    H231964   3.115   4.441   0.995 -0.3945  0.9048  2.8847
 3469TIP3   OH231965   0.596   6.567   2.403 -0.3639 -0.2550  0.2397
 3469TIP3    H131966   0.533   6.604   2.464 -1.4325 -1.2652 -0.2175
 3469TIP3    H231967   0.679   6.568   2.451 -0.5544  1.7401  0.5910
 3470TIP3   OH231968   2.215   4.617   8.932  0.4224  0.2973 -0.3024
 3470TIP3    H131969   2.248   4.684   8.992  0.1678 -0.4931  0.7353
 3470TIP3    H231970   2.152   4.567   8.983 -1.6515  1.0839 -1.9229
 3471TIP3   OH231971   1.772   0.394   9.178 -0.0932  0.8554 -0.0596
 3471TIP3    H131972   1.823   0.448   9.238  0.5967  0.4380 -0.2552
 3471TIP3    H231973   1.824   0.393   9.098  0.2249 -0.5933  0.1414
 3472TIP3   OH231974   2.012   0.065   1.866 -0.7244 -0.4254 -0.1649
 3472TIP3    H131975   1.953   0.048   1.939  1.4755 -1.0389  1.5835
 3472TIP3    H231976   2.023   0.160   1.865 -1.5113 -0.3280 -0.3620
 3473TIP3   OH231977   5.141   4.955   0.574 -0.2917 -0.8349 -0.4752
 3473TIP3    H131978   5.217   4.907   0.607  0.9831  2.4322  1.7688
 3473TIP3    H231979   5.177   5.012   0.506 -1.1014 -0.5973 -0.7105
 3474TIP3   OH231980   4.496   0.698   0.269  0.4649  0.6975 -0.0855
 3474TIP3    H131981   4.504   0.793   0.274 -2.9280  1.1206 -0.1875
 3474TIP3    H231982   4.498   0.669   0.361  0.0872  1.0651  0.0439
 3475TIP3   OH231983   0.880   6.566   8.179 -0.2023  0.3978 -1.0015
 3475TIP3    H131984   0.904   6.541   8.090 -1.1598  1.7999 -1.6837
 3475TIP3    H231985   0.800   6.617   8.169 -2.2933 -2.2205  0.9868
 3476TIP3   OH231986   5.839   1.729   8.014 -0.1656  0.0984 -0.1066
 3476TIP3    H131987   5.862   1.810   8.060 -2.4965  0.5732  0.3625
 3476TIP3    H231988   5.756   1.702   8.053  0.2316 -2.2081 -0.6966
 3477TIP3   OH231989   6.115   0.136   2.184 -0.3190  0.2535  0.4895
 3477TIP3    H131990   6.117   0.048   2.222 -2.7553 -0.0975 -0.0642
 3477TIP3    H231991   6.053   0.185   2.239 -0.2009  1.1759 -0.1677
 3478TIP3   OH231992   4.882   2.897   1.709 -0.3112 -0.2446 -0.0881
 3478TIP3    H131993   4.793   2.880   1.739 -0.2476  1.6518  1.3673
 3478TIP3    H231994   4.932   2.818   1.733 -1.2463 -0.6395  0.6077
 3479TIP3   OH231995   5.026   4.484   0.354  0.3593 -0.1952  0.1351
 3479TIP3    H131996   5.052   4.522   0.437  1.1335 -1.4673  0.5005
 3479TIP3    H231997   5.099   4.428   0.329 -0.1139 -0.2907 -1.1076
 3480TIP3   OH231998   5.083   0.708   1.075  0.4424  0.1655 -0.8792
 3480TIP3    H131999   5.090   0.713   1.170  0.0791 -0.2819 -0.8255
 3480TIP3    H232000   4.995   0.675   1.059  0.4123  0.4714 -1.3819
 3481TIP3   OH232001   1.127   5.936   8.466  0.6584 -0.0231 -0.5932
 3481TIP3    H132002   1.131   5.924   8.371  1.8468 -0.5617 -0.4900
 3481TIP3    H232003   1.168   5.858   8.502 -1.2797 -0.6272  0.4456
 3482TIP3   OH232004   1.219   3.956   8.858  0.2347  0.0293  0.6946
 3482TIP3    H132005   1.251   4.006   8.932 -0.0667  0.0751  0.7921
 3482TIP3    H232006   1.134   3.922   8.886 -0.5527  1.2388 -0.1495
 3483TIP3   OH232007   2.197   4.808   3.110  0.5861 -0.1458  0.2637
 3483TIP3    H132008   2.181   4.714   3.119  0.5631  0.0191  2.5814
 3483TIP3    H232009   2.252   4.815   3.032 -0.5487 -1.9150 -0.7667
 3484TIP3   OH232010   4.303   3.560   0.303  0.6567 -0.0984 -0.4972
 3484TIP3    H132011   4.229   3.604   0.345  0.2745  0.1988 -1.4462
 3484TIP3    H232012   4.299   3.470   0.333  0.0894 -0.0076 -0.3017
 3485TIP3   OH232013   5.128   6.138   0.936  0.0021  0.1316 -0.1305
 3485TIP3    H132014   5.209   6.088   0.947 -0.3449 -0.6825 -1.1207
 3485TIP3    H232015   5.082   6.128   1.019  0.5279 -0.1066  0.1357
 3486TIP3   OH232016   1.342   3.368   3.104  0.4348 -0.3511 -0.0563
 3486TIP3    H132017   1.358   3.300   3.038  1.2079  0.1142 -0.3628
 3486TIP3    H232018   1.330   3.448   3.053 -0.8222 -0.2916  0.2824
 3487TIP3   OH232019   0.547   2.443   8.082 -0.0136 -0.4427  0.0502
 3487TIP3    H132020   0.575   2.439   7.991 -1.6397  0.7816 -0.5576
 3487TIP3    H232021   0.536   2.352   8.109 -0.5332 -0.8087 -1.3347
 3488TIP3   OH232022   5.127   0.233   0.751  0.3134  0.1205 -0.0620
 3488TIP3    H132023   5.153   0.224   0.843 -0.3584  0.5660  0.1745
 3488TIP3    H232024   5.033   0.218   0.752  0.7077 -3.5102 -1.1716
 3489TIP3   OH232025   3.159   2.826   8.619 -0.3074  0.4419  0.4851
 3489TIP3    H132026   3.104   2.857   8.691 -0.5592 -0.0613  0.5147
 3489TIP3    H232027   3.194   2.743   8.649 -0.9572 -0.1085 -0.2341
 3490TIP3   OH232028   4.578   3.807   1.546 -0.1975 -0.2713  0.1633
 3490TIP3    H132029   4.541   3.798   1.634 -0.4615 -0.1561  0.0677
 3490TIP3    H232030   4.617   3.895   1.545  1.2633 -0.8963  0.6914
 3491TIP3   OH232031   1.214   6.396   1.180  0.0905  0.1907  0.1324
 3491TIP3    H132032   1.158   6.319   1.168 -1.1591  0.6175  2.4850
 3491TIP3    H232033   1.267   6.376   1.257  1.0522  0.9951 -0.2977
 3492TIP3   OH232034   2.328   3.059   7.851  1.3470 -0.2957 -0.2852
 3492TIP3    H132035   2.353   3.029   7.764  0.0209 -1.1901 -0.3869
 3492TIP3    H232036   2.261   3.125   7.835  2.2728  0.7701  0.0380
 3493TIP3   OH232037   6.050   1.336   7.495  0.0782  0.2183 -0.2773
 3493TIP3    H132038   6.071   1.279   7.422  1.5283  1.3449 -0.7869
 3493TIP3    H232039   6.016   1.416   7.454 -1.3377 -0.0082  0.3949
 3494TIP3   OH232040   0.747   2.231   1.226  0.0356 -0.3328  0.3939
 3494TIP3    H132041   0.685   2.271   1.288  0.5494  2.7613 -0.9272
 3494TIP3    H232042   0.822   2.206   1.281 -0.1000  1.0301  1.2447
 3495TIP3   OH232043   5.907   6.308   2.096  0.2462 -0.3525 -0.5145
 3495TIP3    H132044   5.953   6.335   2.017  0.2057 -0.8556 -0.7132
 3495TIP3    H232045   5.819   6.285   2.067 -0.3510  1.2366 -0.0295
 3496TIP3   OH232046   5.864   6.304   2.381  0.1242 -0.2930  0.4068
 3496TIP3    H132047   5.880   6.250   2.304 -0.7130  0.0278  0.0003
 3496TIP3    H232048   5.781   6.349   2.363  1.0255  1.4987  0.5319
 3497TIP3   OH232049   4.762   4.056   1.058  0.4645  0.5010 -0.5291
 3497TIP3    H132050   4.791   4.058   1.149 -0.0173  1.4590 -0.3792
 3497TIP3    H232051   4.687   3.996   1.059  0.2054  0.8171 -0.1987
 3498TIP3   OH232052   2.750   1.078   8.789  0.1428 -0.7221 -0.2583
 3498TIP3    H132053   2.784   1.167   8.800  1.3474 -1.1631 -0.1979
 3498TIP3    H232054   2.773   1.033   8.870 -0.2965 -1.1446 -0.3612
 3499TIP3   OH232055   2.270   5.634   0.813  0.2472 -0.0349  0.2676
 3499TIP3    H132056   2.292   5.724   0.838  0.4963 -0.4708  1.6877
 3499TIP3    H232057   2.239   5.594   0.894 -0.5224 -1.0432 -0.5022
 3500TIP3   OH232058   4.383   0.977   1.526  0.2978  0.4655 -0.2862
 3500TIP3    H132059   4.314   1.006   1.467 -1.3133 -1.4102  0.5626
 3500TIP3    H232060   4.349   0.993   1.614  1.9020  1.5416  0.1838
 3501TIP3   OH232061   6.112   4.098   1.895 -0.2815  0.4452  0.1770
 3501TIP3    H132062   6.069   4.072   1.976  3.9815  0.4617  2.7912
 3501TIP3    H232063   6.132   4.015   1.850 -0.9424  0.3189  0.1051
 3502TIP3   OH232064   5.819   2.678   8.448  0.1880 -0.0776  0.3111
 3502TIP3    H132065   5.889   2.622   8.414 -0.2589  0.8932 -2.4732
 3502TIP3    H232066   5.739   2.644   8.408 -0.3904  1.1562  0.3768
 3503TIP3   OH232067   1.342   5.851   0.675  0.1842  0.1138  1.3684
 3503TIP3    H132068   1.397   5.902   0.735  2.2170  0.1361 -0.3954
 3503TIP3    H232069   1.384   5.765   0.671  0.0588  0.0936  0.0449
 3504TIP3   OH232070   3.160   1.175   9.131 -0.4302  0.0672 -0.0437
 3504TIP3    H132071   3.232   1.237   9.139 -1.3705  1.2394 -0.3878
 3504TIP3    H232072   3.146   1.165   9.037 -0.3075 -0.6647  0.0035
 3505TIP3   OH232073   4.890   1.740   1.694 -0.3453 -0.9114 -0.3607
 3505TIP3    H132074   4.941   1.677   1.744  0.9132  0.2082 -0.2029
 3505TIP3    H232075   4.929   1.825   1.713  0.6250 -0.4628 -3.6830
 3506TIP3   OH232076   5.420   3.404   1.371 -0.1576 -0.1106  0.1454
 3506TIP3    H132077   5.503   3.451   1.378 -0.5264  0.4367  1.0631
 3506TIP3    H232078   5.397   3.382   1.461 -1.4675  0.5991  0.0138
 3507TIP3   OH232079   1.090   5.452   9.213  0.0645 -0.1419  0.1699
 3507TIP3    H132080   1.115   5.544   9.206 -3.6896  1.0019 -0.6246
 3507TIP3    H232081   1.135   5.409   9.141  1.6154  1.1225  0.3492
 3508TIP3   OH232082   0.899   6.146   2.200 -0.2858  0.5832  0.1579
 3508TIP3    H132083   0.814   6.164   2.241 -0.4577  2.6868 -0.9998
 3508TIP3    H232084   0.904   6.206   2.126  1.3656 -0.9183 -1.0509
 3509TIP3   OH232085   2.586   5.428   3.051 -0.6923 -0.1832 -0.2031
 3509TIP3    H132086   2.503   5.418   3.098 -1.6035  0.0760 -1.6997
 3509TIP3    H232087   2.650   5.449   3.119 -1.9395  0.0746  0.9244
 3510TIP3   OH232088   5.003   2.543   0.853 -0.3519  0.0276 -0.0953
 3510TIP3    H132089   5.049   2.469   0.812 -1.8159 -0.6707 -0.5375
 3510TIP3    H232090   4.935   2.567   0.791 -0.3364  1.3296  0.3518
 3511TIP3   OH232091   0.639   5.576   8.258  0.1186  0.6063 -0.3212
 3511TIP3    H132092   0.724   5.619   8.272  0.6875 -0.1866 -1.2386
 3511TIP3    H232093   0.618   5.537   8.343 -0.0885  2.1067  0.3450
 3512TIP3   OH232094   6.607   1.880   0.539  0.9813 -0.7180  0.1260
 3512TIP3    H132095   6.553   1.801   0.533 -0.0502 -0.2236  2.0722
 3512TIP3    H232096   6.671   1.860   0.608  1.0425 -0.0437  0.2717
 3513TIP3   OH232097   5.008   3.616   8.812  0.4047  0.2163 -0.4515
 3513TIP3    H132098   4.956   3.541   8.840 -0.9435  2.1576  2.8778
 3513TIP3    H232099   5.093   3.605   8.854 -0.3833  1.2816  1.5836
 3514TIP3   OH232100   4.207   0.403   0.309  0.6797 -0.2568 -0.0974
 3514TIP3    H132101   4.155   0.323   0.305 -0.6200  0.5492  0.1253
 3514TIP3    H232102   4.290   0.375   0.348  1.6882 -2.1775 -3.2183
 3515TIP3   OH232103   3.843   1.929   0.903  0.0096  0.3247  0.4540
 3515TIP3    H132104   3.787   1.896   0.974  0.8007 -1.7715  0.1819
 3515TIP3    H232105   3.921   1.962   0.948  0.5569 -1.0962  0.6055
 3516TIP3   OH232106   2.284   2.802   8.575 -0.3443 -0.3756 -0.8983
 3516TIP3    H132107   2.260   2.889   8.545 -0.3602  0.1661  0.6033
 3516TIP3    H232108   2.209   2.747   8.551 -1.1386  0.3989 -0.2406
 3517TIP3   OH232109   0.165   0.479   0.384  0.5662  0.5097 -0.0352
 3517TIP3    H132110   0.118   0.416   0.329 -1.0252  0.8651  0.8640
 3517TIP3    H232111   0.249   0.492   0.339 -0.8781  1.2432 -2.7324
 3518TIP3   OH232112   5.221   1.385   0.348 -0.6377 -0.8286 -0.0756
 3518TIP3    H132113   5.301   1.390   0.401 -0.7353 -1.5438  0.1433
 3518TIP3    H232114   5.183   1.300   0.369 -0.4073 -1.3699 -1.6984
 3519TIP3   OH232115   1.062   0.115   2.562 -0.4558 -0.5770 -0.5428
 3519TIP3    H132116   1.100   0.074   2.639 -2.7897 -0.7609  0.6211
 3519TIP3    H232117   1.126   0.101   2.492  1.0859 -1.6614  1.0142
 3520TIP3   OH232118   5.303   5.112   9.032 -0.2609 -0.0472  0.0937
 3520TIP3    H132119   5.290   5.204   9.011  0.0013 -0.1913 -0.7158
 3520TIP3    H232120   5.221   5.069   9.009 -0.1245 -0.1356 -0.2288
 3521TIP3   OH232121   3.282   0.708   0.377  0.5382 -0.3980 -0.1849
 3521TIP3    H132122   3.291   0.728   0.470  0.3920  0.0172 -0.2565
 3521TIP3    H232123   3.191   0.731   0.356  0.1478 -1.7855 -0.1252
 3522TIP3   OH232124   4.331   5.655   2.658 -0.2116  0.0490  0.0053
 3522TIP3    H132125   4.386   5.707   2.600 -1.9792  0.3823 -1.4772
 3522TIP3    H232126   4.353   5.565   2.638 -0.0333  0.1815 -0.4042
 3523TIP3   OH232127   2.186   0.652   7.427  0.0360  0.5601  0.6630
 3523TIP3    H132128   2.237   0.638   7.347  1.0679  1.3441  1.1613
 3523TIP3    H232129   2.250   0.678   7.493 -1.0694  2.4477  1.1071
 3524TIP3   OH232130   5.588   1.877   1.958 -0.1370  0.2665 -0.3149
 3524TIP3    H132131   5.542   1.893   1.876 -0.1812  0.1181 -0.3211
 3524TIP3    H232132   5.545   1.933   2.022  0.4852  1.0571 -0.5783
 3525TIP3   OH232133   4.111   5.490   1.533 -0.3148 -0.5154  0.1856
 3525TIP3    H132134   4.040   5.542   1.495  0.1124  1.0968  1.4735
 3525TIP3    H232135   4.068   5.438   1.601 -0.9133 -2.7061 -1.7214
 3526TIP3   OH232136   2.193   1.662   0.777  0.5574 -0.9129  0.4980
 3526TIP3    H132137   2.098   1.672   0.780  0.4934 -1.2474 -0.2716
 3526TIP3    H232138   2.217   1.681   0.687  1.6110  2.2899  1.3177
 3527TIP3   OH232139   2.019   5.831   2.544 -0.0410 -0.0664  0.3186
 3527TIP3    H132140   2.006   5.861   2.454 -0.5005 -0.9914  0.0641
 3527TIP3    H232141   2.012   5.736   2.539 -0.7198 -0.0992  1.4307
 3528TIP3   OH232142   0.399   4.511   7.874 -0.3497 -0.0494  0.3806
 3528TIP3    H132143   0.368   4.506   7.964  0.3195 -0.0041  0.6173
 3528TIP3    H232144   0.458   4.436   7.864  1.0166  0.9616  0.5533
 3529TIP3   OH232145   1.884   2.479   2.374 -0.5252 -0.8275  0.0461
 3529TIP3    H132146   1.918   2.409   2.429 -0.2478 -1.1057 -0.4627
 3529TIP3    H232147   1.851   2.434   2.296  0.1825 -0.3518 -0.5416
 3530TIP3   OH232148   4.715   6.508   9.069  0.4079 -0.2604 -0.1097
 3530TIP3    H132149   4.775   6.526   9.141  2.1751  0.9706 -1.7609
 3530TIP3    H232150   4.743   6.423   9.035 -0.7247 -1.0624  0.8742
 3531TIP3   OH232151   0.214   5.916   2.437  0.0614  0.0827  0.2952
 3531TIP3    H132152   0.161   5.869   2.503 -1.1086 -0.7838 -1.1794
 3531TIP3    H232153   0.153   5.980   2.400  0.4119 -0.0686 -0.5575
 3532TIP3   OH232154   1.568   3.885   7.708  0.2895 -0.1562 -0.5792
 3532TIP3    H132155   1.523   3.850   7.785  1.0042  0.5697  0.1858
 3532TIP3    H232156   1.566   3.813   7.645 -0.0227 -0.8777  0.2324
 3533TIP3   OH232157   0.107   4.125   0.297 -0.0818  0.5472  0.3542
 3533TIP3    H132158   0.166   4.066   0.249 -0.3110  0.6458 -0.0551
 3533TIP3    H232159   0.032   4.070   0.319  0.5393  0.1868  1.6489
 3534TIP3   OH232160   5.615   0.384   0.174  0.1235  0.2224  0.8579
 3534TIP3    H132161   5.658   0.307   0.137  0.1926  0.0921  1.2057
 3534TIP3    H232162   5.686   0.440   0.205  0.2418  1.6665 -1.7171
 3535TIP3   OH232163   2.855   4.575   0.473  0.0306 -0.7348  0.4101
 3535TIP3    H132164   2.848   4.657   0.523  0.5568 -0.9300  0.8131
 3535TIP3    H232165   2.876   4.509   0.538 -1.9735 -1.5028  0.3337
 3536TIP3   OH232166   3.058   5.707   1.328  0.0159  0.9704 -0.0251
 3536TIP3    H132167   3.066   5.615   1.304 -4.4066 -0.4041  2.6332
 3536TIP3    H232168   3.136   5.725   1.380  1.5489 -0.8071 -1.5283
 3537TIP3   OH232169   3.535   3.860   9.233 -0.7968 -0.1603  0.5609
 3537TIP3    H132170   3.476   3.901   9.169 -0.2518  0.8372  0.6764
 3537TIP3    H232171   3.479   3.839   9.308 -1.3399 -0.8666 -0.0206
 3538TIP3   OH232172   5.126   3.936   8.984 -0.2411 -0.4063 -0.0946
 3538TIP3    H132173   5.036   3.906   8.999  0.1533 -2.3547 -1.2757
 3538TIP3    H232174   5.173   3.906   9.062 -0.4103 -0.3083  0.0469
 3539TIP3   OH232175   6.538   4.058   1.797  0.3259 -0.6594  0.4102
 3539TIP3    H132176   6.542   3.963   1.786 -0.6721 -0.6939  0.2368
 3539TIP3    H232177   6.489   4.070   1.878  0.3301 -0.2921  0.3574
 3540TIP3   OH232178   5.464   2.326   8.738 -0.3360  0.4766  0.3864
 3540TIP3    H132179   5.508   2.320   8.823 -0.7936 -0.9842  0.5614
 3540TIP3    H232180   5.534   2.351   8.677  0.8878 -2.0018  0.6226
 3541TIP3   OH232181   5.324   1.978   0.610  0.0770  0.2264 -0.2955
 3541TIP3    H132182   5.266   1.922   0.559 -0.4752 -0.6448  1.2165
 3541TIP3    H232183   5.385   1.918   0.653 -0.6090  0.7284  1.4723
 3542TIP3   OH232184   5.528   0.198   0.406 -0.0910 -0.7085  0.1385
 3542TIP3    H132185   5.518   0.258   0.332  2.4381  0.1670  0.4213
 3542TIP3    H232186   5.438   0.172   0.427 -1.1537  1.5149 -1.1875
 3543TIP3   OH232187   6.129   2.664   0.231 -0.0911  0.1443  0.4910
 3543TIP3    H132188   6.168   2.717   0.301 -0.2424  0.2656  0.4832
 3543TIP3    H232189   6.198   2.658   0.164  0.4827 -0.9413  1.1445
 3544TIP3   OH232190   0.399   3.552   0.495  0.0957  0.7804 -0.1294
 3544TIP3    H132191   0.355   3.595   0.422 -0.0756 -0.8529 -1.0417
 3544TIP3    H232192   0.490   3.544   0.467 -0.0714 -0.3025 -0.4163
 3545TIP3   OH232193   0.603   4.228   0.370  0.1552 -0.7801 -0.8086
 3545TIP3    H132194   0.558   4.166   0.427 -0.0371  0.4175  0.3951
 3545TIP3    H232195   0.540   4.299   0.357  1.3510  0.5111  0.1853
 3546TIP3   OH232196   6.514   3.367   1.003 -0.1979 -0.0736  0.0231
 3546TIP3    H132197   6.438   3.410   0.964 -0.2866 -0.7704 -0.5809
 3546TIP3    H232198   6.588   3.396   0.950 -0.1845 -0.2484 -0.0521
 3547TIP3   OH232199   0.831   0.479   8.162 -0.0458  0.2252  0.1962
 3547TIP3    H132200   0.804   0.567   8.188 -2.2423  0.3543 -2.0952
 3547TIP3    H232201   0.750   0.427   8.167  1.0550 -1.5162  0.8318
 3548TIP3   OH232202   1.003   2.732   8.633 -0.3796  0.1367 -0.3524
 3548TIP3    H132203   1.024   2.739   8.726  0.0838  1.1894 -0.5235
 3548TIP3    H232204   0.926   2.675   8.630 -0.2798 -0.0588  0.6579
 3549TIP3   OH232205   1.839   6.355   8.863  0.0695  0.3972  0.1476
 3549TIP3    H132206   1.845   6.340   8.957  0.5416 -0.5833 -0.0277
 3549TIP3    H232207   1.880   6.278   8.824 -2.0334 -0.2479 -0.9008
 3550TIP3   OH232208   2.979   5.919   1.192 -0.4154 -0.0136  0.5114
 3550TIP3    H132209   2.984   6.003   1.239 -2.4377  0.6927 -0.4293
 3550TIP3    H232210   3.027   5.858   1.248 -1.3721  1.1251  2.7042
 3551TIP3   OH232211   6.332   2.670   0.963  0.5052 -0.1319 -0.3179
 3551TIP3    H132212   6.286   2.733   1.019 -0.5016 -0.8084 -0.3473
 3551TIP3    H232213   6.424   2.692   0.973  0.2771  0.3930  0.8433
 3552TIP3   OH232214   5.160   6.041   0.635 -0.4314  0.5493  0.4269
 3552TIP3    H132215   5.156   6.107   0.565  0.9493  0.7345  0.5016
 3552TIP3    H232216   5.098   6.072   0.700 -1.6589  0.4457 -0.6400
 3553TIP3   OH232217   6.458   5.103   0.651  0.0580  0.1355 -0.3920
 3553TIP3    H132218   6.385   5.138   0.701  0.4904  0.1742  0.2355
 3553TIP3    H232219   6.455   5.149   0.568 -2.0042 -1.5042 -1.3169
 3554TIP3   OH232220   6.252   6.306   1.098 -0.0722 -0.4205 -0.0030
 3554TIP3    H132221   6.188   6.293   1.028  1.0685 -1.8900 -0.8423
 3554TIP3    H232222   6.320   6.240   1.080  0.5578 -0.4116  2.1397
 3555TIP3   OH232223   2.287   0.499   0.104 -0.0288 -0.3064  0.2653
 3555TIP3    H132224   2.366   0.546   0.130  0.1162 -0.7323  0.6058
 3555TIP3    H232225   2.317   0.436   0.039  0.1988 -1.5358  1.5199
 3556TIP3   OH232226   2.965   3.404   1.992  1.0384 -0.3807  0.1502
 3556TIP3    H132227   2.916   3.334   2.036 -0.0275 -0.0303 -0.4225
 3556TIP3    H232228   2.908   3.430   1.920  1.2066  1.4065  0.6287
 3557TIP3   OH232229   2.291   0.273   9.083  0.2974 -0.4678 -0.0560
 3557TIP3    H132230   2.296   0.178   9.095 -1.9709 -0.4825  1.3616
 3557TIP3    H232231   2.347   0.309   9.153  0.1706 -0.7493  0.1940
 3558TIP3   OH232232   1.028   5.461   1.713  0.0961  0.0646  0.4136
 3558TIP3    H132233   0.995   5.414   1.789 -0.8888  1.1176  0.6573
 3558TIP3    H232234   1.117   5.488   1.738 -0.0587  0.0209  1.0153
 3559TIP3   OH232235   2.068   3.397   8.489  0.4042  0.4338 -0.0657
 3559TIP3    H132236   2.137   3.333   8.469 -1.6324 -2.2449  0.8170
 3559TIP3    H232237   2.012   3.397   8.411 -0.6314 -0.3667  0.6462
 3560TIP3   OH232238   0.045   5.637   9.133 -0.3081 -0.2464 -0.0138
 3560TIP3    H132239   0.099   5.715   9.140  0.7156 -0.9447  0.1423
 3560TIP3    H232240  -0.035   5.666   9.090  0.1582  0.8330 -0.1690
 3561TIP3   OH232241   1.955   3.939   0.223  0.1451  0.6066 -0.3561
 3561TIP3    H132242   2.033   3.922   0.171  0.4113  1.5587 -0.2987
 3561TIP3    H232243   1.900   3.862   0.212  1.2663 -0.2565 -0.0815
 3562TIP3   OH232244   1.094   2.325   8.981 -0.8898  0.6283  0.3230
 3562TIP3    H132245   1.129   2.413   8.997  1.4978 -0.1068 -0.3728
 3562TIP3    H232246   1.073   2.324   8.888  2.1190 -0.4019 -0.4502
 3563TIP3   OH232247   0.230   5.015   0.364  0.2314  0.1800 -0.0729
 3563TIP3    H132248   0.247   5.039   0.455 -1.2546  1.5388 -0.1116
 3563TIP3    H232249   0.314   5.026   0.320  0.4066  2.0884  0.6392
 3564TIP3   OH232250   5.432   3.162   1.666 -0.1847  0.5349  0.2740
 3564TIP3    H132251   5.350   3.115   1.678 -0.9013  1.4864 -0.6489
 3564TIP3    H232252   5.475   3.117   1.593  1.3816 -1.5678  2.3664
 3565TIP3   OH232253   4.759   4.867   3.351  0.2753 -0.4269 -0.0038
 3565TIP3    H132254   4.724   4.860   3.262 -1.2094  2.3745  0.2557
 3565TIP3    H232255   4.854   4.860   3.339  0.1429  0.2536 -1.8795
 3566TIP3   OH232256   5.737   0.913   2.316 -0.1015 -0.0141 -0.1955
 3566TIP3    H132257   5.713   0.925   2.225  2.2520  1.7508 -0.6852
 3566TIP3    H232258   5.687   0.979   2.364 -1.7456 -1.2921 -0.0611
 3567TIP3   OH232259   6.506   6.016   9.205 -0.1713 -0.4298  1.1045
 3567TIP3    H132260   6.522   6.066   9.125 -1.5435  2.3196  2.4155
 3567TIP3    H232261   6.587   6.024   9.255  0.3565 -1.3668  0.4312
 3568TIP3   OH232262   5.204   2.303   8.372 -0.5330 -0.6583  0.4120
 3568TIP3    H132263   5.162   2.294   8.457  2.4597  2.0347  2.3961
 3568TIP3    H232264   5.294   2.274   8.386  1.1711  3.4304 -0.5562
 3569TIP3   OH232265   1.062   5.796   0.694 -0.8174 -0.0947  0.7785
 3569TIP3    H132266   1.047   5.703   0.673 -1.7360  0.1969  0.0535
 3569TIP3    H232267   1.158   5.805   0.694 -0.7205 -0.9786  0.5442
 3570TIP3   OH232268   4.323   4.537   1.997  0.2556 -0.1998  0.2285
 3570TIP3    H132269   4.281   4.522   1.912 -0.6702 -0.0734  0.6570
 3570TIP3    H232270   4.414   4.509   1.983 -0.4998 -2.8442 -0.0426
 3571TIP3   OH232271   0.941   0.772   7.903 -0.0908  0.3194 -0.1370
 3571TIP3    H132272   0.992   0.695   7.876  0.8030  1.0112 -0.4947
 3571TIP3    H232273   0.856   0.737   7.931  0.0925 -0.7297 -0.8567
 3572TIP3   OH232274   6.016   1.853   1.674 -0.4373 -0.0027  0.1251
 3572TIP3    H132275   5.960   1.847   1.752  1.6364  0.8372  1.7863
 3572TIP3    H232276   6.097   1.809   1.700  0.2515  0.1745 -1.6229
 3573TIP3   OH232277   4.952   0.616   8.815  0.1070 -0.3203 -0.5330
 3573TIP3    H132278   4.967   0.542   8.756 -0.4004 -0.1433 -0.8961
 3573TIP3    H232279   4.979   0.585   8.901 -0.7192 -1.1630 -0.5559
 3574TIP3   OH232280   2.238   2.051   7.831 -0.6719 -0.6277  0.3937
 3574TIP3    H132281   2.159   2.013   7.868 -1.9262  0.7863 -0.6938
 3574TIP3    H232282   2.206   2.116   7.769  1.3564  0.6084  0.5585
 3575TIP3   OH232283   3.507   2.734   8.460  0.1787 -1.3086 -0.2943
 3575TIP3    H132284   3.453   2.740   8.381  0.7431 -0.9355 -0.6613
 3575TIP3    H232285   3.446   2.708   8.529 -1.0496  1.8135 -0.0757
 3576TIP3   OH232286   4.780   1.876   0.527 -0.1048  0.1782 -0.6141
 3576TIP3    H132287   4.836   1.875   0.605 -0.9557  0.2748  0.0205
 3576TIP3    H232288   4.693   1.896   0.561 -0.3242  1.1905 -1.7190
 3577TIP3   OH232289   5.366   4.086   8.040  0.1228 -0.8253  0.1136
 3577TIP3    H132290   5.352   4.129   7.955 -0.5403 -2.6308 -0.7353
 3577TIP3    H232291   5.287   4.106   8.090  0.0748 -0.5810 -0.0589
 3578TIP3   OH232292   5.606   1.027   2.527 -0.0411  0.6039 -0.3323
 3578TIP3    H132293   5.695   1.017   2.561 -0.5831 -1.1329  0.6936
 3578TIP3    H232294   5.590   1.121   2.530  0.7414  0.7309  2.2104
 3579TIP3   OH232295   3.943   1.514   0.825 -0.6892  0.2648  0.0124
 3579TIP3    H132296   3.963   1.463   0.904  0.4767  0.8497  0.1266
 3579TIP3    H232297   3.920   1.449   0.759 -1.3930 -0.2553  0.7443
 3580TIP3   OH232298   4.427   4.828   8.956 -0.2408  0.0229 -0.2558
 3580TIP3    H132299   4.502   4.882   8.982 -0.7706  0.8238 -0.3612
 3580TIP3    H232300   4.433   4.824   8.860 -0.6230  0.5213 -0.3025
 3581TIP3   OH232301   0.190   6.078   7.774  0.8534  0.2832  0.4903
 3581TIP3    H132302   0.124   6.009   7.782  0.6967  0.0853 -1.6994
 3581TIP3    H232303   0.241   6.053   7.697  2.1104  1.5718  0.8625
 3582TIP3   OH232304   4.962   4.939   1.752 -0.2296 -0.3230  0.7231
 3582TIP3    H132305   4.972   4.926   1.846 -0.7765  2.6148  1.2936
 3582TIP3    H232306   4.928   4.856   1.720 -0.5855 -1.2249  3.2164
 3583TIP3   OH232307   4.635   2.923   1.458 -0.7875 -0.4604 -0.2767
 3583TIP3    H132308   4.568   2.986   1.431 -0.0486  0.0999 -0.8625
 3583TIP3    H232309   4.717   2.971   1.450 -0.2739 -1.2722 -0.0011
 3584TIP3   OH232310   0.165   2.728   0.672 -0.5529  0.2479 -0.2874
 3584TIP3    H132311   0.200   2.801   0.724  0.5536  0.2666 -1.0327
 3584TIP3    H232312   0.182   2.650   0.725  0.4966  0.2760 -0.5591
 3585TIP3   OH232313   4.925   5.193   3.290  0.0473  0.2773  0.1536
 3585TIP3    H132314   4.956   5.273   3.247 -1.3857  0.9209  0.2611
 3585TIP3    H232315   4.995   5.170   3.351  0.8924  0.9126 -0.5478
 3586TIP3   OH232316   6.206   0.670   2.431  0.3362  0.1043 -0.2554
 3586TIP3    H132317   6.244   0.705   2.512  3.0386  0.2088 -1.4527
 3586TIP3    H232318   6.139   0.733   2.407  0.1958  0.6184  1.3353
 3587TIP3   OH232319   0.465   2.511   0.295 -0.0234  0.3560  0.6597
 3587TIP3    H132320   0.555   2.480   0.287  0.1815  1.2419 -0.7395
 3587TIP3    H232321   0.430   2.464   0.371  1.5618 -0.1115  1.1306
 3588TIP3   OH232322   5.193   5.001   0.878 -0.5802  0.6430  0.2166
 3588TIP3    H132323   5.141   4.929   0.842 -0.1305  0.8660 -0.9245
 3588TIP3    H232324   5.179   5.073   0.817 -1.2463  1.6327  1.4984
 3589TIP3   OH232325   6.340   1.942   0.914  0.1363 -0.4330 -0.2836
 3589TIP3    H132326   6.250   1.954   0.945  0.0651  0.6214 -0.8402
 3589TIP3    H232327   6.333   1.875   0.846 -0.1053 -0.8932  0.1897
 3590TIP3   OH232328   0.787   1.655   1.531 -0.2115  0.3423  0.0571
 3590TIP3    H132329   0.866   1.707   1.518  0.0447 -0.3360 -1.2436
 3590TIP3    H232330   0.748   1.649   1.444 -0.7280 -0.8460  0.3533
 3591TIP3   OH232331   5.750   3.383   8.724 -0.8005  0.1074  0.1751
 3591TIP3    H132332   5.821   3.433   8.683  0.1884 -1.5534 -0.2322
 3591TIP3    H232333   5.785   3.294   8.733 -2.0722 -0.2723  1.9419
 3592TIP3   OH232334   5.183   0.891   9.166  0.1123 -0.0969 -0.2219
 3592TIP3    H132335   5.117   0.954   9.196  1.1240  0.7022  0.3798
 3592TIP3    H232336   5.153   0.807   9.202 -0.9832  0.1071 -0.6101
 3593TIP3   OH232337   2.616   1.899   0.919  0.5045  0.0123  0.4842
 3593TIP3    H132338   2.602   1.940   1.004 -0.7079 -2.1788  1.4266
 3593TIP3    H232339   2.695   1.846   0.931  2.6042  2.5310 -0.9965
 3594TIP3   OH232340   1.980   4.282   8.940 -0.2858 -0.0795 -0.0912
 3594TIP3    H132341   1.983   4.210   9.004  0.5556 -0.0003 -0.0352
 3594TIP3    H232342   2.071   4.311   8.932 -0.6254  1.0167 -0.0839
 3595TIP3   OH232343   2.965   3.951   1.450  0.0762  0.2281 -0.1412
 3595TIP3    H132344   2.888   3.895   1.442  0.4832 -0.1571 -2.0258
 3595TIP3    H232345   3.012   3.916   1.525 -0.2762 -1.2341 -0.5523
 3596TIP3   OH232346   0.725   1.864   2.164  0.3192 -0.0701 -0.1588
 3596TIP3    H132347   0.740   1.850   2.071  1.5302  0.1656 -0.0266
 3596TIP3    H232348   0.811   1.890   2.198 -0.3768  1.1038  0.7915
 3597TIP3   OH232349   5.649   3.000   7.896 -0.2856  0.6111  0.3071
 3597TIP3    H132350   5.700   3.081   7.901 -0.8044  0.8997  0.9699
 3597TIP3    H232351   5.700   2.944   7.837 -0.7190  1.9756 -1.4477
 3598TIP3   OH232352   5.115   2.621   1.117 -0.4915  0.7290 -0.2545
 3598TIP3    H132353   5.052   2.676   1.164 -0.3422  1.4929 -0.9181
 3598TIP3    H232354   5.071   2.602   1.034 -1.1645 -1.4198  0.5382
 3599TIP3   OH232355   3.470   1.303   1.628  0.2233 -0.1514  0.7643
 3599TIP3    H132356   3.538   1.371   1.625  1.0339 -0.9815 -0.4970
 3599TIP3    H232357   3.512   1.230   1.672  0.2896 -0.7919 -0.3258
 3600TIP3   OH232358   4.230   4.585   1.430 -0.4374  0.1843 -0.3388
 3600TIP3    H132359   4.190   4.532   1.361 -0.7091  0.7139 -0.5930
 3600TIP3    H232360   4.319   4.601   1.399 -0.9896  1.6459 -1.2891
 3601TIP3   OH232361   4.095   2.507   7.371 -0.1360  0.0448 -0.7071
 3601TIP3    H132362   4.156   2.550   7.432 -0.4969 -0.3298 -0.0656
 3601TIP3    H232363   4.082   2.420   7.409 -2.1826  0.5972 -0.0253
 3602TIP3   OH232364   0.986   2.515   1.901  0.1122 -0.0463  0.4691
 3602TIP3    H132365   1.007   2.579   1.831 -2.2371 -1.0647 -1.2840
 3602TIP3    H232366   1.002   2.563   1.982  1.1035  1.8501 -0.7622
 3603TIP3   OH232367   3.309   0.440   9.032  0.0527  0.0638  0.0151
 3603TIP3    H132368   3.352   0.445   8.946  1.2628 -2.3523  0.3909
 3603TIP3    H232369   3.380   0.425   9.093 -1.1161 -3.2690  0.7765
 3604TIP3   OH232370   3.310   0.226   8.770  0.0639 -0.0131  1.1507
 3604TIP3    H132371   3.285   0.279   8.845 -0.4175  1.0440  0.2682
 3604TIP3    H232372   3.368   0.282   8.718 -1.0305 -0.0607 -0.1715
 3605TIP3   OH232373   3.601   6.450   8.467  0.3634 -0.2868 -0.1836
 3605TIP3    H132374   3.593   6.412   8.380 -1.4961 -1.5513  0.4654
 3605TIP3    H232375   3.618   6.375   8.524 -1.5711  0.0455  0.9152
 3606TIP3   OH232376   3.062   2.307   7.895  0.2566  0.1846 -0.0889
 3606TIP3    H132377   3.131   2.372   7.907 -0.9232  1.4752 -0.0374
 3606TIP3    H232378   3.056   2.295   7.800  0.4723  0.1590 -0.0993
 3607TIP3   OH232379   5.135   3.661   8.566 -0.0510 -0.0787  0.2293
 3607TIP3    H132380   5.134   3.575   8.524  1.2040  0.0000  0.0224
 3607TIP3    H232381   5.070   3.654   8.636 -0.1885 -1.0901  0.0153
 3608TIP3   OH232382   5.803   1.156   3.000 -0.0917  0.1102  0.1767
 3608TIP3    H132383   5.863   1.169   2.927  0.0232 -2.2216 -0.2124
 3608TIP3    H232384   5.835   1.215   3.068  1.2081  0.6067 -0.8288
 3609TIP3   OH232385   6.266   1.780   8.867 -0.5727  0.6935 -0.6486
 3609TIP3    H132386   6.177   1.757   8.842 -0.7350  0.0710  0.4223
 3609TIP3    H232387   6.274   1.751   8.958  0.6332  0.9880 -0.6352
 3610TIP3   OH232388   3.633   2.007   1.433 -0.4358  0.4222 -0.9733
 3610TIP3    H132389   3.557   2.004   1.492  0.8171  1.7648  0.8454
 3610TIP3    H232390   3.679   1.925   1.449  0.3913  1.1635  0.7297
 3611TIP3   OH232391   6.300   4.598   1.533  0.0584  0.5042 -0.5597
 3611TIP3    H132392   6.391   4.587   1.563 -0.6064 -0.0585  1.4336
 3611TIP3    H232393   6.273   4.683   1.569 -0.8965 -0.3787  0.9338
 3612TIP3   OH232394   3.038   5.598   0.427  0.7583 -0.5345 -0.8537
 3612TIP3    H132395   2.998   5.514   0.451  1.4898 -0.8465 -0.6980
 3612TIP3    H232396   3.132   5.582   0.431  0.9115  0.3699 -0.5465
 3613TIP3   OH232397   6.250   2.566   8.464 -0.0217  0.0462  0.3064
 3613TIP3    H132398   6.171   2.517   8.442  0.9873 -1.1684 -0.7103
 3613TIP3    H232399   6.238   2.651   8.421  0.4688 -1.1345 -2.3356
 3614TIP3   OH232400   3.732   5.672   9.202  0.3949 -0.0531 -0.0308
 3614TIP3    H132401   3.810   5.642   9.250 -1.6352 -2.5128  1.9910
 3614TIP3    H232402   3.676   5.710   9.270 -0.7513  0.4733 -1.2379
 3615TIP3   OH232403   4.883   3.799   9.036  0.4639 -0.0066  0.0896
 3615TIP3    H132404   4.837   3.737   9.094  0.5142  0.1339  0.2814
 3615TIP3    H232405   4.913   3.745   8.963  0.0706 -0.1167  0.0072
 3616TIP3   OH232406   5.716   6.500   0.171  0.9600 -0.3366 -0.3638
 3616TIP3    H132407   5.700   6.486   0.265 -1.3092  2.0134 -0.2940
 3616TIP3    H232408   5.653   6.442   0.128 -0.3221  0.9317 -0.2934
 3617TIP3   OH232409   1.059   0.016   8.704 -0.7522  0.0663  0.1836
 3617TIP3    H132410   1.036   0.045   8.792  0.2256  0.0135  0.4748
 3617TIP3    H232411   1.112   0.088   8.668 -0.3751 -0.2979 -0.0075
 3618TIP3   OH232412   1.493   3.806   7.986  0.4519  0.0764 -0.1014
 3618TIP3    H132413   1.510   3.862   8.062  0.1274  0.6655 -0.4487
 3618TIP3    H232414   1.444   3.732   8.021  0.3508  0.3156  0.2721
 3619TIP3   OH232415   4.476   6.373   1.023 -0.6580 -0.0154  1.2064
 3619TIP3    H132416   4.562   6.338   1.000 -1.0469 -0.3612  0.2506
 3619TIP3    H232417   4.494   6.463   1.050  0.3596 -0.8730  3.7240
 3620TIP3   OH232418   3.464   4.987   1.668  0.3376 -0.8027  0.0450
 3620TIP3    H132419   3.509   4.989   1.753 -0.4128  1.3803  0.4706
 3620TIP3    H232420   3.533   5.006   1.604  0.4420  0.4204  0.4853
 3621TIP3   OH232421   6.281   2.560   7.261 -0.0070  0.3222 -0.6136
 3621TIP3    H132422   6.200   2.603   7.231  0.6564  1.1904 -1.2161
 3621TIP3    H232423   6.267   2.467   7.245 -0.6131  0.5387 -1.3740
 3622TIP3   OH232424   5.564   5.438   1.808  0.7370 -0.6587 -0.6782
 3622TIP3    H132425   5.538   5.472   1.893  2.1027 -0.0620 -0.4703
 3622TIP3    H232426   5.542   5.508   1.747  2.0630 -0.0333 -0.4645
 3623TIP3   OH232427   2.661   4.985   8.390 -0.5959 -0.4036 -0.0014
 3623TIP3    H132428   2.680   4.917   8.325  0.2162 -0.1845 -0.0013
 3623TIP3    H232429   2.582   4.953   8.435 -2.3468  0.3695 -2.3430
 3624TIP3   OH232430   0.339   3.601   1.647  0.3945 -0.3985  0.0346
 3624TIP3    H132431   0.260   3.614   1.594  1.2070  0.4372 -1.0268
 3624TIP3    H232432   0.400   3.668   1.616  0.9323  0.1047  2.0380
 3625TIP3   OH232433   3.043   3.169   0.918 -0.2022 -0.2784  0.3753
 3625TIP3    H132434   3.084   3.199   0.999 -0.4462 -1.7564  1.0732
 3625TIP3    H232435   2.950   3.183   0.931 -0.1190  1.3328 -0.4728
 3626TIP3   OH232436   3.252   1.504   1.705  0.2222  0.4544 -0.5137
 3626TIP3    H132437   3.162   1.474   1.715  0.4522 -1.0456 -2.4686
 3626TIP3    H232438   3.299   1.430   1.667  2.3177  1.1954  0.4610
 3627TIP3   OH232439   1.583   6.039   0.284  0.0450 -0.6271  0.7165
 3627TIP3    H132440   1.570   6.053   0.378  1.4182 -1.0962  0.9907
 3627TIP3    H232441   1.658   6.093   0.261 -0.1011 -0.7394 -0.0609
 3628TIP3   OH232442   3.816   5.983   2.926 -0.0233 -0.4054 -0.1723
 3628TIP3    H132443   3.783   6.035   3.000 -0.6304 -3.1090  1.6075
 3628TIP3    H232444   3.903   5.954   2.954  0.0418 -0.8579 -0.8335
 3629TIP3   OH232445   4.298   1.178   0.557 -0.0339  0.3516 -0.1772
 3629TIP3    H132446   4.275   1.269   0.577 -2.3292 -0.3235  0.4918
 3629TIP3    H232447   4.274   1.167   0.465 -0.4143  0.2364 -0.0654
 3630TIP3   OH232448   6.534   5.376   2.682  0.3939 -0.1075  0.3486
 3630TIP3    H132449   6.567   5.331   2.604  0.6723 -0.3106  0.5790
 3630TIP3    H232450   6.467   5.318   2.717 -0.4255  0.4464 -0.2867
 3631TIP3   OH232451   0.931   3.812   3.178  0.6364 -0.7624  0.2957
 3631TIP3    H132452   0.986   3.768   3.244  2.3305 -1.5893 -1.5751
 3631TIP3    H232453   0.972   3.898   3.168 -0.2720 -0.2238  1.0542
 3632TIP3   OH232454   1.694   2.272   1.310  0.4355 -1.3631 -0.4073
 3632TIP3    H132455   1.699   2.250   1.403  0.5906  0.6415  0.1076
 3632TIP3    H232456   1.726   2.363   1.305 -1.5704 -0.6790 -2.1062
 3633TIP3   OH232457   6.527   1.883   1.114  0.1287 -0.2074 -0.4198
 3633TIP3    H132458   6.547   1.794   1.083  0.4582 -0.3391  0.1484
 3633TIP3    H232459   6.461   1.916   1.053 -1.2895 -1.4920  0.3369
 3634TIP3   OH232460   5.286   0.624   1.289  0.0298 -0.2396 -0.6943
 3634TIP3    H132461   5.295   0.535   1.323 -0.2499 -1.4109 -3.3591
 3634TIP3    H232462   5.228   0.668   1.350  0.8408 -1.6027  1.1444
 3635TIP3   OH232463   4.008   0.681   0.837  0.4369  0.5604 -0.3466
 3635TIP3    H132464   3.972   0.730   0.763 -1.1119 -2.6622 -1.9366
 3635TIP3    H232465   3.934   0.664   0.894  0.9558  0.1842  0.2302
 3636TIP3   OH232466   6.442   4.168   1.220 -0.3831 -0.4152 -0.6496
 3636TIP3    H132467   6.511   4.111   1.187  0.1130 -0.2281  0.0225
 3636TIP3    H232468   6.452   4.164   1.315 -0.4274  0.6713 -0.5853
 3637TIP3   OH232469   2.030   1.067   8.949  0.3794 -0.0327 -0.5349
 3637TIP3    H132470   1.979   1.136   8.991 -0.1264  0.1615 -1.4506
 3637TIP3    H232471   2.119   1.080   8.982 -0.2274 -0.7933  1.6090
 3638TIP3   OH232472   3.636   5.492   0.712  0.6089 -0.0370  0.4182
 3638TIP3    H132473   3.643   5.570   0.765 -0.5733  0.4329 -0.0911
 3638TIP3    H232474   3.550   5.497   0.671  0.3252 -1.8000  0.6819
 3639TIP3   OH232475   1.197   5.760   7.925 -0.5033 -0.3524 -0.3565
 3639TIP3    H132476   1.156   5.679   7.893 -1.1318  0.2554 -1.1338
 3639TIP3    H232477   1.129   5.826   7.915 -0.6604 -0.0625  2.0594
 3640TIP3   OH232478   3.567   0.850   1.024  0.0613  0.1291 -0.0857
 3640TIP3    H132479   3.646   0.796   1.020  0.6305  0.8349  0.9516
 3640TIP3    H232480   3.495   0.789   1.005  0.7921 -0.6793 -0.3399
 3641TIP3   OH232481   4.250   0.455   2.273  0.3351  0.3417  0.3379
 3641TIP3    H132482   4.263   0.440   2.179  1.0069 -1.6696  0.6994
 3641TIP3    H232483   4.155   0.450   2.285  0.2079  1.0994 -0.2936
 3642TIP3   OH232484   1.579   3.698   1.699 -0.5036 -0.1644  0.1157
 3642TIP3    H132485   1.670   3.719   1.677 -0.1577 -2.5410 -1.0712
 3642TIP3    H232486   1.529   3.775   1.673  0.7822 -0.1869 -2.7549
 3643TIP3   OH232487   4.740   4.579   8.347 -0.0868  0.2053 -0.2528
 3643TIP3    H132488   4.737   4.618   8.259 -0.7383  1.0707  0.1401
 3643TIP3    H232489   4.702   4.646   8.404  0.1041 -0.4490  0.6562
 3644TIP3   OH232490   1.200   0.751   8.952  0.1927  0.0173  0.2280
 3644TIP3    H132491   1.201   0.841   8.921 -0.7178  0.2331  0.7970
 3644TIP3    H232492   1.109   0.723   8.943  0.2905 -0.5495  0.8926
 3645TIP3   OH232493   4.595   3.207   2.930  0.0466 -0.4021  0.2837
 3645TIP3    H132494   4.527   3.197   2.863  0.8241 -0.3595 -0.5397
 3645TIP3    H232495   4.664   3.147   2.902  0.4458 -0.2648  0.9730
 3646TIP3   OH232496   3.554   2.022   1.888  0.7539 -0.2117 -0.5421
 3646TIP3    H132497   3.506   1.953   1.933  1.1905  0.0433  0.3334
 3646TIP3    H232498   3.505   2.038   1.808 -0.2242 -0.4433  0.0061
 3647TIP3   OH232499   6.598   5.016   9.189 -0.3856 -0.0319  0.1169
 3647TIP3    H132500   6.527   4.964   9.227 -0.2867 -0.1416  0.1548
 3647TIP3    H232501   6.559   5.102   9.173 -2.1887 -1.4513 -4.9053
 3648TIP3   OH232502   3.542   0.669   9.187 -0.6577 -0.2983  0.2433
 3648TIP3    H132503   3.585   0.589   9.158 -0.7646 -0.3885  0.3305
 3648TIP3    H232504   3.528   0.657   9.281 -1.2033 -0.4294  0.1495
 3649TIP3   OH232505   5.759   0.119   0.069 -0.3279 -0.0055  0.2045
 3649TIP3    H132506   5.811   0.108  -0.010  2.3712  2.5041  1.4085
 3649TIP3    H232507   5.777   0.041   0.121 -0.4779 -0.7079 -0.7730
 3650TIP3   OH232508   2.204   3.118   2.584  0.4584 -0.3420 -0.0814
 3650TIP3    H132509   2.169   3.158   2.663  1.4114 -0.7363  0.5473
 3650TIP3    H232510   2.287   3.078   2.611 -0.3587 -2.6039 -0.7036
 3651TIP3   OH232511   0.641   6.474   1.754 -0.4531  0.1364  0.5129
 3651TIP3    H132512   0.600   6.502   1.836 -0.3070 -1.0521  1.0165
 3651TIP3    H232513   0.689   6.551   1.723 -1.2833  0.8845  1.0430
 3652TIP3   OH232514   3.394   3.796   2.131  0.3666  0.6139 -0.0324
 3652TIP3    H132515   3.464   3.800   2.066  1.6792  1.5557  1.3571
 3652TIP3    H232516   3.433   3.833   2.211 -1.7352  1.2298  0.7881
 3653TIP3   OH232517   5.398   1.548   8.513 -0.2627  0.0725 -0.0006
 3653TIP3    H132518   5.335   1.583   8.576 -1.2407 -1.0351 -0.3166
 3653TIP3    H232519   5.466   1.615   8.507  0.4554 -0.2084  3.0456
 3654TIP3   OH232520   1.566   0.051   1.996  0.1261 -0.0418 -0.5287
 3654TIP3    H132521   1.530   0.014   1.914  0.4256  1.3968 -1.3440
 3654TIP3    H232522   1.654   0.015   2.002 -0.1453 -0.7147 -0.4478
 3655TIP3   OH232523   3.891   0.129   8.738 -0.0820  0.2592 -0.6526
 3655TIP3    H132524   3.893   0.085   8.823  1.1053 -2.1841 -1.8553
 3655TIP3    H232525   3.815   0.187   8.743 -0.9528 -0.9597  1.5287
 3656TIP3   OH232526   5.466   3.783   7.998  0.1291  0.0294  0.0353
 3656TIP3    H132527   5.519   3.706   7.978  1.3576  0.8649 -0.0336
 3656TIP3    H232528   5.530   3.851   8.019 -0.9306  1.0736 -0.0344
 3657TIP3   OH232529   5.751   3.835   8.701 -0.2875 -0.2051 -0.3515
 3657TIP3    H132530   5.698   3.894   8.646 -0.3025 -0.4866 -0.6420
 3657TIP3    H232531   5.823   3.890   8.733  0.5864 -0.3881 -1.8855
 3658TIP3   OH232532   2.991   5.061   8.913 -0.2332 -0.7546 -0.5707
 3658TIP3    H132533   3.030   5.090   8.831 -0.6114  0.6591 -0.2781
 3658TIP3    H232534   2.910   5.017   8.887 -1.6859  1.8984 -0.8975
 3659TIP3   OH232535   3.048   2.152   8.861  0.0744 -0.2149 -0.4469
 3659TIP3    H132536   2.989   2.093   8.813 -0.5258 -1.0552  1.2465
 3659TIP3    H232537   3.102   2.193   8.793 -2.1910  0.3106 -2.0563
 3660TIP3   OH232538   5.847   4.141   7.737  0.0528 -0.2276  0.6646
 3660TIP3    H132539   5.938   4.170   7.732 -0.3963  1.0627 -0.8935
 3660TIP3    H232540   5.852   4.045   7.742  1.5052 -0.1015  2.3358
 3661TIP3   OH232541   3.322   0.777   3.446 -0.0375  0.9969 -0.0919
 3661TIP3    H132542   3.387   0.748   3.382 -2.5528  0.0463 -2.4210
 3661TIP3    H232543   3.301   0.867   3.420  0.5991  1.4556  0.9189
 3662TIP3   OH232544   3.965   0.741   2.176  0.2936  0.1170  0.1788
 3662TIP3    H132545   3.971   0.827   2.218  0.6140  1.4762 -2.4143
 3662TIP3    H232546   3.884   0.704   2.210 -0.0127  1.5844  1.1560
 3663TIP3   OH232547   1.966   2.901   2.152 -0.2779  0.2806  0.1523
 3663TIP3    H132548   2.015   2.952   2.216 -0.3727 -1.2198  1.4945
 3663TIP3    H232549   1.875   2.905   2.182 -0.3456 -0.3280  0.0392
 3664TIP3   OH232550   2.957   1.689   1.826  0.0787  0.1418 -0.3437
 3664TIP3    H132551   2.936   1.687   1.919 -2.0184  2.6813 -0.6701
 3664TIP3    H232552   2.906   1.617   1.788 -0.1421 -0.0340  0.2796
 3665TIP3   OH232553   1.587   6.339   2.515 -0.0678  0.3348  0.1475
 3665TIP3    H132554   1.615   6.423   2.480  0.0144  0.3556  0.2619
 3665TIP3    H232555   1.574   6.284   2.437  1.1999  0.0399  0.1115
 3666TIP3   OH232556   1.763   2.768   1.159  0.6635  0.2114  0.1215
 3666TIP3    H132557   1.727   2.700   1.102  0.8716  0.7053 -0.6191
 3666TIP3    H232558   1.855   2.743   1.171  0.2551 -0.7207  1.5150
 3667TIP3   OH232559   2.266   1.473   2.782 -0.5556  0.1793 -0.6822
 3667TIP3    H132560   2.220   1.511   2.856 -1.5934  1.2855 -1.8408
 3667TIP3    H232561   2.209   1.403   2.751 -0.9568  0.8454 -1.4695
 3668TIP3   OH232562   5.341   4.533   1.505  0.8021 -0.6199 -0.3119
 3668TIP3    H132563   5.329   4.455   1.559 -0.4385  0.0703  0.4406
 3668TIP3    H232564   5.414   4.580   1.546  1.1558 -1.0766 -0.4142
 3669TIP3   OH232565   5.085   2.817   1.948 -0.0101 -0.3010  0.0127
 3669TIP3    H132566   5.093   2.896   2.001 -0.7739 -0.7924  0.9000
 3669TIP3    H232567   5.042   2.754   2.006  1.4770 -1.7014 -0.3202
 3670TIP3   OH232568   0.101   0.432   8.407 -0.4194 -0.4435  0.2198
 3670TIP3    H132569   0.120   0.489   8.482  0.8823 -0.5788  0.0093
 3670TIP3    H232570   0.100   0.344   8.444  1.0573 -0.5932 -0.0309
 3671TIP3   OH232571   1.880   1.315   8.815 -0.4481 -0.2176  0.0774
 3671TIP3    H132572   1.832   1.232   8.811  0.6558 -0.9251  0.7528
 3671TIP3    H232573   1.972   1.289   8.807 -0.1801  1.1858 -2.3958
 3672TIP3   OH232574   1.250   2.832   8.895 -0.5420 -0.0361 -0.3554
 3672TIP3    H132575   1.310   2.894   8.854 -0.0399 -0.7940 -0.7911
 3672TIP3    H232576   1.183   2.887   8.937 -0.0152  0.7941 -0.5829
 3673TIP3   OH232577   3.983   3.885   9.182 -0.0965 -0.3946 -0.3283
 3673TIP3    H132578   3.957   3.798   9.152  0.9117 -0.1583 -2.0694
 3673TIP3    H232579   3.901   3.928   9.205 -0.7462 -1.3186 -0.8461
 3674TIP3   OH232580   4.180   4.238   2.100 -0.4090  0.2095  0.0932
 3674TIP3    H132581   4.200   4.147   2.081  0.6631  0.0055  1.9517
 3674TIP3    H232582   4.220   4.254   2.186 -1.4384  2.1395  0.2688
 3675TIP3   OH232583   1.535   0.253   9.254 -0.1621 -0.4075  0.0490
 3675TIP3    H132584   1.609   0.301   9.291 -0.2921 -1.4001  1.6719
 3675TIP3    H232585   1.513   0.188   9.320 -1.8555 -0.7924 -0.8414
 3676TIP3   OH232586   4.692   1.236   0.267 -0.2059  0.7425  0.1269
 3676TIP3    H132587   4.683   1.190   0.350 -1.0863  2.1832  0.8626
 3676TIP3    H232588   4.706   1.328   0.291 -0.5793  1.2125 -1.3072
 3677TIP3   OH232589   3.799   5.921   2.029 -0.1349  0.6205  0.4340
 3677TIP3    H132590   3.827   5.860   2.097  0.3185  0.7603  0.3759
 3677TIP3    H232591   3.735   5.978   2.072 -0.7759 -0.0679  0.4142
 3678TIP3   OH232592   6.516   0.612   3.001 -0.2590 -0.0449 -0.2068
 3678TIP3    H132593   6.466   0.610   3.083 -0.4727 -1.8904 -0.3424
 3678TIP3    H232594   6.602   0.644   3.027 -0.4034 -0.3441  0.6942
 3679TIP3   OH232595   0.611   2.568   8.859 -0.4578  0.3646 -0.1675
 3679TIP3    H132596   0.650   2.592   8.775 -1.3444 -0.2947 -0.7855
 3679TIP3    H232597   0.591   2.475   8.850 -1.1917  0.4473  0.5157
 3680TIP3   OH232598   6.178   4.854   7.836  0.0417 -0.1333 -0.0395
 3680TIP3    H132599   6.199   4.761   7.829 -0.9617 -0.4701  1.0736
 3680TIP3    H232600   6.175   4.884   7.745  0.2788 -1.2083 -0.4218
 3681TIP3   OH232601   4.180   2.725   0.204 -0.5280 -0.0307 -0.0050
 3681TIP3    H132602   4.198   2.638   0.240 -4.0742 -1.2686 -0.8541
 3681TIP3    H232603   4.203   2.718   0.111 -0.1960  0.1607  0.0615
 3682TIP3   OH232604   4.205   3.773   8.189 -0.3576  0.2321  0.0422
 3682TIP3    H132605   4.273   3.800   8.251 -0.6002 -0.3998  0.6084
 3682TIP3    H232606   4.241   3.697   8.145 -0.5398  0.1249  0.0735
 3683TIP3   OH232607   4.718   5.838   1.553  0.0485 -0.2802 -1.1183
 3683TIP3    H132608   4.762   5.778   1.492 -0.2217 -2.2086  0.4590
 3683TIP3    H232609   4.705   5.786   1.632  0.8957  2.2656  0.8342
 3684TIP3   OH232610   1.169   1.676   1.684  0.1826 -0.4021 -0.5384
 3684TIP3    H132611   1.165   1.747   1.621 -0.2920  0.7207  0.6981
 3684TIP3    H232612   1.172   1.720   1.769  1.4546 -1.8372  0.2117
 3685TIP3   OH232613   2.361   0.857   1.592 -0.1140  0.0643  0.2134
 3685TIP3    H132614   2.344   0.830   1.682 -0.9247  0.1598  0.0980
 3685TIP3    H232615   2.389   0.777   1.548 -1.2938 -0.3452  0.1695
 3686TIP3   OH232616   2.699   4.345   1.939  0.5576 -0.0288  0.3583
 3686TIP3    H132617   2.705   4.251   1.922 -1.3371 -0.3546  1.2552
 3686TIP3    H232618   2.714   4.354   2.033 -0.6423  0.3910  0.5260
 3687TIP3   OH232619   2.372   5.042   0.004  0.0813 -0.1369  1.2553
 3687TIP3    H132620   2.297   5.096  -0.020 -0.5412 -0.9327  1.3922
 3687TIP3    H232621   2.420   5.030  -0.078  1.1357  1.9365  1.4834
 3688TIP3   OH232622   1.372   0.082   9.025  0.3234 -0.8247 -0.0507
 3688TIP3    H132623   1.287   0.068   8.982  1.1015 -2.3374 -1.1726
 3688TIP3    H232624   1.349   0.104   9.115 -1.2976  0.0860 -0.6277
 3689TIP3   OH232625   0.139   4.492   0.789  0.6637 -0.6778  0.4822
 3689TIP3    H132626   0.164   4.507   0.880  1.8340  1.0458 -0.0522
 3689TIP3    H232627   0.219   4.510   0.739 -0.6490  1.3392 -1.0693
 3690TIP3   OH232628   4.098   0.189   7.480 -0.4563 -0.2054  0.3895
 3690TIP3    H132629   4.059   0.231   7.404 -0.9363  0.9537  1.2436
 3690TIP3    H232630   4.059   0.102   7.482 -1.7338  0.3364  0.2498
 3691TIP3   OH232631   4.101   4.212   0.189  0.1031  0.8361 -0.3938
 3691TIP3    H132632   4.188   4.208   0.229  0.8458  2.0362 -1.7955
 3691TIP3    H232633   4.082   4.306   0.182 -1.1737  0.5927 -0.3859
 3692TIP3   OH232634   0.861   3.171   0.482 -0.4892  0.0094  0.2522
 3692TIP3    H132635   0.865   3.257   0.440  2.1994  0.0339  0.4200
 3692TIP3    H232636   0.777   3.135   0.453 -1.9078  2.8230  0.5307
 3693TIP3   OH232637   2.265   2.665   0.112  0.8979  0.4519 -0.1483
 3693TIP3    H132638   2.251   2.745   0.060 -0.1534  0.1672 -0.3314
 3693TIP3    H232639   2.356   2.642   0.097  0.2855 -0.4895 -3.1586
 3694TIP3   OH232640   1.304   4.287   1.434  0.0178 -0.2459 -0.3897
 3694TIP3    H132641   1.216   4.252   1.440  0.1406 -0.4167  0.6086
 3694TIP3    H232642   1.323   4.289   1.341 -0.5867 -1.3437 -0.5504
 3695TIP3   OH232643   5.245   2.773   0.632  0.2239 -0.1357 -0.3564
 3695TIP3    H132644   5.246   2.697   0.691  2.7183  1.0341  1.2727
 3695TIP3    H232645   5.318   2.757   0.571 -1.4278 -0.6338 -2.3383
 3696TIP3   OH232646   0.091   1.922   7.695  0.4621  0.4629 -0.7858
 3696TIP3    H132647   0.149   1.998   7.701  0.0672  0.8257 -1.4326
 3696TIP3    H232648   0.149   1.850   7.670  0.9933  0.3323  0.7307
 3697TIP3   OH232649   6.496   0.372   0.501  0.2890  0.1428  0.1180
 3697TIP3    H132650   6.479   0.416   0.417  1.7036  0.1490 -0.1916
 3697TIP3    H232651   6.568   0.312   0.482  0.1671 -0.3515  1.1814
 3698TIP3   OH232652   1.298   4.334   1.161  0.0717  0.1596  0.2065
 3698TIP3    H132653   1.208   4.328   1.131  0.0804 -2.7860  0.4901
 3698TIP3    H232654   1.349   4.352   1.081 -0.6097  0.2560 -0.2110
 3699TIP3   OH232655   2.567   5.942   8.533  0.3967  0.1621 -0.2645
 3699TIP3    H132656   2.658   5.929   8.559  0.3621 -0.5989 -0.5121
 3699TIP3    H232657   2.570   6.011   8.467  0.8091  0.0584 -0.3529
 3700TIP3   OH232658   0.128   4.251   8.229 -0.0437 -0.1941  0.3844
 3700TIP3    H132659   0.107   4.198   8.152 -0.6528  0.1536  0.3009
 3700TIP3    H232660   0.118   4.191   8.303  0.8995 -0.6244  0.1706
 3701TIP3   OH232661   0.379   3.456   0.832  0.0192 -0.6177 -0.2152
 3701TIP3    H132662   0.409   3.544   0.809  0.1711 -1.1189 -2.1162
 3701TIP3    H232663   0.451   3.418   0.882 -0.6500  0.8091  2.0085
 3702TIP3   OH232664   4.429   3.633   8.344 -0.3797  0.1141 -0.0912
 3702TIP3    H132665   4.425   3.551   8.294  0.3505  0.4154 -0.6708
 3702TIP3    H232666   4.469   3.695   8.283 -1.8479  1.1799 -0.0126
 3703TIP3   OH232667   1.933   3.251   8.776  0.5327  0.2587 -0.1241
 3703TIP3    H132668   2.027   3.255   8.760  0.7150 -2.1779 -0.0127
 3703TIP3    H232669   1.903   3.172   8.730 -1.2915  0.4939  0.5613
 3704TIP3   OH232670   2.525   0.212   8.265 -0.0695  0.1265  0.7076
 3704TIP3    H132671   2.479   0.252   8.191 -0.8152  0.0000  1.0900
 3704TIP3    H232672   2.548   0.124   8.233 -1.1295 -0.2350  0.8968
 3705TIP3   OH232673   0.923   4.160   7.626  0.2937 -0.6401 -0.2277
 3705TIP3    H132674   0.871   4.080   7.636 -0.0564 -0.9152 -3.3137
 3705TIP3    H232675   0.859   4.226   7.598  0.9188  0.1901  0.2769
 3706TIP3   OH232676   4.687   3.796   7.902 -0.5209 -0.3302 -0.4671
 3706TIP3    H132677   4.756   3.767   7.841  0.4446 -0.4396  0.6294
 3706TIP3    H232678   4.614   3.820   7.846  0.2209 -0.7361 -1.6530
 3707TIP3   OH232679   2.274   0.925   2.698 -0.8227 -0.5063  0.4856
 3707TIP3    H132680   2.351   0.892   2.653 -0.3498  1.5081 -0.2766
 3707TIP3    H232681   2.277   0.884   2.785  0.9218 -0.6988  0.3534
 3708TIP3   OH232682   6.258   2.108   9.028  0.1936 -0.3288  0.1324
 3708TIP3    H132683   6.280   2.185   8.976 -1.5119 -1.4903 -2.5103
 3708TIP3    H232684   6.202   2.142   9.098  0.2140  0.9729 -0.4534
 3709TIP3   OH232685   5.955   2.879   8.332 -0.7877  0.1998  0.0752
 3709TIP3    H132686   5.900   2.814   8.376  1.6932 -1.2166  1.3011
 3709TIP3    H232687   5.913   2.963   8.352 -1.1830 -0.5929  3.0781
 3710TIP3   OH232688   5.975   0.132   2.438  0.2412 -0.3835  0.3310
 3710TIP3    H132689   5.895   0.173   2.470 -0.7242 -0.5837 -1.6884
 3710TIP3    H232690   5.945   0.058   2.385  1.8057 -1.0288  0.2791
 3711TIP3   OH232691   2.017   1.060   0.602  0.3920 -0.5848  0.2221
 3711TIP3    H132692   1.933   1.015   0.599  1.0955 -1.9887  0.6106
 3711TIP3    H232693   1.996   1.148   0.632 -0.7318 -1.4684  2.2215
 3712TIP3   OH232694   3.656   3.256   8.750 -0.5797  0.5062  0.4110
 3712TIP3    H132695   3.597   3.201   8.802 -1.3585  2.6118  1.8919
 3712TIP3    H232696   3.603   3.283   8.675  0.1708 -1.5634 -0.9743
 3713TIP3   OH232697   2.739   6.219   1.454 -0.4403  0.5262 -0.2176
 3713TIP3    H132698   2.832   6.208   1.434  0.1100 -0.6659  2.5639
 3713TIP3    H232699   2.695   6.156   1.398  0.4421  0.7496 -1.2026
 3714TIP3   OH232700   2.719   3.097   0.380 -0.0208  0.2817 -0.1521
 3714TIP3    H132701   2.649   3.163   0.381 -0.8586 -0.5623  1.2904
 3714TIP3    H232702   2.690   3.032   0.444  0.4953 -1.7770 -1.9076
 3715TIP3   OH232703   3.848   4.864   1.861 -0.1472  0.2884  0.0155
 3715TIP3    H132704   3.921   4.885   1.920  1.3474  0.7556 -1.8812
 3715TIP3    H232705   3.780   4.927   1.882  0.8367  1.2439  0.4379
 3716TIP3   OH232706   5.273   2.325   0.918 -0.2856 -0.0923 -0.2310
 3716TIP3    H132707   5.301   2.388   0.984 -1.8573  2.1323 -1.5625
 3716TIP3    H232708   5.224   2.259   0.967  2.1299 -0.8962  1.3106
 3717TIP3   OH232709   4.487   5.554   8.257  0.1162  0.2322  0.7006
 3717TIP3    H132710   4.427   5.628   8.271 -1.6260 -0.5850 -1.8814
 3717TIP3    H232711   4.451   5.483   8.311 -0.8119 -0.0214 -0.2372
 3718TIP3   OH232712   4.362   4.968   0.711  0.3840  0.3561  0.0247
 3718TIP3    H132713   4.449   4.997   0.685  0.3908 -0.6971 -1.2246
 3718TIP3    H232714   4.317   4.946   0.629  0.0153 -2.0159  0.7558
 3719TIP3   OH232715   5.841   5.700   1.317  0.1793 -0.7643  0.1387
 3719TIP3    H132716   5.821   5.752   1.395  0.6875  1.0075 -0.8353
 3719TIP3    H232717   5.810   5.612   1.337 -1.5275  0.0974  1.5552
 3720TIP3   OH232718   2.645   1.540   0.230  0.5625  0.4642  0.2472
 3720TIP3    H132719   2.735   1.558   0.203  0.8985  0.2989  1.2226
 3720TIP3    H232720   2.600   1.624   0.220  1.2311  0.9636  1.3222
 3721TIP3   OH232721   0.762   2.595   9.103 -0.5580 -0.6307 -0.1266
 3721TIP3    H132722   0.720   2.548   9.030  0.7567 -0.1934 -1.2081
 3721TIP3    H232723   0.707   2.673   9.115 -1.3620 -1.2146  0.0398
 3722TIP3   OH232724   6.628   3.610   0.943  0.0478 -0.7565 -0.1955
 3722TIP3    H132725   6.613   3.621   1.037  1.6841 -1.0010  0.1254
 3722TIP3    H232726   6.680   3.686   0.918 -1.9089  0.2885 -1.3348
 3723TIP3   OH232727   1.857   6.299   9.151  0.3706 -0.0694 -0.1624
 3723TIP3    H132728   1.798   6.259   9.215  0.9907 -2.2725 -0.8497
 3723TIP3    H232729   1.932   6.329   9.203 -0.0534  0.0776  0.3701
 3724TIP3   OH232730   1.407   0.137   0.740  0.4939  0.4190  0.0680
 3724TIP3    H132731   1.421   0.211   0.681  0.9826  1.1536  1.0574
 3724TIP3    H232732   1.405   0.177   0.827 -0.3848 -0.6054  0.5403
 3725TIP3   OH232733   0.151   5.898   8.036  0.8004 -0.1169 -0.1719
 3725TIP3    H132734   0.086   5.860   7.977  1.5188 -0.8961 -0.4956
 3725TIP3    H232735   0.106   5.971   8.078  0.1933  0.3040 -1.4951
 3726TIP3   OH232736   5.774   1.472   0.795 -0.0359  0.0231  0.6026
 3726TIP3    H132737   5.728   1.417   0.858  1.2867 -0.0472  1.5486
 3726TIP3    H232738   5.775   1.559   0.836 -0.4402  0.3285 -0.0096
 3727TIP3   OH232739   5.544   3.223   0.567  0.2853 -0.2626 -0.0899
 3727TIP3    H132740   5.499   3.182   0.642  0.2337 -0.2932 -0.1374
 3727TIP3    H232741   5.533   3.160   0.496 -3.2857  1.5350 -1.3410
 3728TIP3   OH232742   6.523   1.445   0.132  0.2031  0.4648  0.2973
 3728TIP3    H132743   6.470   1.441   0.211  1.0022 -0.4659  0.8131
 3728TIP3    H232744   6.470   1.494   0.070 -0.0656  2.0044  1.6874
 3729TIP3   OH232745   3.888   1.388   7.667  0.2974 -0.1285  0.2331
 3729TIP3    H132746   3.965   1.331   7.671  0.8143  0.5418  0.0080
 3729TIP3    H232747   3.845   1.365   7.584  0.1875 -0.5852  0.4157
 3730TIP3   OH232748   3.566   2.397   2.525 -0.0510 -0.0599  0.1796
 3730TIP3    H132749   3.506   2.469   2.542  0.8023  0.6404  0.3239
 3730TIP3    H232750   3.610   2.381   2.608  0.3233 -0.2196 -0.0429
 3731TIP3   OH232751   5.561   1.819   0.537  0.1083 -0.7159 -0.3400
 3731TIP3    H132752   5.572   1.725   0.522  0.8900 -0.5644 -0.7281
 3731TIP3    H232753   5.561   1.858   0.450  0.4508 -0.2804 -0.1490
 3732TIP3   OH232754   3.346   4.637   0.743  0.1767  0.4128 -0.1690
 3732TIP3    H132755   3.406   4.587   0.797  0.6422  2.2347  1.0876
 3732TIP3    H232756   3.315   4.708   0.800 -2.2266  0.2576 -1.1440
 3733TIP3   OH232757   5.575   4.382   0.871  0.3519  0.3578 -0.1539
 3733TIP3    H132758   5.668   4.401   0.858  0.2674  1.5308  0.7901
 3733TIP3    H232759   5.551   4.431   0.949 -0.9753 -0.2565 -0.1459
 3734TIP3   OH232760   0.795   1.869   8.865  0.1394  0.1633 -0.7473
 3734TIP3    H132761   0.833   1.924   8.933  0.0469  0.1131 -0.6564
 3734TIP3    H232762   0.867   1.812   8.838  1.1803  2.2760 -2.9343
 3735TIP3   OH232763   2.785   2.250   2.542 -0.3765 -0.0308  0.5973
 3735TIP3    H132764   2.853   2.227   2.605  1.3538  1.0720 -0.8071
 3735TIP3    H232765   2.713   2.283   2.597  0.0360 -1.5153  2.1314
 3736TIP3   OH232766   6.276   1.755   2.475 -0.5471 -0.2699  0.5200
 3736TIP3    H132767   6.361   1.732   2.512 -0.7014  0.4341  1.3290
 3736TIP3    H232768   6.242   1.824   2.532 -1.9295 -0.9395  0.5502
 3737TIP3   OH232769   0.935   2.168   1.404 -0.1026  0.1333 -0.0292
 3737TIP3    H132770   0.969   2.079   1.414  1.2833  0.4879 -1.2678
 3737TIP3    H232771   0.896   2.188   1.488  2.4005 -0.4916  1.3859
 3738TIP3   OH232772   4.684   2.922   0.212 -0.2677  0.4207  0.3298
 3738TIP3    H132773   4.769   2.882   0.195 -0.4707  0.3910 -0.6735
 3738TIP3    H232774   4.654   2.881   0.293  0.0720 -0.5717 -0.0290
 3739TIP3   OH232775   5.481   1.616   1.918 -0.6562  0.1470  0.1591
 3739TIP3    H132776   5.549   1.680   1.899 -1.8098  1.1326 -0.7660
 3739TIP3    H232777   5.471   1.620   2.013  2.3825 -1.9607  0.7105
 3740TIP3   OH232778   6.591   0.689   8.616  0.3793  0.6213 -0.3267
 3740TIP3    H132779   6.592   0.783   8.602 -2.8262  0.9414  0.6259
 3740TIP3    H232780   6.559   0.678   8.705  0.6079 -1.3720 -0.4299
 3741TIP3   OH232781   2.010   3.448   0.261 -0.0051  0.5935  0.4578
 3741TIP3    H132782   1.928   3.474   0.303 -0.3957 -0.0310  0.1012
 3741TIP3    H232783   2.030   3.519   0.200 -1.2717 -0.0964 -0.8064
 3742TIP3   OH232784   6.277   1.776   8.566  0.0193 -1.0906  0.5680
 3742TIP3    H132785   6.298   1.741   8.652  2.5820  0.6859  0.7707
 3742TIP3    H232786   6.310   1.711   8.505  2.6852 -0.2067  0.9555
 3743TIP3   OH232787   5.993   0.864   0.195  0.7469  0.0470 -0.0253
 3743TIP3    H132788   6.085   0.884   0.212  0.7078 -1.8957  3.4251
 3743TIP3    H232789   5.995   0.780   0.148  0.7184  0.6710 -1.1648
 3744TIP3   OH232790   5.205   0.079   2.727 -0.4370 -0.5385 -0.0980
 3744TIP3    H132791   5.290   0.036   2.719 -0.3801 -0.5352  0.4301
 3744TIP3    H232792   5.154   0.045   2.653  0.2061 -0.0906 -0.7591
 3745TIP3   OH232793   4.104   2.297   8.459  0.0690 -0.1305  0.1218
 3745TIP3    H132794   4.177   2.246   8.495  0.4158  0.3476  0.1038
 3745TIP3    H232795   4.099   2.373   8.517 -1.6854 -1.1002  1.3340
 3746TIP3   OH232796   3.614   2.343   2.221 -0.0006  0.3161  0.2298
 3746TIP3    H132797   3.607   2.310   2.311 -0.3264  0.1842  0.1571
 3746TIP3    H232798   3.531   2.318   2.180  0.0560  0.5745 -0.0422
 3747TIP3   OH232799   2.842   3.004   8.269 -0.9185 -0.3791 -0.0899
 3747TIP3    H132800   2.847   3.054   8.351 -0.0181 -1.8077  0.7781
 3747TIP3    H232801   2.836   2.913   8.297  0.2863 -0.9733 -1.6095
 3748TIP3   OH232802   5.807   5.084   0.771 -0.8609 -0.2779  0.1877
 3748TIP3    H132803   5.829   5.102   0.679 -2.3324 -1.6078 -0.4816
 3748TIP3    H232804   5.877   5.026   0.801 -1.9618 -2.4386 -1.1320
 3749TIP3   OH232805   0.983   2.205   0.502  0.4007 -0.1987  0.4244
 3749TIP3    H132806   0.903   2.215   0.450  1.2600  2.7435 -0.5586
 3749TIP3    H232807   0.983   2.113   0.529 -2.2114 -0.8212 -1.2919
 3750TIP3   OH232808   5.299   3.301   8.947 -0.2688  0.0529  0.2634
 3750TIP3    H132809   5.260   3.321   8.862 -0.4594 -0.7038  0.1650
 3750TIP3    H232810   5.379   3.355   8.950 -0.6662  0.6725 -0.0566
 3751TIP3   OH232811   0.173   5.949   8.397  0.6128  0.0726 -0.2803
 3751TIP3    H132812   0.093   5.978   8.441  0.2792  0.3515 -1.0506
 3751TIP3    H232813   0.148   5.868   8.352  1.1275 -0.5816  0.5726
 3752TIP3   OH232814   5.513   6.077   2.195 -0.9060 -0.5108  0.2580
 3752TIP3    H132815   5.423   6.111   2.194 -0.7992 -0.2277  0.0133
 3752TIP3    H232816   5.520   6.028   2.277 -1.3292 -0.6511  0.2119
 3753TIP3   OH232817   6.109   0.154   7.866  0.1745 -0.1232 -0.5442
 3753TIP3    H132818   6.099   0.200   7.783 -1.2952 -0.5356 -0.6197
 3753TIP3    H232819   6.202   0.165   7.888  0.3807  0.8061 -1.7475
 3754TIP3   OH232820   2.195   6.239   0.321  0.3592  0.6547 -0.1648
 3754TIP3    H132821   2.174   6.217   0.230  0.5522  0.7073 -0.2233
 3754TIP3    H232822   2.210   6.334   0.319 -1.4905  0.9998  0.2794
 3755TIP3   OH232823   0.028   3.437   1.595  0.2484  0.8152 -0.3616
 3755TIP3    H132824  -0.035   3.453   1.525  0.7265  0.0595 -0.9807
 3755TIP3    H232825   0.089   3.373   1.559  1.3901  1.5366  0.2110
 3756TIP3   OH232826   6.298   6.456   7.666 -0.5339 -0.2834  0.2535
 3756TIP3    H132827   6.353   6.501   7.731  2.0053 -0.1110 -1.8623
 3756TIP3    H232828   6.358   6.395   7.622 -0.7106  2.6454 -4.8780
 3757TIP3   OH232829   1.630   3.937   1.910 -0.4617 -0.1268 -0.5394
 3757TIP3    H132830   1.575   3.969   1.839 -0.2099  2.7570  0.4434
 3757TIP3    H232831   1.655   4.016   1.959  0.4455 -1.8456  1.9837
 3758TIP3   OH232832   1.641   0.039   3.375 -0.0407 -0.5267 -0.4926
 3758TIP3    H132833   1.634  -0.047   3.332  0.6914  0.1541 -2.0504
 3758TIP3    H232834   1.711   0.083   3.328 -0.4032  0.9321  0.2932
 3759TIP3   OH232835   5.482   0.354   7.253 -0.1390 -0.3336  0.0274
 3759TIP3    H132836   5.440   0.337   7.169  0.6355 -0.4559 -0.3327
 3759TIP3    H232837   5.415   0.329   7.318  0.3670 -3.3540 -0.4615
 3760TIP3   OH232838   5.032   1.001   1.004  0.2601  0.3846  0.8634
 3760TIP3    H132839   5.060   1.021   1.093  0.8484  1.5533  0.4429
 3760TIP3    H232840   5.047   0.908   0.994  1.5441  0.5004  1.5284
 3761TIP3   OH232841   1.468   4.137   7.967 -0.0279  0.1905  0.0858
 3761TIP3    H132842   1.555   4.129   8.006  0.5612 -0.2470 -1.2629
 3761TIP3    H232843   1.480   4.199   7.895 -1.0034  0.6753  0.3170
 3762TIP3   OH232844   0.707   4.857   0.130  0.1291 -0.7553 -0.3785
 3762TIP3    H132845   0.755   4.939   0.122  0.6248 -0.8441  1.2087
 3762TIP3    H232846   0.641   4.860   0.061 -1.5739  2.1575  1.1698
 3763TIP3   OH232847   1.775   5.609   2.089 -0.3345  0.4385  0.0799
 3763TIP3    H132848   1.818   5.525   2.074  1.0694  1.1475 -0.0553
 3763TIP3    H232849   1.686   5.597   2.056 -0.9355 -1.6994  2.1748
 3764TIP3   OH232850   3.915   3.916   2.181  0.1042 -0.5160  0.2227
 3764TIP3    H132851   3.983   3.960   2.232 -1.5575  1.5502  0.8015
 3764TIP3    H232852   3.936   3.938   2.090 -0.1416  0.6804  0.4432
 3765TIP3   OH232853   5.341   4.071   0.501 -0.2356 -0.1277 -0.9406
 3765TIP3    H132854   5.319   3.986   0.464 -1.0798  0.2400 -1.3090
 3765TIP3    H232855   5.264   4.096   0.551  1.2630 -1.1414  2.1389
 3766TIP3   OH232856   2.081   1.803   9.193 -0.1144 -0.3276 -0.2159
 3766TIP3    H132857   2.015   1.741   9.163 -3.0339  0.6079  3.4898
 3766TIP3    H232858   2.098   1.858   9.117 -3.0388 -1.1567 -1.6361
 3767TIP3   OH232859   3.559   1.044   8.990  0.2445  0.2488  0.3965
 3767TIP3    H132860   3.626   0.977   9.004  0.3993  0.2002 -0.4778
 3767TIP3    H232861   3.561   1.060   8.895 -1.5250 -0.3244  0.2171
 3768TIP3   OH232862   2.362   3.867   1.957  0.0682 -0.0397  0.0335
 3768TIP3    H132863   2.413   3.863   2.039  1.1728  1.4933 -0.5395
 3768TIP3    H232864   2.294   3.931   1.974  1.6159  1.9409 -0.8892
 3769TIP3   OH232865   4.389   4.118   9.057 -0.1076 -0.5711  0.1018
 3769TIP3    H132866   4.399   4.078   9.143  0.0859  1.9057  1.3153
 3769TIP3    H232867   4.307   4.082   9.023  0.8083 -3.1198  0.3607
 3770TIP3   OH232868   1.227   4.164   0.611  0.3847  0.3733 -0.1833
 3770TIP3    H132869   1.190   4.091   0.562 -2.3035 -0.9695  3.3852
 3770TIP3    H232870   1.301   4.126   0.659  3.4094  1.8147 -3.3045
 3771TIP3   OH232871   3.796   6.640   7.315 -0.1669 -0.3156 -0.2488
 3771TIP3    H132872   3.888   6.619   7.328  0.2790  0.5696 -1.7901
 3771TIP3    H232873   3.764   6.573   7.255 -1.7671 -3.3147  3.4734
 3772TIP3   OH232874   0.710   3.593   2.344 -0.6131 -0.0536  0.0983
 3772TIP3    H132875   0.735   3.685   2.359 -0.7795 -0.2518  1.8815
 3772TIP3    H232876   0.703   3.585   2.249 -0.7000  1.8097 -0.0983
 3773TIP3   OH232877   3.739   3.668   8.150  0.1249  0.2677 -0.2121
 3773TIP3    H132878   3.796   3.610   8.201  0.0153 -0.2674 -0.6788
 3773TIP3    H232879   3.666   3.687   8.209  0.5001  0.4845  0.1851
 3774TIP3   OH232880   5.468   2.698   0.517 -0.2541  0.2939 -0.4282
 3774TIP3    H132881   5.488   2.713   0.424 -1.4598  0.0486 -0.7389
 3774TIP3    H232882   5.517   2.619   0.539  0.0759  0.3765 -0.8415
 3775TIP3   OH232883   2.292   1.186   2.610  0.1347 -0.2431  0.2676
 3775TIP3    H132884   2.299   1.234   2.692 -0.1368 -0.7134  0.5730
 3775TIP3    H232885   2.269   1.097   2.637 -2.3745  0.1285 -0.4158
 3776TIP3   OH232886   2.050   2.539   2.070  0.4501  0.3430  0.3727
 3776TIP3    H132887   2.047   2.448   2.100 -0.8777  1.0106  2.4844
 3776TIP3    H232888   2.053   2.591   2.150 -1.6962  2.2454 -0.6461
 3777TIP3   OH232889   1.757   5.436   3.431 -0.7570  0.2375 -0.3397
 3777TIP3    H132890   1.678   5.417   3.483  1.1098 -1.3049  2.1641
 3777TIP3    H232891   1.829   5.401   3.484  1.6388  1.5814 -2.5168
 3778TIP3   OH232892   3.825   3.023   0.548  0.1666  0.7191 -0.5072
 3778TIP3    H132893   3.765   2.981   0.486  0.6075 -1.8589  0.6750
 3778TIP3    H232894   3.775   3.096   0.585 -0.8336  1.0089 -2.3113
 3779TIP3   OH232895   2.688   0.757   1.084  0.0171 -0.0166 -0.4889
 3779TIP3    H132896   2.721   0.820   1.019 -1.3171  1.4902  0.2361
 3779TIP3    H232897   2.620   0.805   1.131  1.4896 -0.7473  2.6049
 3780TIP3   OH232898   5.986   5.322   8.506 -0.2024  0.6638  0.1159
 3780TIP3    H132899   6.017   5.307   8.416 -0.6497  0.0934  0.0504
 3780TIP3    H232900   5.895   5.294   8.505  0.3640 -1.3957  1.2708
 3781TIP3   OH232901   0.562   1.457   2.674  0.3308  0.1753 -0.0522
 3781TIP3    H132902   0.510   1.452   2.754  0.3600 -2.2654 -0.1255
 3781TIP3    H232903   0.615   1.536   2.685 -2.4505  2.1224  0.5516
 3782TIP3   OH232904   4.560   5.124   1.918  0.0418  0.2098  0.1481
 3782TIP3    H132905   4.634   5.161   1.967  0.5339 -1.1148  0.4490
 3782TIP3    H232906   4.597   5.049   1.872 -1.2429 -0.8915  0.8292
 3783TIP3   OH232907   6.441   4.895   7.625 -0.6845 -0.5889 -0.1706
 3783TIP3    H132908   6.484   4.977   7.646 -1.4283 -0.0918 -0.5317
 3783TIP3    H232909   6.348   4.910   7.645 -0.9959 -0.9810 -1.2163
 3784TIP3   OH232910   4.710   2.012   1.398 -0.4306  0.3516 -1.0737
 3784TIP3    H132911   4.748   2.082   1.451  1.2973 -0.6239 -0.9686
 3784TIP3    H232912   4.626   2.048   1.369 -0.3483  1.8202  0.3379
 3785TIP3   OH232913   5.109   6.584   9.155 -0.2617 -0.5171  0.2367
 3785TIP3    H132914   5.126   6.595   9.061 -1.8318 -0.9750 -0.1221
 3785TIP3    H232915   5.181   6.529   9.185  0.9599  0.6676 -0.4260
 3786TIP3   OH232916   4.810   2.640   0.656  0.3263 -0.0905  0.1440
 3786TIP3    H132917   4.753   2.571   0.624 -0.0346  1.3870 -2.7943
 3786TIP3    H232918   4.892   2.629   0.607  1.2183  0.0667  1.5297
 3787TIP3   OH232919   0.361   5.221   2.968 -0.2518  0.2400  0.1177
 3787TIP3    H132920   0.335   5.240   3.058 -1.5304 -0.3209 -0.1131
 3787TIP3    H232921   0.457   5.213   2.972 -0.2593  0.5683  1.3487
 3788TIP3   OH232922   3.216   1.999   2.153 -0.2661 -0.1565  0.6741
 3788TIP3    H132923   3.225   2.093   2.139 -0.3176  0.0206  1.7155
 3788TIP3    H232924   3.188   1.991   2.244 -2.7806 -1.0685 -0.0915
 3789TIP3   OH232925   3.986   1.839   7.852  0.6637  0.0524 -0.2317
 3789TIP3    H132926   3.972   1.766   7.792  0.9036 -0.9024  0.8451
 3789TIP3    H232927   3.898   1.875   7.866  0.3597 -0.8105  0.1808
 3790TIP3   OH232928   1.066   3.329   7.974 -0.0690 -0.0269 -0.1720
 3790TIP3    H132929   1.159   3.307   7.964  0.1443  0.4746  0.5550
 3790TIP3    H232930   1.066   3.399   8.039 -0.9042  0.5197 -0.7527
 3791TIP3   OH232931   5.990   3.056   2.593  0.3611 -0.1134 -0.2450
 3791TIP3    H132932   5.957   3.093   2.675 -0.6232 -0.7693 -0.3274
 3791TIP3    H232933   6.076   3.096   2.581  0.0573  0.8127  0.5515
 3792TIP3   OH232934   2.067   2.772   7.151  0.4132  0.2626  0.2398
 3792TIP3    H132935   2.102   2.791   7.238  0.0100  0.2380  0.4069
 3792TIP3    H232936   2.145   2.765   7.095  0.8423 -2.2600  1.0598
 3793TIP3   OH232937   4.256   2.395   3.163 -0.4807  0.2911  0.7879
 3793TIP3    H132938   4.201   2.383   3.086  0.7566  1.9334 -0.4166
 3793TIP3    H232939   4.196   2.428   3.230 -1.1907  1.0435 -0.1787
 3794TIP3   OH232940   5.309   2.990   8.826  0.2363  0.0895 -0.1623
 3794TIP3    H132941   5.291   3.029   8.912 -0.6192  1.0952 -0.7736
 3794TIP3    H232942   5.315   3.065   8.767  2.0886 -0.4943 -0.7961
 3795TIP3   OH232943   6.424   0.555   0.268 -0.1655  0.0320  0.0857
 3795TIP3    H132944   6.347   0.504   0.242  0.4022 -0.8707  0.1340
 3795TIP3    H232945   6.402   0.589   0.355 -0.2524 -0.7729  0.3870
 3796TIP3   OH232946   3.231   3.679   2.526  0.0674  0.1187  0.4322
 3796TIP3    H132947   3.155   3.637   2.568 -0.4467  1.1452  0.5661
 3796TIP3    H232948   3.292   3.694   2.598 -0.4017  0.9859  0.6659
 3797TIP3   OH232949   3.330   2.183   8.990  0.3172 -0.7289  0.6148
 3797TIP3    H132950   3.285   2.265   9.011  3.2770  0.9503  0.8608
 3797TIP3    H232951   3.365   2.197   8.902  0.2172 -2.0856  0.3312
 3798TIP3   OH232952   6.209   0.131   1.458 -0.0513 -0.3255  0.2215
 3798TIP3    H132953   6.121   0.119   1.423 -0.6179 -1.6856  1.9412
 3798TIP3    H232954   6.246   0.043   1.462  0.9328  0.0923  0.6046
 3799TIP3   OH232955   0.820   3.372   1.569 -0.1595  0.5109 -0.4415
 3799TIP3    H132956   0.764   3.323   1.509  0.6912 -0.6904 -0.3016
 3799TIP3    H232957   0.793   3.463   1.559 -1.6032  0.0556 -0.9241
 3800TIP3   OH232958   5.259   4.387   7.248  0.1939  0.0647  0.2958
 3800TIP3    H132959   5.203   4.463   7.262 -1.2408 -0.2703 -2.6563
 3800TIP3    H232960   5.255   4.338   7.330 -1.8927  1.3165  1.0176
 3801TIP3   OH232961   1.088   4.810   1.702 -0.0965  0.0446  0.2001
 3801TIP3    H132962   1.060   4.857   1.781  2.3439  1.0663  0.5532
 3801TIP3    H232963   1.023   4.832   1.636 -2.0114 -0.5551  1.8023
 3802TIP3   OH232964   3.900   0.251   9.154 -0.1898  0.1522  0.0602
 3802TIP3    H132965   3.979   0.272   9.103  0.9523 -0.5175  1.4890
 3802TIP3    H232966   3.914   0.162   9.186 -1.1550  0.3124  1.0070
 3803TIP3   OH232967   6.327   5.490   2.913  0.4516 -0.0945  0.0351
 3803TIP3    H132968   6.299   5.399   2.907 -0.3690  0.2509 -2.6905
 3803TIP3    H232969   6.258   5.533   2.962 -0.8246 -0.3952 -1.4166
 3804TIP3   OH232970   4.568   1.533   1.697  0.7871 -0.5453  0.8024
 3804TIP3    H132971   4.482   1.494   1.681  0.4609  0.4277  0.0414
 3804TIP3    H232972   4.630   1.472   1.657  0.1946  0.2989 -1.5668
 3805TIP3   OH232973   2.209   3.257   8.247  0.3247 -0.0913  0.2764
 3805TIP3    H132974   2.233   3.346   8.271  0.1253  0.2897 -0.9028
 3805TIP3    H232975   2.287   3.222   8.204  0.4330 -0.5208  0.8155
 3806TIP3   OH232976   1.332   5.075   0.877 -0.0382  0.3495 -0.4040
 3806TIP3    H132977   1.379   5.013   0.822 -0.0740 -1.2124  1.2196
 3806TIP3    H232978   1.402   5.127   0.918  0.0641  0.5032 -0.7674
 3807TIP3   OH232979   2.242   3.182   9.132  0.2493 -0.6097  0.4272
 3807TIP3    H132980   2.266   3.215   9.219 -0.8606 -0.2219  0.5993
 3807TIP3    H232981   2.263   3.253   9.073  0.2394 -0.5589  0.4849
 3808TIP3   OH232982   0.282   5.245   1.238 -0.0316  0.3516 -0.4147
 3808TIP3    H132983   0.236   5.182   1.293 -0.0007  1.7540  1.3407
 3808TIP3    H232984   0.257   5.223   1.149 -4.4675  1.2047  0.3640
 3809TIP3   OH232985   2.152   0.115   1.079  0.0652  0.0033  0.4555
 3809TIP3    H132986   2.162   0.099   0.985 -0.3207  1.1677  0.1988
 3809TIP3    H232987   2.236   0.088   1.116  0.5086  0.2559 -0.3301
 3810TIP3   OH232988   2.090   2.468   0.220 -0.0344 -0.7162  0.0244
 3810TIP3    H132989   2.175   2.504   0.195 -0.2065 -0.9852 -0.9705
 3810TIP3    H232990   2.097   2.457   0.315  0.3479  1.0299  0.2342
 3811TIP3   OH232991   1.169   2.583   9.002 -0.7349  0.3894  0.3075
 3811TIP3    H132992   1.222   2.663   9.007 -1.1569  0.6630  0.3819
 3811TIP3    H232993   1.088   2.610   8.959 -0.1218 -0.3846 -1.4767
 3812TIP3   OH232994   1.215   6.055   0.070  0.5345 -0.1528  0.0223
 3812TIP3    H132995   1.166   5.998   0.012  1.2091  0.0586 -0.7724
 3812TIP3    H232996   1.252   5.996   0.136  0.0454 -0.4387  0.0452
 3813TIP3   OH232997   5.759   5.193   8.413  0.0903  0.2613  0.9496
 3813TIP3    H132998   5.666   5.175   8.426  0.1422 -0.9275 -0.1207
 3813TIP3    H232999   5.794   5.112   8.375  1.1136  1.4417 -0.7339
 3814TIP3   OH233000   1.575   6.388   8.737  0.3924 -0.5051 -0.0514
 3814TIP3    H133001   1.668   6.401   8.754  0.3799  0.4450 -0.5889
 3814TIP3    H233002   1.548   6.320   8.798  0.5904  1.8756  2.9119
 3815TIP3   OH233003   2.873   1.206   3.054  0.2157 -0.3054 -0.3084
 3815TIP3    H133004   2.779   1.221   3.062  0.3765  2.8994 -2.4735
 3815TIP3    H233005   2.913   1.267   3.116  0.8760  0.0798 -1.0877
 3816TIP3   OH233006   5.274   4.542   1.241  0.2444 -0.2870 -0.3475
 3816TIP3    H133007   5.227   4.624   1.252 -0.8594 -0.8608 -0.6229
 3816TIP3    H233008   5.306   4.520   1.329 -0.4762 -0.1554 -0.0465
 3817TIP3   OH233009   0.780   0.950   2.675  0.0892 -0.1343  0.0782
 3817TIP3    H133010   0.735   0.866   2.682 -1.6766  0.6808 -0.9071
 3817TIP3    H233011   0.788   0.966   2.581 -1.2034  1.5930  0.2153
 3818TIP3   OH233012   1.357   0.834   7.911 -0.4584 -0.0222  0.3524
 3818TIP3    H133013   1.344   0.919   7.870  0.9694  0.0517  0.0015
 3818TIP3    H233014   1.337   0.771   7.841  0.9376  0.0848 -0.1642
 3819TIP3   OH233015   5.598   2.799   1.747  0.2106 -0.1421 -0.0618
 3819TIP3    H133016   5.659   2.726   1.733 -0.0968 -0.3134 -0.5481
 3819TIP3    H233017   5.627   2.866   1.686 -0.6474 -0.5842 -1.0013
 3820TIP3   OH233018   6.313   3.935   0.058 -0.2253 -0.0528  0.2319
 3820TIP3    H133019   6.250   3.999   0.025 -1.4004 -0.7955  0.9456
 3820TIP3    H233020   6.373   3.920  -0.015 -0.7409  0.8538 -0.3896
 3821TIP3   OH233021   4.623   0.496   0.442  0.6528 -0.3446  0.0588
 3821TIP3    H133022   4.627   0.412   0.396  1.5327 -0.6700  0.6883
 3821TIP3    H233023   4.715   0.521   0.454  0.5873 -1.0914  3.0145
 3822TIP3   OH233024   6.053   6.535   8.624 -0.1797  0.3813 -0.1076
 3822TIP3    H133025   5.969   6.568   8.593  0.8154  3.4280  0.0661
 3822TIP3    H233026   6.046   6.536   8.719 -0.0413  0.4157 -0.0975
 3823TIP3   OH233027   1.843   5.562   1.535 -0.1933 -0.8036 -0.7815
 3823TIP3    H133028   1.861   5.619   1.610  1.0424 -1.3732 -0.6353
 3823TIP3    H233029   1.852   5.473   1.570 -0.3615 -1.0793 -1.4359
 3824TIP3   OH233030   6.586   3.960   3.083  0.2292 -0.1327 -0.4937
 3824TIP3    H133031   6.626   3.949   3.170 -0.6138  0.1306 -0.0637
 3824TIP3    H233032   6.579   3.871   3.048 -1.8251 -0.5650  0.8219
 3825TIP3   OH233033   5.012   0.784   0.496 -0.0325 -0.3896  0.0818
 3825TIP3    H133034   4.972   0.710   0.450 -1.7697  0.9133 -0.5995
 3825TIP3    H233035   4.998   0.859   0.438 -3.0500  1.5350  2.9145
 3826TIP3   OH233036   4.303   4.884   0.422 -0.8137  0.6252 -0.1742
 3826TIP3    H133037   4.225   4.831   0.404 -0.1819 -0.4083  0.0094
 3826TIP3    H233038   4.376   4.824   0.406 -0.0785  1.4245  0.1461
 3827TIP3   OH233039   2.733   4.752   8.250 -0.0795 -0.0032 -0.5033
 3827TIP3    H133040   2.800   4.726   8.314 -0.5416  2.4095  1.0932
 3827TIP3    H233041   2.780   4.753   8.166  0.8851 -1.9627 -0.0573
 3828TIP3   OH233042   4.766   1.446   3.203 -0.3981  1.1656  0.1651
 3828TIP3    H133043   4.731   1.521   3.155 -1.4003  1.3824  1.2141
 3828TIP3    H233044   4.690   1.405   3.243  0.0570 -0.7477 -0.8144
 3829TIP3   OH233045   3.646   3.574   0.299 -0.4603  0.3829  0.9113
 3829TIP3    H133046   3.639   3.555   0.205  1.0647 -0.1528  0.8872
 3829TIP3    H233047   3.724   3.629   0.306  0.2982 -0.7955  2.0266
 3830TIP3   OH233048   1.463   0.974   2.870  0.2838 -0.2158 -0.2787
 3830TIP3    H133049   1.427   0.887   2.889 -1.8660  0.4064 -1.1979
 3830TIP3    H233050   1.386   1.028   2.849  1.5010  2.0483  0.6991
 3831TIP3   OH233051   6.307   6.515   1.416 -0.1852 -0.0520 -0.3635
 3831TIP3    H133052   6.351   6.533   1.333 -0.0907  0.4048 -0.2221
 3831TIP3    H233053   6.364   6.453   1.460 -1.0818 -1.6254 -1.3414
 3832TIP3   OH233054   2.699   2.334   8.803  0.4611 -0.1674 -0.9960
 3832TIP3    H133055   2.651   2.259   8.769 -1.0992  0.2870  0.0745
 3832TIP3    H233056   2.632   2.390   8.843  1.8955  0.3952  0.7809
 3833TIP3   OH233057   3.710   1.606   0.010 -0.0877 -0.1934  0.4620
 3833TIP3    H133058   3.736   1.659  -0.065  0.9387 -1.7921 -0.3884
 3833TIP3    H233059   3.664   1.531  -0.029  1.9808 -1.9603  1.2048
 3834TIP3   OH233060   2.368   1.309   7.694  0.4638 -0.0793  0.4846
 3834TIP3    H133061   2.407   1.393   7.719 -0.5410  0.6041 -0.1739
 3834TIP3    H233062   2.433   1.269   7.637  0.8763  0.3243  0.6610
 3835TIP3   OH233063   4.918   5.688   3.039  0.2516 -0.4764 -0.3325
 3835TIP3    H133064   4.915   5.652   3.128 -2.3125  1.5170  0.5346
 3835TIP3    H233065   4.943   5.614   2.984  1.6980 -1.8431  1.9859
 3836TIP3   OH233066   3.121   6.474   1.134 -0.2350  0.2878  0.2017
 3836TIP3    H133067   3.167   6.422   1.067  0.8791  0.8852  0.4816
 3836TIP3    H233068   3.050   6.517   1.086 -0.3519 -0.4299 -0.2957
 3837TIP3   OH233069   1.242   0.488   8.513 -0.0793 -0.5449  0.6977
 3837TIP3    H133070   1.192   0.518   8.590  0.5844  1.8415  0.2990
 3837TIP3    H233071   1.176   0.469   8.447 -0.6298 -2.0877  1.6394
 3838TIP3   OH233072   5.678   4.404   0.242 -0.0524 -0.2234 -0.3660
 3838TIP3    H133073   5.595   4.450   0.254 -0.6071 -0.9690 -1.2119
 3838TIP3    H233074   5.656   4.311   0.249  1.1441 -0.4074  1.8644
 3839TIP3   OH233075   0.462   3.736   0.904  0.1297  0.5920  0.0231
 3839TIP3    H133076   0.475   3.817   0.854 -0.6288  1.0727  0.5673
 3839TIP3    H233077   0.373   3.744   0.938  0.7423  0.4314  1.7269
 3840TIP3   OH233078   5.510   4.463   8.133  0.4002  0.2519 -0.7998
 3840TIP3    H133079   5.549   4.548   8.153  0.0834 -0.4849  3.9970
 3840TIP3    H233080   5.416   4.475   8.148  0.2049 -0.7184 -1.1266
 3841TIP3   OH233081   1.541   1.444   2.496 -0.4471  0.5182  0.5524
 3841TIP3    H133082   1.537   1.384   2.570 -0.7202  0.2342  0.3102
 3841TIP3    H233083   1.464   1.500   2.506  0.7303  2.0071  1.7604
 3842TIP3   OH233084   3.675   3.709   2.409  0.5339 -0.4013  0.1637
 3842TIP3    H133085   3.622   3.629   2.409  0.6918 -0.5253  1.1155
 3842TIP3    H233086   3.750   3.688   2.355  1.0809 -1.2740  1.2120
 3843TIP3   OH233087   4.583   1.626   8.825 -0.4005  0.4804  0.1243
 3843TIP3    H133088   4.572   1.551   8.884  0.3106 -0.0594 -0.3987
 3843TIP3    H233089   4.512   1.617   8.761  0.0056 -0.0797 -0.2629
 3844TIP3   OH233090   6.491   2.656   1.361 -0.0103 -0.1890 -0.2865
 3844TIP3    H133091   6.422   2.716   1.389 -1.1834 -1.3219 -0.6553
 3844TIP3    H233092   6.565   2.713   1.340 -0.4820  0.9718  1.0968
 3845TIP3   OH233093   3.325   0.741   7.997  0.0482  0.1997 -0.3222
 3845TIP3    H133094   3.325   0.794   7.917 -1.5892  1.3265  0.3865
 3845TIP3    H233095   3.395   0.677   7.983 -0.3277  0.2361 -2.7376
 3846TIP3   OH233096   1.165   1.309   7.970 -0.2836 -0.8522 -0.2269
 3846TIP3    H133097   1.100   1.372   8.002 -0.4562 -2.3806  2.7639
 3846TIP3    H233098   1.124   1.270   7.893 -1.8634 -0.0579  0.1572
 3847TIP3   OH233099   2.191   5.438   0.236 -0.1485 -0.0689 -0.0572
 3847TIP3    H133100   2.100   5.446   0.207  0.0544  0.2525 -0.6230
 3847TIP3    H233101   2.242   5.450   0.156  0.4431  1.2312  0.4989
 3848TIP3   OH233102   6.083   6.402   1.291  0.1479 -0.1204  0.9503
 3848TIP3    H133103   6.151   6.373   1.229 -0.6133  0.6370 -0.2842
 3848TIP3    H233104   6.132   6.442   1.363  1.0691  2.7490 -1.0747
 3849TIP3   OH233105   2.865   2.237   1.422 -0.0485  0.0648 -0.0891
 3849TIP3    H133106   2.884   2.182   1.346 -0.8459 -0.3271 -0.0113
 3849TIP3    H233107   2.770   2.240   1.427 -0.0134  1.0520  0.2071
 3850TIP3   OH233108   0.973   0.245   0.764  0.6359 -0.1951  0.2049
 3850TIP3    H133109   0.973   0.156   0.797  0.1366  0.1307  1.1389
 3850TIP3    H233110   0.931   0.296   0.834  0.4391  0.6797 -0.5305
 3851TIP3   OH233111   1.755   4.506   1.007 -0.2403 -0.6046  0.1307
 3851TIP3    H133112   1.703   4.549   1.075  0.9006 -0.1058  0.6966
 3851TIP3    H233113   1.835   4.479   1.051  1.2320  1.1295 -1.3435
 3852TIP3   OH233114   0.858   1.654   2.412  0.3325 -0.2939  0.5866
 3852TIP3    H133115   0.817   1.740   2.418 -0.9338 -0.7765 -0.5695
 3852TIP3    H233116   0.785   1.593   2.409  1.0448 -1.1642 -2.0434
 3853TIP3   OH233117   5.730   2.276   2.127 -0.3744 -0.0990 -0.2799
 3853TIP3    H133118   5.635   2.287   2.123 -0.3584 -0.2288 -1.9262
 3853TIP3    H233119   5.743   2.183   2.146 -0.5624  0.0345  0.5338
 3854TIP3   OH233120   5.112   1.856   7.080 -0.2372 -0.7829 -0.4044
 3854TIP3    H133121   5.050   1.803   7.129  0.5296 -1.1043  0.2516
 3854TIP3    H233122   5.161   1.793   7.027  0.0445 -0.6272 -0.3329
 3855TIP3   OH233123   4.221   4.446   0.560 -0.3363 -0.1406 -0.6928
 3855TIP3    H133124   4.228   4.366   0.613  0.0693 -0.4684 -1.2243
 3855TIP3    H233125   4.305   4.452   0.515  0.0891  1.2586  0.2498
 3856TIP3   OH233126   3.797   5.292   2.055 -0.4518 -0.4081  0.1734
 3856TIP3    H133127   3.702   5.278   2.059 -0.2842 -2.2572 -1.1527
 3856TIP3    H233128   3.807   5.381   2.022 -1.7281 -0.2933  0.0608
 3857TIP3   OH233129   2.340   4.520   1.334 -0.4479 -0.1778  0.2455
 3857TIP3    H133130   2.298   4.582   1.274  0.1926 -0.2394 -0.2730
 3857TIP3    H233131   2.292   4.531   1.416 -0.3900  0.9603  0.1458
 3858TIP3   OH233132   3.220   2.966   7.539 -0.0575  0.4708 -0.6711
 3858TIP3    H133133   3.136   2.955   7.585  0.0948 -0.3207 -0.5654
 3858TIP3    H233134   3.223   2.892   7.478 -0.0300  1.2343 -1.6112
 3859TIP3   OH233135   3.098   3.912   8.091  0.2959 -0.3460 -0.3168
 3859TIP3    H133136   3.080   3.914   8.185  0.0451 -2.2797 -0.2857
 3859TIP3    H233137   3.058   3.992   8.057 -1.5892 -0.7152  0.8956
 3860TIP3   OH233138   5.413   5.250   8.758 -0.0357 -0.1018 -0.1165
 3860TIP3    H133139   5.334   5.302   8.744  0.6692  0.9193 -0.3944
 3860TIP3    H233140   5.390   5.162   8.727 -0.8792  0.3312 -0.7452
 3861TIP3   OH233141   6.110   6.256   3.278 -0.0825 -0.1915 -0.2104
 3861TIP3    H133142   6.110   6.175   3.330 -0.1087 -0.6357 -0.8863
 3861TIP3    H233143   6.043   6.242   3.211 -1.6807  1.2947  0.9916
 3862TIP3   OH233144   3.843   2.153   1.928  0.0145 -0.7480  0.0290
 3862TIP3    H133145   3.857   2.217   1.858 -0.7424 -0.5192  0.0794
 3862TIP3    H233146   3.749   2.159   1.947  0.2441 -0.6672  1.2004
 3863TIP3   OH233147   1.073   5.169   0.873 -0.3484  0.4480 -0.3511
 3863TIP3    H133148   1.042   5.095   0.927 -1.4227  1.6632  0.7728
 3863TIP3    H233149   1.168   5.166   0.882 -0.3826 -0.6587 -0.1476
 3864TIP3   OH233150   4.193   6.501   0.162 -0.0487  0.3079 -0.3794
 3864TIP3    H133151   4.194   6.592   0.131 -0.4787  0.4964  0.1406
 3864TIP3    H233152   4.285   6.477   0.169  0.1410  1.3848  1.3921
 3865TIP3   OH233153   5.478   0.002   1.953  0.5856 -0.0226 -0.6596
 3865TIP3    H133154   5.542   0.060   1.911  0.5102 -0.1108 -0.9036
 3865TIP3    H233155   5.448   0.050   2.030  1.0802 -0.0545 -0.4401
 3866TIP3   OH233156   1.870   4.506   2.546  0.7446  1.0213  0.3525
 3866TIP3    H133157   1.946   4.448   2.541  1.0537  1.2673  1.8055
 3866TIP3    H233158   1.810   4.462   2.605  0.1802  1.3248  0.0195
 3867TIP3   OH233159   0.384   2.140   2.311  0.6873  0.3358  0.2474
 3867TIP3    H133160   0.368   2.065   2.368  0.2285 -0.9801 -1.5217
 3867TIP3    H233161   0.462   2.116   2.261 -0.4997  0.1486 -1.6382
 3868TIP3   OH233162   4.896   0.084   1.677  0.4155  0.7321 -0.0975
 3868TIP3    H133163   4.983   0.091   1.638  1.0391 -0.1758  1.0808
 3868TIP3    H233164   4.836   0.087   1.602  1.5830 -1.7637 -1.2542
 3869TIP3   OH233165   2.307   0.164   8.486 -0.1822 -0.2219  0.0657
 3869TIP3    H133166   2.390   0.178   8.441 -0.5175  0.6548 -0.3078
 3869TIP3    H233167   2.326   0.178   8.578  0.1231 -0.2164  0.0015
 3870TIP3   OH233168   1.602   4.330   0.359  1.1908  0.1462  0.0243
 3870TIP3    H133169   1.525   4.345   0.304  1.5578 -1.7812 -1.1099
 3870TIP3    H233170   1.662   4.401   0.337  0.0701  1.2255  0.3454
 3871TIP3   OH233171   1.937   0.501   8.223  0.6477  0.5579  0.2687
 3871TIP3    H133172   1.983   0.537   8.298  1.0068  1.9038 -0.5753
 3871TIP3    H233173   1.850   0.541   8.226 -0.1280 -1.1044  1.2103
 3872TIP3   OH233174   0.464   0.379   3.347 -0.0327 -0.5705 -0.0069
 3872TIP3    H133175   0.469   0.429   3.265  0.6784  0.3237  0.5596
 3872TIP3    H233176   0.539   0.410   3.398 -0.0420 -1.6539  0.6897
 3873TIP3   OH233177   1.707   6.003   0.878 -0.0801  0.6930  0.4109
 3873TIP3    H133178   1.794   5.999   0.838 -0.2219 -0.7081  0.2059
 3873TIP3    H233179   1.717   6.068   0.948  0.9683  0.9757  0.0263
 3874TIP3   OH233180   1.197   5.371   8.410  0.3934 -0.1017 -0.6736
 3874TIP3    H133181   1.120   5.425   8.389 -0.1100 -1.0123 -1.2114
 3874TIP3    H233182   1.198   5.366   8.506  0.4982  0.9138 -0.6043
 3875TIP3   OH233183   5.243   3.636   0.996  0.1869 -0.1551 -0.1449
 3875TIP3    H133184   5.163   3.613   0.949 -0.3207 -0.6661  0.9544
 3875TIP3    H233185   5.277   3.553   1.028 -0.3010  0.3199  1.6963
 3876TIP3   OH233186   1.016   0.969   1.088  0.5637  0.2710  0.7286
 3876TIP3    H133187   1.088   0.907   1.100 -0.5787 -1.0915  0.6575
 3876TIP3    H233188   1.044   1.047   1.136  1.4196 -0.7709  1.9941
 3877TIP3   OH233189   1.021   0.305   1.629  0.4669 -0.2604  0.1227
 3877TIP3    H133190   1.014   0.253   1.709 -0.2166 -1.2576 -0.5569
 3877TIP3    H233191   1.006   0.395   1.657 -0.2198 -0.6489  1.0456
 3878TIP3   OH233192   3.681   0.709   1.881  0.0433  0.1541 -0.1539
 3878TIP3    H133193   3.594   0.748   1.888 -0.5187 -1.1209  0.2964
 3878TIP3    H233194   3.664   0.619   1.854  1.0259 -0.8523  2.3029
 3879TIP3   OH233195   5.783   2.512   2.028  0.0004 -0.3327  0.5848
 3879TIP3    H133196   5.761   2.428   2.070 -0.0877 -1.4930 -1.6251
 3879TIP3    H233197   5.699   2.558   2.022 -0.6386 -1.5987 -1.1979
 3880TIP3   OH233198   5.989   0.713   9.023  0.1718 -0.2978  0.5276
 3880TIP3    H133199   5.983   0.753   8.936 -0.6331  0.3687  0.8816
 3880TIP3    H233200   5.912   0.745   9.070 -0.9797 -2.8768  0.5878
 3881TIP3   OH233201   1.661   5.480   0.444 -0.2342 -0.2087 -0.8234
 3881TIP3    H133202   1.748   5.519   0.447 -0.3390 -0.0288  0.4704
 3881TIP3    H233203   1.659   5.431   0.362  0.6545  0.7541 -1.4378
 3882TIP3   OH233204   2.890   6.032   2.060 -1.3685 -0.4873 -0.3262
 3882TIP3    H133205   2.795   6.034   2.063 -1.3638 -0.8160  0.4772
 3882TIP3    H233206   2.918   6.114   2.100 -1.3082  0.0904 -1.5193
 3883TIP3   OH233207   3.549   5.283   2.369 -0.0222  0.7041  0.4183
 3883TIP3    H133208   3.637   5.247   2.381 -0.7629 -0.8666  1.4268
 3883TIP3    H233209   3.551   5.366   2.417  0.1298 -0.6475  2.8865
 3884TIP3   OH233210   3.379   4.720   0.495  0.6864  0.1366  0.5027
 3884TIP3    H133211   3.365   4.675   0.579 -0.8101  0.2083  0.3183
 3884TIP3    H233212   3.318   4.678   0.435  0.1467  1.5670  0.0137
 3885TIP3   OH233213   2.748   0.297   1.052 -0.3420  0.3794  0.1991
 3885TIP3    H133214   2.716   0.339   0.972  2.0777  0.7044 -0.6775
 3885TIP3    H233215   2.711   0.209   1.049  1.1768 -0.2785 -2.3563
 3886TIP3   OH233216   0.172   2.738   0.256 -0.1314  0.4539 -0.1475
 3886TIP3    H133217   0.171   2.658   0.307 -0.0257  0.3660 -0.2831
 3886TIP3    H233218   0.236   2.722   0.187  2.3811  1.8257  1.7149
 3887TIP3   OH233219   1.111   3.985   1.072 -0.2697  0.3692  0.4288
 3887TIP3    H133220   1.059   3.920   1.120 -1.1159  1.2311  0.7099
 3887TIP3    H233221   1.169   4.023   1.139 -0.9602  1.0764  0.6453
 3888TIP3   OH233222   4.381   1.250   9.288 -0.4115  0.1851  0.4720
 3888TIP3    H133223   4.393   1.345   9.296 -1.8067  0.3335  0.9944
 3888TIP3    H233224   4.305   1.240   9.231 -0.3472 -0.6341  0.5187
 3889TIP3   OH233225   5.813   6.641   8.539 -0.3805 -0.1637 -0.3274
 3889TIP3    H133226   5.790   6.711   8.478 -1.6470 -1.9788 -2.0407
 3889TIP3    H233227   5.760   6.567   8.511 -1.0098 -1.1091  3.0279
 3890TIP3   OH233228   1.631   4.115   3.120 -0.1922 -0.6787  0.5817
 3890TIP3    H133229   1.645   4.170   3.042  1.3169 -2.3365 -0.3902
 3890TIP3    H233230   1.719   4.100   3.154 -0.6581 -1.7197  1.3669
 3891TIP3   OH233231   6.614   4.309   1.739 -0.4664  0.1689 -0.1415
 3891TIP3    H133232   6.596   4.215   1.750 -1.2811  0.1552 -1.4059
 3891TIP3    H233233   6.540   4.352   1.781  0.3596  0.2839  1.2381
 3892TIP3   OH233234   1.914   5.490   0.197  0.5726 -0.0364  0.0762
 3892TIP3    H133235   1.877   5.549   0.131  2.4189 -0.7269 -1.6960
 3892TIP3    H233236   1.852   5.417   0.200 -0.8659  1.1441  1.0818
 3893TIP3   OH233237   5.114   5.293   8.703  0.1295  0.1324 -0.0641
 3893TIP3    H133238   5.110   5.337   8.788 -1.2617 -1.2713  0.6428
 3893TIP3    H233239   5.088   5.203   8.721 -0.8734 -0.0437 -2.0922
 3894TIP3   OH233240   4.369   4.058   0.915 -0.1032 -0.0407  0.5246
 3894TIP3    H133241   4.400   3.968   0.925  2.1402  0.7829  1.8033
 3894TIP3    H233242   4.424   4.095   0.846  0.7505  1.0057  1.7130
 3895TIP3   OH233243   3.110   5.024   9.154  0.0062 -0.5064  0.0233
 3895TIP3    H133244   3.165   5.097   9.184  0.1175  0.2422 -1.8290
 3895TIP3    H233245   3.085   5.049   9.064 -2.9745 -1.0547  0.6005
 3896TIP3   OH233246   4.773   0.344   2.689 -0.4755  0.2917  0.1304
 3896TIP3    H133247   4.782   0.271   2.749 -0.6083  1.1374  1.2204
 3896TIP3    H233248   4.695   0.391   2.719 -0.2389  1.0314 -0.3614
 3897TIP3   OH233249   5.939   0.037   1.404  0.5383 -0.3404  0.3803
 3897TIP3    H133250   5.952  -0.010   1.487 -0.8905 -0.2304  0.6850
 3897TIP3    H233251   5.875  -0.015   1.356 -0.0069  0.5371  0.1250
 3898TIP3   OH233252   6.226   2.262   0.334 -0.7525 -0.5611  0.3366
 3898TIP3    H133253   6.230   2.349   0.372 -1.1101 -1.1310  1.7455
 3898TIP3    H233254   6.299   2.215   0.375  3.2439  0.5194 -4.5446
 3899TIP3   OH233255   4.665   6.280   2.540  0.2614  0.3589 -0.3364
 3899TIP3    H133256   4.728   6.251   2.605  1.2086  1.6582 -0.6339
 3899TIP3    H233257   4.612   6.202   2.521  2.0014 -0.8715 -0.3403
 3900TIP3   OH233258   4.403   4.013   2.423  0.6633  0.3255 -0.4670
 3900TIP3    H133259   4.451   4.093   2.441  1.6701 -0.1760 -0.8678
 3900TIP3    H233260   4.434   3.951   2.489 -2.4039  1.0917  1.9397
 3901TIP3   OH233261   2.357   4.030   1.053  0.0374  0.4982 -0.1798
 3901TIP3    H133262   2.378   4.078   0.972  0.5705 -0.0152 -0.3539
 3901TIP3    H233263   2.262   4.036   1.060 -0.1242 -0.3017 -1.3868
 3902TIP3   OH233264   3.293   0.103   2.604  0.4979  0.2435 -0.4879
 3902TIP3    H133265   3.216   0.158   2.618 -0.5313 -0.9849 -1.1230
 3902TIP3    H233266   3.262   0.014   2.618  2.1221 -0.2028  0.4679
 3903TIP3   OH233267   5.379   0.814   8.201 -0.6973  0.5208 -0.1962
 3903TIP3    H133268   5.291   0.784   8.180 -0.9693 -0.3306  1.9619
 3903TIP3    H233269   5.368   0.903   8.235 -0.4488  1.2141 -1.8229
 3904TIP3   OH233270   0.138   3.249   1.422 -0.2536 -0.0311  0.2435
 3904TIP3    H133271   0.050   3.239   1.386 -0.3997 -0.1639  0.6332
 3904TIP3    H233272   0.157   3.164   1.461 -0.4144  0.3625  1.1847
 3905TIP3   OH233273   0.016   5.650   2.646  0.0811 -0.3516  0.3711
 3905TIP3    H133274   0.060   5.578   2.601  0.7946 -0.1802  0.7943
 3905TIP3    H233275   0.085   5.696   2.692 -0.6629 -0.6593  1.8487
 3906TIP3   OH233276   3.016   2.441   1.316 -0.5184 -0.9811  1.0592
 3906TIP3    H133277   2.988   2.418   1.228  2.4244 -2.1970  0.2868
 3906TIP3    H233278   2.995   2.364   1.369  1.1383 -1.8736  0.4947
 3907TIP3   OH233279   0.693   4.323   7.577  0.2842 -0.4753 -0.2717
 3907TIP3    H133280   0.715   4.297   7.487 -1.0167 -0.5113 -0.5899
 3907TIP3    H233281   0.687   4.419   7.573  1.6867 -0.3408  0.1362
 3908TIP3   OH233282   6.263   5.283   0.758 -0.1380  0.0687  0.1882
 3908TIP3    H133283   6.255   5.335   0.678 -0.2525 -0.6031 -0.2475
 3908TIP3    H233284   6.267   5.348   0.829  2.6146  0.7882 -0.5225
 3909TIP3   OH233285   2.021   3.005   1.140  0.5094  0.0668 -0.4142
 3909TIP3    H133286   2.022   2.932   1.202  1.3807 -0.0443 -0.5415
 3909TIP3    H233287   1.982   3.078   1.189 -0.6675 -0.5559 -0.3898
 3910TIP3   OH233288   0.332   0.342   0.064  0.8351  0.8999 -0.4969
 3910TIP3    H133289   0.239   0.334   0.082  0.8290 -0.3191 -0.9392
 3910TIP3    H233290   0.358   0.424   0.105  0.2594 -0.2895  2.5242
 3911TIP3   OH233291   2.019   5.226   0.841 -0.4865 -0.3261  0.1799
 3911TIP3    H133292   2.075   5.236   0.764  0.5881  0.8763  1.0723
 3911TIP3    H233293   1.937   5.270   0.816  0.3357  1.2638  0.1735
 3912TIP3   OH233294   2.124   2.155   0.836 -0.4290  0.1086 -0.2312
 3912TIP3    H133295   2.166   2.232   0.799  0.0048 -0.5364 -1.1030
 3912TIP3    H233296   2.196   2.093   0.849 -0.5336  0.3346  1.8098
 3913TIP3   OH233297   0.506   6.459   0.036 -0.2509  0.2474 -0.1634
 3913TIP3    H133298   0.583   6.404   0.048 -0.7723 -0.6299 -0.7332
 3913TIP3    H233299   0.499   6.508   0.118 -0.3674 -1.3062  0.7968
 3914TIP3   OH233300   0.450   2.331   8.539  0.3635  0.5430  0.4238
 3914TIP3    H133301   0.438   2.426   8.548  0.4839  0.7455 -1.1933
 3914TIP3    H233302   0.361   2.297   8.525  0.5495  0.8125 -1.8006
 3915TIP3   OH233303   0.276   4.854   2.312 -0.3447 -0.4612 -1.3899
 3915TIP3    H133304   0.284   4.781   2.372 -1.2226  1.1089  0.7734
 3915TIP3    H233305   0.365   4.869   2.280  1.3182  1.4557  3.1950
 3916TIP3   OH233306   2.486   6.266   0.778 -0.0697 -0.1703  0.0906
 3916TIP3    H133307   2.483   6.189   0.836 -1.3352 -0.6699 -0.6166
 3916TIP3    H233308   2.408   6.316   0.801  1.8587  2.1729  2.1565
 3917TIP3   OH233309   1.579   1.867   8.847 -0.0225  0.2687  0.2391
 3917TIP3    H133310   1.499   1.917   8.833 -0.5407 -0.1295  1.6300
 3917TIP3    H233311   1.554   1.798   8.908  1.3193 -0.0088  0.5085
 3918TIP3   OH233312   2.281   0.473   1.661  0.1817 -0.1584  0.1759
 3918TIP3    H133313   2.335   0.524   1.601 -1.2153  1.2548  0.0737
 3918TIP3    H233314   2.191   0.498   1.640 -0.4546 -1.3247  1.3561
 3919TIP3   OH233315   0.366   3.901   7.401  0.4139  0.4414  0.0022
 3919TIP3    H133316   0.399   3.849   7.474 -2.9253 -2.0153 -0.0055
 3919TIP3    H233317   0.427   3.884   7.330  0.8741 -1.4373  0.7860
 3920TIP3   OH233318   5.672   0.494   1.843  0.2851 -0.1735  0.2860
 3920TIP3    H133319   5.641   0.556   1.777  0.7196 -1.1831 -0.9305
 3920TIP3    H233320   5.754   0.531   1.875  0.0816  0.3187  0.2342
 3921TIP3   OH233321   6.387   4.194   8.612 -0.2537 -0.0123  0.1482
 3921TIP3    H133322   6.402   4.182   8.706 -0.3024 -0.7277  0.0737
 3921TIP3    H233323   6.355   4.108   8.582 -0.9270  0.4101 -0.3877
 3922TIP3   OH233324   3.648   3.140   0.876 -0.9402 -0.0723 -1.1680
 3922TIP3    H133325   3.676   3.148   0.967 -1.0982  1.6690 -1.2446
 3922TIP3    H233326   3.569   3.086   0.881  0.9018 -2.9272 -0.6942
 3923TIP3   OH233327   0.332   3.087   8.108 -0.1119  0.0980  0.2461
 3923TIP3    H133328   0.359   3.166   8.060 -1.1317  0.8743  0.8994
 3923TIP3    H233329   0.279   3.038   8.045  0.0572  0.2064  0.0148
 3924TIP3   OH233330   2.027   2.142   1.081  0.1041 -0.3591  0.0559
 3924TIP3    H133331   2.088   2.195   1.131 -1.9090  2.2022 -0.0303
 3924TIP3    H233332   2.045   2.163   0.990 -0.8808  0.4807  0.0301
 3925TIP3   OH233333   2.709   5.255   2.275  0.3702 -0.2134  0.3001
 3925TIP3    H133334   2.766   5.311   2.221  2.0584  0.8167  2.9442
 3925TIP3    H233335   2.624   5.260   2.232  1.6658  0.1651 -2.4719
 3926TIP3   OH233336   3.431   6.242   1.825  0.0453 -0.2985 -0.3710
 3926TIP3    H133337   3.419   6.147   1.828 -1.3907 -0.1039  0.7591
 3926TIP3    H233338   3.407   6.265   1.735 -0.7730 -0.8591 -0.3073
 3927TIP3   OH233339   4.565   4.696   7.479  0.4193  0.5837 -0.2167
 3927TIP3    H133340   4.598   4.608   7.462 -2.1692 -0.7483  1.0474
 3927TIP3    H233341   4.601   4.749   7.408  2.3533 -1.3806 -0.8239
 3928TIP3   OH233342   3.061   2.677   1.675  0.3707 -0.0681 -0.4052
 3928TIP3    H133343   3.133   2.668   1.612  1.1762 -2.8972  0.7374
 3928TIP3    H233344   3.100   2.652   1.759 -1.5814 -0.1295  0.5325
 3929TIP3   OH233345   3.425   1.609   8.025 -0.1137 -0.2860  0.1277
 3929TIP3    H133346   3.426   1.584   7.933 -0.7086  0.6923 -0.1635
 3929TIP3    H233347   3.469   1.694   8.028  0.2945 -0.5170  0.8131
 3930TIP3   OH233348   3.871   4.602   2.552  0.7833  0.1368  0.2752
 3930TIP3    H133349   3.779   4.629   2.558  0.3528 -1.4557  1.7821
 3930TIP3    H233350   3.867   4.513   2.517  1.8775  0.5852 -1.0449
 3931TIP3   OH233351   5.210   2.511   0.290 -0.0148  0.5078  0.5587
 3931TIP3    H133352   5.127   2.538   0.328 -0.5187  2.1829 -1.5558
 3931TIP3    H233353   5.238   2.585   0.237  1.6359 -0.9149 -0.6793
 3932TIP3   OH233354   2.811   3.424   0.367 -0.3255  0.1192  0.1009
 3932TIP3    H133355   2.798   3.409   0.460  0.5731 -1.1426  0.0603
 3932TIP3    H233356   2.902   3.398   0.351  0.2829  2.5410 -0.7151
 3933TIP3   OH233357   5.519   3.998   1.114  0.0411 -0.4079 -0.0529
 3933TIP3    H133358   5.610   3.977   1.138 -0.2884 -0.6494  1.0384
 3933TIP3    H233359   5.477   4.021   1.197 -1.3262 -1.9176 -0.2904
 3934TIP3   OH233360   4.687   1.286   8.513 -0.3879 -0.3535 -0.5676
 3934TIP3    H133361   4.620   1.275   8.580  0.6499 -1.0285  0.3889
 3934TIP3    H233362   4.726   1.200   8.502 -0.3106 -0.1854 -1.8216
 3935TIP3   OH233363   1.697   1.652   7.487  0.4855  0.0014 -0.3896
 3935TIP3    H133364   1.619   1.686   7.530  1.0544 -0.0199  0.6970
 3935TIP3    H233365   1.706   1.706   7.408 -0.3113  0.3580 -0.2504
 3936TIP3   OH233366   2.676   5.933   7.997  0.4438 -0.0878  0.5600
 3936TIP3    H133367   2.711   5.861   7.944  1.2880  0.5996  0.1606
 3936TIP3    H233368   2.599   5.962   7.949  1.0040  0.2996 -0.1360
 3937TIP3   OH233369   3.190   4.410   2.106 -0.2724 -0.2856 -0.6157
 3937TIP3    H133370   3.177   4.369   2.021  0.5578 -0.7293 -0.5382
 3937TIP3    H233371   3.215   4.338   2.164  2.5089  0.4448 -0.7707
 3938TIP3   OH233372   5.600   2.575   8.354 -0.1669  0.7959  0.4344
 3938TIP3    H133373   5.547   2.546   8.279 -0.0914  1.5231  0.0970
 3938TIP3    H233374   5.633   2.493   8.392  0.7739  0.4532 -1.0351
 3939TIP3   OH233375   4.651   6.606   0.802 -0.2188  0.2092 -0.7195
 3939TIP3    H133376   4.651   6.670   0.873 -0.1993 -0.2858 -0.2584
 3939TIP3    H233377   4.742   6.576   0.797  0.3057  1.9506 -2.5619
 3940TIP3   OH233378   3.550   1.934   0.398  0.8988  0.5079 -0.4081
 3940TIP3    H133379   3.600   2.016   0.392 -1.5201  2.2994  1.7409
 3940TIP3    H233380   3.600   1.880   0.459  2.3588  0.4612 -1.5948
 3941TIP3   OH233381   2.252   4.337   8.868 -0.0306 -0.0603  0.4508
 3941TIP3    H133382   2.247   4.432   8.866 -2.8250 -0.0976 -2.4962
 3941TIP3    H233383   2.309   4.314   8.794  0.1022 -0.6890  0.7384
 3942TIP3   OH233384   5.331   6.298   2.311  0.1941  0.1536 -0.4153
 3942TIP3    H133385   5.302   6.389   2.306 -0.2271  0.1451  1.2702
 3942TIP3    H233386   5.264   6.248   2.264  0.6077  0.7192 -1.6580
 3943TIP3   OH233387   2.609   0.568   0.093  0.3130 -0.6078 -0.4142
 3943TIP3    H133388   2.677   0.522   0.142  0.4121  0.7862  0.7977
 3943TIP3    H233389   2.650   0.648   0.062 -1.0012  0.8616  1.3526
 3944TIP3   OH233390   3.667   5.172   2.731 -0.3752 -0.3113 -0.1440
 3944TIP3    H133391   3.636   5.262   2.723  2.7798  0.9299 -0.1563
 3944TIP3    H233392   3.655   5.150   2.824  0.2805  0.7619  0.2083
 3945TIP3   OH233393   6.486   5.252   0.412  0.0934  0.2477 -0.2083
 3945TIP3    H133394   6.535   5.206   0.344 -1.6100  0.6601 -1.7669
 3945TIP3    H233395   6.525   5.340   0.414  1.2530 -0.2550  0.5745
 3946TIP3   OH233396   0.152   3.030   2.659 -0.2786  0.4442 -0.0172
 3946TIP3    H133397   0.076   3.087   2.665 -1.3276 -0.6544 -1.8433
 3946TIP3    H233398   0.124   2.948   2.700  0.0882  0.1760 -0.2987
 3947TIP3   OH233399   0.088   2.612   8.717 -0.3016 -0.1276 -0.0674
 3947TIP3    H133400   0.043   2.695   8.735 -0.9961 -0.7794  1.3451
 3947TIP3    H233401   0.176   2.638   8.690  0.0794  1.0623  2.0843
 3948TIP3   OH233402   5.397   1.228   7.007 -0.7732  0.4919 -0.0563
 3948TIP3    H133403   5.473   1.271   6.968 -0.3484 -2.0521 -2.3080
 3948TIP3    H233404   5.434   1.155   7.056 -1.7038 -0.1648 -0.3155
 3949TIP3   OH233405   4.897   4.243   0.362 -0.4547 -0.5526  0.2083
 3949TIP3    H133406   4.925   4.330   0.335 -1.6115  0.0729  0.9207
 3949TIP3    H233407   4.861   4.203   0.283 -0.2784 -0.2423 -0.0318
 3950TIP3   OH233408   2.323   0.118   1.750 -0.8531  0.1811  0.1797
 3950TIP3    H133409   2.401   0.070   1.775  0.7421  3.9873  3.5991
 3950TIP3    H233410   2.250   0.060   1.773  0.9009 -0.9318  3.5134
 3951TIP3   OH233411   1.747   2.080   2.203  0.6726 -0.1782 -0.3191
 3951TIP3    H133412   1.821   2.049   2.256  1.2720  0.6720 -0.6273
 3951TIP3    H233413   1.670   2.055   2.253  1.2196  0.7163  1.0527
 3952TIP3   OH233414   4.348   3.846   2.195 -0.0493  0.4609  0.2042
 3952TIP3    H133415   4.254   3.828   2.205  0.2260 -1.1100  0.3200
 3952TIP3    H233416   4.369   3.907   2.266 -1.1021  1.3669 -0.2402
 3953TIP3   OH233417   1.989   2.445   0.924 -0.2252  0.2376  0.3251
 3953TIP3    H133418   1.929   2.372   0.904 -0.7840  0.7794 -0.0097
 3953TIP3    H233419   2.056   2.440   0.857  0.6683 -0.9575  1.2545
 3954TIP3   OH233420   4.788   1.459   0.071 -0.3658  0.0988  0.2997
 3954TIP3    H133421   4.760   1.387   0.127  1.5785 -1.3246 -0.4665
 3954TIP3    H233422   4.881   1.471   0.091 -0.4270  1.8257 -0.2253
 3955TIP3   OH233423   6.592   1.212   0.275 -0.0581  0.1151 -0.4194
 3955TIP3    H133424   6.537   1.145   0.234  0.2458  0.1543 -0.8925
 3955TIP3    H233425   6.594   1.283   0.211  1.1787 -0.1982 -0.7555
 3956TIP3   OH233426   1.573   0.320   2.080 -0.4325 -0.1950 -0.0717
 3956TIP3    H133427   1.581   0.305   2.175  0.5529 -1.5896 -0.3491
 3956TIP3    H233428   1.564   0.232   2.043  0.0253  0.2832 -1.3480
 3957TIP3   OH233429   4.532   2.275   1.068 -0.0945 -0.1273 -0.2013
 3957TIP3    H133430   4.441   2.250   1.084 -1.5793  1.7377 -4.3657
 3957TIP3    H233431   4.548   2.346   1.131 -1.5484 -0.4155  0.5445
 3958TIP3   OH233432   0.324   1.813   8.411  0.1438  0.1891 -0.2024
 3958TIP3    H133433   0.349   1.886   8.467 -2.1695  0.8716  0.0393
 3958TIP3    H233434   0.380   1.820   8.334  2.0699  0.3584  1.1566
 3959TIP3   OH233435   6.229   3.739   2.832  0.2097  0.1249  0.4352
 3959TIP3    H133436   6.145   3.696   2.847  0.5146 -0.3220  0.8842
 3959TIP3    H233437   6.248   3.784   2.914  1.0945 -0.9650  0.8480
 3960TIP3   OH233438   1.392   5.758   8.296  0.1795  0.1740  0.1788
 3960TIP3    H133439   1.425   5.795   8.215 -0.2121  0.9369  0.3540
 3960TIP3    H233440   1.456   5.785   8.363 -0.0540  0.4553  0.2914
 3961TIP3   OH233441   4.019   2.149   2.519  0.2838  0.1572  0.4751
 3961TIP3    H133442   4.103   2.120   2.485  0.5396  0.6366  0.6828
 3961TIP3    H233443   4.011   2.107   2.605 -0.9003 -2.0113 -0.6166
 3962TIP3   OH233444   1.520   2.820   2.442 -0.1657 -0.8614  0.0840
 3962TIP3    H133445   1.522   2.761   2.366 -0.3549 -1.7689  0.7603
 3962TIP3    H233446   1.492   2.764   2.515 -1.9074  0.4210  0.4626
 3963TIP3   OH233447   2.528   3.246   8.942  0.0992 -0.8968 -0.2811
 3963TIP3    H133448   2.558   3.240   9.033  0.4512 -0.1654 -0.3430
 3963TIP3    H233449   2.437   3.217   8.945 -0.3289  0.4524  0.5588
 3964TIP3   OH233450   0.916   6.021   1.746 -0.2134 -0.3164  0.0409
 3964TIP3    H133451   0.838   6.073   1.727  1.0903  1.2425 -1.4277
 3964TIP3    H233452   0.891   5.967   1.821 -1.4756  3.0524  2.3454
 3965TIP3   OH233453   6.503   6.417   0.874  0.1801  0.4734  0.4229
 3965TIP3    H133454   6.572   6.407   0.940  0.7241 -1.2153 -0.3538
 3965TIP3    H233455   6.498   6.332   0.831 -1.5754  0.9260 -0.3623
 3966TIP3   OH233456   5.693   1.233   7.460  0.3670 -0.2389  0.8835
 3966TIP3    H133457   5.679   1.286   7.538 -1.6160  0.2591  0.2538
 3966TIP3    H233458   5.675   1.293   7.387  0.4106 -1.1497  0.0953
 3967TIP3   OH233459   0.986   2.059   8.969 -0.2629  0.0057 -0.3750
 3967TIP3    H133460   1.030   2.142   8.951  0.4257 -0.7134 -2.2679
 3967TIP3    H233461   1.015   2.001   8.898 -0.9343 -1.7725  0.7494
 3968TIP3   OH233462   2.462   4.850   8.509 -0.0931 -0.4324 -0.2894
 3968TIP3    H133463   2.471   4.762   8.546  0.2655  0.3969  1.7216
 3968TIP3    H233464   2.375   4.879   8.536  0.1050  0.1278 -0.2307
 3969TIP3   OH233465   4.104   3.553   0.665 -0.5563  0.7396 -0.0462
 3969TIP3    H133466   4.087   3.459   0.659 -0.9048  0.5785  2.3142
 3969TIP3    H233467   4.086   3.587   0.577 -0.6682 -1.3478 -0.8824
 3970TIP3   OH233468   6.326   3.029   0.436  0.3470 -0.6927 -0.1095
 3970TIP3    H133469   6.248   3.084   0.444  0.2687 -0.9177  0.8154
 3970TIP3    H233470   6.292   2.939   0.439  0.4912 -0.8133 -1.4135
 3971TIP3   OH233471   0.472   1.706   0.289  0.5868 -0.3787 -0.0659
 3971TIP3    H133472   0.423   1.752   0.357  2.8948  1.5573  0.4044
 3971TIP3    H233473   0.472   1.767   0.215  1.4369 -0.7665 -0.3892
 3972TIP3   OH233474   6.465   4.077   0.260 -0.0260 -0.7708 -0.4172
 3972TIP3    H133475   6.437   4.153   0.312  1.5619  0.3056 -1.0306
 3972TIP3    H233476   6.392   4.062   0.200 -1.0955 -0.8479  0.8501
 3973TIP3   OH233477   3.561   4.824   8.019  0.4785 -0.1044  0.1057
 3973TIP3    H133478   3.633   4.865   8.067  0.8616 -1.3013  0.5795
 3973TIP3    H233479   3.515   4.898   7.977  1.3000  0.7724  0.7105
 3974TIP3   OH233480   1.882   3.540   8.023 -0.4181  0.0523  0.0088
 3974TIP3    H133481   1.835   3.458   8.035 -0.3711  0.1146  0.6398
 3974TIP3    H233482   1.946   3.521   7.955 -0.4438 -0.4181  0.1138
 3975TIP3   OH233483   3.831   1.740   1.990 -0.5200 -0.0942  0.3533
 3975TIP3    H133484   3.921   1.771   1.975 -0.9238  0.8382 -0.2238
 3975TIP3    H233485   3.827   1.656   1.944 -0.5170  0.7999 -1.3494
 3976TIP3   OH233486   4.286   4.299   0.870 -0.2471  0.0949  0.2432
 3976TIP3    H133487   4.370   4.343   0.855 -0.4533  0.0168 -1.2498
 3976TIP3    H233488   4.310   4.207   0.884 -0.0019  0.2669  0.9909
 3977TIP3   OH233489   3.138   6.432   2.264  0.2144 -0.2644  0.3032
 3977TIP3    H133490   3.187   6.357   2.231  0.9587 -0.2494  1.3449
 3977TIP3    H233491   3.099   6.471   2.186  0.8018 -1.0298 -0.3903
 3978TIP3   OH233492   3.783   3.899   2.844  0.2397  0.0546 -0.2259
 3978TIP3    H133493   3.730   3.820   2.832  0.0265  0.5122 -3.0907
 3978TIP3    H233494   3.872   3.867   2.855  0.0007 -0.6201 -0.1924
 3979TIP3   OH233495   1.617   4.624   0.818 -0.2696 -0.3517  0.1805
 3979TIP3    H133496   1.666   4.584   0.890  2.0358 -0.0184 -1.0924
 3979TIP3    H233497   1.632   4.566   0.744 -1.8663 -0.2289 -0.2656
 3980TIP3   OH233498   3.553   2.826   1.641 -0.7321  0.1369  0.0417
 3980TIP3    H133499   3.581   2.909   1.603  0.2278  0.0346  0.5049
 3980TIP3    H233500   3.592   2.760   1.584  2.8443 -0.0895  2.4757
 3981TIP3   OH233501   2.659   2.779   9.221 -0.1454  0.9481  0.9549
 3981TIP3    H133502   2.691   2.719   9.288 -0.2037  0.1669  0.2934
 3981TIP3    H233503   2.660   2.865   9.264  2.1325  0.8619  1.2272
 3982TIP3   OH233504   0.919   0.536   1.732 -0.2480  0.3010 -0.5053
 3982TIP3    H133505   0.971   0.610   1.761  1.5815 -1.2713  0.4801
 3982TIP3    H233506   0.851   0.526   1.799  0.4454  0.1734  0.1937
 3983TIP3   OH233507   5.133   0.443   2.966  0.2993  1.3364  0.6118
 3983TIP3    H133508   5.213   0.443   3.020 -0.6640  1.3484  2.0915
 3983TIP3    H233509   5.126   0.532   2.933  0.9259  1.3169  0.3991
 3984TIP3   OH233510   3.257   4.520   3.194  0.3320  0.1578 -0.1330
 3984TIP3    H133511   3.282   4.481   3.111  3.2858  0.1329  0.6672
 3984TIP3    H233512   3.222   4.448   3.246  1.4060 -0.4872 -0.2883
 3985TIP3   OH233513   2.557   4.955   2.196 -0.2224  0.2400  0.2046
 3985TIP3    H133514   2.593   4.923   2.114  1.2734  0.3185  0.7894
 3985TIP3    H233515   2.544   5.048   2.182  0.9817  0.4485  0.3444
 3986TIP3   OH233516   3.175   4.693   7.555  0.7024  0.3714  0.6107
 3986TIP3    H133517   3.225   4.769   7.581 -1.4328  1.6119  1.3880
 3986TIP3    H233518   3.084   4.723   7.557 -0.1282 -1.8963 -0.1422
 3987TIP3   OH233519   5.060   4.618   8.418 -0.0453  0.2778 -0.0960
 3987TIP3    H133520   5.137   4.606   8.363  0.3301 -0.6709  0.5938
 3987TIP3    H233521   5.026   4.529   8.432 -1.2818  0.6818 -0.4022
 3988TIP3   OH233522   5.069   1.637   1.876 -0.4142 -0.0997 -0.8605
 3988TIP3    H133523   5.086   1.715   1.930 -0.2637 -1.1836  0.7373
 3988TIP3    H233524   5.147   1.628   1.822  0.0951  0.1761 -0.1877
 3989TIP3   OH233525   3.679   1.717   2.449 -0.2119  0.3393 -0.5560
 3989TIP3    H133526   3.602   1.760   2.487 -0.0700  0.6576 -0.6329
 3989TIP3    H233527   3.743   1.717   2.520 -0.0011  0.7934 -0.7495
 3990TIP3   OH233528   0.710   2.160   0.955 -0.0075  0.4889 -0.1680
 3990TIP3    H133529   0.692   2.134   1.045  0.1051  0.1118 -0.2525
 3990TIP3    H233530   0.760   2.241   0.963 -1.0100  1.0880  0.0797
 3991TIP3   OH233531   0.613   2.977   1.581  0.0121  0.5948  0.5944
 3991TIP3    H133532   0.541   2.973   1.644 -0.3554  0.6129  0.1809
 3991TIP3    H233533   0.570   2.973   1.496  0.5968 -1.1326  0.3369
 3992TIP3   OH233534   1.239   6.003   1.482  0.3150 -0.2346 -0.5062
 3992TIP3    H133535   1.334   6.011   1.475  0.1098  1.9646 -1.9796
 3992TIP3    H233536   1.209   5.995   1.391 -0.8813 -2.4341 -0.0146
 3993TIP3   OH233537   5.816   3.326   3.121  0.1920  0.3505 -0.3394
 3993TIP3    H133538   5.761   3.358   3.049 -1.1137 -0.2058  0.3744
 3993TIP3    H233539   5.900   3.307   3.080 -0.7850 -0.8186 -1.9330
 3994TIP3   OH233540   2.317   6.600   2.168  0.2170  0.1327 -0.1817
 3994TIP3    H133541   2.263   6.549   2.108 -1.0445 -0.6072  1.5054
 3994TIP3    H233542   2.376   6.536   2.208  0.8958  0.5804 -0.4476
 3995TIP3   OH233543   0.389   0.518   0.700  0.2427 -0.4110 -0.3076
 3995TIP3    H133544   0.325   0.447   0.708  1.2036 -1.5100 -1.6438
 3995TIP3    H233545   0.468   0.474   0.668  1.2888  1.0878  0.1297
 3996TIP3   OH233546   2.572   2.677   2.018 -0.5349 -0.6848  0.0250
 3996TIP3    H133547   2.653   2.656   1.971 -0.8635 -1.4102 -0.2328
 3996TIP3    H233548   2.515   2.716   1.951  0.2091  1.4351  0.5869
 3997TIP3   OH233549   3.618   4.941   0.982 -0.3437 -0.0151  0.2746
 3997TIP3    H133550   3.562   4.926   0.905  0.3490  1.0053 -0.4576
 3997TIP3    H233551   3.707   4.932   0.948 -0.0334 -0.0855  1.0919
 3998TIP3   OH233552   5.762   2.527   2.395 -0.5190 -0.2793  0.6704
 3998TIP3    H133553   5.793   2.442   2.366  0.2170 -0.4930  2.0154
 3998TIP3    H233554   5.684   2.508   2.446 -0.9349 -0.0396  0.1391
 3999TIP3   OH233555   4.969   2.352   1.612  0.0944  0.2244  0.3300
 3999TIP3    H133556   5.053   2.307   1.617  0.1551  0.2157 -0.5376
 3999TIP3    H233557   4.952   2.360   1.518 -1.0397 -0.0779  0.4898
 4000TIP3   OH233558   5.246   5.791   1.135  0.0971  0.2209  0.2836
 4000TIP3    H133559   5.162   5.771   1.093  0.4998 -0.8703 -0.0207
 4000TIP3    H233560   5.293   5.842   1.069 -0.1948  0.5549  0.3287
 4001TIP3   OH233561   2.206   1.970   0.592 -0.2943  0.6111 -0.0700
 4001TIP3    H133562   2.212   1.892   0.536  1.2326 -0.1040  1.0295
 4001TIP3    H233563   2.172   1.938   0.675  0.3954  1.0966  0.4102
 4002TIP3   OH233564   1.840   1.125   7.917  0.1824  0.5092 -0.0885
 4002TIP3    H133565   1.804   1.037   7.925  2.1024 -0.3362  0.0248
 4002TIP3    H233566   1.843   1.142   7.822 -2.9622  1.7553 -0.0573
 4003TIP3   OH233567   0.363   5.518   2.259 -0.0119 -0.0344  0.4448
 4003TIP3    H133568   0.377   5.588   2.195  0.5503  2.1761  2.7885
 4003TIP3    H233569   0.442   5.518   2.313 -0.9401 -0.8983  1.8874
 4004TIP3   OH233570   3.304   6.526   2.966  0.6066 -0.4213  0.1491
 4004TIP3    H133571   3.234   6.479   2.921  1.0456 -1.9488  0.9753
 4004TIP3    H233572   3.304   6.489   3.054  1.1738  0.9648  0.7471
 4005TIP3   OH233573   4.272   2.670   8.999 -0.2737  0.1709 -0.0383
 4005TIP3    H133574   4.230   2.671   9.085  2.1349  1.5241  1.2431
 4005TIP3    H233575   4.365   2.661   9.018  0.6041  2.8697 -2.3176
 4006TIP3   OH233576   2.158   3.824   2.876 -0.0158 -0.0552 -0.6660
 4006TIP3    H133577   2.134   3.764   2.805  0.8003  0.1374 -1.1163
 4006TIP3    H233578   2.240   3.864   2.847  1.5144 -1.5311  1.2779
 4007TIP3   OH233579   4.914   6.144   0.629  0.3860  0.1684 -0.1653
 4007TIP3    H133580   4.918   6.217   0.566  0.4732  0.9294  0.6948
 4007TIP3    H233581   4.849   6.172   0.693  0.4959 -0.4700  0.2293
 4008TIP3   OH233582   6.162   1.001   7.463 -0.4904 -0.1496 -0.2142
 4008TIP3    H133583   6.227   1.071   7.471 -0.1959 -0.3903 -0.5011
 4008TIP3    H233584   6.087   1.042   7.420 -0.5587  0.1449  0.1761
 4009TIP3   OH233585   1.719   6.560   2.402 -0.1540  0.6352 -0.6407
 4009TIP3    H133586   1.695   6.652   2.387 -0.6951  0.8603  1.3669
 4009TIP3    H233587   1.809   6.554   2.369  0.2242  2.1233  0.0244
 4010TIP3   OH233588   2.831   6.452   0.295 -0.0827 -0.2363 -0.6292
 4010TIP3    H133589   2.885   6.460   0.373 -1.6497  1.9280  0.3109
 4010TIP3    H233590   2.763   6.388   0.320 -0.5405  0.3993 -0.2019
 4011TIP3   OH233591   1.293   2.539   2.260 -0.9728  0.0919 -0.1347
 4011TIP3    H133592   1.245   2.594   2.197 -4.2494 -1.6996  0.5511
 4011TIP3    H233593   1.234   2.533   2.335  1.1922 -0.8873  1.5609
 4012TIP3   OH233594   5.211   1.658   8.677 -0.0200 -0.0703 -0.0411
 4012TIP3    H133595   5.197   1.745   8.640  0.6469 -0.0525 -0.2592
 4012TIP3    H233596   5.127   1.614   8.667 -0.3750  0.5661  0.1166
 4013TIP3   OH233597   5.520   2.471   1.048 -0.4258  0.1324 -0.1145
 4013TIP3    H133598   5.595   2.527   1.069  0.0591 -0.5702  0.0540
 4013TIP3    H233599   5.524   2.401   1.113 -1.6932  0.5034  0.4036
 4014TIP3   OH233600   0.230   4.734   0.483  0.3524  0.0991 -0.1941
 4014TIP3    H133601   0.144   4.703   0.512 -0.0883 -1.7880 -3.1542
 4014TIP3    H233602   0.211   4.815   0.435  0.4000  0.2699  0.0700
 4015TIP3   OH233603   1.980   1.787   0.274  0.1461  0.1801  0.5685
 4015TIP3    H133604   1.933   1.714   0.234 -0.4000  1.1932 -0.6945
 4015TIP3    H233605   1.913   1.834   0.324  0.4067  0.0536  1.0373
 4016TIP3   OH233606   3.001   6.054   8.349  0.8024 -0.2125 -0.6539
 4016TIP3    H133607   3.091   6.045   8.379  0.4087  0.3454  0.7668
 4016TIP3    H233608   2.958   6.105   8.417 -0.9839 -1.7862 -0.5219
 4017TIP3   OH233609   4.602   6.225   8.807  0.2936 -0.0843  0.3104
 4017TIP3    H133610   4.690   6.190   8.792 -0.2829 -1.5855  0.2249
 4017TIP3    H233611   4.560   6.162   8.865 -0.8521  0.4104  0.0635
 4018TIP3   OH233612   3.308   3.378   8.774  0.2693  0.5192 -0.0060
 4018TIP3    H133613   3.215   3.381   8.754 -0.1876  1.1553  1.9804
 4018TIP3    H233614   3.325   3.458   8.824  1.8750  0.3971 -0.2981
 4019TIP3   OH233615   2.851   4.982   2.020 -0.0824 -0.3092  0.1232
 4019TIP3    H133616   2.798   4.926   1.963  0.4570 -0.6541 -0.0482
 4019TIP3    H233617   2.811   5.069   2.012 -1.9077 -0.9481  1.6048
 4020TIP3   OH233618   5.462   2.064   2.120  0.6563  0.0486  0.0614
 4020TIP3    H133619   5.437   2.054   2.211 -3.3734 -1.4545 -0.9805
 4020TIP3    H233620   5.426   2.148   2.093 -0.8337 -0.7994 -0.7569
 4021TIP3   OH233621   1.486   4.995   8.941  0.7043 -0.1919 -0.4248
 4021TIP3    H133622   1.528   4.934   8.881  2.2961  0.0815  0.3493
 4021TIP3    H233623   1.514   4.966   9.028  0.6588  1.0141  0.0072
 4022TIP3   OH233624   1.107   0.685   0.843 -0.2059 -0.5993 -0.4990
 4022TIP3    H133625   1.138   0.598   0.868 -0.0969 -0.5564 -0.4841
 4022TIP3    H233626   1.104   0.734   0.925  1.3759 -0.0717 -0.7150
 4023TIP3   OH233627   1.742   0.931   0.575  0.0996  0.0765  0.3618
 4023TIP3    H133628   1.762   0.838   0.568 -0.1107  0.1011 -0.5781
 4023TIP3    H233629   1.687   0.938   0.653 -1.3384 -0.8360 -0.5416
 4024TIP3   OH233630   4.689   1.877   8.857  0.3812  0.0270  0.0920
 4024TIP3    H133631   4.777   1.842   8.856  0.3685 -0.2055  2.1682
 4024TIP3    H233632   4.632   1.801   8.854  0.2393  0.1756 -1.2347
 4025TIP3   OH233633   5.884   2.728   1.233 -0.3579 -0.0343 -0.1702
 4025TIP3    H133634   5.849   2.706   1.319  0.2977  0.0042  0.1176
 4025TIP3    H233635   5.938   2.653   1.208 -0.6630 -0.1097 -0.6175
 4026TIP3   OH233636   5.702   1.575   1.249  0.4520  0.1795 -0.3268
 4026TIP3    H133637   5.684   1.494   1.297 -0.3760  1.3082  1.3375
 4026TIP3    H233638   5.620   1.595   1.204  0.8903 -0.2773 -1.3717
 4027TIP3   OH233639   6.651   1.401   2.312  0.4301  0.3496  0.7571
 4027TIP3    H133640   6.698   1.325   2.278 -0.0934 -0.0850  0.9837
 4027TIP3    H233641   6.645   1.385   2.406 -3.2259 -1.4128  0.4041
 4028TIP3   OH233642   3.032   1.349   1.859  0.3213  0.0355  0.0712
 4028TIP3    H133643   2.957   1.312   1.905  0.7782  1.6261  2.2435
 4028TIP3    H233644   3.103   1.288   1.878  0.2865  0.1910  0.7483
 4029TIP3   OH233645   1.290   5.025   8.734 -0.2442  0.0283 -0.0816
 4029TIP3    H133646   1.251   4.952   8.783  0.3682  0.4092  0.9787
 4029TIP3    H233647   1.380   5.029   8.764  0.0349  0.5259 -0.9622
 4030TIP3   OH233648   2.898   3.093   8.574 -0.3771  0.9344 -0.0151
 4030TIP3    H133649   2.871   3.032   8.643 -1.6080  1.9817  0.4735
 4030TIP3    H233650   2.845   3.171   8.589  1.6698  2.4304 -0.1896
 4031TIP3   OH233651   2.482   6.083   2.744 -0.5326  0.8824 -0.0714
 4031TIP3    H133652   2.421   6.112   2.812  0.4159  1.6437  0.4828
 4031TIP3    H233653   2.568   6.107   2.778  0.5611 -3.8246  1.1379
 4032TIP3   OH233654   0.638   2.007   8.633  0.6129 -0.1651 -0.2243
 4032TIP3    H133655   0.671   1.919   8.614  2.0770 -0.3140  2.5610
 4032TIP3    H233656   0.707   2.066   8.600 -0.5373  0.0554 -2.4355
 4033TIP3   OH233657   3.674   5.655   1.194  0.1165  0.0206  0.6015
 4033TIP3    H133658   3.611   5.704   1.245 -0.4948  0.4122 -0.4875
 4033TIP3    H233659   3.694   5.578   1.246 -4.6418 -2.5012 -0.7839
 4034TIP3   OH233660   3.979   0.553   1.921 -0.5046 -0.1173  0.1706
 4034TIP3    H133661   3.885   0.557   1.905 -0.6764 -0.0044  1.1476
 4034TIP3    H233662   3.988   0.568   2.015  0.6482  2.3013 -0.2573
 4035TIP3   OH233663   2.919   2.100   1.961 -0.0015  0.0761 -0.0727
 4035TIP3    H133664   2.950   2.034   1.899 -3.0455  0.0939 -1.7966
 4035TIP3    H233665   2.895   2.175   1.907 -0.5107  1.0197  1.3956
 4036TIP3   OH233666   2.582   2.821   8.140  0.2568  0.4638 -0.3464
 4036TIP3    H133667   2.529   2.893   8.174 -0.7283  0.2358 -1.3437
 4036TIP3    H233668   2.600   2.767   8.217 -3.5264 -1.0750 -0.3391
 4037TIP3   OH233669   3.112   1.518   1.078 -0.2595  0.4074 -0.3522
 4037TIP3    H133670   3.136   1.471   1.158  3.3507  0.0762 -1.4746
 4037TIP3    H233671   3.141   1.461   1.007  2.1858  3.1806 -1.7924
 4038TIP3   OH233672   3.941   0.246   8.166  0.6459 -0.1435  0.7119
 4038TIP3    H133673   3.872   0.218   8.226 -1.2661  0.6334 -1.0055
 4038TIP3    H233674   3.959   0.336   8.191 -0.8252  0.4936 -0.4046
 4039TIP3   OH233675   6.137   5.333   0.147  0.1716  0.6445  0.5578
 4039TIP3    H133676   6.172   5.250   0.179 -3.9060 -1.0203  1.4071
 4039TIP3    H233677   6.116   5.383   0.226 -4.1507 -0.8393  0.6070
 4040TIP3   OH233678   6.475   4.674   9.168 -0.5464  0.2612 -0.2611
 4040TIP3    H133679   6.465   4.667   9.073 -0.5553 -0.0287 -0.2412
 4040TIP3    H233680   6.420   4.603   9.203 -0.7289  0.5174 -0.0299
 4041TIP3   OH233681   1.436   5.832   8.036  0.1069  0.5680 -0.5810
 4041TIP3    H133682   1.346   5.837   8.003  0.0410  2.3463 -0.2404
 4041TIP3    H233683   1.478   5.911   8.002  0.8309  1.0376  1.2761
 4042TIP3   OH233684   4.095   2.553   0.889 -0.1560  0.1089 -0.1502
 4042TIP3    H133685   4.051   2.523   0.968 -1.6105  0.1859 -0.8938
 4042TIP3    H233686   4.065   2.644   0.878 -0.1743  0.0230 -0.9048
 4043TIP3   OH233687   1.863   1.258   8.404 -0.0827 -0.3974 -0.0024
 4043TIP3    H133688   1.916   1.189   8.365 -0.4982 -0.8989  0.3069
 4043TIP3    H233689   1.803   1.284   8.334  0.1563 -0.2616 -0.1580
 4044TIP3   OH233690   4.077   1.300   0.105 -0.2259 -0.1572 -0.0716
 4044TIP3    H133691   4.154   1.355   0.121 -0.6642  0.4161  0.0966
 4044TIP3    H233692   4.030   1.345   0.035 -0.6949 -0.2053  0.2103
 4045TIP3   OH233693   0.173   2.293   3.041 -0.5676  0.1783 -0.3025
 4045TIP3    H133694   0.151   2.206   3.009 -1.8908  0.6012 -0.6156
 4045TIP3    H233695   0.213   2.337   2.965  0.3809 -0.2363 -0.0564
 4046TIP3   OH233696   2.409   2.772   7.199  0.1423 -0.1201  0.2566
 4046TIP3    H133697   2.432   2.681   7.186  1.3744  0.2089  0.0159
 4046TIP3    H233698   2.376   2.801   7.114  1.8259  0.2217 -0.3234
 4047TIP3   OH233699   0.692   3.807   8.939  0.5603  0.2304 -0.6592
 4047TIP3    H133700   0.643   3.780   8.862 -1.8279 -1.4730  1.2986
 4047TIP3    H233701   0.655   3.892   8.963 -0.8542 -0.6183  0.2715
 4048TIP3   OH233702   4.962   2.442   2.632 -0.4776 -0.1805 -0.3965
 4048TIP3    H133703   4.982   2.353   2.606  0.4166  0.5470 -2.4369
 4048TIP3    H233704   5.046   2.480   2.659 -0.8050  0.1330  0.2148
 4049TIP3   OH233705   6.190   4.534   2.746  0.3846 -0.4934 -0.0121
 4049TIP3    H133706   6.106   4.524   2.700  0.9117 -0.4477 -1.0081
 4049TIP3    H233707   6.207   4.448   2.784 -0.2017 -0.4511  0.3661
 4050TIP3   OH233708   0.369   5.580   0.813 -0.1158  0.0131 -0.2510
 4050TIP3    H133709   0.335   5.603   0.727 -1.0421 -1.6405 -0.3780
 4050TIP3    H233710   0.345   5.488   0.824  1.3419 -0.2433  1.1343
 4051TIP3   OH233711   6.545   4.086   0.840 -0.1260 -0.1302  0.0417
 4051TIP3    H133712   6.505   4.173   0.833 -1.5000 -0.6019  1.5298
 4051TIP3    H233713   6.478   4.026   0.806  0.2911 -0.7345  0.2745
 4052TIP3   OH233714   4.900   2.868   0.014 -0.5938  0.0637  0.2428
 4052TIP3    H133715   4.962   2.832  -0.049 -1.2806 -1.3633  0.3348
 4052TIP3    H233716   4.912   2.963   0.008 -1.6393  0.1181 -3.1095
 4053TIP3   OH233717   3.850   0.643   0.267 -0.5119  0.0106 -0.3113
 4053TIP3    H133718   3.920   0.643   0.333  0.2250 -0.7895 -1.0624
 4053TIP3    H233719   3.781   0.589   0.304 -0.7367  0.7963  0.4360
 4054TIP3   OH233720   4.442   0.829   8.085  0.3706  0.0721  0.0476
 4054TIP3    H133721   4.526   0.810   8.044 -0.2502  2.0044 -2.3484
 4054TIP3    H233722   4.442   0.924   8.098 -1.8633  0.3273 -1.2218
 4055TIP3   OH233723   3.407   3.517   0.924  0.2046  0.0698  0.0300
 4055TIP3    H133724   3.429   3.609   0.938  1.6848 -0.4298  1.2637
 4055TIP3    H233725   3.342   3.497   0.991 -0.4019  0.3000 -0.4815
 4056TIP3   OH233726   3.057   4.057   2.076 -0.2769 -0.2006 -0.1740
 4056TIP3    H133727   2.991   4.108   2.124 -2.3600 -1.6608 -1.3166
 4056TIP3    H233728   3.118   4.028   2.143  0.3838  2.8106  0.6595
 4057TIP3   OH233729   2.995   0.605   7.788  0.0728  0.1596 -0.0126
 4057TIP3    H133730   2.976   0.695   7.764 -0.4353 -0.3090 -1.5072
 4057TIP3    H233731   3.082   0.588   7.753  0.2678  0.1229  0.4727
 4058TIP3   OH233732   5.268   4.615   0.917  0.2388  0.1580 -0.4409
 4058TIP3    H133733   5.319   4.645   0.993 -0.5926  0.7910 -0.1239
 4058TIP3    H233734   5.263   4.520   0.929  1.0071  0.1281 -0.2709
 4059TIP3   OH233735   3.880   0.317   0.996 -0.0928 -0.0760 -0.1311
 4059TIP3    H133736   3.853   0.259   1.068 -1.9970 -2.1108 -2.2928
 4059TIP3    H233737   3.857   0.405   1.026  0.8024 -0.6052  2.3897
 4060TIP3   OH233738   4.520   5.575   1.905 -0.2687 -0.1932  0.5890
 4060TIP3    H133739   4.461   5.500   1.911 -1.3404  0.6904  1.4507
 4060TIP3    H233740   4.463   5.650   1.889  0.7323  0.5380  0.2931
 4061TIP3   OH233741   5.252   5.684   8.384 -0.2109 -0.5238  0.5773
 4061TIP3    H133742   5.192   5.755   8.408 -0.0442 -0.4237  0.6989
 4061TIP3    H233743   5.291   5.656   8.467 -0.8469 -1.2746  0.6325
 4062TIP3   OH233744   3.200   5.888   8.129  0.1318 -0.5997 -0.0821
 4062TIP3    H133745   3.238   5.900   8.216  0.3121  0.7623 -0.3274
 4062TIP3    H233746   3.108   5.867   8.145  0.0930 -0.0598  0.4387
 4063TIP3   OH233747   0.674   2.235   0.644  0.4132 -0.3331 -0.5275
 4063TIP3    H133748   0.631   2.305   0.692  3.9068  2.3251 -0.8573
 4063TIP3    H233749   0.679   2.162   0.706  0.4245  1.2665  1.4332
 4064TIP3   OH233750   0.400   2.484   9.128 -0.0706  0.0239 -0.0187
 4064TIP3    H133751   0.334   2.468   9.061  0.3567 -1.8784 -0.0397
 4064TIP3    H233752   0.423   2.397   9.160 -0.7936  0.8773  3.1588
 4065TIP3   OH233753   5.747   0.916   1.201  0.8504  0.1743  0.3112
 4065TIP3    H133754   5.662   0.872   1.202  1.7480 -1.6683  0.0589
 4065TIP3    H233755   5.789   0.886   1.120  1.7861  0.9647  0.4806
 4066TIP3   OH233756   2.358   2.410   2.403  0.5031  0.4403  0.0739
 4066TIP3    H133757   2.437   2.459   2.380  1.3024 -0.4829  0.7790
 4066TIP3    H233758   2.328   2.451   2.484  1.7312 -0.8124  1.2075
 4067TIP3   OH233759   5.994   1.619   8.511 -0.5025  0.1725 -0.1597
 4067TIP3    H133760   6.037   1.653   8.589  0.2693 -1.4714  0.1702
 4067TIP3    H233761   5.924   1.682   8.493  0.3078  1.4363  0.8957
 4068TIP3   OH233762   6.294   5.615   7.578 -0.1370 -0.4125 -0.1420
 4068TIP3    H133763   6.351   5.677   7.624 -1.2446 -0.0484  0.7699
 4068TIP3    H233764   6.350   5.540   7.560  0.5758 -0.1582  0.9450
 4069TIP3   OH233765   3.711   4.093   1.230 -0.1367 -0.3529  0.0109
 4069TIP3    H133766   3.700   4.096   1.135  1.1490 -1.9268 -0.2461
 4069TIP3    H233767   3.625   4.069   1.263 -0.2873 -1.1603 -0.8950
 4070TIP3   OH233768   4.658   2.751   7.182 -0.3529  0.4243 -0.1832
 4070TIP3    H133769   4.733   2.795   7.220  0.8007 -0.6524 -1.1348
 4070TIP3    H233770   4.692   2.667   7.150 -2.2636 -0.7744  0.7117
 4071TIP3   OH233771   5.813   4.728   0.050  0.0135  0.1631  0.2497
 4071TIP3    H133772   5.846   4.750   0.137 -0.1142  0.6350  0.1796
 4071TIP3    H233773   5.828   4.806  -0.003  0.8708 -0.4073 -0.3828
 4072TIP3   OH233774   1.266   4.726   0.046 -0.0276  0.0250 -0.0273
 4072TIP3    H133775   1.232   4.662   0.109 -0.9108  1.7656  1.3551
 4072TIP3    H233776   1.349   4.755   0.086 -0.2839  0.6861  0.0273
 4073TIP3   OH233777   3.447   2.429   7.798 -0.1319 -0.0277  0.1778
 4073TIP3    H133778   3.519   2.492   7.804 -0.5861  0.6014 -0.8301
 4073TIP3    H233779   3.408   2.444   7.712 -1.5623 -0.2689  0.7544
 4074TIP3   OH233780   1.070   1.136   2.504  0.0715 -0.0550  0.1674
 4074TIP3    H133781   1.137   1.101   2.444 -0.0749  0.5086 -0.3309
 4074TIP3    H233782   1.084   1.087   2.586  0.2811 -0.8260 -0.3138
 4075TIP3   OH233783   5.394   1.760   8.010 -0.3160  0.2954 -0.6200
 4075TIP3    H133784   5.337   1.700   7.962 -0.9330  0.9895 -0.7685
 4075TIP3    H233785   5.334   1.816   8.059  0.2571 -2.0065  3.0771
 4076TIP3   OH233786   2.218   2.413   0.792  0.3080 -0.5409 -0.1638
 4076TIP3    H133787   2.218   2.487   0.732  2.4986 -0.4018 -0.0658
 4076TIP3    H233788   2.309   2.402   0.817 -0.2717 -1.8127  1.6537
 4077TIP3   OH233789   0.515   4.228   7.821 -0.3556  0.4219  0.2437
 4077TIP3    H133790   0.421   4.222   7.803 -0.1578 -1.9338 -0.3959
 4077TIP3    H233791   0.554   4.249   7.736 -0.0929 -2.3513 -0.4396
 4078TIP3   OH233792   6.015   2.174   1.474  0.1607  0.3102  0.5179
 4078TIP3    H133793   5.935   2.201   1.428 -1.0738 -0.7697  1.9410
 4078TIP3    H233794   6.073   2.144   1.404 -0.3897  1.7248 -0.6149
 4079TIP3   OH233795   2.068   6.570   3.059 -0.0456  0.0072 -0.4022
 4079TIP3    H133796   2.118   6.650   3.076  0.3665 -0.3497  0.1165
 4079TIP3    H233797   2.128   6.499   3.082 -1.2983 -0.4233  1.8251
 4080TIP3   OH233798   0.831   4.267   7.359 -0.2796  0.2611  0.3717
 4080TIP3    H133799   0.926   4.252   7.369 -0.5671 -0.6306  2.2116
 4080TIP3    H233800   0.797   4.181   7.333 -0.5295  0.7349 -0.9135
 4081TIP3   OH233801   2.311   2.705   2.385 -0.0114 -0.3318 -0.7127
 4081TIP3    H133802   2.217   2.721   2.375  0.0198 -0.2834 -0.9351
 4081TIP3    H233803   2.330   2.636   2.321  0.1159 -0.2951 -0.7138
 4082TIP3   OH233804   4.849   4.940   8.304 -0.7469  0.8544 -0.2775
 4082TIP3    H133805   4.804   4.883   8.241 -0.7858  1.4888 -0.8248
 4082TIP3    H233806   4.830   5.029   8.275 -1.1329  1.1679  0.8894
 4083TIP3   OH233807   1.299   4.842   7.859 -0.1933 -0.5027  0.2107
 4083TIP3    H133808   1.205   4.854   7.848 -0.1102 -0.5015 -0.5637
 4083TIP3    H233809   1.320   4.890   7.940 -0.3530  2.2795 -1.2631
 4084TIP3   OH233810   5.369   1.774   9.127  0.1704 -0.2323  0.0982
 4084TIP3    H133811   5.394   1.713   9.058  0.6233 -1.3647  1.2476
 4084TIP3    H233812   5.442   1.774   9.188 -0.4625  0.3224  0.8810
 4085TIP3   OH233813   2.438   2.549   2.679 -0.0909  0.0828 -0.0608
 4085TIP3    H133814   2.466   2.458   2.670 -0.5854 -0.1064  0.2265
 4085TIP3    H233815   2.354   2.543   2.725 -1.1394  0.5426 -1.8352
 4086TIP3   OH233816   2.648   3.672   7.848  0.3890  0.4562 -1.0387
 4086TIP3    H133817   2.702   3.672   7.927  1.3378  2.0452 -1.6373
 4086TIP3    H233818   2.711   3.668   7.776 -0.4193 -0.0597 -1.7437
 4087TIP3   OH233819   6.373   6.452   1.907  0.2175  0.0781  0.1207
 4087TIP3    H133820   6.424   6.395   1.849  0.5236  0.4840 -0.0113
 4087TIP3    H233821   6.433   6.471   1.980  0.2346  0.5085 -0.0049
 4088TIP3   OH233822   5.557   5.818   2.071 -0.0633 -0.0675  0.0657
 4088TIP3    H133823   5.534   5.781   1.985  2.4800  0.6219 -0.9954
 4088TIP3    H233824   5.543   5.912   2.061 -1.2763 -0.1189  0.9848
 4089TIP3   OH233825   1.096   4.092   1.422  0.0485  0.3140  0.4309
 4089TIP3    H133826   1.023   4.116   1.365 -0.5644 -0.7763  0.7328
 4089TIP3    H233827   1.077   4.133   1.506 -0.5361 -0.4464  0.6820
 4090TIP3   OH233828   2.553   5.647   1.152 -0.6576 -0.0540 -0.1258
 4090TIP3    H133829   2.641   5.674   1.177 -0.9368 -0.0276  0.8525
 4090TIP3    H233830   2.565   5.560   1.114  0.0567  0.8075 -1.9930
 4091TIP3   OH233831   0.382   5.658   8.529 -0.1222 -0.1113  0.1968
 4091TIP3    H133832   0.451   5.593   8.541  0.9190  0.9398  0.1999
 4091TIP3    H233833   0.397   5.722   8.599 -0.4225  0.6860 -0.4426
 4092TIP3   OH233834   1.037   5.077   1.272 -0.0748  0.4815 -0.1996
 4092TIP3    H133835   1.063   5.134   1.344 -0.6203  2.8437 -1.7370
 4092TIP3    H233836   0.941   5.079   1.273 -0.1162 -1.1398  0.2329
 4093TIP3   OH233837   0.930   0.641   8.935  0.0516  0.4133  0.0703
 4093TIP3    H133838   0.864   0.691   8.983  0.3243  1.0319 -0.1939
 4093TIP3    H233839   0.933   0.556   8.980 -0.3221  0.6749  0.5988
 4094TIP3   OH233840   0.513   6.032   1.779 -0.5651  0.3296  0.3598
 4094TIP3    H133841   0.447   6.036   1.710 -0.4484  0.3107  0.2473
 4094TIP3    H233842   0.546   5.942   1.776  0.6019  0.7642 -0.6511
 4095TIP3   OH233843   4.892   3.153   2.289  0.2989  0.5420  0.2090
 4095TIP3    H133844   4.856   3.224   2.237 -0.4003 -0.4286 -0.6706
 4095TIP3    H233845   4.921   3.195   2.370  1.5260  2.0987 -0.9907
 4096TIP3   OH233846   1.295   3.306   7.846 -0.3399  0.8359 -0.7926
 4096TIP3    H133847   1.367   3.360   7.815 -0.0682  1.8067  1.4017
 4096TIP3    H233848   1.274   3.249   7.771  1.0273  2.2210 -2.3007
 4097TIP3   OH233849   6.249   2.502   2.891 -0.5243 -0.1758  0.2544
 4097TIP3    H133850   6.312   2.538   2.954  0.9520 -1.7802 -0.2284
 4097TIP3    H233851   6.164   2.511   2.935 -0.2539  3.3558  0.3459
 4098TIP3   OH233852   1.581   6.449   1.127 -0.0062 -0.3842  0.5384
 4098TIP3    H133853   1.578   6.496   1.211 -0.9239  1.4626 -0.4779
 4098TIP3    H233854   1.658   6.484   1.083 -0.3603 -0.2561  0.0133
 4099TIP3   OH233855   3.666   6.011   0.220 -0.2370  0.2078  0.0523
 4099TIP3    H133856   3.676   5.946   0.150  0.5315 -0.0945  0.4266
 4099TIP3    H233857   3.628   6.087   0.177  1.1784  0.3961 -0.9175
 4100TIP3   OH233858   5.795   3.128   0.649  0.0403 -0.5892 -0.8421
 4100TIP3    H133859   5.715   3.156   0.605  0.7988  0.7289 -1.4213
 4100TIP3    H233860   5.798   3.178   0.730 -0.1541 -1.2781 -0.4022
 4101TIP3   OH233861   3.012   0.411   2.335 -0.0205  0.0545  0.7153
 4101TIP3    H133862   3.084   0.457   2.293  0.9399 -1.4799  0.6104
 4101TIP3    H233863   2.935   0.465   2.317  0.9157  1.1468 -0.1232
 4102TIP3   OH233864   3.816   5.664   0.378 -0.1134 -0.3036  0.4593
 4102TIP3    H133865   3.838   5.745   0.332  0.0896 -0.7559 -0.2481
 4102TIP3    H233866   3.900   5.618   0.387 -0.2766 -0.5823  0.5834
 4103TIP3   OH233867   0.881   4.618   1.238 -0.3145 -0.2057  0.2691
 4103TIP3    H133868   0.802   4.566   1.226 -0.7675  0.8244 -1.6636
 4103TIP3    H233869   0.859   4.704   1.201  1.7426  0.0541 -0.5203
 4104TIP3   OH233870   1.091   1.260   9.116 -0.0363 -0.0808 -0.0573
 4104TIP3    H133871   1.101   1.165   9.116  0.0763 -0.0718 -0.6000
 4104TIP3    H233872   1.024   1.277   9.182  0.1152 -0.5166  0.2131
 4105TIP3   OH233873   4.279   3.287   0.349  0.3249  0.3052  0.6575
 4105TIP3    H133874   4.198   3.263   0.303  0.0615 -1.2423  1.8692
 4105TIP3    H233875   4.265   3.259   0.439  1.4224  1.9313  1.3797
 4106TIP3   OH233876   5.696   3.300   9.056 -0.3655  0.2912 -0.5162
 4106TIP3    H133877   5.652   3.385   9.059  0.8747  0.9166  1.3334
 4106TIP3    H233878   5.751   3.304   8.978 -0.3373  1.1681 -0.4534
 4107TIP3   OH233879   2.951   3.522   0.924  0.3944 -0.2021  0.0131
 4107TIP3    H133880   2.899   3.487   0.851  0.1425 -1.1891  0.6478
 4107TIP3    H233881   2.887   3.552   0.987  0.5902 -0.8989  0.5523
 4108TIP3   OH233882   2.496   6.610   1.547  0.2886 -0.2774  0.3171
 4108TIP3    H133883   2.567   6.655   1.592  1.0151  1.0235 -1.9970
 4108TIP3    H233884   2.416   6.649   1.583  0.8664  1.4870 -0.2501
 4109TIP3   OH233885   5.790   0.038   1.910  0.3228  0.1106  0.5136
 4109TIP3    H133886   5.868   0.041   1.855  0.2416 -1.6361  0.2410
 4109TIP3    H233887   5.776  -0.056   1.926 -1.4203  0.4223  0.9887
 4110TIP3   OH233888   0.987   2.304   8.191 -0.1486  0.3095  0.8749
 4110TIP3    H133889   1.055   2.356   8.148  0.7154 -0.9878  0.6051
 4110TIP3    H233890   0.911   2.311   8.133  0.1918  0.6575  0.4660
 4111TIP3   OH233891   4.576   2.388   8.893 -0.1245 -0.1676 -0.1393
 4111TIP3    H133892   4.606   2.464   8.943  0.3098 -1.2818  1.3346
 4111TIP3    H233893   4.579   2.315   8.954 -3.5065 -0.8722 -0.5773
 4112TIP3   OH233894   1.259   2.081   1.356 -0.1659 -0.1265  0.2065
 4112TIP3    H133895   1.248   2.051   1.266 -1.8651 -1.7721  0.8999
 4112TIP3    H233896   1.264   2.177   1.350  0.3766 -0.2490 -1.6627
 4113TIP3   OH233897   5.032   4.597   2.496 -0.1172  0.4615  0.2148
 4113TIP3    H133898   4.981   4.517   2.483 -0.9946  0.9952  0.3156
 4113TIP3    H233899   5.015   4.621   2.588 -0.6111  1.2731 -0.0822
 4114TIP3   OH233900   4.748   3.766   0.736  0.2220  0.3264 -0.1585
 4114TIP3    H133901   4.808   3.717   0.792  0.5161  0.4323 -0.3751
 4114TIP3    H233902   4.666   3.718   0.740  0.2089  0.4024  0.4568
 4115TIP3   OH233903   4.918   6.364   0.967  0.0957 -0.2678 -0.7795
 4115TIP3    H133904   4.861   6.326   1.035  3.2364  0.4637  2.5889
 4115TIP3    H233905   4.984   6.297   0.952  1.7939  1.1234  0.1105
 4116TIP3   OH233906   0.555   2.666   8.262 -0.4978 -0.1858  0.6877
 4116TIP3    H133907   0.549   2.583   8.214  1.7998 -1.1146  1.8228
 4116TIP3    H233908   0.608   2.723   8.206  0.9956 -0.7953  1.3998
 4117TIP3   OH233909   4.027   2.051   1.488 -0.4665 -0.0338 -0.4358
 4117TIP3    H133910   4.120   2.031   1.475 -0.4447 -0.3284  0.1487
 4117TIP3    H233911   3.991   1.971   1.527 -0.4159  0.9776  1.8474
 4118TIP3   OH233912   2.622   4.104   9.052  0.0445 -0.8724  0.1263
 4118TIP3    H133913   2.667   4.188   9.066  0.0973 -0.6893 -0.9766
 4118TIP3    H233914   2.652   4.048   9.123 -0.7282  0.3251  1.4572
 4119TIP3   OH233915   4.988   3.481   9.113  0.2058 -0.4704  0.4816
 4119TIP3    H133916   5.056   3.537   9.074 -0.5209  0.5809  0.6856
 4119TIP3    H233917   4.997   3.398   9.067  0.4367  0.2298 -0.7887
 4120TIP3   OH233918   1.642   4.427   2.687  0.2030 -0.4096  0.0855
 4120TIP3    H133919   1.558   4.406   2.647 -0.0071 -0.5327  0.5837
 4120TIP3    H233920   1.645   4.374   2.767 -0.1973  1.1788  1.1945
 4121TIP3   OH233921   5.838   3.191   2.291  0.5610 -0.3090  0.1389
 4121TIP3    H133922   5.847   3.098   2.308  2.3792  0.1116  1.8765
 4121TIP3    H233923   5.783   3.224   2.363  0.9874  0.1449  0.2644
 4122TIP3   OH233924   3.685   1.322   8.302  0.7823  0.0958  0.0077
 4122TIP3    H133925   3.733   1.348   8.223 -0.6868 -0.2538 -1.0352
 4122TIP3    H233926   3.730   1.243   8.332  0.3803 -0.7108 -1.4375
 4123TIP3   OH233927   3.009   0.222   8.774  0.3506 -0.0061  0.1568
 4123TIP3    H133928   3.093   0.240   8.732  0.2181  0.3635  0.0483
 4123TIP3    H233929   3.032   0.192   8.862  0.5258  2.8714  1.1761
 4124TIP3   OH233930   2.614   3.065   7.018 -0.2716  0.1626  0.1190
 4124TIP3    H133931   2.706   3.082   7.037 -0.4905  1.5274  0.0523
 4124TIP3    H233932   2.576   3.041   7.103  0.1222 -0.2768  0.1702
 4125TIP3   OH233933   3.252   1.716   0.974 -0.3517 -0.2300 -0.1255
 4125TIP3    H133934   3.241   1.636   1.026 -0.2645 -0.0329  0.2001
 4125TIP3    H233935   3.198   1.702   0.896 -0.1416 -0.7066 -0.1881
 4126TIP3   OH233936   5.340   4.432   0.007 -0.3794  0.0483 -0.4833
 4126TIP3    H133937   5.362   4.343  -0.019 -2.2119  0.0590 -2.3171
 4126TIP3    H233938   5.246   4.439  -0.007 -0.3653  2.1302  0.0801
 4127TIP3   OH233939   3.830   5.078   1.335  0.4870 -0.2274 -0.9559
 4127TIP3    H133940   3.754   5.023   1.352  0.1971  0.4737  0.1056
 4127TIP3    H233941   3.863   5.048   1.251 -0.5404 -1.0238 -1.0920
 4128TIP3   OH233942   5.849   1.103   8.793 -0.5730  0.1160  0.0936
 4128TIP3    H133943   5.766   1.070   8.827 -1.3959 -0.2730 -2.1583
 4128TIP3    H233944   5.904   1.025   8.784  0.5757  0.4950  2.6992
 4129TIP3   OH233945   4.197   1.992   8.340 -0.1583 -0.2072  0.4248
 4129TIP3    H133946   4.161   2.076   8.311 -0.2051 -0.4302 -0.1739
 4129TIP3    H233947   4.132   1.927   8.313  0.4309 -0.5583 -0.1953
 4130TIP3   OH233948   4.155   0.545   8.638 -0.2216 -0.3667 -0.0841
 4130TIP3    H133949   4.167   0.461   8.594 -0.7218 -0.1547 -0.6435
 4130TIP3    H233950   4.184   0.610   8.575  0.5473 -0.1285  0.4965
 4131TIP3   OH233951   5.569   2.261   1.466 -0.3232 -0.4054  0.0067
 4131TIP3    H133952   5.636   2.193   1.471  0.6126  0.4956  0.2907
 4131TIP3    H233953   5.488   2.215   1.443  0.1622 -1.6728  0.7583
 4132TIP3   OH233954   3.974   3.215   1.322 -0.2240  0.1627  0.0981
 4132TIP3    H133955   4.002   3.173   1.404 -0.1561  2.2347  1.2098
 4132TIP3    H233956   4.053   3.260   1.291  0.2457 -1.9623 -2.1098
 4133TIP3   OH233957   4.460   5.999   0.469  0.7046 -0.4468 -0.7350
 4133TIP3    H133958   4.400   5.930   0.499 -0.4310  0.9076  0.2782
 4133TIP3    H233959   4.547   5.963   0.485  0.1458 -0.9601  1.5305
 4134TIP3   OH233960   3.092   3.231   1.613  0.1688 -0.3881  0.4236
 4134TIP3    H133961   3.000   3.260   1.610 -0.4445 -1.8701 -4.8454
 4134TIP3    H233962   3.094   3.165   1.683 -3.1868 -1.3036 -0.1622
 4135TIP3   OH233963   0.077   4.713   8.903 -0.1125 -0.6231  0.6605
 4135TIP3    H133964   0.017   4.654   8.857  2.2987 -2.1020 -0.7976
 4135TIP3    H233965   0.164   4.686   8.874  1.2699  1.7793  2.2471
 4136TIP3   OH233966   0.466   5.339   9.031 -0.2550 -0.1418  0.2702
 4136TIP3    H133967   0.436   5.385   9.110 -2.9566 -0.6450 -0.3541
 4136TIP3    H233968   0.403   5.269   9.019  0.5088 -0.5316 -1.9532
 4137TIP3   OH233969   3.535   6.344   0.199 -0.1321 -0.1745 -0.3454
 4137TIP3    H133970   3.474   6.271   0.188  0.0505 -0.7761  2.0795
 4137TIP3    H233971   3.500   6.393   0.273  2.0803 -0.3276  0.8704
 4138TIP3   OH233972   0.842   3.237   7.836  0.1641  0.0302 -0.2148
 4138TIP3    H133973   0.799   3.308   7.788 -0.2949  0.8642  1.3586
 4138TIP3    H233974   0.918   3.278   7.877 -0.5553 -0.1344  1.3828
 4139TIP3   OH233975   5.371   6.503   9.133  0.5037  0.1014 -0.2049
 4139TIP3    H133976   5.418   6.563   9.192 -0.8606  1.4868 -0.4866
 4139TIP3    H233977   5.440   6.465   9.079  1.7102 -0.5984  1.6976
 4140TIP3   OH233978   2.794   0.040   8.737  0.4683  0.3112 -0.3442
 4140TIP3    H133979   2.883   0.069   8.756  0.7525 -1.0500  0.5405
 4140TIP3    H233980   2.745   0.057   8.817 -0.2042  1.4753 -0.9798
 4141TIP3   OH233981   1.551   3.173   8.377 -0.3859  0.0535 -0.1955
 4141TIP3    H133982   1.578   3.110   8.310 -0.6494  1.1970 -1.4117
 4141TIP3    H233983   1.521   3.250   8.328 -0.9825  0.7746  1.2246
 4142TIP3   OH233984   4.821   2.378   8.426  0.3956  0.4662  0.4533
 4142TIP3    H133985   4.776   2.462   8.428 -0.0071  0.2500  1.0658
 4142TIP3    H233986   4.907   2.396   8.464  0.3885  0.6449  0.3861
 4143TIP3   OH233987   0.187   1.480   8.832 -0.2620  0.2336  0.7046
 4143TIP3    H133988   0.242   1.509   8.760  0.1847 -0.0325  0.9316
 4143TIP3    H233989   0.117   1.430   8.790 -0.3720  0.6346  0.4099
 4144TIP3   OH233990   3.901   4.128   0.827  0.4104  0.1336 -0.0365
 4144TIP3    H133991   3.975   4.142   0.769  0.5760  0.9152  0.3489
 4144TIP3    H233992   3.872   4.216   0.850  0.7506 -0.1435  1.5798
 4145TIP3   OH233993   1.771   6.392   0.829  0.8612 -0.0219  0.0173
 4145TIP3    H133994   1.818   6.470   0.860  2.7709 -0.2528 -2.0249
 4145TIP3    H233995   1.776   6.331   0.903  2.6159  0.4937  0.3742
 4146TIP3   OH233996   6.581   4.385   2.617  0.0350 -0.6477  0.3656
 4146TIP3    H133997   6.568   4.357   2.707 -1.2187 -1.0604  0.0845
 4146TIP3    H233998   6.493   4.384   2.579  0.5892 -0.9332 -0.9877
 4147TIP3   OH233999   6.350   5.866   0.103 -0.3107 -0.2899 -0.4635
 4147TIP3    H134000   6.301   5.848   0.023 -0.9150  0.5968 -0.2953
 4147TIP3    H234001   6.441   5.872   0.074 -0.7805  2.8167 -1.5893
 4148TIP3   OH234002   3.922   1.291   0.599  0.2462  0.5149  0.0702
 4148TIP3    H134003   3.845   1.276   0.543  0.5698 -0.3837 -0.1631
 4148TIP3    H234004   3.953   1.203   0.620  0.8959  0.8643  0.6071
 4149TIP3   OH234005   2.203   5.508   2.553 -0.1392  0.0167  0.2694
 4149TIP3    H134006   2.162   5.554   2.626  1.4900 -0.8037  1.7704
 4149TIP3    H234007   2.152   5.427   2.543 -0.5432  0.2657  0.2767
 4150TIP3   OH234008   2.566   3.151   8.233  0.0866  0.4525 -0.0135
 4150TIP3    H134009   2.620   3.218   8.274 -0.0256  0.3408  0.3196
 4150TIP3    H234010   2.559   3.178   8.142  2.2111 -0.4707 -0.5123
 4151TIP3   OH234011   4.237   4.777   1.807 -0.1856 -0.5246 -0.0488
 4151TIP3    H134012   4.215   4.829   1.885  0.7934  0.5520 -0.4584
 4151TIP3    H234013   4.332   4.763   1.813 -0.4967 -2.9212  0.4041
 4152TIP3   OH234014   1.281   5.160   1.821  0.0790 -0.2846  0.1788
 4152TIP3    H134015   1.269   5.197   1.908  1.2791  0.2394  0.1345
 4152TIP3    H234016   1.341   5.220   1.777  0.0344 -0.9134 -0.7818
 4153TIP3   OH234017   3.725   2.428   0.306  0.5339  0.2152 -0.1546
 4153TIP3    H134018   3.806   2.459   0.348  0.9234 -2.2599  1.0864
 4153TIP3    H234019   3.657   2.442   0.372  0.3532  0.2377 -0.3451
 4154TIP3   OH234020   4.645   2.046   0.899 -0.9717  0.3013 -0.2301
 4154TIP3    H134021   4.645   1.990   0.976 -0.3792 -1.7556 -1.6401
 4154TIP3    H234022   4.600   2.125   0.927 -0.7913 -0.3802  2.1985
 4155TIP3   OH234023   4.551   2.598   9.067 -0.0114  0.0675  0.1153
 4155TIP3    H134024   4.575   2.667   9.004 -0.9310 -0.8985 -1.3531
 4155TIP3    H234025   4.596   2.623   9.147  2.8711  0.3048 -1.4398
 4156TIP3   OH234026   4.512   6.029   8.992 -0.1527  0.1225 -0.1258
 4156TIP3    H134027   4.488   5.985   8.910  0.7508 -0.2285 -0.2143
 4156TIP3    H234028   4.453   5.990   9.057 -1.0641  0.6031 -0.6443
 4157TIP3   OH234029   2.999   4.755   8.344 -0.1973  0.2658  0.5971
 4157TIP3    H134030   3.011   4.763   8.439  0.3446  1.5451  0.4501
 4157TIP3    H234031   3.071   4.806   8.307  0.2105 -1.0846 -0.5307
 4158TIP3   OH234032   2.835   0.556   1.181 -0.2968 -0.2865  0.3247
 4158TIP3    H134033   2.814   0.475   1.135  0.4503 -0.1829 -0.2203
 4158TIP3    H234034   2.787   0.624   1.136 -1.5582 -0.5165  1.2749
 4159TIP3   OH234035   4.128   2.281   0.227  0.7929 -0.2977 -0.5080
 4159TIP3    H134036   4.084   2.256   0.309  1.6066 -1.1494 -0.3193
 4159TIP3    H234037   4.186   2.353   0.252  0.5057 -0.0673 -0.4926
 4160TIP3   OH234038   0.646   3.000   0.371 -0.0855 -0.6321 -0.1556
 4160TIP3    H134039   0.622   3.044   0.290  2.9212  0.6356 -0.4839
 4160TIP3    H234040   0.567   3.007   0.426 -1.3038  0.8840 -1.9647
 4161TIP3   OH234041   1.900   6.451   3.317 -0.1927 -0.3256 -0.5204
 4161TIP3    H134042   1.903   6.464   3.411  2.4900 -1.4471 -0.3602
 4161TIP3    H234043   1.808   6.464   3.294 -0.3745  3.8341  1.5971
 4162TIP3   OH234044   4.391   0.373   7.700 -0.3107  0.8489 -0.9193
 4162TIP3    H134045   4.304   0.335   7.690 -0.6039  0.9298  1.0465
 4162TIP3    H234046   4.385   0.429   7.778  1.4409  1.0215 -0.8605
 4163TIP3   OH234047   1.634   1.101   8.313 -0.0434  0.1025 -0.5626
 4163TIP3    H134048   1.704   1.139   8.365 -1.3267  0.8041  0.7342
 4163TIP3    H234049   1.627   1.157   8.236  2.4069 -1.4035 -2.0228
 4164TIP3   OH234050   1.582   3.613   2.505 -0.3803 -0.0911  0.1599
 4164TIP3    H134051   1.507   3.614   2.446 -0.0073 -2.7592 -0.4953
 4164TIP3    H234052   1.658   3.612   2.448  0.0697 -0.2309  0.7476
 4165TIP3   OH234053   6.145   1.791   1.431 -0.3437 -0.2906 -0.1344
 4165TIP3    H134054   6.125   1.870   1.380  1.7240  0.0953 -0.4630
 4165TIP3    H234055   6.063   1.769   1.475 -1.2214  1.4991 -0.7741
 4166TIP3   OH234056   3.391   1.063   1.127 -0.5367  0.3661 -0.4637
 4166TIP3    H134057   3.439   0.981   1.123 -0.8646  0.2043 -1.1381
 4166TIP3    H234058   3.301   1.040   1.105 -0.8334  0.7502  0.2888
 4167TIP3   OH234059   3.650   4.055   0.947 -0.2556 -0.0904  0.0278
 4167TIP3    H134060   3.715   4.050   0.877  1.7801 -1.0974  1.8672
 4167TIP3    H234061   3.626   3.964   0.965  0.7771 -0.0375  1.9112
 4168TIP3   OH234062   5.737   6.411   8.426  0.0692 -0.5072 -0.2847
 4168TIP3    H134063   5.817   6.418   8.374 -0.1617 -1.1147 -0.7519
 4168TIP3    H234064   5.679   6.356   8.372 -0.3519 -0.7607  0.4098
 4169TIP3   OH234065   1.151   6.096   7.577  0.3980  0.0143 -0.2289
 4169TIP3    H134066   1.231   6.061   7.537 -0.0109 -0.5607 -0.5597
 4169TIP3    H234067   1.080   6.051   7.532 -0.1199  0.5697  0.0157
 4170TIP3   OH234068   0.821   4.202   0.734  0.8432 -0.0360 -0.0521
 4170TIP3    H134069   0.765   4.271   0.770  0.3989 -0.2994 -0.2270
 4170TIP3    H234070   0.811   4.130   0.796  0.8611 -0.1393 -0.1697
 4171TIP3   OH234071   1.520   5.864   1.488  0.2790  0.4904  0.1260
 4171TIP3    H134072   1.470   5.802   1.435 -1.5996  1.2402  0.9500
 4171TIP3    H234073   1.547   5.813   1.565 -1.8252  0.7692  1.1246
 4172TIP3   OH234074   3.278   4.907   8.427 -0.0774  0.0225 -0.2886
 4172TIP3    H134075   3.286   4.830   8.483 -0.1141  0.0803 -0.2032
 4172TIP3    H234076   3.356   4.905   8.372  0.3905  0.4345  0.3442
 4173TIP3   OH234077   5.149   3.070   0.169  0.2860 -0.2555 -0.2378
 4173TIP3    H134078   5.118   3.143   0.116  1.4811 -0.3394 -1.0884
 4173TIP3    H234079   5.080   3.057   0.235  0.1292  1.7290  0.0399
 4174TIP3   OH234080   4.035   2.795   0.786  0.0322  0.3666  0.6856
 4174TIP3    H134081   3.940   2.800   0.782  0.0933  1.9930  0.2407
 4174TIP3    H234082   4.065   2.842   0.707  1.2028 -0.7783  0.4066
 4175TIP3   OH234083   1.712   5.217   8.752 -0.5709  0.7964 -0.4119
 4175TIP3    H134084   1.761   5.191   8.831  0.7084  2.9021 -0.4066
 4175TIP3    H234085   1.695   5.136   8.706  0.8581 -0.2712  0.8210
 4176TIP3   OH234086   6.501   0.706   1.017 -0.1889  0.8730 -0.6569
 4176TIP3    H134087   6.558   0.680   0.945 -1.5615 -2.0105 -0.8454
 4176TIP3    H234088   6.558   0.712   1.093  0.7301  0.5428 -1.3098
 4177TIP3   OH234089   0.167   1.673   9.024 -0.3054 -0.1876  0.2825
 4177TIP3    H134090   0.190   1.609   8.958  0.1926 -0.5503  0.7970
 4177TIP3    H234091   0.072   1.683   9.017 -0.3699 -0.8972  0.1247
 4178TIP3   OH234092   4.394   0.505   9.218  0.1132 -0.1024  0.6510
 4178TIP3    H134093   4.360   0.519   9.306  0.7442  0.5341  0.8041
 4178TIP3    H234094   4.473   0.558   9.215 -0.2513  0.3894 -0.5209
 4179TIP3   OH234095   2.567   2.877   2.210 -0.0238 -0.0639  0.0104
 4179TIP3    H134096   2.536   2.812   2.147 -0.8399  0.5017 -0.1831
 4179TIP3    H234097   2.575   2.957   2.159  0.4281  0.1294  0.3781
 4180TIP3   OH234098   6.296   2.785   1.923  0.3864 -0.3810  0.2800
 4180TIP3    H134099   6.293   2.741   1.838  1.4846 -1.8220  0.9539
 4180TIP3    H234100   6.302   2.714   1.987 -4.1643  0.3729  1.9396
 4181TIP3   OH234101   1.257   3.577   7.483  0.1987  0.6423 -0.4611
 4181TIP3    H134102   1.347   3.560   7.510  0.1223  1.9293  0.6851
 4181TIP3    H234103   1.263   3.656   7.429 -0.3142  1.0968  0.1402
 4182TIP3   OH234104   4.437   2.408   8.301 -0.2810 -0.8590 -0.5631
 4182TIP3    H134105   4.384   2.465   8.357  0.7366  0.4468 -0.8779
 4182TIP3    H234106   4.507   2.465   8.268 -0.8165 -1.5615 -3.1676
 4183TIP3   OH234107   2.385   4.256   8.255 -0.0129 -0.3427 -0.1729
 4183TIP3    H134108   2.334   4.270   8.175 -1.5152 -0.6082  0.7129
 4183TIP3    H234109   2.352   4.173   8.289  2.1257 -1.3463 -0.3774
 4184TIP3   OH234110   5.913   4.750   7.455  0.1028 -0.0947 -0.3379
 4184TIP3    H134111   5.833   4.766   7.504  1.3538 -2.1697  2.7390
 4184TIP3    H234112   5.957   4.835   7.452 -0.7541  0.4091  0.8440
 4185TIP3   OH234113   5.075   3.587   0.448 -0.0608 -0.8741  0.4330
 4185TIP3    H134114   5.010   3.650   0.481 -2.3692 -3.5587  1.4515
 4185TIP3    H234115   5.111   3.547   0.527  2.0133 -0.3051 -0.1678
 4186TIP3   OH234116   4.081   5.369   7.852  0.3571  0.2416 -0.3091
 4186TIP3    H134117   4.118   5.373   7.763  1.6443 -0.1368  0.1912
 4186TIP3    H234118   4.108   5.283   7.885  0.2576  0.5634  0.6234
 4187TIP3   OH234119   5.153   3.406   7.199 -0.2429  0.1960  0.2190
 4187TIP3    H134120   5.112   3.368   7.121  1.8397  0.0644 -0.8568
 4187TIP3    H234121   5.233   3.355   7.212  1.7441  2.9657 -0.2115
 4188TIP3   OH234122   5.882   6.432   8.185 -0.1306  0.4915 -0.3103
 4188TIP3    H134123   5.858   6.352   8.137  2.2802 -0.9121  0.5965
 4188TIP3    H234124   5.974   6.447   8.161  0.9643  0.1689  3.0993
 4189TIP3   OH234125   2.417   5.304   0.550  0.6873  0.7141 -0.0001
 4189TIP3    H134126   2.429   5.396   0.573 -2.5679  1.2485  0.0242
 4189TIP3    H234127   2.424   5.302   0.455 -1.4220  1.4794 -0.2207
 4190TIP3   OH234128   2.810   2.647   1.896  0.0577 -0.3602 -0.1496
 4190TIP3    H134129   2.871   2.583   1.933 -2.0292 -1.1105  2.2420
 4190TIP3    H234130   2.848   2.732   1.921  1.0024 -0.7355 -0.2402
 4191TIP3   OH234131   5.320   4.732   0.671 -0.3053  0.1481 -0.1686
 4191TIP3    H134132   5.314   4.675   0.747 -2.7405  0.5084  0.0095
 4191TIP3    H234133   5.372   4.683   0.607  0.7433 -0.6704  1.2693
 4192TIP3   OH234134   6.611   5.229   2.454  0.1388  0.2957  0.7763
 4192TIP3    H134135   6.582   5.139   2.436  0.0330  0.3522  0.6617
 4192TIP3    H234136   6.644   5.261   2.371 -0.0606  0.4500  0.7546
 4193TIP3   OH234137   5.844   6.444   7.208  0.0115 -0.4286  0.1550
 4193TIP3    H134138   5.820   6.511   7.272  0.8695  0.2120 -0.1750
 4193TIP3    H234139   5.814   6.362   7.247  0.7728 -0.0926  1.5212
 4194TIP3   OH234140   5.739   1.916   7.323 -0.1268 -0.0775 -0.4657
 4194TIP3    H134141   5.806   1.961   7.272 -0.6653  0.8659 -0.3690
 4194TIP3    H234142   5.763   1.823   7.318  0.9984  0.2075 -0.6854
 4195TIP3   OH234143   0.258   0.138   0.559  0.7113 -0.2790  0.1482
 4195TIP3    H134144   0.346   0.156   0.528  1.6801 -1.2180  2.1802
 4195TIP3    H234145   0.260   0.161   0.652 -0.5962 -2.1325  0.6934
 4196TIP3   OH234146   3.104   5.716   7.593  0.3295  0.0421  0.0613
 4196TIP3    H134147   3.044   5.651   7.630  0.9068 -0.4886  0.0745
 4196TIP3    H234148   3.046   5.783   7.557 -0.2819 -0.5670 -0.1165
 4197TIP3   OH234149   1.538   0.816   8.132  0.1982 -0.1829  0.2472
 4197TIP3    H134150   1.463   0.822   8.073 -0.8400 -1.9403  1.2903
 4197TIP3    H234151   1.606   0.775   8.080 -0.7783 -1.9248  0.2643
 4198TIP3   OH234152   3.309   3.560   1.603  0.1238 -0.8387 -0.2259
 4198TIP3    H134153   3.358   3.600   1.675 -1.1213  3.1531 -1.3690
 4198TIP3    H234154   3.377   3.526   1.544  1.4586  1.1315  0.0753
 4199TIP3   OH234155   3.161   3.101   0.090 -0.4625 -0.2470 -0.5472
 4199TIP3    H134156   3.094   3.152   0.043 -0.2695 -0.4549 -1.0552
 4199TIP3    H234157   3.236   3.160   0.096 -0.8774  0.2033  0.5503
 4200TIP3   OH234158   3.000   1.398   7.872 -0.0779  0.0898 -0.2780
 4200TIP3    H134159   3.061   1.362   7.808  0.1206 -3.2875  1.5676
 4200TIP3    H234160   2.917   1.353   7.853 -0.5808  0.6813  0.4585
 4201TIP3   OH234161   5.653   5.013   0.456 -0.0243 -0.1550  0.1450
 4201TIP3    H134162   5.703   5.094   0.450 -0.8694  0.2699 -2.1880
 4201TIP3    H234163   5.570   5.038   0.497 -0.4577  0.2786 -0.9695
 4202TIP3   OH234164   0.950   3.933   0.828 -0.1118 -0.7936  0.0661
 4202TIP3    H134165   1.007   3.994   0.875 -2.5791  1.8497 -0.1240
 4202TIP3    H234166   0.913   3.877   0.896  1.1692 -1.2437  0.4170
 4203TIP3   OH234167   2.619   4.745   7.974  0.3506 -0.3703  0.1851
 4203TIP3    H134168   2.632   4.657   8.008 -0.5491 -1.0626 -1.1538
 4203TIP3    H234169   2.527   4.746   7.946  1.0252  0.0896 -2.2220
 4204TIP3   OH234170   4.360   1.013   2.498  0.0947  0.4379 -0.5127
 4204TIP3    H134171   4.288   0.973   2.546  0.2063  0.6007 -0.2077
 4204TIP3    H234172   4.414   0.939   2.470 -0.2276  0.3102 -0.8098
 4205TIP3   OH234173   2.029   2.582   1.595 -0.4029 -0.4307 -0.5456
 4205TIP3    H134174   1.982   2.548   1.519  0.8809  0.3463 -1.7470
 4205TIP3    H234175   2.004   2.524   1.667 -1.9201 -0.9808 -1.4693
 4206TIP3   OH234176   1.753   4.517   1.646 -0.1284 -0.2897  0.1738
 4206TIP3    H134177   1.705   4.493   1.725  0.1501 -1.5154 -0.0056
 4206TIP3    H234178   1.696   4.491   1.574 -0.0621  0.1334 -0.0348
 4207TIP3   OH234179   4.399   5.378   2.644  0.4755  0.4653  0.6201
 4207TIP3    H134180   4.427   5.288   2.625  0.6115  0.5121  0.5910
 4207TIP3    H234181   4.460   5.408   2.712 -1.0766 -0.2896  2.4163
 4208TIP3   OH234182   6.314   5.471   7.916 -0.0858 -0.1720  0.3415
 4208TIP3    H134183   6.273   5.431   7.993  0.0507 -0.8364  0.0781
 4208TIP3    H234184   6.324   5.399   7.854  0.9213  0.1024  0.1656
 4209TIP3   OH234185   0.486   5.132   0.946 -0.0901 -0.0553  0.4945
 4209TIP3    H134186   0.553   5.150   1.012 -0.9948  0.9415  1.1786
 4209TIP3    H234187   0.416   5.087   0.993  0.3678 -1.7604 -0.3631
 4210TIP3   OH234188   4.857   3.611   8.245 -0.6041  0.3671  0.1678
 4210TIP3    H134189   4.935   3.587   8.295 -0.5842  1.6955  0.8015
 4210TIP3    H234190   4.856   3.548   8.172  0.9929  0.2447  0.2014
 4211TIP3   OH234191   4.789   4.499   2.115 -0.2501  0.0422 -0.8039
 4211TIP3    H134192   4.840   4.447   2.178 -1.2738  0.2174  0.2002
 4211TIP3    H234193   4.835   4.486   2.032 -0.4971 -2.5588 -0.6298
 4212TIP3   OH234194   3.610   2.102   8.536 -0.2556  0.6111 -0.5277
 4212TIP3    H134195   3.524   2.107   8.493  0.7451  0.3011 -2.7310
 4212TIP3    H234196   3.646   2.190   8.529  0.4807  0.2499 -1.6828
 4213TIP3   OH234197   4.339   6.365   8.864 -0.2761 -0.2145  0.2681
 4213TIP3    H134198   4.429   6.340   8.842 -0.0209  0.4065  0.5991
 4213TIP3    H234199   4.324   6.329   8.951 -0.7432 -1.2879 -0.2332
 4214TIP3   OH234200   5.849   4.515   0.492  0.4295 -0.7976  0.0882
 4214TIP3    H134201   5.796   4.592   0.513  1.5332 -0.1778  0.6499
 4214TIP3    H234202   5.806   4.442   0.537  1.3365  0.0812  2.5356
 4215TIP3   OH234203   5.022   3.739   1.381  0.1022  0.2386  0.5900
 4215TIP3    H134204   5.022   3.745   1.477  0.2061 -1.2989  0.7106
 4215TIP3    H234205   4.947   3.791   1.354  1.3390  2.5644  1.3308
 4216TIP3   OH234206   6.322   5.905   2.127 -0.4960  0.3538 -0.1334
 4216TIP3    H134207   6.245   5.961   2.124 -1.0822 -0.3415  1.2086
 4216TIP3    H234208   6.312   5.848   2.050  0.2740  2.2183 -1.6942
 4217TIP3   OH234209   1.025   0.364   2.421  0.0021 -0.4776 -0.0435
 4217TIP3    H134210   1.069   0.280   2.411  0.2000 -0.3810  0.0168
 4217TIP3    H234211   1.081   0.414   2.481 -0.1949 -0.3609  0.0445
 4218TIP3   OH234212   6.149   3.777   0.185  0.0456 -0.1173  0.2752
 4218TIP3    H134213   6.077   3.828   0.223  0.1462 -0.7798  1.4074
 4218TIP3    H234214   6.204   3.842   0.142 -0.4496  0.5881  0.6795
 4219TIP3   OH234215   2.286   3.433   2.795 -0.5987 -0.1186 -0.1596
 4219TIP3    H134216   2.341   3.380   2.736 -1.2912 -0.2364 -0.7146
 4219TIP3    H234217   2.214   3.375   2.819  1.1226 -1.1544  3.2353
 4220TIP3   OH234218   0.198   4.890   0.856 -0.1266 -0.1866  0.4555
 4220TIP3    H134219   0.109   4.903   0.888 -1.4308 -1.4884 -2.2262
 4220TIP3    H234220   0.220   4.801   0.883 -0.3597 -0.4845 -0.2959
 4221TIP3   OH234221   4.653   2.590   8.231 -0.4187 -0.5701  0.1768
 4221TIP3    H134222   4.612   2.642   8.162  1.4763 -0.5329 -0.9861
 4221TIP3    H234223   4.739   2.566   8.196  0.0446 -1.7675  1.9668
 4222TIP3   OH234224   1.464   0.689   1.294  0.5869 -0.0125  0.0286
 4222TIP3    H134225   1.530   0.757   1.279 -2.1493  3.0174  0.8252
 4222TIP3    H234226   1.458   0.682   1.389  1.0738 -1.7791 -0.0193
 4223TIP3   OH234227   6.319   1.869   2.227  0.0961  0.2634  0.8581
 4223TIP3    H134228   6.273   1.952   2.216 -0.0567  0.0958  0.1769
 4223TIP3    H234229   6.282   1.832   2.307  0.1892  0.8650  1.1817
 4224TIP3   OH234230   0.681   0.561   0.415 -0.1093 -0.3576 -0.2895
 4224TIP3    H134231   0.626   0.630   0.453  0.5770 -0.0575  0.1830
 4224TIP3    H234232   0.749   0.608   0.367  0.3505 -0.6917  0.0171
 4225TIP3   OH234233   0.631   1.227   8.906  1.0205 -0.5213 -0.4752
 4225TIP3    H134234   0.587   1.288   8.966  0.3587 -0.2025 -1.2660
 4225TIP3    H234235   0.658   1.154   8.962  1.3246  0.2299  0.3875
 4226TIP3   OH234236   5.940   5.702   2.304 -0.3366 -0.7503 -0.4585
 4226TIP3    H134237   5.897   5.632   2.354 -2.7169 -0.4386 -1.9420
 4226TIP3    H234238   5.893   5.782   2.328  1.2188  0.1038 -0.1087
 4227TIP3   OH234239   1.785   1.929   0.024  0.0164  0.2333  0.2174
 4227TIP3    H134240   1.732   1.856   0.056 -1.4773  1.0332 -0.3624
 4227TIP3    H234241   1.730   2.006   0.035  0.6108  0.9454 -1.4452
 4228TIP3   OH234242   2.590   6.553   1.291  0.1162  0.0107  0.3511
 4228TIP3    H134243   2.587   6.562   1.386 -1.2864 -1.1001  0.4460
 4228TIP3    H234244   2.645   6.476   1.276 -0.8009 -0.6663  0.3602
 4229TIP3   OH234245   2.383   2.275   0.175  0.2613 -0.0712 -0.0680
 4229TIP3    H134246   2.448   2.220   0.131  0.5117  0.6905 -0.6717
 4229TIP3    H234247   2.313   2.214   0.199  1.8257 -1.1829  1.9767
 4230TIP3   OH234248   5.418   0.565   0.525 -0.1302 -0.6606  0.5454
 4230TIP3    H134249   5.377   0.640   0.483 -0.6918 -2.1593 -1.7807
 4230TIP3    H234250   5.511   0.573   0.503 -0.6120 -2.2972 -2.7282
 4231TIP3   OH234251   4.644   1.142   8.844  0.6093  0.0716  0.0145
 4231TIP3    H134252   4.625   1.092   8.764  0.8179  0.1335 -0.0738
 4231TIP3    H234253   4.563   1.189   8.862 -0.0883 -1.3944  0.9066
 4232TIP3   OH234254   3.916   5.848   1.201 -1.1423 -0.0762 -0.4791
 4232TIP3    H134255   3.913   5.916   1.134 -0.6404  1.5753  1.0957
 4232TIP3    H234256   3.825   5.820   1.212 -1.6658  1.7652  0.2014
 4233TIP3   OH234257   0.767   6.345   3.168 -0.1142 -0.4728  0.6394
 4233TIP3    H134258   0.677   6.330   3.195  0.0365  0.1737  1.5341
 4233TIP3    H234259   0.818   6.335   3.248  0.5292 -0.1463  0.2801
 4234TIP3   OH234260   5.183   4.835   1.280 -0.1237  0.0457 -0.2022
 4234TIP3    H134261   5.130   4.841   1.200  0.6518 -0.0213 -0.7323
 4234TIP3    H234262   5.197   4.926   1.306  0.2954  0.0979 -0.6016
 4235TIP3   OH234263   0.507   0.934   0.958 -0.2499 -0.3764  0.0538
 4235TIP3    H134264   0.544   1.006   1.009  1.4208 -0.0268 -1.5121
 4235TIP3    H234265   0.582   0.900   0.908 -1.4424 -1.7962 -0.8461
 4236TIP3   OH234266   4.951   0.909   1.776 -0.5906 -0.3748  0.1711
 4236TIP3    H134267   5.029   0.939   1.729 -1.1447 -0.3669 -0.7558
 4236TIP3    H234268   4.977   0.911   1.868 -0.4002  2.4315  0.1523
 4237TIP3   OH234269   4.222   3.372   8.615 -0.4387 -0.2006 -0.9393
 4237TIP3    H134270   4.262   3.290   8.586 -1.1145 -0.6094 -0.7591
 4237TIP3    H234271   4.128   3.351   8.621 -0.8971  1.0712 -2.6456
 4238TIP3   OH234272   2.321   3.066   8.798  0.0578  0.0430  0.4207
 4238TIP3    H134273   2.285   2.992   8.750  0.0665  0.5003 -0.3151
 4238TIP3    H234274   2.300   3.142   8.744  1.2704  0.4277  0.4582
 4239TIP3   OH234275   6.406   5.596   8.186 -0.2348 -0.6414  0.0357
 4239TIP3    H134276   6.347   5.637   8.123 -0.5742 -0.8873  0.1895
 4239TIP3    H234277   6.395   5.502   8.171  0.5823 -0.6909 -0.3613
 4240TIP3   OH234278   1.140   2.187   9.218 -0.1483 -0.1638 -0.3827
 4240TIP3    H134279   1.194   2.108   9.210 -1.4752 -1.2057  0.5531
 4240TIP3    H234280   1.135   2.221   9.129 -0.5193 -1.8010 -1.0181
 4241TIP3   OH234281   1.399   1.384   8.071  0.4738 -0.0507  0.1849
 4241TIP3    H134282   1.303   1.378   8.071  0.2621  1.0367  4.1671
 4241TIP3    H234283   1.428   1.293   8.082 -0.1194 -0.2786 -0.0533
 4242TIP3   OH234284   0.358   3.219   2.236 -0.1030  0.1657 -0.4666
 4242TIP3    H134285   0.282   3.249   2.285  0.6332  0.0091  0.8079
 4242TIP3    H234286   0.325   3.204   2.147 -1.9586 -1.4628  0.4195
 4243TIP3   OH234287   6.389   2.673   7.767 -0.1310  0.3279  0.1904
 4243TIP3    H134288   6.363   2.668   7.859 -0.4247  0.2467  0.1041
 4243TIP3    H234289   6.463   2.735   7.766 -1.0142  1.4136  0.2897
 4244TIP3   OH234290   2.094   5.066   1.623 -0.7331  0.5393 -0.3320
 4244TIP3    H134291   2.132   4.980   1.640  0.3369  1.1729  0.6591
 4244TIP3    H234292   2.124   5.088   1.534 -1.8133 -0.4926 -0.9739
 4245TIP3   OH234293   0.426   0.527   0.241 -0.3560  0.5367 -0.2915
 4245TIP3    H134294   0.455   0.530   0.332  0.3390  0.4529 -0.5047
 4245TIP3    H234295   0.471   0.601   0.199 -2.3048  1.9036 -0.1128
 4246TIP3   OH234296   0.021   3.279   2.927 -0.1511  0.3900 -0.0104
 4246TIP3    H134297   0.041   3.242   3.013 -1.5908 -0.1176  0.1442
 4246TIP3    H234298   0.053   3.369   2.932  0.5338  0.1226  0.7556
 4247TIP3   OH234299   0.027   4.133   1.096  0.5408 -0.4693  0.0227
 4247TIP3    H134300  -0.003   4.112   1.007 -1.3194  2.4357 -0.1674
 4247TIP3    H234301   0.117   4.162   1.084  0.6079 -0.9713 -0.7750
 4248TIP3   OH234302   1.956   4.690   1.679  0.4602 -0.2198 -0.3447
 4248TIP3    H134303   1.888   4.628   1.654 -0.3766  0.4332  0.2769
 4248TIP3    H234304   2.018   4.688   1.606 -0.9737  0.2873 -1.6075
 4249TIP3   OH234305   1.204   6.401   3.299  0.1179 -0.1396  0.1462
 4249TIP3    H134306   1.206   6.483   3.349  0.6599  0.3015 -0.5818
 4249TIP3    H234307   1.296   6.386   3.274 -0.1106 -0.4669 -0.5267
 4250TIP3   OH234308   4.671   0.836   0.843 -0.6329  0.5589  0.0238
 4250TIP3    H134309   4.729   0.834   0.920 -1.0620  0.9521  0.3636
 4250TIP3    H234310   4.656   0.744   0.823 -2.8701  0.3485  2.2257
 4251TIP3   OH234311   4.639   2.537   8.586 -0.2473 -0.1276  0.4548
 4251TIP3    H134312   4.545   2.555   8.596 -0.6985 -0.4789 -2.2844
 4251TIP3    H234313   4.677   2.622   8.565 -0.2416 -0.2392 -0.0016
 4252TIP3   OH234314   3.830   1.934   1.754 -0.4989 -0.0769  0.4755
 4252TIP3    H134315   3.882   1.992   1.809 -0.4194  0.4944 -0.1803
 4252TIP3    H234316   3.748   1.922   1.802  0.2912 -1.1289  1.6018
 4253TIP3   OH234317   5.295   0.638   0.880 -0.1592 -0.2592  0.6032
 4253TIP3    H134318   5.224   0.660   0.820  0.5928 -1.8009 -0.9311
 4253TIP3    H234319   5.255   0.645   0.967 -2.0456 -0.5544 -0.1872
 4254TIP3   OH234320   0.611   5.047   2.733 -0.3801  0.8424 -0.6380
 4254TIP3    H134321   0.586   5.026   2.823  0.1748 -1.4503 -0.9624
 4254TIP3    H234322   0.701   5.080   2.741 -0.3514  0.7002 -0.3344
 4255TIP3   OH234323   3.116   0.857   8.848  0.6579 -0.1379 -0.3428
 4255TIP3    H134324   3.181   0.844   8.918  0.7716 -0.5716 -0.5275
 4255TIP3    H234325   3.061   0.778   8.852  1.1049 -0.4946 -1.2160
 4256TIP3   OH234326   3.802   2.485   0.748 -0.6596  0.4227  0.3038
 4256TIP3    H134327   3.864   2.412   0.746 -0.9658  0.1599  0.2834
 4256TIP3    H234328   3.852   2.558   0.784  0.0276  0.5733 -0.8936
 4257TIP3   OH234329   6.565   0.546   1.618 -0.0986 -0.1596 -0.0517
 4257TIP3    H134330   6.482   0.558   1.573  0.9158  0.6407 -1.8039
 4257TIP3    H234331   6.617   0.622   1.593  2.0607 -1.8522 -1.0992
 4258TIP3   OH234332   2.284   1.413   2.356 -0.4989  0.0554 -0.3683
 4258TIP3    H134333   2.327   1.483   2.404  0.6857 -0.2346 -0.9509
 4258TIP3    H234334   2.324   1.333   2.391 -2.7331 -0.4767  1.2069
 4259TIP3   OH234335   1.173   1.865   1.894  0.7071  0.9441  0.0951
 4259TIP3    H134336   1.089   1.880   1.937  0.5292  2.0557 -0.5964
 4259TIP3    H234337   1.232   1.839   1.965 -0.5464 -1.4139  0.3948
 4260TIP3   OH234338   4.709   4.968   0.845  0.0109 -0.5102  0.6381
 4260TIP3    H134339   4.667   5.050   0.872  1.3346  0.1911  0.6116
 4260TIP3    H234340   4.676   4.902   0.907 -0.6325  0.1454  1.0048
 4261TIP3   OH234341   1.783   3.665   8.616 -0.3927  0.6106  0.8876
 4261TIP3    H134342   1.805   3.672   8.709  0.1913  1.3940  0.7007
 4261TIP3    H234343   1.815   3.746   8.578  1.0045 -0.4495 -0.3104
 4262TIP3   OH234344   0.882   4.785   2.548 -0.0473 -0.2891  0.0671
 4262TIP3    H134345   0.799   4.812   2.508 -0.7425 -0.8053  1.1196
 4262TIP3    H234346   0.916   4.866   2.588 -1.1205 -0.4837  1.4640
 4263TIP3   OH234347   3.136   3.974   1.227  0.4975 -0.5071  0.1328
 4263TIP3    H134348   3.115   3.984   1.319 -0.0450  1.0674 -0.1255
 4263TIP3    H234349   3.051   3.974   1.182  0.7911  0.6923 -0.4907
 4264TIP3   OH234350   5.409   0.284   3.019 -0.5072  0.0707 -0.1396
 4264TIP3    H134351   5.443   0.312   2.934 -0.6573 -0.3434 -0.3363
 4264TIP3    H234352   5.389   0.366   3.064  1.1698  0.3439  0.1668
 4265TIP3   OH234353   5.862   4.183   8.281 -0.1152 -0.1708 -0.9289
 4265TIP3    H134354   5.863   4.147   8.193 -0.1332 -3.5755  0.3190
 4265TIP3    H234355   5.936   4.140   8.325 -0.1774  1.3329  0.7646
 4266TIP3   OH234356   5.306   4.193   1.983 -0.3650  0.2897 -0.8358
 4266TIP3    H134357   5.381   4.247   1.960 -1.2420  2.2243  0.5789
 4266TIP3    H234358   5.325   4.162   2.072 -0.0615 -1.4628 -1.4746
 4267TIP3   OH234359   4.058   2.417   8.192 -0.1408  0.4948 -0.2960
 4267TIP3    H134360   4.072   2.438   8.284  0.1328 -0.2603 -0.1566
 4267TIP3    H234361   4.138   2.372   8.164  1.0802  3.3276 -1.7556
 4268TIP3   OH234362   6.215   0.583   9.087 -0.0221  0.1063 -0.6757
 4268TIP3    H134363   6.259   0.650   9.139 -1.2633  0.4583 -0.0478
 4268TIP3    H234364   6.137   0.626   9.053 -0.7484 -0.9624 -0.4018
 4269TIP3   OH234365   0.932   6.416   0.923  0.1580  0.4441 -0.3525
 4269TIP3    H134366   0.859   6.360   0.895  2.1884 -2.4668 -0.2732
 4269TIP3    H234367   0.902   6.453   1.006 -0.8817 -1.6102  0.2785
 4270TIP3   OH234368   0.884   6.009   3.055  0.1426  0.3203  0.2786
 4270TIP3    H134369   0.868   5.929   3.106  0.9809  0.7604  1.2588
 4270TIP3    H234370   0.978   6.023   3.061  0.4127 -0.0457 -2.0938
 4271TIP3   OH234371   3.374   1.266   0.386 -0.2333 -0.1727 -0.4043
 4271TIP3    H134372   3.417   1.191   0.346  0.1138 -0.5711  0.6649
 4271TIP3    H234373   3.349   1.322   0.313  1.6085 -0.1998 -1.1058
 4272TIP3   OH234374   0.429   1.028   7.785  0.1198 -0.6892 -0.1729
 4272TIP3    H134375   0.445   0.979   7.704  0.1526 -0.1022 -0.5283
 4272TIP3    H234376   0.399   0.962   7.847 -2.8498 -0.7652 -1.4969
 4273TIP3   OH234377   5.660   1.367   7.691 -0.4382 -0.1471 -0.2348
 4273TIP3    H134378   5.718   1.443   7.698 -0.4894 -0.0197 -1.0984
 4273TIP3    H234379   5.611   1.367   7.773 -1.6003  1.7043 -0.8576
 4274TIP3   OH234380   3.979   0.412   2.316  0.2827 -0.5610  0.3650
 4274TIP3    H134381   3.914   0.429   2.247  0.0551 -2.3303  0.0991
 4274TIP3    H234382   3.943   0.455   2.394 -0.0397  0.4549 -0.3156
 4275TIP3   OH234383   5.732   1.786   0.918 -0.0293  0.8155  0.1055
 4275TIP3    H134384   5.718   1.804   1.011  0.4362 -1.6468  0.7191
 4275TIP3    H234385   5.649   1.751   0.887  0.5076 -0.6482  0.2408
 4276TIP3   OH234386   1.338   1.080   8.826 -0.2301  0.6831  0.0716
 4276TIP3    H134387   1.390   1.160   8.825 -1.3242  1.4806  2.0434
 4276TIP3    H234388   1.354   1.042   8.913 -1.5246  0.0097  0.0430
 4277TIP3   OH234389   3.139   5.336   2.232  0.2477  0.7672  0.2683
 4277TIP3    H134390   3.179   5.362   2.314 -0.7235 -0.2581  1.0923
 4277TIP3    H234391   3.192   5.263   2.200 -0.4464 -0.0567  0.9485
 4278TIP3   OH234392   2.720   4.872   0.946  0.1099 -0.5643  0.4174
 4278TIP3    H134393   2.715   4.883   0.851  2.0387 -1.5033  0.1506
 4278TIP3    H234394   2.657   4.803   0.966  0.0465 -0.7033 -0.2532
 4279TIP3   OH234395   1.699   5.118   0.882  0.0729  0.5772 -0.0471
 4279TIP3    H134396   1.708   5.083   0.970 -0.0926  1.5552  0.3657
 4279TIP3    H234397   1.640   5.056   0.838 -0.0300  0.2140  0.5903
 4280TIP3   OH234398   5.447   6.468   0.567 -0.1912 -0.3426 -0.2765
 4280TIP3    H134399   5.521   6.407   0.558 -0.3371 -0.5459 -0.1158
 4280TIP3    H234400   5.432   6.499   0.478 -0.0718 -0.4910 -0.3512
 4281TIP3   OH234401   2.537   2.723   0.413 -0.4266 -0.2026  0.0432
 4281TIP3    H134402   2.442   2.731   0.423 -0.5326 -1.6797  0.3175
 4281TIP3    H234403   2.548   2.659   0.343  0.3454 -1.8366  1.5914
 4282TIP3   OH234404   4.026   4.477   7.686  0.4991 -0.1171 -0.2268
 4282TIP3    H134405   3.931   4.471   7.693  0.5984 -1.0223  0.6481
 4282TIP3    H234406   4.042   4.557   7.635 -0.7367 -0.3678 -1.0431
 4283TIP3   OH234407   2.386   6.590   0.848 -0.4985  0.3056 -0.3622
 4283TIP3    H134408   2.300   6.625   0.827  0.0498  2.0763  0.1754
 4283TIP3    H234409   2.446   6.635   0.788  0.3024  0.7700  0.7475
 4284TIP3   OH234410   2.277   0.812   8.468 -0.2392  0.1135 -0.7602
 4284TIP3    H134411   2.340   0.768   8.525 -0.9928  0.0893  0.0724
 4284TIP3    H234412   2.270   0.901   8.503  0.3731  0.5488 -1.7084
 4285TIP3   OH234413   6.337   6.513   2.333  0.7510 -0.0954 -0.1254
 4285TIP3    H134414   6.367   6.590   2.284  0.9535 -1.1040 -1.6649
 4285TIP3    H234415   6.248   6.498   2.302  0.7760 -0.5756  0.0292
 4286TIP3   OH234416   2.065   0.792   2.549  0.0650 -0.5969 -0.5523
 4286TIP3    H134417   2.135   0.838   2.594  1.8665 -3.0931 -0.6230
 4286TIP3    H234418   2.001   0.860   2.529  1.8716  1.5717  0.5987
 4287TIP3   OH234419   0.508   5.620   0.329 -0.0854  0.2949  0.4375
 4287TIP3    H134420   0.461   5.606   0.411 -0.0490  0.7870  0.5439
 4287TIP3    H234421   0.442   5.655   0.269 -0.5707 -1.7562 -0.3127
 4288TIP3   OH234422   2.780   3.193   0.952  0.4826 -0.5507  0.3787
 4288TIP3    H134423   2.731   3.113   0.971  0.6461 -1.6856 -3.1955
 4288TIP3    H234424   2.716   3.253   0.914  0.8772 -0.0101  0.5509
 4289TIP3   OH234425   1.725   0.603   8.106  0.3709  0.3400  0.2922
 4289TIP3    H134426   1.655   0.538   8.096 -0.8298  1.4052  1.3821
 4289TIP3    H234427   1.723   0.653   8.024  0.0448  0.1798  0.2018
 4290TIP3   OH234428   3.535   1.482   2.082  0.2052  0.1849 -0.6137
 4290TIP3    H134429   3.568   1.553   2.027  0.5064  0.5376  0.0096
 4290TIP3    H234430   3.603   1.470   2.148 -0.3866  0.1207 -0.0063
 4291TIP3   OH234431   6.507   4.135   1.490  0.6876  0.4788  0.7887
 4291TIP3    H134432   6.585   4.124   1.544  0.9275  4.1098  1.4502
 4291TIP3    H234433   6.434   4.124   1.551  0.7813 -0.0671  0.8051
 4292TIP3   OH234434   3.242   2.842   1.969  0.3500 -0.6362 -0.1894
 4292TIP3    H134435   3.287   2.822   2.051 -1.2877  0.1624  0.9587
 4292TIP3    H234436   3.203   2.759   1.942 -0.8503 -0.4744  0.9799
 4293TIP3   OH234437   1.186   4.126   7.665 -0.2381 -0.1806  0.5965
 4293TIP3    H134438   1.213   4.215   7.687  0.1248 -0.5947  1.8748
 4293TIP3    H234439   1.092   4.133   7.648  0.2641  0.9952 -2.4123
 4294TIP3   OH234440   1.202   6.007   3.130  0.2552 -0.0883 -0.2851
 4294TIP3    H134441   1.283   5.999   3.080  0.5312  1.2236 -0.0747
 4294TIP3    H234442   1.189   6.101   3.142 -0.2697 -0.3281  1.3336
 4295TIP3   OH234443   2.667   2.485   1.248  0.0774 -0.4424 -0.1685
 4295TIP3    H134444   2.607   2.410   1.247  1.4458 -1.5909  0.7186
 4295TIP3    H234445   2.728   2.468   1.176 -0.2742  0.4159 -0.6843
 4296TIP3   OH234446   3.551   6.582   0.879 -0.7212  0.2894 -0.1461
 4296TIP3    H134447   3.565   6.552   0.790 -1.6863  0.9937 -0.5508
 4296TIP3    H234448   3.633   6.562   0.925 -1.0949 -2.3809 -0.5314
 4297TIP3   OH234449   0.294   0.046   1.240  0.3251 -0.2553  0.7936
 4297TIP3    H134450   0.338  -0.032   1.206  0.3742  0.5468 -1.1127
 4297TIP3    H234451   0.215   0.055   1.186  0.3301  1.0051  0.9511
 4298TIP3   OH234452   3.772   2.004   2.788 -0.5881  0.6275  0.1922
 4298TIP3    H134453   3.736   2.077   2.838  1.9518  1.9978  0.1839
 4298TIP3    H234454   3.866   2.022   2.783 -0.1090 -1.7933 -1.2688
 4299TIP3   OH234455   5.073   3.566   0.176  0.1015  0.3413  0.1174
 4299TIP3    H134456   5.153   3.591   0.129  0.0046 -0.6910 -0.6258
 4299TIP3    H234457   5.097   3.572   0.269  1.1023 -0.1467 -0.0914
 4300TIP3   OH234458   6.032   4.691   1.081  0.4244 -0.5696 -0.4426
 4300TIP3    H134459   6.106   4.689   1.141  0.7670 -1.4113 -0.8761
 4300TIP3    H234460   6.067   4.660   0.998 -0.6727 -2.2484 -0.3339
 4301TIP3   OH234461   0.222   4.565   1.593 -0.0788 -0.1046  0.0447
 4301TIP3    H134462   0.229   4.469   1.594  0.6261 -0.0619  0.2722
 4301TIP3    H234463   0.214   4.589   1.685 -0.3148  0.0526 -0.0166
 4302TIP3   OH234464   6.592   3.217   2.690 -0.0696  0.0619  0.1479
 4302TIP3    H134465   6.627   3.257   2.769 -0.1364 -1.3011  0.9137
 4302TIP3    H234466   6.498   3.238   2.691  0.2104  1.4178 -0.4584
 4303TIP3   OH234467   4.747   5.243   1.576  0.5399 -0.0336  0.4396
 4303TIP3    H134468   4.714   5.323   1.535  3.4172  1.0658  0.0665
 4303TIP3    H234469   4.668   5.196   1.602 -1.3246  3.0944  1.0647
 4304TIP3   OH234470   1.412   0.537   2.051  0.0542 -0.1923  0.3299
 4304TIP3    H134471   1.458   0.597   2.110 -0.2414 -0.7836  1.1880
 4304TIP3    H234472   1.469   0.460   2.045 -0.6181 -0.7745  1.1032
 4305TIP3   OH234473   4.672   4.434   1.198 -0.6773 -0.6607  0.1341
 4305TIP3    H134474   4.617   4.375   1.251 -1.8603 -1.0999 -1.4827
 4305TIP3    H234475   4.616   4.510   1.181  0.0661 -0.0478  0.3988
 4306TIP3   OH234476   2.771   1.364   8.855  0.1178 -0.5611 -0.4079
 4306TIP3    H134477   2.811   1.446   8.883 -0.3696 -0.4773  0.0652
 4306TIP3    H234478   2.687   1.391   8.817  0.5771 -0.7106 -1.5686
 4307TIP3   OH234479   3.752   1.165   7.918 -0.2353  0.0590 -0.1130
 4307TIP3    H134480   3.825   1.192   7.862  0.0084 -2.4268 -1.1617
 4307TIP3    H234481   3.715   1.246   7.951  1.2755  1.5213 -1.7983
 4308TIP3   OH234482   2.679   4.231   0.131  0.3699 -0.2682  0.0574
 4308TIP3    H134483   2.702   4.145   0.166  1.5083  0.3319  0.8648
 4308TIP3    H234484   2.584   4.228   0.120  0.2823 -1.3264  0.9204
 4309TIP3   OH234485   0.454   6.337   1.646  0.9569  0.2028  0.3010
 4309TIP3    H134486   0.537   6.370   1.680  0.6187 -0.9515  2.4557
 4309TIP3    H234487   0.477   6.266   1.588  1.4967  0.3302  0.3568
 4310TIP3   OH234488   0.844   3.007   2.824  0.9374 -0.0643 -0.1060
 4310TIP3    H134489   0.749   3.002   2.815  0.8357  2.2663 -1.1339
 4310TIP3    H234490   0.859   3.011   2.918 -0.1246  0.9463  0.0516
 4311TIP3   OH234491   3.205   4.079   0.817 -0.5175 -0.6835  0.2161
 4311TIP3    H134492   3.250   4.069   0.733 -2.1904 -0.7028 -0.7170
 4311TIP3    H234493   3.172   3.991   0.837  0.4483 -0.8316  1.2690
 4312TIP3   OH234494   0.019   5.446   1.273 -0.2210  0.5301 -0.4718
 4312TIP3    H134495   0.071   5.401   1.207  1.2292  0.8714  0.4052
 4312TIP3    H234496   0.063   5.427   1.356 -0.5861  2.0963  0.1258
 4313TIP3   OH234497   3.354   1.577   2.281  0.5835  0.1214  0.1498
 4313TIP3    H134498   3.350   1.519   2.356  0.4376  0.7330  0.6298
 4313TIP3    H234499   3.406   1.531   2.216 -0.4428 -1.0085  0.1012
 4314TIP3   OH234500   0.973   0.955   8.400  0.2135 -0.1747  0.0903
 4314TIP3    H134501   0.955   1.019   8.330 -0.4045  0.6752  1.0005
 4314TIP3    H234502   0.928   0.990   8.477 -1.3956 -2.4232  0.2886
 4315TIP3   OH234503   1.127   4.017   9.251 -0.0954  0.0297 -0.2389
 4315TIP3    H134504   1.032   4.027   9.248 -0.2513 -1.0097  0.6370
 4315TIP3    H234505   1.144   3.981   9.338  1.0694 -0.1630 -0.5390
 4316TIP3   OH234506   5.201   5.055   1.783  0.1249 -0.0106  0.3390
 4316TIP3    H134507   5.121   5.003   1.786  0.5261 -0.6277  0.5305
 4316TIP3    H234508   5.225   5.058   1.690  0.5504 -0.8732  0.4153
 4317TIP3   OH234509   6.067   5.604   2.972  0.9509 -0.5758  0.0637
 4317TIP3    H134510   6.101   5.599   3.061  1.6148  0.4163 -0.1207
 4317TIP3    H234511   6.009   5.529   2.964  0.9051 -0.6892  1.3254
 4318TIP3   OH234512   3.433   3.220   2.613 -0.1046  0.1624 -0.0784
 4318TIP3    H134513   3.494   3.160   2.570 -1.0696 -0.6051 -0.4252
 4318TIP3    H234514   3.479   3.303   2.618  1.2852 -0.6084  0.4184
 4319TIP3   OH234515   1.806   4.685   8.511  0.5761  0.3865 -0.4410
 4319TIP3    H134516   1.761   4.614   8.556  0.7818  2.3569  3.2707
 4319TIP3    H234517   1.762   4.692   8.426 -3.6720 -0.1826  1.4997
 4320TIP3   OH234518   1.239   3.787   9.113  0.1536  0.2008 -0.5006
 4320TIP3    H134519   1.157   3.738   9.116 -0.4149  1.0136 -1.8085
 4320TIP3    H234520   1.222   3.868   9.160  0.8507 -0.4709  0.9713
 4321TIP3   OH234521   2.402   6.261   8.819 -0.6196 -0.1687  0.2963
 4321TIP3    H134522   2.464   6.309   8.764 -1.5079  0.3815 -0.2556
 4321TIP3    H234523   2.432   6.170   8.816  2.1128  0.5010  2.7191
 4322TIP3   OH234524   5.094   2.837   3.353 -0.3642 -0.2102 -0.2532
 4322TIP3    H134525   5.097   2.742   3.348 -1.6818 -0.2522 -0.5797
 4322TIP3    H234526   5.040   2.864   3.278 -2.7780  0.5510  1.6221
 4323TIP3   OH234527   2.494   4.701   1.878 -0.3316 -0.2649  0.3087
 4323TIP3    H134528   2.488   4.612   1.843 -0.8764 -0.5296  1.0562
 4323TIP3    H234529   2.570   4.698   1.937 -0.0808 -0.1111 -0.0025
 4324TIP3   OH234530   5.004   1.360   1.793  0.6515 -0.2280 -0.2059
 4324TIP3    H134531   5.015   1.455   1.782 -0.7584 -0.2398 -2.0909
 4324TIP3    H234532   4.932   1.337   1.735  1.3056 -2.5645 -0.1819
 4325TIP3   OH234533   2.612   5.711   0.297 -0.1135  0.0309  0.7345
 4325TIP3    H134534   2.680   5.741   0.358  0.1383  0.7911  0.0838
 4325TIP3    H234535   2.541   5.682   0.354  0.5159 -0.2119  1.4119
 4326TIP3   OH234536   0.574   4.867   0.488 -0.3951 -0.0617  0.6923
 4326TIP3    H134537   0.546   4.957   0.470 -1.2492 -0.3321  0.6250
 4326TIP3    H234538   0.512   4.835   0.553 -0.6699 -0.9059  0.0357
 4327TIP3   OH234539   2.373   0.682   2.303  0.1626  0.1556  0.2647
 4327TIP3    H134540   2.331   0.765   2.325  0.0885 -0.1339  1.2732
 4327TIP3    H234541   2.460   0.706   2.272 -0.6042  0.7429 -1.5105
 4328TIP3   OH234542   2.522   4.762   7.487 -0.3190  0.2302 -0.2838
 4328TIP3    H134543   2.466   4.695   7.449  1.8708 -1.1477 -1.2319
 4328TIP3    H234544   2.462   4.816   7.539 -2.2660 -2.0432 -0.0009
 4329TIP3   OH234545   1.346   1.669   7.099 -0.2006  0.4913  0.2753
 4329TIP3    H134546   1.395   1.751   7.103  0.4639  0.1944 -1.1525
 4329TIP3    H234547   1.261   1.694   7.062 -0.4407  0.7032  0.9511
 4330TIP3   OH234548   2.155   4.553   2.776 -0.4236  0.0164  0.5241
 4330TIP3    H134549   2.229   4.582   2.830 -0.6206  1.3966  0.0932
 4330TIP3    H234550   2.196   4.513   2.700 -0.1252  0.0254  0.6747
 4331TIP3   OH234551   2.158   6.291   8.960 -0.6406  0.4281  0.0159
 4331TIP3    H134552   2.097   6.254   8.895 -1.2645  1.7710 -0.2123
 4331TIP3    H234553   2.244   6.284   8.919 -0.8060 -0.3035 -0.2213
 4332TIP3   OH234554   2.702   5.769   9.171 -0.0793 -0.3456  0.2995
 4332TIP3    H134555   2.774   5.709   9.188 -1.0225 -0.9301  2.8354
 4332TIP3    H234556   2.734   5.854   9.201 -0.2047 -0.5003  0.9053
 4333TIP3   OH234557   5.399   6.187   0.708  0.2131  0.0698  0.2906
 4333TIP3    H134558   5.340   6.119   0.675 -0.5576  1.8918 -2.4354
 4333TIP3    H234559   5.342   6.260   0.729  1.1299  0.3223  2.1130
 4334TIP3   OH234560   5.967   2.352   2.874 -0.0064 -0.6114  0.0605
 4334TIP3    H134561   6.045   2.301   2.849 -0.3761 -0.7649 -0.8233
 4334TIP3    H234562   5.896   2.288   2.875 -0.3210 -0.2740 -0.2362
 4335TIP3   OH234563   4.969   2.550   3.349  0.1973  0.4667  0.0172
 4335TIP3    H134564   4.945   2.476   3.405 -0.8184  0.3535 -0.5437
 4335TIP3    H234565   4.888   2.572   3.304  1.2290 -0.2208 -2.3024
 4336TIP3   OH234566   0.619   5.757   1.770 -0.3668  0.0786 -0.1536
 4336TIP3    H134567   0.673   5.752   1.692  0.2224  0.7385  0.1968
 4336TIP3    H234568   0.552   5.690   1.758  0.7485 -1.0168 -0.4281
 4337TIP3   OH234569   1.406   1.751   2.114 -0.4847 -0.4356 -0.0563
 4337TIP3    H134570   1.319   1.747   2.155 -1.0174  0.8896 -0.9801
 4337TIP3    H234571   1.448   1.669   2.139 -0.8929  0.1398  2.8280
 4338TIP3   OH234572   6.144   3.440   9.227 -0.4007 -0.1468 -0.1624
 4338TIP3    H134573   6.115   3.368   9.283  0.0337 -0.9793 -0.9801
 4338TIP3    H234574   6.194   3.498   9.285 -1.2741 -0.1609  0.6399
 4339TIP3   OH234575   0.371   0.699   9.233 -0.1076 -0.1148  0.0935
 4339TIP3    H134576   0.397   0.758   9.162  0.3995  1.3549  1.4589
 4339TIP3    H234577   0.420   0.729   9.309 -2.7972  0.2216  1.8215
 4340TIP3   OH234578   4.222   2.702   7.760 -0.1494  0.3735 -0.4601
 4340TIP3    H134579   4.282   2.775   7.751 -0.1502  0.3656 -0.5302
 4340TIP3    H234580   4.238   2.647   7.683  1.4668 -0.8982  0.6974
 4341TIP3   OH234581   0.140   4.783   7.593 -0.3013  0.3860 -0.1152
 4341TIP3    H134582   0.136   4.858   7.532 -0.4230  0.1178 -0.4395
 4341TIP3    H234583   0.068   4.727   7.566 -1.3951  1.0442  1.3246
 4342TIP3   OH234584   5.739   2.046   1.475 -0.3265  0.2566 -0.1385
 4342TIP3    H134585   5.751   1.951   1.482  2.3599  0.2128 -3.0115
 4342TIP3    H234586   5.806   2.082   1.533 -1.4130  0.4600  1.0299
 4343TIP3   OH234587   1.054   3.470   2.394  0.4052  0.3350 -0.0762
 4343TIP3    H134588   1.079   3.456   2.485  0.1601  1.4437  0.1847
 4343TIP3    H234589   1.066   3.564   2.380 -1.6861  0.6015 -0.5006
 4344TIP3   OH234590   4.008   0.813   7.133  0.0321 -0.7256  0.0965
 4344TIP3    H134591   4.071   0.811   7.061 -0.9373  1.0188 -0.8688
 4344TIP3    H234592   4.051   0.764   7.204  1.0353 -2.4196 -1.6048
 4345TIP3   OH234593   5.506   5.884   0.018  0.1947  0.0182 -0.3217
 4345TIP3    H134594   5.411   5.897   0.022  0.4838  2.5450  0.3403
 4345TIP3    H234595   5.541   5.970  -0.005  2.3061 -1.0587 -1.4524
 4346TIP3   OH234596   6.364   4.025   1.993  0.0942 -0.1825  0.7987
 4346TIP3    H134597   6.282   4.057   1.954 -0.0682  0.2549  1.4724
 4346TIP3    H234598   6.335   3.976   2.070  0.3616 -1.7214 -0.0459
 4347TIP3   OH234599   4.065   5.413   8.970 -0.0385 -0.3159 -0.5351
 4347TIP3    H134600   4.062   5.467   9.049  1.6667 -0.2625 -0.4780
 4347TIP3    H234601   4.154   5.423   8.937 -0.1712 -1.8226 -1.4462
 4348TIP3   OH234602   4.420   1.540   0.414 -0.4370 -0.1561 -0.6437
 4348TIP3    H134603   4.350   1.594   0.378 -2.5267 -0.8883  1.9626
 4348TIP3    H234604   4.379   1.495   0.488  2.8426 -0.5301  1.1190
 4349TIP3   OH234605   1.749   4.818   0.614 -0.1643 -0.1825 -0.3252
 4349TIP3    H134606   1.769   4.748   0.676  1.3266  0.0476 -0.5039
 4349TIP3    H234607   1.834   4.850   0.586 -0.8154  0.2503 -1.9079
 4350TIP3   OH234608   1.885   6.195   1.749 -0.5747  0.1912  0.1585
 4350TIP3    H134609   1.830   6.123   1.780 -0.9329  0.7092  0.7573
 4350TIP3    H234610   1.826   6.269   1.742 -0.3482  0.2756 -1.1082
 4351TIP3   OH234611   0.955   1.603   2.048 -0.0166  0.2242  0.4656
 4351TIP3    H134612   1.046   1.591   2.019 -0.3432  1.1454 -1.0063
 4351TIP3    H234613   0.917   1.516   2.045 -0.0637  0.2755 -2.0841
 4352TIP3   OH234614   0.578   0.727   0.762  0.2790 -0.0843  0.2868
 4352TIP3    H134615   0.523   0.668   0.814 -0.6190  1.4656  1.1507
 4352TIP3    H234616   0.532   0.737   0.679 -0.5166  0.7985  0.8150
 4353TIP3   OH234617   0.664   2.624   1.125  0.6865 -0.1271  0.4710
 4353TIP3    H134618   0.592   2.580   1.170  1.2512 -0.6368  0.8900
 4353TIP3    H234619   0.737   2.621   1.186  1.9562 -2.2054 -1.0094
 4354TIP3   OH234620   6.017   2.650   7.221  0.0003  0.0645 -0.1031
 4354TIP3    H134621   5.989   2.741   7.209 -1.3729 -0.6669 -3.3934
 4354TIP3    H234622   5.935   2.602   7.234  0.7279 -0.7741  1.9254
 4355TIP3   OH234623   0.290   2.123   0.555 -0.0488  0.1852 -0.1680
 4355TIP3    H134624   0.247   2.114   0.640 -0.4470  2.6723 -0.0281
 4355TIP3    H234625   0.249   2.056   0.500 -0.7116 -0.5935  1.2199
 4356TIP3   OH234626   2.015   1.991   7.972  0.0855  0.1598 -0.4280
 4356TIP3    H134627   1.978   2.036   8.048  0.2891  0.7767 -0.6881
 4356TIP3    H234628   1.940   1.972   7.917  0.0997  1.0585 -0.7710
 4357TIP3   OH234629   6.116   2.526   7.961 -0.5582 -0.1478 -0.2818
 4357TIP3    H134630   6.195   2.533   8.015 -1.1351  1.6871  0.4023
 4357TIP3    H234631   6.061   2.600   7.989 -1.6700 -0.2213 -2.1035
 4358TIP3   OH234632   4.214   0.988   1.150 -0.0942 -0.8476  0.0027
 4358TIP3    H134633   4.162   1.052   1.200 -0.6839 -0.5202 -1.0073
 4358TIP3    H234634   4.217   1.023   1.061  1.0239 -1.3774 -0.1903
 4359TIP3   OH234635   3.654   6.608   1.747 -0.1747  0.3078  0.4361
 4359TIP3    H134636   3.652   6.572   1.835  2.0908  1.5359  1.0717
 4359TIP3    H234637   3.681   6.535   1.691 -0.9273 -0.2921  0.8453
 4360TIP3   OH234638   1.769   4.982   0.191 -0.6948  0.0438 -0.0868
 4360TIP3    H134639   1.695   4.922   0.185 -2.1220  1.5744  0.9020
 4360TIP3    H234640   1.804   4.987   0.103 -0.9507 -1.6975 -0.3135
 4361TIP3   OH234641   6.244   1.673   2.055 -0.2563 -0.0733 -0.2862
 4361TIP3    H134642   6.317   1.615   2.076 -0.4552 -0.5376 -0.8422
 4361TIP3    H234643   6.258   1.751   2.109  1.8608  0.7751 -1.9397
 4362TIP3   OH234644   0.039   2.333   8.195 -0.8065 -0.4099 -0.2226
 4362TIP3    H134645   0.021   2.412   8.245 -1.0391  0.1436 -1.1499
 4362TIP3    H234646   0.124   2.348   8.154 -1.0585 -0.4268 -0.7731
 4363TIP3   OH234647   4.317   0.312   8.548  0.1261  0.1825 -0.4748
 4363TIP3    H134648   4.317   0.287   8.641 -3.6499  1.5857  0.0969
 4363TIP3    H234649   4.236   0.273   8.514 -0.1200  2.1816 -2.3769
 4364TIP3   OH234650   3.953   0.026   7.976  0.2571 -0.1993  0.2521
 4364TIP3    H134651   3.949   0.085   8.051 -2.1209  0.9424 -0.6604
 4364TIP3    H234652   4.011   0.070   7.914  1.2270 -0.5339  0.9085
 4365TIP3   OH234653   5.615   5.976   8.426 -0.2994 -0.3059 -0.0636
 4365TIP3    H134654   5.524   5.972   8.454 -1.0566 -0.3491 -2.3000
 4365TIP3    H234655   5.659   5.908   8.477 -1.3313  0.1613  1.5354
 4366TIP3   OH234656   0.940   1.191   2.749  0.8200  0.1950 -0.1081
 4366TIP3    H134657   0.915   1.185   2.841  2.1225  0.7429  0.2920
 4366TIP3    H234658   0.897   1.116   2.708 -0.4363  0.4055  0.7740
 4367TIP3   OH234659   5.554   3.174   8.406  0.8602  0.5646 -0.3294
 4367TIP3    H134660   5.588   3.150   8.320  0.0282  1.1476 -0.8403
 4367TIP3    H234661   5.459   3.175   8.394  0.5825 -1.5213  1.1867
 4368TIP3   OH234662   6.627   5.445   8.040 -0.0497 -0.2672 -0.1841
 4368TIP3    H134663   6.547   5.490   8.066 -1.0735 -1.4438 -1.1476
 4368TIP3    H234664   6.653   5.394   8.116 -0.3925 -0.1280  0.0248
 4369TIP3   OH234665   3.541   6.548   7.692  0.2393  0.0092  0.3438
 4369TIP3    H134666   3.447   6.530   7.692 -0.0928  1.5193 -0.8340
 4369TIP3    H234667   3.559   6.582   7.780 -0.3280 -0.2249  0.5546
 4370TIP3   OH234668   5.120   2.183   1.948  0.0326  1.2631  0.7403
 4370TIP3    H134669   5.202   2.201   1.903  0.4824 -1.2433  0.4039
 4370TIP3    H234670   5.135   2.210   2.039  0.4302  2.8374  0.2338
 4371TIP3   OH234671   4.357   1.504   8.298  0.0257 -0.3149 -0.0534
 4371TIP3    H134672   4.359   1.521   8.392  1.6056  1.2401 -0.3152
 4371TIP3    H234673   4.436   1.453   8.281  1.2197  1.6874 -0.8618
 4372TIP3   OH234674   1.355   1.753   8.027 -0.3234  0.2831 -0.5555
 4372TIP3    H134675   1.436   1.794   8.057 -0.6115  0.0370  0.5926
 4372TIP3    H234676   1.325   1.702   8.101 -2.2962  1.4987 -0.4420
 4373TIP3   OH234677   2.808   3.580   0.117  0.6935  0.0577  0.1361
 4373TIP3    H134678   2.868   3.520   0.161  1.7656  2.3120  1.9950
 4373TIP3    H234679   2.768   3.631   0.188 -1.3600  0.4954 -1.2474
 4374TIP3   OH234680   6.487   6.190   8.753  0.1992  0.1917  0.9731
 4374TIP3    H134681   6.395   6.171   8.770 -0.2722  0.6284 -0.8376
 4374TIP3    H234682   6.487   6.280   8.718  1.1149 -0.2855 -0.3518
 4375TIP3   OH234683   5.006   5.546   2.102  0.0894  0.4715  0.5405
 4375TIP3    H134684   5.039   5.535   2.013  0.1050  0.4562  0.5480
 4375TIP3    H234685   4.915   5.572   2.091 -0.3702 -1.0287  0.5323
 4376TIP3   OH234686   6.203   1.911   0.495  0.4226 -0.5408 -0.1293
 4376TIP3    H134687   6.146   1.918   0.572  0.5258 -2.7952  0.2097
 4376TIP3    H234688   6.143   1.918   0.420  0.0859 -0.1783  0.1685
 4377TIP3   OH234689   1.220   4.024   2.254  0.6291 -0.0342 -0.4593
 4377TIP3    H134690   1.165   4.050   2.328  0.5212  0.4080 -0.6934
 4377TIP3    H234691   1.158   3.997   2.186  0.7354 -0.7812 -0.2702
 4378TIP3   OH234692   1.189   1.045   2.856  0.4946  0.1058  0.0289
 4378TIP3    H134693   1.150   0.963   2.886  0.5248  0.1613  0.2191
 4378TIP3    H234694   1.131   1.113   2.890  0.9236  0.2050  0.5649
 4379TIP3   OH234695   6.066   0.414   8.310 -0.0296 -0.0462  0.0534
 4379TIP3    H134696   6.035   0.368   8.232  1.3156 -1.1323  0.1337
 4379TIP3    H234697   6.073   0.506   8.283 -1.7267 -0.0196 -0.4198
 4380TIP3   OH234698   6.533   3.221   2.074  0.2738  0.2751 -0.4162
 4380TIP3    H134699   6.588   3.143   2.087 -0.2982 -0.3045 -1.3828
 4380TIP3    H234700   6.580   3.273   2.009 -0.1425 -0.0511 -0.9815
 4381TIP3   OH234701   4.424   3.062   9.132 -0.2053  0.1273  0.1604
 4381TIP3    H134702   4.508   3.041   9.172  0.9734  0.1911 -2.1568
 4381TIP3    H234703   4.406   3.152   9.159  1.0666  0.5269 -0.3148
 4382TIP3   OH234704   5.072   6.489   2.116 -0.2314  0.1470  0.2328
 4382TIP3    H134705   5.118   6.443   2.046  0.4685 -1.4281  1.6670
 4382TIP3    H234706   5.142   6.536   2.162 -0.8232  2.0154 -0.6849
 4383TIP3   OH234707   1.948   5.845   2.256 -0.4835 -0.3584 -0.2818
 4383TIP3    H134708   2.010   5.799   2.199  2.2367  2.9701 -0.3640
 4383TIP3    H234709   1.913   5.915   2.200 -1.7110 -0.1229  0.7495
 4384TIP3   OH234710   5.611   5.418   0.623  1.0615 -0.9905  0.3424
 4384TIP3    H134711   5.671   5.400   0.695  0.2695 -0.6049  1.1153
 4384TIP3    H234712   5.559   5.493   0.652  1.6798  0.1072 -1.2096
 4385TIP3   OH234713   1.112   1.121   1.354 -0.1955 -0.3233  0.5395
 4385TIP3    H134714   1.152   1.143   1.438 -1.9982  1.3843  1.0213
 4385TIP3    H234715   1.041   1.184   1.343 -2.1640 -2.5521 -0.7073
 4386TIP3   OH234716   6.557   5.564   0.802  0.1162 -0.3561  0.1514
 4386TIP3    H134717   6.595   5.650   0.820  1.1961 -0.6296 -0.6934
 4386TIP3    H234718   6.500   5.547   0.877  0.2812  0.8653  0.5790
 4387TIP3   OH234719   2.444   6.130   3.337 -0.4908 -0.0744  0.0032
 4387TIP3    H134720   2.440   6.180   3.255  2.0512 -0.8103 -0.6460
 4387TIP3    H234721   2.431   6.196   3.406 -0.9562  0.8381 -0.9354
 4388TIP3   OH234722   2.938   4.524   2.056  0.2884  0.4167  0.1241
 4388TIP3    H134723   3.020   4.501   2.099 -0.1568 -2.8680 -0.5874
 4388TIP3    H234724   2.934   4.469   1.979 -2.0571  1.3548 -0.5117
 4389TIP3   OH234725   3.155   1.245   8.623  0.6625  0.1528  0.2682
 4389TIP3    H134726   3.151   1.205   8.537  3.1721 -1.5271  0.8455
 4389TIP3    H234727   3.140   1.338   8.606 -1.5506 -0.4341 -1.5752
 4390TIP3   OH234728   6.273   1.551   9.053  0.8764 -0.0253  0.2374
 4390TIP3    H134729   6.342   1.496   9.089  0.4645 -1.9508 -1.7168
 4390TIP3    H234730   6.194   1.523   9.100  1.0316  0.6272  0.9153
 4391TIP3   OH234731   1.869   3.269   9.085  0.5198 -0.6916 -0.1971
 4391TIP3    H134732   1.923   3.253   9.008  2.7797  0.1800  1.0802
 4391TIP3    H234733   1.781   3.286   9.051  1.4309 -0.3355 -2.5492
 4392TIP3   OH234734   2.176   2.283   2.152  0.1611 -0.7531 -1.1396
 4392TIP3    H134735   2.246   2.330   2.108  0.3248  1.0535  0.8630
 4392TIP3    H234736   2.219   2.245   2.229 -0.5147 -2.0481 -1.3848
 4393TIP3   OH234737   2.910   2.528   0.582  0.2292  1.0359 -0.9774
 4393TIP3    H134738   2.903   2.595   0.514 -2.6431  1.8839  0.0293
 4393TIP3    H234739   2.863   2.452   0.547 -0.9644  1.3577 -0.1129
 4394TIP3   OH234740   4.410   0.901   9.162 -0.5556  0.2052 -0.0545
 4394TIP3    H134741   4.380   0.920   9.073 -3.4500 -0.3473  0.6953
 4394TIP3    H234742   4.381   0.976   9.214 -0.7046 -0.3791  0.7372
 4395TIP3   OH234743   4.288   1.662   1.235  0.1108 -0.6712 -0.2373
 4395TIP3    H134744   4.276   1.583   1.287 -1.0113 -0.8682 -0.7712
 4395TIP3    H234745   4.207   1.671   1.186  0.9368 -0.2109 -1.5715
 4396TIP3   OH234746   6.301   5.625   2.592 -0.2101  0.2892 -0.1523
 4396TIP3    H134747   6.234   5.672   2.642  0.0243  0.1086  0.3424
 4396TIP3    H234748   6.283   5.647   2.501 -1.0681  0.0750 -0.0410
 4397TIP3   OH234749   2.980   2.876   8.837  0.1493 -1.0230 -0.2907
 4397TIP3    H134750   3.015   2.788   8.852 -0.5297 -1.1712  0.4791
 4397TIP3    H234751   2.923   2.893   8.912  1.0753  0.4966  0.1289
 4398TIP3   OH234752   5.849   0.502   3.220 -0.3779  0.1089 -0.2699
 4398TIP3    H134753   5.891   0.587   3.233  1.7731 -0.8599 -0.4548
 4398TIP3    H234754   5.920   0.444   3.193 -1.3787 -2.2623  1.7860
 4399TIP3   OH234755   5.852   1.864   8.368  0.0179  0.4320  0.2043
 4399TIP3    H134756   5.883   1.935   8.425  1.0176  1.1486 -1.1814
 4399TIP3    H234757   5.884   1.887   8.281  0.1131 -1.5795 -0.3384
 4400TIP3   OH234758   5.970   3.380   2.519  1.5601  0.2273 -0.2072
 4400TIP3    H134759   5.881   3.343   2.522  2.5907 -2.4155  2.6513
 4400TIP3    H234760   5.983   3.402   2.427 -1.9389  0.4898 -0.7907
 4401TIP3   OH234761   3.927   2.116   8.290 -0.3541  0.9228  0.3010
 4401TIP3    H134762   3.958   2.201   8.321 -0.9442  1.6096 -0.9237
 4401TIP3    H234763   3.905   2.068   8.370  0.7546  1.6042  1.0382
 4402TIP3   OH234764   3.719   1.745   8.277 -0.4213 -0.2449 -0.2128
 4402TIP3    H134765   3.750   1.667   8.231 -0.9351 -0.5584 -0.0299
 4402TIP3    H234766   3.770   1.746   8.358  0.0527 -0.0250 -0.5084
 4403TIP3   OH234767   3.366   0.771   1.548  0.1950 -0.4342 -0.0184
 4403TIP3    H134768   3.442   0.829   1.546 -0.3919  0.3344 -0.9848
 4403TIP3    H234769   3.304   0.810   1.486 -1.1759 -0.7814  1.0712
 4404TIP3   OH234770   3.893   4.256   2.269 -0.0685  0.1366 -0.1863
 4404TIP3    H134771   3.855   4.327   2.218  1.6678  2.2892  1.3679
 4404TIP3    H234772   3.979   4.242   2.230 -0.1225 -0.6769 -0.0370
 4405TIP3   OH234773   6.057   3.578   7.887  0.0753  0.8628 -0.3712
 4405TIP3    H134774   6.082   3.602   7.976  0.0916  0.9308 -0.3942
 4405TIP3    H234775   6.076   3.484   7.882 -0.5228  0.7220 -0.1051
 4406TIP3   OH234776   3.285   2.437   1.184  0.5831 -0.3878 -0.6412
 4406TIP3    H134777   3.290   2.341   1.178 -1.4867 -0.5854 -0.0445
 4406TIP3    H234778   3.216   2.454   1.248  3.4800  1.5736  2.3002
 4407TIP3   OH234779   5.026   6.108   1.171  1.1325  0.4194  0.1453
 4407TIP3    H134780   4.936   6.116   1.202  0.9488 -0.5101 -0.1137
 4407TIP3    H234781   5.080   6.135   1.245  0.6498  0.2343  0.5706
 4408TIP3   OH234782   5.030   5.030   8.672 -0.6304 -0.3273  0.1044
 4408TIP3    H134783   5.099   4.969   8.698  0.9161  0.2770 -2.2162
 4408TIP3    H234784   4.960   4.975   8.638 -0.2369 -0.8970  0.2021
 4409TIP3   OH234785   1.929   3.237   0.079  0.4404 -0.4011 -0.1515
 4409TIP3    H134786   1.920   3.294   0.156 -0.9128  0.5156 -0.9642
 4409TIP3    H234787   1.994   3.282   0.024  1.6835 -1.2426  0.5908
 4410TIP3   OH234788   6.174   5.971   0.857 -0.3002 -0.2500 -0.2837
 4410TIP3    H134789   6.096   5.920   0.876  0.3372 -1.1135  0.0759
 4410TIP3    H234790   6.146   6.062   0.864 -1.0423 -0.5455  0.8482
 4411TIP3   OH234791   0.598   2.183   8.237  0.1371  0.2235 -0.2988
 4411TIP3    H134792   0.619   2.231   8.317 -0.2358 -0.3153  0.1363
 4411TIP3    H234793   0.507   2.155   8.249 -0.2306  0.9163 -1.3198
 4412TIP3   OH234794   0.097   0.353   1.608 -0.2410  0.6336 -0.6566
 4412TIP3    H134795   0.099   0.336   1.514 -1.1176  0.6705 -0.6916
 4412TIP3    H234796   0.023   0.413   1.621 -0.6265  0.0188  0.1390
 4413TIP3   OH234797   1.834   2.613   8.499  0.1782  0.3170 -0.4263
 4413TIP3    H134798   1.763   2.572   8.550  0.5996 -1.1446 -0.9760
 4413TIP3    H234799   1.819   2.707   8.509 -1.4981  0.0431 -0.0481
 4414TIP3   OH234800   4.086   4.466   0.953 -0.2243 -0.5090  0.5570
 4414TIP3    H134801   4.094   4.447   1.046  0.7399 -0.5026  0.4834
 4414TIP3    H234802   4.143   4.402   0.910  3.1202  2.3874  0.2914
 4415TIP3   OH234803   5.117   0.797   1.462  0.0554 -0.2118  0.7602
 4415TIP3    H134804   5.189   0.776   1.521 -1.1267 -1.7729  1.7167
 4415TIP3    H234805   5.143   0.880   1.422  2.3151 -0.6671  1.1361
 4416TIP3   OH234806   1.455   4.292   8.665  0.7216 -0.4766 -0.5107
 4416TIP3    H134807   1.449   4.320   8.756  0.3936  1.4027 -1.0719
 4416TIP3    H234808   1.433   4.198   8.668 -1.1675 -0.0535  1.1056
 4417TIP3   OH234809   2.479   2.417   0.541 -0.2014  0.1744  0.6126
 4417TIP3    H134810   2.480   2.321   0.548  1.1067  0.0179 -0.9778
 4417TIP3    H234811   2.504   2.448   0.628 -2.6959 -0.8238  1.7786
 4418TIP3   OH234812   2.218   5.954   0.788 -0.7992  0.4435  0.1295
 4418TIP3    H134813   2.292   6.010   0.811  0.8911 -1.8234  0.5996
 4418TIP3    H234814   2.185   5.923   0.872  0.4475 -1.7744 -0.0978
 4419TIP3   OH234815   6.199   3.677   8.139 -0.1525 -0.0529 -0.1156
 4419TIP3    H134816   6.192   3.738   8.212 -0.0904 -0.4445  0.2212
 4419TIP3    H234817   6.250   3.724   8.073 -1.6773  0.9661 -0.6251
 4420TIP3   OH234818   1.922   3.882   2.558 -0.3382  0.6567  0.7076
 4420TIP3    H134819   1.997   3.827   2.581 -0.2797 -0.1186 -1.1371
 4420TIP3    H234820   1.943   3.916   2.471 -1.0173  2.5019  1.2178
 4421TIP3   OH234821   3.372   4.213   9.233  0.4281  0.2408 -0.2181
 4421TIP3    H134822   3.467   4.218   9.233  0.4242  0.4959  0.9138
 4421TIP3    H234823   3.344   4.277   9.298 -0.4602 -0.7091  0.3700
 4422TIP3   OH234824   2.052   4.786   1.390  0.3538 -0.1689  0.1873
 4422TIP3    H134825   2.038   4.732   1.311 -2.3695 -0.4870  0.8040
 4422TIP3    H234826   2.015   4.871   1.367 -0.3846 -0.2423  1.0821
 4423TIP3   OH234827   4.672   0.584   1.488  0.2429  0.1410 -0.4834
 4423TIP3    H134828   4.747   0.613   1.540  1.4730 -2.5862 -0.5715
 4423TIP3    H234829   4.600   0.641   1.516  1.5212  0.6407  2.1106
 4424TIP3   OH234830   0.384   3.327   9.219  0.3868 -0.0977 -0.2602
 4424TIP3    H134831   0.307   3.366   9.177  1.3613 -0.3214 -2.3602
 4424TIP3    H234832   0.354   3.241   9.248 -0.2455 -0.0597 -0.7721
 4425TIP3   OH234833   0.635   3.589   7.845 -0.1572 -0.4218  0.1687
 4425TIP3    H134834   0.681   3.626   7.770  1.2450  0.5082  1.4412
 4425TIP3    H234835   0.589   3.513   7.810 -0.5597  0.6933 -1.8811
 4426TIP3   OH234836   1.045   3.931   2.049  0.4162  0.0162 -0.3044
 4426TIP3    H134837   0.951   3.944   2.045  0.5753  1.1037 -0.9690
 4426TIP3    H234838   1.056   3.836   2.057 -0.7520 -0.0321  1.1579
 4427TIP3   OH234839   1.873   2.087   8.182 -0.1209  0.2200  0.3195
 4427TIP3    H134840   1.833   2.017   8.234  1.6881 -0.9491  0.2407
 4427TIP3    H234841   1.927   2.135   8.244 -0.4063  0.7969  0.1267
 4428TIP3   OH234842   0.545   5.169   1.418 -0.5012  0.5788 -0.3438
 4428TIP3    H134843   0.472   5.135   1.366  1.1435 -1.3571 -1.5058
 4428TIP3    H234844   0.507   5.184   1.505 -2.3036 -0.2523 -0.9398
 4429TIP3   OH234845   0.456   5.020   0.194  0.5375  0.1745 -0.1958
 4429TIP3    H134846   0.446   5.055   0.105 -1.4103  2.2541  0.7309
 4429TIP3    H234847   0.531   4.961   0.188  0.8677  0.7185 -3.0656
 4430TIP3   OH234848   4.429   5.782   1.216 -0.0840 -0.0537 -0.1753
 4430TIP3    H134849   4.458   5.691   1.216  0.0460 -0.0239 -1.0302
 4430TIP3    H234850   4.334   5.777   1.218 -0.0725 -0.2055 -0.0333
 4431TIP3   OH234851   1.228   2.155   0.358 -0.3842 -0.2602 -0.1160
 4431TIP3    H134852   1.201   2.067   0.332  0.4057 -0.7170  0.5669
 4431TIP3    H234853   1.160   2.186   0.417 -0.0882 -0.8739  0.5514
 4432TIP3   OH234854   6.394   2.414   1.768 -0.0434  0.1455  0.6369
 4432TIP3    H134855   6.341   2.420   1.688 -0.0906  1.5800  0.7449
 4432TIP3    H234856   6.461   2.350   1.747 -0.3034  0.1915 -0.4172
 4433TIP3   OH234857   5.770   3.767   0.550  0.1172  0.5397  0.2168
 4433TIP3    H134858   5.723   3.761   0.466 -0.4385  0.5586  0.5207
 4433TIP3    H234859   5.728   3.840   0.596 -0.3862 -0.2201  0.9989
 4434TIP3   OH234860   4.755   3.331   3.158  0.2473 -0.5326 -0.4932
 4434TIP3    H134861   4.826   3.376   3.205 -0.6644  0.9536 -0.4631
 4434TIP3    H234862   4.720   3.269   3.221  1.6598 -1.4819 -0.5875
 4435TIP3   OH234863   5.509   0.212   9.062  0.3340  0.9859 -0.6657
 4435TIP3    H134864   5.542   0.122   9.057  3.1361  1.9807 -1.6651
 4435TIP3    H234865   5.434   0.206   9.123  2.5480 -1.4552  2.1450
 4436TIP3   OH234866   0.741   2.066   8.035  0.0894  0.2265 -0.5031
 4436TIP3    H134867   0.689   2.107   8.104  0.1577 -1.1752  0.4245
 4436TIP3    H234868   0.806   2.132   8.012  0.8567  0.3291  1.6781
 4437TIP3   OH234869   2.450   2.301   1.175  0.1141  0.1978 -0.4500
 4437TIP3    H134870   2.355   2.311   1.180  0.1148 -0.2020  0.9566
 4437TIP3    H234871   2.470   2.303   1.082 -1.3247 -0.1450 -0.7920
 4438TIP3   OH234872   5.043   1.154   8.249  0.0555  0.6895 -0.2894
 4438TIP3    H134873   4.986   1.226   8.222 -2.8401 -1.0721  0.7027
 4438TIP3    H234874   5.024   1.084   8.187  1.6741  0.2388 -0.3122
 4439TIP3   OH234875   0.732   0.043   8.837  0.1053  0.2813  0.0754
 4439TIP3    H134876   0.822   0.012   8.846 -0.3225 -0.6974  1.3221
 4439TIP3    H234877   0.687  -0.027   8.789  0.1230  1.0521 -1.1205
 4440TIP3   OH234878   0.412   1.338   2.482  0.1315  0.4419  0.2688
 4440TIP3    H134879   0.474   1.281   2.437 -1.4076 -0.8117 -0.3784
 4440TIP3    H234880   0.459   1.370   2.559  1.3754 -0.9240  0.1138
 4441TIP3   OH234881   4.512   3.128   7.726  0.6225  0.1432 -0.0380
 4441TIP3    H134882   4.565   3.152   7.650  1.1083  1.7539  0.7525
 4441TIP3    H234883   4.435   3.085   7.690  1.3209 -0.0330 -1.3686
 4442TIP3   OH234884   2.891   0.850   8.470  0.1364 -0.0638  0.0327
 4442TIP3    H134885   2.804   0.849   8.429  0.8599 -0.7395 -1.5961
 4442TIP3    H234886   2.893   0.771   8.523 -0.0181 -0.4254 -0.4847
 4443TIP3   OH234887   2.126   4.361   2.277 -0.1427  0.0132 -0.5684
 4443TIP3    H134888   2.196   4.295   2.267 -0.6156 -0.5824 -0.0120
 4443TIP3    H234889   2.108   4.363   2.371 -1.9640 -0.9963 -0.8642
 4444TIP3   OH234890   5.602   0.228   1.816 -0.5534  0.2172 -0.2272
 4444TIP3    H134891   5.680   0.179   1.844  0.5951  1.5894 -0.9452
 4444TIP3    H234892   5.622   0.319   1.835 -1.0429  0.8553 -2.5296
 4445TIP3   OH234893   4.970   4.267   8.257 -0.0764  0.3334  0.5293
 4445TIP3    H134894   4.895   4.214   8.286 -1.7344  2.1359 -0.1907
 4445TIP3    H234895   5.030   4.267   8.332 -1.9857  0.8734  2.1543
 4446TIP3   OH234896   0.663   3.682   2.837  0.2727  0.5819 -0.4495
 4446TIP3    H134897   0.620   3.596   2.838 -0.2695  0.8427 -0.7552
 4446TIP3    H234898   0.736   3.673   2.898 -0.2742  0.1530  0.1628
 4447TIP3   OH234899   3.616   6.254   8.662  0.1544  0.1487  0.8286
 4447TIP3    H134900   3.676   6.291   8.727 -0.3202  0.1551  1.2752
 4447TIP3    H234901   3.632   6.160   8.666  1.5074  0.2925 -0.4530
 4448TIP3   OH234902   0.047   6.072   1.798  0.3018  0.5706 -0.2271
 4448TIP3    H134903   0.084   6.006   1.857  0.4489  2.0238  1.3879
 4448TIP3    H234904   0.121   6.101   1.745  0.1890 -0.6816 -1.1137
 4449TIP3   OH234905   5.343   6.013   8.506  0.0787 -0.0694 -0.4278
 4449TIP3    H134906   5.251   5.990   8.510 -0.5504  2.2107 -0.6854
 4449TIP3    H234907   5.383   5.969   8.581 -1.5711  0.4068  0.7683
 4450TIP3   OH234908   1.280   1.903   8.268 -0.0381  1.0407 -0.0803
 4450TIP3    H134909   1.322   1.907   8.182  1.9807  2.7532  0.8934
 4450TIP3    H234910   1.204   1.960   8.259 -0.5193  0.2812 -1.0381
 4451TIP3   OH234911   1.829   0.042   3.014 -0.0198 -0.4235  0.1272
 4451TIP3    H134912   1.919   0.009   3.009  1.5451  3.3729 -0.1195
 4451TIP3    H234913   1.820   0.069   3.106 -1.2878 -1.5618  0.3615
 4452TIP3   OH234914   5.532   4.328   1.890  0.2362  0.2999 -0.1988
 4452TIP3    H134915   5.546   4.419   1.861  1.2767 -0.3680 -1.9729
 4452TIP3    H234916   5.618   4.288   1.883 -0.1512 -0.7632  0.8739
 4453TIP3   OH234917   4.672   0.005   0.516 -0.2819  0.0205 -0.2311
 4453TIP3    H134918   4.635   0.036   0.598 -0.8811  0.3247 -0.6108
 4453TIP3    H234919   4.600  -0.040   0.472  0.2991 -1.0378 -0.1524
 4454TIP3   OH234920   6.008   5.010   0.514 -0.2818 -0.0403 -0.4236
 4454TIP3    H134921   6.053   4.955   0.450 -0.4570  0.5832 -1.0896
 4454TIP3    H234922   6.034   4.974   0.599 -0.5317 -1.2580 -0.8492
 4455TIP3   OH234923   6.227   0.997   8.029 -0.7820 -0.0741 -0.0040
 4455TIP3    H134924   6.249   1.031   8.116  0.6718 -0.9834  0.0187
 4455TIP3    H234925   6.184   0.913   8.047  0.5678 -0.8300 -0.1472
 4456TIP3   OH234926   2.008   2.320   1.855 -0.0454  0.6604 -0.2287
 4456TIP3    H134927   1.922   2.294   1.823  0.8558 -2.3893 -0.5291
 4456TIP3    H234928   1.990   2.366   1.937 -1.9635 -1.0249  0.3858
 4457TIP3   OH234929   5.506   5.003   2.391 -1.0353  0.5529 -0.9214
 4457TIP3    H134930   5.571   5.009   2.460 -1.6224  1.2744 -0.4086
 4457TIP3    H234931   5.445   4.935   2.421  0.5293 -1.5968 -2.3440
 4458TIP3   OH234932   3.041   5.966   9.173 -0.2513  0.2803  0.6414
 4458TIP3    H134933   3.098   5.902   9.131  0.0756  0.8013  0.2953
 4458TIP3    H234934   2.991   6.005   9.102 -0.7871  0.0828  0.9042
 4459TIP3   OH234935   0.584   4.607   1.676 -0.1312  0.2703  0.3595
 4459TIP3    H134936   0.505   4.640   1.719 -1.6973 -0.8920 -1.4517
 4459TIP3    H234937   0.619   4.682   1.628 -0.8805  0.5082  0.1731
 4460TIP3   OH234938   0.751   5.648   1.209 -0.1756 -0.3998  0.2861
 4460TIP3    H134939   0.830   5.668   1.158 -0.0540 -0.5057  0.4285
 4460TIP3    H234940   0.686   5.622   1.144  0.2485 -1.4205  0.2409
 4461TIP3   OH234941   2.944   4.481   8.573  0.5169 -0.4828 -0.5716
 4461TIP3    H134942   2.863   4.456   8.617  0.6999 -0.8265 -0.4236
 4461TIP3    H234943   2.933   4.452   8.482 -0.4480  1.5147 -1.1419
 4462TIP3   OH234944   6.100   3.684   1.115 -0.0218  0.0108 -0.2266
 4462TIP3    H134945   6.143   3.763   1.149  1.2708  0.7361 -3.2372
 4462TIP3    H234946   6.052   3.714   1.038 -0.3781 -1.9665 -0.8283
 4463TIP3   OH234947   2.934   1.767   8.187  0.9710  0.0611  0.4272
 4463TIP3    H134948   2.984   1.688   8.166  0.0471  0.4823 -4.5069
 4463TIP3    H234949   2.845   1.747   8.159  0.2562  2.1603  1.0054
 4464TIP3   OH234950   0.987   1.914   7.264  0.6985  0.0879  0.2120
 4464TIP3    H134951   1.020   1.825   7.256  1.5197  0.5005 -1.4564
 4464TIP3    H234952   0.911   1.918   7.206  0.7227  0.5058  0.2009
 4465TIP3   OH234953   6.192   4.378   1.622  0.0793 -0.0242  1.0170
 4465TIP3    H134954   6.147   4.419   1.696 -0.7521  1.3053 -0.1926
 4465TIP3    H234955   6.243   4.448   1.582  1.3013 -0.9496  0.8690
 4466TIP3   OH234956   5.672   6.464   3.080 -0.2920  0.0787  0.1069
 4466TIP3    H134957   5.614   6.500   3.147 -0.6821  0.4965 -0.4444
 4466TIP3    H234958   5.722   6.539   3.048  0.3078 -0.2202  0.3320
 4467TIP3   OH234959   5.580   4.375   0.573  0.1273  0.0176  0.0503
 4467TIP3    H134960   5.558   4.364   0.666 -1.5585  1.1298 -0.1727
 4467TIP3    H234961   5.575   4.286   0.537 -0.0322 -0.3099  0.8554
 4468TIP3   OH234962   0.598   2.381   7.813  0.3067 -0.0727  0.7708
 4468TIP3    H134963   0.546   2.455   7.781 -0.2724 -0.5031  0.6985
 4468TIP3    H234964   0.686   2.417   7.825 -0.1743  0.8767  1.6540
 4469TIP3   OH234965   0.280   4.941   8.396 -0.7898  0.1731 -0.9487
 4469TIP3    H134966   0.195   4.902   8.417 -1.1658  1.4249 -0.0364
 4469TIP3    H234967   0.295   5.004   8.466 -0.4327  2.0015 -2.5871
 4470TIP3   OH234968   4.866   5.278   0.799  0.5450  0.1857 -0.5227
 4470TIP3    H134969   4.799   5.217   0.768  1.1929 -0.7575 -0.1330
 4470TIP3    H234970   4.832   5.365   0.778 -0.2469 -0.3246 -1.4051
 4471TIP3   OH234971   3.045   1.127   8.878  0.3498  0.3148 -0.4883
 4471TIP3    H134972   3.046   1.163   8.789  2.7250 -0.4645 -0.8343
 4471TIP3    H234973   3.065   1.034   8.866 -1.1048 -0.2025  0.7588
 4472TIP3   OH234974   1.719   0.795   7.893  0.3833  0.0090 -0.1682
 4472TIP3    H134975   1.659   0.807   7.819  1.0134  0.7537 -0.5744
 4472TIP3    H234976   1.806   0.805   7.854  0.7702 -0.7583  0.4696
 4473TIP3   OH234977   4.023   2.292   7.000  0.0217  0.0689 -0.6219
 4473TIP3    H134978   3.990   2.284   7.089 -1.6797 -0.7858 -1.3002
 4473TIP3    H234979   3.967   2.235   6.948  0.5338  1.0922 -2.3657
 4474TIP3   OH234980   1.537   2.310   0.378  0.3595 -0.1724 -0.5541
 4474TIP3    H134981   1.504   2.232   0.334  1.5292  0.4378 -2.6566
 4474TIP3    H234982   1.632   2.307   0.366  0.4581  1.4485 -0.4748
 4475TIP3   OH234983   1.944   3.633   9.029  0.1628  0.2924 -0.0366
 4475TIP3    H134984   1.940   3.578   8.951  0.6860  0.3557 -0.1115
 4475TIP3    H234985   1.886   3.590   9.092 -0.4332  0.3598 -0.5320
 4476TIP3   OH234986   2.943   1.961   0.915 -0.0813 -0.2508 -0.9288
 4476TIP3    H134987   3.009   1.959   0.985 -0.1578  2.0890 -0.7000
 4476TIP3    H234988   2.889   1.884   0.932  1.2298 -0.9817  0.2358
 4477TIP3   OH234989   0.011   5.270   1.560 -0.2610  0.5804  0.2551
 4477TIP3    H134990  -0.044   5.194   1.574 -0.0338  0.6219  1.4163
 4477TIP3    H234991   0.097   5.234   1.536 -0.7835  0.5180 -1.6903
 4478TIP3   OH234992   2.025   3.979   8.106 -0.1157  0.1528 -0.0796
 4478TIP3    H134993   2.071   4.038   8.167 -2.0024  0.3509  1.2380
 4478TIP3    H234994   2.055   3.891   8.132 -1.7366  0.1300  2.0263
 4479TIP3   OH234995   5.389   3.781   8.513  0.4750  0.8459 -0.2778
 4479TIP3    H134996   5.308   3.730   8.513  0.5885  0.6029 -1.9278
 4479TIP3    H234997   5.396   3.814   8.603 -0.1783 -1.1135  0.5635
 4480TIP3   OH234998   4.988   5.855   8.884 -0.5595  0.4396 -0.5566
 4480TIP3    H134999   5.022   5.833   8.797 -3.0496  0.3085 -1.5722
 4480TIP3    H235000   5.011   5.947   8.896 -1.1054  0.7832 -1.8697
 4481TIP3   OH235001   1.971   5.498   0.463 -0.3839  0.2999 -0.4657
 4481TIP3    H135002   1.965   5.524   0.371 -0.2550 -0.1778 -0.6137
 4481TIP3    H235003   2.015   5.413   0.461 -0.2728  0.3414  0.0478
 4482TIP3   OH235004   4.956   0.999   2.071  0.7737 -0.7759  0.2863
 4482TIP3    H135005   4.981   1.091   2.071 -0.6045 -0.3671 -1.1450
 4482TIP3    H235006   4.880   0.994   2.129  1.1257 -1.1178  0.7324
 4483TIP3   OH235007   1.158   6.159   2.243  0.4854  0.0791  0.0355
 4483TIP3    H135008   1.072   6.146   2.203  0.7317 -1.1952 -0.1213
 4483TIP3    H235009   1.183   6.073   2.275  1.8572  0.3561 -0.2206
 4484TIP3   OH235010   3.899   3.512   1.275 -0.5661 -0.0761  0.1049
 4484TIP3    H135011   3.939   3.554   1.351  0.5241  0.1007 -0.5421
 4484TIP3    H235012   3.931   3.422   1.278 -1.8130 -0.5291  0.7284
 4485TIP3   OH235013   6.214   2.342   8.187  0.0958 -0.1124  0.6097
 4485TIP3    H135014   6.259   2.281   8.245  1.0992 -0.9001 -0.9414
 4485TIP3    H235015   6.273   2.353   8.112 -0.9110  1.2931 -0.0234
 4486TIP3   OH235016   5.320   4.563   8.552  0.3074 -0.6237  0.2751
 4486TIP3    H135017   5.236   4.528   8.579  0.8807 -1.5682  0.8970
 4486TIP3    H235018   5.333   4.528   8.464  0.9006 -2.0710  0.9136
 4487TIP3   OH235019   3.483   5.768   2.146  0.0452 -0.1412 -0.7052
 4487TIP3    H135020   3.518   5.735   2.063  1.2690  1.2034 -0.7521
 4487TIP3    H235021   3.509   5.860   2.148 -0.2394 -0.0757  1.0323
 4488TIP3   OH235022   1.270   6.411   0.304 -0.1395  0.1146 -0.1430
 4488TIP3    H135023   1.341   6.353   0.331 -1.8246 -1.0208  2.2237
 4488TIP3    H235024   1.201   6.352   0.274 -0.5398  1.1283 -1.2793
 4489TIP3   OH235025   1.254   3.648   8.856 -0.4061 -0.0944 -0.0147
 4489TIP3    H135026   1.233   3.730   8.901 -0.8721  0.6592 -1.5198
 4489TIP3    H235027   1.192   3.645   8.783 -0.5204 -1.8939  0.1096
 4490TIP3   OH235028   1.293   4.748   0.755 -0.4861  0.1320  0.0332
 4490TIP3    H135029   1.307   4.735   0.661 -1.7382 -0.8709 -0.0439
 4490TIP3    H235030   1.377   4.782   0.787  0.4951 -1.0129 -1.1763
 4491TIP3   OH235031   4.286   4.556   7.955 -0.0295 -0.3393 -0.1621
 4491TIP3    H135032   4.263   4.463   7.955  1.1359 -0.6531  0.6693
 4491TIP3    H235033   4.312   4.574   7.865 -1.6145 -0.4488 -0.6611
 4492TIP3   OH235034   5.579   5.216   8.150  0.0883  0.5906 -0.5162
 4492TIP3    H135035   5.663   5.261   8.147  0.1874  0.5132  0.6782
 4492TIP3    H235036   5.531   5.250   8.075  0.3084  2.4095  0.1100
 4493TIP3   OH235037   5.074   2.626   7.915 -0.0544 -0.2424 -0.2930
 4493TIP3    H135038   5.156   2.674   7.900  1.0611 -1.2232  2.2014
 4493TIP3    H235039   5.071   2.563   7.843  1.9978 -0.9405  0.1645
 4494TIP3   OH235040   0.665   4.169   1.611  0.2359 -0.3016 -0.7513
 4494TIP3    H135041   0.634   4.204   1.694 -1.2838 -0.3724 -1.2676
 4494TIP3    H235042   0.727   4.234   1.579 -0.4446  0.5604 -0.3650
 4495TIP3   OH235043   1.968   4.558   2.175 -0.1006 -0.1450 -0.0045
 4495TIP3    H135044   2.014   4.601   2.104 -1.6344  0.5081 -0.6439
 4495TIP3    H235045   2.032   4.495   2.211  1.0536  0.2991 -1.2117
 4496TIP3   OH235046   6.116   0.117   8.269  0.1525  0.0403 -0.5616
 4496TIP3    H135047   6.126   0.036   8.219  2.0058 -0.4796  0.5292
 4496TIP3    H235048   6.051   0.167   8.221 -2.6496 -2.8991 -0.1739
 4497TIP3   OH235049   6.200   4.994   0.962 -0.0548 -0.3195  0.1119
 4497TIP3    H135050   6.284   4.968   0.924 -0.2804 -0.6858 -0.1400
 4497TIP3    H235051   6.224   5.053   1.034  0.3426  1.4303 -1.3612
 4498TIP3   OH235052   6.179   4.119   9.133  0.1150  0.3115 -0.3068
 4498TIP3    H135053   6.152   4.121   9.041  2.5245 -1.6480 -1.1441
 4498TIP3    H235054   6.245   4.188   9.141  1.4951 -0.9448 -0.6364
 4499TIP3   OH235055   6.586   2.082   8.202  0.3046  0.2486 -0.9920
 4499TIP3    H135056   6.655   2.148   8.203  0.4738  0.0689 -0.5547
 4499TIP3    H235057   6.633   1.998   8.202  0.0963  0.1199 -1.6211
 4500TIP3   OH235058   4.375   5.356   2.257 -0.0021  0.3686 -0.1767
 4500TIP3    H135059   4.460   5.332   2.294 -0.4220  1.5702  1.7195
 4500TIP3    H235060   4.378   5.452   2.250 -1.1323  0.4150 -0.2358
 4501TIP3   OH235061   2.853   1.246   9.132 -0.6129  0.0339  0.5235
 4501TIP3    H135062   2.913   1.320   9.146 -2.0899  1.3384  0.3324
 4501TIP3    H235063   2.828   1.254   9.040 -1.6206 -0.0398  0.7846
 4502TIP3   OH235064   0.097   4.679   9.264 -0.0885 -0.5051 -0.0707
 4502TIP3    H135065   0.015   4.655   9.220 -0.8702 -0.0711  1.1165
 4502TIP3    H235066   0.115   4.768   9.234  0.5755 -0.9814 -1.1918
 4503TIP3   OH235067   0.247   4.324   8.844  0.4135 -0.0609 -0.5147
 4503TIP3    H135068   0.187   4.250   8.855  0.1411  0.2896  0.5124
 4503TIP3    H235069   0.237   4.375   8.925  2.3434 -0.1641 -0.1565
 4504TIP3   OH235070   2.414   0.737   0.892  0.6093 -0.2003  0.0969
 4504TIP3    H135071   2.433   0.747   0.799  0.7809  0.2608  0.1815
 4504TIP3    H235072   2.385   0.824   0.921 -1.4612 -0.8046  0.0114
 4505TIP3   OH235073   5.033   4.745   0.820  0.0549  0.2815 -0.3903
 4505TIP3    H135074   5.013   4.793   0.900  1.8084  1.5511 -0.6491
 4505TIP3    H235075   5.111   4.694   0.841  0.3693  0.4097 -1.1797
 4506TIP3   OH235076   2.056   4.500   9.131 -0.4375  0.1367  0.2385
 4506TIP3    H135077   2.034   4.418   9.174 -0.0706  0.2912  0.7206
 4506TIP3    H235078   1.981   4.557   9.148 -0.6595 -0.0721 -0.0334
 4507TIP3   OH235079   5.169   4.402   0.671 -0.1025 -0.1509 -0.3571
 4507TIP3    H135080   5.104   4.466   0.642  0.6632  0.8939  0.1709
 4507TIP3    H235081   5.184   4.346   0.594  0.9462  1.7602 -1.6151
 4508TIP3   OH235082   5.605   2.126   8.034  0.2838  0.1777  0.1507
 4508TIP3    H135083   5.608   2.221   8.022 -1.9589  0.5805  1.9053
 4508TIP3    H235084   5.511   2.105   8.032  0.6894 -1.8996  0.4829
 4509TIP3   OH235085   1.459   5.979   2.083  0.2478 -0.5706  0.1285
 4509TIP3    H135086   1.538   6.033   2.089 -0.2313  0.0458  1.1026
 4509TIP3    H235087   1.400   6.029   2.028  0.2297 -0.6438  0.0818
 4510TIP3   OH235088   4.853   1.351   7.378  0.1377  1.0197  0.2286
 4510TIP3    H135089   4.880   1.443   7.381  1.2820  0.6729  2.6478
 4510TIP3    H235090   4.929   1.305   7.341  0.8266  0.7163  1.9278
 4511TIP3   OH235091   5.766   4.082   1.895 -0.0457  0.1785 -0.3038
 4511TIP3    H135092   5.808   4.025   1.830 -0.4423 -0.2150 -0.2196
 4511TIP3    H235093   5.718   4.022   1.952  1.1873  0.4139  1.0412
 4512TIP3   OH235094   1.283   3.473   1.482 -0.2294 -0.1298 -0.1404
 4512TIP3    H135095   1.226   3.428   1.420 -1.6823  3.4385 -1.7334
 4512TIP3    H235096   1.286   3.563   1.449 -0.3320  1.8320  4.5002
 4513TIP3   OH235097   0.609   6.538   0.355 -0.5867  0.0617 -0.3252
 4513TIP3    H135098   0.578   6.530   0.445  0.5208 -0.5436  0.0074
 4513TIP3    H235099   0.608   6.449   0.320 -0.3748  0.2050 -0.7088
 4514TIP3   OH235100   5.054   6.103   0.204  0.0859 -0.3994 -0.4882
 4514TIP3    H135101   5.119   6.105   0.274  0.5264  2.2970 -0.8713
 4514TIP3    H235102   4.972   6.130   0.246 -0.0869 -0.6654 -0.6487
 4515TIP3   OH235103   4.521   2.292   3.122  0.0782  0.2954 -0.4435
 4515TIP3    H135104   4.510   2.298   3.027 -1.3003 -0.5857 -0.3759
 4515TIP3    H235105   4.439   2.328   3.158  1.1872  2.0265  0.4855
 4516TIP3   OH235106   3.979   0.393   7.807 -0.1585  0.2389  0.2227
 4516TIP3    H135107   3.903   0.409   7.752 -0.7253 -2.0456  0.2463
 4516TIP3    H235108   4.052   0.434   7.761 -0.9652  0.1888 -1.1358
 4517TIP3   OH235109   4.175   5.149   1.355 -0.1473  0.1589 -0.1027
 4517TIP3    H135110   4.258   5.102   1.341 -1.0040 -1.8448  1.1156
 4517TIP3    H235111   4.173   5.166   1.449 -1.4475 -0.5037  0.0051
 4518TIP3   OH235112   1.830   5.323   8.512 -0.2435 -0.6406  0.2353
 4518TIP3    H135113   1.744   5.326   8.555 -0.8735 -1.7760 -0.8635
 4518TIP3    H235114   1.811   5.338   8.419  0.6368 -1.6333 -0.1310
 4519TIP3   OH235115   1.122   5.717   1.446 -0.1051  0.2042 -0.2286
 4519TIP3    H135116   1.037   5.759   1.430 -0.1976  0.7283  1.3745
 4519TIP3    H235117   1.160   5.769   1.517  2.5206  1.2776 -2.2638
 4520TIP3   OH235118   5.103   3.181   2.758 -0.1767 -0.3481  0.0861
 4520TIP3    H135119   5.050   3.194   2.680 -1.7724  0.5423  1.2489
 4520TIP3    H235120   5.048   3.127   2.815  0.6492 -0.3785  0.8753
 4521TIP3   OH235121   5.171   1.585   9.245  0.6683 -0.0243  0.5442
 4521TIP3    H135122   5.226   1.549   9.176  0.7800 -0.7081  0.9880
 4521TIP3    H235123   5.179   1.680   9.235 -0.9003 -0.0415 -1.6771
 4522TIP3   OH235124   3.866   3.001   1.901  0.3201  0.5034 -0.3621
 4522TIP3    H135125   3.863   2.906   1.889 -2.1482  0.3085  1.2323
 4522TIP3    H235126   3.793   3.035   1.849  0.5047  1.4257 -0.0481
 4523TIP3   OH235127   3.795   5.217   2.454  0.3933 -0.7559  0.9808
 4523TIP3    H135128   3.742   5.208   2.532  0.8105 -2.8127  1.0732
 4523TIP3    H235129   3.865   5.153   2.464  1.2372 -0.1326 -0.4668
 4524TIP3   OH235130   5.603   1.332   1.344  0.2330 -0.4210  0.2890
 4524TIP3    H135131   5.539   1.286   1.290 -1.0981  0.7787  0.7747
 4524TIP3    H235132   5.674   1.269   1.358 -0.5691 -1.5811 -0.7563
 4525TIP3   OH235133   6.401   2.144   0.510  0.0745 -0.5502 -0.0725
 4525TIP3    H135134   6.411   2.056   0.472  3.1026 -0.2277 -0.2487
 4525TIP3    H235135   6.444   2.138   0.596  2.8165  1.3476 -1.1826
 4526TIP3   OH235136   4.326   1.986   1.510  1.0374 -0.0403  0.1175
 4526TIP3    H135137   4.380   1.949   1.441  1.7414  0.1104  0.5755
 4526TIP3    H235138   4.362   2.074   1.524  1.4341 -0.3683  1.2355
 4527TIP3   OH235139   2.502   0.915   8.660 -0.2290 -0.2395  0.3024
 4527TIP3    H135140   2.428   0.920   8.720  0.0146  0.9678  0.5364
 4527TIP3    H235141   2.568   0.973   8.699  0.8309 -1.2838  0.0923
 4528TIP3   OH235142   6.620   1.327   8.709 -0.3539  0.1834  0.5351
 4528TIP3    H135143   6.556   1.265   8.673 -2.1445  2.1540  0.1410
 4528TIP3    H235144   6.679   1.345   8.636 -1.1961  0.6561 -0.0415
 4529TIP3   OH235145   5.704   5.472   8.315  0.7924 -0.0172  0.2678
 4529TIP3    H135146   5.650   5.393   8.322  1.3871 -0.5430 -0.8557
 4529TIP3    H235147   5.765   5.454   8.244  0.8863  1.5023 -0.0815
 4530TIP3   OH235148   3.565   3.451   2.439  0.5409 -0.3307 -0.4536
 4530TIP3    H135149   3.481   3.413   2.416  1.1780 -2.4770  0.5071
 4530TIP3    H235150   3.556   3.475   2.531  1.0269 -0.7317 -0.2979
 4531TIP3   OH235151   0.164   3.671   2.297 -0.4382  0.1311 -0.6075
 4531TIP3    H135152   0.094   3.607   2.283 -1.6714  1.2229  0.2993
 4531TIP3    H235153   0.119   3.747   2.335  1.2062  0.9798 -0.2919
 4532TIP3   OH235154   3.111   1.578   0.444  0.1100 -0.8210 -0.4941
 4532TIP3    H135155   3.044   1.640   0.471  1.4798  0.6613 -0.3101
 4532TIP3    H235156   3.120   1.592   0.350  1.0047 -0.0940 -0.3182
 4533TIP3   OH235157   3.314   3.842   0.091  0.1900 -0.9568  0.3766
 4533TIP3    H135158   3.234   3.875   0.050  1.2549 -0.9936 -1.8508
 4533TIP3    H235159   3.346   3.917   0.142 -0.1478 -0.2545 -0.4247
 4534TIP3   OH235160   5.196   4.316   0.943  0.9509 -0.4228 -0.5327
 4534TIP3    H135161   5.229   4.230   0.917  0.9185 -0.2243 -1.2434
 4534TIP3    H235162   5.158   4.352   0.863  0.7260  0.1416 -0.1731
 4535TIP3   OH235163   2.277   0.821   7.649  0.0075  0.2854  0.1494
 4535TIP3    H135164   2.243   0.875   7.578  1.6853  0.1141 -0.8238
 4535TIP3    H235165   2.353   0.869   7.681  0.3880 -0.5731  0.5577
 4536TIP3   OH235166   1.311   2.651   1.308  0.0202  0.5646  0.3072
 4536TIP3    H135167   1.316   2.613   1.221 -0.4467 -1.0200  0.9388
 4536TIP3    H235168   1.266   2.735   1.295  1.1966  1.0275 -1.1390
 4537TIP3   OH235169   4.843   2.223   8.177  0.3798 -0.4214 -0.7119
 4537TIP3    H135170   4.905   2.285   8.138 -0.8656  1.3270 -0.0567
 4537TIP3    H235171   4.808   2.269   8.254 -2.6987 -0.7189 -1.7692
 4538TIP3   OH235172   0.341   2.133   8.281  0.2017  0.0816 -0.3267
 4538TIP3    H135173   0.270   2.075   8.253 -0.5174  1.2845 -1.0522
 4538TIP3    H235174   0.307   2.176   8.359  0.8716 -0.7093  0.4175
 4539TIP3   OH235175   5.262   0.795   7.812 -0.0906  0.0930 -0.4169
 4539TIP3    H135176   5.175   0.756   7.815  0.3161 -1.0437 -2.1189
 4539TIP3    H235177   5.303   0.768   7.895 -0.7021 -1.0010 -0.4478
 4540TIP3   OH235178   5.241   2.732   0.108  0.0700 -0.9740 -0.4858
 4540TIP3    H135179   5.287   2.801   0.060 -1.7775 -0.2047 -1.2262
 4540TIP3    H235180   5.195   2.778   0.178 -1.1637 -1.4504 -0.9670
 4541TIP3   OH235181   5.446   5.591   1.615 -0.1397 -0.1492  0.5426
 4541TIP3    H135182   5.353   5.568   1.624 -0.3337  0.6706  0.7048
 4541TIP3    H235183   5.468   5.564   1.526 -1.2081  1.8690 -0.4020
 4542TIP3   OH235184   1.758   1.086   9.077  0.3953  0.2214 -0.3109
 4542TIP3    H135185   1.723   1.175   9.074  0.1158  0.2099  1.4362
 4542TIP3    H235186   1.828   1.090   9.142  0.1366 -0.9082  0.0629
 4543TIP3   OH235187   4.083   4.474   3.561 -0.4628 -0.1326  0.1306
 4543TIP3    H135188   3.999   4.465   3.516  0.5873 -2.1685 -1.6381
 4543TIP3    H235189   4.140   4.515   3.497  0.2150  0.1114  0.8818
 4544TIP3   OH235190   4.819   2.326   2.331 -0.1575 -0.7115 -0.6603
 4544TIP3    H135191   4.914   2.330   2.324 -0.1038 -2.6157 -1.3879
 4544TIP3    H235192   4.803   2.294   2.420 -0.2611  1.9528  0.4002
 4545TIP3   OH235193   6.612   6.222   7.777 -0.2594 -0.2587  0.5534
 4545TIP3    H135194   6.598   6.225   7.682 -0.7703 -2.3177  0.5186
 4545TIP3    H235195   6.693   6.173   7.787  0.2203  0.6302  1.1940
 4546TIP3   OH235196   6.099   5.987   2.488 -0.4410  0.2519  0.3329
 4546TIP3    H135197   6.109   6.002   2.582  1.6792  0.8605  0.0481
 4546TIP3    H235198   6.169   5.927   2.465 -0.4894  0.6723 -0.9932
 4547TIP3   OH235199   5.128   0.741   8.133  0.4206 -0.2670 -0.4898
 4547TIP3    H135200   5.077   0.731   8.213  1.9809  0.2435  0.6166
 4547TIP3    H235201   5.082   0.688   8.068 -2.0817  0.9852  0.1428
 4548TIP3   OH235202   4.881   5.130   2.492  0.2592 -0.3497 -0.8744
 4548TIP3    H135203   4.796   5.159   2.524  0.0727 -0.7426 -1.0073
 4548TIP3    H235204   4.941   5.200   2.517  0.2972 -1.0423  1.1643
 4549TIP3   OH235205   3.015   5.656   2.124 -0.3398  0.5770  0.7225
 4549TIP3    H135206   2.996   5.632   2.033  0.2814 -0.6113  0.8924
 4549TIP3    H235207   2.981   5.583   2.176  1.6815 -0.0676  1.2439
 4550TIP3   OH235208   2.688   2.155   9.021 -0.0445 -0.0379  0.9571
 4550TIP3    H135209   2.615   2.209   9.050 -0.3517 -0.3603  0.8006
 4550TIP3    H235210   2.721   2.200   8.943  0.0093  0.1797  1.1043
 4551TIP3   OH235211   3.612   4.640   2.431 -0.1559 -0.1295 -0.2883
 4551TIP3    H135212   3.624   4.729   2.465  0.8962  0.4622 -2.0830
 4551TIP3    H235213   3.535   4.645   2.376 -0.7184 -0.6103  0.4383
 4552TIP3   OH235214   0.580   0.805   0.091  0.1991  0.0322 -0.2897
 4552TIP3    H135215   0.620   0.782   0.007  1.0167 -0.9970  0.3507
 4552TIP3    H235216   0.650   0.791   0.155 -0.2190  1.4211  0.5104
 4553TIP3   OH235217   2.955   4.135   8.028  0.2443  0.2070 -0.0036
 4553TIP3    H135218   2.949   4.183   7.946 -1.5951 -0.4315 -0.2918
 4553TIP3    H235219   2.948   4.202   8.096  0.0179  0.5716 -0.3831
 4554TIP3   OH235220   1.329   3.617   2.387 -0.2090  0.1740 -0.5411
 4554TIP3    H135221   1.287   3.535   2.360 -2.1251  0.8633  0.1729
 4554TIP3    H235222   1.256   3.676   2.408  1.0142  0.4554  3.8833
 4555TIP3   OH235223   3.430   2.197   0.361  0.5297  0.1053 -0.5992
 4555TIP3    H135224   3.467   2.121   0.316  1.9158  0.8803 -0.8330
 4555TIP3    H235225   3.467   2.272   0.315  0.8827  0.9274  0.9461
 4556TIP3   OH235226   4.867   6.266   1.804  0.4077  0.4003 -0.2100
 4556TIP3    H135227   4.920   6.203   1.755  0.1324  0.9516 -1.2418
 4556TIP3    H235228   4.782   6.265   1.762 -0.5001 -0.5757  1.5219
 4557TIP3   OH235229   4.031   4.954   0.108  0.2499  0.4531  0.1484
 4557TIP3    H135230   4.043   4.859   0.111  0.3967  0.5069  1.5064
 4557TIP3    H235231   3.937   4.967   0.109  0.0804  0.2770 -2.9127
 4558TIP3   OH235232   5.957   2.633   2.592  0.0714 -0.2434  0.3494
 4558TIP3    H135233   5.903   2.603   2.665 -1.9072 -0.9891 -1.3183
 4558TIP3    H235234   6.042   2.591   2.606 -0.4969 -0.9901  1.7994
 4559TIP3   OH235235   1.530   3.678   0.658 -0.3400 -0.0943  0.6707
 4559TIP3    H135236   1.540   3.743   0.588 -0.7058 -1.0333 -0.2924
 4559TIP3    H235237   1.512   3.730   0.737 -0.8426  0.9666 -0.1102
 4560TIP3   OH235238   6.521   3.515   1.383  0.3216  0.3528  0.1986
 4560TIP3    H135239   6.484   3.560   1.308 -3.3973 -1.6645  0.6028
 4560TIP3    H235240   6.486   3.561   1.459  0.8026 -0.0169  0.6551
 4561TIP3   OH235241   2.842   4.466   0.196 -1.0483 -0.0172 -0.0295
 4561TIP3    H135242   2.769   4.404   0.188  0.9515 -2.9441  2.1915
 4561TIP3    H235243   2.831   4.504   0.283  0.2169 -0.7950  0.4956
 4562TIP3   OH235244   1.075   2.843   9.239  0.1817 -0.4093  0.3489
 4562TIP3    H135245   1.055   2.749   9.247  1.6770 -0.8081 -0.2672
 4562TIP3    H235246   1.018   2.885   9.303 -0.7644 -1.7048  0.3979
 4563TIP3   OH235247   0.620   5.312   1.139  0.3326 -0.5556  0.1685
 4563TIP3    H135248   0.593   5.400   1.114 -0.2364 -0.3040  1.5732
 4563TIP3    H235249   0.609   5.309   1.234  2.1240 -1.5490  0.3877
 4564TIP3   OH235250   2.647   1.841   0.423  0.1180 -0.4109  0.5343
 4564TIP3    H135251   2.585   1.820   0.353 -0.7351 -0.3397  1.2406
 4564TIP3    H235252   2.715   1.892   0.381  0.2331 -1.3599 -0.4655
 4565TIP3   OH235253   2.878   2.294   0.840  0.0646 -0.5686  0.0446
 4565TIP3    H135254   2.868   2.281   0.935 -0.7440 -1.0412 -0.0992
 4565TIP3    H235255   2.906   2.385   0.831 -0.1397 -0.4316  0.7256
 4566TIP3   OH235256   0.281   0.813   8.478  0.1324 -0.2980 -0.4391
 4566TIP3    H135257   0.374   0.795   8.467  0.0693 -0.5487 -0.5723
 4566TIP3    H235258   0.261   0.878   8.410  0.4752  0.7017  0.3828
 4567TIP3   OH235259   3.675   2.638   0.081 -0.3254  0.2117  0.2566
 4567TIP3    H135260   3.739   2.613   0.147  0.4122  0.2764 -0.4278
 4567TIP3    H235261   3.618   2.701   0.127  1.3137  1.7195  0.3188
 4568TIP3   OH235262   5.993   6.285   8.961 -0.2222 -0.1454  0.2562
 4568TIP3    H135263   5.988   6.261   8.868  0.0512  0.7037  0.0194
 4568TIP3    H235264   6.030   6.373   8.962  0.5267 -0.4592  1.2242
 4569TIP3   OH235265   1.739   6.094   2.515  0.2153 -0.0862 -0.1380
 4569TIP3    H135266   1.752   6.038   2.592 -0.2409 -0.7850 -0.5551
 4569TIP3    H235267   1.650   6.129   2.527 -0.6011 -1.6403 -1.2135
 4570TIP3   OH235268   4.876   1.215   3.128  0.0554 -0.0522  0.5661
 4570TIP3    H135269   4.810   1.280   3.152  0.1603 -0.5680  2.4144
 4570TIP3    H235270   4.959   1.260   3.146  0.3645  0.9818 -2.7263
 4571TIP3   OH235271   2.404   1.390   0.837  0.5816 -0.2602  0.1875
 4571TIP3    H135272   2.341   1.378   0.908  0.5565 -1.1703  0.0253
 4571TIP3    H235273   2.351   1.397   0.758  0.6456  0.0309  0.1664
 4572TIP3   OH235274   3.426   3.050   7.804  0.5610 -0.0764 -0.6747
 4572TIP3    H135275   3.332   3.051   7.786  0.1541 -1.0113  1.0930
 4572TIP3    H235276   3.462   2.987   7.742 -0.2093 -0.7061 -0.5029
 4573TIP3   OH235277   1.505   1.262   1.195  0.1046  0.0682  0.1552
 4573TIP3    H135278   1.482   1.288   1.284  1.3077 -1.8699  1.1214
 4573TIP3    H235279   1.583   1.313   1.175  1.2772 -1.2007  1.2412
 4574TIP3   OH235280   4.432   3.800   0.924 -0.5321 -0.0971 -0.5061
 4574TIP3    H135281   4.512   3.795   0.976 -2.0827  0.8383  2.1799
 4574TIP3    H235282   4.393   3.713   0.932  0.2088 -0.5779 -1.8836
 4575TIP3   OH235283   1.309   5.456   1.062  0.1580  0.3518 -0.6539
 4575TIP3    H135284   1.272   5.466   0.974 -1.2223  1.7792  0.0185
 4575TIP3    H235285   1.232   5.449   1.119  0.9994  0.6315  0.5517
 4576TIP3   OH235286   1.896   1.337   7.255  0.1090  0.6441 -0.1745
 4576TIP3    H135287   1.944   1.286   7.320 -2.2049 -0.5096  0.7287
 4576TIP3    H235288   1.867   1.273   7.190  1.6323  1.6565 -1.9565
 4577TIP3   OH235289   0.841   2.409   1.036 -0.1106 -0.4215 -0.0742
 4577TIP3    H135290   0.776   2.475   1.059 -0.2847 -0.3755 -0.6941
 4577TIP3    H235291   0.859   2.364   1.119 -0.1996  0.2110  0.2943
 4578TIP3   OH235292   1.025   2.033   8.261  0.0555  0.3865  0.2832
 4578TIP3    H135293   0.950   1.990   8.220  0.7691 -1.0582  0.4386
 4578TIP3    H235294   1.015   2.125   8.238 -1.7469  0.2300  0.2728
 4579TIP3   OH235295   4.186   3.663   8.534  0.3201  0.5516 -0.1698
 4579TIP3    H135296   4.117   3.663   8.468  0.3781  0.7048 -0.2295
 4579TIP3    H235297   4.223   3.575   8.531 -1.2570 -0.2294  1.2906
 4580TIP3   OH235298   1.903   4.072   9.094 -0.1513 -0.7255 -0.6023
 4580TIP3    H135299   1.877   4.106   9.179  1.7149  1.0705 -0.6679
 4580TIP3    H235300   1.941   3.986   9.113 -2.0860 -1.4958 -0.0072
 4581TIP3   OH235301   4.770   1.602   0.760  0.0441 -0.5358 -0.1147
 4581TIP3    H135302   4.773   1.548   0.681 -3.2607  1.9334 -2.2081
 4581TIP3    H235303   4.843   1.663   0.750  3.2871 -3.6440  1.8711
 4582TIP3   OH235304   0.076   4.325   0.099 -0.4037 -0.5324 -0.2992
 4582TIP3    H135305   0.051   4.397   0.157  1.2552  0.1102 -0.3470
 4582TIP3    H235306   0.096   4.252   0.158  0.6205 -0.0909 -0.0963
 4583TIP3   OH235307   2.165   5.203   0.604 -0.1103 -0.0643 -0.5908
 4583TIP3    H135308   2.257   5.215   0.582  0.1319 -1.2876 -0.3045
 4583TIP3    H235309   2.118   5.223   0.522  0.4623 -0.2886 -0.9779
 4584TIP3   OH235310   6.438   6.422   8.665 -0.2709 -0.2545  0.5931
 4584TIP3    H135311   6.366   6.445   8.607  1.3815  3.7456 -0.2423
 4584TIP3    H235312   6.412   6.456   8.751  0.0166 -0.1175  0.6273
 4585TIP3   OH235313   1.774   0.208   0.639  0.2744 -0.1417  0.1296
 4585TIP3    H135314   1.724   0.243   0.712  0.7765  0.9337 -0.0220
 4585TIP3    H235315   1.747   0.259   0.563 -1.1389 -2.0433 -0.7273
 4586TIP3   OH235316   5.753   0.194   1.523 -0.4758 -0.8235  0.1352
 4586TIP3    H135317   5.823   0.157   1.470 -1.5247 -0.7783 -1.3391
 4586TIP3    H235318   5.775   0.286   1.533 -0.5811 -0.6913 -0.7796
 4587TIP3   OH235319   0.080   5.480   0.602 -0.4134  0.6019  0.0252
 4587TIP3    H135320   0.077   5.520   0.689  0.8334  1.2298 -0.2047
 4587TIP3    H235321   0.074   5.386   0.619 -0.2868  0.7205  0.7793
 4588TIP3   OH235322   1.524   2.009   2.306  0.4624 -0.3302 -0.2761
 4588TIP3    H135323   1.534   1.917   2.280  1.4102 -0.6087  0.9656
 4588TIP3    H235324   1.493   2.006   2.396 -0.5803  0.5970 -0.5795
 4589TIP3   OH235325   5.393   3.171   0.148  0.5312  0.1450 -0.3451
 4589TIP3    H135326   5.310   3.131   0.173  0.1580  0.8989 -0.3707
 4589TIP3    H235327   5.371   3.230   0.076  1.4238 -1.1863 -1.7683
 4590TIP3   OH235328   5.865   6.327   0.811  0.0733 -0.7547  0.0486
 4590TIP3    H135329   5.796   6.281   0.763  1.5037 -2.1756 -0.7084
 4590TIP3    H235330   5.842   6.420   0.802 -1.4480 -1.1622 -0.6132
 4591TIP3   OH235331   1.227   5.903   2.225  0.0902  0.1386 -0.6298
 4591TIP3    H135332   1.179   5.893   2.142 -1.4783  0.3894  0.1983
 4591TIP3    H235333   1.310   5.943   2.200 -0.7966  1.2478 -1.9698
 4592TIP3   OH235334   3.107   0.168   0.875  0.1614 -0.3308 -0.6085
 4592TIP3    H135335   3.101   0.202   0.786  0.1462 -0.7688 -0.7756
 4592TIP3    H235336   3.201   0.172   0.896 -0.0355  1.5050  0.0428
 4593TIP3   OH235337   2.449   2.996   7.620 -0.1062 -0.3951  0.2497
 4593TIP3    H135338   2.543   3.008   7.610 -0.1028 -0.7154 -0.1240
 4593TIP3    H235339   2.410   3.044   7.547 -0.1987 -0.7715  0.0474
 4594TIP3   OH235340   4.170   2.512   7.087  0.1284  0.0570  0.3217
 4594TIP3    H135341   4.127   2.434   7.053  0.7904  0.2364 -0.9893
 4594TIP3    H235342   4.165   2.503   7.182 -1.2412 -0.7676  0.1971
 4595TIP3   OH235343   4.441   2.306   2.440  0.4884  0.4130 -0.3945
 4595TIP3    H135344   4.408   2.369   2.505 -0.0841 -0.6818  0.4131
 4595TIP3    H235345   4.531   2.290   2.466 -0.2553 -1.4293  1.3453
 4596TIP3   OH235346   1.197   1.481   2.003 -0.0411  0.2362 -0.2846
 4596TIP3    H135347   1.252   1.512   2.074  0.9030  1.3797 -1.4592
 4596TIP3    H235348   1.258   1.440   1.941 -0.8180 -0.6203 -0.5049
 4597TIP3   OH235349   4.860   3.552   2.326  0.3349  0.2382 -0.4010
 4597TIP3    H135350   4.924   3.618   2.352  0.0253  0.0314  0.9955
 4597TIP3    H235351   4.787   3.565   2.385 -0.1062 -0.7700 -0.6954
 4598TIP3   OH235352   6.080   1.914   1.070 -0.4101 -0.2676 -0.1722
 4598TIP3    H135353   6.032   1.997   1.074 -0.5783 -0.1432 -2.8549
 4598TIP3    H235354   6.023   1.852   1.114 -0.4135  0.9369  1.6365
 4599TIP3   OH235355   3.574   4.261   0.254 -0.2244 -0.0960 -0.4423
 4599TIP3    H135356   3.603   4.264   0.163  2.0991 -0.6511  0.2093
 4599TIP3    H235357   3.535   4.347   0.270  0.5910  0.5110 -1.5890
 4600TIP3   OH235358   4.315   3.485   2.500  0.0973 -0.3056  0.0250
 4600TIP3    H135359   4.309   3.444   2.586 -0.9203  1.7101  0.9794
 4600TIP3    H235360   4.319   3.412   2.439 -0.7473 -1.8073  1.6831
 4601TIP3   OH235361   3.143   2.115   2.717  0.3654  0.0494  0.3670
 4601TIP3    H135362   3.182   2.184   2.663  1.2056 -0.4032  0.3850
 4601TIP3    H235363   3.203   2.041   2.708  0.1877 -0.2313  1.4326
 4602TIP3   OH235364   4.364   1.682   3.096 -0.2638 -0.0494 -0.5568
 4602TIP3    H135365   4.350   1.777   3.097  0.4884  0.0656 -0.1950
 4602TIP3    H235366   4.319   1.651   3.175 -0.1638  0.0631 -0.4542
 4603TIP3   OH235367   5.934   2.447   0.892 -0.1076  0.4334 -0.1518
 4603TIP3    H135368   5.888   2.370   0.858  0.8185 -1.0337  1.6704
 4603TIP3    H235369   5.883   2.521   0.862 -0.8532 -0.8630 -2.2913
 4604TIP3   OH235370   5.393   2.040   1.356  0.4372  0.1323 -0.1142
 4604TIP3    H135371   5.337   1.990   1.297  2.8410 -1.9732 -0.7760
 4604TIP3    H235372   5.367   2.012   1.444 -1.4741  1.4255 -0.2138
 4605TIP3   OH235373   2.165   0.917   1.031 -0.1949 -0.3476  0.4354
 4605TIP3    H135374   2.126   0.846   0.980 -0.5529  1.5529 -2.1110
 4605TIP3    H235375   2.090   0.965   1.067 -0.1711  1.1018 -1.3241
 4606TIP3   OH235376   2.931   0.574   1.985 -0.4874  0.0086  0.0847
 4606TIP3    H135377   2.890   0.593   2.069  1.0360 -0.3112  0.9452
 4606TIP3    H235378   2.946   0.479   1.987 -1.8414 -0.2745 -1.2416
 4607TIP3   OH235379   1.288   5.075   2.562  0.2675 -0.4677 -0.1270
 4607TIP3    H135380   1.340   5.001   2.532 -0.0710 -0.7802  0.0494
 4607TIP3    H235381   1.353   5.137   2.597  0.5831 -0.4992 -0.6428
 4608TIP3   OH235382   0.347   1.524   0.082  0.1806  0.2626 -0.3399
 4608TIP3    H135383   0.390   1.557   0.161  0.2229 -2.0116  0.6733
 4608TIP3    H235384   0.259   1.562   0.084 -0.3814 -0.9845  1.7285
 4609TIP3   OH235385   4.961   5.558   8.561 -0.2067  0.1666  0.0017
 4609TIP3    H135386   5.020   5.497   8.516  0.5862 -0.5133  1.8566
 4609TIP3    H235387   5.017   5.632   8.584  0.1412 -0.6950  2.2017
 4610TIP3   OH235388   6.391   4.540   8.323 -1.0688 -0.1284  0.7784
 4610TIP3    H135389   6.401   4.634   8.335 -2.3924  0.3637 -1.4011
 4610TIP3    H235390   6.297   4.525   8.334 -1.1464 -0.8664 -0.7574
 4611TIP3   OH235391   0.110   6.127   2.298 -0.3515  0.1106  0.6271
 4611TIP3    H135392   0.019   6.099   2.290 -0.3475  0.1043  0.6059
 4611TIP3    H235393   0.116   6.203   2.239  0.1876 -1.1230 -0.9832
 4612TIP3   OH235394   0.816   3.464   0.127 -0.5275 -0.3709  0.2973
 4612TIP3    H135395   0.858   3.515   0.057 -1.8836 -0.6030 -0.7278
 4612TIP3    H235396   0.860   3.379   0.123 -0.1757 -0.1866  0.1479
 4613TIP3   OH235397   3.211   1.788   1.660 -0.0653  0.3204  0.1293
 4613TIP3    H135398   3.165   1.778   1.743 -0.1465  0.7490  0.1388
 4613TIP3    H235399   3.233   1.699   1.633 -1.4228  0.0516 -0.1790
 4614TIP3   OH235400   3.057   1.909   0.561  0.0702  0.4007  0.4993
 4614TIP3    H135401   3.132   1.878   0.510 -0.0441  0.6287  0.1899
 4614TIP3    H235402   2.981   1.888   0.507 -0.1320 -0.2835  1.0355
 4615TIP3   OH235403   3.384   3.542   8.998 -0.3909 -0.2252  0.5756
 4615TIP3    H135404   3.396   3.562   9.091  0.4783  0.2931  0.3681
 4615TIP3    H235405   3.470   3.559   8.959 -1.3919  2.2624 -0.7934
 4616TIP3   OH235406   5.409   4.361   2.273 -0.3254  0.2165  0.2147
 4616TIP3    H135407   5.379   4.429   2.334 -0.6363  0.3135 -0.0496
 4616TIP3    H235408   5.499   4.386   2.253 -0.6437  0.9186 -0.3891
 4617TIP3   OH235409   2.438   1.863   8.159  0.0388  0.1584  0.3308
 4617TIP3    H135410   2.477   1.928   8.217  0.2044  0.8382 -0.5294
 4617TIP3    H235411   2.506   1.796   8.148  0.5540  0.7695 -0.2563
 4618TIP3   OH235412   3.534   6.199   8.323  0.6160  0.5742  0.3325
 4618TIP3    H135413   3.503   6.186   8.233 -1.4619  0.1345  1.0536
 4618TIP3    H235414   3.621   6.160   8.324  0.3062 -0.2508 -1.2599
 4619TIP3   OH235415   5.148   5.270   0.779  0.0690 -0.4662  0.1834
 4619TIP3    H135416   5.182   5.275   0.868  0.7358 -0.0581 -0.0927
 4619TIP3    H235417   5.054   5.286   0.788 -0.0412 -1.4799  0.9300
 4620TIP3   OH235418   0.030   6.144   2.920 -0.2046 -0.1002  0.0390
 4620TIP3    H135419   0.096   6.105   2.864 -0.2361  1.2158 -0.9527
 4620TIP3    H235420   0.023   6.084   2.994  0.4482 -1.4257 -0.9427
 4621TIP3   OH235421   2.993   3.176   2.365  0.0879  0.3672 -0.0214
 4621TIP3    H135422   2.982   3.168   2.270 -2.3708  3.2319 -0.1046
 4621TIP3    H235423   3.084   3.151   2.380  0.0299 -2.1460 -2.8060
 4622TIP3   OH235424   4.255   2.088   2.411 -0.0341  0.0291 -0.0275
 4622TIP3    H135425   4.311   2.141   2.468  0.7230  1.8669 -2.3163
 4622TIP3    H235426   4.298   2.092   2.325 -1.3095 -2.3043 -0.8679
 4623TIP3   OH235427   4.211   0.409   0.793 -0.3791 -0.1106  0.5225
 4623TIP3    H135428   4.231   0.421   0.886  1.2967  3.2613 -0.0915
 4623TIP3    H235429   4.117   0.425   0.786 -0.6516 -1.1029  1.6953
 4624TIP3   OH235430   0.298   6.389   8.739  0.0057 -0.7875 -0.2836
 4624TIP3    H135431   0.351   6.359   8.666  2.1402  2.3149 -0.1947
 4624TIP3    H235432   0.210   6.399   8.702  0.7143 -0.7037 -2.0402
 4625TIP3   OH235433   3.347   4.473   7.504  0.1333  0.2269 -0.2658
 4625TIP3    H135434   3.330   4.400   7.564 -0.9577  0.2162 -0.5807
 4625TIP3    H235435   3.267   4.525   7.506  0.7098  1.1431 -0.4458
 4626TIP3   OH235436   0.660   3.177   8.060 -0.5710 -0.4875  0.5673
 4626TIP3    H135437   0.694   3.107   8.116  2.2720  0.0169 -0.3756
 4626TIP3    H235438   0.738   3.222   8.027 -2.2364  1.9936 -0.3299
 4627TIP3   OH235439   5.280   5.378   1.724 -0.2915 -0.2082 -0.0706
 4627TIP3    H135440   5.318   5.383   1.812 -0.9395  1.2969  0.1588
 4627TIP3    H235441   5.187   5.361   1.738 -0.6060  1.1139 -0.3879
 4628TIP3   OH235442   4.512   1.881   2.471 -0.1339 -0.2979  0.4147
 4628TIP3    H135443   4.595   1.865   2.428 -1.0676 -1.6493 -1.0046
 4628TIP3    H235444   4.535   1.911   2.559  1.8491  2.0910 -0.8043
 4629TIP3   OH235445   0.243   0.890   0.764  0.0015  0.1361 -0.1761
 4629TIP3    H135446   0.214   0.828   0.831 -0.3578 -1.1086 -1.4311
 4629TIP3    H235447   0.283   0.962   0.813  0.8491 -1.2972  1.3364
 4630TIP3   OH235448   3.589   2.250   0.831  0.3236 -0.4488  0.6804
 4630TIP3    H135449   3.570   2.204   0.913  1.1086 -0.5874  0.7904
 4630TIP3    H235450   3.522   2.219   0.770  2.3276 -3.7890 -0.0222
 4631TIP3   OH235451   4.665   1.131   2.293 -0.1973 -0.3223 -0.2515
 4631TIP3    H135452   4.640   1.127   2.201  0.7994 -0.3669 -0.5288
 4631TIP3    H235453   4.682   1.040   2.318 -0.8719 -0.3595  0.1014
 4632TIP3   OH235454   0.436   2.946   2.311  0.2213 -0.2436 -0.5479
 4632TIP3    H135455   0.355   2.946   2.361 -0.0509 -1.0952 -0.9663
 4632TIP3    H235456   0.429   3.023   2.254 -1.1254 -1.2867 -1.8579
 4633TIP3   OH235457   1.597   0.127   2.565 -0.7433 -0.1049 -0.0258
 4633TIP3    H135458   1.620   0.176   2.644  0.4228  1.3989 -1.2364
 4633TIP3    H235459   1.665   0.059   2.559 -0.1685  0.4762 -0.2967
 4634TIP3   OH235460   3.642   2.337   8.300 -0.3962  0.4346  0.5769
 4634TIP3    H135461   3.640   2.245   8.272  0.0211  0.1893  1.3024
 4634TIP3    H235462   3.577   2.381   8.245 -1.4236 -0.5200  0.9870
 4635TIP3   OH235463   6.520   1.819   0.250 -0.3003  0.2100 -0.2602
 4635TIP3    H135464   6.528   1.776   0.336  2.9476  0.7130 -0.1758
 4635TIP3    H235465   6.426   1.826   0.235 -0.9950 -0.3539  3.0436
 4636TIP3   OH235466   3.967   5.086   0.655 -0.2570 -0.5303 -0.0037
 4636TIP3    H135467   3.942   5.165   0.608  0.9808 -0.3093 -0.3056
 4636TIP3    H235468   3.887   5.061   0.702 -0.8393  0.5478 -0.3725
 4637TIP3   OH235469   3.109   0.063   9.014 -0.6165 -0.1564 -0.8535
 4637TIP3    H135470   3.176   0.001   8.984 -0.7087 -0.2297 -0.9066
 4637TIP3    H235471   3.157   0.123   9.072 -0.7519 -0.9414  0.0817
 4638TIP3   OH235472   3.407   5.756   8.595 -0.4952  0.3244 -0.2118
 4638TIP3    H135473   3.429   5.749   8.687  0.2036  3.4933 -0.0274
 4638TIP3    H235474   3.477   5.708   8.550  0.1022  0.1740  0.8363
 4639TIP3   OH235475   0.237   3.970   3.035 -0.0961 -0.7477 -0.2929
 4639TIP3    H135476   0.225   4.037   3.102 -1.4454 -0.1350 -1.1024
 4639TIP3    H235477   0.199   3.891   3.074 -1.0842 -0.3404 -0.3874
 4640TIP3   OH235478   5.889   5.903   9.038 -0.3008  0.6445 -0.6642
 4640TIP3    H135479   5.975   5.945   9.047 -0.7994  1.3163  1.3748
 4640TIP3    H235480   5.888   5.836   9.105 -1.4276  0.7430 -0.5661
 4641TIP3   OH235481   3.083   3.971   8.364 -0.1869  0.2602 -0.4350
 4641TIP3    H135482   2.989   3.987   8.377 -0.1665 -0.1852  0.3552
 4641TIP3    H235483   3.126   4.048   8.400 -0.2586  0.7395 -1.3419
 4642TIP3   OH235484   6.272   1.301   2.224 -0.1054 -0.2110  0.8852
 4642TIP3    H135485   6.305   1.230   2.169 -0.4156  2.0729 -2.6101
 4642TIP3    H235486   6.182   1.277   2.245  0.4323 -1.7321  1.5386
 4643TIP3   OH235487   1.948   0.764   0.237 -0.1459 -0.9070  0.3234
 4643TIP3    H135488   1.994   0.836   0.280 -0.0776  0.4558 -1.8717
 4643TIP3    H235489   1.862   0.799   0.214 -0.0973 -1.4770 -0.8343
 4644TIP3   OH235490   6.091   2.891   1.579  0.1163  0.4362  0.0216
 4644TIP3    H135491   6.036   2.897   1.501 -1.9558  0.2170  1.3976
 4644TIP3    H235492   6.073   2.971   1.628 -0.7068 -0.6345  1.5439
 4645TIP3   OH235493   5.249   6.421   1.546 -0.9731 -0.1709 -0.0144
 4645TIP3    H135494   5.276   6.455   1.461 -1.4697  1.1428  0.3261
 4645TIP3    H235495   5.318   6.451   1.606 -1.3253  0.0942  0.2624
 4646TIP3   OH235496   6.592   2.261   8.943  0.6808 -0.0840  0.3222
 4646TIP3    H135497   6.515   2.313   8.921  0.4253 -0.0310  1.3014
 4646TIP3    H235498   6.662   2.326   8.958  0.7255 -0.0945  0.1602
 4647TIP3   OH235499   2.544   1.272   1.064  0.5648 -0.4903 -0.5614
 4647TIP3    H135500   2.552   1.330   0.988  2.7972 -1.4738 -1.1826
 4647TIP3    H235501   2.471   1.215   1.042 -1.2428  1.5791 -0.2308
 4648TIP3   OH235502   4.904   1.140   7.556  0.2672  0.3069  0.3829
 4648TIP3    H135503   4.877   1.227   7.586  2.1266  1.2968 -0.6502
 4648TIP3    H235504   4.846   1.120   7.483 -1.1503 -0.0285  1.5455
 4649TIP3   OH235505   2.342   0.396   2.314 -0.2221 -0.1040 -0.3846
 4649TIP3    H135506   2.364   0.488   2.302  1.2142 -0.3990 -0.2793
 4649TIP3    H235507   2.249   0.395   2.334 -0.3600  1.2780 -0.8749
 4650TIP3   OH235508   1.504   1.763   1.764  0.1623 -0.1111  0.3624
 4650TIP3    H135509   1.516   1.731   1.674  2.5556  1.1716  0.1596
 4650TIP3    H235510   1.413   1.793   1.766  0.7544  2.4768 -2.5870
 4651TIP3   OH235511   4.087   5.147   0.305 -0.1159 -0.0587 -0.6982
 4651TIP3    H135512   4.061   5.110   0.221  0.6120 -0.7558 -0.6316
 4651TIP3    H235513   4.077   5.075   0.368 -0.4663  0.3984 -0.2168
 4652TIP3   OH235514   3.490   0.328   0.750  0.3131  0.3724  0.1082
 4652TIP3    H135515   3.566   0.289   0.707 -0.7416 -1.9928  0.2682
 4652TIP3    H235516   3.444   0.374   0.680  0.0052 -1.2504 -0.8039
 4653TIP3   OH235517   2.939   5.001   1.064 -0.3825  0.5984 -0.6764
 4653TIP3    H135518   2.990   4.940   1.118  0.2047  2.6251  1.2231
 4653TIP3    H235519   2.871   4.947   1.025  0.8955 -1.5065 -0.1842
 4654TIP3   OH235520   4.086   3.707   1.177  0.0744 -0.0922 -0.7815
 4654TIP3    H135521   4.029   3.781   1.156  0.0811  0.9148  2.2714
 4654TIP3    H235522   4.026   3.640   1.210  0.4640  1.0828  2.7364
 4655TIP3   OH235523   6.271   4.289   0.111 -0.3678 -0.7212 -0.0658
 4655TIP3    H135524   6.277   4.350   0.185  0.6063 -0.1497 -0.5883
 4655TIP3    H235525   6.275   4.346   0.033  1.2924 -1.4790 -0.5760
 4656TIP3   OH235526   2.140   2.191   0.459 -0.1157  0.3257 -0.3747
 4656TIP3    H135527   2.167   2.120   0.518 -0.3068 -0.0045 -0.6781
 4656TIP3    H235528   2.142   2.151   0.372 -0.3068  0.6731 -0.5388
 4657TIP3   OH235529   5.852   1.983   8.799  0.5528 -0.1594 -0.0247
 4657TIP3    H135530   5.777   2.006   8.854 -1.5147 -1.4719 -2.1240
 4657TIP3    H235531   5.899   2.065   8.788 -0.5702  0.7170  1.3471
 4658TIP3   OH235532   3.889   0.087   1.587  0.0074 -0.1582 -0.1451
 4658TIP3    H135533   3.793   0.093   1.579  0.0385 -0.3505 -0.6652
 4658TIP3    H235534   3.913   0.165   1.637 -0.4078 -0.0359 -0.1307
 4659TIP3   OH235535   3.565   0.153   7.484 -0.7543  0.2151  0.2507
 4659TIP3    H135536   3.527   0.204   7.412 -0.6827 -0.4681 -0.2776
 4659TIP3    H235537   3.582   0.218   7.553 -2.5838  0.5827  0.3910
 4660TIP3   OH235538   3.393   3.236   7.028 -0.3325  0.2732 -0.0523
 4660TIP3    H135539   3.459   3.304   7.015  1.1089 -1.1815 -0.6844
 4660TIP3    H235540   3.373   3.240   7.122  1.2123  0.2885  0.3114
 4661TIP3   OH235541   3.631   3.139   7.962 -0.7884  0.4221 -0.4379
 4661TIP3    H135542   3.548   3.121   7.918 -1.5957 -0.0859  1.2067
 4661TIP3    H235543   3.696   3.093   7.909 -1.5558  0.7337 -1.6875
 4662TIP3   OH235544   0.088   3.306   2.298 -0.8227  0.3611  0.2162
 4662TIP3    H135545   0.045   3.229   2.261  0.2848 -0.5971  0.8292
 4662TIP3    H235546   0.060   3.379   2.243 -0.2918 -0.8007 -1.6943
 4663TIP3   OH235547   2.490   5.407   0.055  0.5183 -0.0536  0.0750
 4663TIP3    H135548   2.526   5.489   0.086 -0.8330  0.6579 -0.1591
 4663TIP3    H235549   2.468   5.423  -0.037 -0.9077 -0.2442  0.3562
 4664TIP3   OH235550   4.796   3.380   2.136  0.2183 -0.1829  0.6090
 4664TIP3    H135551   4.846   3.434   2.197 -0.5798 -0.2605  1.3495
 4664TIP3    H235552   4.746   3.442   2.083  0.3637 -0.1415  0.5217
 4665TIP3   OH235553   0.493   6.129   2.574 -0.5867  0.5387 -0.1604
 4665TIP3    H135554   0.421   6.167   2.523  0.4945  0.6407 -1.6702
 4665TIP3    H235555   0.479   6.161   2.663 -2.3837  0.5845 -0.4166
 4666TIP3   OH235556   1.483   1.516   2.216 -0.3591  0.7399  0.0656
 4666TIP3    H135557   1.513   1.435   2.176 -2.0728 -0.5315  1.2193
 4666TIP3    H235558   1.500   1.506   2.309 -1.0518  1.4858  0.2921
 4667TIP3   OH235559   1.389   6.208   2.626 -0.4611 -0.3798 -0.5843
 4667TIP3    H135560   1.355   6.262   2.698 -0.7218  0.9693 -1.6928
 4667TIP3    H235561   1.459   6.260   2.588 -0.5899 -0.9131 -1.5668
 4668TIP3   OH235562   4.208   6.249   8.167 -0.2984 -0.4972 -0.1367
 4668TIP3    H135563   4.179   6.330   8.126 -0.5390  0.1305  1.2273
 4668TIP3    H235564   4.198   6.183   8.098  0.0452  0.6305 -1.3135
 4669TIP3   OH235565   3.430   2.566   0.422  0.1372  0.1318  0.5497
 4669TIP3    H135566   3.491   2.632   0.389 -0.7572  0.0786 -1.3188
 4669TIP3    H235567   3.480   2.520   0.489  1.6796  0.9948  0.0509
 4670TIP3   OH235568   3.851   5.565   8.481 -0.1345  0.2073 -0.3434
 4670TIP3    H135569   3.860   5.538   8.572 -0.0441  0.8934 -0.1448
 4670TIP3    H235570   3.940   5.560   8.445  0.2546  2.2337  0.2673
 4671TIP3   OH235571   0.906   3.144   2.347 -0.1019 -0.3859  0.2382
 4671TIP3    H135572   0.983   3.114   2.299 -0.1509 -0.0273 -0.0760
 4671TIP3    H235573   0.860   3.064   2.372  0.4209 -0.6038  0.5076
 4672TIP3   OH235574   6.549   4.988   8.314  0.7655 -0.3252  0.1304
 4672TIP3    H135575   6.610   4.952   8.379 -2.2226  0.3098  3.6157
 4672TIP3    H235576   6.504   4.911   8.279  2.1118 -0.6404 -1.0102
 4673TIP3   OH235577   2.828   3.203   7.183 -0.2045 -0.2202  0.0143
 4673TIP3    H135578   2.758   3.190   7.248 -0.0946 -1.4520 -0.0857
 4673TIP3    H235579   2.907   3.215   7.235 -0.6658  2.6655  0.1654
 4674TIP3   OH235580   3.551   1.669   8.563 -0.3876  0.0991 -0.0635
 4674TIP3    H135581   3.530   1.698   8.474  0.9753 -0.8240 -0.7385
 4674TIP3    H235582   3.474   1.690   8.615 -0.6176  2.1082 -1.1169
 4675TIP3   OH235583   5.561   6.049   8.143  0.3054  0.0185  0.2130
 4675TIP3    H135584   5.573   6.014   8.231  1.9262  0.0459  0.0407
 4675TIP3    H235585   5.611   5.990   8.087  0.0783  0.5440 -0.5575
 4676TIP3   OH235586   0.205   2.183   7.358 -0.5142 -0.4037 -1.0197
 4676TIP3    H135587   0.251   2.116   7.410 -1.6149 -3.0985 -3.2447
 4676TIP3    H235588   0.275   2.230   7.313  0.2725 -0.3995  0.1536
 4677TIP3   OH235589   0.246   4.272   0.525  0.1182 -0.4283 -0.3882
 4677TIP3    H135590   0.179   4.246   0.461 -0.2915 -0.9265  0.2217
 4677TIP3    H235591   0.212   4.353   0.563  1.1967  0.8467 -1.9974
 4678TIP3   OH235592   1.756   1.612   1.003  0.1088  0.3288 -0.1173
 4678TIP3    H135593   1.786   1.580   1.088 -1.2714  0.4765  0.4599
 4678TIP3    H235594   1.835   1.620   0.951  0.7963 -1.6522  0.5129
 4679TIP3   OH235595   1.606   3.078   8.685 -0.6414 -0.1080  0.3567
 4679TIP3    H135596   1.571   3.072   8.774  0.0590  2.6702  0.9075
 4679TIP3    H235597   1.700   3.066   8.696 -0.3929  1.5330  0.2189
 4680TIP3   OH235598   1.435   2.508   0.696 -0.4753  0.0885  0.0424
 4680TIP3    H135599   1.519   2.468   0.674 -0.3799  0.1662  0.2564
 4680TIP3    H235600   1.379   2.490   0.621 -0.5705 -0.8287  0.3226
 4681TIP3   OH235601   3.327   1.469   1.278 -0.2047  0.6141 -0.2407
 4681TIP3    H135602   3.356   1.397   1.222 -0.9094 -0.1760  0.3890
 4681TIP3    H235603   3.409   1.504   1.316  0.1997  0.6324 -1.1069
 4682TIP3   OH235604   3.813   1.127   8.472 -0.7345 -0.3647  0.2568
 4682TIP3    H135605   3.864   1.193   8.520 -1.8823  1.6215 -1.0794
 4682TIP3    H235606   3.869   1.102   8.399 -1.2031  1.0332 -0.6217
 4683TIP3   OH235607   3.563   6.321   7.918 -0.1903 -0.0305  0.2069
 4683TIP3    H135608   3.599   6.396   7.965 -2.2327  0.9492  0.3624
 4683TIP3    H235609   3.603   6.326   7.831  0.1780  0.8893  0.4145
 4684TIP3   OH235610   3.919   4.810   8.984  0.2563 -0.1971 -0.4727
 4684TIP3    H135611   3.908   4.852   8.898  0.9571 -0.9977 -0.9742
 4684TIP3    H235612   3.996   4.754   8.973  0.2625 -0.4236  0.6427
 4685TIP3   OH235613   3.296   4.190   7.981  0.1857 -0.2788  0.0034
 4685TIP3    H135614   3.375   4.243   7.967  0.1050  0.6354  2.4523
 4685TIP3    H235615   3.306   4.155   8.070 -2.0264 -0.3300  0.2957
 4686TIP3   OH235616   2.975   6.555   0.073  0.2167  0.2995 -0.1055
 4686TIP3    H135617   3.064   6.523   0.083 -0.0864 -2.7178 -4.2673
 4686TIP3    H235618   2.925   6.509   0.140  1.0797 -2.2153 -1.0716
 4687TIP3   OH235619   3.658   3.913   0.424  0.4458  0.0108  0.0482
 4687TIP3    H135620   3.692   3.957   0.346 -1.9308 -0.1842 -1.1970
 4687TIP3    H235621   3.564   3.906   0.408  0.0935 -1.3711  2.3044
 4688TIP3   OH235622   1.909   4.901   8.955 -0.2162  0.8107 -0.1985
 4688TIP3    H135623   1.816   4.919   8.942 -0.3421  2.1798  2.1374
 4688TIP3    H235624   1.939   4.871   8.869 -3.2611 -2.0058 -0.4870
 4689TIP3   OH235625   4.870   3.206   1.464  0.2012 -0.1466  0.5842
 4689TIP3    H135626   4.909   3.228   1.379 -0.6183  0.1621  0.2790
 4689TIP3    H235627   4.796   3.266   1.473 -0.4211 -0.9498  0.9854
 4690TIP3   OH235628   1.543   4.403   1.537  0.2310 -0.5226  0.8699
 4690TIP3    H135629   1.457   4.360   1.535 -0.1348  0.1890 -0.7661
 4690TIP3    H235630   1.523   4.494   1.559  0.1033  0.3804 -2.3392
 4691TIP3   OH235631   1.076   1.221   2.087  0.0202  0.3789  0.1856
 4691TIP3    H135632   1.066   1.306   2.045 -2.1450 -0.2246 -0.6736
 4691TIP3    H235633   1.145   1.234   2.153  0.4437  2.4930 -0.5948
 4692TIP3   OH235634   0.800   2.509   2.476 -0.5549  0.1858 -0.0880
 4692TIP3    H135635   0.740   2.583   2.467 -0.9788 -0.0454  0.6870
 4692TIP3    H235636   0.746   2.432   2.460  0.1817  0.0586 -2.3158
 4693TIP3   OH235637   0.185   5.851   9.072 -0.0592  0.0066 -0.2771
 4693TIP3    H135638   0.275   5.871   9.099  0.5518 -2.4384 -0.3453
 4693TIP3    H235639   0.164   5.919   9.008  1.7911  0.5185 -0.3828
 4694TIP3   OH235640   0.711   1.840   9.203 -0.3435 -0.1725 -0.3906
 4694TIP3    H135641   0.620   1.827   9.175 -0.8902  2.3880 -0.0485
 4694TIP3    H235642   0.710   1.820   9.296 -0.4818 -0.4065 -0.4394
 4695TIP3   OH235643   3.207   5.119   1.586 -0.3068 -0.1556  0.5252
 4695TIP3    H135644   3.140   5.052   1.575  0.7317 -1.4763  1.8108
 4695TIP3    H235645   3.289   5.070   1.595  1.1434  1.4477 -2.5068
 4696TIP3   OH235646   2.920   6.395   8.873 -0.0891 -0.5738 -0.9711
 4696TIP3    H135647   2.880   6.382   8.959 -1.0728  1.1224 -1.1400
 4696TIP3    H235648   3.002   6.346   8.877 -0.1455 -0.5776  0.9037
 4697TIP3   OH235649   6.546   4.367   8.481  0.3811  0.0510  0.4022
 4697TIP3    H135650   6.489   4.318   8.540  1.3490  0.0912  1.4025
 4697TIP3    H235651   6.488   4.432   8.440 -0.8316 -1.6185 -0.6396
 4698TIP3   OH235652   6.576   0.442   7.457  0.3461 -0.3450 -0.2232
 4698TIP3    H135653   6.617   0.405   7.535 -0.8470 -0.9389  0.1514
 4698TIP3    H235654   6.487   0.408   7.459 -0.0373  0.5472 -1.2436
 4699TIP3   OH235655   3.722   2.623   1.459  0.0614  0.5383  0.4517
 4699TIP3    H135656   3.784   2.695   1.450  1.1492 -0.2749  1.1329
 4699TIP3    H235657   3.736   2.570   1.380 -0.7231  1.0455 -0.0392
 4700TIP3   OH235658   1.911   2.698   1.862 -0.1221 -0.4115 -0.0650
 4700TIP3    H135659   1.922   2.626   1.924  1.5722 -0.8589 -0.8075
 4700TIP3    H235660   1.976   2.680   1.794 -2.1537 -0.1781 -2.2009
 4701TIP3   OH235661   2.783   1.856   0.046 -0.0626 -0.5298  0.1193
 4701TIP3    H135662   2.832   1.775   0.032 -1.1430 -1.4123  1.2239
 4701TIP3    H235663   2.847   1.916   0.085  0.3691 -1.3728  0.7449
 4702TIP3   OH235664   0.590   5.360   1.905 -0.0223 -0.5220 -0.4402
 4702TIP3    H135665   0.523   5.291   1.905 -0.2822 -0.2747  0.2221
 4702TIP3    H235666   0.543   5.439   1.930  1.0589 -0.9335  3.6071
 4703TIP3   OH235667   2.334   2.521   7.541 -0.5452  0.2583  0.0754
 4703TIP3    H135668   2.365   2.465   7.470  1.5270  1.5350 -0.1055
 4703TIP3    H235669   2.354   2.472   7.621 -0.6708 -0.1328 -0.1299
 4704TIP3   OH235670   5.066   2.360   8.130 -1.1857  0.1083  0.0249
 4704TIP3    H135671   5.125   2.426   8.094  1.8653 -2.8339 -0.8822
 4704TIP3    H235672   5.100   2.342   8.217 -2.1028 -0.1407  0.3463
 4705TIP3   OH235673   1.205   0.731   2.056  0.1475 -0.0304  0.3740
 4705TIP3    H135674   1.234   0.804   2.001 -0.8829 -1.0696 -1.6661
 4705TIP3    H235675   1.263   0.659   2.033 -0.5366 -0.5804  0.3521
 4706TIP3   OH235676   5.536   0.025   1.236 -0.2683  0.8476 -0.6831
 4706TIP3    H135677   5.592  -0.033   1.286 -0.4409  0.3927 -1.0114
 4706TIP3    H235678   5.459  -0.028   1.213 -0.6168  1.3215 -0.6395
 4707TIP3   OH235679   2.570   5.372   1.108  0.6828 -0.0573 -0.6013
 4707TIP3    H135680   2.631   5.298   1.108  0.1627 -0.5031  0.2368
 4707TIP3    H235681   2.566   5.400   1.200  0.2765  0.5150 -0.7883
 4708TIP3   OH235682   1.661   2.546   1.645  0.0869 -0.3338 -0.2692
 4708TIP3    H135683   1.578   2.500   1.632 -0.4632  0.2955  0.8584
 4708TIP3    H235684   1.664   2.611   1.575  0.6376 -1.7091 -1.5794
 4709TIP3   OH235685   6.037   3.096   1.758 -0.3692  0.5741  0.0983
 4709TIP3    H135686   5.967   3.159   1.775  0.8262  1.4057  2.4657
 4709TIP3    H235687   6.117   3.150   1.755  0.6370 -0.7211  1.8236
 4710TIP3   OH235688   4.445   4.718   8.090  0.0767  0.4929  0.5307
 4710TIP3    H135689   4.454   4.803   8.047  2.0205  0.1533  0.1832
 4710TIP3    H235690   4.372   4.675   8.045  0.3462  1.2064 -0.6253
 4711TIP3   OH235691   5.123   0.456   7.298  0.2955  0.7157  0.5397
 4711TIP3    H135692   5.040   0.415   7.322 -0.6138  1.6498 -0.8153
 4711TIP3    H235693   5.097   0.531   7.244  2.0435  0.6345 -0.4724
 4712TIP3   OH235694   1.539   0.797   2.156  0.1116  0.2555 -0.5854
 4712TIP3    H135695   1.557   0.831   2.068 -0.8389  0.1429 -0.8414
 4712TIP3    H235696   1.551   0.872   2.214  2.1532  0.0014 -0.6068
 4713TIP3   OH235697   5.040   0.606   7.931 -0.4411 -0.1686 -0.1700
 4713TIP3    H135698   5.066   0.567   7.847 -0.7607 -0.3395 -0.1939
 4713TIP3    H235699   4.952   0.572   7.946 -0.1497 -0.6327  0.5409
 4714TIP3   OH235700   1.775   1.252   0.355  0.0949 -0.3952 -0.1370
 4714TIP3    H135701   1.821   1.286   0.432 -0.6154 -2.8270  1.4937
 4714TIP3    H235702   1.691   1.221   0.389  0.5946 -3.5371 -1.3824
 4715TIP3   OH235703   0.150   3.996   2.718  0.2262  0.7364  0.4935
 4715TIP3    H135704   0.091   4.051   2.666  1.0467 -0.5224 -1.9137
 4715TIP3    H235705   0.099   3.919   2.740 -0.6515  1.9635  3.1390
 4716TIP3   OH235706   4.680   0.210   0.900  0.4115  0.4601 -0.1059
 4716TIP3    H135707   4.730   0.250   0.971  2.1853 -3.2062  0.9774
 4716TIP3    H235708   4.735   0.220   0.823  1.5625 -0.9899  0.4707
 4717TIP3   OH235709   6.187   0.190   8.798 -0.1633 -0.0838  0.0590
 4717TIP3    H135710   6.156   0.176   8.709 -0.8806 -1.7224  0.5346
 4717TIP3    H235711   6.213   0.282   8.800  1.5483 -0.4084 -2.3474
 4718TIP3   OH235712   3.922   1.154   8.193 -0.7436 -0.2126 -0.3489
 4718TIP3    H135713   3.961   1.073   8.159 -0.8704  0.4779 -2.2396
 4718TIP3    H235714   3.977   1.224   8.157 -2.8276  0.7162 -1.8664
 4719TIP3   OH235715   1.874   3.000   8.656  0.4779 -0.6603 -0.2031
 4719TIP3    H135716   1.929   2.931   8.694 -0.9283 -2.6529 -1.5854
 4719TIP3    H235717   1.838   2.961   8.576 -1.9868  0.9641 -0.0001
 4720TIP3   OH235718   4.216   2.217   8.012  0.3005  0.3015 -0.4562
 4720TIP3    H135719   4.156   2.177   7.949  1.3445  0.6189 -1.7057
 4720TIP3    H235720   4.238   2.302   7.974  3.5021 -0.8089 -1.4241
 4721TIP3   OH235721   6.484   6.297   2.794 -0.6585 -0.2416  0.0021
 4721TIP3    H135722   6.549   6.266   2.858 -0.4478 -0.9339 -0.5301
 4721TIP3    H235723   6.401   6.265   2.828 -0.6210 -0.1085  0.2271
 4722TIP3   OH235724   3.384   4.685   9.238  0.3120  0.6083  0.6152
 4722TIP3    H135725   3.314   4.657   9.177  0.0808  0.1297  1.0897
 4722TIP3    H235726   3.377   4.780   9.240 -0.4703  0.5561  0.8105
 4723TIP3   OH235727   3.019   2.837   2.266  0.3501  0.2273  0.4332
 4723TIP3    H135728   3.013   2.743   2.283  0.3298  0.1965  0.2550
 4723TIP3    H235729   3.112   2.851   2.245  0.0611 -0.0074 -1.0546
 4724TIP3   OH235730   6.076   5.414   7.707  0.1217 -0.1526  0.0680
 4724TIP3    H135731   6.160   5.406   7.753  1.5183  1.5116 -1.9851
 4724TIP3    H235732   6.059   5.325   7.674  0.5841 -0.7078  1.2509
 4725TIP3   OH235733   1.443   4.605   7.821  0.4648  0.4833  0.2948
 4725TIP3    H135734   1.491   4.588   7.740  0.2938 -2.1179  0.6548
 4725TIP3    H235735   1.417   4.697   7.815  2.1844  0.9157 -1.6464
 4726TIP3   OH235736   0.558   2.151   1.675 -0.0674  0.5347  0.2292
 4726TIP3    H135737   0.637   2.136   1.727 -0.2349 -1.1390  0.0580
 4726TIP3    H235738   0.488   2.160   1.741 -0.0197  0.1219  0.3379
 4727TIP3   OH235739   0.888   3.238   7.351  0.0688  0.5741  0.0191
 4727TIP3    H135740   0.972   3.257   7.393  0.1816 -0.6115  0.3533
 4727TIP3    H235741   0.839   3.188   7.416  0.0839 -0.9315 -1.0945
 4728TIP3   OH235742   6.265   0.049   1.891  0.0609 -0.1529 -0.5264
 4728TIP3    H135743   6.341   0.108   1.884 -0.5279  0.5030 -1.6323
 4728TIP3    H235744   6.303  -0.039   1.887  0.7119  0.1614 -2.0664
 4729TIP3   OH235745   5.354   5.713   2.229 -0.5752 -0.7797  0.9093
 4729TIP3    H135746   5.422   5.761   2.182 -1.2738 -0.1334  0.5390
 4729TIP3    H235747   5.389   5.701   2.317  0.2295 -0.9140  0.5793
 4730TIP3   OH235748   2.606   0.140   8.584 -0.2550  0.5601 -0.4273
 4730TIP3    H135749   2.664   0.082   8.633  0.5636 -0.3709 -2.4093
 4730TIP3    H235750   2.529   0.150   8.640  0.2803 -1.1202  0.6778
 4731TIP3   OH235751   5.270   0.267   8.844 -0.4092  0.4606 -0.0846
 4731TIP3    H135752   5.235   0.274   8.933 -0.1378 -0.7421  0.1251
 4731TIP3    H235753   5.355   0.310   8.848 -0.3655  0.3421  0.2550
 4732TIP3   OH235754   2.328   3.769   1.513 -0.0004 -0.1991  0.1596
 4732TIP3    H135755   2.332   3.679   1.544 -0.9674 -0.1984  0.3343
 4732TIP3    H235756   2.263   3.811   1.571 -2.2779 -0.3151 -2.1214
 4733TIP3   OH235757   3.262   6.215   2.142  0.1774 -0.1011 -0.1222
 4733TIP3    H135758   3.355   6.220   2.119  0.4382 -2.3452  0.1944
 4733TIP3    H235759   3.256   6.141   2.202 -1.7950  0.1667  0.0879
 4734TIP3   OH235760   0.029   4.148   2.511  0.4320  0.2010 -0.2456
 4734TIP3    H135761  -0.052   4.105   2.482  0.9878 -0.6696 -0.5329
 4734TIP3    H235762   0.001   4.237   2.533 -0.6939 -0.2181  0.1079
 4735TIP3   OH235763   2.513   1.159   8.313  0.2737  0.2287 -0.1818
 4735TIP3    H135764   2.444   1.223   8.298 -0.7849 -1.1142 -1.3555
 4735TIP3    H235765   2.512   1.143   8.407 -1.0003  0.2465 -0.1816
 4736TIP3   OH235766   4.662   1.617   8.189  0.1416  0.1671  0.2962
 4736TIP3    H135767   4.727   1.686   8.179 -0.6203  1.1737  1.9515
 4736TIP3    H235768   4.586   1.660   8.227 -0.9453 -1.2889 -0.1178
 4737TIP3   OH235769   4.283   5.747   1.815  0.5420  0.0156 -0.7641
 4737TIP3    H135770   4.343   5.773   1.745  0.6716 -0.0085 -0.6630
 4737TIP3    H235771   4.198   5.779   1.787  0.4332 -0.7658 -1.3630
 4738TIP3   OH235772   4.302   5.133   8.245  0.0285  0.2510 -0.5549
 4738TIP3    H135773   4.364   5.069   8.279 -0.4631  0.1833  0.2474
 4738TIP3    H235774   4.346   5.217   8.252 -0.7735  0.5363  2.2365
 4739TIP3   OH235775   2.779   5.004   2.964  0.2829  0.1153 -0.0180
 4739TIP3    H135776   2.707   5.000   3.027 -0.0250 -0.1771 -0.3866
 4739TIP3    H235777   2.846   4.946   3.001 -1.2997 -3.0122 -1.7134
 4740TIP3   OH235778   4.858   5.522   8.801 -0.1178  0.1059  0.4615
 4740TIP3    H135779   4.946   5.484   8.794  0.1559  0.6070  1.0383
 4740TIP3    H235780   4.839   5.555   8.713  0.1696 -0.2153  0.2750
 4741TIP3   OH235781   0.341   2.869   0.815  0.0568  0.2011 -0.0357
 4741TIP3    H135782   0.390   2.951   0.815  0.7204 -0.1744  0.6531
 4741TIP3    H235783   0.407   2.802   0.836 -0.5958 -0.4260  0.0693
 4742TIP3   OH235784   3.391   0.305   2.380 -0.0159 -0.4557  0.1228
 4742TIP3    H135785   3.305   0.334   2.410  0.2264  0.9293 -0.4749
 4742TIP3    H235786   3.403   0.220   2.422 -1.4497 -0.4379  0.6256
 4743TIP3   OH235787   0.761   1.135   0.674  0.5592 -0.1849  0.2263
 4743TIP3    H135788   0.720   1.102   0.753  1.4849  1.1064  1.2880
 4743TIP3    H235789   0.761   1.230   0.684 -2.5714  0.3741 -2.9948
 4744TIP3   OH235790   2.668   4.311   8.279 -0.3658  0.1496  0.3474
 4744TIP3    H135791   2.682   4.238   8.339 -2.7386 -0.5410  0.1536
 4744TIP3    H235792   2.574   4.313   8.265 -0.0471  1.2334 -2.1826
 4745TIP3   OH235793   3.435   3.086   2.873 -0.5112 -0.5944 -0.0504
 4745TIP3    H135794   3.411   3.117   2.786 -1.3300 -0.3915  0.2355
 4745TIP3    H235795   3.396   3.150   2.933  1.2919  0.1111  0.4411
 4746TIP3   OH235796   0.623   2.846   9.068 -0.1390 -0.1036 -0.0696
 4746TIP3    H135797   0.573   2.893   9.001  0.5230 -0.5097 -0.8636
 4746TIP3    H235798   0.708   2.889   9.069 -0.1972  0.0027  0.6336
 4747TIP3   OH235799   4.698   4.917   8.934  0.0018  0.6742  0.5790
 4747TIP3    H135800   4.685   4.920   8.839 -0.5666 -0.7289  0.5939
 4747TIP3    H235801   4.715   4.825   8.953  3.4985  1.3582  1.4506
 4748TIP3   OH235802   5.753   5.698   7.753  1.2117  0.4669 -0.6739
 4748TIP3    H135803   5.680   5.693   7.692 -0.4464 -0.1224  1.2323
 4748TIP3    H235804   5.739   5.625   7.813  2.4550  1.3006  0.7042
 4749TIP3   OH235805   4.945   4.965   2.261 -0.2769  0.0830  0.0248
 4749TIP3    H135806   5.030   4.950   2.303 -0.5425 -0.3609  0.4186
 4749TIP3    H235807   4.918   5.051   2.293  0.7597  0.9833 -1.3869
 4750TIP3   OH235808   4.882   0.927   9.244  0.3747  0.8382 -0.2302
 4750TIP3    H135809   4.888   1.015   9.282  1.0150  0.4839  0.5152
 4750TIP3    H235810   4.789   0.917   9.222  0.0586  1.2219  0.8593
 4751TIP3   OH235811   1.242   4.392   9.111  0.3699  0.7274 -0.2935
 4751TIP3    H135812   1.164   4.394   9.166  0.3802 -0.4407 -0.2068
 4751TIP3    H235813   1.314   4.412   9.171  0.3152  0.0572  0.0130
 4752TIP3   OH235814   4.509   2.618   0.437 -0.1669 -0.1161  0.2729
 4752TIP3    H135815   4.499   2.623   0.532 -1.1456 -1.4013  0.2628
 4752TIP3    H235816   4.467   2.697   0.404  1.1241  0.8942  0.9317
 4753TIP3   OH235817   4.141   4.024   9.010 -0.2051 -0.0119  0.6642
 4753TIP3    H135818   4.103   4.101   9.052 -1.3717  0.2509 -0.7770
 4753TIP3    H235819   4.096   3.950   9.052 -1.7797  0.2658 -0.4335
 4754TIP3   OH235820   1.889   1.109   0.107 -0.4191 -0.3668  0.6940
 4754TIP3    H135821   1.832   1.177   0.142 -0.9457 -0.3504 -0.1664
 4754TIP3    H235822   1.912   1.139   0.019 -0.2550 -1.0551  0.4917
 4755TIP3   OH235823   5.413   2.745   7.899  0.1974 -0.2013  0.3009
 4755TIP3    H135824   5.352   2.817   7.886 -0.8245 -0.4348  3.1329
 4755TIP3    H235825   5.380   2.674   7.844 -0.6601  0.4650 -0.0554
 4756TIP3   OH235826   2.371   4.940   0.523  0.4844  0.0825  0.2422
 4756TIP3    H135827   2.344   4.944   0.432  0.7513  1.7031  0.2022
 4756TIP3    H235828   2.466   4.947   0.520  0.4670  0.5576  0.6542
 4757TIP3   OH235829   2.396   2.477   8.312 -0.0264 -0.2227 -0.2988
 4757TIP3    H135830   2.376   2.557   8.264 -0.4439 -0.6560 -0.8551
 4757TIP3    H235831   2.465   2.434   8.261  0.0530 -0.3164 -0.1148
 4758TIP3   OH235832   2.795   2.612   8.701  0.2795 -0.5649  0.0411
 4758TIP3    H135833   2.783   2.663   8.781  2.3069 -0.6606  0.4626
 4758TIP3    H235834   2.769   2.523   8.726 -2.1189 -0.0421 -0.3612
 4759TIP3   OH235835   3.089   1.021   1.027 -0.0626  0.2082  0.2241
 4759TIP3    H135836   3.129   0.935   1.026 -0.3334  0.0747  0.4991
 4759TIP3    H235837   3.045   1.026   1.112  1.2702  1.2349  0.8755
 4760TIP3   OH235838   1.933   2.974   9.278 -0.6777 -0.0864  0.1721
 4760TIP3    H135839   1.838   2.985   9.276 -0.4685  2.0613 -0.8329
 4760TIP3    H235840   1.966   3.059   9.306  1.0103 -0.0013 -1.8154
 4761TIP3   OH235841   4.584   2.848   8.550  0.2287  0.4369  0.1475
 4761TIP3    H135842   4.672   2.831   8.519  1.0680  0.1803  2.5106
 4761TIP3    H235843   4.584   2.941   8.574 -0.5680  0.7693 -1.0130
 4762TIP3   OH235844   3.811   1.769   0.218 -0.0966  0.1728 -0.5537
 4762TIP3    H135845   3.768   1.746   0.300  0.2106  1.3785 -0.0429
 4762TIP3    H235846   3.780   1.703   0.156 -0.1093 -0.9343  0.5817
 4763TIP3   OH235847   2.958   4.489   8.300 -0.3331 -0.1534 -0.2945
 4763TIP3    H135848   2.971   4.582   8.319  0.2234 -0.4842  1.1253
 4763TIP3    H235849   2.924   4.487   8.211 -0.5710  1.4192 -0.2701
 4764TIP3   OH235850   6.635   5.934   2.076  0.0630 -0.6892 -0.2699
 4764TIP3    H135851   6.726   5.934   2.103 -0.0313 -0.1330  0.0574
 4764TIP3    H235852   6.586   5.911   2.155 -0.3147  2.2204  0.4461
 4765TIP3   OH235853   3.210   3.152   7.279  0.7466 -0.0876 -0.4069
 4765TIP3    H135854   3.254   3.074   7.316 -0.6387 -0.9092 -0.4287
 4765TIP3    H235855   3.271   3.224   7.297 -0.1471 -0.1975  4.3995
 4766TIP3   OH235856   2.649   6.289   2.475 -0.0533 -0.3997 -0.1689
 4766TIP3    H135857   2.739   6.285   2.444  0.6416  0.7273  1.5196
 4766TIP3    H235858   2.657   6.311   2.568 -2.0415 -1.6307  0.3644
 4767TIP3   OH235859   5.558   1.315   0.938  0.0938  0.2666 -0.1213
 4767TIP3    H135860   5.530   1.225   0.926 -0.6067  0.3914  0.5160
 4767TIP3    H235861   5.608   1.314   1.020  3.0030 -0.1723 -1.7627
 4768TIP3   OH235862   3.734   4.289   2.012 -0.5763  0.2508 -0.4271
 4768TIP3    H135863   3.747   4.235   1.935 -2.2728 -0.3914 -0.2926
 4768TIP3    H235864   3.791   4.365   1.998  0.6681 -0.8014 -1.3325
 4769TIP3   OH235865   1.537   4.996   1.904  0.2846  0.4442 -0.3539
 4769TIP3    H135866   1.485   5.009   1.825  1.4914  3.6820 -0.7546
 4769TIP3    H235867   1.625   4.976   1.872  0.5804  0.8846  0.1708
 4770TIP3   OH235868   5.958   5.975   8.265  0.2891  0.9316 -0.3765
 4770TIP3    H135869   6.011   5.896   8.278  0.2287  0.7628 -1.1581
 4770TIP3    H235870   5.875   5.943   8.232 -0.6736  1.1118  1.6957
 4771TIP3   OH235871   2.315   3.565   8.096 -0.2060  0.1236  0.1859
 4771TIP3    H135872   2.371   3.535   8.167  1.1621  2.1335  0.0237
 4771TIP3    H235873   2.344   3.514   8.020  0.5509  0.2540  0.3802
 4772TIP3   OH235874   4.594   4.319   2.036  0.4609 -0.3667 -0.5593
 4772TIP3    H135875   4.641   4.401   2.052  0.0685 -0.4865  1.4245
 4772TIP3    H235876   4.607   4.268   2.115 -1.0332 -1.3804 -0.9281
 4773TIP3   OH235877   1.897   2.155   0.146  0.0608  0.6636 -0.1736
 4773TIP3    H135878   1.866   2.065   0.140  1.4722 -0.0759  2.3230
 4773TIP3    H235879   1.950   2.168   0.067 -1.0531 -0.2674 -1.1149
 4774TIP3   OH235880   1.579   2.963   1.379 -0.1801 -0.7571  0.0310
 4774TIP3    H135881   1.600   3.026   1.448  1.8377  1.1016 -2.0645
 4774TIP3    H235882   1.526   3.013   1.317  1.1845 -1.1431 -1.5285
 4775TIP3   OH235883   5.935   4.943   2.098 -0.5391 -1.0808 -0.3965
 4775TIP3    H135884   5.922   5.021   2.153 -0.9777 -0.6782 -1.0544
 4775TIP3    H235885   5.852   4.897   2.102 -0.4615 -1.2258 -0.4567
 4776TIP3   OH235886   0.351   3.295   1.658 -0.3926 -0.1314 -0.1035
 4776TIP3    H135887   0.315   3.278   1.571 -1.8921  1.8721  0.0749
 4776TIP3    H235888   0.382   3.385   1.655 -1.8573  0.5046  1.8477
 4777TIP3   OH235889   2.095   2.558   8.771  0.0993 -0.3044 -0.3805
 4777TIP3    H135890   2.021   2.573   8.831 -0.0271  1.1323 -0.8718
 4777TIP3    H235891   2.056   2.516   8.695 -0.4845  1.6202 -1.1974
 4778TIP3   OH235892   5.603   1.381   1.837 -0.7758  0.1295 -0.3029
 4778TIP3    H135893   5.536   1.439   1.873  0.5120  0.5378  1.5922
 4778TIP3    H235894   5.686   1.419   1.866  0.1826 -1.6589 -0.5497
 4779TIP3   OH235895   5.907   4.479   2.679 -0.2524 -0.4651  0.0430
 4779TIP3    H135896   5.899   4.512   2.769 -1.3754 -3.2994  1.0785
 4779TIP3    H235897   5.840   4.527   2.630 -0.8684 -0.1895  1.1320
 4780TIP3   OH235898   6.618   5.351   9.233  0.4608 -0.0982  0.5379
 4780TIP3    H135899   6.601   5.394   9.150  3.0807  1.4217  0.6693
 4780TIP3    H235900   6.586   5.412   9.300 -1.2697 -1.1327  0.7114
 4781TIP3   OH235901   2.776   3.072   1.394 -0.0582 -0.1147 -0.9360
 4781TIP3    H135902   2.712   3.125   1.442  0.0195  0.0952 -1.0602
 4781TIP3    H235903   2.809   3.131   1.326  2.4051  0.7971  0.8899
 4782TIP3   OH235904   1.822   2.202   7.918  0.3131 -0.1725 -0.3058
 4782TIP3    H135905   1.838   2.179   8.010  1.4408 -2.8548 -1.0603
 4782TIP3    H235906   1.884   2.273   7.900  0.4941 -0.0147  0.8373
 4783TIP3   OH235907   5.044   4.160   2.944  0.4101  0.5470 -0.5334
 4783TIP3    H135908   4.982   4.215   2.991  0.2171  0.3959 -0.6083
 4783TIP3    H235909   5.078   4.216   2.874 -0.2303  0.3905 -0.9768
 4784TIP3   OH235910   1.838   2.270   0.404  0.0532  0.8902 -0.2558
 4784TIP3    H135911   1.855   2.261   0.310 -0.6867 -0.5726 -0.2770
 4784TIP3    H235912   1.925   2.269   0.444  0.3432  0.8586 -0.8722
 4785TIP3   OH235913   4.165   0.127   1.453 -0.3714  0.8133 -0.4778
 4785TIP3    H135914   4.071   0.113   1.463 -0.4989  1.7470 -0.3452
 4785TIP3    H235915   4.173   0.182   1.375  0.0198  1.2707 -0.1211
 4786TIP3   OH235916   4.698   6.390   0.325  0.1675  0.1913  0.9402
 4786TIP3    H135917   4.610   6.357   0.311  0.4673 -0.6632  0.9995
 4786TIP3    H235918   4.698   6.477   0.286 -0.6793  0.1693  0.8845
 4787TIP3   OH235919   1.092   2.958   0.610 -0.2879 -0.8737  0.1028
 4787TIP3    H135920   1.150   2.888   0.580  1.5179  0.5370  0.1670
 4787TIP3    H235921   1.023   2.962   0.544  0.5341 -1.5570 -0.8151
 4788TIP3   OH235922   3.519   6.217   1.008 -0.0008  0.4461 -0.4146
 4788TIP3    H135923   3.526   6.281   1.079  0.1141 -0.3585  0.3114
 4788TIP3    H235924   3.560   6.260   0.933  0.1911  1.1755  0.0965
 4789TIP3   OH235925   6.041   0.887   2.386  0.1850  0.5360 -0.5502
 4789TIP3    H135926   5.958   0.934   2.375  0.1018  0.9444  1.3837
 4789TIP3    H235927   6.069   0.911   2.475  2.3648  0.3780 -1.1571
 4790TIP3   OH235928   0.557   5.421   8.490  0.1205  0.4419  0.1537
 4790TIP3    H135929   0.590   5.412   8.579 -2.1140 -0.3035  0.9563
 4790TIP3    H235930   0.557   5.332   8.456  2.1493  0.8575 -1.1034
 4791TIP3   OH235931   6.408   2.157   8.663  0.3120  0.0269  0.0712
 4791TIP3    H135932   6.326   2.115   8.688 -0.0275 -0.9334 -2.4275
 4791TIP3    H235933   6.470   2.084   8.656  0.4993  0.3028 -1.3048
 4792TIP3   OH235934   2.602   6.409   0.566  0.0866 -0.1975  0.2467
 4792TIP3    H135935   2.568   6.497   0.582  1.0570  0.5355 -1.4700
 4792TIP3    H235936   2.569   6.357   0.639 -3.6897  0.6661 -0.6300
 4793TIP3   OH235937   3.849   6.541   2.175  0.5888 -0.2377 -0.0177
 4793TIP3    H135938   3.775   6.559   2.116  0.5989 -0.0037  0.0400
 4793TIP3    H235939   3.918   6.508   2.117  0.3162 -0.8081 -0.0218
 4794TIP3   OH235940   5.657   1.763   7.560  0.4730 -0.0434  0.0030
 4794TIP3    H135941   5.617   1.707   7.493  2.8478 -1.0438 -0.6741
 4794TIP3    H235942   5.669   1.847   7.516  0.5950 -0.2350 -0.3368
 4795TIP3   OH235943   4.753   5.319   2.648  0.2661  0.0457  0.2220
 4795TIP3    H135944   4.737   5.409   2.676  1.8092  0.4275 -0.0439
 4795TIP3    H235945   4.731   5.266   2.725 -1.2119  0.5648  0.1989
 4796TIP3   OH235946   1.419   3.080   8.927  0.5741  0.0443 -0.5497
 4796TIP3    H135947   1.355   3.060   8.995  0.4839  0.1762 -0.5959
 4796TIP3    H235948   1.491   3.019   8.943 -0.0063 -0.8177 -1.1256
 4797TIP3   OH235949   5.639   5.258   9.179  0.0658  0.4566 -0.0558
 4797TIP3    H135950   5.630   5.277   9.086  0.7657  0.2210 -0.1739
 4797TIP3    H235951   5.731   5.277   9.199  0.2075 -0.5849  0.3325
 4798TIP3   OH235952   2.848   2.563   8.107  0.0664 -0.3649  0.9752
 4798TIP3    H135953   2.898   2.609   8.040  0.2782  0.8643  1.9348
 4798TIP3    H235954   2.815   2.484   8.063 -0.7674  0.9481 -0.8946
 4799TIP3   OH235955   2.512   6.060   7.811  0.5469 -0.4631 -0.4835
 4799TIP3    H135956   2.452   6.070   7.737 -1.0921 -2.3059  0.5106
 4799TIP3    H235957   2.515   6.147   7.852 -1.7551 -0.3753 -0.3758
 4800TIP3   OH235958   1.421   4.721   8.504  0.0993 -0.1643 -0.5801
 4800TIP3    H135959   1.419   4.815   8.485 -1.9071 -0.6470 -3.3616
 4800TIP3    H235960   1.342   4.705   8.556  0.9940 -0.2093  0.8206
 4801TIP3   OH235961   1.798   3.694   1.102 -0.4522  0.5617  0.2254
 4801TIP3    H135962   1.889   3.723   1.109 -0.7099  1.2929  0.6539
 4801TIP3    H235963   1.801   3.620   1.042  0.2194  1.5136 -0.9522
 4802TIP3   OH235964   4.658   5.490   1.538  0.0057 -0.0340 -0.1263
 4802TIP3    H135965   4.678   5.525   1.451  0.7980  0.0206  0.0731
 4802TIP3    H235966   4.563   5.480   1.538  0.1038 -1.4767 -1.5482
 4803TIP3   OH235967   5.025   2.622   0.473  0.6755  0.3792  0.5530
 4803TIP3    H135968   4.997   2.674   0.398  2.2062 -1.0459 -1.1089
 4803TIP3    H235969   5.077   2.682   0.527  1.7770  0.7960 -0.9226
 4804TIP3   OH235970   2.914   0.630   2.520  0.0694 -0.0735 -0.5083
 4804TIP3    H135971   2.966   0.692   2.572 -1.3732  1.3362 -0.6608
 4804TIP3    H235972   2.865   0.580   2.586  1.0636 -0.9445 -0.3958
 4805TIP3   OH235973   3.898   6.262   0.914  0.0132  0.0605 -0.1034
 4805TIP3    H135974   3.933   6.174   0.930  0.2247 -0.1078 -1.4079
 4805TIP3    H235975   3.889   6.300   1.001  1.0275 -0.8296  0.4173
 4806TIP3   OH235976   3.690   6.560   0.647 -0.4508  0.2569 -0.4227
 4806TIP3    H135977   3.782   6.575   0.669 -0.2358 -0.8599 -0.4978
 4806TIP3    H235978   3.658   6.644   0.615  0.4071  0.7846  0.0926
 4807TIP3   OH235979   3.829   3.340   7.606  0.2965  0.4094 -0.1388
 4807TIP3    H135980   3.817   3.353   7.700  1.6976  0.5085  0.0466
 4807TIP3    H235981   3.814   3.426   7.567 -1.5777  0.1040 -0.1809
 4808TIP3   OH235982   4.874   4.148   2.522 -0.0055  0.6364  0.2468
 4808TIP3    H135983   4.869   4.086   2.595 -1.3480 -0.5388 -0.7805
 4808TIP3    H235984   4.787   4.145   2.483  0.6637  1.2768 -1.3690
 4809TIP3   OH235985   0.425   4.761   3.147  0.2004 -0.3634  0.4115
 4809TIP3    H135986   0.428   4.680   3.096 -2.0715  0.7175 -1.6570
 4809TIP3    H235987   0.333   4.772   3.170  0.7730  0.5704  2.5800
 4810TIP3   OH235988   0.815   3.428   8.720  0.0225 -0.1378 -0.1673
 4810TIP3    H135989   0.840   3.362   8.785 -0.4980  0.8908  1.1408
 4810TIP3    H235990   0.857   3.509   8.751 -2.3069  0.9510  0.3734
 4811TIP3   OH235991   4.142   5.718   1.295  0.8064  0.0296 -0.0008
 4811TIP3    H135992   4.069   5.777   1.276  0.2949 -0.2110  1.1449
 4811TIP3    H235993   4.126   5.642   1.239 -0.6139 -0.6200  1.2136
 4812TIP3   OH235994   2.321   3.521   0.305  0.0961  0.0158  0.1018
 4812TIP3    H135995   2.311   3.537   0.398  4.2367  1.0883  0.5359
 4812TIP3    H235996   2.279   3.596   0.263  0.2665  0.7572  1.2294
 4813TIP3   OH235997   6.088   0.822   7.174 -0.0165  0.2012 -0.0520
 4813TIP3    H135998   6.076   0.913   7.146 -1.2381  0.4104  1.0670
 4813TIP3    H235999   6.126   0.778   7.097  0.8691  1.6960 -0.5161
 4814TIP3   OH236000   4.113   2.993   7.104  0.1301 -0.3763 -0.2272
 4814TIP3    H136001   4.029   2.995   7.150 -0.2435 -1.3860 -0.8393
 4814TIP3    H236002   4.133   2.900   7.093  1.2278 -0.1471 -0.2816
 4815TIP3   OH236003   3.958   2.258   7.540  0.1571 -0.4144  0.3653
 4815TIP3    H136004   3.925   2.181   7.586  1.7663  0.2126  2.8192
 4815TIP3    H236005   3.885   2.319   7.538 -0.8666 -1.6249 -0.8087
 4816TIP3   OH236006   0.206   6.526   8.993  0.0089 -0.5863 -0.4835
 4816TIP3    H136007   0.251   6.479   8.923  1.2758 -0.1097 -0.0308
 4816TIP3    H236008   0.277   6.571   9.040 -1.0067  0.5332  0.0104
 4817TIP3   OH236009   2.246   1.720   0.505 -0.0970 -0.1853 -0.5378
 4817TIP3    H136010   2.330   1.683   0.478 -0.5109 -1.1580 -0.5526
 4817TIP3    H236011   2.182   1.653   0.481 -1.1623  1.4206 -2.4814
 4818TIP3   OH236012   1.181   5.322   0.151  0.5254 -0.1178  0.1401
 4818TIP3    H136013   1.109   5.323   0.215  0.1617  1.6929 -0.2566
 4818TIP3    H236014   1.141   5.349   0.069  1.5315  0.3232 -0.2243
 4819TIP3   OH236015   6.589   6.048   8.554 -0.2470  0.5005 -0.1185
 4819TIP3    H136016   6.547   6.070   8.637 -2.1857 -1.4549 -0.4934
 4819TIP3    H236017   6.519   6.011   8.501  1.4194 -0.3734 -1.8145
 4820TIP3   OH236018   5.379   1.490   1.510  0.1284  0.3073 -0.3715
 4820TIP3    H136019   5.465   1.531   1.496  0.7746 -1.1624 -0.9284
 4820TIP3    H236020   5.400   1.399   1.533 -1.2834  0.0077 -0.1921
 4821TIP3   OH236021   3.803   6.544   0.993  0.2649  0.0198 -0.2732
 4821TIP3    H136022   3.872   6.526   1.056 -1.2125 -0.8064  1.2013
 4821TIP3    H236023   3.843   6.603   0.929  2.1884 -0.1223  0.7278
 4822TIP3   OH236024   1.795   3.462   8.846 -0.2970 -0.1713 -0.6364
 4822TIP3    H136025   1.732   3.482   8.776  0.1598  1.5392 -0.6160
 4822TIP3    H236026   1.846   3.388   8.812  1.4660  1.9985 -3.2558
 4823TIP3   OH236027   6.464   3.747   7.928  0.2936  0.5273 -0.5722
 4823TIP3    H136028   6.409   3.735   7.850 -1.9004  1.6034  0.7246
 4823TIP3    H236029   6.495   3.837   7.922  0.7192  0.3812 -0.5647
 4824TIP3   OH236030   6.205   4.374   2.431 -0.1582 -0.5822  0.0362
 4824TIP3    H136031   6.273   4.330   2.380 -0.3958  0.1273 -0.9202
 4824TIP3    H236032   6.241   4.461   2.450 -1.8446  0.9377 -3.0002
 4825TIP3   OH236033   1.059   2.696   0.251 -0.0609 -0.4520 -0.3096
 4825TIP3    H136034   1.002   2.644   0.195 -3.6517  1.7391  0.9669
 4825TIP3    H236035   1.016   2.696   0.336  1.7555  1.5512  0.7203
 4826TIP3   OH236036   2.928   2.248   1.123  0.7994  0.1653 -0.1282
 4826TIP3    H136037   2.901   2.156   1.132 -1.2374  0.7152 -0.1324
 4826TIP3    H236038   3.001   2.245   1.061  1.4288 -1.5363  0.6090
 4827TIP3   OH236039   4.976   1.931   8.957  0.7409  0.0844 -0.0923
 4827TIP3    H136040   4.994   1.883   8.876  1.2473  0.6434 -0.3213
 4827TIP3    H236041   5.040   1.897   9.020 -0.5182 -1.3107  0.4824
 4828TIP3   OH236042   0.150   2.975   2.394  0.5422  0.2883 -0.0302
 4828TIP3    H136043   0.126   3.019   2.475  1.3288  0.2907  0.2176
 4828TIP3    H236044   0.155   2.882   2.418 -0.2900  0.1555 -0.3461
 4829TIP3   OH236045   0.765   4.842   1.159 -0.1486 -0.3667 -0.0583
 4829TIP3    H136046   0.680   4.800   1.169 -0.9846  1.0875 -0.7043
 4829TIP3    H236047   0.759   4.922   1.211  0.7325 -0.1342 -0.2943
 4830TIP3   OH236048   5.493   2.529   9.108  0.4132  0.4974  0.3656
 4830TIP3    H136049   5.491   2.592   9.036  2.0038  0.4041  0.2018
 4830TIP3    H236050   5.568   2.473   9.089  0.0757 -0.3461  1.4282
 4831TIP3   OH236051   1.851   4.365   0.016  0.5034  0.5486  0.7318
 4831TIP3    H136052   1.839   4.460   0.015 -0.2471  0.5172 -2.1658
 4831TIP3    H236053   1.770   4.331  -0.022  0.9095 -1.2489  1.4085
 4832TIP3   OH236054   3.790   1.303   8.946 -0.0090  0.1230 -0.0452
 4832TIP3    H136055   3.796   1.208   8.955  1.9766  0.1498 -0.5219
 4832TIP3    H236056   3.841   1.324   8.868 -0.7056  1.5588 -0.1572
 4833TIP3   OH236057   0.403   3.004   0.462 -0.4782 -0.1409 -0.1138
 4833TIP3    H136058   0.403   2.912   0.489 -2.1825 -0.1572 -0.0683
 4833TIP3    H236059   0.330   3.011   0.400 -1.1498  1.4198  0.7872
 4834TIP3   OH236060   2.876   6.282   2.234  0.1545  0.1599 -0.8215
 4834TIP3    H136061   2.842   6.371   2.224  1.2604  0.6584 -0.2776
 4834TIP3    H236062   2.913   6.280   2.322  1.2749 -0.4356 -1.2786
 4835TIP3   OH236063   6.261   5.733   7.984  0.1684 -0.0997 -0.4950
 4835TIP3    H136064   6.271   5.650   7.937  0.3815 -0.3585  0.0054
 4835TIP3    H236065   6.297   5.799   7.924 -1.0395 -0.2078 -1.3804
 4836TIP3   OH236066   4.450   1.208   7.257  1.0810 -0.4985 -0.4071
 4836TIP3    H136067   4.485   1.294   7.281  0.6473 -0.3064 -0.4568
 4836TIP3    H236068   4.476   1.195   7.166 -2.5420  1.5536 -1.9679
 4837TIP3   OH236069   0.290   3.080   3.007 -0.3927 -0.2529 -1.1537
 4837TIP3    H136070   0.246   3.115   3.084 -0.1686 -1.1673 -0.5870
 4837TIP3    H236071   0.334   3.155   2.968  0.5367  0.0042  0.3305
 4838TIP3   OH236072   6.214   2.898   7.652 -0.3189 -0.0385 -0.3581
 4838TIP3    H136073   6.211   2.982   7.699 -0.2830 -0.9617  1.3813
 4838TIP3    H236074   6.296   2.858   7.681 -1.7060 -1.9350  1.2098
 4839TIP3   OH236075   2.626   6.624   2.484 -0.3447  0.1116  0.1199
 4839TIP3    H136076   2.692   6.587   2.543 -0.0316  0.6701  0.1322
 4839TIP3    H236077   2.605   6.709   2.523  0.0474  0.5976 -0.7005
 4840TIP3   OH236078   2.743   4.377   9.093 -0.4016  0.1080 -0.1832
 4840TIP3    H136079   2.791   4.447   9.049 -1.2435  0.2098 -0.9546
 4840TIP3    H236080   2.673   4.422   9.140  0.5669  0.0186  1.4207
 4841TIP3   OH236081   4.201   1.635   9.095  0.4114  0.0593 -0.0816
 4841TIP3    H136082   4.233   1.575   9.163 -0.8903 -0.6782 -0.0883
 4841TIP3    H236083   4.214   1.722   9.132 -0.9182 -0.3439  1.4677
 4842TIP3   OH236084   2.854   0.869   7.309  1.0415 -0.5670  0.0782
 4842TIP3    H136085   2.808   0.930   7.366  1.1488 -0.2518 -0.1743
 4842TIP3    H236086   2.922   0.921   7.267  0.5523 -0.6438 -0.8339
 4843TIP3   OH236087   1.823   4.945   1.788  0.7880 -0.7282 -0.3790
 4843TIP3    H136088   1.794   5.013   1.727  1.1189 -0.8808 -0.7096
 4843TIP3    H236089   1.901   4.907   1.747 -1.7549 -4.3612 -2.4811
 4844TIP3   OH236090   6.155   4.510   8.461 -1.0193 -0.3374  0.7357
 4844TIP3    H136091   6.153   4.601   8.491  1.2234  0.8541 -2.2560
 4844TIP3    H236092   6.068   4.497   8.423 -1.6639  0.2282  1.9407
 4845TIP3   OH236093   2.310   4.580   0.295 -0.2849  0.2077  0.1688
 4845TIP3    H136094   2.308   4.514   0.365  0.7641 -1.5175 -1.3559
 4845TIP3    H236095   2.240   4.554   0.235 -0.1734  0.7784 -0.2203
 4846TIP3   OH236096   2.200   1.174   1.613  0.1123  0.7104 -0.2982
 4846TIP3    H136097   2.269   1.110   1.596 -0.9774 -0.1305 -1.8205
 4846TIP3    H236098   2.118   1.128   1.592 -1.1020  1.1452  2.9540
 4847TIP3   OH236099   4.754   1.331   1.555  0.3759 -0.1497  0.3820
 4847TIP3    H136100   4.712   1.256   1.512  0.4551  0.6574 -1.1997
 4847TIP3    H236101   4.817   1.363   1.490  0.0736  1.5168  0.8688
 4848TIP3   OH236102   2.485   2.019   2.804  0.1759 -0.2086 -0.2937
 4848TIP3    H136103   2.425   2.093   2.816  0.6467  0.2163 -0.5699
 4848TIP3    H236104   2.521   2.003   2.891  0.0863 -0.1096 -0.2385
 4849TIP3   OH236105   2.209   6.532   8.373  0.3006  0.5543  0.3775
 4849TIP3    H136106   2.230   6.506   8.283 -2.7578 -1.8162  0.1825
 4849TIP3    H236107   2.277   6.492   8.427  1.1288  0.4238 -0.7273
 4850TIP3   OH236108   2.503   3.128   0.852  0.9828 -0.3173  0.6273
 4850TIP3    H136109   2.463   3.136   0.765  1.1541 -1.7012  0.4074
 4850TIP3    H236110   2.494   3.215   0.890 -1.4430 -0.3423  0.2499
 4851TIP3   OH236111   5.779   1.768   3.205  0.3438 -0.2790 -0.2209
 4851TIP3    H136112   5.729   1.740   3.128  1.0423  0.3086 -0.9050
 4851TIP3    H236113   5.796   1.861   3.190  0.0981 -0.0463  0.8729
 4852TIP3   OH236114   5.884   3.889   7.846  0.1328 -0.4067  0.1436
 4852TIP3    H136115   5.979   3.891   7.834  0.1778 -0.2463  0.5234
 4852TIP3    H236116   5.856   3.810   7.800  0.5279 -0.8055  0.5715
 4853TIP3   OH236117   4.119   0.559   7.646 -0.0903  0.1064  0.1916
 4853TIP3    H136118   4.037   0.597   7.614 -0.1888  2.1039  2.4965
 4853TIP3    H236119   4.181   0.574   7.575 -1.4145 -0.3871 -1.1243
 4854TIP3   OH236120   6.142   0.401   1.225  0.2250  0.6799 -0.1925
 4854TIP3    H136121   6.115   0.377   1.314 -1.6373  0.5844 -0.7486
 4854TIP3    H236122   6.138   0.496   1.224  1.5317  0.7705  0.1674
 4855TIP3   OH236123   0.519   4.268   8.799  0.0844  0.4351 -0.0081
 4855TIP3    H136124   0.427   4.287   8.778  0.0726 -1.0224 -1.5058
 4855TIP3    H236125   0.530   4.299   8.889 -1.5028  1.8357 -0.2380
 4856TIP3   OH236126   0.077   5.619   0.270 -0.2812  0.7573 -0.1710
 4856TIP3    H136127   0.027   5.592   0.193 -0.4016  0.3539  0.0446
 4856TIP3    H236128   0.015   5.669   0.323 -0.5619 -0.0462  0.2658
 4857TIP3   OH236129   0.117   3.843   0.879 -0.0528  0.4368 -0.2767
 4857TIP3    H136130   0.156   3.847   0.967 -0.1428  0.0608 -0.2168
 4857TIP3    H236131   0.044   3.904   0.883  1.4633  2.3690 -0.8855
 4858TIP3   OH236132   0.779   4.393   1.458 -0.1219 -0.3403  0.7878
 4858TIP3    H136133   0.834   4.472   1.463  0.9370 -1.0015  0.0378
 4858TIP3    H236134   0.832   4.330   1.409 -1.0023 -1.4824  1.2524
 4859TIP3   OH236135   1.240   4.384   0.450  0.3725  0.1652  0.4832
 4859TIP3    H136136   1.222   4.305   0.502  0.5533  0.9859  1.8637
 4859TIP3    H236137   1.165   4.442   0.467  0.8317  0.7696  0.4996
 4860TIP3   OH236138   1.781   5.849   2.696  0.0444 -0.3665 -0.1478
 4860TIP3    H136139   1.787   5.781   2.763 -3.1649  0.7339  1.5197
 4860TIP3    H236140   1.866   5.849   2.652  1.0806 -3.5228  1.5996
 4861TIP3   OH236141   2.636   6.331   2.752 -1.0310  0.5172  0.4881
 4861TIP3    H136142   2.554   6.365   2.786 -2.0909 -0.9144 -0.5072
 4861TIP3    H236143   2.664   6.265   2.816 -1.3532  0.0847  0.1894
 4862TIP3   OH236144   1.959   5.649   9.263  0.3667 -0.2947 -0.0695
 4862TIP3    H136145   1.941   5.728   9.211  1.9089 -0.2384 -0.5696
 4862TIP3    H236146   2.017   5.679   9.333 -0.0248 -0.7712  0.4676
 4863TIP3   OH236147   5.719   3.615   8.871  0.1877 -0.0958 -0.3214
 4863TIP3    H136148   5.725   3.523   8.845 -0.4590 -0.0096 -0.7898
 4863TIP3    H236149   5.729   3.664   8.790  2.5246  0.3450  0.1654
 4864TIP3   OH236150   4.532   0.763   2.405  0.3565 -0.3678 -0.0145
 4864TIP3    H136151   4.504   0.686   2.455 -1.7050  0.2077 -0.1733
 4864TIP3    H236152   4.617   0.739   2.369  0.7047 -1.7770  1.6309
 4865TIP3   OH236153   5.261   3.617   1.655 -0.4479 -0.4921 -0.0266
 4865TIP3    H136154   5.198   3.683   1.684 -0.0583  0.1195 -0.5658
 4865TIP3    H236155   5.291   3.647   1.569  1.5511 -0.0675  0.7577
 4866TIP3   OH236156   5.266   4.858   3.301 -0.5785 -0.1609  0.6436
 4866TIP3    H136157   5.272   4.763   3.309 -0.3557 -0.1078  1.0867
 4866TIP3    H236158   5.357   4.887   3.293 -0.5126  0.1785  2.3367
 4867TIP3   OH236159   0.478   3.763   7.608 -0.5743  0.0035 -0.5312
 4867TIP3    H136160   0.573   3.750   7.605 -0.4399  0.7938  0.1128
 4867TIP3    H236161   0.464   3.826   7.678 -1.7679 -1.8076  0.9608
 4868TIP3   OH236162   4.577   4.688   0.737  0.5225  1.0161 -0.1441
 4868TIP3    H136163   4.498   4.700   0.790  0.3331 -0.7073  0.0154
 4868TIP3    H236164   4.558   4.734   0.655 -1.8946 -1.7222 -1.2893
 4869TIP3   OH236165   0.598   4.662   0.300 -0.1898 -0.2546  0.4086
 4869TIP3    H136166   0.614   4.725   0.229  0.3928  0.4197  1.1205
 4869TIP3    H236167   0.583   4.716   0.377  0.3827 -0.9794  1.0456
 4870TIP3   OH236168   6.140   4.734   8.612  0.0663  0.1015  0.6436
 4870TIP3    H136169   6.203   4.805   8.611 -0.7751  0.8682  0.6538
 4870TIP3    H236170   6.055   4.777   8.607 -0.5454 -0.8174  2.2719
 4871TIP3   OH236171   2.435   0.610   0.362 -0.4222  0.0157  0.7726
 4871TIP3    H136172   2.489   0.681   0.327 -1.0790  0.0481 -0.2081
 4871TIP3    H236173   2.472   0.531   0.323 -1.4473  0.0941 -0.4077
 4872TIP3   OH236174   0.620   3.991   8.697 -0.5074  0.1016  0.5090
 4872TIP3    H136175   0.610   4.082   8.726  2.4757  0.6509  0.1451
 4872TIP3    H236176   0.707   3.988   8.657 -0.0155 -3.1883  1.5158
 4873TIP3   OH236177   0.411   5.611   1.698 -0.3466 -0.2983  0.2831
 4873TIP3    H136178   0.318   5.600   1.718 -0.6807 -1.1681 -1.5715
 4873TIP3    H236179   0.426   5.555   1.622  1.2526  1.3801 -0.7146
 4874TIP3   OH236180   3.322   4.748   2.585 -0.3444  0.1926 -0.5143
 4874TIP3    H136181   3.272   4.756   2.503 -1.5876 -0.8855  0.1188
 4874TIP3    H236182   3.299   4.662   2.620 -0.0760  0.7551  1.1368
 4875TIP3   OH236183   6.640   2.989   9.277  0.3962  0.3885  0.6538
 4875TIP3    H136184   6.671   2.900   9.265 -1.0677  0.0988 -1.6288
 4875TIP3    H236185   6.567   2.982   9.338 -1.1199 -0.3930 -1.1408
 4876TIP3   OH236186   2.862   2.557   2.378 -0.3495 -0.1950  0.1877
 4876TIP3    H136187   2.952   2.552   2.409  0.1535  0.5709 -1.0332
 4876TIP3    H236188   2.821   2.476   2.407  2.0711 -2.9190 -3.1792
 4877TIP3   OH236189   0.737   0.744   8.098  0.6387 -0.0062 -0.3234
 4877TIP3    H136190   0.654   0.699   8.084  1.5208 -1.3578 -1.4416
 4877TIP3    H236191   0.721   0.834   8.070 -0.5840 -0.1092 -0.0040
 4878TIP3   OH236192   2.179   5.661   0.555  0.4155  0.0476  0.1007
 4878TIP3    H136193   2.098   5.616   0.532  1.3413 -0.9578 -1.3819
 4878TIP3    H236194   2.205   5.623   0.639 -0.8309  0.6780  0.7983
 4879TIP3   OH236195   4.577   5.734   0.315 -0.2046 -0.8794  0.1668
 4879TIP3    H136196   4.633   5.786   0.258 -0.6249  1.5361  1.8301
 4879TIP3    H236197   4.639   5.685   0.370  0.3072  0.4470  0.8251
 4880TIP3   OH236198   3.285   3.061   2.368 -0.3930  0.1801  0.0143
 4880TIP3    H136199   3.343   3.070   2.443 -0.0233  0.2020 -0.2736
 4880TIP3    H236200   3.304   3.137   2.312 -0.7365  0.2201 -0.0564
 4881TIP3   OH236201   3.081   2.519   0.949  0.2451  0.0054 -0.0699
 4881TIP3    H136202   3.122   2.438   0.978  1.1407  0.4776  0.0273
 4881TIP3    H236203   3.123   2.538   0.865 -2.8206 -1.7482 -2.2092
 4882TIP3   OH236204   0.823   2.554   8.082  0.3528 -0.3773 -0.2207
 4882TIP3    H136205   0.746   2.602   8.051 -0.4410 -1.8914 -0.6568
 4882TIP3    H236206   0.848   2.498   8.009  0.7275 -1.2776  0.5794
 4883TIP3   OH236207   2.118   4.107   8.340 -0.3484 -0.3774  0.2784
 4883TIP3    H136208   2.153   4.161   8.411 -1.0666  0.1200  0.2665
 4883TIP3    H236209   2.076   4.034   8.384 -0.5308 -0.2266  0.3555
 4884TIP3   OH236210   4.765   0.956   7.079 -0.5196  0.2764 -0.4241
 4884TIP3    H136211   4.733   0.874   7.042 -0.3328 -0.3918  0.8483
 4884TIP3    H236212   4.858   0.957   7.058 -0.0598 -0.8839  1.3141
 4885TIP3   OH236213   1.829   0.055   1.655 -0.0411 -1.1683 -0.2788
 4885TIP3    H136214   1.783  -0.028   1.667  1.7856 -2.0696  0.8908
 4885TIP3    H236215   1.909   0.046   1.706  0.0344  1.4977  0.2364
 4886TIP3   OH236216   4.142   2.907   1.681  0.2198 -0.4390  0.7320
 4886TIP3    H136217   4.183   2.929   1.765 -3.7942  0.0840  2.7679
 4886TIP3    H236218   4.069   2.969   1.673 -1.4291 -2.5009 -1.5958
 4887TIP3   OH236219   4.172   3.510   0.058 -0.0871  0.0417 -0.5883
 4887TIP3    H136220   4.231   3.556   0.118  0.1860  0.2792 -1.0327
 4887TIP3    H236221   4.153   3.427   0.101  0.0321  0.2507 -0.1305
 4888TIP3   OH236222   0.080   3.476   2.065  0.6140 -0.3778  0.1528
 4888TIP3    H136223   0.154   3.534   2.046  0.8789 -0.4244  1.0082
 4888TIP3    H236224   0.075   3.419   1.988 -0.0207  1.1219 -0.9774
 4889TIP3   OH236225   6.142   2.848   2.370  0.7697  0.3885 -0.3440
 4889TIP3    H136226   6.145   2.921   2.432  1.6658 -0.9830  1.3005
 4889TIP3    H236227   6.157   2.889   2.284 -2.6765  2.6602 -0.0520
 4890TIP3   OH236228   3.552   2.878   1.081 -0.6640  0.0449  0.3788
 4890TIP3    H136229   3.471   2.925   1.100 -0.5692 -0.0721  1.1117
 4890TIP3    H236230   3.528   2.816   1.013 -0.4484  2.1530 -1.7492
 4891TIP3   OH236231   5.772   2.107   2.882 -0.1133 -0.5371  0.2409
 4891TIP3    H136232   5.707   2.051   2.840 -0.2681  0.0404 -0.3114
 4891TIP3    H236233   5.854   2.057   2.878  0.0200 -0.2172 -1.3708
 4892TIP3   OH236234   1.999   1.248   9.180 -0.3407 -0.6679  0.3018
 4892TIP3    H136235   2.014   1.332   9.224  0.0782 -0.6174  0.0679
 4892TIP3    H236236   2.087   1.217   9.158 -0.5706 -0.4277 -0.9974
 4893TIP3   OH236237   0.972   0.094   1.832  0.1573  0.1081 -0.0548
 4893TIP3    H136238   0.891   0.071   1.785  0.1576 -1.3050  0.5662
 4893TIP3    H236239   1.019   0.011   1.840  0.8195  0.5717  1.1794
 4894TIP3   OH236240   4.381   1.735   2.291  0.8258 -0.3123 -0.3795
 4894TIP3    H136241   4.341   1.792   2.224  0.9095 -0.3361 -0.4503
 4894TIP3    H236242   4.429   1.794   2.348 -1.7409  0.1261  1.5229
 4895TIP3   OH236243   2.111   2.041   2.005 -0.1926  0.0794  0.2339
 4895TIP3    H136244   2.073   2.126   2.024 -0.5302  0.4313 -1.7430
 4895TIP3    H236245   2.201   2.045   2.039  0.1463  1.6357 -0.7614
 4896TIP3   OH236246   5.255   1.726   0.897  0.1576  0.0099 -0.0007
 4896TIP3    H136247   5.185   1.696   0.839 -0.5950  0.0019  0.8883
 4896TIP3    H236248   5.210   1.777   0.965  0.6639 -2.0311  1.9989
 4897TIP3   OH236249   6.475   1.025   0.121  0.2215 -0.3050 -0.3738
 4897TIP3    H136250   6.521   0.942   0.132 -1.6665 -1.4586 -0.7457
 4897TIP3    H236251   6.393   1.013   0.168  0.0908  1.5380 -0.0488
 4898TIP3   OH236252   0.285   5.681   8.107  0.7147  0.0301 -0.5367
 4898TIP3    H136253   0.256   5.639   8.188 -1.3881  0.2148 -1.1409
 4898TIP3    H236254   0.235   5.762   8.102  2.4676  1.1454 -0.9375
 4899TIP3   OH236255   0.264   3.911   2.454  0.1590  0.1360  0.1154
 4899TIP3    H136256   0.248   3.924   2.547 -0.7759 -0.4240  0.0560
 4899TIP3    H236257   0.276   3.999   2.418 -0.1060  0.3997  0.6660
 4900TIP3   OH236258   5.602   1.687   8.148  0.1972  0.2241  0.1658
 4900TIP3    H136259   5.519   1.718   8.112  0.1959 -0.4774 -0.4536
 4900TIP3    H236260   5.602   1.717   8.239 -0.3273  1.0094 -0.0846
 4901TIP3   OH236261   3.185   3.969   2.349  0.4197 -0.5984  0.7883
 4901TIP3    H136262   3.164   4.053   2.389  1.7894 -0.3463  1.0072
 4901TIP3    H236263   3.269   3.944   2.387  1.4256 -0.7145 -1.3518
 4902TIP3   OH236264   2.662   5.641   0.727 -0.5098 -0.0599  0.0950
 4902TIP3    H136265   2.567   5.653   0.728 -0.3865  0.9906  0.0911
 4902TIP3    H236266   2.692   5.696   0.655  0.0531 -0.8088 -0.2477
 4903TIP3   OH236267   5.278   0.059   3.060 -0.2612 -0.3619  0.5651
 4903TIP3    H136268   5.322   0.144   3.057  0.2132 -0.5439  1.8155
 4903TIP3    H236269   5.248   0.044   2.970  2.1847 -0.2146 -0.3292
 4904TIP3   OH236270   5.573   4.275   1.428 -0.0360 -0.0689  0.0183
 4904TIP3    H136271   5.619   4.238   1.352  1.2658  0.1915  0.6504
 4904TIP3    H236272   5.635   4.338   1.465 -0.4425 -0.5439  1.5912
 4905TIP3   OH236273   5.362   4.278   1.621 -0.0756  0.0234  0.4782
 4905TIP3    H136274   5.442   4.280   1.569 -0.2858 -0.8309  0.0985
 4905TIP3    H236275   5.393   4.288   1.712  0.5595 -1.1328  0.4140
 4906TIP3   OH236276   1.719   6.182   2.124 -0.6331 -0.3908  0.4789
 4906TIP3    H136277   1.797   6.158   2.074  0.1361  1.4323  0.7517
 4906TIP3    H236278   1.751   6.202   2.212 -1.2603  1.1807  0.3843
 4907TIP3   OH236279   6.513   0.170   1.809 -0.0169  0.0073 -0.0486
 4907TIP3    H136280   6.546   0.242   1.754  0.2340 -0.2607 -0.2472
 4907TIP3    H236281   6.558   0.093   1.777 -1.6788 -0.5837 -1.1272
 4908TIP3   OH236282   1.481   2.368   7.980 -1.0281 -0.8595  0.4097
 4908TIP3    H136283   1.490   2.273   7.971 -0.7744 -0.7464 -0.7440
 4908TIP3    H236284   1.442   2.396   7.897 -1.6409 -0.0139  0.9628
 4909TIP3   OH236285   0.901   0.073   0.510  0.3171  0.6981 -0.5101
 4909TIP3    H136286   0.924   0.037   0.596  1.3805  0.9597 -0.6777
 4909TIP3    H236287   0.899   0.167   0.523  2.5749  0.9162 -1.2103
 4910TIP3   OH236288   5.557   3.822   8.985 -0.3140  0.1570  0.0542
 4910TIP3    H136289   5.505   3.842   8.907  0.1336 -1.2094 -0.6262
 4910TIP3    H236290   5.618   3.753   8.957 -0.2735 -0.5124  1.6522
 4911TIP3   OH236291   1.807   1.841   1.742  0.6592  0.5692  0.2526
 4911TIP3    H136292   1.725   1.791   1.746  1.0633 -0.0526  1.2930
 4911TIP3    H236293   1.796   1.910   1.808  1.1587  0.1526  0.7927
 4912TIP3   OH236294   4.686   5.056   2.181  0.1085  0.1360  0.0442
 4912TIP3    H136295   4.725   5.143   2.173 -1.0679  0.6412 -0.4585
 4912TIP3    H236296   4.761   4.996   2.190  0.9255  1.2410  0.9728
 4913TIP3   OH236297   2.151   2.835   2.605  0.9793  0.1948  1.2621
 4913TIP3    H136298   2.061   2.831   2.572  1.2713 -1.4059  0.5719
 4913TIP3    H236299   2.180   2.924   2.585 -0.2006  0.5014  0.8377
 4914TIP3   OH236300   0.699   6.150   1.229 -0.1211  0.3055  0.0906
 4914TIP3    H136301   0.759   6.077   1.217 -0.1712  0.0591  1.2366
 4914TIP3    H236302   0.723   6.188   1.314  0.2192  1.9349 -0.6992
 4915TIP3   OH236303   3.156   6.552   2.711  0.3338 -0.2323  0.1779
 4915TIP3    H136304   3.125   6.461   2.713  0.9199 -0.4949 -1.3804
 4915TIP3    H236305   3.076   6.604   2.697 -0.0264 -0.4634  1.2383
 4916TIP3   OH236306   2.269   6.016   1.905  0.0577  0.0579  0.5042
 4916TIP3    H136307   2.238   5.954   1.971 -1.5741 -0.2062 -0.4575
 4916TIP3    H236308   2.309   5.961   1.837  2.0556  0.3480  1.3506
 4917TIP3   OH236309   6.285   3.834   0.469  0.9124 -0.3942  0.1122
 4917TIP3    H136310   6.273   3.810   0.377  0.9688  0.1479 -0.0364
 4917TIP3    H236311   6.198   3.860   0.499  0.7885 -1.0580  0.3605
 4918TIP3   OH236312   2.375   0.462   8.158 -0.1527 -0.5247 -0.3300
 4918TIP3    H136313   2.347   0.553   8.165 -2.6539 -1.3114  1.8009
 4918TIP3    H236314   2.454   0.457   8.211  1.1911  0.7273 -2.1009
 4919TIP3   OH236315   4.324   5.395   8.889 -1.0969  0.2491  0.6023
 4919TIP3    H136316   4.406   5.439   8.911 -0.0094 -0.0478 -2.3754
 4919TIP3    H236317   4.333   5.307   8.927  0.4132 -0.0685 -0.3815
 4920TIP3   OH236318   4.577   3.845   8.829 -0.0563 -0.3734 -0.0989
 4920TIP3    H136319   4.546   3.795   8.753 -1.2365  0.1358  0.0398
 4920TIP3    H236320   4.569   3.784   8.902 -0.5135 -0.3202 -0.1036
 4921TIP3   OH236321   6.616   6.343   1.809  0.3514  0.3422 -0.0028
 4921TIP3    H136322   6.684   6.275   1.816 -0.9989 -0.9965  0.6479
 4921TIP3    H236323   6.628   6.396   1.887  0.4624 -0.0902  0.2804
 4922TIP3   OH236324   1.003   4.602   1.469  0.4749  0.4008 -0.2993
 4922TIP3    H136325   1.063   4.677   1.465  0.8714  0.1380  0.4377
 4922TIP3    H236326   0.944   4.614   1.395  0.3125  1.6242  0.0108
 4923TIP3   OH236327   6.412   6.574   2.946 -0.6652  0.1821  0.0597
 4923TIP3    H136328   6.381   6.505   3.004  1.2958  0.3432  1.4344
 4923TIP3    H236329   6.488   6.537   2.902 -0.3436  1.0456 -0.1438
 4924TIP3   OH236330   6.645   2.803   0.468 -0.1933 -0.0325 -0.4142
 4924TIP3    H136331   6.712   2.785   0.535 -1.4691  0.5987  1.1022
 4924TIP3    H236332   6.695   2.813   0.387  1.4962 -0.1485  0.5464
 4925TIP3   OH236333   1.379   0.985   9.068 -0.2357 -0.2975 -0.0846
 4925TIP3    H136334   1.415   1.045   9.133  2.6671  0.1290 -1.8904
 4925TIP3    H236335   1.365   0.903   9.116  0.1795  0.4651  1.4041
 4926TIP3   OH236336   6.024   0.143   1.126 -0.4339  0.7335 -0.0302
 4926TIP3    H136337   5.995   0.095   1.204 -0.0523  0.9097  0.2226
 4926TIP3    H236338   6.039   0.232   1.157 -1.3734  1.0883 -0.5510
 4927TIP3   OH236339   4.124   1.101   2.690  0.0865 -0.1480  0.9805
 4927TIP3    H136340   4.090   1.023   2.734  2.8313 -1.2654  1.3223
 4927TIP3    H236341   4.191   1.135   2.750  0.4015  1.2445 -0.1069
 4928TIP3   OH236342   5.294   1.057   8.309  0.6332 -0.1292 -0.2865
 4928TIP3    H136343   5.330   1.069   8.398  1.3420  1.2935 -0.7375
 4928TIP3    H236344   5.213   1.107   8.309  1.6718  1.6394 -1.0277
 4929TIP3   OH236345   0.292   6.518   2.874 -0.0340  0.3822  0.5466
 4929TIP3    H136346   0.230   6.590   2.887 -0.2727 -0.2286  4.0044
 4929TIP3    H236347   0.377   6.555   2.897  0.4286  0.3895 -1.0687
 4930TIP3   OH236348   3.284   5.256   0.417  0.2883  0.2412  0.2038
 4930TIP3    H136349   3.199   5.235   0.455  0.8249 -1.7177  0.4201
 4930TIP3    H236350   3.290   5.351   0.422 -1.8971  0.4203  0.1353
 4931TIP3   OH236351   0.942   3.232   9.278  0.8021  0.1220  0.6490
 4931TIP3    H136352   0.981   3.246   9.365 -2.0368 -1.2790  2.3214
 4931TIP3    H236353   0.871   3.169   9.294 -1.4248  1.6633 -2.2545
 4932TIP3   OH236354   0.590   1.519   9.076  0.0299  0.0547  0.9703
 4932TIP3    H136355   0.545   1.603   9.087 -1.8632 -0.7654 -0.0910
 4932TIP3    H236356   0.521   1.458   9.052  1.7504 -1.2075 -1.1310
 4933TIP3   OH236357   0.593   1.082   8.669 -0.0026 -0.3565  0.1310
 4933TIP3    H136358   0.506   1.086   8.630  0.5940 -1.0802 -1.3512
 4933TIP3    H236359   0.597   1.159   8.726 -1.7746 -0.5940  0.6104
 4934TIP3   OH236360   2.924   0.143   7.705  0.8358 -0.0867  0.4951
 4934TIP3    H136361   2.964   0.056   7.714  1.2864 -0.0710 -1.0290
 4934TIP3    H236362   2.938   0.166   7.613 -0.2990  1.1128  0.5966
 4935TIP3   OH236363   0.226   5.333   0.349  0.3402 -0.3590  0.2838
 4935TIP3    H136364   0.138   5.335   0.311  0.3343 -0.6455  0.2815
 4935TIP3    H236365   0.264   5.417   0.324  0.2545 -0.4468 -0.1609
 4936TIP3   OH236366   4.417   0.758   1.026 -0.1936  0.1045 -0.3620
 4936TIP3    H136367   4.507   0.785   1.046 -0.1539 -1.0544  1.2704
 4936TIP3    H236368   4.386   0.822   0.962  1.4855  1.0497 -0.2899
 4937TIP3   OH236369   1.193   5.205   0.473 -0.0769  0.4997 -0.3037
 4937TIP3    H136370   1.187   5.177   0.381 -2.5270  0.1633 -0.1071
 4937TIP3    H236371   1.221   5.296   0.468  1.0144  0.1413 -1.3041
 4938TIP3   OH236372   6.292   4.620   0.169 -0.5421  0.2038  0.0158
 4938TIP3    H136373   6.256   4.570   0.242 -1.0086  0.1903 -0.2258
 4938TIP3    H236374   6.340   4.692   0.211 -2.0980  1.1072  0.3174
 4939TIP3   OH236375   3.811   5.505   2.421 -0.4187 -0.3732 -0.3530
 4939TIP3    H136376   3.799   5.410   2.423 -0.3938 -0.3790 -0.5250
 4939TIP3    H236377   3.786   5.531   2.333  0.6015 -0.3467 -0.6388
 4940TIP3   OH236378   4.044   0.951   8.022 -0.8059 -0.0276 -0.4095
 4940TIP3    H136379   4.118   0.894   8.003 -1.2634 -1.0690  0.7763
 4940TIP3    H236380   4.036   1.007   7.945  0.9580 -0.1441 -0.7125
 4941TIP3   OH236381   0.572   2.133   0.418  1.0356  0.1109  0.1780
 4941TIP3    H136382   0.479   2.141   0.439  1.2761  0.2492  1.2425
 4941TIP3    H236383   0.617   2.173   0.492  1.9928 -1.4506  0.4950
 4942TIP3   OH236384   6.420   4.806   0.607 -0.3726  0.6993 -0.6019
 4942TIP3    H136385   6.387   4.766   0.687  0.7925  0.3153 -0.2848
 4942TIP3    H236386   6.435   4.898   0.631  0.3268  0.5021 -0.2545
 4943TIP3   OH236387   2.254   0.804   0.489  0.0974 -0.2504 -0.3940
 4943TIP3    H136388   2.316   0.748   0.442  0.1895  0.5363 -1.2353
 4943TIP3    H236389   2.308   0.854   0.551  0.4029  0.7729 -1.4476
 4944TIP3   OH236390   6.490   0.629   2.717  0.4409 -0.5753 -0.0678
 4944TIP3    H136391   6.434   0.706   2.705 -1.3328 -1.9907 -1.6256
 4944TIP3    H236392   6.512   0.630   2.810 -1.7033  0.4127  0.5115
 4945TIP3   OH236393   2.949   3.736   8.867  0.1436  0.4831  0.4806
 4945TIP3    H136394   2.946   3.795   8.942 -0.3067  1.1884 -0.0795
 4945TIP3    H236395   3.039   3.741   8.836 -0.1343  1.6790 -0.1824
 4946TIP3   OH236396   4.442   2.881   0.424  0.0325  0.0022  0.1706
 4946TIP3    H136397   4.384   2.923   0.360 -0.0469 -1.0538 -0.4749
 4946TIP3    H236398   4.470   2.952   0.481 -1.4806  0.6348  0.1824
 4947TIP3   OH236399   0.480   0.147   0.407  0.5204 -0.3208  0.6583
 4947TIP3    H136400   0.436   0.141   0.322  2.7789 -0.3828 -0.5879
 4947TIP3    H236401   0.536   0.069   0.409  1.7073  0.5340  1.4611
 4948TIP3   OH236402   5.765   1.189   8.543  0.6148  0.1711 -0.5396
 4948TIP3    H136403   5.790   1.155   8.629  0.2457 -1.3010 -0.9819
 4948TIP3    H236404   5.830   1.151   8.483 -0.0444 -0.0736 -1.1072
 4949TIP3   OH236405   2.788   1.292   8.269  0.5960 -0.1172  0.0053
 4949TIP3    H136406   2.716   1.257   8.322  0.0235  1.9153  0.6428
 4949TIP3    H236407   2.758   1.283   8.179  0.6413 -1.5732  0.1094
 4950TIP3   OH236408   0.654   0.598   8.667 -0.2087 -0.1113  0.0972
 4950TIP3    H136409   0.612   0.515   8.645  0.4063 -0.9290  1.8177
 4950TIP3    H236410   0.637   0.609   8.760 -0.6714  1.9580 -0.1871
 4951TIP3   OH236411   5.489   3.220   1.055  0.4243 -0.7797  0.0839
 4951TIP3    H136412   5.514   3.133   1.023  1.5149 -0.3497 -0.2878
 4951TIP3    H236413   5.556   3.242   1.119  1.5924  0.7534 -1.5452
 4952TIP3   OH236414   3.292   2.322   0.083  0.4850  0.7705 -0.3391
 4952TIP3    H136415   3.255   2.333  -0.004 -1.2761  0.5947  0.3426
 4952TIP3    H236416   3.347   2.244   0.077  0.5016  0.8542 -1.3268
 4953TIP3   OH236417   3.042   0.843   1.968 -0.2933 -0.0861 -0.1468
 4953TIP3    H136418   3.011   0.753   1.976 -0.9033  0.0484 -0.8506
 4953TIP3    H236419   3.053   0.856   1.874 -0.8274  0.7739 -0.0978
 4954TIP3   OH236420   1.336   5.925   0.269  0.1122 -0.3583 -0.0671
 4954TIP3    H136421   1.423   5.966   0.271  0.8584 -1.7617 -1.3040
 4954TIP3    H236422   1.339   5.859   0.339 -0.1341 -0.0977  0.1920
 4955TIP3   OH236423   0.831   5.669   1.602 -0.9307 -0.4087 -0.2738
 4955TIP3    H136424   0.812   5.629   1.517 -1.6613 -2.4826  0.7951
 4955TIP3    H236425   0.873   5.599   1.652  2.1221  1.6069  0.1944
 4956TIP3   OH236426   3.946   2.276   1.699  0.4634  0.1065 -0.4858
 4956TIP3    H136427   4.035   2.309   1.686 -0.3156  2.0704 -1.2378
 4956TIP3    H236428   3.942   2.195   1.647  0.5890  2.2856 -4.2185
 4957TIP3   OH236429   3.995   0.482   8.315  0.3171  0.1346 -0.7790
 4957TIP3    H136430   4.082   0.509   8.345  0.9584 -2.1046 -0.4140
 4957TIP3    H236431   3.935   0.545   8.354  1.5945  0.3483  0.9274
 4958TIP3   OH236432   1.246   0.477   2.536 -0.5603  0.3273  0.0821
 4958TIP3    H136433   1.288   0.527   2.466 -2.0382  1.7929  0.1641
 4958TIP3    H236434   1.276   0.387   2.523  0.8548  0.9194 -1.1284
 4959TIP3   OH236435   0.079   0.720   8.089  0.0107 -0.1649 -0.1097
 4959TIP3    H136436   0.034   0.697   8.171  0.0410 -0.1416 -0.0863
 4959TIP3    H236437   0.171   0.697   8.105 -0.1979 -1.4137 -0.6156
 4960TIP3   OH236438   4.970   1.505   2.178 -0.4290  0.7277 -0.0598
 4960TIP3    H136439   4.986   1.583   2.232 -3.4578  1.6383 -0.3103
 4960TIP3    H236440   4.940   1.540   2.095 -0.1619 -0.7412 -0.7978
 4961TIP3   OH236441   5.292   0.286   7.445 -0.3304  0.3898  0.3515
 4961TIP3    H136442   5.255   0.296   7.532 -0.8235 -0.7269  0.2844
 4961TIP3    H236443   5.228   0.327   7.387 -0.4627  0.2952  0.4302
 4962TIP3   OH236444   3.608   4.826   7.572 -0.3407  0.0353 -0.1759
 4962TIP3    H136445   3.674   4.808   7.638 -0.0623 -0.1201 -0.4902
 4962TIP3    H236446   3.618   4.919   7.552  0.4016 -0.1794 -0.8735
 4963TIP3   OH236447   5.627   3.997   8.104 -0.3371  0.3374  0.1484
 4963TIP3    H136448   5.561   4.026   8.042 -0.1847 -0.7050 -0.5296
 4963TIP3    H236449   5.580   3.989   8.187 -1.2063 -0.8706 -0.4306
 4964TIP3   OH236450   2.461   1.620   1.854  0.2642 -0.2780 -0.2364
 4964TIP3    H136451   2.399   1.556   1.820  0.9897 -1.8652  1.2722
 4964TIP3    H236452   2.541   1.604   1.804 -0.1792  1.0525 -1.4435
 4965TIP3   OH236453   6.516   4.920   1.859  0.6404  0.1098  0.3551
 4965TIP3    H136454   6.458   4.971   1.916 -0.8952  0.7859 -1.6893
 4965TIP3    H236455   6.488   4.829   1.871  2.3537 -0.2077  2.8381
 4966TIP3   OH236456   0.534   6.317   7.783 -0.0885 -0.1293  0.7248
 4966TIP3    H136457   0.525   6.284   7.873  1.6689 -1.2254  0.5400
 4966TIP3    H236458   0.492   6.249   7.729 -2.1151  1.0399  0.7384
 4967TIP3   OH236459   0.101   0.635   0.861 -0.5178  0.1355 -0.2005
 4967TIP3    H136460   0.152   0.569   0.814 -0.8244  0.0728 -0.4454
 4967TIP3    H236461   0.155   0.656   0.938  1.0611  1.8943 -1.7070
 4968TIP3   OH236462   2.951   2.065   0.109 -0.3606 -0.3379 -0.4304
 4968TIP3    H136463   2.985   2.073   0.020  0.0335 -0.7539 -0.3247
 4968TIP3    H236464   2.945   2.155   0.141  1.3498 -0.2652 -0.2100
 4969TIP3   OH236465   3.900   0.740   0.601  0.0883  0.5695  0.2524
 4969TIP3    H136466   3.808   0.713   0.597 -0.2087  1.1986  1.8512
 4969TIP3    H236467   3.949   0.664   0.569 -0.9775  0.1396 -0.4058
 4970TIP3   OH236468   6.191   1.483   8.768  0.3723  0.2942  0.3941
 4970TIP3    H136469   6.109   1.493   8.817  0.6001 -1.5061  1.2083
 4970TIP3    H236470   6.257   1.466   8.834  0.6503 -2.4138 -0.4501
 4971TIP3   OH236471   1.562   2.137   9.252 -0.5989  0.1087 -0.1947
 4971TIP3    H136472   1.520   2.207   9.302 -0.8119  0.6271 -1.0846
 4971TIP3    H236473   1.575   2.174   9.165  2.5186  0.2927  0.2494
 4972TIP3   OH236474   3.938   2.769   9.262  0.3707 -0.3994 -0.2292
 4972TIP3    H136475   3.992   2.691   9.245 -1.5930 -1.5680 -1.4128
 4972TIP3    H236476   3.858   2.734   9.302 -0.2585  1.1143 -0.1047
 4973TIP3   OH236477   5.374   3.094   0.749  0.5123  0.3284 -0.3612
 4973TIP3    H136478   5.301   3.034   0.734 -0.1523  0.8133  0.7885
 4973TIP3    H236479   5.438   3.043   0.796  1.0134 -0.1482 -1.5218
 4974TIP3   OH236480   3.373   5.087   2.358 -0.2492 -0.0728  0.1794
 4974TIP3    H136481   3.327   5.106   2.276  0.7726 -1.0731 -0.6437
 4974TIP3    H236482   3.442   5.153   2.363 -1.5576  1.3054  1.3205
 4975TIP3   OH236483   6.300   1.786   1.824  0.4051 -0.0788 -0.2658
 4975TIP3    H136484   6.278   1.738   1.904  0.7103 -0.9173 -0.6848
 4975TIP3    H236485   6.391   1.765   1.807  0.0969 -0.6197 -1.3270
 4976TIP3   OH236486   5.939   3.573   7.629 -0.1487 -0.5605  0.9599
 4976TIP3    H136487   5.972   3.597   7.715 -2.3196  1.0457  1.4569
 4976TIP3    H236488   6.009   3.595   7.568  0.8515 -0.2844  2.1893
 4977TIP3   OH236489   3.236   4.107   8.796  0.6742  0.1573 -0.0300
 4977TIP3    H136490   3.180   4.029   8.800 -0.1416  0.5698 -1.9790
 4977TIP3    H236491   3.306   4.090   8.858 -1.2503 -0.6785  2.0409
 4978TIP3   OH236492   0.328   6.020   1.306  0.4717 -0.2384 -0.3795
 4978TIP3    H136493   0.343   5.956   1.375 -0.3951  0.4885  0.5131
 4978TIP3    H236494   0.233   6.018   1.291  0.5278  0.2947 -0.8635
 4979TIP3   OH236495   2.789   4.247   1.032 -0.6943  0.1399  0.9288
 4979TIP3    H136496   2.745   4.306   1.094  1.2642  2.3114  0.3979
 4979TIP3    H236497   2.781   4.291   0.947  0.0346 -0.8431  0.3326
 4980TIP3   OH236498   2.043   5.696   8.841 -0.0732  0.0783  0.1449
 4980TIP3    H136499   2.011   5.608   8.860  0.7464 -0.2651 -0.0362
 4980TIP3    H236500   2.101   5.685   8.765 -1.2193  1.0235 -0.9084
 4981TIP3   OH236501   2.977   5.883   7.824  0.3789 -0.1662  0.1883
 4981TIP3    H136502   2.956   5.885   7.731 -0.2636  1.8262  0.3336
 4981TIP3    H236503   2.925   5.811   7.859 -0.3552 -0.1270 -0.7835
 4982TIP3   OH236504   0.485   4.602   2.898 -0.2715 -0.1330  0.1030
 4982TIP3    H136505   0.390   4.600   2.887 -0.1106 -0.3752 -1.6202
 4982TIP3    H236506   0.517   4.534   2.839  0.9255 -0.8942  1.5682
 4983TIP3   OH236507   1.938   1.596   7.202  0.3884  0.2238  0.0915
 4983TIP3    H136508   1.883   1.659   7.249  1.1389  0.3507  0.8267
 4983TIP3    H236509   1.896   1.511   7.218  1.1550  0.1236  1.8627
 4984TIP3   OH236510   0.256   1.790   0.457 -0.3633  0.2136 -0.1512
 4984TIP3    H136511   0.222   1.707   0.424 -1.1552  0.3156  0.3885
 4984TIP3    H236512   0.217   1.800   0.544  0.3344  0.7805  0.1139
 4985TIP3   OH236513   4.296   4.747   7.415 -0.0384 -0.4449  0.2846
 4985TIP3    H136514   4.385   4.720   7.438  0.0675 -0.0246  0.3849
 4985TIP3    H236515   4.307   4.835   7.378 -0.2060 -1.0799 -1.3609
 4986TIP3   OH236516   4.917   3.946   1.844 -0.1333  0.6878  0.1636
 4986TIP3    H136517   4.989   3.928   1.904  0.4506  0.3428 -0.6194
 4986TIP3    H236518   4.878   4.028   1.876 -0.5024 -0.0181  1.6075
 4987TIP3   OH236519   1.939   0.041   2.584 -0.3621  0.0057  0.5245
 4987TIP3    H136520   1.927   0.098   2.508 -1.1125 -0.7784  0.0361
 4987TIP3    H236521   1.997   0.090   2.642 -0.8086  1.1661  0.0154
 4988TIP3   OH236522   3.769   3.375   7.873  0.4715 -0.8968  0.7691
 4988TIP3    H136523   3.720   3.296   7.893 -1.0970 -0.0947  0.2523
 4988TIP3    H236524   3.713   3.446   7.905  0.8381  0.1049 -0.7343
 4989TIP3   OH236525   2.428   5.711   9.205  0.0105 -0.3628  0.0450
 4989TIP3    H136526   2.377   5.769   9.149 -0.0471 -1.2850 -0.8925
 4989TIP3    H236527   2.514   5.752   9.212 -0.1913  0.0995 -0.1584
 4990TIP3   OH236528   2.776   0.518   8.153 -0.4036  0.3647 -0.2055
 4990TIP3    H136529   2.833   0.475   8.089 -2.0304 -0.8301 -0.9167
 4990TIP3    H236530   2.773   0.458   8.227 -1.3358  0.0128 -0.5061
 4991TIP3   OH236531   3.670   4.073   2.191 -0.1381  0.5980 -0.4757
 4991TIP3    H136532   3.679   4.142   2.125  2.4546 -0.1152 -0.9939
 4991TIP3    H236533   3.748   4.019   2.179 -1.2720 -1.4892  1.0057
 4992TIP3   OH236534   1.856   5.370   1.957 -0.7385 -0.2474  0.2957
 4992TIP3    H136535   1.864   5.337   1.867 -0.7401  0.8760 -0.1316
 4992TIP3    H236536   1.907   5.309   2.010 -0.1447 -0.5170 -0.5699
 4993TIP3   OH236537   4.619   5.304   2.371 -0.1374  0.1888 -0.0337
 4993TIP3    H136538   4.656   5.216   2.361 -0.0089  0.3162 -0.6855
 4993TIP3    H236539   4.648   5.332   2.458  1.0334  0.1547 -0.3917
 4994TIP3   OH236540   5.171   0.849   2.184  0.2438 -0.6734  0.0493
 4994TIP3    H136541   5.173   0.895   2.268 -2.4261 -0.7928  0.2680
 4994TIP3    H236542   5.103   0.895   2.134  0.9291 -1.3837 -1.5795
 4995TIP3   OH236543   2.091   0.852   1.836 -0.0286  0.2732 -0.1640
 4995TIP3    H136544   2.186   0.840   1.838  0.2005  1.5508 -1.4425
 4995TIP3    H236545   2.064   0.846   1.928  1.6323  2.2548  0.5236
 4996TIP3   OH236546   2.257   2.661   1.133 -0.4118 -0.5967  0.4871
 4996TIP3    H136547   2.324   2.655   1.202  0.3196  0.7134 -0.0778
 4996TIP3    H236548   2.303   2.700   1.059 -1.5651 -0.6280 -0.2556
 4997TIP3   OH236549   4.929   6.096   2.398  0.5458  0.0549  0.3381
 4997TIP3    H136550   4.870   6.046   2.342 -0.1435 -0.7262  1.7162
 4997TIP3    H236551   4.901   6.187   2.389 -1.5672 -0.3905  1.7030
 4998TIP3   OH236552   2.025   0.630   8.442  0.6507 -0.7074  0.6916
 4998TIP3    H136553   2.043   0.720   8.470 -0.6752 -0.1759 -0.1093
 4998TIP3    H236554   1.969   0.594   8.511 -1.4098  0.1297 -0.4741
 4999TIP3   OH236555   2.410   0.693   9.002 -0.0933 -0.1308  0.3087
 4999TIP3    H136556   2.495   0.726   9.029 -0.1855  1.2367 -0.9815
 4999TIP3    H236557   2.352   0.712   9.076  0.2562  0.8921  0.3240
 5000TIP3   OH236558   5.506   5.421   8.549 -0.1243 -0.4880  0.1136
 5000TIP3    H136559   5.475   5.387   8.633 -0.1368 -0.3231  0.1759
 5000TIP3    H236560   5.462   5.367   8.483 -2.2033  1.1055  0.1274
 5001TIP3   OH236561   2.121   1.573   8.002 -0.1635 -0.4099  0.4839
 5001TIP3    H136562   2.210   1.544   7.985  0.0730 -0.1567  1.2727
 5001TIP3    H236563   2.128   1.668   8.012 -0.7897 -0.1545 -1.1539
 5002TIP3   OH236564   4.030   5.023   8.312  0.2023  0.2989 -0.3576
 5002TIP3    H136565   4.115   5.051   8.346 -0.5665  0.8187  1.2299
 5002TIP3    H236566   3.998   4.959   8.376 -2.0102  2.5025  0.8993
 5003TIP3   OH236567   4.253   4.688   3.406 -0.6070  0.2782  0.2158
 5003TIP3    H136568   4.212   4.723   3.327  0.1363  1.5838  0.3677
 5003TIP3    H236569   4.236   4.754   3.473 -1.1494 -0.7722  1.1357
 5004TIP3   OH236570   3.462   0.616   0.956  0.2040  0.3502 -0.1436
 5004TIP3    H136571   3.372   0.608   0.924 -0.0603  1.8172  0.1826
 5004TIP3    H236572   3.460   0.577   1.043 -1.0229  3.4546  1.3613
 5005TIP3   OH236573   0.558   5.630   1.013  0.9346  0.0348 -0.5858
 5005TIP3    H136574   0.519   5.610   0.929  0.8962  0.6068 -0.7115
 5005TIP3    H236575   0.547   5.725   1.023 -0.5635 -0.2407  0.8239
 5006TIP3   OH236576   0.816   2.296   9.177 -0.6834  0.0311 -0.3816
 5006TIP3    H136577   0.903   2.312   9.215  0.5591 -1.2281 -2.5351
 5006TIP3    H236578   0.797   2.374   9.125 -0.2403 -0.2290 -0.9405
 5007TIP3   OH236579   6.254   1.643   1.207  0.5337  0.1289  0.1674
 5007TIP3    H136580   6.295   1.722   1.170  1.1534  0.0076  0.5845
 5007TIP3    H236581   6.201   1.676   1.280  1.6156  0.0563  1.0027
 5008TIP3   OH236582   3.988   4.923   7.765 -0.1892 -0.0782  0.4024
 5008TIP3    H136583   3.925   4.876   7.710 -0.8140  0.7734  0.3743
 5008TIP3    H236584   3.934   4.978   7.822  0.5596  2.5155 -1.2537
 5009TIP3   OH236585   2.616   5.706   3.086 -0.2868 -0.0257  0.6776
 5009TIP3    H136586   2.538   5.761   3.100 -0.4179 -0.5437  2.2386
 5009TIP3    H236587   2.676   5.732   3.156  1.1979  0.7199 -0.8039
 5010TIP3   OH236588   5.958   2.250   8.150  0.1796 -0.0143  0.3691
 5010TIP3    H136589   5.912   2.319   8.103  0.1309 -2.0446 -2.9152
 5010TIP3    H236590   6.045   2.286   8.168 -0.0650  1.1317 -0.6449
 5011TIP3   OH236591   3.333   2.191   2.536  0.3613  0.0242  0.1494
 5011TIP3    H136592   3.379   2.139   2.470 -0.3704 -0.2057 -0.1864
 5011TIP3    H236593   3.390   2.266   2.551  0.7439 -0.1445 -0.4251
 5012TIP3   OH236594   5.375   0.936   1.435 -0.2071 -0.0978 -0.7494
 5012TIP3    H136595   5.445   0.999   1.420  1.0842 -1.5128 -0.9874
 5012TIP3    H236596   5.359   0.939   1.529  2.2385 -1.7407 -0.1953
 5013TIP3   OH236597   1.808   5.337   2.381 -0.8230 -0.0627 -0.0508
 5013TIP3    H136598   1.720   5.335   2.420 -1.8016  0.8929 -2.0300
 5013TIP3    H236599   1.829   5.430   2.375  0.3887 -0.2863  0.4629
 5014TIP3   OH236600   3.665   3.428   0.871  0.3482  0.3564  0.0920
 5014TIP3    H136601   3.664   3.334   0.888 -0.9102  0.0510 -1.4209
 5014TIP3    H236602   3.574   3.455   0.878  0.6533  1.4108  0.1866
 5015TIP3   OH236603   3.195   1.421   0.827 -0.0787  0.6732  0.0543
 5015TIP3    H136604   3.288   1.407   0.845  0.1522  0.4516 -1.2047
 5015TIP3    H236605   3.175   1.358   0.757 -1.0940  0.9294  0.1019
 5016TIP3   OH236606   1.465   1.658   9.003  0.1882 -0.3018  0.2625
 5016TIP3    H136607   1.443   1.592   8.937 -1.4208  1.7929 -1.4711
 5016TIP3    H236608   1.380   1.691   9.033  0.8810  2.0674 -0.1680
 5017TIP3   OH236609   2.757   5.042   8.075  0.0777 -0.4201  0.3683
 5017TIP3    H136610   2.826   5.095   8.115  0.4188 -0.2188 -0.4671
 5017TIP3    H236611   2.685   5.044   8.139 -0.5588  2.4210 -0.3334
 5018TIP3   OH236612   1.892   6.339   7.781 -0.2803  0.5104  0.4506
 5018TIP3    H136613   1.963   6.283   7.813 -0.6716  0.4325  1.2009
 5018TIP3    H236614   1.812   6.297   7.812 -0.7005  0.3140 -0.8272
 5019TIP3   OH236615   4.529   4.969   8.246  0.0709  0.0264  0.1222
 5019TIP3    H136616   4.563   5.032   8.310  0.0413 -1.0473  1.2237
 5019TIP3    H236617   4.594   4.968   8.176  0.0520  1.2923  0.0628
 5020TIP3   OH236618   1.348   0.003   0.387 -0.4308 -0.7916 -0.9949
 5020TIP3    H136619   1.275   0.060   0.412  1.1023  1.3108 -1.1072
 5020TIP3    H236620   1.307  -0.065   0.333 -2.4141 -0.1317 -0.3999
 5021TIP3   OH236621   3.408   4.207   8.245 -0.5284 -0.4952 -0.4673
 5021TIP3    H136622   3.406   4.298   8.275 -1.3696 -0.7299  0.2412
 5021TIP3    H236623   3.498   4.193   8.218 -0.5278  0.7322 -1.1765
 5022TIP3   OH236624   1.616   2.852   9.227  0.0707  0.0611 -0.0835
 5022TIP3    H136625   1.525   2.881   9.237 -0.8184 -2.6192  0.6345
 5022TIP3    H236626   1.644   2.831   9.316  2.0692  2.4234 -0.0603
 5023TIP3   OH236627   2.578   4.138   2.141 -0.4479 -0.4301  0.1734
 5023TIP3    H136628   2.529   4.211   2.102  0.2783 -1.4773 -3.0061
 5023TIP3    H236629   2.512   4.072   2.160 -0.8078  0.0433  0.5968
 5024TIP3   OH236630   4.595   0.463   2.091 -0.6944  0.0518 -0.8339
 5024TIP3    H136631   4.535   0.538   2.090 -2.2830 -1.1691 -1.5774
 5024TIP3    H236632   4.582   0.422   2.177 -1.1713 -0.3917 -1.1137
 5025TIP3   OH236633   1.553   6.415   2.127  0.2441 -0.6881  0.0124
 5025TIP3    H136634   1.599   6.331   2.123  1.5192 -0.0033 -0.3186
 5025TIP3    H236635   1.617   6.476   2.163 -1.2673 -0.2263  2.0846
 5026TIP3   OH236636   0.128   5.497   2.029 -0.1051 -0.3882  0.2248
 5026TIP3    H136637   0.177   5.578   2.017 -1.2780  0.1378 -1.5432
 5026TIP3    H236638   0.037   5.522   2.013 -0.7258 -1.7048  1.4770
 5027TIP3   OH236639   3.892   3.035   7.826  0.9646  0.1276  0.2258
 5027TIP3    H136640   3.920   2.948   7.852  1.4684 -0.1644 -1.2134
 5027TIP3    H236641   3.953   3.061   7.757  0.3306  1.2763  0.0647
 5028TIP3   OH236642   5.962   1.835   7.646  0.0915 -0.1865  0.3101
 5028TIP3    H136643   6.032   1.859   7.708 -0.4661  0.6344  0.6402
 5028TIP3    H236644   6.006   1.831   7.561  0.5132  0.4903  0.4861
 5029TIP3   OH236645   6.641   6.373   8.174  0.1620  0.5057 -0.1632
 5029TIP3    H136646   6.558   6.392   8.130 -0.2962 -0.9653  0.0107
 5029TIP3    H236647   6.629   6.408   8.263 -0.5733 -0.3305  0.0853
 5030TIP3   OH236648   4.875   3.273   1.169  0.0077  0.1939 -0.4554
 5030TIP3    H136649   4.846   3.307   1.084  0.3451 -0.7342 -0.9573
 5030TIP3    H236650   4.912   3.349   1.214 -0.2278  0.7119 -1.1136
 5031TIP3   OH236651   2.578   0.500   7.311  0.8416 -0.6682  0.5597
 5031TIP3    H136652   2.534   0.436   7.367  2.6368 -1.4509  1.1533
 5031TIP3    H236653   2.515   0.572   7.302 -0.4083 -1.5825  1.5948
 5032TIP3   OH236654   1.403   3.361   0.198 -0.0488 -0.0787  0.1222
 5032TIP3    H136655   1.469   3.327   0.259 -1.1693 -3.1581 -0.2250
 5032TIP3    H236656   1.323   3.365   0.250  0.0208  2.3606  0.1716
 5033TIP3   OH236657   0.542   3.286   0.965 -0.7297  0.1194  0.1270
 5033TIP3    H136658   0.473   3.220   0.975 -2.2602  1.7726  1.1049
 5033TIP3    H236659   0.598   3.273   1.041 -1.0087 -0.0653  0.3033
 5034TIP3   OH236660   4.302   2.064   7.592  0.1022  0.0228  0.2051
 5034TIP3    H136661   4.336   2.113   7.517 -0.8233  1.5578  0.7556
 5034TIP3    H236662   4.226   2.016   7.557 -0.5956  1.0790  0.2337
 5035TIP3   OH236663   6.399   6.555   8.306 -0.0353 -0.5236  0.7415
 5035TIP3    H136664   6.355   6.533   8.225  0.1739 -1.4131  0.8535
 5035TIP3    H236665   6.367   6.490   8.369 -0.8542  0.6755  1.6030
 5036TIP3   OH236666   3.614   5.124   3.001 -0.2160 -0.0995  0.3641
 5036TIP3    H136667   3.609   5.120   3.097 -1.6959 -1.7168  0.2732
 5036TIP3    H236668   3.539   5.178   2.976 -0.3252 -0.3886  0.0740
 5037TIP3   OH236669   0.175   6.151   0.678  0.2558 -0.2529 -0.0901
 5037TIP3    H136670   0.242   6.092   0.712  3.1569  1.3090 -2.5908
 5037TIP3    H236671   0.190   6.233   0.724 -0.1950  0.0364 -0.4535
 5038TIP3   OH236672   5.508   1.311   7.929  0.2085 -0.4954 -0.8287
 5038TIP3    H136673   5.433   1.331   7.986  1.2227  0.8197  0.1149
 5038TIP3    H236674   5.476   1.242   7.871 -1.4563 -0.5809  0.1143
 5039TIP3   OH236675   0.954   3.773   8.983 -1.1536 -0.0333  0.5297
 5039TIP3    H136676   0.974   3.743   8.894 -1.2331  0.2282  0.4221
 5039TIP3    H236677   0.861   3.795   8.980 -0.8685  1.1950  0.3230
 5040TIP3   OH236678   6.585   4.249   9.170  0.1046 -0.6180 -0.4423
 5040TIP3    H136679   6.510   4.309   9.178 -3.0837 -4.4200  1.8550
 5040TIP3    H236680   6.643   4.275   9.241 -1.0335 -0.0033  0.3012
 5041TIP3   OH236681   2.904   0.332   1.624 -1.0613 -0.1644 -0.8173
 5041TIP3    H136682   2.852   0.322   1.544 -1.2683  0.0274 -0.7057
 5041TIP3    H236683   2.928   0.242   1.647 -2.1978 -0.3486 -0.3011
 5042TIP3   OH236684   5.595   4.616   8.665 -0.4458  0.0635 -0.3223
 5042TIP3    H136685   5.521   4.620   8.604 -0.0349  2.8630 -0.7748
 5042TIP3    H236686   5.672   4.604   8.608 -0.0510  2.7777 -0.4930
 5043TIP3   OH236687   3.479   3.455   8.568  0.3774  0.0966 -0.8182
 5043TIP3    H136688   3.417   3.463   8.496 -0.4751 -0.4704 -0.1668
 5043TIP3    H236689   3.425   3.437   8.644  1.4013 -1.1848 -0.3620
 5044TIP3   OH236690   2.910   4.810   0.204  0.0897 -0.6539 -0.0299
 5044TIP3    H136691   2.992   4.825   0.157  0.4657 -0.3450  0.7121
 5044TIP3    H236692   2.891   4.717   0.191  0.4984 -0.6996 -0.3013
 5045TIP3   OH236693   2.553   2.904   1.422 -0.6709 -0.3312  0.2974
 5045TIP3    H136694   2.499   2.983   1.426  0.7370  0.8533 -2.0210
 5045TIP3    H236695   2.630   2.924   1.474 -0.1066  0.0250 -0.6574
 5046TIP3   OH236696   5.093   1.885   0.503 -0.1258 -0.1646 -0.0670
 5046TIP3    H136697   5.056   1.970   0.479  0.0040  0.1326  0.7626
 5046TIP3    H236698   5.070   1.828   0.430  0.7526  0.8472 -1.1793
 5047TIP3   OH236699   0.837   4.997   0.409  0.1275  0.0493  0.4794
 5047TIP3    H136700   0.785   4.985   0.330 -0.4962 -2.9013  1.2263
 5047TIP3    H236701   0.781   4.967   0.480  0.7637  2.3870  2.1068
 5048TIP3   OH236702   4.070   4.165   0.606 -0.4129  0.8969 -0.4600
 5048TIP3    H136703   4.139   4.174   0.540  0.2613  0.4880  0.1692
 5048TIP3    H236704   4.034   4.078   0.591 -0.5725  0.9822 -0.5781
 5049TIP3   OH236705   4.143   0.270   1.175 -0.3168 -0.0484 -0.0366
 5049TIP3    H136706   4.069   0.209   1.188 -0.6790  0.2683 -0.5888
 5049TIP3    H236707   4.102   0.351   1.146  0.3541 -0.3894 -2.0960
 5050TIP3   OH236708   4.898   3.004   0.639 -0.1353  0.1861  0.5819
 5050TIP3    H136709   4.849   2.944   0.696  1.2277 -0.5997  0.9794
 5050TIP3    H236710   4.973   3.030   0.692  0.3231  0.6923 -0.2992
 5051TIP3   OH236711   1.979   6.115   1.403 -0.2668  0.0845  0.1166
 5051TIP3    H136712   2.068   6.080   1.414 -0.4753 -0.0725  1.3973
 5051TIP3    H236713   1.992   6.201   1.363  0.5840  0.8080  1.8830
 5052TIP3   OH236714   4.582   3.878   2.049 -0.0615 -0.1156  0.5202
 5052TIP3    H136715   4.492   3.861   2.073 -0.1112  0.3750  0.6886
 5052TIP3    H236716   4.577   3.947   1.983  0.0926 -1.1902 -0.6530
 5053TIP3   OH236717   4.651   3.609   2.056 -0.1888  0.0735  0.3773
 5053TIP3    H136718   4.624   3.700   2.064  0.2615  0.2444  0.0552
 5053TIP3    H236719   4.596   3.561   2.118 -2.3767  0.1458 -1.3850
 5054TIP3   OH236720   4.407   2.560   8.752  0.0943 -0.6090 -0.2033
 5054TIP3    H136721   4.353   2.604   8.818 -0.7109  0.9630 -1.7968
 5054TIP3    H236722   4.450   2.489   8.799 -2.2438 -1.0382  1.4988
 5055TIP3   OH236723   2.125   0.134   2.779 -0.0127 -0.5571 -0.1414
 5055TIP3    H136724   2.193   0.193   2.745 -0.2326 -0.9220 -1.2505
 5055TIP3    H236725   2.157   0.110   2.866  1.1391 -0.4818 -0.5153
 5056TIP3   OH236726   0.988   5.377   1.457 -0.0657 -0.3875 -0.4709
 5056TIP3    H136727   0.898   5.409   1.451  0.1239  0.6609  1.5004
 5056TIP3    H236728   1.009   5.379   1.551  1.3205 -2.6407 -0.6427
 5057TIP3   OH236729   6.618   4.602   0.590  0.3488  0.5483 -0.9918
 5057TIP3    H136730   6.556   4.671   0.614 -0.7804 -0.7767  0.1418
 5057TIP3    H236731   6.646   4.564   0.673 -0.9053 -1.8550 -1.5453
 5058TIP3   OH236732   5.567   0.224   6.951  0.4346  0.1331  1.0381
 5058TIP3    H136733   5.475   0.232   6.975  0.3771  0.8536  0.6021
 5058TIP3    H236734   5.611   0.198   7.032  0.5602  4.4413  2.5767
 5059TIP3   OH236735   1.589   2.878   8.937  0.0421 -0.4754  0.3072
 5059TIP3    H136736   1.577   2.823   9.015 -0.8266 -0.3152  0.2972
 5059TIP3    H236737   1.674   2.920   8.950  0.2206 -0.9886  0.8344
 5060TIP3   OH236738   3.291   0.026   1.164 -0.0807  0.1030  0.4790
 5060TIP3    H136739   3.293   0.062   1.075 -1.3490  1.1259  0.8360
 5060TIP3    H236740   3.242  -0.055   1.157  3.4502 -2.1787 -0.4787
 5061TIP3   OH236741   5.224   1.299   1.368  0.0721  0.0993 -0.0765
 5061TIP3    H136742   5.246   1.246   1.445  1.5050  0.9516  0.1347
 5061TIP3    H236743   5.298   1.359   1.358 -0.5344  0.6475 -1.5632
 5062TIP3   OH236744   1.778   5.077   1.227  0.0585 -0.2822 -0.1593
 5062TIP3    H136745   1.838   5.146   1.254 -0.5665  1.2485 -2.3678
 5062TIP3    H236746   1.703   5.087   1.286 -0.6730  2.0224 -1.3241
 5063TIP3   OH236747   2.793   4.034   8.306  0.1089  0.4392  0.1583
 5063TIP3    H136748   2.746   3.951   8.320  0.7653  0.1754  0.8698
 5063TIP3    H236749   2.818   4.031   8.214  1.5386 -0.9376  0.5330
 5064TIP3   OH236750   6.328   5.137   1.977  0.1056  0.2013 -0.1904
 5064TIP3    H136751   6.253   5.174   1.930 -0.0820 -1.4667 -1.2814
 5064TIP3    H236752   6.298   5.051   2.007  1.6751 -0.6579 -0.9628
 5065TIP3   OH236753   1.311   0.191   8.410 -0.2926 -0.2195  0.4506
 5065TIP3    H136754   1.226   0.157   8.382 -0.2987  0.2198 -0.0954
 5065TIP3    H236755   1.296   0.224   8.499 -0.4839 -0.8842  0.6687
 5066TIP3   OH236756   6.480   2.468   9.172 -0.4630  0.1125  0.6316
 5066TIP3    H136757   6.512   2.538   9.115  0.5632  0.7713  1.9734
 5066TIP3    H236758   6.422   2.417   9.116  0.8827  0.4341 -1.1447
 5067TIP3   OH236759   0.504   4.629   0.929  0.0378 -1.0001  0.2578
 5067TIP3    H136760   0.522   4.641   1.023 -1.9661  0.1941  0.5529
 5067TIP3    H236761   0.415   4.592   0.927 -0.0628 -0.7138 -1.1829
 5068TIP3   OH236762   2.667   0.694   1.554  0.1656 -0.0602  0.0041
 5068TIP3    H136763   2.694   0.639   1.628 -0.3273  0.8671  0.9036
 5068TIP3    H236764   2.582   0.658   1.528  1.1313 -1.5333 -1.3421
 5069TIP3   OH236765   1.534   0.227   0.250 -0.2038 -0.1426  0.2140
 5069TIP3    H136766   1.505   0.150   0.299 -0.1956  0.2792  0.8951
 5069TIP3    H236767   1.618   0.201   0.213 -1.8684 -1.7932 -2.7647
 5070TIP3   OH236768   4.072   6.365   1.515  0.1143  0.1825  0.1136
 5070TIP3    H136769   4.103   6.306   1.584 -1.1910 -0.2147  0.3921
 5070TIP3    H236770   4.133   6.439   1.517  0.7603 -0.3579  0.9245
 5071TIP3   OH236771   4.106   6.497   7.686  0.1679  0.1095 -0.0969
 5071TIP3    H136772   4.047   6.423   7.675 -0.4399  0.6376 -0.3988
 5071TIP3    H236773   4.055   6.562   7.733  0.7832  0.2448  0.4070
 5072TIP3   OH236774   0.111   3.407   0.431 -0.0906  0.1671 -0.2797
 5072TIP3    H136775   0.110   3.343   0.359 -0.6937  1.9835 -1.9644
 5072TIP3    H236776   0.020   3.435   0.439  0.2319  1.0907  0.1773
 5073TIP3   OH236777   0.531   3.110   0.163 -0.5229 -0.0799 -0.3325
 5073TIP3    H136778   0.584   3.115   0.083  0.7918 -2.4655  0.2749
 5073TIP3    H236779   0.464   3.045   0.142  1.3329 -2.6760  1.1458
 5074TIP3   OH236780   3.943   4.632   7.972  0.5335 -0.2746  0.3248
 5074TIP3    H136781   3.978   4.545   7.953  0.2086 -0.3450  0.0477
 5074TIP3    H236782   3.926   4.671   7.887  3.8606  1.4223  0.2549
 5075TIP3   OH236783   4.728   2.362   0.813  0.0945 -1.1131  0.1156
 5075TIP3    H136784   4.702   2.273   0.835 -0.4286 -1.2545 -1.0494
 5075TIP3    H236785   4.721   2.367   0.718  2.2990 -0.5156 -0.0753
 5076TIP3   OH236786   0.678   1.364   2.028 -0.0346  0.1394  0.3626
 5076TIP3    H136787   0.689   1.399   1.940 -0.9720 -1.3896 -0.4028
 5076TIP3    H236788   0.587   1.382   2.051  0.1915  0.4923  1.0120
 5077TIP3   OH236789   4.971   5.513   2.822  0.2318 -0.1748 -0.3933
 5077TIP3    H136790   5.061   5.481   2.825  0.3114  0.1119  0.8721
 5077TIP3    H236791   4.917   5.436   2.836  0.3059 -0.2439 -0.4906
 5078TIP3   OH236792   6.348   2.468   2.215 -0.0068 -0.1379 -0.0429
 5078TIP3    H136793   6.268   2.491   2.263 -0.3273  1.0934 -1.0982
 5078TIP3    H236794   6.326   2.487   2.123  2.0361  1.9455 -0.1977
 5079TIP3   OH236795   0.067   0.435   0.648  0.1754  0.0425 -0.0070
 5079TIP3    H136796  -0.027   0.429   0.631  0.0199  3.3752 -1.0613
 5079TIP3    H236797   0.103   0.476   0.569  2.6821 -1.6654  0.1165
 5080TIP3   OH236798   0.965   3.103   8.091  0.3085  0.3927  0.1223
 5080TIP3    H136799   1.041   3.055   8.123  1.9235  0.1365 -3.5649
 5080TIP3    H236800   1.002   3.174   8.039 -1.9525  0.7021 -1.1978
 5081TIP3   OH236801   0.768   0.493   1.952  0.8361  0.3062 -0.2718
 5081TIP3    H136802   0.795   0.413   1.997  2.0153  1.4058  1.0990
 5081TIP3    H236803   0.740   0.551   2.023  4.4934  2.7915 -0.5796
 5082TIP3   OH236804   0.824   2.318   1.612  0.3461  0.0048  0.2441
 5082TIP3    H136805   0.817   2.318   1.708  1.8457  1.5943  0.4013
 5082TIP3    H236806   0.734   2.327   1.581 -0.0489  0.8758  1.5491
 5083TIP3   OH236807   1.132   6.525   1.890  0.0330  0.2511 -0.0852
 5083TIP3    H136808   1.206   6.490   1.939  1.1555 -0.0111 -1.8826
 5083TIP3    H236809   1.084   6.448   1.861  1.2687  0.2051 -2.1769
 5084TIP3   OH236810   5.041   0.006   8.554 -0.4074 -0.0105  0.3964
 5084TIP3    H136811   5.136   0.002   8.545 -0.5028 -0.5855 -0.4383
 5084TIP3    H236812   5.010  -0.080   8.526 -1.3196  0.8663 -1.4370
 5085TIP3   OH236813   3.632   5.022   8.722 -0.1152  0.3411 -0.4777
 5085TIP3    H136814   3.612   5.027   8.628 -2.8257  0.8094  0.0201
 5085TIP3    H236815   3.613   4.931   8.745  2.9157 -0.4691 -0.7371
 5086TIP3   OH236816   2.277   3.610   1.991 -0.4875 -0.4843  0.0038
 5086TIP3    H136817   2.311   3.698   2.005 -0.7854 -0.3403 -0.1714
 5086TIP3    H236818   2.314   3.558   2.063 -0.6797 -0.1156  0.3732
 5087TIP3   OH236819   3.741   3.569   8.689 -0.0304 -0.0694 -0.2742
 5087TIP3    H136820   3.663   3.527   8.654 -0.0535 -0.1672 -0.1051
 5087TIP3    H236821   3.812   3.508   8.669 -0.0897 -0.2752  0.1290
 5088TIP3   OH236822   6.039   1.474   9.191 -0.4386  0.6155  0.2330
 5088TIP3    H136823   6.041   1.381   9.213 -0.7743 -0.2938 -2.9796
 5088TIP3    H236824   6.020   1.518   9.273 -1.3218 -2.2256  1.6977
 5089TIP3   OH236825   3.526   0.233   8.434 -0.2384 -0.3249  0.1377
 5089TIP3    H136826   3.433   0.213   8.425 -0.6586  1.2950  0.6173
 5089TIP3    H236827   3.555   0.180   8.509 -0.3780 -1.9604 -0.9037
 5090TIP3   OH236828   3.432   1.257   2.014 -0.0375 -0.0189 -0.1116
 5090TIP3    H136829   3.488   1.221   1.945  1.0781 -0.3972  0.9526
 5090TIP3    H236830   3.478   1.336   2.042  0.3661 -0.7233  1.2759
 5091TIP3   OH236831   1.617   1.259   2.141 -0.2109 -0.1092 -0.0618
 5091TIP3    H136832   1.646   1.208   2.066 -2.8668 -0.6203 -0.8493
 5091TIP3    H236833   1.621   1.198   2.215  1.2203  0.0344  0.0076
 5092TIP3   OH236834   3.744   3.096   7.521 -0.1779  0.3317  0.1244
 5092TIP3    H136835   3.650   3.115   7.518  0.2668  2.6376 -0.8049
 5092TIP3    H236836   3.782   3.171   7.567  1.3454  0.0449 -0.6081
 5093TIP3   OH236837   6.255   6.073   8.803 -0.3353  0.1452  0.0889
 5093TIP3    H136838   6.213   6.089   8.888  2.7006 -1.7628  2.1553
 5093TIP3    H236839   6.218   5.989   8.775 -0.9019  0.4848 -0.1955
 5094TIP3   OH236840   4.161   5.036   0.902 -0.1729  0.2616  0.2480
 5094TIP3    H136841   4.205   5.014   0.820 -1.6746 -1.0549 -0.2496
 5094TIP3    H236842   4.073   5.000   0.893 -1.4294  2.8007  1.1838
 5095TIP3   OH236843   3.500   0.348   9.246 -0.1301  0.1779 -0.1281
 5095TIP3    H136844   3.453   0.344   9.330  1.7598 -2.5611  0.9277
 5095TIP3    H236845   3.592   0.358   9.270  0.5163 -1.2468 -1.8260
 5096TIP3   OH236846   2.603   1.732   9.143 -0.0915  0.2919 -0.2916
 5096TIP3    H136847   2.633   1.776   9.222  1.3154 -3.1396  1.2747
 5096TIP3    H236848   2.517   1.697   9.165 -1.0315  1.7310 -1.4001
 5097TIP3   OH236849   5.485   0.733   1.916 -0.9928 -0.0921  0.8064
 5097TIP3    H136850   5.523   0.744   1.829  0.5576 -0.2289  1.4261
 5097TIP3    H236851   5.439   0.816   1.933 -0.2393  0.4306  0.3523
 5098TIP3   OH236852   2.154   1.855   8.167 -0.2811 -0.4054 -0.0865
 5098TIP3    H136853   2.103   1.888   8.093  0.1368 -1.7481 -1.0033
 5098TIP3    H236854   2.244   1.853   8.136 -0.1859 -1.5745  0.2191
 5099TIP3   OH236855   0.397   2.735   0.489 -0.4015  0.0516  0.5673
 5099TIP3    H136856   0.316   2.708   0.532  0.4697 -2.3105  0.8570
 5099TIP3    H236857   0.420   2.661   0.432  1.4560  0.7438  0.3480
 5100TIP3   OH236858   4.027   4.293   8.874  0.3285  0.7864 -0.4600
 5100TIP3    H136859   4.120   4.287   8.856  0.2244 -0.4876 -0.6362
 5100TIP3    H236860   3.988   4.222   8.824 -0.8079  1.6031 -0.7885
 5101TIP3   OH236861   1.309   2.977   9.250 -0.3822 -0.1487  0.5358
 5101TIP3    H136862   1.231   2.930   9.221 -0.1190 -0.0542 -0.3510
 5101TIP3    H236863   1.301   2.980   9.346 -2.5504  1.7309  0.3684
 5102TIP3   OH236864   0.463   3.401   8.461  0.4004  0.0396 -0.6724
 5102TIP3    H136865   0.472   3.306   8.474 -0.1813  0.1459  0.6174
 5102TIP3    H236866   0.376   3.422   8.496  0.6692  1.1047 -0.6118
 5103TIP3   OH236867   2.600   4.361   0.454  0.5313  0.6576 -0.0111
 5103TIP3    H136868   2.587   4.451   0.425 -1.3670  0.7446  0.9120
 5103TIP3    H236869   2.692   4.342   0.437  0.6255  2.2909 -1.5018
 5104TIP3   OH236870   3.065   3.052   1.181 -0.2611 -0.0056  0.4589
 5104TIP3    H136871   3.158   3.038   1.162 -0.5724 -0.3367 -0.9247
 5104TIP3    H236872   3.026   2.965   1.175 -0.8846  0.3157 -0.3407
 5105TIP3   OH236873   2.256   1.295   0.522 -0.9985 -0.1977  0.1634
 5105TIP3    H136874   2.175   1.292   0.470  0.0599 -1.0083 -1.5317
 5105TIP3    H236875   2.290   1.383   0.508 -0.3496 -0.6343 -1.1713
 5106TIP3   OH236876   5.208   5.241   8.145  0.5457  0.3452  0.2634
 5106TIP3    H136877   5.178   5.151   8.131 -2.5406  1.1764  0.7741
 5106TIP3    H236878   5.219   5.277   8.057  1.4236 -0.3680  0.0621
 5107TIP3   OH236879   0.313   6.194   0.996  0.4619 -0.3417  0.3853
 5107TIP3    H136880   0.290   6.255   0.926 -2.0734  0.4902  1.8001
 5107TIP3    H236881   0.409   6.189   0.993  0.5119  0.2682 -2.5574
 5108TIP3   OH236882   2.771   4.481   2.702  0.4506  0.4032  0.6443
 5108TIP3    H136883   2.779   4.401   2.754 -0.6526  0.0826  0.3477
 5108TIP3    H236884   2.723   4.542   2.758 -2.6230 -0.6279 -0.6264
 5109TIP3   OH236885   1.640   3.226   3.042 -0.1892 -0.4173 -0.3181
 5109TIP3    H136886   1.548   3.217   3.019 -0.1980 -2.0793  0.2521
 5109TIP3    H236887   1.640   3.277   3.123 -0.7281 -1.5078  0.3968
 5110TIP3   OH236888   1.298   0.784   1.513  0.1459  0.2203 -0.5362
 5110TIP3    H136889   1.331   0.777   1.603 -2.3180  1.9561  0.6441
 5110TIP3    H236890   1.323   0.872   1.486 -2.4352  1.2263  0.0463
 5111TIP3   OH236891   5.483   5.479   7.693 -0.3712 -0.3358 -0.1673
 5111TIP3    H136892   5.505   5.472   7.786  0.8997 -0.0792 -0.4227
 5111TIP3    H236893   5.439   5.397   7.672 -0.2486 -0.5937  0.5528
 5112TIP3   OH236894   4.855   4.955   0.615  0.0492 -0.2789  0.4569
 5112TIP3    H136895   4.844   4.925   0.705 -0.4750 -1.4847  0.0104
 5112TIP3    H236896   4.950   4.953   0.600  0.0424 -1.8780  0.4187
 5113TIP3   OH236897   1.425   0.608   8.839 -0.0978  0.4282  0.0625
 5113TIP3    H136898   1.441   0.573   8.926  1.4829  2.1945  0.5543
 5113TIP3    H236899   1.344   0.658   8.847  0.3557  1.0760  0.7066
 5114TIP3   OH236900   3.403   1.633   0.527  0.2612  0.0200  0.6680
 5114TIP3    H136901   3.314   1.623   0.494  0.7398  0.7556 -0.9207
 5114TIP3    H236902   3.424   1.549   0.566 -1.0111 -0.2638  0.7785
 5115TIP3   OH236903   4.816   4.368   9.082  0.0980  0.5959 -0.2244
 5115TIP3    H136904   4.745   4.357   9.146 -0.5597  2.1522 -0.6447
 5115TIP3    H236905   4.812   4.288   9.028 -0.1234 -0.1752  0.9025
 5116TIP3   OH236906   1.658   0.169   9.000  0.7545 -0.5064  0.4041
 5116TIP3    H136907   1.579   0.124   8.968  2.1173 -3.0709  0.3807
 5116TIP3    H236908   1.633   0.200   9.087 -1.2925  1.8064 -0.8952
 5117TIP3   OH236909   5.703   0.569   8.092  0.1741  0.0350 -0.4705
 5117TIP3    H136910   5.789   0.565   8.050  2.1016 -0.2210  3.0847
 5117TIP3    H236911   5.699   0.490   8.146 -1.5203  0.9141  0.8036
 5118TIP3   OH236912   4.250   2.218   2.810  0.7817  0.0798 -0.0962
 5118TIP3    H136913   4.198   2.295   2.835  0.3521  0.0795 -0.9881
 5118TIP3    H236914   4.194   2.143   2.829  1.1166 -0.0203  0.5589
 5119TIP3   OH236915   0.953   1.350   1.859 -0.8648  0.0018  0.4694
 5119TIP3    H136916   0.867   1.360   1.819  0.1777  0.4492 -1.8664
 5119TIP3    H236917   1.000   1.430   1.835  0.4905 -0.6295  0.9089
 5120TIP3   OH236918   0.861   2.577   0.459  1.1818  0.4435  0.1266
 5120TIP3    H136919   0.799   2.518   0.416 -1.0048  2.9696 -0.4750
 5120TIP3    H236920   0.907   2.522   0.523 -0.0816 -2.0341 -0.9898
 5121TIP3   OH236921   3.164   1.407   8.269  0.0595 -0.3266  0.3089
 5121TIP3    H136922   3.096   1.344   8.292  2.4115 -3.9604 -1.6428
 5121TIP3    H236923   3.228   1.400   8.340  0.9529 -1.2782 -0.5461
 5122TIP3   OH236924   4.854   3.163   1.965  0.6197  0.4052 -0.2726
 5122TIP3    H136925   4.943   3.173   1.932  0.3374  1.1513 -0.8227
 5122TIP3    H236926   4.840   3.239   2.022  0.5002  0.0318  0.2072
 5123TIP3   OH236927   0.677   3.596   0.617 -0.2561  0.0522  0.2073
 5123TIP3    H136928   0.713   3.684   0.615 -1.5314  0.5796 -0.3762
 5123TIP3    H236929   0.643   3.586   0.706 -1.2346  0.6357 -0.0875
 5124TIP3   OH236930   1.985   3.879   8.492  0.3205  0.0904 -0.2253
 5124TIP3    H136931   1.922   3.839   8.432 -0.6304  1.0105  0.1428
 5124TIP3    H236932   2.061   3.820   8.489 -0.7143 -1.2927 -0.3083
 5125TIP3   OH236933   2.918   1.937   1.716  0.1819 -0.4676 -0.3412
 5125TIP3    H136934   2.926   1.912   1.624 -2.2618 -2.0794 -0.2084
 5125TIP3    H236935   2.938   1.857   1.764  2.5537  0.6275  0.6749
 5126TIP3   OH236936   4.364   1.183   7.629 -0.0781  0.0782 -0.4326
 5126TIP3    H136937   4.277   1.178   7.591  0.0120  0.2156 -0.6622
 5126TIP3    H236938   4.423   1.169   7.554  0.1460  1.9806 -0.6506
 5127TIP3   OH236939   1.893   6.208   2.330  0.6496  0.2849 -0.0874
 5127TIP3    H136940   1.836   6.190   2.404 -1.8771 -1.8261 -2.3498
 5127TIP3    H236941   1.979   6.176   2.357 -0.4553 -1.5070  1.5409
 5128TIP3   OH236942   3.058   6.590   0.471  0.0366 -0.3833 -0.0096
 5128TIP3    H136943   3.092   6.535   0.542  2.5086  0.6365 -0.2934
 5128TIP3    H236944   3.136   6.614   0.421 -1.3200  1.1473 -1.4725
 5129TIP3   OH236945   5.230   4.880   2.324  0.1643  0.0225 -0.0769
 5129TIP3    H136946   5.249   4.967   2.288  0.9864 -0.3886 -0.6599
 5129TIP3    H236947   5.205   4.897   2.415  1.1177  0.8060  0.0643
 5130TIP3   OH236948   2.750   3.539   1.882 -0.5948 -0.2998 -0.5201
 5130TIP3    H136949   2.763   3.597   1.957  0.3846 -0.4402 -0.5669
 5130TIP3    H236950   2.684   3.475   1.911  0.6066 -1.0568  0.6404
 5131TIP3   OH236951   2.263   2.607   1.909 -0.0060  0.1382 -0.1989
 5131TIP3    H136952   2.193   2.562   1.956  1.9476 -1.1347  1.6740
 5131TIP3    H236953   2.272   2.557   1.827  0.0263 -0.9352  0.4440
 5132TIP3   OH236954   4.267   2.918   8.008 -0.0043  0.4026  0.0380
 5132TIP3    H136955   4.182   2.874   7.997 -0.1144  0.6572 -0.1585
 5132TIP3    H236956   4.247   2.995   8.063 -0.1043  1.0359 -0.8553
 5133TIP3   OH236957   5.466   4.787   1.310  0.2402  0.6566  0.5126
 5133TIP3    H136958   5.373   4.791   1.331  0.1249  0.6682 -0.0077
 5133TIP3    H236959   5.478   4.850   1.240  0.1127 -1.2816 -1.3386
 5134TIP3   OH236960   6.338   2.676   8.083 -0.3664  0.2700  0.4942
 5134TIP3    H136961   6.401   2.739   8.116  0.1932  0.6688 -1.2393
 5134TIP3    H236962   6.253   2.720   8.089 -0.0449  0.9995 -0.2102
 5135TIP3   OH236963   3.843   0.907   0.185 -0.1628 -0.3133  0.1781
 5135TIP3    H136964   3.766   0.908   0.129 -2.9848  0.7972  3.7013
 5135TIP3    H236965   3.851   0.815   0.213 -0.5398 -0.3416  0.1958
 5136TIP3   OH236966   2.351   5.734   2.402 -0.1262  0.2368  0.2174
 5136TIP3    H136967   2.343   5.813   2.455 -1.4409  0.6611 -0.5635
 5136TIP3    H236968   2.327   5.663   2.460 -0.6112  0.5977  0.4632
 5137TIP3   OH236969   6.142   5.057   1.374 -0.2303 -0.3055  0.2793
 5137TIP3    H136970   6.052   5.024   1.370 -0.0544 -0.6853 -1.4257
 5137TIP3    H236971   6.196   4.983   1.348  0.5925 -0.0830  1.3182
 5138TIP3   OH236972   1.175   3.035   7.880  0.1229  0.1297  0.3663
 5138TIP3    H136973   1.238   3.099   7.912 -0.1977  0.1162  1.0456
 5138TIP3    H236974   1.219   2.951   7.888  0.5499  0.2566 -0.5401
 5139TIP3   OH236975   2.260   2.134   7.477  0.2722 -0.0337 -0.5039
 5139TIP3    H136976   2.190   2.103   7.420 -0.2298 -1.6667  0.9165
 5139TIP3    H236977   2.216   2.188   7.542 -0.0088 -2.2535  1.2855
 5140TIP3   OH236978   0.171   0.574   8.622 -0.0538  0.0533 -0.0075
 5140TIP3    H136979   0.226   0.652   8.608  1.2999 -0.7728  0.4485
 5140TIP3    H236980   0.082   0.608   8.629  0.5255  1.5775  0.3845
 5141TIP3   OH236981   0.292   4.590   8.726 -0.1105  0.4107  0.1624
 5141TIP3    H136982   0.249   4.539   8.657  0.0875  0.3395  0.0928
 5141TIP3    H236983   0.370   4.627   8.685 -0.4683  1.1088  0.1010
 5142TIP3   OH236984   1.027   6.263   1.856  0.5548  0.1364 -0.3691
 5142TIP3    H136985   0.942   6.294   1.887  0.7941  0.1049  0.3440
 5142TIP3    H236986   1.007   6.184   1.806  0.1723  0.0574 -0.0984
 5143TIP3   OH236987   4.472   2.213   8.592  0.1632 -0.7201 -0.4114
 5143TIP3    H136988   4.416   2.138   8.614 -3.2637  2.0237  1.2379
 5143TIP3    H236989   4.448   2.234   8.502  1.1010 -1.5119 -0.8629
 5144TIP3   OH236990   5.758   1.096   7.976 -0.4685 -0.0073  0.4539
 5144TIP3    H136991   5.807   1.135   7.903 -2.5875  1.2154 -0.4046
 5144TIP3    H236992   5.727   1.012   7.942  2.0926 -1.4939  1.4942
 5145TIP3   OH236993   6.311   2.402   7.770 -0.3159  0.4970  0.0047
 5145TIP3    H136994   6.339   2.484   7.731  0.1881  0.7903  0.9515
 5145TIP3    H236995   6.264   2.428   7.850  0.9154 -0.1543  0.9751
 5146TIP3   OH236996   2.138   0.474   8.758  0.1918 -0.1635  0.6099
 5146TIP3    H136997   2.200   0.406   8.783 -0.5637 -0.1579  2.7050
 5146TIP3    H236998   2.161   0.549   8.813  0.4899  1.0333 -1.0687
 5147TIP3   OH236999   2.362   0.054   0.104  0.4314  0.0475 -0.2765
 5147TIP3    H137000   2.421   0.122   0.138  0.4608  0.3618 -0.9449
 5147TIP3    H237001   2.382  -0.023   0.158  1.3262  0.2019 -0.3643
 5148TIP3   OH237002   5.476   4.762   2.525 -1.2129  0.1019 -0.1932
 5148TIP3    H137003   5.535   4.715   2.584 -2.1227 -0.7058  0.0973
 5148TIP3    H237004   5.413   4.804   2.583 -2.4213 -1.1189 -0.5742
 5149TIP3   OH237005   2.253   5.618   8.645 -0.6610 -0.3825 -0.2170
 5149TIP3    H137006   2.285   5.687   8.586 -1.1641  0.2838  0.2760
 5149TIP3    H237007   2.188   5.571   8.593 -0.3616 -0.4571 -0.5332
 5150TIP3   OH237008   0.502   5.501   8.788  0.2591  0.0574 -0.5635
 5150TIP3    H137009   0.498   5.596   8.791  1.2577  0.1764 -2.1508
 5150TIP3    H237010   0.459   5.473   8.869 -1.5968  1.8005 -0.8640
 5151TIP3   OH237011   0.784   4.822   8.126 -0.0720 -0.2105  0.0603
 5151TIP3    H137012   0.861   4.769   8.104  0.9012  0.7610  0.9861
 5151TIP3    H237013   0.730   4.764   8.179  0.5428 -0.5783  0.3018
 5152TIP3   OH237014   1.505   2.423   0.041  0.1558 -0.2445 -0.6651
 5152TIP3    H137015   1.417   2.459   0.036  0.7506  1.1936 -1.7712
 5152TIP3    H237016   1.537   2.446   0.128 -0.2104  0.1171 -0.6269
 5153TIP3   OH237017   6.133   1.040   0.723  0.7345 -0.6884 -0.3820
 5153TIP3    H137018   6.142   0.977   0.795 -0.8019  1.1040  1.5004
 5153TIP3    H237019   6.139   1.126   0.765 -0.2099  0.4392 -2.4009
 5154TIP3   OH237020   5.671   3.023   8.970  0.5425 -0.0281 -1.1418
 5154TIP3    H137021   5.659   3.110   9.008 -1.8558 -0.4820 -0.7085
 5154TIP3    H237022   5.746   3.033   8.910  0.7640  2.1316 -0.5880
 5155TIP3   OH237023   1.226   3.166   7.606 -0.5766  0.1653 -0.4056
 5155TIP3    H137024   1.307   3.158   7.555  0.0596  0.4123  0.5377
 5155TIP3    H237025   1.212   3.079   7.643  1.1887  0.8762  2.2211
 5156TIP3   OH237026   4.167   4.056   8.147 -0.3350 -0.0291  0.1204
 5156TIP3    H137027   4.244   4.078   8.095  0.2334 -1.3486  0.3511
 5156TIP3    H237028   4.180   3.964   8.169 -1.2478  0.1354  1.4187
 5157TIP3   OH237029   1.861   1.442   2.178  0.4398 -0.0805  0.1944
 5157TIP3    H137030   1.849   1.466   2.269  0.2010 -2.2367  0.7792
 5157TIP3    H237031   1.785   1.387   2.156  1.1954 -0.7605 -0.8520
 5158TIP3   OH237032   4.913   5.951   2.968 -0.0553  0.1165 -0.1065
 5158TIP3    H137033   4.901   5.872   3.021 -1.1556  0.2193 -0.1797
 5158TIP3    H237034   4.977   6.002   3.016  1.0367 -1.0186 -0.2931
 5159TIP3   OH237035   0.650   2.642   0.650  0.2281 -0.0153 -0.0093
 5159TIP3    H137036   0.602   2.710   0.603 -0.6040 -1.5749 -1.5653
 5159TIP3    H237037   0.724   2.621   0.594  1.3488  0.6274  1.1856
 5160TIP3   OH237038   1.275   2.103   2.943 -0.4414 -0.4954 -0.4922
 5160TIP3    H137039   1.213   2.051   2.993 -0.7397  0.4907  0.1962
 5160TIP3    H237040   1.245   2.194   2.955  1.0813 -0.0064 -0.1942
 5161TIP3   OH237041   0.924   6.003   1.204 -0.3410  0.2021 -0.2130
 5161TIP3    H137042   0.918   5.980   1.297  0.8161  1.6460  0.2581
 5161TIP3    H237043   1.018   6.007   1.186 -0.3881  3.5237 -0.4254
 5162TIP3   OH237044   1.627   2.683   1.375  0.7650  0.4881  0.0455
 5162TIP3    H137045   1.616   2.773   1.344  0.5790 -0.1191 -1.7734
 5162TIP3    H237046   1.538   2.648   1.377  0.7697  0.5264  1.3800
 5163TIP3   OH237047   3.183   3.657   0.746 -0.2326  0.7232  0.1047
 5163TIP3    H137048   3.132   3.681   0.824  0.5355  0.2371  0.7729
 5163TIP3    H237049   3.138   3.580   0.711 -0.2356  0.5772  0.4233
 5164TIP3   OH237050   6.409   4.825   7.366  0.3693 -0.1862  0.0576
 5164TIP3    H137051   6.388   4.870   7.448  2.8742 -0.3648  0.9008
 5164TIP3    H237052   6.504   4.835   7.358  0.4132 -1.6600 -1.9562
 5165TIP3   OH237053   4.696   6.646   0.148  0.1540 -0.0985  0.2086
 5165TIP3    H137054   4.760   6.631   0.079  0.4350 -0.5792  0.5654
 5165TIP3    H237055   4.654   6.729   0.125 -0.2930 -0.6280 -0.9368
 5166TIP3   OH237056   1.661   0.060   1.240  0.3952 -0.5257 -0.5693
 5166TIP3    H137057   1.731   0.089   1.298 -0.9830  0.9221  0.4382
 5166TIP3    H237058   1.683   0.098   1.155  0.6472  0.2020 -0.1837
 5167TIP3   OH237059   4.403   6.461   2.672  0.3212 -0.2169  0.5337
 5167TIP3    H137060   4.423   6.395   2.738  0.3958 -0.7045  0.0288
 5167TIP3    H237061   4.488   6.497   2.646  0.2576  0.3070  1.0368
 5168TIP3   OH237062   1.577   3.207   1.507  0.4068  0.3446  0.2119
 5168TIP3    H137063   1.587   3.253   1.423 -0.6434 -0.3482 -0.3217
 5168TIP3    H237064   1.540   3.273   1.566  1.8718  1.0606  0.3843
 5169TIP3   OH237065   1.302   6.432   8.711  0.1786  0.0837 -0.4143
 5169TIP3    H137066   1.380   6.395   8.670  0.9301  0.8830  0.2510
 5169TIP3    H237067   1.314   6.414   8.805  0.1303  1.1861 -0.1779
 5170TIP3   OH237068   0.650   5.885   1.355  0.1838  0.1030 -0.2801
 5170TIP3    H137069   0.700   5.820   1.305 -0.9792 -0.5941 -0.5644
 5170TIP3    H237070   0.559   5.856   1.350 -0.6548  2.6595 -1.8150
 5171TIP3   OH237071   4.145   6.619   1.862 -0.0792 -0.4637 -0.4401
 5171TIP3    H137072   4.193   6.639   1.781 -0.1778 -0.5066 -0.5099
 5171TIP3    H237073   4.175   6.685   1.925  1.9400 -1.9551  0.2716
 5172TIP3   OH237074   3.346   4.197   0.548 -0.2755 -0.5523  0.0402
 5172TIP3    H137075   3.427   4.244   0.530 -0.8770  0.3395 -0.4234
 5172TIP3    H237076   3.303   4.247   0.617 -0.5505 -0.8654  0.1008
 5173TIP3   OH237077   3.164   2.140   0.703  0.5998  0.2797  0.1443
 5173TIP3    H137078   3.162   2.054   0.662  0.0676 -1.1791  2.9983
 5173TIP3    H237079   3.249   2.177   0.678  1.1376 -1.3601 -0.5572
 5174TIP3   OH237080   0.439   2.995   1.355  0.1340  0.1600 -0.5277
 5174TIP3    H137081   0.423   2.901   1.351  0.2592  0.0714  0.6084
 5174TIP3    H237082   0.461   3.020   1.265 -1.0323 -0.6768 -1.0675
 5175TIP3   OH237083   3.580   1.548   7.546  1.1803 -0.2525 -0.1155
 5175TIP3    H137084   3.635   1.600   7.486 -0.1292  0.8937 -0.3665
 5175TIP3    H237085   3.576   1.461   7.505  2.9215 -0.4337  0.0056
 5176TIP3   OH237086   1.459   5.462   9.041  0.4586 -0.2689 -0.2542
 5176TIP3    H137087   1.383   5.473   8.983  1.2048  0.5213 -1.1041
 5176TIP3    H237088   1.455   5.371   9.069  0.0917 -0.6735 -1.5784
 5177TIP3   OH237089   3.340   2.725   7.732  0.3098  0.3209  0.3614
 5177TIP3    H137090   3.391   2.771   7.665 -1.8971 -0.5454 -2.0657
 5177TIP3    H237091   3.290   2.659   7.684 -2.5436  0.6028  2.6283
 5178TIP3   OH237092   5.845   5.014   8.108 -0.1486 -0.0619  0.4112
 5178TIP3    H137093   5.844   5.109   8.099 -0.8141  0.0692  1.6072
 5178TIP3    H237094   5.755   4.991   8.130 -0.2580 -1.1173 -0.9895
 5179TIP3   OH237095   4.385   2.769   7.147 -0.3935  0.3117 -0.2873
 5179TIP3    H137096   4.479   2.758   7.131 -0.3036 -2.2275  1.3958
 5179TIP3    H237097   4.344   2.763   7.061  0.9225  0.7274 -0.9638
 5180TIP3   OH237098   2.806   0.588   7.198 -0.0027  0.0309 -0.1706
 5180TIP3    H137099   2.723   0.554   7.230 -0.4383  0.2818 -1.0170
 5180TIP3    H237100   2.822   0.666   7.252  0.4822 -0.8852  1.0625
 5181TIP3   OH237101   5.179   3.577   2.105  0.3376 -0.1393 -0.3787
 5181TIP3    H137102   5.198   3.497   2.153 -0.2173  0.3160  0.6471
 5181TIP3    H237103   5.154   3.640   2.173  0.2074  0.7339 -1.2125
 5182TIP3   OH237104   4.611   3.719   7.066  0.4712  0.2567  0.1464
 5182TIP3    H137105   4.622   3.630   7.033 -0.2431 -0.4173  1.6195
 5182TIP3    H237106   4.699   3.750   7.084  0.8025  0.2770 -1.3864
 5183TIP3   OH237107   2.094   6.389   8.675 -0.1002 -0.1150  0.6560
 5183TIP3    H137108   2.031   6.318   8.688  0.4071 -0.5209  0.9148
 5183TIP3    H237109   2.134   6.403   8.761  1.0723 -0.7349  0.2388
 5184TIP3   OH237110   5.312   6.512   1.244 -0.0243 -0.2899 -0.3334
 5184TIP3    H137111   5.244   6.525   1.178 -1.9109 -0.1674  1.5470
 5184TIP3    H237112   5.340   6.421   1.233  0.3423 -0.0241 -1.8331
 5185TIP3   OH237113   3.018   4.545   1.455  0.4863  0.0104 -0.4399
 5185TIP3    H137114   3.066   4.462   1.459 -1.3856 -1.0989  0.2889
 5185TIP3    H237115   2.939   4.530   1.507 -0.2374  2.0455 -0.8459
 5186TIP3   OH237116   2.526   4.442   1.733  0.0763  0.8879  0.6288
 5186TIP3    H137117   2.585   4.425   1.806  1.0172  0.5911 -0.1866
 5186TIP3    H237118   2.480   4.359   1.719 -1.5158  1.4639  2.0849
 5187TIP3   OH237119   5.155   4.943   2.581  0.4682  0.2466 -0.1931
 5187TIP3    H137120   5.063   4.931   2.605 -0.2347 -1.1136 -3.1779
 5187TIP3    H237121   5.203   4.898   2.651 -1.3102 -1.9960 -0.2862
 5188TIP3   OH237122   4.011   1.016   0.682  0.1330  0.1673  0.0070
 5188TIP3    H137123   3.930   0.984   0.721 -1.5196  2.7043 -1.0749
 5188TIP3    H237124   4.011   0.981   0.593  1.0209 -1.0217  0.4523
 5189TIP3   OH237125   1.254   6.445   8.981  0.1516 -0.2677 -0.5508
 5189TIP3    H137126   1.269   6.429   9.074  2.2250  0.6404 -0.6843
 5189TIP3    H237127   1.208   6.528   8.977 -1.5274 -1.1404 -0.3067
 5190TIP3   OH237128   3.410   5.733   8.880  0.0539 -0.4666 -0.1708
 5190TIP3    H137129   3.356   5.657   8.902 -0.5514  0.4369  1.7078
 5190TIP3    H237130   3.499   5.706   8.902 -0.1058 -0.7917  0.1060
 5191TIP3   OH237131   5.404   1.437   0.710 -0.0665  0.1261 -0.0183
 5191TIP3    H137132   5.473   1.434   0.775 -0.2450  0.4481  0.1846
 5191TIP3    H237133   5.323   1.442   0.760 -0.1530  1.5449 -0.2612
 5192TIP3   OH237134   1.587   2.668   8.282  0.0724 -0.4875 -0.4698
 5192TIP3    H137135   1.613   2.603   8.217 -2.4529 -0.3823 -1.7149
 5192TIP3    H237136   1.535   2.618   8.345  0.9649 -0.2386  0.4931
 5193TIP3   OH237137   4.776   0.402   7.921  0.2623  0.5895 -0.0904
 5193TIP3    H137138   4.773   0.333   7.987  2.4151 -0.5998 -1.1463
 5193TIP3    H237139   4.763   0.356   7.838  1.8591  1.4032 -0.8288
 5194TIP3   OH237140   2.389   2.959   9.057  0.6183 -0.0026  0.4258
 5194TIP3    H137141   2.374   2.956   8.962 -1.1347 -0.7433  0.6919
 5194TIP3    H237142   2.353   3.043   9.084  1.0550  0.1768  0.4688
 5195TIP3   OH237143   6.252   1.181   1.817  0.4079 -0.5723 -0.1413
 5195TIP3    H137144   6.281   1.271   1.798  0.7992 -0.4812  0.8052
 5195TIP3    H237145   6.333   1.132   1.829  0.2119 -1.2508 -1.4242
 5196TIP3   OH237146   5.441   5.178   1.158  0.0568  0.3920 -0.0137
 5196TIP3    H137147   5.425   5.087   1.136 -2.8469  0.8930 -0.3932
 5196TIP3    H237148   5.536   5.187   1.155  0.6981 -3.2055  2.5586
 5197TIP3   OH237149   1.369   6.519   1.671  0.3219  0.0117  0.2353
 5197TIP3    H137150   1.288   6.545   1.627 -0.0318  0.8111  1.3124
 5197TIP3    H237151   1.370   6.571   1.751  1.5787 -0.4816  0.5565
 5198TIP3   OH237152   1.162   1.143   0.771 -0.2887 -0.1085 -0.2821
 5198TIP3    H137153   1.102   1.081   0.729 -0.7646 -0.4132  0.8091
 5198TIP3    H237154   1.119   1.228   0.762 -0.5721 -0.2303 -0.0934
 5199TIP3   OH237155   5.145   1.434   8.972 -0.3782  0.2901 -0.1168
 5199TIP3    H137156   5.058   1.457   9.006 -0.0558 -1.0099  1.7521
 5199TIP3    H237157   5.143   1.339   8.965  0.9097  0.2407  0.0172
 5200TIP3   OH237158   5.435   0.812   9.276 -0.4426  0.5320 -0.2320
 5200TIP3    H137159   5.497   0.822   9.203 -0.9391  0.0972 -0.7298
 5200TIP3    H237160   5.349   0.814   9.234 -0.7132 -0.5458  0.2248
 5201TIP3   OH237161   3.111   6.035   1.701 -0.0255  0.0006 -0.5733
 5201TIP3    H137162   3.104   6.106   1.765  1.2070  0.6851 -1.1651
 5201TIP3    H237163   3.077   5.958   1.747 -1.3056  0.9352  0.1043
 5202TIP3   OH237164   2.385   6.137   9.222 -0.7612  0.7263 -0.1173
 5202TIP3    H137165   2.315   6.073   9.208  0.2836  0.0625 -3.2738
 5202TIP3    H237166   2.449   6.091   9.277 -2.0136  0.7845  1.4608
 5203TIP3   OH237167   6.492   4.752   2.602  0.1688 -0.2477 -0.0603
 5203TIP3    H137168   6.415   4.805   2.622 -0.2408 -0.6425 -0.5755
 5203TIP3    H237169   6.506   4.700   2.682  0.2073  0.1824  0.2173
 5204TIP3   OH237170   1.340   1.638   2.464  0.3755 -0.0341 -0.1422
 5204TIP3    H137171   1.307   1.709   2.520  2.2306  0.8251 -0.0647
 5204TIP3    H237172   1.287   1.643   2.385  1.9212  3.0335 -1.1384
 5205TIP3   OH237173   1.217   6.596   2.759 -0.4288 -0.3895  0.8966
 5205TIP3    H137174   1.148   6.604   2.825  0.3188 -2.3419  2.0176
 5205TIP3    H237175   1.251   6.507   2.772  0.9750 -0.1637 -0.9319
 5206TIP3   OH237176   4.701   3.622   8.477 -0.0895 -0.0016  0.9345
 5206TIP3    H137177   4.611   3.598   8.456 -0.0370  0.3871  0.2412
 5206TIP3    H237178   4.744   3.628   8.392  1.0354 -1.8888  1.3201
 5207TIP3   OH237179   1.084   0.127   0.319  0.5175  1.1124 -0.2794
 5207TIP3    H137180   1.038   0.101   0.399  0.8712 -2.3632 -1.0837
 5207TIP3    H237181   1.014   0.148   0.257  0.1498  0.5565 -0.0604
 5208TIP3   OH237182   6.169   2.212   0.662 -0.3884  0.7636  0.2761
 5208TIP3    H137183   6.227   2.171   0.597 -1.2168  0.3468 -0.2199
 5208TIP3    H237184   6.175   2.306   0.642 -1.9582  0.5307 -1.5883
 5209TIP3   OH237185   0.116   1.050   3.199 -0.6524  0.2542 -0.1363
 5209TIP3    H137186   0.067   0.970   3.183  1.2231 -0.7174 -1.4500
 5209TIP3    H237187   0.095   1.107   3.126 -0.9315  0.4140  0.0683
 5210TIP3   OH237188   5.812   4.137   0.519  0.4330 -0.4959  0.2463
 5210TIP3    H137189   5.804   4.194   0.596  1.0689  0.7927 -0.6175
 5210TIP3    H237190   5.749   4.067   0.535 -0.1250  0.2577  1.4993
 5211TIP3   OH237191   3.961   5.310   1.281  0.4069  0.3439  0.0511
 5211TIP3    H137192   3.894   5.248   1.256 -0.2643  0.4413  1.4752
 5211TIP3    H237193   4.028   5.257   1.325  2.0250  0.0332 -2.5666
 5212TIP3   OH237194   0.755   2.935   8.683  0.0644  0.8937 -0.4759
 5212TIP3    H137195   0.808   2.856   8.671 -1.5075 -0.6934  2.0317
 5212TIP3    H237196   0.689   2.932   8.614 -1.4347 -1.3877  0.9269
 5213TIP3   OH237197   1.390   0.053   8.117 -0.5147  0.0964 -0.2563
 5213TIP3    H137198   1.322   0.104   8.160 -0.6943  0.6950 -1.2236
 5213TIP3    H237199   1.400   0.094   8.031  1.0630  0.0226 -0.1343
 5214TIP3   OH237200   1.491   3.294   1.921 -0.2985 -0.0604  0.3193
 5214TIP3    H137201   1.489   3.338   2.006  1.7078  0.0413  0.3640
 5214TIP3    H237202   1.462   3.360   1.858 -0.7974  0.1789  0.7980
 5215TIP3   OH237203   5.369   1.388   2.279  0.0119 -0.7357  0.4943
 5215TIP3    H137204   5.303   1.407   2.345 -1.3892  0.0693 -1.0659
 5215TIP3    H237205   5.428   1.463   2.280  0.1026 -0.8135  0.9430
 5216TIP3   OH237206   6.347   0.758   9.218 -0.0953  0.2898  0.4127
 5216TIP3    H137207   6.403   0.758   9.296 -0.2710  0.4250  0.5405
 5216TIP3    H237208   6.361   0.845   9.179 -0.0742  0.2543  0.3409
 5217TIP3   OH237209   1.005   1.970   1.022  0.2610  0.2147 -0.1330
 5217TIP3    H137210   0.931   1.971   1.082  0.2038  0.0230 -0.2020
 5217TIP3    H237211   1.062   2.041   1.054  0.2551  0.0843  0.1754
 5218TIP3   OH237212   3.942   3.252   0.418  0.6756  0.0873 -0.0706
 5218TIP3    H137213   4.003   3.215   0.482 -0.6252 -0.1609  1.0879
 5218TIP3    H237214   3.861   3.202   0.431 -0.4433  1.8225 -0.0574
 5219TIP3   OH237215   1.313   0.770   2.937 -0.2495  0.0784 -0.0723
 5219TIP3    H137216   1.360   0.711   2.996  0.1640  0.2104 -0.2731
 5219TIP3    H237217   1.229   0.725   2.922  0.3804 -0.8654 -0.8786
 5220TIP3   OH237218   6.585   0.698   0.643 -0.1315 -0.9123 -0.2998
 5220TIP3    H137219   6.542   0.774   0.683 -1.2456 -2.2494  1.1886
 5220TIP3    H237220   6.650   0.671   0.708  0.6703 -0.8776 -1.0853
 5221TIP3   OH237221   3.881   1.681   2.267 -0.0143  0.1147  0.4650
 5221TIP3    H137222   3.839   1.718   2.189 -1.0849 -1.4856  0.2425
 5221TIP3    H237223   3.836   1.723   2.340 -0.5233  0.0249  0.2127
 5222TIP3   OH237224   4.193   4.651   2.234 -0.1813  0.3297 -0.4782
 5222TIP3    H137225   4.272   4.647   2.288 -0.3031  0.3696 -0.2952
 5222TIP3    H237226   4.210   4.592   2.161  0.6608  1.5315 -1.2968
 5223TIP3   OH237227   3.197   5.991   8.758  0.3908  0.5126  0.0394
 5223TIP3    H137228   3.119   5.943   8.731  0.0160  1.6787 -1.0835
 5223TIP3    H237229   3.268   5.927   8.751 -0.3087 -0.2895  0.1091
 5224TIP3   OH237230   0.951   0.935   1.579 -0.0223  0.4260  0.4521
 5224TIP3    H137231   0.994   1.016   1.606 -1.1812  0.8925  0.9628
 5224TIP3    H237232   0.972   0.872   1.649  0.6935  0.3366  0.1646
 5225TIP3   OH237233   3.983   3.569   1.967 -0.5062 -0.3142 -0.1275
 5225TIP3    H137234   3.950   3.577   2.056  0.6781 -0.2021  0.3190
 5225TIP3    H237235   3.988   3.475   1.951 -1.8927 -0.3398 -0.5494
 5226TIP3   OH237236   6.545   3.557   0.559 -0.1762  0.3575  0.4353
 5226TIP3    H137237   6.522   3.645   0.591 -2.3544  0.1635 -0.3647
 5226TIP3    H237238   6.535   3.500   0.635 -0.8175  0.5422  0.5002
 5227TIP3   OH237239   5.984   1.732   2.070  0.6277 -0.3617 -0.5689
 5227TIP3    H137240   5.966   1.799   2.004  0.0874  1.2315  1.1010
 5227TIP3    H237241   6.078   1.716   2.063  0.6044 -0.1018 -1.6103
 5228TIP3   OH237242   5.446   4.003   7.432 -0.1934 -0.7770  0.0566
 5228TIP3    H137243   5.426   4.078   7.488  0.9013 -0.9264  0.6677
 5228TIP3    H237244   5.473   4.041   7.348 -0.0326 -0.4968  0.2350
 5229TIP3   OH237245   4.216   5.363   8.631  0.2747 -0.3278 -0.0666
 5229TIP3    H137246   4.263   5.395   8.708  0.9112  2.2468 -1.4222
 5229TIP3    H237247   4.191   5.273   8.655  0.7583  0.2137  2.9623
 5230TIP3   OH237248   1.673   1.363   0.108 -0.2191 -0.3686  0.6570
 5230TIP3    H137249   1.598   1.305   0.092  0.4669 -1.6562  1.8124
 5230TIP3    H237250   1.690   1.353   0.202  2.0562 -0.9789  0.2263
 5231TIP3   OH237251   4.711   0.753   8.767  0.2057  0.2295 -0.3165
 5231TIP3    H137252   4.798   0.717   8.779 -0.0729 -0.6723 -0.8906
 5231TIP3    H237253   4.685   0.784   8.854  1.3057  1.0313 -0.2543
 5232TIP3   OH237254   4.396   6.621   1.712  0.4422  0.5527  0.4835
 5232TIP3    H137255   4.385   6.538   1.666 -0.6102  0.4283  0.9420
 5232TIP3    H237256   4.490   6.639   1.707  0.5183 -0.0536 -0.6654
 5233TIP3   OH237257   2.321   5.027   2.484 -0.2755 -0.1043  0.1693
 5233TIP3    H137258   2.234   5.058   2.458 -1.7879 -1.2744  3.2881
 5233TIP3    H237259   2.349   5.089   2.551  1.9507  0.9314 -1.5631
 5234TIP3   OH237260   2.078   2.057   8.496 -0.5227 -0.1083  0.8735
 5234TIP3    H137261   2.004   2.003   8.468  1.1804 -1.2686 -1.9118
 5234TIP3    H237262   2.069   2.138   8.446  0.7544 -0.8337 -0.6329
 5235TIP3   OH237263   6.048   0.409   9.296 -0.0677 -0.0838  0.1783
 5235TIP3    H137264   6.020   0.444   9.212  1.8524  0.1759 -0.4030
 5235TIP3    H237265   6.115   0.344   9.275  1.4842  0.9828  1.5143
 5236TIP3   OH237266   0.747   0.056   1.666  0.5043  0.7383  0.5977
 5236TIP3    H137267   0.748   0.151   1.680 -1.0138  0.9800 -0.6304
 5236TIP3    H237268   0.673   0.041   1.608  1.2210 -1.1230  0.0778
 5237TIP3   OH237269   3.763   2.753   0.294  0.3842 -0.3685  0.4349
 5237TIP3    H137270   3.740   2.737   0.386 -0.1200  0.4134  0.4536
 5237TIP3    H237271   3.762   2.849   0.285 -0.3123 -0.4560 -0.5678
 5238TIP3   OH237272   0.519   5.127   0.470  0.3463 -0.1602  0.2936
 5238TIP3    H137273   0.450   5.160   0.412  0.2038  0.7385  0.9602
 5238TIP3    H237274   0.533   5.197   0.534  1.4102 -0.6099  0.5738
 5239TIP3   OH237275   2.136   4.416   1.542 -0.1816  0.0839 -0.1215
 5239TIP3    H137276   2.121   4.334   1.590  0.5808  0.6537  1.1426
 5239TIP3    H237277   2.055   4.430   1.493 -0.3475 -1.3867 -0.3013
 5240TIP3   OH237278   2.615   5.875   7.563  0.1720  0.0209  0.0256
 5240TIP3    H137279   2.519   5.872   7.563  0.1865 -1.5002 -1.1240
 5240TIP3    H237280   2.642   5.800   7.615  0.7305 -0.5867 -1.1125
 5241TIP3   OH237281   5.525   2.748   0.256  0.2799 -0.0983 -0.1825
 5241TIP3    H137282   5.464   2.744   0.183 -0.2644  3.3867 -0.1010
 5241TIP3    H237283   5.610   2.764   0.216  0.5585 -1.4074 -0.1462
 5242TIP3   OH237284   3.970   4.292   8.328 -0.2481  0.2902  0.6529
 5242TIP3    H137285   3.969   4.334   8.242 -0.7324  1.4175  1.1847
 5242TIP3    H237286   4.023   4.213   8.316  0.7945  1.1129 -0.3636
 5243TIP3   OH237287   1.689   2.409   0.595 -0.4641 -0.1359 -0.0011
 5243TIP3    H137288   1.736   2.349   0.537  0.1725 -0.1632  0.5267
 5243TIP3    H237289   1.695   2.494   0.551 -0.8978 -0.3532 -0.4851
 5244TIP3   OH237290   3.638   4.151   8.117  0.0766  0.7268  0.0297
 5244TIP3    H137291   3.717   4.097   8.116 -0.6101 -0.4002  1.8805
 5244TIP3    H237292   3.623   4.174   8.025  1.0054 -1.3273 -0.6912
 5245TIP3   OH237293   0.633   1.827   0.942  0.2080 -0.8305  0.1639
 5245TIP3    H137294   0.672   1.866   1.021 -0.9164 -0.0389  0.3598
 5245TIP3    H237295   0.539   1.839   0.954  0.0424 -0.0997 -1.6007
 5246TIP3   OH237296   4.268   6.626   8.534 -0.2465 -0.6443 -0.1224
 5246TIP3    H137297   4.230   6.714   8.544  2.5632  0.6577  0.0294
 5246TIP3    H237298   4.290   6.619   8.442 -0.7426 -1.3522 -0.1967
 5247TIP3   OH237299   4.388   5.466   0.728 -0.2649  0.5661  0.1029
 5247TIP3    H137300   4.383   5.393   0.789  1.5321  0.3742  0.0733
 5247TIP3    H237301   4.339   5.536   0.770 -3.4795 -1.0885 -0.6098
 5248TIP3   OH237302   4.960   1.782   2.371  0.5665 -0.5338 -0.6193
 5248TIP3    H137303   5.030   1.844   2.392 -0.0496 -0.2499  0.6933
 5248TIP3    H237304   4.965   1.716   2.440 -2.5972  1.3378  1.7115
 5249TIP3   OH237305   3.178   0.142   2.997  0.0003  0.2377  0.0387
 5249TIP3    H137306   3.205   0.054   3.025 -0.0553 -0.0618 -0.8261
 5249TIP3    H237307   3.109   0.126   2.932 -0.8167  0.9507  0.7011
 5250TIP3   OH237308   1.070   4.960   2.802  0.2801  0.2805 -0.2231
 5250TIP3    H137309   1.114   5.031   2.848 -1.4910  1.4160 -0.1847
 5250TIP3    H237310   0.977   4.977   2.816 -0.2021 -1.8981 -0.4699
 5251TIP3   OH237311   5.437   4.591   0.219 -0.0733 -0.0034  0.4956
 5251TIP3    H137312   5.493   4.646   0.164  0.1781 -0.0859  0.6668
 5251TIP3    H237313   5.398   4.528   0.159  1.1732 -0.9010  0.5801
 5252TIP3   OH237314   0.462   0.057   8.067 -0.5459  0.3076  0.2275
 5252TIP3    H137315   0.406  -0.021   8.061 -1.8479  1.1151  1.2546
 5252TIP3    H237316   0.445   0.105   7.986  0.0840 -0.3422 -0.3017
 5253TIP3   OH237317   5.078   2.742   9.118  0.2519  0.1171 -0.0709
 5253TIP3    H137318   5.133   2.695   9.181  0.0618  0.8346  0.6460
 5253TIP3    H237319   5.119   2.725   9.033 -0.2289 -1.9342  0.0575
 5254TIP3   OH237320   6.533   5.872   8.115  0.3560 -0.4926 -0.1361
 5254TIP3    H137321   6.544   5.906   8.204 -0.1127  0.0796 -0.2886
 5254TIP3    H237322   6.484   5.791   8.126  1.0594 -0.8768  0.1944
 5255TIP3   OH237323   2.364   4.211   1.706 -0.1971 -0.1053 -0.1213
 5255TIP3    H137324   2.392   4.160   1.630  0.2135 -0.8204  0.4909
 5255TIP3    H237325   2.269   4.203   1.707 -0.1535 -0.7221 -0.1423
 5256TIP3   OH237326   5.018   4.625   0.588  0.4124  0.7309 -0.1705
 5256TIP3    H137327   4.947   4.587   0.640  2.2967 -2.0362  0.6049
 5256TIP3    H237328   5.051   4.697   0.642 -0.7344  0.9926  0.2110
 5257TIP3   OH237329   4.103   6.182   0.682  0.7877  0.4411  0.4188
 5257TIP3    H137330   4.165   6.146   0.619  1.0565 -0.4322  1.1542
 5257TIP3    H237331   4.024   6.128   0.672  1.0117 -0.0550  1.1621
 5258TIP3   OH237332   2.597   0.039   8.934 -0.4146 -0.0844 -0.9331
 5258TIP3    H137333   2.580  -0.052   8.958  0.5848 -0.7066 -2.4134
 5258TIP3    H237334   2.515   0.069   8.894 -0.8276 -0.2427 -0.2157
 5259TIP3   OH237335   4.289   4.995   9.246 -0.2007  0.1743  0.3818
 5259TIP3    H137336   4.307   4.928   9.312 -0.3236  1.0709  1.3450
 5259TIP3    H237337   4.204   5.032   9.272  0.2874  1.3171  0.3935
 5260TIP3   OH237338   4.580   5.623   9.172  0.3007  1.0235  0.6254
 5260TIP3    H137339   4.568   5.528   9.179 -0.9821  1.2268  1.7697
 5260TIP3    H237340   4.652   5.634   9.111 -0.1431 -0.6696 -0.2692
 5261TIP3   OH237341   4.198   6.348   8.429 -0.1960  0.4757 -0.3809
 5261TIP3    H137342   4.234   6.286   8.366  0.2221  2.9978 -2.8173
 5261TIP3    H237343   4.273   6.398   8.460 -0.6905  0.7407  0.4308
 5262TIP3   OH237344   3.828   1.774   3.398 -0.2096  0.0519 -0.5658
 5262TIP3    H137345   3.838   1.868   3.385 -1.0504  0.3807  0.9337
 5262TIP3    H237346   3.742   1.754   3.361 -0.0655 -0.1120 -0.8137
 5263TIP3   OH237347   0.860   6.366   9.142  0.3623  0.2698  0.4529
 5263TIP3    H137348   0.923   6.425   9.100  0.4932  0.2961  0.6886
 5263TIP3    H237349   0.904   6.336   9.221 -0.2656  0.9786  1.0861
 5264TIP3   OH237350   0.673   6.124   2.381  0.2831  0.1611 -0.3062
 5264TIP3    H137351   0.650   6.047   2.330 -0.0190  0.1892 -0.2137
 5264TIP3    H237352   0.622   6.116   2.462  2.8996 -1.4331  1.3675
 5265TIP3   OH237353   2.019   5.416   8.895  0.0517  0.0601 -0.1333
 5265TIP3    H137354   1.947   5.371   8.940 -0.4484 -0.1838 -1.1384
 5265TIP3    H237355   2.093   5.357   8.903 -0.3337 -0.5005 -0.5658
 5266TIP3   OH237356   5.267   0.867   8.888 -0.7828 -0.4713  0.0559
 5266TIP3    H137357   5.242   0.884   8.979 -0.8210  2.0993 -0.3663
 5266TIP3    H237358   5.185   0.876   8.839 -0.5193 -0.4504 -0.3843
 5267TIP3   OH237359   6.587   2.511   8.372 -0.2371 -0.1207  0.6088
 5267TIP3    H137360   6.586   2.466   8.456  0.0604 -1.2932 -0.0049
 5267TIP3    H237361   6.494   2.522   8.350 -0.3169  0.2770  1.1232
 5268TIP3   OH237362   4.618   5.645   2.633  0.2277 -0.0785 -0.2584
 5268TIP3    H137363   4.586   5.600   2.711  1.4863 -0.5848 -0.0077
 5268TIP3    H237364   4.691   5.698   2.665  1.4700 -1.1251 -1.2433
 5269TIP3   OH237365   5.477   6.185   1.741  0.3240 -0.1741 -0.3351
 5269TIP3    H137366   5.450   6.272   1.772  1.6028  0.3545 -0.6544
 5269TIP3    H237367   5.483   6.194   1.646 -0.5131 -0.9030 -0.4635
 5270TIP3   OH237368   2.708   3.975   0.206  0.1415  0.5858  0.1020
 5270TIP3    H137369   2.634   3.914   0.202 -0.5489  1.3832  0.6482
 5270TIP3    H237370   2.760   3.944   0.280  0.8975 -0.5531 -0.8568
 5271TIP3   OH237371   5.911   0.401   1.678  0.0179  0.2955 -0.3209
 5271TIP3    H137372   5.963   0.353   1.743  0.7653  0.7749 -0.5573
 5271TIP3    H237373   5.821   0.396   1.711  0.2771 -0.1221  0.3468
 5272TIP3   OH237374   2.022   4.345   0.246  0.3231 -0.1528 -0.1986
 5272TIP3    H137375   2.050   4.436   0.235  1.7697 -0.3978  1.1171
 5272TIP3    H237376   1.945   4.337   0.190  1.1023  1.4328 -1.5998
 5273TIP3   OH237377   5.793   2.509   8.122  0.1084 -0.6851  0.4770
 5273TIP3    H137378   5.723   2.464   8.075  1.0425 -0.5692 -1.0907
 5273TIP3    H237379   5.759   2.597   8.138 -0.9148 -1.2749  1.6839
 5274TIP3   OH237380   6.650   6.572   2.849 -0.2484  0.2620  0.5068
 5274TIP3    H137381   6.696   6.520   2.783  0.6577  1.0775  0.4729
 5274TIP3    H237382   6.714   6.638   2.877 -0.7148  0.1161  1.9960
 5275TIP3   OH237383   2.826   1.206   0.855 -0.3479 -0.4516 -0.3396
 5275TIP3    H137384   2.842   1.268   0.927  0.0452 -0.6398 -0.2616
 5275TIP3    H237385   2.856   1.253   0.777 -0.9550 -0.1716 -0.4138
 5276TIP3   OH237386   0.741   1.734   0.166  0.0266  0.0074  0.7354
 5276TIP3    H137387   0.769   1.808   0.220 -2.2491  0.5552  1.2439
 5276TIP3    H237388   0.663   1.699   0.211 -0.2968 -1.2696 -0.7254
 5277TIP3   OH237389   2.580   6.612   0.229 -0.5696 -0.2898  0.3532
 5277TIP3    H137390   2.601   6.663   0.307 -2.5370 -0.4474  1.0381
 5277TIP3    H237391   2.660   6.564   0.210  0.4442  0.9217  1.3344
 5278TIP3   OH237392   5.143   1.344   7.047 -0.0720  0.2554  0.5222
 5278TIP3    H137393   5.098   1.386   6.974 -1.0127 -1.4827  0.0402
 5278TIP3    H237394   5.218   1.301   7.008  1.3168  2.0111  1.1248
 5279TIP3   OH237395   0.271   4.014   1.388 -0.2328 -0.1647  0.3008
 5279TIP3    H137396   0.342   4.044   1.444  0.9985 -0.6545 -0.9247
 5279TIP3    H237397   0.210   3.971   1.447 -1.0292  2.8037  1.8243
 5280TIP3   OH237398   6.023   0.532   0.938 -0.3225  0.0010 -0.3501
 5280TIP3    H137399   6.111   0.535   0.975 -0.5985 -1.3902  0.4803
 5280TIP3    H237400   5.966   0.559   1.010 -0.6168  0.5248 -0.7709
 5281TIP3   OH237401   5.857   0.580   7.824  0.2537  0.3512 -0.0930
 5281TIP3    H137402   5.844   0.485   7.825 -1.3594  0.5422  0.8886
 5281TIP3    H237403   5.827   0.608   7.737  1.2984 -0.0740 -0.6107
 5282TIP3   OH237404   1.167   0.008   1.544  0.0084  0.0773 -0.2827
 5282TIP3    H137405   1.213   0.064   1.482  0.1108 -0.1478 -0.4129
 5282TIP3    H237406   1.081  -0.006   1.506  0.0890 -0.1028 -0.4009
 5283TIP3   OH237407   0.632   2.570   1.583  0.5421 -0.1635 -0.1284
 5283TIP3    H137408   0.652   2.531   1.668 -0.3012  0.3842  0.3461
 5283TIP3    H237409   0.572   2.643   1.604  0.9644  0.4876 -1.1138
 5284TIP3   OH237410   0.983   3.859   0.157 -0.0105 -0.4802  0.3821
 5284TIP3    H137411   0.958   3.947   0.128 -0.0267 -0.5482  0.1871
 5284TIP3    H237412   1.038   3.874   0.233  1.2412 -0.2361 -0.5418
 5285TIP3   OH237413   3.298   2.638   1.526 -0.3274  0.6193 -0.5559
 5285TIP3    H137414   3.280   2.572   1.459 -1.7481  0.9143 -0.4973
 5285TIP3    H237415   3.383   2.612   1.563 -0.8037 -1.1164 -0.5894
 5286TIP3   OH237416   5.496   4.555   1.102  0.6099 -0.6999  0.3931
 5286TIP3    H137417   5.412   4.550   1.146  0.1045  0.8615 -0.3229
 5286TIP3    H237418   5.561   4.552   1.173 -0.1946  4.0978  1.7070
 5287TIP3   OH237419   4.547   2.915   7.419  0.4644 -0.4548  0.1509
 5287TIP3    H137420   4.563   2.861   7.342 -1.4571 -0.6368 -0.1570
 5287TIP3    H237421   4.543   2.852   7.492  1.1469 -0.4016  0.2392
 5288TIP3   OH237422   4.705   4.753   8.128 -0.3186  0.3930  0.6340
 5288TIP3    H137423   4.729   4.805   8.051 -0.8137  1.6006  1.2658
 5288TIP3    H237424   4.614   4.728   8.113  0.4608 -1.9681 -0.5502
 5289TIP3   OH237425   1.900   5.328   1.261  0.1840 -0.8076  0.0113
 5289TIP3    H137426   1.890   5.392   1.191 -0.0495 -2.2617 -1.3275
 5289TIP3    H237427   1.995   5.326   1.278  0.1209  0.4400  0.6389
 5290TIP3   OH237428   0.550   4.919   2.979 -0.1476  0.0212  0.3609
 5290TIP3    H137429   0.512   4.882   3.059  1.7684 -0.7038  0.9783
 5290TIP3    H237430   0.626   4.864   2.960 -0.0453  0.7248 -1.4756
 5291TIP3   OH237431   5.670   0.697   0.436 -0.1606 -0.4122  0.1078
 5291TIP3    H137432   5.718   0.614   0.431 -0.5525 -0.6304 -0.0077
 5291TIP3    H237433   5.714   0.753   0.371  0.4714 -0.3337  0.5911
 5292TIP3   OH237434   2.571   1.494   8.232  0.3267 -0.1223  0.1445
 5292TIP3    H137435   2.646   1.438   8.250 -0.7187 -1.0777  1.6750
 5292TIP3    H237436   2.597   1.580   8.265  0.1449 -0.8354  2.2785
 5293TIP3   OH237437   6.500   3.268   0.381  0.2349  0.7013 -0.9718
 5293TIP3    H137438   6.577   3.256   0.326  0.8555  0.2546 -0.0144
 5293TIP3    H237439   6.446   3.191   0.363  1.8663 -1.1005  1.3236
 5294TIP3   OH237440   1.111   0.408   8.254  0.0544  0.2569  1.0408
 5294TIP3    H137441   1.095   0.327   8.205 -0.1672  1.3663 -0.8230
 5294TIP3    H237442   1.025   0.448   8.262 -0.1479 -0.5380  3.6413
 5295TIP3   OH237443   0.548   0.632   8.329 -0.2457 -0.0506 -0.1580
 5295TIP3    H137444   0.592   0.683   8.396  2.1625 -0.8916 -1.0069
 5295TIP3    H237445   0.546   0.543   8.364  0.7343 -0.4323 -1.0312
 5296TIP3   OH237446   5.810   4.340   1.840  0.1311 -0.0102 -0.7905
 5296TIP3    H137447   5.851   4.398   1.904 -2.1478  1.8830 -0.9095
 5296TIP3    H237448   5.797   4.258   1.887 -1.7385  1.4168  1.3834
 5297TIP3   OH237449   5.878   3.094   7.571  0.1039  0.2611  0.0564
 5297TIP3    H137450   5.967   3.074   7.541  0.9509  0.7244  2.1087
 5297TIP3    H237451   5.863   3.184   7.541  0.6337  0.4460  0.3257
 5298TIP3   OH237452   1.766   5.822   0.168 -0.7418  0.1616  0.3647
 5298TIP3    H137453   1.849   5.834   0.215 -0.3770  1.3573 -0.5312
 5298TIP3    H237454   1.702   5.802   0.236  0.0607  0.3451  1.1903
 5299TIP3   OH237455   2.087   1.561   1.162  0.3255 -0.2903 -0.9163
 5299TIP3    H137456   2.028   1.553   1.238  1.3323  0.8850  0.0255
 5299TIP3    H237457   2.058   1.640   1.117 -0.1153 -0.8538 -1.6372
 5300TIP3   OH237458   6.477   3.272   2.446  0.1593  0.3031  0.0529
 5300TIP3    H137459   6.497   3.329   2.372  1.3188 -1.5109 -1.1018
 5300TIP3    H237460   6.562   3.248   2.482 -0.3047 -0.5911  0.5811
 5301TIP3   OH237461   0.476   3.462   7.580 -0.1220 -0.2194 -0.4570
 5301TIP3    H137462   0.476   3.551   7.544 -0.1594 -0.7641 -1.8428
 5301TIP3    H237463   0.568   3.435   7.577 -0.2160 -0.5084 -0.7605
 5302TIP3   OH237464   5.344   1.362   8.727  0.2331 -0.1612  0.4116
 5302TIP3    H137465   5.394   1.443   8.716 -0.3606  0.2702  0.8234
 5302TIP3    H237466   5.259   1.380   8.687  0.4565 -0.9524 -0.4383
 5303TIP3   OH237467   6.449   1.169   1.578 -0.2844  0.4231 -0.2275
 5303TIP3    H137468   6.498   1.205   1.652  1.4323  3.0257 -2.4163
 5303TIP3    H237469   6.494   1.088   1.556  1.8763  1.7102 -0.8808
 5304TIP3   OH237470   5.349   0.543   3.109  0.2912 -0.8593 -0.4366
 5304TIP3    H137471   5.291   0.608   3.147 -0.6378 -1.0486 -1.4612
 5304TIP3    H237472   5.437   0.575   3.126 -0.1367  0.0144  0.1616
 5305TIP3   OH237473   2.684   0.106   1.697 -0.5238 -0.3451 -0.3599
 5305TIP3    H137474   2.776   0.084   1.683 -0.2081  0.6599  0.0245
 5305TIP3    H237475   2.679   0.132   1.788 -1.2393 -0.5815 -0.3245
 5306TIP3   OH237476   1.448   2.457   2.579  0.0851 -0.1335 -0.0501
 5306TIP3    H137477   1.375   2.402   2.552  0.7367 -2.1154  1.9111
 5306TIP3    H237478   1.413   2.513   2.648  0.3145 -0.9311  0.7367
 5307TIP3   OH237479   0.622   3.317   2.237 -0.2111 -0.1022 -1.0822
 5307TIP3    H137480   0.669   3.301   2.155 -0.5443 -0.8550 -1.1349
 5307TIP3    H237481   0.544   3.262   2.230  0.7068 -1.7406  0.5730
 5308TIP3   OH237482   4.541   1.550   9.241  0.0749  0.4015 -0.4554
 5308TIP3    H137483   4.632   1.540   9.270  0.4642  0.7811 -1.5020
 5308TIP3    H237484   4.504   1.614   9.300  0.3186 -0.1805  0.3456
 5309TIP3   OH237485   4.349   4.425   1.648  0.0237 -0.1298 -0.0803
 5309TIP3    H137486   4.313   4.449   1.563  0.1078  1.9953  0.4179
 5309TIP3    H237487   4.441   4.452   1.643  0.0969 -0.2484  0.5688
 5310TIP3   OH237488   3.426   0.942   0.227 -0.1980  0.5046 -0.4261
 5310TIP3    H137489   3.336   0.972   0.236 -0.1580  0.7341 -0.7747
 5310TIP3    H237490   3.420   0.857   0.184 -0.2014  0.9345 -1.2962
 5311TIP3   OH237491   3.078   2.415   8.608 -0.0525  0.1256  0.1826
 5311TIP3    H137492   3.083   2.455   8.521 -1.7993  0.6394  0.2793
 5311TIP3    H237493   3.006   2.461   8.651  1.1470  0.3029  2.1407
 5312TIP3   OH237494   5.829   4.571   8.537 -0.3867  0.6213  0.0409
 5312TIP3    H137495   5.848   4.511   8.609 -2.4931  0.0119  0.1338
 5312TIP3    H237496   5.846   4.520   8.458 -2.2021 -0.1575  0.1187
 5313TIP3   OH237497   6.004   2.557   8.697 -0.9635  0.0370  0.5984
 5313TIP3    H137498   5.935   2.624   8.705  0.0128  1.0734  0.5565
 5313TIP3    H237499   6.086   2.607   8.698 -0.2015 -1.1885  0.7547
 5314TIP3   OH237500   2.783   2.416   7.800  0.1171 -0.4188 -0.5331
 5314TIP3    H137501   2.800   2.384   7.712 -1.1637  0.0405 -0.9651
 5314TIP3    H237502   2.756   2.338   7.849  2.1274 -0.9328 -0.1499
 5315TIP3   OH237503   5.098   1.705   8.241  0.2744  0.1200  0.1473
 5315TIP3    H137504   5.064   1.759   8.169  0.6809  0.2570  0.0601
 5315TIP3    H237505   5.019   1.666   8.279 -0.0272  0.7598  0.1986
 5316TIP3   OH237506   4.897   6.257   0.055 -0.1156  0.0453 -0.0742
 5316TIP3    H137507   4.976   6.203   0.063 -0.5026 -0.4319  0.6654
 5316TIP3    H237508   4.861   6.260   0.143 -0.6872  0.6307 -0.3185
 5317TIP3   OH237509   6.589   3.714   1.787 -0.0894  0.1669 -0.0791
 5317TIP3    H137510   6.556   3.730   1.876  0.8481 -0.7533  0.4706
 5317TIP3    H237511   6.638   3.632   1.795  0.1905  0.1858 -1.4110
 5318TIP3   OH237512   4.626   0.654   0.009  0.0662  0.1598 -0.1116
 5318TIP3    H137513   4.579   0.661   0.092  0.8952 -1.7315  0.5780
 5318TIP3    H237514   4.716   0.636   0.034  0.4626  0.1717 -1.4342
 5319TIP3   OH237515   5.858   2.007   8.115  0.1631  0.5040 -0.4643
 5319TIP3    H137516   5.766   2.033   8.112 -0.0987 -0.3338  0.1547
 5319TIP3    H237517   5.906   2.090   8.113 -0.6170  0.9738 -0.0875
 5320TIP3   OH237518   5.779   2.569   2.799 -0.0272 -0.2136 -0.3672
 5320TIP3    H137519   5.856   2.520   2.829  0.0356  0.7314  1.0940
 5320TIP3    H237520   5.770   2.641   2.862 -1.6866  0.1070 -0.9237
 5321TIP3   OH237521   6.513   0.664   2.087 -0.5941 -0.4424  0.5834
 5321TIP3    H137522   6.561   0.608   2.025 -0.9104  0.2126 -0.2723
 5321TIP3    H237523   6.450   0.605   2.128 -1.0500 -0.7066 -0.4405
 5322TIP3   OH237524   3.477   4.198   1.687 -0.1135  0.4622 -0.1125
 5322TIP3    H137525   3.428   4.178   1.607 -0.9082  1.3739  0.1322
 5322TIP3    H237526   3.478   4.293   1.691  0.0346  0.4264  0.8954
 5323TIP3   OH237527   3.831   3.853   8.731  0.1113 -0.7126 -0.1394
 5323TIP3    H137528   3.777   3.851   8.810  0.7808  0.6484  0.3818
 5323TIP3    H237529   3.911   3.805   8.755  1.7255  2.3585  1.1718
 5324TIP3   OH237530   5.253   2.960   2.867 -0.4470  0.0221 -0.6013
 5324TIP3    H137531   5.284   3.030   2.925  0.7044  0.5408 -1.7751
 5324TIP3    H237532   5.223   3.007   2.789  0.2516 -0.7839 -1.3682
 5325TIP3   OH237533   0.503   4.720   8.581 -0.0816 -0.0630  0.6032
 5325TIP3    H137534   0.534   4.646   8.528  1.0915 -0.9719  2.4562
 5325TIP3    H237535   0.582   4.756   8.620 -0.6416  2.1982 -0.2120
 5326TIP3   OH237536   6.364   4.809   8.360  0.0549 -0.5849  0.2277
 5326TIP3    H137537   6.350   4.875   8.429 -1.2567 -0.0933 -0.4811
 5326TIP3    H237538   6.323   4.846   8.282  1.1412 -1.3297 -0.7368
 5327TIP3   OH237539   4.353   4.775   1.181  0.1952  0.4201 -0.6258
 5327TIP3    H137540   4.318   4.686   1.179 -0.8720  0.8311 -0.6130
 5327TIP3    H237541   4.442   4.766   1.145  0.3738 -0.7567  0.0532
 5328TIP3   OH237542   3.771   2.450   2.021  0.3510  0.1246  0.4311
 5328TIP3    H137543   3.742   2.420   2.107  0.6884 -0.2704  0.4133
 5328TIP3    H237544   3.827   2.379   1.989 -2.0904 -1.1044 -1.3838
 5329TIP3   OH237545   0.116   1.252   9.120 -0.0349 -0.2480  0.7025
 5329TIP3    H137546   0.152   1.184   9.063  1.2048  1.3752 -0.5740
 5329TIP3    H237547   0.175   1.253   9.196  0.4707 -0.0470  0.3168
 5330TIP3   OH237548   2.086   0.847   9.149 -0.0803 -0.1026  0.7364
 5330TIP3    H137549   2.084   0.782   9.079 -2.0745 -0.0069  0.6301
 5330TIP3    H237550   2.025   0.915   9.120  0.7572  1.0350  1.5624
 5331TIP3   OH237551   2.391   5.280   0.855  0.5245 -0.0544 -0.3953
 5331TIP3    H137552   2.480   5.272   0.890  0.2789  1.0587  0.5461
 5331TIP3    H237553   2.403   5.310   0.765  1.1006  2.0407  0.3196
 5332TIP3   OH237554   2.498   0.785   2.631 -0.2802 -0.1251  0.2641
 5332TIP3    H137555   2.557   0.731   2.684 -1.1495  0.0637  1.4746
 5332TIP3    H237556   2.541   0.870   2.628  0.4297 -0.4857 -0.5085
 5333TIP3   OH237557   4.149   1.523   7.707  0.0206 -0.3865  0.0173
 5333TIP3    H137558   4.155   1.453   7.771  1.1111 -0.5799 -0.2748
 5333TIP3    H237559   4.059   1.554   7.713 -0.4086 -1.6511  0.3167
 5334TIP3   OH237560   6.380   5.428   1.243  0.2031 -0.0702 -0.0212
 5334TIP3    H137561   6.362   5.430   1.337 -0.8930  0.7641 -0.2271
 5334TIP3    H237562   6.475   5.437   1.237  0.3595 -0.8756  1.0183
 5335TIP3   OH237563   0.025   3.108   7.221  0.2258 -0.0081 -0.8238
 5335TIP3    H137564   0.021   3.183   7.280  0.7397  0.3669 -1.2669
 5335TIP3    H237565  -0.067   3.091   7.198 -0.2203 -1.4784  1.7130
 5336TIP3   OH237566   4.441   0.146   7.992  0.9057  0.0813  0.1683
 5336TIP3    H137567   4.376   0.101   7.937 -0.6150  0.4871  1.5561
 5336TIP3    H237568   4.522   0.099   7.975 -0.3211 -2.3413  0.5000
 5337TIP3   OH237569   4.209   6.493   8.020 -0.2709 -0.7927  0.2832
 5337TIP3    H137570   4.225   6.431   7.948 -1.0796 -1.2128  0.4539
 5337TIP3    H237571   4.135   6.545   7.990  0.7037  0.4439 -0.0608
 5338TIP3   OH237572   1.668   0.876   1.240  0.5988 -0.0341 -0.3362
 5338TIP3    H137573   1.644   0.867   1.148  1.1210  0.3590 -0.5096
 5338TIP3    H237574   1.757   0.841   1.246  0.7152  0.3060 -0.0560
 5339TIP3   OH237575   6.027   4.820   8.072 -0.7633  0.1014  0.1023
 5339TIP3    H137576   6.088   4.860   8.009  0.8269  1.3834  2.3132
 5339TIP3    H237577   5.969   4.891   8.098  0.4532  0.4178  2.1627
 5340TIP3   OH237578   3.141   4.336   8.202  0.2794  0.2149  0.2106
 5340TIP3    H137579   3.172   4.269   8.262  0.2234  0.4358  0.4900
 5340TIP3    H237580   3.074   4.384   8.252 -0.6979 -0.4135 -0.4595
 5341TIP3   OH237581   5.521   2.228   2.589  0.0193 -0.2103  0.0772
 5341TIP3    H137582   5.551   2.178   2.665  0.8111  1.8251  1.1797
 5341TIP3    H237583   5.485   2.309   2.626 -1.5693 -0.0722 -1.6069
 5342TIP3   OH237584   2.605   3.206   7.421  0.0296 -0.0791  0.3439
 5342TIP3    H137585   2.602   3.118   7.383 -0.9669 -0.2408  0.7604
 5342TIP3    H237586   2.546   3.257   7.367  1.3651  0.6167 -0.5176
 5343TIP3   OH237587   2.872   5.182   1.644 -0.2655 -0.4168 -0.3451
 5343TIP3    H137588   2.860   5.160   1.551  0.5307 -1.5811 -0.1958
 5343TIP3    H237589   2.829   5.111   1.691 -1.6544  0.7464  0.2120
 5344TIP3   OH237590   4.614   3.438   8.986 -0.0797  0.4543  0.4243
 5344TIP3    H137591   4.552   3.416   8.917  1.1276  1.0483 -0.9184
 5344TIP3    H237592   4.661   3.356   9.003  2.2874  1.0409 -2.3533
 5345TIP3   OH237593   0.924   2.435   2.813 -0.6325  0.6578 -0.2919
 5345TIP3    H137594   0.846   2.379   2.819  0.8206 -1.3237  2.7574
 5345TIP3    H237595   0.908   2.505   2.877  0.6871 -0.8141  1.8033
 5346TIP3   OH237596   1.659   3.735   2.257  0.1318 -0.1312  0.3291
 5346TIP3    H137597   1.731   3.672   2.270 -0.0378 -0.4454 -0.2082
 5346TIP3    H237598   1.704   3.817   2.235  0.3327 -0.4374 -0.4664
 5347TIP3   OH237599   1.509   1.267   0.362 -0.4521 -0.0378 -0.2088
 5347TIP3    H137600   1.424   1.272   0.319 -0.9433  1.3122  0.8261
 5347TIP3    H237601   1.516   1.349   0.411  1.8067  0.2499 -0.8985
 5348TIP3   OH237602   3.423   1.324   8.085  0.2152 -0.5179  0.2607
 5348TIP3    H137603   3.368   1.320   8.163 -0.8009  0.5382 -0.3856
 5348TIP3    H237604   3.423   1.416   8.059  0.2427 -0.9043 -1.2031
 5349TIP3   OH237605   0.557   1.091   0.108  0.6352 -0.4912  0.0012
 5349TIP3    H137606   0.506   1.128   0.180  0.4949  0.4848 -0.5978
 5349TIP3    H237607   0.536   0.997   0.110  1.6624 -0.7560  2.0923
 5350TIP3   OH237608   4.600   5.383   7.310 -0.7645  0.7393  0.5172
 5350TIP3    H137609   4.535   5.361   7.377 -0.8032 -0.3640  0.1254
 5350TIP3    H237610   4.684   5.380   7.357 -0.7959  0.0202  0.5422
 5351TIP3   OH237611   3.092   2.517   8.298 -0.1157  0.3967  0.1358
 5351TIP3    H137612   3.012   2.564   8.276  0.4611  1.9989  1.3129
 5351TIP3    H237613   3.080   2.430   8.260 -2.0225  0.8867 -0.4663
 5352TIP3   OH237614   0.059   3.227   0.219  0.5151 -0.4313  0.5040
 5352TIP3    H137615   0.155   3.221   0.227  0.6059  0.0123 -0.1503
 5352TIP3    H237616   0.034   3.142   0.183  0.5969 -0.7641  1.2267
 5353TIP3   OH237617   4.457   1.825   0.216 -0.1768  0.0408  0.3015
 5353TIP3    H137618   4.524   1.756   0.217  0.5010  0.6853  0.7897
 5353TIP3    H237619   4.375   1.779   0.234  0.4252 -0.4991  1.8809
 5354TIP3   OH237620   5.431   4.253   8.540  0.0816 -0.7152 -0.1883
 5354TIP3    H137621   5.454   4.219   8.454 -4.8840 -2.1190 -1.2704
 5354TIP3    H237622   5.424   4.348   8.528 -1.2126 -0.9623 -1.5881
 5355TIP3   OH237623   4.321   1.134   8.805 -0.0431 -0.9494 -0.5469
 5355TIP3    H137624   4.278   1.126   8.890 -2.3547  2.7707 -1.1459
 5355TIP3    H237625   4.300   1.053   8.759 -0.0507 -2.3770  1.8027
 5356TIP3   OH237626   6.116   6.111   2.074  0.2370 -0.1904  0.0271
 5356TIP3    H137627   6.051   6.175   2.103 -0.0304 -0.7182  0.6062
 5356TIP3    H237628   6.140   6.139   1.985 -0.2134  0.4424  0.1006
 5357TIP3   OH237629   0.351   2.573   2.963  0.4239  0.7981 -0.4040
 5357TIP3    H137630   0.346   2.668   2.953 -2.2446  0.8803  0.8873
 5357TIP3    H237631   0.394   2.560   3.047  2.5937  0.7274 -1.4508
 5358TIP3   OH237632   2.877   5.184   1.364 -0.2702  0.3468  0.1166
 5358TIP3    H137633   2.932   5.106   1.369  1.6970  1.6384 -0.1903
 5358TIP3    H237634   2.937   5.257   1.377 -1.7569  1.9037 -1.1680
 5359TIP3   OH237635   6.316   3.119   1.906 -0.0386 -0.2817  0.1362
 5359TIP3    H137636   6.404   3.115   1.944 -0.4858 -2.0824  1.0966
 5359TIP3    H237637   6.330   3.103   1.812  0.8330  1.7838 -0.1545
 5360TIP3   OH237638   3.959   1.300   1.001  0.0510  0.2489 -0.2224
 5360TIP3    H137639   4.003   1.277   1.083  0.5864  0.4622 -0.4397
 5360TIP3    H237640   3.866   1.284   1.017  0.3363 -1.5927 -0.2039
 5361TIP3   OH237641   1.742   2.009   2.979  0.0751 -0.0742 -0.2565
 5361TIP3    H137642   1.661   2.031   3.026  0.6651  0.3449  0.6032
 5361TIP3    H237643   1.811   2.043   3.035  0.9268 -1.7068 -0.2647
 5362TIP3   OH237644   3.384   5.412   1.008 -0.3209  0.0022  0.1168
 5362TIP3    H137645   3.321   5.458   0.952  0.6350  0.1934 -0.8422
 5362TIP3    H237646   3.469   5.440   0.975  0.2730 -1.0200  0.7420
 5363TIP3   OH237647   4.069   3.157   7.671  0.6103  0.0898  0.1492
 5363TIP3    H137648   4.084   3.217   7.745  0.5522 -0.5820  0.7203
 5363TIP3    H237649   4.050   3.214   7.597 -1.4906  0.7373  1.1163
 5364TIP3   OH237650   2.283   4.583   1.661 -0.4252  0.4022 -0.6204
 5364TIP3    H137651   2.227   4.510   1.633 -2.1654  0.1468  3.0191
 5364TIP3    H237652   2.366   4.543   1.683 -0.3451  0.0428 -1.5104
 5365TIP3   OH237653   1.975   0.807   7.774 -0.1655 -0.3195  0.2543
 5365TIP3    H137654   2.039   0.794   7.844  2.4387 -1.7093 -2.1566
 5365TIP3    H237655   2.018   0.869   7.714 -2.8377  1.8372  0.3747
 5366TIP3   OH237656   2.451   4.572   2.381  0.0055  0.1886  0.9896
 5366TIP3    H137657   2.392   4.648   2.376 -0.4060 -0.0765  1.6910
 5366TIP3    H237658   2.452   4.537   2.292 -1.0824  0.0673  1.0154
 5367TIP3   OH237659   1.281   2.423   0.490  0.0786  0.4214 -0.8628
 5367TIP3    H137660   1.320   2.361   0.428  1.4517 -0.4773  0.8185
 5367TIP3    H237661   1.271   2.504   0.440  1.1010 -0.2777 -2.2591
 5368TIP3   OH237662   4.261   4.019   7.580 -0.3803  0.1889  0.1665
 5368TIP3    H137663   4.229   4.107   7.560  0.2159  0.5401  0.7534
 5368TIP3    H237664   4.248   3.970   7.499 -2.2443  0.3580  0.2983
 5369TIP3   OH237665   3.345   0.246   2.121  0.1075 -0.0379  0.5015
 5369TIP3    H137666   3.359   0.323   2.065 -1.4949 -0.9920 -1.3524
 5369TIP3    H237667   3.388   0.268   2.204  0.9154  2.2516 -0.4409
 5370TIP3   OH237668   6.076   4.066   0.236  0.0460  0.4467  0.7648
 5370TIP3    H137669   6.042   4.099   0.319 -1.0657  1.8228 -0.1845
 5370TIP3    H237670   6.125   4.139   0.199  0.1897 -0.0102  0.0318
 5371TIP3   OH237671   2.996   1.871   1.458  0.0672 -0.2959  0.1019
 5371TIP3    H137672   3.031   1.784   1.476  0.4014 -0.5544 -1.6049
 5371TIP3    H237673   2.942   1.859   1.379  0.7829  1.1827 -0.6419
 5372TIP3   OH237674   0.190   6.245   1.657 -0.4429  0.2783  0.1274
 5372TIP3    H137675   0.125   6.267   1.590 -0.4416  1.4766  0.5019
 5372TIP3    H237676   0.266   6.299   1.636  0.0081 -0.2390  0.3903
 5373TIP3   OH237677   1.890   1.166   1.297  0.5566 -0.0790  0.2683
 5373TIP3    H137678   1.860   1.156   1.387  2.4878 -1.3743  0.8400
 5373TIP3    H237679   1.986   1.169   1.304  0.7320  2.7069 -1.5055
 5374TIP3   OH237680   2.749   4.301   8.714 -0.6433  0.3396  0.3091
 5374TIP3    H137681   2.804   4.235   8.754 -0.0703  0.6723  0.0752
 5374TIP3    H237682   2.771   4.383   8.759  0.9729  0.9921 -1.4890
 5375TIP3   OH237683   1.605   5.860   8.728 -0.5094 -0.1725 -0.2299
 5375TIP3    H137684   1.512   5.877   8.738 -0.2510  0.1769  2.5378
 5375TIP3    H237685   1.642   5.879   8.815  1.7325 -2.7675 -0.4736
 5376TIP3   OH237686   5.202   3.000   1.745  0.1736 -0.0887 -0.3444
 5376TIP3    H137687   5.192   2.928   1.808 -2.2781 -1.4913 -2.1606
 5376TIP3    H237688   5.128   3.058   1.763  0.7503  0.7069 -0.4929
 5377TIP3   OH237689   3.764   0.487   9.071  0.0492 -0.1295 -0.5217
 5377TIP3    H137690   3.778   0.408   9.124  0.0282  0.1741 -0.0563
 5377TIP3    H237691   3.823   0.552   9.109 -0.8095  0.4323 -0.1155
 5378TIP3   OH237692   1.157   2.694   8.026  0.3682 -0.1216  0.4545
 5378TIP3    H137693   1.182   2.602   8.039  0.3226 -0.4636 -1.5567
 5378TIP3    H237694   1.234   2.733   7.984 -0.5222  0.1088 -1.0162
 5379TIP3   OH237695   2.010   1.140   2.405  0.2368  0.2680 -0.8265
 5379TIP3    H137696   1.953   1.099   2.470  0.3242  2.0123  0.4335
 5379TIP3    H237697   2.091   1.089   2.409  0.4298  0.6472  0.8511
 5380TIP3   OH237698   1.965   5.683   7.956  0.3769  0.5828  0.7028
 5380TIP3    H137699   1.941   5.590   7.957  1.6952  0.1218 -1.7494
 5380TIP3    H237700   1.895   5.725   7.905  1.0235  0.4561 -0.3300
 5381TIP3   OH237701   3.338   4.672   8.585 -0.2404  0.0497  0.2559
 5381TIP3    H137702   3.427   4.701   8.605 -0.5654  0.6314  0.8900
 5381TIP3    H237703   3.284   4.710   8.655 -0.9925 -0.2546 -0.1498
 5382TIP3   OH237704   2.732   2.535   9.028  0.0111  0.0445 -0.2544
 5382TIP3    H137705   2.637   2.522   9.028  0.1383 -0.9879  0.5661
 5382TIP3    H237706   2.744   2.625   9.061 -0.6175 -0.5072  1.5920
 5383TIP3   OH237707   1.832   0.543   1.468 -1.0330  0.1283 -0.2835
 5383TIP3    H137708   1.741   0.540   1.498 -1.1305 -0.3316 -0.6006
 5383TIP3    H237709   1.837   0.473   1.403 -0.3295 -0.1481  0.0667
 5384TIP3   OH237710   3.746   2.474   1.709 -0.5609  0.3614 -0.0861
 5384TIP3    H137711   3.741   2.492   1.615  0.3560  0.3323 -0.1490
 5384TIP3    H237712   3.807   2.400   1.716 -0.2762  0.6531  0.5636
 5385TIP3   OH237713   5.966   6.580   1.696 -0.5183  0.9468  0.3744
 5385TIP3    H137714   6.046   6.533   1.675 -0.5705  1.0198  0.0045
 5385TIP3    H237715   5.910   6.515   1.739 -0.9202  0.4251 -0.8902
 5386TIP3   OH237716   0.082   1.074   2.920  0.0142 -0.0242  0.3776
 5386TIP3    H137717   0.061   1.134   2.848 -0.3100  0.3001  0.7383
 5386TIP3    H237718   0.177   1.067   2.918 -0.0797 -1.3194 -1.1264
 5387TIP3   OH237719   1.430   2.581   8.664  0.4226 -0.2609  0.3409
 5387TIP3    H137720   1.495   2.530   8.614 -0.2096 -0.7656  0.0181
 5387TIP3    H237721   1.349   2.572   8.614  0.4167  1.5586 -0.0484
 5388TIP3   OH237722   5.386   0.297   8.276  0.2545  0.3460  0.2329
 5388TIP3    H137723   5.335   0.277   8.354  0.7883  1.0129  0.7588
 5388TIP3    H237724   5.322   0.327   8.212 -0.1949 -0.2869  0.3862
 5389TIP3   OH237725   1.014   5.958   7.914 -0.0527  0.2681  0.1642
 5389TIP3    H137726   0.934   5.977   7.864 -0.2992  2.9547  1.4137
 5389TIP3    H237727   1.071   6.033   7.896  1.3044 -0.5080  1.0803
 5390TIP3   OH237728   2.981   0.742   8.073  0.2026 -0.6478 -0.0813
 5390TIP3    H137729   2.925   0.691   8.132 -0.0819 -0.3371 -0.0802
 5390TIP3    H237730   3.064   0.750   8.121  0.6833 -2.1604 -0.5974
 5391TIP3   OH237731   1.108   6.061   2.850 -0.0595 -0.1260 -0.1555
 5391TIP3    H137732   1.187   6.017   2.818 -0.5503 -0.7775 -0.4997
 5391TIP3    H237733   1.141   6.130   2.907  0.7876  0.1571 -0.9569
 5392TIP3   OH237734   3.996   0.371   1.688 -0.6948  0.0144  0.1771
 5392TIP3    H137735   3.971   0.392   1.778 -2.0990 -2.4223  0.4478
 5392TIP3    H237736   4.089   0.352   1.693 -0.3870  1.5000  0.7510
 5393TIP3   OH237737   1.061   3.189   2.785 -0.0510 -0.1317  0.5898
 5393TIP3    H137738   0.968   3.166   2.791 -0.7845  2.0469 -1.0422
 5393TIP3    H237739   1.106   3.105   2.778 -1.9637 -1.2310  0.7046
 5394TIP3   OH237740   1.014   2.325   0.110 -0.4383 -0.4160 -0.0570
 5394TIP3    H137741   1.073   2.296   0.041  0.9038  3.8671 -1.0325
 5394TIP3    H237742   1.026   2.262   0.180  1.1259 -2.7516 -2.2626
 5395TIP3   OH237743   6.142   0.552   8.593  0.6967  0.8798 -0.3942
 5395TIP3    H137744   6.082   0.499   8.541 -1.2247 -0.5876  3.0440
 5395TIP3    H237745   6.228   0.536   8.554 -0.0180 -3.4672 -0.6716
 5396TIP3   OH237746   0.475   2.768   2.102 -0.0098 -0.2068 -0.0255
 5396TIP3    H137747   0.385   2.767   2.072  0.2090  2.3183 -1.0546
 5396TIP3    H237748   0.473   2.816   2.185  0.4006  0.0917 -0.1815
 5397TIP3   OH237749   2.223   2.845   1.372 -0.3178  0.0902  0.1726
 5397TIP3    H137750   2.262   2.787   1.307 -1.4801  0.1666 -0.6423
 5397TIP3    H237751   2.128   2.834   1.359 -0.5751  0.1506  1.8305
 5398TIP3   OH237752   2.449   5.932   3.149  0.1170  0.1018  0.6656
 5398TIP3    H137753   2.429   6.000   3.084 -0.0665 -0.9508 -0.4071
 5398TIP3    H237754   2.463   5.981   3.230  0.5919  1.4788 -0.2007
 5399TIP3   OH237755   4.513   3.375   0.996 -0.2059 -0.0727 -0.4181
 5399TIP3    H137756   4.430   3.423   0.997 -1.5658 -2.2440 -1.4081
 5399TIP3    H237757   4.508   3.318   1.073  0.6432  0.2224 -0.1435
 5400TIP3   OH237758   4.505   5.995   2.935  0.2558 -0.2331 -0.0399
 5400TIP3    H137759   4.475   5.914   2.895  1.2109 -0.9557  0.6402
 5400TIP3    H237760   4.585   5.970   2.983 -0.2171  0.7993  1.3616
 5401TIP3   OH237761   0.918   2.720   8.902  0.1466 -0.5643 -0.1504
 5401TIP3    H137762   0.847   2.668   8.939  1.0367 -0.9478  1.1005
 5401TIP3    H237763   0.885   2.810   8.904 -0.5147 -0.8024 -0.1103
 5402TIP3   OH237764   4.390   5.332   8.424  0.2322  0.0161  0.2009
 5402TIP3    H137765   4.473   5.308   8.467  0.6042  1.3485  0.2574
 5402TIP3    H237766   4.324   5.323   8.493  0.3948 -0.5654  0.2886
 5403TIP3   OH237767   0.318   6.499   1.043 -0.0623  0.4059  0.0390
 5403TIP3    H137768   0.383   6.429   1.044 -2.2630 -1.7837 -1.1081
 5403TIP3    H237769   0.365   6.575   1.009  2.4087 -0.4211  1.3446
 5404TIP3   OH237770   5.272   1.143   2.128  0.3360  0.1425  0.4303
 5404TIP3    H137771   5.180   1.161   2.109 -0.3091 -1.1938  2.0724
 5404TIP3    H237772   5.306   1.227   2.160 -0.5002  0.4577  0.5125
 5405TIP3   OH237773   6.020   2.514   1.172 -0.7176 -0.5773  0.3411
 5405TIP3    H137774   6.111   2.486   1.182  0.1527  1.5238 -0.8596
 5405TIP3    H237775   6.000   2.499   1.080  0.1548  3.2449 -0.6680
 5406TIP3   OH237776   0.601   5.444   7.540  0.3783  0.3646  0.3522
 5406TIP3    H137777   0.535   5.394   7.491  0.4792  0.3540  0.2252
 5406TIP3    H237778   0.681   5.392   7.531  0.2862  0.1200  0.9325
 5407TIP3   OH237779   1.239   4.462   1.831  0.0780  0.6226 -0.3621
 5407TIP3    H137780   1.274   4.552   1.831 -1.1141  1.1169  0.8862
 5407TIP3    H237781   1.279   4.421   1.908 -1.3184  0.9167  0.5630
 5408TIP3   OH237782   2.576   3.387   1.362  0.4191  0.0418  0.1820
 5408TIP3    H137783   2.649   3.337   1.325  0.7562  0.1526  0.6898
 5408TIP3    H237784   2.537   3.432   1.287  0.0501 -1.0446 -0.3056
 5409TIP3   OH237785   0.146   3.281   8.324  0.4075 -0.1648  0.7604
 5409TIP3    H137786   0.198   3.207   8.292  1.0804  1.1796 -1.5068
 5409TIP3    H237787   0.055   3.251   8.320  0.7333 -1.1607  0.6874
 5410TIP3   OH237788   0.945   1.031   1.907 -0.1556  0.1186  0.1815
 5410TIP3    H137789   0.859   1.058   1.876  0.5235  0.4622 -1.5652
 5410TIP3    H237790   0.972   1.101   1.967 -1.8765 -0.9911  2.4057
 5411TIP3   OH237791   2.392   1.995   2.536 -0.1019  0.0630 -0.2947
 5411TIP3    H137792   2.445   1.987   2.615 -0.6101  1.0726  0.1686
 5411TIP3    H237793   2.438   1.942   2.471  0.9806  0.1784  0.3429
 5412TIP3   OH237794   3.293   2.717   8.295  0.4381 -0.1871  0.1228
 5412TIP3    H137795   3.238   2.793   8.310 -0.6154 -0.3101 -2.5565
 5412TIP3    H237796   3.239   2.643   8.321  1.4036 -0.1206  2.5745
 5413TIP3   OH237797   3.702   0.998   1.637 -0.4470 -0.0870  0.1737
 5413TIP3    H137798   3.675   1.028   1.550  1.4208 -1.1608 -0.8315
 5413TIP3    H237799   3.733   0.909   1.623  2.1549  0.5370  1.4441
 5414TIP3   OH237800   2.958   0.748   0.299 -0.2794  0.0493 -0.2925
 5414TIP3    H137801   2.928   0.838   0.313 -0.9921 -0.2313  0.0876
 5414TIP3    H237802   2.923   0.700   0.375 -0.4368 -0.6635 -0.8087
 5415TIP3   OH237803   2.592   4.915   9.130  0.4041 -0.2700  0.2747
 5415TIP3    H137804   2.660   4.860   9.168  0.9975 -1.0380 -1.7571
 5415TIP3    H237805   2.576   4.878   9.043 -0.4089  1.7338 -0.5128
 5416TIP3   OH237806   1.195   2.388   0.836  0.0374 -0.4960 -0.8855
 5416TIP3    H137807   1.114   2.355   0.796 -0.9327  0.3998  0.2842
 5416TIP3    H237808   1.250   2.413   0.761 -1.5559  0.7551 -1.7073
 5417TIP3   OH237809   6.509   1.185   0.544 -0.0652  0.1489  0.6510
 5417TIP3    H137810   6.568   1.110   0.547  0.0351  0.2351  0.9103
 5417TIP3    H237811   6.533   1.231   0.463 -0.7152 -0.5660  0.0477
 5418TIP3   OH237812   0.037   1.807   8.190  0.0614  0.6865  0.1770
 5418TIP3    H137813   0.000   1.754   8.119 -0.9131 -0.1495  1.2830
 5418TIP3    H237814   0.060   1.744   8.258  0.2207  1.5534  0.9392
 5419TIP3   OH237815   1.385   4.848   2.422 -0.3623 -0.1631  0.1641
 5419TIP3    H137816   1.467   4.802   2.437 -0.9611 -1.1514  0.5134
 5419TIP3    H237817   1.408   4.918   2.361  0.5839 -0.9383 -0.4075
 5420TIP3   OH237818   1.604   2.969   0.989 -0.3336 -0.0398 -0.0609
 5420TIP3    H137819   1.665   2.960   1.063 -0.8653 -1.1434  0.2594
 5420TIP3    H237820   1.600   2.882   0.950  0.6361  0.7141 -1.9950
 5421TIP3   OH237821   4.179   4.898   1.558 -0.5647 -0.4572  0.3052
 5421TIP3    H137822   4.103   4.870   1.506 -1.6889 -1.0715  2.1519
 5421TIP3    H237823   4.185   4.832   1.628  1.2349  0.0006  0.6217
 5422TIP3   OH237824   2.285   5.821   8.986 -0.0789  0.2316 -0.6393
 5422TIP3    H137825   2.326   5.826   8.900 -0.0454 -1.6908 -0.7814
 5422TIP3    H237826   2.207   5.766   8.973 -2.7407  3.5844 -0.3293
 5423TIP3   OH237827   4.995   2.292   0.659 -0.6649  0.2410 -0.0021
 5423TIP3    H137828   5.078   2.316   0.619 -0.4614 -0.8518 -0.2559
 5423TIP3    H237829   4.956   2.228   0.600 -2.2227  1.5256 -0.4542
 5424TIP3   OH237830   4.785   3.628   1.772 -0.0890 -0.4908  0.0084
 5424TIP3    H137831   4.784   3.610   1.866  1.7842  0.5713  0.2782
 5424TIP3    H237832   4.789   3.723   1.766 -0.8800 -0.5149 -1.1795
 5425TIP3   OH237833   4.683   6.041   8.229  0.6244 -0.4568  0.0940
 5425TIP3    H137834   4.703   6.098   8.303 -1.3070 -1.1579  1.2499
 5425TIP3    H237835   4.739   5.964   8.242  0.5084 -0.4499  0.6947
 5426TIP3   OH237836   5.094   3.783   2.256  0.1961 -0.4945 -0.0043
 5426TIP3    H137837   5.055   3.823   2.178 -0.2391 -0.2702  0.3249
 5426TIP3    H237838   5.092   3.852   2.322  0.5396 -0.6921  0.2138
 5427TIP3   OH237839   6.141   5.545   9.262 -0.2802 -0.6567  0.3860
 5427TIP3    H137840   6.144   5.460   9.306 -1.5684 -0.5430  0.7637
 5427TIP3    H237841   6.085   5.599   9.318  0.6062  0.4877  0.2116
 5428TIP3   OH237842   5.873   4.575   0.844  0.2026  0.7637  0.5555
 5428TIP3    H137843   5.850   4.648   0.786 -1.6601  1.1127  1.6582
 5428TIP3    H237844   5.845   4.604   0.931 -1.9033 -1.7860  0.8320
 5429TIP3   OH237845   0.464   0.851   2.448  0.0137  0.4743  0.3183
 5429TIP3    H137846   0.513   0.788   2.501 -0.7778  1.1375  1.9258
 5429TIP3    H237847   0.373   0.824   2.458 -0.1024  0.0752 -1.5105
 5430TIP3   OH237848   0.752   1.406   0.703  0.2502 -0.0070  0.3438
 5430TIP3    H137849   0.697   1.485   0.701 -0.0920 -0.2470  0.2642
 5430TIP3    H237850   0.820   1.426   0.768 -0.9012 -0.3351  1.7086
 5431TIP3   OH237851   1.659   2.743   8.711 -0.6433  0.1050 -0.2614
 5431TIP3    H137852   1.583   2.686   8.716  0.7383 -1.7658  0.6098
 5431TIP3    H237853   1.635   2.820   8.763 -2.2508  0.0023 -0.8032
 5432TIP3   OH237854   6.517   3.664   2.057 -0.1738 -0.0631  0.3637
 5432TIP3    H137855   6.570   3.584   2.051  1.1488  0.7974 -0.0293
 5432TIP3    H237856   6.494   3.671   2.150  0.7348 -0.2776  0.6204
 5433TIP3   OH237857   5.414   1.434   9.271  0.5423 -0.2715 -0.6878
 5433TIP3    H137858   5.498   1.412   9.231  2.2476  0.7191  2.1013
 5433TIP3    H237859   5.400   1.365   9.336 -1.6985 -1.3276 -2.1437
 5434TIP3   OH237860   0.952   3.696   8.716  0.1198  0.5517 -0.2924
 5434TIP3    H137861   0.996   3.650   8.644  0.0090 -0.5683  0.3343
 5434TIP3    H237862   0.937   3.784   8.682 -0.0705  0.0053 -1.6940
 5435TIP3   OH237863   3.807   2.238   8.734 -0.2079 -0.2195  0.0744
 5435TIP3    H137864   3.866   2.163   8.723  0.7191 -0.0746  3.1511
 5435TIP3    H237865   3.729   2.201   8.776  0.0934  0.4472  1.2541
 5436TIP3   OH237866   2.597   5.415   2.475  0.0515  0.0112 -0.2855
 5436TIP3    H137867   2.575   5.467   2.397 -0.5766 -0.9840 -0.7887
 5436TIP3    H237868   2.670   5.359   2.447 -0.1709 -0.3424 -0.1645
 5437TIP3   OH237869   1.043   1.768   8.747 -0.7907 -0.9957 -0.5536
 5437TIP3    H137870   1.113   1.833   8.752 -0.9734 -0.8804  1.2366
 5437TIP3    H237871   1.085   1.691   8.709  0.5035 -1.1140  1.0004
 5438TIP3   OH237872   3.885   0.144   1.222  0.1463 -0.0966 -0.0002
 5438TIP3    H137873   3.845   0.113   1.303 -0.0812 -0.3998 -0.2261
 5438TIP3    H237874   3.920   0.066   1.180 -0.5505 -0.0785 -0.6398
 5439TIP3   OH237875   1.232   1.662   9.144  0.0158 -0.3154  0.0699
 5439TIP3    H137876   1.168   1.730   9.120 -0.3263 -0.8677 -0.6353
 5439TIP3    H237877   1.212   1.642   9.235 -1.3317 -1.0106 -0.3569
 5440TIP3   OH237878   5.273   0.130   7.771 -0.1487  0.2198 -0.1049
 5440TIP3    H137879   5.197   0.079   7.796  1.1926 -0.9621  1.7599
 5440TIP3    H237880   5.293   0.101   7.682 -0.8086 -0.7527  0.0541
 5441TIP3   OH237881   1.713   0.933   0.287 -0.1304  0.0054  0.8993
 5441TIP3    H137882   1.746   0.999   0.225  0.9988 -1.4209 -0.0807
 5441TIP3    H237883   1.758   0.953   0.369  1.7846 -0.6774  0.0999
 5442TIP3   OH237884   5.274   3.966   2.430 -0.9436  0.2778  0.0861
 5442TIP3    H137885   5.233   4.033   2.484 -0.1691  0.4651  0.4629
 5442TIP3    H237886   5.303   3.900   2.493  0.7632  0.9190  0.0314
 5443TIP3   OH237887   1.057   4.322   0.794 -0.3229  0.2676 -0.1192
 5443TIP3    H137888   1.124   4.300   0.728  1.4139 -3.8657  2.5863
 5443TIP3    H237889   0.985   4.262   0.774 -0.2364 -0.2299  1.0031
 5444TIP3   OH237890   1.078   4.708   8.299 -0.3096  0.4148 -0.3834
 5444TIP3    H137891   1.064   4.711   8.204 -0.0222  0.0429 -0.4360
 5444TIP3    H237892   0.991   4.687   8.334 -0.5492  1.1124 -0.5189
 5445TIP3   OH237893   3.451   0.891   1.864 -0.3305 -0.3090  0.1171
 5445TIP3    H137894   3.524   0.953   1.866  0.1262 -0.8004 -0.6696
 5445TIP3    H237895   3.396   0.922   1.792  0.4140 -1.3490 -0.9444
 5446TIP3   OH237896   0.947   1.997   2.209 -0.1356 -0.5168 -0.0741
 5446TIP3    H137897   0.982   2.067   2.154 -0.6071  1.4149  1.9643
 5446TIP3    H237898   0.991   2.008   2.293 -2.0345 -1.1126  1.0482
 5447TIP3   OH237899   2.675   1.826   8.663 -0.3743 -0.4684 -0.1236
 5447TIP3    H137900   2.649   1.854   8.750 -1.2946 -1.7597  0.0344
 5447TIP3    H237901   2.735   1.753   8.677  1.4028  0.8283 -0.5498
 5448TIP3   OH237902   3.906   5.383   0.103  0.4626  0.4051  0.9053
 5448TIP3    H137903   3.915   5.347   0.015 -1.2719  1.2856  0.3125
 5448TIP3    H237904   3.825   5.344   0.137  0.7014  0.6684  1.8212
 5449TIP3   OH237905   2.877   2.784   8.438 -0.3475 -0.3314 -0.3285
 5449TIP3    H137906   2.843   2.733   8.511  0.3399 -0.5646 -0.1707
 5449TIP3    H237907   2.961   2.817   8.469 -0.1633 -0.2352 -0.9304
 5450TIP3   OH237908   6.099   6.502   2.231  0.0444 -0.1404  0.7088
 5450TIP3    H137909   6.007   6.483   2.247 -0.4136  1.0319 -0.3769
 5450TIP3    H237910   6.113   6.478   2.139  0.9210 -0.6490  0.9647
 5451TIP3   OH237911   3.194   1.915   0.111  0.5279  0.0366  0.2560
 5451TIP3    H137912   3.133   1.981   0.144  0.6121  0.1454  0.1946
 5451TIP3    H237913   3.252   1.963   0.051  2.4988  0.5823  2.4299
 5452TIP3   OH237914   3.112   2.124   3.001 -0.6412  0.0063  0.4137
 5452TIP3    H137915   3.133   2.109   2.909  1.7944 -0.5001  0.9935
 5452TIP3    H237916   3.046   2.057   3.021 -1.8625  0.6759 -1.1335
 5453TIP3   OH237917   5.125   3.329   3.352  0.0206 -0.1976  0.4207
 5453TIP3    H137918   5.093   3.291   3.434  1.3857 -0.1683  1.0010
 5453TIP3    H237919   5.050   3.375   3.315 -1.1344 -1.7955  0.6975
 5454TIP3   OH237920   0.672   4.181   2.804 -0.2817  0.1597 -0.8429
 5454TIP3    H137921   0.690   4.121   2.876  0.0915 -0.8894 -1.7733
 5454TIP3    H237922   0.749   4.237   2.798  1.0205 -1.6726 -2.2435
 5455TIP3   OH237923   4.776   0.774   1.075 -0.0291 -0.2411 -0.0879
 5455TIP3    H137924   4.716   0.712   1.115 -1.3792 -0.3979 -2.1842
 5455TIP3    H237925   4.825   0.812   1.148 -0.2821 -2.5848  1.3886
 5456TIP3   OH237926   1.472   3.521   8.045 -0.1983  0.0781  0.2051
 5456TIP3    H137927   1.379   3.545   8.043 -0.7172 -1.3979  2.6197
 5456TIP3    H237928   1.492   3.495   7.955 -2.4913 -0.7835 -0.1199
 5457TIP3   OH237929   1.582   1.450   0.859 -0.8176 -0.3695 -0.1454
 5457TIP3    H137930   1.642   1.496   0.919  0.0842  0.8618 -1.9116
 5457TIP3    H237931   1.602   1.358   0.871 -0.5809 -0.1613  1.3393
 5458TIP3   OH237932   1.190   2.341   1.709  0.4500 -0.3610  0.2546
 5458TIP3    H137933   1.166   2.395   1.785  0.3276 -0.6393  0.4141
 5458TIP3    H237934   1.148   2.385   1.635 -3.7968 -2.7848  0.9193
 5459TIP3   OH237935   6.574   6.161   0.762 -0.6175  0.4096 -0.1426
 5459TIP3    H137936   6.664   6.154   0.731 -0.8587  0.5647 -0.8776
 5459TIP3    H237937   6.520   6.152   0.684 -1.3838 -2.7020  0.6213
 5460TIP3   OH237938   2.561   2.064   0.054 -0.1292  0.5602 -0.7681
 5460TIP3    H137939   2.629   1.999   0.034 -2.2056 -1.7700 -0.6499
 5460TIP3    H237940   2.493   2.049  -0.012 -2.2000  0.1839  1.3092
 5461TIP3   OH237941   3.866   2.585   8.049  0.6043 -0.1207 -0.1862
 5461TIP3    H137942   3.831   2.631   8.125 -0.3019  0.2625 -0.8124
 5461TIP3    H237943   3.921   2.516   8.086 -0.9339 -0.8418  0.8733
 5462TIP3   OH237944   6.594   4.587   1.618  0.1910 -0.2171  0.1229
 5462TIP3    H137945   6.636   4.609   1.701  0.5800  0.8419 -0.3389
 5462TIP3    H237946   6.577   4.493   1.624 -1.8869  0.1921  2.3536
 5463TIP3   OH237947   1.538   3.601   7.298  0.2827 -0.1990  0.6516
 5463TIP3    H137948   1.591   3.649   7.234 -1.0364  0.1750 -0.2169
 5463TIP3    H237949   1.456   3.650   7.302 -0.4347 -1.3916  1.0892
 5464TIP3   OH237950   4.383   5.329   1.842 -0.1582  0.0595  0.3917
 5464TIP3    H137951   4.324   5.275   1.894 -0.4914 -0.6413 -0.6889
 5464TIP3    H237952   4.447   5.268   1.807 -0.5536  0.3238 -0.8658
 5465TIP3   OH237953   2.791   6.457   1.106 -0.4449  0.0258 -0.0841
 5465TIP3    H137954   2.722   6.515   1.074  1.2168  1.3189 -1.5418
 5465TIP3    H237955   2.809   6.399   1.032 -0.9590 -1.2906  0.8012
 5466TIP3   OH237956   1.871   5.979   2.022 -0.8068 -0.4231 -0.0457
 5466TIP3    H137957   1.779   5.981   1.995 -1.1096 -2.2325  0.7257
 5466TIP3    H237958   1.914   5.927   1.955 -0.2536  0.6302 -0.5407
 5467TIP3   OH237959   3.620   6.563   7.978 -0.1275  0.9699 -0.2410
 5467TIP3    H137960   3.550   6.557   8.044 -0.6565 -1.8097 -0.9140
 5467TIP3    H237961   3.699   6.584   8.029 -0.9531  1.4402  0.9010
 5468TIP3   OH237962   6.107   6.469   9.249  0.6300 -0.2015 -0.6121
 5468TIP3    H137963   6.170   6.537   9.275 -0.1200  0.1358  0.3656
 5468TIP3    H237964   6.155   6.416   9.186  1.4012  0.9375 -1.0270
 5469TIP3   OH237965   5.626   3.524   7.919  0.7810 -0.4588  0.0085
 5469TIP3    H137966   5.681   3.487   7.850  0.5990 -0.7388  0.0117
 5469TIP3    H237967   5.578   3.449   7.955 -0.3817 -0.0947 -0.7013
 5470TIP3   OH237968   4.623   4.279   8.638 -0.0594 -0.1639 -0.0536
 5470TIP3    H137969   4.618   4.222   8.715 -1.8170 -0.6101 -0.4454
 5470TIP3    H237970   4.564   4.239   8.574 -0.0940  1.2163 -0.9445
 5471TIP3   OH237971   6.077   1.505   7.959 -0.3524 -0.5407 -0.2225
 5471TIP3    H137972   6.054   1.572   8.023  0.6532  0.3378 -0.7535
 5471TIP3    H237973   6.169   1.485   7.977 -0.8347 -2.3659  0.4271
 5472TIP3   OH237974   0.679   0.433   0.149 -0.3922  0.0998  0.3318
 5472TIP3    H137975   0.634   0.391   0.222 -2.0469  0.1372 -0.6220
 5472TIP3    H237976   0.754   0.477   0.190 -0.3039 -1.2568  1.7578
 5473TIP3   OH237977   0.956   1.758   8.174 -0.2208 -0.3478  0.4310
 5473TIP3    H137978   0.940   1.798   8.259 -2.1634 -1.0870  0.4677
 5473TIP3    H237979   0.874   1.770   8.125  1.6449  2.4103 -2.4063
 5474TIP3   OH237980   5.022   3.232   1.713  0.3069 -0.1163 -0.4152
 5474TIP3    H137981   4.971   3.194   1.642  0.0866  0.7166 -0.7009
 5474TIP3    H237982   5.074   3.301   1.672  0.7307 -0.1223  0.0988
 5475TIP3   OH237983   1.877   5.259   1.717 -0.0688 -0.1388 -0.0319
 5475TIP3    H137984   1.945   5.202   1.680  0.2781  0.2858 -0.0565
 5475TIP3    H237985   1.797   5.235   1.671  0.5174  1.0410 -1.7821
 5476TIP3   OH237986   0.713   2.303   8.596 -0.2734  0.8666 -0.6925
 5476TIP3    H137987   0.623   2.293   8.565  0.3211 -0.7039 -2.0962
 5476TIP3    H237988   0.708   2.290   8.690 -1.3662 -0.4433 -0.9048
 5477TIP3   OH237989   4.250   6.289   1.213  0.1742  0.1298  0.1049
 5477TIP3    H137990   4.242   6.380   1.183  2.2016  0.9448  1.7114
 5477TIP3    H237991   4.326   6.255   1.167  1.7687  0.5787  2.2233
 5478TIP3   OH237992   4.705   1.519   0.340  0.1368  0.5172 -0.0602
 5478TIP3    H137993   4.622   1.522   0.387 -0.2577  0.4225 -0.7312
 5478TIP3    H237994   4.721   1.610   0.313 -0.1178  0.4238 -0.5434
 5479TIP3   OH237995   1.454   4.651   1.614 -0.2974  0.5123  0.0973
 5479TIP3    H137996   1.448   4.653   1.710  2.5168  0.1584  0.3585
 5479TIP3    H237997   1.523   4.714   1.593 -0.4406  0.1355 -1.6697
 5480TIP3   OH237998   3.913   5.748   8.895 -0.4659  0.2207 -0.0395
 5480TIP3    H137999   3.982   5.701   8.942 -1.1171  0.0732  0.8087
 5480TIP3    H238000   3.958   5.821   8.854  0.7128 -1.5221 -2.0545
 5481TIP3   OH238001   2.770   0.390   1.387 -0.2467  0.0384 -0.6147
 5481TIP3    H138002   2.696   0.340   1.354  0.0893  0.4812 -2.1144
 5481TIP3    H238003   2.771   0.470   1.334  1.1703  0.1311 -0.4911
 5482TIP3   OH238004   4.258   3.690   8.963  0.2318 -0.3151 -0.1606
 5482TIP3    H138005   4.243   3.596   8.972  0.7286 -0.2086  2.3468
 5482TIP3    H238006   4.348   3.704   8.992 -0.0669  1.0042  0.2205
 5483TIP3   OH238007   3.877   2.794   1.710 -0.5159 -0.3948 -0.2681
 5483TIP3    H138008   3.972   2.796   1.700 -0.2566 -2.2499  1.2402
 5483TIP3    H238009   3.846   2.872   1.665  1.7846  0.7045 -0.0537
 5484TIP3   OH238010   1.365   6.365   1.416  0.1283 -0.0904  0.1427
 5484TIP3    H138011   1.402   6.277   1.429 -1.2334 -0.6390  0.4656
 5484TIP3    H238012   1.402   6.416   1.488  1.0867 -0.3399 -0.1582
 5485TIP3   OH238013   5.592   4.978   8.288 -0.6501 -0.2383 -0.1201
 5485TIP3    H138014   5.516   4.925   8.314 -1.3831  1.6869  2.0249
 5485TIP3    H238015   5.557   5.039   8.223 -0.5725 -0.3344 -0.2515
 5486TIP3   OH238016   5.616   0.296   0.901 -0.3059  0.2407 -0.1535
 5486TIP3    H138017   5.539   0.312   0.848 -0.9914 -0.1725  0.6878
 5486TIP3    H238018   5.583   0.289   0.991  0.8561  1.3432  0.4004
 5487TIP3   OH238019   0.364   0.068   0.155  0.0372  0.5239  0.2762
 5487TIP3    H138020   0.281   0.052   0.200  0.0656 -0.2231  0.0878
 5487TIP3    H238021   0.340   0.080   0.063  0.1577 -0.0060  0.1706
 5488TIP3   OH238022   0.360   6.232   1.895  0.0314  0.1281  0.2167
 5488TIP3    H138023   0.420   6.157   1.898  2.5071  1.9492 -0.8056
 5488TIP3    H238024   0.342   6.244   1.801 -2.7836 -0.8933  0.5149
 5489TIP3   OH238025   1.786   0.592   8.901 -0.0269  0.1327  0.2881
 5489TIP3    H138026   1.766   0.616   8.811 -1.3160  0.9840  0.7806
 5489TIP3    H238027   1.738   0.655   8.954  0.2592 -0.7033  1.5845
 5490TIP3   OH238028   4.888   2.954   3.483 -0.4716  0.0358 -0.4635
 5490TIP3    H138029   4.812   2.896   3.485  0.2349 -0.9369 -0.6611
 5490TIP3    H238030   4.959   2.898   3.451  0.2650  0.9901 -0.5315
 5491TIP3   OH238031   6.234   3.987   1.130 -0.9140 -0.2872 -1.0193
 5491TIP3    H138032   6.273   4.072   1.152  1.7581 -1.0844 -2.2080
 5491TIP3    H238033   6.224   3.942   1.214 -2.6580  1.2401 -0.3402
 5492TIP3   OH238034   4.516   3.383   8.245  0.4240  0.5533  0.0031
 5492TIP3    H138035   4.464   3.303   8.253 -0.2439  1.1293  2.0951
 5492TIP3    H238036   4.606   3.353   8.235 -0.0942 -0.4458 -2.3938
 5493TIP3   OH238037   0.236   3.858   8.839  0.0774 -0.0331  0.3352
 5493TIP3    H138038   0.213   3.926   8.902 -1.2187 -1.2446  1.2459
 5493TIP3    H238039   0.273   3.788   8.893  2.8707  0.4602 -0.7323
 5494TIP3   OH238040   0.844   0.630   0.724  0.0355 -0.2716 -0.3133
 5494TIP3    H138041   0.909   0.699   0.734 -0.3695 -0.2026  2.7284
 5494TIP3    H238042   0.760   0.676   0.727 -0.2260 -0.6961 -0.8237
 5495TIP3   OH238043   3.431   0.931   0.764  0.7315  0.2210  0.5856
 5495TIP3    H138044   3.372   1.005   0.750 -0.6306 -1.0609 -0.8284
 5495TIP3    H238045   3.460   0.940   0.855 -0.7698  1.5339  0.9817
 5496TIP3   OH238046   1.469   2.683   1.939  0.4694 -0.4398  0.2538
 5496TIP3    H138047   1.430   2.739   1.872  1.0334 -1.2259 -0.7693
 5496TIP3    H238048   1.416   2.698   2.017 -0.4940  0.1506 -0.4939
 5497TIP3   OH238049   2.739   4.843   2.388 -0.4747 -0.3553 -0.5869
 5497TIP3    H138050   2.677   4.887   2.330  0.0027  0.5935 -0.3972
 5497TIP3    H238051   2.819   4.895   2.382 -1.0858  1.2157  2.6535
 5498TIP3   OH238052   0.946   0.601   9.293  0.2056  0.3497 -0.1699
 5498TIP3    H138053   0.889   0.645   9.356 -0.2396 -1.0018  0.4130
 5498TIP3    H238054   1.030   0.591   9.338  0.0071 -0.2626  0.0739
 5499TIP3   OH238055   3.764   4.922   8.187 -0.1724  0.5297 -0.3192
 5499TIP3    H138056   3.823   4.964   8.124 -1.0390 -0.0031 -1.5171
 5499TIP3    H238057   3.805   4.837   8.205  1.2370  1.5266  1.6020
 5500TIP3   OH238058   5.003   3.551   1.158  0.0294  0.8268 -0.5354
 5500TIP3    H138059   5.084   3.500   1.161  0.0855  0.9214  1.8612
 5500TIP3    H238060   5.013   3.617   1.227 -2.4484  0.2044  0.5687
 5501TIP3   OH238061   1.435   0.614   2.379 -0.2081 -0.0492 -0.6424
 5501TIP3    H138062   1.380   0.668   2.323 -0.4404  0.1034 -0.2714
 5501TIP3    H238063   1.483   0.677   2.434 -1.2748 -0.2320  0.5368
 5502TIP3   OH238064   0.172   3.485   8.121  0.4213 -0.0675  0.1619
 5502TIP3    H138065   0.081   3.499   8.095  0.6368 -0.8927 -1.1526
 5502TIP3    H238066   0.167   3.420   8.192 -0.1261  1.6523  1.7859
 5503TIP3   OH238067   1.509   5.056   2.304  0.1372 -0.1524  0.5451
 5503TIP3    H138068   1.532   5.125   2.366 -0.4530  1.0207 -0.5050
 5503TIP3    H238069   1.576   5.063   2.235 -0.0592 -0.4912  0.3167
 5504TIP3   OH238070   3.684   5.351   7.494  0.1310 -0.7363  0.3937
 5504TIP3    H138071   3.613   5.361   7.431 -0.3203  0.1331  1.0176
 5504TIP3    H238072   3.757   5.400   7.456 -0.3648  0.4110  0.8521
 5505TIP3   OH238073   2.497   5.004   1.598 -0.2911  0.1892 -0.0021
 5505TIP3    H138074   2.505   5.042   1.510 -2.2372  1.7040  0.3943
 5505TIP3    H238075   2.432   4.934   1.588  0.5788 -0.6497 -0.0071
 5506TIP3   OH238076   4.093   2.426   2.881  0.6671  0.6683  0.1123
 5506TIP3    H138077   4.005   2.397   2.905  0.2713  0.7504 -1.1742
 5506TIP3    H238078   4.100   2.514   2.917  0.4987  0.3898  0.8412
 5507TIP3   OH238079   4.681   5.448   8.579 -0.1386  0.4220 -0.1539
 5507TIP3    H138080   4.750   5.463   8.514 -1.0992 -1.5328 -1.7149
 5507TIP3    H238081   4.720   5.386   8.641 -0.0017  0.4617 -0.2000
 5508TIP3   OH238082   0.394   4.132   1.587 -0.2287  0.1872 -0.2340
 5508TIP3    H138083   0.489   4.124   1.597 -0.1977 -1.3302 -1.4325
 5508TIP3    H238084   0.359   4.122   1.676  0.6340 -1.1375 -0.0262
 5509TIP3   OH238085   4.873   5.236   8.475 -0.2518 -0.0497  0.4691
 5509TIP3    H138086   4.940   5.206   8.536  0.6301  1.3280  0.2314
 5509TIP3    H238087   4.922   5.290   8.411 -1.8916  3.7013  2.0549
 5510TIP3   OH238088   3.435   5.375   3.221 -0.1042 -0.2204 -0.2288
 5510TIP3    H138089   3.530   5.366   3.233  0.0521  1.9054  0.5224
 5510TIP3    H238090   3.416   5.322   3.143  2.2098  1.5741 -2.1809
 5511TIP3   OH238091   3.598   2.766   8.832  0.0190 -0.0524 -0.0762
 5511TIP3    H138092   3.655   2.783   8.758 -1.1193  2.1560 -0.5202
 5511TIP3    H238093   3.656   2.730   8.899  1.2782 -0.9727 -1.5923
 5512TIP3   OH238094   0.219   3.004   0.220 -0.2486  0.1075 -0.0292
 5512TIP3    H138095   0.188   2.915   0.207 -0.5372  0.4199 -1.7307
 5512TIP3    H238096   0.269   3.025   0.141  3.4103  0.0751  2.0563
 5513TIP3   OH238097   0.920   3.404   2.127  0.0207  0.5513 -0.3596
 5513TIP3    H138098   0.894   3.336   2.065 -0.6605 -0.1241  0.6298
 5513TIP3    H238099   1.008   3.377   2.157 -0.4251 -0.1639  0.3584
 5514TIP3   OH238100   1.075   4.678   8.564  0.0006  0.1738 -0.0620
 5514TIP3    H138101   1.001   4.737   8.574 -0.2942 -0.2717  0.3890
 5514TIP3    H238102   1.102   4.689   8.472  1.8300  3.2310  0.6835
 5515TIP3   OH238103   2.214   5.325   2.166  0.4588 -0.2691 -0.3485
 5515TIP3    H138104   2.177   5.413   2.159 -0.0441 -0.4295  0.2734
 5515TIP3    H238105   2.143   5.266   2.140  0.7750 -0.5001 -0.7026
 5516TIP3   OH238106   3.747   2.378   7.642 -0.1899 -0.1963  0.5561
 5516TIP3    H138107   3.737   2.464   7.681  0.9692  0.0193  0.4209
 5516TIP3    H238108   3.714   2.317   7.709  2.8114  0.0783  2.4543
 5517TIP3   OH238109   2.199   6.193   1.028 -0.1571 -0.5309 -0.1455
 5517TIP3    H138110   2.197   6.267   1.088 -1.1516  1.0207 -2.0105
 5517TIP3    H238111   2.209   6.232   0.941  0.6486 -2.6666 -1.0836
 5518TIP3   OH238112   0.727   4.243   2.070 -0.1921 -0.8142 -0.1368
 5518TIP3    H138113   0.697   4.276   2.155 -2.3248  0.4756 -1.3258
 5518TIP3    H238114   0.720   4.148   2.078 -2.2608 -0.6497  0.5147
 5519TIP3   OH238115   4.986   4.973   0.044 -0.1296  0.2496  0.0810
 5519TIP3    H138116   4.943   4.935   0.121 -0.6917  1.0105  0.1551
 5519TIP3    H238117   5.079   4.952   0.056 -0.4811 -1.6473 -0.2232
 5520TIP3   OH238118   5.577   6.173   0.046  0.4462  0.5384  0.0830
 5520TIP3    H138119   5.497   6.226   0.050 -2.0949 -2.6529 -2.7167
 5520TIP3    H238120   5.612   6.188  -0.042  0.4751 -1.2577 -0.2496
 5521TIP3   OH238121   0.063   5.306   2.198  0.0009  0.2228 -0.6784
 5521TIP3    H138122   0.116   5.232   2.168  2.4575  1.9235 -0.7969
 5521TIP3    H238123   0.110   5.383   2.167 -1.9638  1.8858  0.2587
 5522TIP3   OH238124   6.278   6.198   1.506 -0.1987 -0.2354 -0.3426
 5522TIP3    H138125   6.308   6.122   1.455 -0.1530  0.1213 -0.8526
 5522TIP3    H238126   6.355   6.255   1.511 -0.6285  0.4562 -1.2330
 5523TIP3   OH238127   1.868   0.821   2.318 -0.1957 -0.0136 -0.3297
 5523TIP3    H138128   1.832   0.856   2.399  0.0734 -0.8864  0.1757
 5523TIP3    H238129   1.815   0.744   2.298 -0.0738  0.0233 -0.8236
 5524TIP3   OH238130   0.139   1.123   1.092 -0.3728 -0.2643 -0.0128
 5524TIP3    H138131   0.189   1.143   1.012 -0.9342  2.1617  0.1621
 5524TIP3    H238132   0.151   1.200   1.148 -1.5440 -1.0950  1.4589
 5525TIP3   OH238133   2.383   4.734   0.056  0.6795 -0.4045 -0.2574
 5525TIP3    H138134   2.290   4.722   0.074 -0.0810  1.6052 -2.2657
 5525TIP3    H238135   2.392   4.828   0.040  2.7136 -0.7829 -1.7628
 5526TIP3   OH238136   2.885   5.394   8.920  0.1614 -0.2860  0.1926
 5526TIP3    H138137   2.904   5.349   8.838  3.1363 -1.0611  1.1931
 5526TIP3    H238138   2.825   5.336   8.966 -0.3464 -0.5573 -0.7806
 5527TIP3   OH238139   4.814   3.561   0.949 -0.6987  0.2605  0.9171
 5527TIP3    H138140   4.757   3.627   0.988 -1.5680 -0.6131  1.1665
 5527TIP3    H238141   4.871   3.534   1.022 -0.7892  0.2618  0.9892
 5528TIP3   OH238142   4.901   0.475   7.661  0.0286  0.2048  0.3028
 5528TIP3    H138143   4.809   0.452   7.653 -0.2765  1.4594  0.0643
 5528TIP3    H238144   4.922   0.522   7.581  0.4750  1.1999  0.9787
 5529TIP3   OH238145   2.876   6.558   1.362  0.3056  0.0013 -0.2427
 5529TIP3    H138146   2.890   6.643   1.321 -0.3431  0.3290  0.2046
 5529TIP3    H238147   2.829   6.507   1.296 -4.1427  1.7084  1.2489
 5530TIP3   OH238148   4.523   4.727   1.844  0.9452 -0.4846  0.3206
 5530TIP3    H138149   4.576   4.657   1.805  2.1146  0.9210 -0.7236
 5530TIP3    H238150   4.582   4.771   1.905  0.3641 -0.0854  0.6062
 5531TIP3   OH238151   4.863   5.582   0.128 -0.9282  0.2803 -0.2261
 5531TIP3    H138152   4.904   5.656   0.173 -0.0482 -0.2412 -0.1624
 5531TIP3    H238153   4.831   5.620   0.046  0.8620  0.4457 -0.8856
 5532TIP3   OH238154   2.950   5.589   0.139 -0.6263  0.0785 -0.3778
 5532TIP3    H138155   2.902   5.506   0.147  0.4992 -0.5172  0.4547
 5532TIP3    H238156   3.006   5.592   0.217  0.3253  0.9868 -1.0731
 5533TIP3   OH238157   2.006   2.585   1.150  0.0142 -0.4698  0.5614
 5533TIP3    H138158   1.987   2.532   1.073 -1.0946  1.1870 -0.3623
 5533TIP3    H238159   2.091   2.624   1.131  0.7766 -1.7608  1.1909
 5534TIP3   OH238160   0.111   2.731   9.191 -0.0166  0.5087 -0.7575
 5534TIP3    H138161   0.167   2.654   9.203 -2.2779 -2.1589 -4.7667
 5534TIP3    H238162   0.154   2.781   9.122 -0.4331  0.8318 -0.7839
 5535TIP3   OH238163   4.361   2.157   9.110  0.3399 -0.4118 -0.8931
 5535TIP3    H138164   4.368   2.234   9.166  0.4059 -0.6770 -0.5314
 5535TIP3    H238165   4.452   2.136   9.087  0.7193 -2.5771  2.0460
 5536TIP3   OH238166   1.622   0.365   2.391 -0.6503 -0.3741  0.6407
 5536TIP3    H138167   1.588   0.284   2.428 -0.8908 -1.7004 -2.2098
 5536TIP3    H238168   1.550   0.428   2.399 -1.0489 -0.9273  1.4340
 5537TIP3   OH238169   6.577   2.412   1.308  0.1163 -0.4684  0.4942
 5537TIP3    H138170   6.544   2.501   1.323 -1.0116 -0.9265  0.8207
 5537TIP3    H238171   6.551   2.364   1.387  0.0038 -1.2850 -0.0331
 5538TIP3   OH238172   4.837   2.636   0.208  0.3658 -0.0064  0.5042
 5538TIP3    H138173   4.883   2.576   0.149 -0.3817  0.4458 -0.5802
 5538TIP3    H238174   4.806   2.580   0.279 -0.6897 -1.0310 -0.6996
 5539TIP3   OH238175   3.118   5.402   1.718 -0.1183  0.2692  0.4566
 5539TIP3    H138176   3.086   5.311   1.715 -1.4887  0.7270  0.5954
 5539TIP3    H238177   3.174   5.410   1.641 -0.1113 -0.6483  0.3543
 5540TIP3   OH238178   3.172   3.704   1.068 -0.4886 -0.4876  0.4451
 5540TIP3    H138179   3.188   3.778   1.126 -0.3471 -0.1909  0.0345
 5540TIP3    H238180   3.108   3.736   1.005  1.0343 -0.0441 -0.9418
 5541TIP3   OH238181   1.694   4.817   1.480  0.2979 -0.2786 -0.1470
 5541TIP3    H138182   1.696   4.896   1.534 -0.4376 -0.8949  0.8174
 5541TIP3    H238183   1.752   4.755   1.525 -1.7417 -1.4427  1.0537
 5542TIP3   OH238184   1.093   2.941   1.482  0.4628 -0.2187  0.2126
 5542TIP3    H138185   1.073   3.035   1.478  0.4472 -0.2447 -0.3764
 5542TIP3    H238186   1.129   2.920   1.396  1.0544 -0.6236  0.5544
 5543TIP3   OH238187   5.745   0.290   2.525 -0.6870 -0.1739  0.0769
 5543TIP3    H138188   5.756   0.216   2.584  1.3558  0.3459  0.4313
 5543TIP3    H238189   5.720   0.363   2.582 -2.7451 -0.5447 -0.2758
 5544TIP3   OH238190   4.998   6.488   0.729 -0.4668 -0.9991  0.1327
 5544TIP3    H138191   4.954   6.428   0.789 -0.0223 -0.1779  1.3023
 5544TIP3    H238192   5.091   6.470   0.740 -0.0458  1.9225  2.8750
 5545TIP3   OH238193   2.536   0.615   8.429 -0.2789  0.3767  0.3170
 5545TIP3    H138194   2.602   0.545   8.436 -0.1711  0.5722  1.4412
 5545TIP3    H238195   2.461   0.581   8.477 -0.4572  0.7719  0.3142
 5546TIP3   OH238196   2.360   3.175   2.153 -0.3222  0.2563 -0.1632
 5546TIP3    H138197   2.448   3.141   2.140 -0.8654 -0.8831 -1.1169
 5546TIP3    H238198   2.305   3.096   2.158 -1.2160  0.9203  1.0132
 5547TIP3   OH238199   6.023   3.582   1.794  0.1798  0.0562  0.3495
 5547TIP3    H138200   5.996   3.544   1.710  0.6458  0.3008  0.0864
 5547TIP3    H238201   6.072   3.513   1.837  1.3416  0.4450 -0.2838
 5548TIP3   OH238202   4.763   0.012   8.319 -0.6714  0.1704  0.2124
 5548TIP3    H138203   4.679   0.031   8.277  0.0115  1.3303 -0.6457
 5548TIP3    H238204   4.829   0.048   8.261  0.3756  0.4765  1.5391
 5549TIP3   OH238205   2.188   4.904   2.795  0.4861  0.2318  0.3223
 5549TIP3    H138206   2.215   4.876   2.707  0.7691 -1.2247  0.8575
 5549TIP3    H238207   2.205   4.999   2.795  0.2209  0.3170 -1.2788
 5550TIP3   OH238208   2.055   0.579   2.377  0.1154 -0.2986  0.4062
 5550TIP3    H138209   2.081   0.670   2.394  2.0230 -0.7694  0.2451
 5550TIP3    H238210   2.094   0.558   2.292 -0.2947 -1.2705  0.4468
 5551TIP3   OH238211   3.625   1.587   2.749  0.0025 -0.0027 -0.1640
 5551TIP3    H138212   3.559   1.522   2.774  0.2121 -0.5162 -0.8957
 5551TIP3    H238213   3.598   1.616   2.662  1.3448 -1.0859 -0.9911
 5552TIP3   OH238214   5.182   2.371   9.025  0.6574  0.1183 -0.2130
 5552TIP3    H138215   5.202   2.416   9.107  0.4520 -0.1750  0.0014
 5552TIP3    H238216   5.169   2.441   8.961  0.8473  0.3472 -0.0010
 5553TIP3   OH238217   5.323   2.433   7.880  0.1524  1.0048 -0.0631
 5553TIP3    H138218   5.258   2.366   7.861 -0.3760  1.0354  1.4908
 5553TIP3    H238219   5.344   2.471   7.795 -1.0450  0.2451 -0.7229
 5554TIP3   OH238220   0.437   4.458   0.336 -0.0190 -0.4015  0.2641
 5554TIP3    H138221   0.359   4.455   0.281  0.3830 -0.3724 -0.3184
 5554TIP3    H238222   0.487   4.533   0.303  0.0996 -0.2199  0.8471
 5555TIP3   OH238223   5.910   0.666   2.217 -0.3501 -0.0341  0.1077
 5555TIP3    H138224   5.917   0.762   2.211 -1.9945  0.2368  1.6672
 5555TIP3    H238225   5.820   0.651   2.246  0.0814 -2.0396  0.5173
 5556TIP3   OH238226   5.952   2.460   1.557 -0.2414  0.2944  0.3301
 5556TIP3    H138227   5.897   2.524   1.513  0.9263  1.4176  0.4338
 5556TIP3    H238228   5.894   2.386   1.574 -1.3962  0.9427 -0.6217
 5557TIP3   OH238229   6.300   5.061   9.066  0.5805 -0.0134  0.0875
 5557TIP3    H138230   6.282   5.022   9.151 -1.1187 -1.9331 -1.0345
 5557TIP3    H238231   6.234   5.130   9.056  0.4536 -0.1264  0.1396
 5558TIP3   OH238232   3.076   2.264   8.163  0.1037 -0.1592 -0.4742
 5558TIP3    H138233   3.001   2.210   8.186 -0.3852  0.0492 -1.5097
 5558TIP3    H238234   3.062   2.287   8.071  0.9907  0.6055 -0.4386
 5559TIP3   OH238235   4.318   2.569   8.490  0.0346 -0.3780  0.4054
 5559TIP3    H138236   4.225   2.594   8.496 -0.3983 -2.0062  1.1731
 5559TIP3    H238237   4.354   2.591   8.576  1.0120  2.4007 -0.5996
 5560TIP3   OH238238   2.886   3.556   8.173 -1.0322 -0.1659 -0.4293
 5560TIP3    H138239   2.877   3.632   8.116 -1.3287 -0.4357 -0.7422
 5560TIP3    H238240   2.928   3.489   8.118 -0.4717 -0.1281 -0.0624
 5561TIP3   OH238241   3.723   0.032   0.199 -0.1235 -0.2056 -0.5158
 5561TIP3    H138242   3.786   0.093   0.237  0.4302 -0.3242 -1.2250
 5561TIP3    H238243   3.705  -0.030   0.270  0.0838  0.1821 -0.1147
 5562TIP3   OH238244   5.833   2.151   1.778 -0.3437 -0.2420  0.6653
 5562TIP3    H138245   5.916   2.183   1.812  0.2341 -0.6981 -0.2994
 5562TIP3    H238246   5.785   2.231   1.754  0.1890 -0.0066  0.3625
 5563TIP3   OH238247   5.236   3.863   7.294 -0.1487 -0.2197 -0.3918
 5563TIP3    H138248   5.320   3.864   7.340 -0.0068 -2.9127 -0.4712
 5563TIP3    H238249   5.256   3.826   7.208 -1.4263 -1.1215 -0.3205
 5564TIP3   OH238250   6.456   0.355   2.903 -0.5703  0.7114  0.2244
 5564TIP3    H138251   6.541   0.355   2.858 -0.4273  1.4078  0.4930
 5564TIP3    H238252   6.455   0.436   2.953 -2.1033  1.5783 -1.1124
 5565TIP3   OH238253   3.808   3.129   2.529  0.4198 -0.1566 -0.3577
 5565TIP3    H138254   3.755   3.114   2.608 -1.0846 -0.0981 -1.3339
 5565TIP3    H238255   3.756   3.094   2.458  1.2334  0.8546 -1.4880
 5566TIP3   OH238256   2.021   5.222   0.374  0.0543 -0.0964  0.0288
 5566TIP3    H138257   2.089   5.259   0.317 -0.1916  2.2177  1.1405
 5566TIP3    H238258   1.946   5.207   0.316  0.1086  1.3682 -0.4436
 5567TIP3   OH238259   4.013   3.612   8.299  0.2654 -0.3571  0.0889
 5567TIP3    H138260   3.993   3.545   8.233 -1.0152 -0.4097  0.4919
 5567TIP3    H238261   4.067   3.675   8.253 -2.3837  0.7670 -1.7657
 5568TIP3   OH238262   1.834   3.041   1.707 -0.0475  0.3273 -0.3249
 5568TIP3    H138263   1.766   2.976   1.693 -0.4722  0.1693  2.0399
 5568TIP3    H238264   1.898   2.997   1.763  1.1601  1.0271 -1.1011
 5569TIP3   OH238265   6.524   1.149   9.189 -0.0713  0.3334  0.1027
 5569TIP3    H138266   6.516   1.092   9.265  0.1562  0.3049  0.1052
 5569TIP3    H238267   6.606   1.196   9.203 -0.4223  0.9114  0.2730
 5570TIP3   OH238268   3.727   5.448   1.379 -0.1585  0.1601 -0.2307
 5570TIP3    H138269   3.668   5.377   1.352  0.2965  0.7037 -2.8436
 5570TIP3    H238270   3.814   5.411   1.371  0.0087  0.4170  0.3418
 5571TIP3   OH238271   4.020   2.080   9.192  0.2100  0.2145  0.5642
 5571TIP3    H138272   4.098   2.054   9.142  1.1873  1.5230  1.3400
 5571TIP3    H238273   4.043   2.065   9.283 -0.8343 -0.3122  0.7604
 5572TIP3   OH238274   1.703   0.939   3.189 -0.0367 -0.1367  0.0937
 5572TIP3    H138275   1.645   0.938   3.265 -0.7085 -0.1088 -0.4111
 5572TIP3    H238276   1.789   0.917   3.224 -0.3451 -0.1412  0.8585
 5573TIP3   OH238277   4.732   5.516   0.455 -0.2625  0.2270 -0.1139
 5573TIP3    H138278   4.654   5.461   0.454 -1.1326  1.4278 -0.5377
 5573TIP3    H238279   4.792   5.474   0.394 -0.2250 -1.1541  0.8120
 5574TIP3   OH238280   4.726   2.671   9.254  0.0436  0.3386 -0.1166
 5574TIP3    H138281   4.780   2.744   9.284  1.4153 -0.0359 -1.5631
 5574TIP3    H238282   4.747   2.599   9.312  2.0665 -0.1470 -1.3594
 5575TIP3   OH238283   1.663   4.224   8.263 -0.3355 -0.0993  0.2797
 5575TIP3    H138284   1.689   4.299   8.210 -1.2704 -1.1177 -1.7332
 5575TIP3    H238285   1.681   4.148   8.207  0.9796 -1.4518  2.3995
 5576TIP3   OH238286   2.985   2.009   8.556 -0.1271 -0.0139 -0.0027
 5576TIP3    H138287   3.055   1.972   8.501 -2.9667 -1.5096 -2.9558
 5576TIP3    H238288   2.941   1.933   8.593  0.6050  0.9429  3.1427
 5577TIP3   OH238289   3.109   0.768   0.720  0.0894 -0.1895 -0.1909
 5577TIP3    H138290   3.067   0.683   0.712 -0.4348  0.1606 -1.4017
 5577TIP3    H238291   3.051   0.829   0.674  2.2999  0.1451 -2.8064
 5578TIP3   OH238292   2.449   0.147   7.677 -0.4020 -0.3539 -0.1392
 5578TIP3    H138293   2.527   0.139   7.621 -0.7310  1.9681 -1.0668
 5578TIP3    H238294   2.470   0.218   7.737 -0.7466 -1.6427  1.5748
 5579TIP3   OH238295   6.503   5.205   8.877 -0.3648  0.2476  0.8265
 5579TIP3    H138296   6.447   5.161   8.940  1.0754  0.2277  2.1528
 5579TIP3    H238297   6.520   5.291   8.916  1.3787 -0.1466  1.0182
 5580TIP3   OH238298   3.832   1.581   8.941  0.0643  0.1535 -0.1336
 5580TIP3    H138299   3.815   1.487   8.940  2.2988 -0.3267  0.7505
 5580TIP3    H238300   3.840   1.605   8.849 -1.0800 -0.3718 -0.3925
 5581TIP3   OH238301   5.419   0.533   0.068  0.0273  0.6072  0.0488
 5581TIP3    H138302   5.488   0.474   0.097  0.6154  0.4425 -1.6304
 5581TIP3    H238303   5.456   0.620   0.076  0.2436  0.5522 -0.3553
 5582TIP3   OH238304   4.476   4.729   2.954 -0.0760 -0.1858 -0.1463
 5582TIP3    H138305   4.428   4.733   2.871  2.0435  1.0866 -1.4156
 5582TIP3    H238306   4.430   4.663   3.005 -2.2852 -0.0447 -1.7786
 5583TIP3   OH238307   4.212   3.151   0.563 -0.4114 -0.3032 -0.2602
 5583TIP3    H138308   4.266   3.179   0.637 -0.2168 -0.4300 -0.3545
 5583TIP3    H238309   4.174   3.068   0.591 -1.5124  0.3643  0.2817
 5584TIP3   OH238310   3.404   3.087   1.642 -0.0088  0.3595 -0.6037
 5584TIP3    H138311   3.372   3.008   1.598 -2.1121 -0.1356  1.6416
 5584TIP3    H238312   3.373   3.159   1.586 -1.1501 -0.2968 -0.8529
 5585TIP3   OH238313   0.125   2.489   8.996  0.6001  0.3252  0.6362
 5585TIP3    H138314   0.075   2.535   8.929  0.3226  0.0708  0.6636
 5585TIP3    H238315   0.087   2.519   9.079  1.0221  0.7306  0.6832
 5586TIP3   OH238316   4.077   2.966   0.275 -0.1306 -0.0811 -0.1596
 5586TIP3    H138317   4.124   2.895   0.231 -0.5990 -0.6020  0.1778
 5586TIP3    H238318   4.003   2.985   0.217  0.2896  0.5073 -0.5190
 5587TIP3   OH238319   2.242   1.076   7.828  0.2394  0.6094 -0.0567
 5587TIP3    H138320   2.174   1.040   7.771  0.0363 -1.0673  1.1796
 5587TIP3    H238321   2.272   1.155   7.782 -1.4583  0.5524 -1.3648
 5588TIP3   OH238322   5.306   3.742   1.433 -0.3664  0.2784  0.2175
 5588TIP3    H138323   5.216   3.774   1.426 -0.1271  1.1424  0.9464
 5588TIP3    H238324   5.342   3.755   1.345 -0.6368  0.9159  0.1891
 5589TIP3   OH238325   1.013   2.006   8.532  0.4793  0.2772  0.0584
 5589TIP3    H138326   1.068   2.025   8.608 -0.2790  0.2979  0.6081
 5589TIP3    H238327   1.062   2.043   8.458  1.4352 -0.1383  0.4611
 5590TIP3   OH238328   6.213   5.734   2.359 -0.3240 -0.4041  0.6853
 5590TIP3    H138329   6.253   5.730   2.273  0.3913  2.0796  0.8265
 5590TIP3    H238330   6.121   5.710   2.344 -0.8959  2.5026 -1.3338
 5591TIP3   OH238331   0.778   3.666   1.471 -1.2438 -0.5383  0.2128
 5591TIP3    H138332   0.717   3.730   1.434 -2.8589 -1.0422  1.8705
 5591TIP3    H238333   0.828   3.716   1.536  1.4585  0.3000 -2.2693
 5592TIP3   OH238334   5.494   3.392   8.597  0.5793 -0.9514 -0.1272
 5592TIP3    H138335   5.490   3.358   8.508  2.0535  0.6934 -0.8887
 5592TIP3    H238336   5.584   3.377   8.625  0.7392  0.5200  0.2269
 5593TIP3   OH238337   3.208   0.949   1.377  0.5212 -0.2521  0.0998
 5593TIP3    H138338   3.227   1.042   1.390  0.7713 -0.2093 -0.5207
 5593TIP3    H238339   3.115   0.947   1.353 -0.0892 -0.3822  2.2970
 5594TIP3   OH238340   3.749   0.653   0.988 -0.2339 -0.6242 -0.5974
 5594TIP3    H138341   3.670   0.628   0.939 -0.4565 -1.4866  0.1842
 5594TIP3    H238342   3.743   0.605   1.070  0.3610  0.4618  0.1046
 5595TIP3   OH238343   2.958   5.399   2.516 -0.5512  0.2093 -0.4732
 5595TIP3    H138344   2.971   5.468   2.452  0.4641  0.2192 -0.2787
 5595TIP3    H238345   3.045   5.360   2.527 -0.8785 -0.3363  0.2748
 5596TIP3   OH238346   4.176   0.671   2.554  0.1635 -0.6372 -0.3544
 5596TIP3    H138347   4.141   0.727   2.623 -0.3381 -0.0174 -1.0845
 5596TIP3    H238348   4.098   0.640   2.508  0.5025 -0.5973 -0.9676
 5597TIP3   OH238349   5.633   1.570   0.536 -0.2709 -0.7943 -0.2818
 5597TIP3    H138350   5.710   1.543   0.586 -2.4732 -0.7367  3.6283
 5597TIP3    H238351   5.604   1.491   0.491  0.5428 -1.5257  0.4357
 5598TIP3   OH238352   0.715   0.336   3.169 -0.0519  0.2387 -0.5677
 5598TIP3    H138353   0.646   0.395   3.140 -1.0812 -0.6131  0.0498
 5598TIP3    H238354   0.722   0.352   3.263  0.2924  0.0185 -0.5531
 5599TIP3   OH238355   3.922   2.575   2.324  0.3610 -0.0738 -0.2945
 5599TIP3    H138356   3.909   2.481   2.332  2.1417 -0.2482  1.3177
 5599TIP3    H238357   4.017   2.587   2.331  0.3032  1.7526 -1.7477
 5600TIP3   OH238358   6.227   4.450   0.343  0.4244 -0.7185 -0.2635
 5600TIP3    H138359   6.270   4.446   0.429 -0.8898 -0.1832  0.4543
 5600TIP3    H238360   6.142   4.407   0.357 -0.2975  0.4252 -0.9773
 5601TIP3   OH238361   0.035   6.622   0.130  0.1234 -0.5153  0.1796
 5601TIP3    H138362   0.042   6.553   0.196 -0.3981  0.4928  1.3485
 5601TIP3    H238363  -0.021   6.688   0.171  0.6430  0.6273 -0.8722
 5602TIP3   OH238364   1.685   0.877   0.956  0.1853  0.3196  0.2615
 5602TIP3    H138365   1.620   0.837   0.899  1.2230 -0.9763 -0.0586
 5602TIP3    H238366   1.760   0.817   0.954  0.6529  0.7485  2.1668
 5603TIP3   OH238367   4.244   2.317   1.593 -0.1422 -0.4202  0.1412
 5603TIP3    H138368   4.310   2.376   1.627 -2.4247  1.7228  1.1379
 5603TIP3    H238369   4.215   2.357   1.511 -1.5917 -0.1725  0.7378
 5604TIP3   OH238370   0.375   4.786   1.773  0.0482 -0.0478 -0.1274
 5604TIP3    H138371   0.395   4.753   1.861 -0.2928 -1.5324 -0.5830
 5604TIP3    H238372   0.296   4.839   1.786  1.4096  1.8782  0.8534
 5605TIP3   OH238373   3.858   5.095   7.962  0.4799  0.0334 -0.0318
 5605TIP3    H138374   3.811   5.177   7.973  0.8481  0.5951 -2.1652
 5605TIP3    H238375   3.950   5.118   7.973  0.5821 -0.0864 -0.5933
 5606TIP3   OH238376   6.190   2.019   8.760  0.3576 -0.8218 -0.0744
 5606TIP3    H138377   6.167   1.935   8.719 -3.7024 -0.5743  1.3206
 5606TIP3    H238378   6.213   1.996   8.850 -1.3841 -0.4930  0.4964
 5607TIP3   OH238379   0.130   0.123   8.452 -0.0022  0.5968  0.0566
 5607TIP3    H138380   0.100   0.118   8.543  0.2224 -0.0256  0.1009
 5607TIP3    H238381   0.219   0.157   8.458  0.5395 -0.7887  0.1884
 5608TIP3   OH238382   4.701   0.354   3.003  0.1319  0.7721 -0.3080
 5608TIP3    H138383   4.688   0.423   3.068  2.0102  0.8229  0.0747
 5608TIP3    H238384   4.787   0.317   3.025 -0.6489 -1.4237 -0.7436
 5609TIP3   OH238385   6.402   4.688   1.877 -0.0269 -0.0771  0.0345
 5609TIP3    H138386   6.352   4.715   1.800 -0.9502 -1.2759  0.1760
 5609TIP3    H238387   6.387   4.594   1.882  0.2252 -0.0496  1.5375
 5610TIP3   OH238388   4.813   1.729   1.451  0.6096  0.4044 -0.0662
 5610TIP3    H138389   4.844   1.725   1.541 -1.5788 -1.4695  0.6921
 5610TIP3    H238390   4.797   1.822   1.435  1.1381  0.7776  1.4221
 5611TIP3   OH238391   1.535   5.302   8.554  0.8514  0.0935  0.2080
 5611TIP3    H138392   1.541   5.229   8.492 -0.0334  0.0830  0.1203
 5611TIP3    H238393   1.560   5.265   8.638 -0.0393 -0.4369  0.2500
 5612TIP3   OH238394   2.783   5.829   1.838 -0.4666  0.2856  0.0617
 5612TIP3    H138395   2.847   5.763   1.812  0.9111  0.9233  1.6177
 5612TIP3    H238396   2.795   5.900   1.774  0.5055  0.4591  0.4229
 5613TIP3   OH238397   0.184   1.499   0.534  0.1184  0.1288  0.0078
 5613TIP3    H138398   0.198   1.413   0.495 -0.1492  0.1024 -0.0291
 5613TIP3    H238399   0.226   1.493   0.620  1.8485  0.5913 -0.7489
 5614TIP3   OH238400   2.724   1.450   2.616  0.3630 -0.6054  0.5083
 5614TIP3    H138401   2.802   1.406   2.583  0.3516 -0.0248 -0.3300
 5614TIP3    H238402   2.656   1.383   2.613  0.4353 -0.6594 -0.3990
 5615TIP3   OH238403   0.978   0.963   8.123  0.2692 -0.3526 -0.3488
 5615TIP3    H138404   1.056   0.937   8.172  0.1751 -0.5840 -0.3210
 5615TIP3    H238405   0.973   0.901   8.050  1.6442  1.2935 -1.9519
 5616TIP3   OH238406   1.746   5.599   8.355 -0.4681  0.2990  0.1412
 5616TIP3    H138407   1.749   5.512   8.317  0.7132  0.5458 -0.3871
 5616TIP3    H238408   1.737   5.584   8.449  1.1001 -0.4531  0.2080
 5617TIP3   OH238409   1.713   3.528   0.872 -0.7023  0.1286  0.2223
 5617TIP3    H138410   1.637   3.480   0.904 -0.5030 -1.9151 -2.1006
 5617TIP3    H238411   1.679   3.582   0.801 -0.2800  0.6140  0.3833
 5618TIP3   OH238412   4.656   0.531   0.745 -0.0347 -0.9839 -0.0947
 5618TIP3    H138413   4.751   0.531   0.754  0.1118 -0.4252 -1.4406
 5618TIP3    H238414   4.640   0.528   0.651 -1.3054  1.1507 -0.0321
 5619TIP3   OH238415   0.861   0.861   9.160  0.1323 -0.0616  0.2778
 5619TIP3    H138416   0.904   0.784   9.195 -0.2757 -0.0243  0.8784
 5619TIP3    H238417   0.908   0.935   9.199 -0.2666 -0.0200  0.6887
 5620TIP3   OH238418   4.778   3.893   2.261 -0.8346 -0.2464 -0.3644
 5620TIP3    H138419   4.759   3.837   2.336  1.6224 -1.9384 -0.8714
 5620TIP3    H238420   4.726   3.857   2.189 -1.4748 -0.0205 -0.0204
 5621TIP3   OH238421   6.256   1.302   1.445  0.3130  0.1067  0.5267
 5621TIP3    H138422   6.203   1.359   1.500  0.8744  0.4796  0.6953
 5621TIP3    H238423   6.320   1.263   1.506  2.8836  2.7716 -0.2417
 5622TIP3   OH238424   1.000   0.721   1.352  0.2256  0.4462  0.1858
 5622TIP3    H138425   0.905   0.706   1.354  0.5445 -2.0430 -0.1204
 5622TIP3    H238426   1.014   0.793   1.414 -1.8689  1.0976 -0.0115
 5623TIP3   OH238427   3.180   5.246   1.152 -0.1422  0.8327 -0.2225
 5623TIP3    H138428   3.188   5.150   1.149  1.0200  0.9230 -0.6210
 5623TIP3    H238429   3.245   5.277   1.090  0.4654  1.9271  0.9189
 5624TIP3   OH238430   4.156   1.906   1.151  0.1021 -0.2503 -0.3553
 5624TIP3    H138431   4.120   1.990   1.122 -0.3431 -0.3055  0.0397
 5624TIP3    H238432   4.241   1.928   1.189 -1.1363  0.4124  2.2531
 5625TIP3   OH238433   1.548   5.745   0.410 -0.0178  0.4524  0.4642
 5625TIP3    H138434   1.586   5.773   0.493 -0.9931  0.4079  0.9415
 5625TIP3    H238435   1.563   5.650   0.407  1.2799  0.6549 -0.0940
 5626TIP3   OH238436   2.456   5.095   1.865 -0.2345  0.0824  0.0648
 5626TIP3    H138437   2.391   5.027   1.883 -1.2700  0.3054 -2.4428
 5626TIP3    H238438   2.469   5.092   1.770  2.6699  0.7721  0.3594
 5627TIP3   OH238439   5.686   5.039   8.725  0.2063 -0.0377  0.1866
 5627TIP3    H138440   5.603   5.022   8.771  0.6475 -1.9623  0.3515
 5627TIP3    H238441   5.662   5.044   8.633 -0.1821  0.1636  0.2949
 5628TIP3   OH238442   3.148   0.497   0.926  0.6189  0.2853 -0.0227
 5628TIP3    H138443   3.089   0.481   0.853  1.1611  2.6013 -1.0756
 5628TIP3    H238444   3.119   0.437   0.995  0.1324 -2.0558 -2.1112
 5629TIP3   OH238445   0.927   0.983   7.738 -0.3367 -0.0741 -0.0403
 5629TIP3    H138446   0.973   0.932   7.804  0.3100 -0.6802 -0.9271
 5629TIP3    H238447   0.840   0.997   7.774  0.5728  1.2902  1.7695
 5630TIP3   OH238448   3.201   1.927   8.373 -0.2347  0.0424  0.0748
 5630TIP3    H138449   3.273   1.970   8.328 -1.6899  0.8999 -1.5528
 5630TIP3    H238450   3.183   1.848   8.321 -1.5036  0.6950 -0.5148
 5631TIP3   OH238451   4.719   5.789   0.775 -0.0087  0.1523  0.1437
 5631TIP3    H138452   4.636   5.766   0.817 -0.8112  1.2033 -0.8062
 5631TIP3    H238453   4.753   5.862   0.827  0.1692 -0.0765  0.3498
 5632TIP3   OH238454   0.454   5.102   2.530 -0.2206  0.1026  0.0992
 5632TIP3    H138455   0.385   5.165   2.553  1.1471  1.5681  0.3668
 5632TIP3    H238456   0.499   5.085   2.613 -1.5100 -2.5181  0.3679
 5633TIP3   OH238457   5.515   4.627   8.935  0.5912  0.2098  0.1671
 5633TIP3    H138458   5.545   4.715   8.959 -1.0851  0.8736 -0.0481
 5633TIP3    H238459   5.529   4.622   8.841 -0.9394  0.9437 -0.1236
 5634TIP3   OH238460   0.887   0.265   0.108 -0.2619  0.6497  0.5989
 5634TIP3    H138461   0.799   0.242   0.139 -0.9415 -0.0991 -1.7114
 5634TIP3    H238462   0.898   0.357   0.131 -1.6305  0.7438  0.9279
 5635TIP3   OH238463   5.892   1.811   1.221  0.2319  0.2861  0.2435
 5635TIP3    H138464   5.828   1.879   1.242  0.1052  0.2609 -0.0438
 5635TIP3    H238465   5.839   1.731   1.212  0.6690 -0.4748  3.3119
 5636TIP3   OH238466   4.894   0.848   7.425 -0.0174 -0.5758  0.1028
 5636TIP3    H138467   4.814   0.865   7.476 -0.4229 -0.1184 -0.6720
 5636TIP3    H238468   4.965   0.865   7.486 -0.5151 -1.5970  0.9958
 5637TIP3   OH238469   0.351   4.507   0.601 -0.1312  0.5648 -0.5697
 5637TIP3    H138470   0.319   4.592   0.570 -2.7833 -0.6715 -1.4278
 5637TIP3    H238471   0.395   4.469   0.525 -0.8515  0.2785 -0.8482
 5638TIP3   OH238472   5.909   0.468   2.030 -0.2680  0.0257  0.4725
 5638TIP3    H138473   5.878   0.384   2.064 -2.1153  0.0129 -1.0472
 5638TIP3    H238474   5.906   0.527   2.106  0.5026 -1.1176  1.4273
 5639TIP3   OH238475   0.275   5.354   8.529 -0.0265  0.3820  0.4207
 5639TIP3    H138476   0.332   5.411   8.478  0.1674  0.2946  0.5401
 5639TIP3    H238477   0.334   5.292   8.572 -0.1863  0.4619  0.7592
 5640TIP3   OH238478   0.259   4.391   9.133  0.3672 -0.0798 -0.3331
 5640TIP3    H138479   0.195   4.460   9.150  1.8114  0.9821  1.1147
 5640TIP3    H238480   0.234   4.319   9.190  0.7116  0.5037  0.5638
 5641TIP3   OH238481   2.231   1.281   1.896 -0.3574  0.6475  0.0733
 5641TIP3    H138482   2.240   1.260   1.802 -0.2633 -0.4556  0.3129
 5641TIP3    H238483   2.149   1.329   1.902 -0.6796  0.1810 -0.4923
 5642TIP3   OH238484   5.980   3.426   1.051 -0.3885 -0.7039 -0.1654
 5642TIP3    H138485   5.934   3.395   0.973 -1.7300 -2.3715  1.1908
 5642TIP3    H238486   5.920   3.489   1.090  0.7972  1.0382 -1.0502
 5643TIP3   OH238487   2.765   0.983   0.269 -0.3781 -0.1590  0.6533
 5643TIP3    H138488   2.764   1.075   0.294  2.0401  0.2749 -0.6460
 5643TIP3    H238489   2.756   0.983   0.174  2.0423 -1.0741  0.3609
 5644TIP3   OH238490   0.518   4.401   1.442  0.4620  0.3676 -0.2222
 5644TIP3    H138491   0.533   4.467   1.509 -0.5817  1.0582 -0.6533
 5644TIP3    H238492   0.603   4.357   1.433  0.7201  0.5059  1.2597
 5645TIP3   OH238493   5.862   3.465   0.788  0.2422 -0.3741  0.7138
 5645TIP3    H138494   5.873   3.556   0.815 -2.6625  0.1197  0.5751
 5645TIP3    H238495   5.867   3.468   0.692  0.8953 -0.4927  0.7430
 5646TIP3   OH238496   1.529   2.100   3.105  0.3110  0.2458  0.2457
 5646TIP3    H138497   1.531   2.173   3.167  0.0638 -0.7602  1.4860
 5646TIP3    H238498   1.446   2.110   3.058 -0.0285  0.3979  0.8723
 5647TIP3   OH238499   4.560   0.402   2.374 -0.0924 -0.1716  0.5914
 5647TIP3    H138500   4.465   0.399   2.360  0.0677 -1.9610 -0.3902
 5647TIP3    H238501   4.573   0.353   2.455  0.0373 -0.4694  0.3920
 5648TIP3   OH238502   0.430   6.499   1.923 -0.0082  0.3748  0.0001
 5648TIP3    H138503   0.400   6.414   1.957  0.4297  0.1966 -0.0614
 5648TIP3    H238504   0.444   6.553   2.001 -0.1093  0.3343  0.0469
 5649TIP3   OH238505   3.534   4.317   3.287 -0.4154  0.1062  0.2758
 5649TIP3    H138506   3.543   4.403   3.328  0.0644  0.2650 -0.1543
 5649TIP3    H238507   3.455   4.280   3.326 -1.2979  1.2217 -0.4014
 5650TIP3   OH238508   3.932   6.004   8.128 -0.1090  0.1266  0.0542
 5650TIP3    H138509   3.883   6.044   8.056  0.5592 -1.3737 -1.3183
 5650TIP3    H238510   4.024   6.013   8.103  0.2163  0.8075  1.4266
 5651TIP3   OH238511   1.327   1.398   9.213 -0.3147 -0.3487 -0.0642
 5651TIP3    H138512   1.257   1.359   9.159 -0.3044 -1.1700  0.4966
 5651TIP3    H238513   1.341   1.485   9.174 -0.1996 -0.9712 -1.4778
 5652TIP3   OH238514   2.063   0.332   1.838 -0.2865  0.0944  0.8020
 5652TIP3    H138515   2.054   0.386   1.760  1.7200  0.0796  0.5003
 5652TIP3    H238516   2.004   0.371   1.902 -1.6981  0.3225 -0.5883
 5653TIP3   OH238517   3.408   3.941   0.597  0.0383 -0.2929  0.3571
 5653TIP3    H138518   3.500   3.935   0.622 -0.0016 -1.3325  0.3172
 5653TIP3    H238519   3.399   4.028   0.560  1.0382 -0.2245  0.2406
 5654TIP3   OH238520   5.799   5.679   2.681  0.8243  0.4326  0.2237
 5654TIP3    H138521   5.787   5.585   2.690 -0.7530  0.6270  0.5010
 5654TIP3    H238522   5.894   5.692   2.682  1.0632 -1.1361  0.1917
 5655TIP3   OH238523   3.735   0.863   9.035 -0.6555 -0.1193 -0.5109
 5655TIP3    H138524   3.709   0.819   9.115 -2.2919 -0.3092 -1.1140
 5655TIP3    H238525   3.761   0.793   8.976  2.5957  0.1146  0.4608
 5656TIP3   OH238526   3.305   5.203   9.173  0.5551 -0.1841 -0.6423
 5656TIP3    H138527   3.329   5.238   9.259 -0.3095 -2.8870  0.7854
 5656TIP3    H238528   3.361   5.251   9.112  0.6708  2.3548  1.2916
 5657TIP3   OH238529   0.223   5.806   2.174  0.0189  0.5863  0.3791
 5657TIP3    H138530   0.245   5.832   2.264  0.0111 -1.7950  1.1377
 5657TIP3    H238531   0.305   5.817   2.126  0.8106 -0.6973  1.3534
 5658TIP3   OH238532   4.656   0.276   0.307  0.4623  0.5756 -0.3295
 5658TIP3    H138533   4.672   0.269   0.213 -0.4822 -1.5071 -0.3947
 5658TIP3    H238534   4.732   0.236   0.348 -0.5324 -1.4681 -0.3627
 5659TIP3   OH238535   1.504   0.825   0.722 -0.3956 -0.1567  0.0024
 5659TIP3    H138536   1.464   0.738   0.718  0.4621 -0.5778  0.3841
 5659TIP3    H238537   1.446   0.875   0.780 -0.7395 -0.5510  0.0052
 5660TIP3   OH238538   0.794   5.186   9.165  0.8330 -0.3804  0.3288
 5660TIP3    H138539   0.765   5.226   9.083 -1.4200 -0.9267  0.7806
 5660TIP3    H238540   0.752   5.239   9.233  0.0974 -1.7851  1.0039
 5661TIP3   OH238541   4.233   2.110   0.822  0.3568 -0.6882  0.3889
 5661TIP3    H138542   4.314   2.161   0.812 -1.4632  2.2470 -0.8938
 5661TIP3    H238543   4.217   2.072   0.736  0.7500 -1.9741  0.8620
 5662TIP3   OH238544   4.631   5.841   8.755  0.1204  0.3400  0.1962
 5662TIP3    H138545   4.683   5.769   8.790  0.4947  0.9804  0.9826
 5662TIP3    H238546   4.550   5.800   8.724  0.6340 -0.5134 -0.0567
 5663TIP3   OH238547   1.861   5.622   2.471  0.0773  0.0668  0.3223
 5663TIP3    H138548   1.826   5.557   2.532 -0.2122  0.9382  1.1047
 5663TIP3    H238549   1.800   5.695   2.477  0.0204  0.1567 -1.0578
 5664TIP3   OH238550   4.005   1.774   8.196  0.0393  0.0398 -0.2777
 5664TIP3    H138551   3.942   1.703   8.182  0.3620 -0.4921  0.8522
 5664TIP3    H238552   3.964   1.850   8.156 -2.5285  0.3126  2.4681
 5665TIP3   OH238553   6.443   3.030   3.225  0.6805  0.4476  0.2564
 5665TIP3    H138554   6.440   3.108   3.171 -0.9325  1.1970  1.3471
 5665TIP3    H238555   6.534   3.000   3.220  0.9801  1.5039 -1.3739
 5666TIP3   OH238556   3.509   6.511   1.485  0.0459  0.1174 -0.1704
 5666TIP3    H138557   3.541   6.601   1.474 -1.5202  0.7829  0.5092
 5666TIP3    H238558   3.589   6.459   1.492  1.0144  1.2566 -1.8708
 5667TIP3   OH238559   5.073   2.184   8.764 -0.2224  0.1687 -0.2956
 5667TIP3    H138560   5.046   2.166   8.674 -0.0053  2.0847 -0.7848
 5667TIP3    H238561   5.168   2.170   8.764 -0.1918  0.3734 -0.4240
 5668TIP3   OH238562   2.169   6.537   0.629 -0.0322  0.3387  0.5459
 5668TIP3    H138563   2.080   6.536   0.592  0.2822  2.3243 -0.3875
 5668TIP3    H238564   2.227   6.544   0.554  0.9670 -0.9453  1.1477
 5669TIP3   OH238565   4.409   3.021   1.889 -0.5177  0.4406 -0.1212
 5669TIP3    H138566   4.443   3.089   1.946 -0.2397  0.7097 -0.5948
 5669TIP3    H238567   4.476   3.013   1.820 -0.0141 -1.0571  0.4995
 5670TIP3   OH238568   6.285   0.472   8.807  0.0586  0.3651 -0.5831
 5670TIP3    H138569   6.226   0.508   8.740 -0.4681 -0.3568 -0.5210
 5670TIP3    H238570   6.255   0.511   8.889 -0.2634  0.0996 -0.5701
 5671TIP3   OH238571   3.634   1.575   0.834  0.0418  0.5263 -0.3953
 5671TIP3    H138572   3.728   1.592   0.832  0.3389 -0.7523  1.0594
 5671TIP3    H238573   3.598   1.648   0.885  0.6077 -0.3163  1.2649
 5672TIP3   OH238574   4.961   3.285   6.996 -0.9003  0.1018  0.3390
 5672TIP3    H138575   4.899   3.212   6.993  0.9468 -1.4930 -0.5195
 5672TIP3    H238576   4.908   3.362   6.975 -2.1228 -1.5263 -3.2437
 5673TIP3   OH238577   1.507   1.032   2.304  0.3283  0.0386 -0.0568
 5673TIP3    H138578   1.598   1.055   2.324  0.4439  0.3460 -0.8814
 5673TIP3    H238579   1.460   1.046   2.386  0.7734  1.2383  0.0116
 5674TIP3   OH238580   0.923   2.763   2.631 -0.0706 -0.3017 -0.0151
 5674TIP3    H138581   0.898   2.840   2.684  0.9810 -0.7044  1.1035
 5674TIP3    H238582   0.885   2.689   2.678  0.0981 -0.5949 -0.3419
 5675TIP3   OH238583   0.116   6.440   0.327  0.4676  0.4907 -0.2674
 5675TIP3    H138584   0.187   6.380   0.306  0.6378 -0.0928  1.8238
 5675TIP3    H238585   0.036   6.391   0.304  0.6072 -0.5326  1.3254
 5676TIP3   OH238586   5.412   0.417   0.751  0.1806 -0.8861 -0.1028
 5676TIP3    H138587   5.338   0.468   0.783 -0.4669 -0.7756 -1.6641
 5676TIP3    H238588   5.425   0.447   0.661  1.4712 -1.6368 -0.1952
 5677TIP3   OH238589   5.041   2.496   8.633 -0.0614 -0.0036  0.8145
 5677TIP3    H138590   4.984   2.458   8.699 -2.0755  2.6903  0.8062
 5677TIP3    H238591   5.088   2.565   8.680 -0.3730  0.9199 -0.1866
 5678TIP3   OH238592   5.986   3.856   9.161 -0.6511 -0.4666  0.3086
 5678TIP3    H138593   6.054   3.900   9.110  0.7611 -2.0487  0.7285
 5678TIP3    H238594   5.990   3.765   9.132 -2.4803 -0.6506  0.5008
 5679TIP3   OH238595   2.431   5.549   2.672  0.1600 -0.4203 -0.4592
 5679TIP3    H138596   2.342   5.519   2.651 -0.6783  0.8359  1.0900
 5679TIP3    H238597   2.481   5.533   2.592 -1.4482 -1.1511 -1.3752
 5680TIP3   OH238598   3.261   4.982   1.018 -0.5183 -0.1455  0.4108
 5680TIP3    H138599   3.233   4.917   0.953  0.1890 -0.5881  0.5454
 5680TIP3    H238600   3.323   5.038   0.972  0.8129 -1.1111  0.9765
 5681TIP3   OH238601   5.738   1.106   1.368 -0.1471  0.1006 -0.0588
 5681TIP3    H138602   5.824   1.147   1.378 -0.2413  0.3633 -0.2929
 5681TIP3    H238603   5.754   1.028   1.314 -0.0823  0.2509 -0.2591
 5682TIP3   OH238604   0.509   3.480   8.195 -0.0992  0.6540  0.7485
 5682TIP3    H138605   0.501   3.432   8.278  0.0838 -1.7483 -0.5250
 5682TIP3    H238606   0.604   3.491   8.184 -0.0197 -0.5627  0.0789
 5683TIP3   OH238607   5.622   4.901   7.336 -0.2004  0.6016  0.0904
 5683TIP3    H138608   5.605   4.811   7.363 -1.8500  1.0293  0.6014
 5683TIP3    H238609   5.564   4.954   7.390 -0.7465  1.8134 -1.5920
 5684TIP3   OH238610   4.740   0.788   8.444 -0.2005 -0.4310 -0.0309
 5684TIP3    H138611   4.833   0.766   8.454  0.0379 -0.2161 -1.5328
 5684TIP3    H238612   4.694   0.710   8.474  0.4866 -0.8549 -0.0488
 5685TIP3   OH238613   1.869   3.581   1.699  0.1128  0.1281  0.2356
 5685TIP3    H138614   1.877   3.632   1.618  1.3963 -0.5225 -0.0861
 5685TIP3    H238615   1.866   3.646   1.769  0.7632  0.6731 -0.2312
 5686TIP3   OH238616   1.795   4.456   0.606  0.0360 -0.5425  0.7703
 5686TIP3    H138617   1.889   4.440   0.616  0.4099  1.4699  0.9083
 5686TIP3    H238618   1.788   4.504   0.523 -1.1598 -2.5482 -0.3851
 5687TIP3   OH238619   0.669   5.730   0.075  1.1980 -0.2823  0.4152
 5687TIP3    H138620   0.759   5.717   0.105  1.7402  0.6894 -0.7117
 5687TIP3    H238621   0.615   5.685   0.140  2.3502  1.1060  2.4503
 5688TIP3   OH238622   5.792   0.754   0.991 -0.2629 -0.3573  0.1575
 5688TIP3    H138623   5.700   0.732   1.008 -0.0730 -0.3486  1.2354
 5688TIP3    H238624   5.812   0.711   0.908 -1.1518 -0.6169  0.0699
 5689TIP3   OH238625   1.430   1.639   1.275  0.1261  0.2430 -0.2777
 5689TIP3    H138626   1.492   1.629   1.203 -1.6332  0.5634 -1.9201
 5689TIP3    H238627   1.362   1.574   1.257 -0.0667 -0.1033  1.4695
 5690TIP3   OH238628   0.073   5.211   0.693  0.3320 -0.1649 -0.0293
 5690TIP3    H138629   0.008   5.155   0.735  2.7435 -0.6670  3.4145
 5690TIP3    H238630   0.125   5.152   0.639  0.6866 -0.6466  0.8181
 5691TIP3   OH238631   5.328   3.361   0.865 -0.1372  0.4333  0.2582
 5691TIP3    H138632   5.358   3.336   0.952  1.1977 -1.5082 -0.6936
 5691TIP3    H238633   5.323   3.279   0.816 -0.0164  1.5424 -1.7467
 5692TIP3   OH238634   1.022   4.868   7.883 -0.5164 -0.3352 -1.1290
 5692TIP3    H138635   0.966   4.860   7.806  0.9539 -1.7508 -2.1321
 5692TIP3    H238636   0.999   4.792   7.938 -0.7689  0.0394 -0.7093
 5693TIP3   OH238637   3.099   5.414   8.386  0.4423  0.0359 -0.3893
 5693TIP3    H138638   3.100   5.323   8.357  2.2088  0.5383 -2.0531
 5693TIP3    H238639   3.158   5.416   8.462 -0.7464 -0.4454  0.5774
 5694TIP3   OH238640   2.947   2.660   2.857 -0.6392  0.1443 -0.1744
 5694TIP3    H138641   2.857   2.691   2.843 -0.7938  0.6343  1.7315
 5694TIP3    H238642   2.943   2.566   2.840 -1.3598  0.2597 -0.6921
 5695TIP3   OH238643   4.829   3.295   8.486  0.9156 -0.1310  0.1107
 5695TIP3    H138644   4.748   3.323   8.529  0.9646  0.5763 -0.2444
 5695TIP3    H238645   4.814   3.203   8.464 -0.4243  0.4085 -1.3993
 5696TIP3   OH238646   5.922   4.029   8.569 -0.3937  0.2537  0.6768
 5696TIP3    H138647   5.833   4.063   8.574 -0.4236  0.0115  3.4544
 5696TIP3    H238648   5.978   4.106   8.576 -0.4136  0.2295  1.1234
 5697TIP3   OH238649   3.548   3.753   8.331  0.2438  0.5581  0.3591
 5697TIP3    H138650   3.637   3.786   8.345  0.2871  0.5959 -0.0036
 5697TIP3    H238651   3.494   3.831   8.320  0.2356  0.5237  0.1579
 5698TIP3   OH238652   2.887   3.702   0.526  0.7154  0.1904  0.0310
 5698TIP3    H138653   2.928   3.645   0.592  1.2431  0.5856  0.0484
 5698TIP3    H238654   2.899   3.655   0.443  2.3152  0.8644 -0.1495
 5699TIP3   OH238655   3.606   5.239   1.603  0.1105 -0.0273  0.3842
 5699TIP3    H138656   3.560   5.183   1.541  0.1162  0.3585  0.0351
 5699TIP3    H238657   3.675   5.182   1.639  1.1383  0.1915 -1.1320
 5700TIP3   OH238658   2.621   4.676   1.088  0.0163 -0.3293  0.3273
 5700TIP3    H138659   2.543   4.689   1.141  0.8355 -1.5908  1.8931
 5700TIP3    H238660   2.642   4.584   1.098  1.6837 -0.0197 -0.1076
 5701TIP3   OH238661   6.050   1.154   2.210 -0.3014 -0.3898 -0.5531
 5701TIP3    H138662   6.057   1.062   2.236  2.1646 -0.5790 -1.6328
 5701TIP3    H238663   6.005   1.196   2.284 -0.6870 -2.2852  0.3515
 5702TIP3   OH238664   3.618   3.596   7.525 -0.1802 -0.2955 -0.3594
 5702TIP3    H138665   3.694   3.601   7.468  0.8925 -1.3641  0.9080
 5702TIP3    H238666   3.635   3.662   7.593 -1.8156  1.5262 -1.6251
 5703TIP3   OH238667   6.350   0.324   7.542  0.2466  0.2618 -0.2950
 5703TIP3    H138668   6.331   0.255   7.478 -0.2578  0.4158 -0.3149
 5703TIP3    H238669   6.265   0.345   7.581  0.7089 -0.8395  1.4652
 5704TIP3   OH238670   0.865   5.336   1.899 -0.1921  0.2737  0.3668
 5704TIP3    H138671   0.770   5.350   1.901 -0.5440 -1.8213  0.6570
 5704TIP3    H238672   0.897   5.376   1.980 -0.8764  0.6097  0.4800
 5705TIP3   OH238673   4.198   2.717   1.216 -0.0192 -0.4320 -0.1165
 5705TIP3    H138674   4.162   2.759   1.137 -0.3725 -1.5303 -0.5605
 5705TIP3    H238675   4.219   2.790   1.274 -2.0369  0.3139 -0.2402
 5706TIP3   OH238676   0.058   0.122   1.102  0.1831  0.0555  0.1968
 5706TIP3    H138677   0.047   0.213   1.074 -1.6695 -0.3089 -0.3693
 5706TIP3    H238678   0.023   0.070   1.029  1.4043 -1.1444  0.4136
 5707TIP3   OH238679   1.141   2.756   2.893  0.0237 -0.0437 -0.0255
 5707TIP3    H138680   1.130   2.675   2.842 -0.2735 -1.6697  2.4159
 5707TIP3    H238681   1.217   2.738   2.949 -0.6048  1.0083  1.1927
 5708TIP3   OH238682   0.880   1.667   0.429  0.3346 -0.3931  0.2933
 5708TIP3    H138683   0.924   1.594   0.386  1.6102  1.1392 -1.1475
 5708TIP3    H238684   0.788   1.642   0.430  0.4659 -1.2147 -1.9537
 5709TIP3   OH238685   0.294   4.461   8.141 -0.0886  0.6747  0.5512
 5709TIP3    H138686   0.308   4.523   8.213  2.3720 -0.5388  1.2251
 5709TIP3    H238687   0.246   4.388   8.180 -0.1511  0.7234  0.5645
 5710TIP3   OH238688   1.207   1.145   0.151  0.2816  0.2581  0.1659
 5710TIP3    H138689   1.240   1.073   0.204 -0.3711 -1.8533 -2.1139
 5710TIP3    H238690   1.249   1.133   0.065 -0.7881  1.8631 -0.6281
 5711TIP3   OH238691   6.630   2.339   8.609 -0.1380 -0.5463  0.0191
 5711TIP3    H138692   6.671   2.378   8.686  1.7937  0.1023 -1.2484
 5711TIP3    H238693   6.540   2.323   8.635  0.2164  0.5004  2.1046
 5712TIP3   OH238694   5.351   1.013   1.901  0.4833  0.4745  0.0452
 5712TIP3    H138695   5.438   1.049   1.882  0.7420  0.7030  1.5944
 5712TIP3    H238696   5.336   1.032   1.993 -0.8348 -0.3885  0.0377
 5713TIP3   OH238697   5.960   4.458   8.295 -0.2432  0.4469  0.2925
 5713TIP3    H138698   6.003   4.488   8.215  2.9357 -0.3050  1.5563
 5713TIP3    H238699   5.912   4.380   8.269  0.0495  0.6838 -1.0227
 5714TIP3   OH238700   4.103   0.895   0.256  0.3589 -0.0905  0.5069
 5714TIP3    H138701   4.015   0.890   0.219 -0.1332  2.5061  1.1581
 5714TIP3    H238702   4.156   0.840   0.198 -0.8349  1.7548 -2.5939
 5715TIP3   OH238703   0.921   4.894   1.514 -0.5864  0.2752 -0.4061
 5715TIP3    H138704   0.837   4.852   1.531 -0.4344 -0.8357 -2.0811
 5715TIP3    H238705   0.907   4.946   1.435 -0.2667  1.9381  0.5850
 5716TIP3   OH238706   4.522   4.441   8.258 -0.0928  0.2179  0.0940
 5716TIP3    H138707   4.504   4.507   8.192 -0.0432  0.5321  0.3899
 5716TIP3    H238708   4.599   4.474   8.305 -0.9353  0.7019  1.2061
 5717TIP3   OH238709   4.498   5.133   0.902  0.1096 -0.3124 -0.3388
 5717TIP3    H138710   4.516   5.178   0.820  0.9957 -2.0316 -1.1231
 5717TIP3    H238711   4.423   5.076   0.883  0.8210 -1.3147 -0.2118
 5718TIP3   OH238712   3.749   4.197   2.494 -0.2121 -0.0940  0.1324
 5718TIP3    H138713   3.776   4.199   2.403  0.9637  0.7301  0.4773
 5718TIP3    H238714   3.742   4.104   2.516 -0.9912 -0.2951 -0.9205
 5719TIP3   OH238715   5.077   0.991   2.418 -0.4964  0.4147 -0.5237
 5719TIP3    H138716   5.121   0.909   2.441 -0.1995  0.0765 -2.1726
 5719TIP3    H238717   4.995   0.964   2.377 -0.1296  0.9148 -1.6157
 5720TIP3   OH238718   3.114   1.375   2.836  0.1632  0.3420 -0.2414
 5720TIP3    H138719   3.057   1.407   2.907  0.9796 -0.3594  0.7605
 5720TIP3    H238720   3.066   1.303   2.797  0.8469 -1.1007  1.4435
 5721TIP3   OH238721   4.393   4.954   1.404 -0.3334 -0.3304  0.5763
 5721TIP3    H138722   4.336   4.946   1.481 -0.9087  0.4291  0.2322
 5721TIP3    H238723   4.367   4.880   1.348 -0.5247 -0.3659  0.7098
 5722TIP3   OH238724   2.417   3.584   1.725 -0.3922  0.4837 -0.0816
 5722TIP3    H138725   2.324   3.599   1.742 -0.4670 -0.0459 -0.0003
 5722TIP3    H238726   2.454   3.564   1.811 -0.6767 -1.7196 -0.4101
 5723TIP3   OH238727   6.532   0.021   0.532  0.0169  0.0813 -0.3495
 5723TIP3    H138728   6.502  -0.070   0.532 -2.0222  0.7098 -0.3071
 5723TIP3    H238729   6.523   0.048   0.624 -1.2148  0.8555 -0.6747
 5724TIP3   OH238730   5.824   0.586   0.745 -0.0155 -0.5060 -0.7102
 5724TIP3    H138731   5.889   0.553   0.807  0.9771  0.0989 -1.4084
 5724TIP3    H238732   5.825   0.524   0.673 -1.6993 -1.6194  0.1527
 5725TIP3   OH238733   2.217   3.646   1.282  0.0550  0.4674  0.0570
 5725TIP3    H138734   2.265   3.696   1.349  2.5249 -0.0975 -1.1750
 5725TIP3    H238735   2.178   3.713   1.226 -2.5250  0.9647  2.2445
 5726TIP3   OH238736   1.766   4.195   1.519 -0.3765  0.2267  0.8762
 5726TIP3    H138737   1.697   4.253   1.487 -0.1361  0.5280  0.8993
 5726TIP3    H238738   1.802   4.154   1.440 -0.4689  0.1930  0.8512
 5727TIP3   OH238739   1.357   2.110   8.094 -0.4506 -0.1352 -0.7662
 5727TIP3    H138740   1.441   2.091   8.052  0.2075 -1.3620  0.9796
 5727TIP3    H238741   1.293   2.105   8.023  1.0047  1.8431 -2.3411
 5728TIP3   OH238742   3.282   1.019   2.405 -0.3188  0.3547 -0.9044
 5728TIP3    H138743   3.308   0.953   2.469 -1.3258  1.6632  0.9223
 5728TIP3    H238744   3.358   1.077   2.397 -1.2624  2.1513  1.7833
 5729TIP3   OH238745   3.747   3.027   7.018 -0.1292  0.0183 -0.3024
 5729TIP3    H138746   3.787   2.952   6.973  1.1450  0.8405 -0.6047
 5729TIP3    H238747   3.744   3.096   6.952 -0.5023  0.4983  0.2044
 5730TIP3   OH238748   2.580   4.550   9.245  0.2065  0.2475 -0.8773
 5730TIP3    H138749   2.511   4.616   9.252 -0.1136 -0.1627 -0.1009
 5730TIP3    H238750   2.650   4.581   9.303 -0.3506 -0.5735  0.2738
 5731TIP3   OH238751   4.638   1.864   1.082 -0.1690  0.1088 -0.0488
 5731TIP3    H138752   4.729   1.841   1.100 -0.6230  0.4363  3.5029
 5731TIP3    H238753   4.598   1.783   1.052  0.5842 -1.0126  1.8131
 5732TIP3   OH238754   0.265   1.010   0.178 -0.3905  0.2235  0.3136
 5732TIP3    H138755   0.256   1.073   0.106  0.5112  0.5739  0.4912
 5732TIP3    H238756   0.341   1.041   0.228 -1.1428  0.1152  1.5566
 5733TIP3   OH238757   4.650   3.116   1.768 -0.9109  0.6332 -0.6721
 5733TIP3    H138758   4.724   3.107   1.708 -0.6432  0.7460 -0.3610
 5733TIP3    H238759   4.687   3.158   1.846 -0.8100 -1.2993  0.3837
 5734TIP3   OH238760   1.635   2.724   0.884 -1.1976 -0.3844 -0.6025
 5734TIP3    H138761   1.636   2.630   0.898  0.6110 -0.6889 -2.3052
 5734TIP3    H238762   1.710   2.741   0.827 -1.1939  2.1557  0.0088
 5735TIP3   OH238763   3.575   4.276   8.620  0.2231  0.1396  0.1753
 5735TIP3    H138764   3.609   4.228   8.544 -0.1864 -0.0865  0.1287
 5735TIP3    H238765   3.579   4.368   8.595  0.3705  0.0838 -0.0056
 5736TIP3   OH238766   5.720   5.797   1.543  0.1350  0.4607 -0.1611
 5736TIP3    H138767   5.727   5.712   1.587 -0.4155 -0.3234 -1.5266
 5736TIP3    H238768   5.626   5.811   1.532  0.2557  0.5555 -1.1917
 5737TIP3   OH238769   2.630   5.798   1.492 -0.1241 -0.3010 -0.1005
 5737TIP3    H138770   2.716   5.780   1.529 -0.4214  0.1693  0.8487
 5737TIP3    H238771   2.583   5.715   1.497 -0.9365  0.2198  2.7545
 5738TIP3   OH238772   2.091   4.603   0.150 -0.3455 -0.2226  0.3616
 5738TIP3    H138773   2.054   4.687   0.178 -1.5945 -0.5009 -0.3674
 5738TIP3    H238774   2.113   4.616   0.058  0.2169 -0.4561  0.4591
 5739TIP3   OH238775   0.905   5.939   0.499 -0.3251  0.1519 -0.4531
 5739TIP3    H138776   0.931   5.878   0.430  1.6221  0.4896 -0.0804
 5739TIP3    H238777   0.940   5.900   0.579 -1.3771  0.4506  0.1722
 5740TIP3   OH238778   0.459   3.870   9.147  0.7726 -0.6134  0.1915
 5740TIP3    H138779   0.507   3.821   9.213 -1.0697 -1.5825  0.8886
 5740TIP3    H238780   0.421   3.803   9.090 -1.9462 -0.1275  1.2726
 5741TIP3   OH238781   1.218   0.451   1.874  0.0632 -0.3694 -0.3243
 5741TIP3    H138782   1.281   0.470   1.943  0.9663  1.0212 -1.4707
 5741TIP3    H238783   1.133   0.451   1.918  0.7378 -1.2252  1.0576
 5742TIP3   OH238784   5.874   1.556   7.690 -0.5837  0.3091 -0.0447
 5742TIP3    H138785   5.936   1.515   7.751 -0.5746 -0.6620 -0.6895
 5742TIP3    H238786   5.920   1.556   7.606 -1.0474  0.5647 -0.3020
 5743TIP3   OH238787   3.419   4.350   7.251  0.0235 -0.4057 -0.3474
 5743TIP3    H138788   3.398   4.424   7.309  1.1870  0.4619 -0.9758
 5743TIP3    H238789   3.352   4.285   7.270 -1.2112  0.9093  0.0438
 5744TIP3   OH238790   3.012   0.459   2.799 -0.6040  0.2131  0.3107
 5744TIP3    H138791   3.019   0.540   2.850 -0.4283  2.2290 -2.6268
 5744TIP3    H238792   2.927   0.466   2.755  0.7930  0.6373 -2.6257
 5745TIP3   OH238793   0.696   2.215   7.241  0.0249 -0.8017 -0.2069
 5745TIP3    H138794   0.738   2.145   7.191  0.2101 -0.3454 -0.6996
 5745TIP3    H238795   0.747   2.293   7.221 -2.0672  0.1724 -2.2565
 5746TIP3   OH238796   0.943   5.629   1.012  0.9395 -0.0745 -0.5410
 5746TIP3    H138797   0.991   5.575   1.074  0.1447 -0.3360 -0.1423
 5746TIP3    H238798   0.895   5.566   0.957  1.0149  0.1804 -0.9058
 5747TIP3   OH238799   1.417   2.423   8.332  0.6246 -0.0816  0.3730
 5747TIP3    H138800   1.410   2.328   8.329 -0.7412 -0.0463  1.6988
 5747TIP3    H238801   1.349   2.451   8.392  0.9101  1.7638 -0.0947
 5748TIP3   OH238802   1.302   1.026   1.889 -0.2095  0.2889 -0.1334
 5748TIP3    H138803   1.272   1.094   1.950  1.3629  0.9870 -0.1028
 5748TIP3    H238804   1.301   1.069   1.804 -1.0891 -0.2690 -0.4129
 5749TIP3   OH238805   1.673   4.502   7.705  0.2931  1.0433  0.1707
 5749TIP3    H138806   1.716   4.453   7.635  0.2047  3.0188 -1.3725
 5749TIP3    H238807   1.744   4.535   7.759  0.6091  2.1162 -0.8571
 5750TIP3   OH238808   1.418   4.311   0.893  0.1299 -0.6805  0.1612
 5750TIP3    H138809   1.488   4.250   0.870 -1.0254 -2.0754  0.1812
 5750TIP3    H238810   1.403   4.361   0.812  1.3519 -0.1080  0.2600
 5751TIP3   OH238811   6.022   1.092   1.055  0.1324 -0.4358 -0.0753
 5751TIP3    H138812   6.018   1.010   1.006  0.3099 -0.6494  0.2619
 5751TIP3    H238813   6.076   1.072   1.132 -1.2696 -0.4872  0.9375
 5752TIP3   OH238814   2.940   4.809   2.673 -0.3979 -0.1769 -0.3840
 5752TIP3    H138815   2.981   4.825   2.588 -3.5420 -1.6200 -2.4067
 5752TIP3    H238816   2.995   4.743   2.715  1.1545  0.4577 -1.3652
 5753TIP3   OH238817   2.729   2.807   2.768 -0.7797  0.3337 -0.1915
 5753TIP3    H138818   2.691   2.803   2.680 -1.2416  1.7442 -0.0836
 5753TIP3    H238819   2.704   2.893   2.801  0.5796  0.3919  0.7864
 5754TIP3   OH238820   2.303   3.456   9.269  0.7073 -0.2433 -0.2764
 5754TIP3    H138821   2.387   3.501   9.277  0.5430 -0.1317  1.0160
 5754TIP3    H238822   2.239   3.520   9.299  0.1756 -0.4139 -1.0216
 5755TIP3   OH238823   4.681   4.521   1.718 -0.2411  0.1961  0.1077
 5755TIP3    H138824   4.740   4.501   1.791  1.7882  1.3761 -1.0926
 5755TIP3    H238825   4.689   4.446   1.659  0.4688  0.5337 -0.2512
 5756TIP3   OH238826   5.477   0.664   7.973  0.0949 -0.3926  0.2165
 5756TIP3    H138827   5.408   0.690   8.033  0.2776  1.5068 -0.3371
 5756TIP3    H238828   5.547   0.631   8.029 -0.0590  0.5962  1.0065
 5757TIP3   OH238829   5.572   2.206   7.656  0.0014 -0.0458 -0.1321
 5757TIP3    H138830   5.490   2.185   7.612  0.7032 -2.0390 -0.6153
 5757TIP3    H238831   5.618   2.263   7.595  0.4730 -1.8479 -1.5662
 5758TIP3   OH238832   6.285   3.147   9.260  0.0053 -0.4328  0.1473
 5758TIP3    H138833   6.208   3.176   9.308  0.7467 -0.2909  1.3005
 5758TIP3    H238834   6.312   3.067   9.304  0.6979 -0.3060 -0.0320
 5759TIP3   OH238835   5.864   3.966   0.078  0.2020 -0.0612  0.7707
 5759TIP3    H138836   5.941   3.999   0.125  0.9129 -0.0841 -0.3472
 5759TIP3    H238837   5.897   3.944  -0.009 -1.3221  1.0843 -0.1312
 5760TIP3   OH238838   1.547   2.929   0.583  0.2949 -0.0976  0.4873
 5760TIP3    H138839   1.523   2.893   0.498  1.0751 -2.1948  1.1004
 5760TIP3    H238840   1.643   2.921   0.586  0.5424  2.2266  0.6204
 5761TIP3   OH238841   6.605   0.754   8.329  0.1469  0.1240 -0.3102
 5761TIP3    H138842   6.629   0.702   8.406  2.2130  1.1991 -0.1458
 5761TIP3    H238843   6.581   0.840   8.364 -1.9960 -0.2874 -0.6747
 5762TIP3   OH238844   5.307   5.246   1.991  0.2654  0.1984 -0.2864
 5762TIP3    H138845   5.291   5.206   2.077  2.5185 -0.5595 -0.1782
 5762TIP3    H238846   5.273   5.182   1.928  1.1595 -0.5451 -0.0276
 5763TIP3   OH238847   4.488   2.738   0.132  0.0248 -0.2462 -0.3002
 5763TIP3    H138848   4.548   2.807   0.160 -0.2121  0.6617 -1.9150
 5763TIP3    H238849   4.545   2.665   0.107  0.3353 -0.1916  0.2249
 5764TIP3   OH238850   2.778   4.964   8.783  0.5372  0.6258  0.4860
 5764TIP3    H138851   2.716   5.002   8.721  1.1530  2.3392  0.8770
 5764TIP3    H238852   2.729   4.891   8.822  0.1770 -0.5881 -2.0195
 5765TIP3   OH238853   1.066   6.304   0.056 -0.6496  0.2356 -0.2698
 5765TIP3    H138854   1.141   6.245   0.048 -0.1787  0.8562 -0.5016
 5765TIP3    H238855   1.020   6.274   0.135 -0.6276 -0.6655 -0.5875
 5766TIP3   OH238856   3.604   3.654   8.907  0.2159  0.1506  0.3540
 5766TIP3    H138857   3.666   3.584   8.885  0.5563  0.2586  0.9541
 5766TIP3    H238858   3.583   3.694   8.823 -1.4692 -1.8848 -0.2858
 5767TIP3   OH238859   4.797   1.201   0.843 -0.5256 -0.3108  0.3613
 5767TIP3    H138860   4.822   1.284   0.802 -1.8754  0.2114  0.5323
 5767TIP3    H238861   4.837   1.134   0.788 -0.5952  0.4266 -0.6153
 5768TIP3   OH238862   3.728   2.132   0.405 -0.3882 -0.4997 -0.3415
 5768TIP3    H138863   3.762   2.078   0.476 -0.9709 -1.8124 -1.0406
 5768TIP3    H238864   3.775   2.215   0.414 -1.6578  0.0141  2.5965
 5769TIP3   OH238865   5.323   2.116   9.026  0.2174  0.0455  0.1214
 5769TIP3    H138866   5.306   2.106   8.933  1.1954  0.6251 -0.1396
 5769TIP3    H238867   5.298   2.206   9.046 -0.7602 -0.3261  0.6074
 5770TIP3   OH238868   5.854   1.192   7.743 -0.0919 -0.8224 -0.6614
 5770TIP3    H138869   5.871   1.144   7.661 -1.3553 -0.6370 -1.0482
 5770TIP3    H238870   5.786   1.255   7.721  0.8228  0.4927  0.1001
 5771TIP3   OH238871   4.380   3.171   8.501 -0.2046  0.6651  0.1904
 5771TIP3    H138872   4.390   3.169   8.406 -0.1203 -1.8880  0.1785
 5771TIP3    H238873   4.469   3.155   8.535 -0.7304 -2.1756  0.5266
 5772TIP3   OH238874   3.126   2.109   1.559  0.4790 -0.3849 -0.3812
 5772TIP3    H138875   3.072   2.045   1.513 -0.0306 -1.1238  1.1862
 5772TIP3    H238876   3.082   2.121   1.644  1.5571  0.6935  0.0548
 5773TIP3   OH238877   4.192   3.395   8.998 -0.6666 -0.4525  0.0673
 5773TIP3    H138878   4.131   3.324   8.978  0.5098 -1.4532 -0.0911
 5773TIP3    H238879   4.235   3.368   9.079 -0.4349  0.2399  0.1796
 5774TIP3   OH238880   2.700   1.707   8.040 -0.3120 -0.4108 -0.5429
 5774TIP3    H138881   2.644   1.763   7.986 -1.2270 -1.7073 -0.9862
 5774TIP3    H238882   2.740   1.645   7.978 -0.0340 -0.8352  0.0466
 5775TIP3   OH238883   2.106   5.739   8.205 -0.2830 -0.0377  0.9304
 5775TIP3    H138884   2.184   5.793   8.193  0.0334 -0.6771 -0.0692
 5775TIP3    H238885   2.082   5.713   8.116 -1.7775  0.3321  1.2046
 5776TIP3   OH238886   2.527   2.260   2.648 -0.3998 -0.3739 -0.7193
 5776TIP3    H138887   2.495   2.228   2.733 -0.4694 -0.4844 -0.7862
 5776TIP3    H238888   2.498   2.193   2.586  1.4730 -1.3815 -0.5656
 5777TIP3   OH238889   1.780   5.124   2.227 -0.0910  0.2466  0.3402
 5777TIP3    H138890   1.819   5.038   2.244  0.7128  0.5026 -0.1560
 5777TIP3    H238891   1.827   5.183   2.284 -0.9320  0.3061  0.9899
 5778TIP3   OH238892   5.106   1.227   2.535 -0.1834  0.5504  0.5891
 5778TIP3    H138893   5.106   1.199   2.627  0.3165 -1.2089  0.0947
 5778TIP3    H238894   5.094   1.146   2.486 -1.9192  1.6310 -0.8818
 5779TIP3   OH238895   3.645   3.221   0.610  0.5114  0.2327  0.0262
 5779TIP3    H138896   3.595   3.303   0.607 -0.4996 -0.3931 -0.8635
 5779TIP3    H238897   3.643   3.196   0.702  0.0402  0.7340  0.1596
 5780TIP3   OH238898   5.587   3.975   0.608 -0.2019  0.7386  0.0715
 5780TIP3    H138899   5.580   4.013   0.695 -0.5229  0.7798  0.0290
 5780TIP3    H238900   5.532   4.031   0.553  2.2119  2.4585 -0.7390
 5781TIP3   OH238901   5.249   4.327   0.282 -0.0119 -0.6496  0.1061
 5781TIP3    H138902   5.210   4.280   0.208 -1.3283  0.6872 -0.1071
 5781TIP3    H238903   5.330   4.280   0.301 -0.6776 -2.2448 -0.8497
 5782TIP3   OH238904   5.590   4.705   8.227 -0.5403  0.0971 -0.7659
 5782TIP3    H138905   5.615   4.795   8.204 -0.3133  0.1214 -0.4366
 5782TIP3    H238906   5.549   4.714   8.314  0.9389 -0.3128  0.0158
 5783TIP3   OH238907   2.038   3.884   1.680 -0.6612 -0.3415 -0.2194
 5783TIP3    H138908   1.949   3.872   1.645 -0.9189 -0.2108  0.3791
 5783TIP3    H238909   2.059   3.800   1.720 -0.7202 -0.2065  0.0954
 5784TIP3   OH238910   6.293   6.375   3.079  0.2369 -0.7430  0.3352
 5784TIP3    H138911   6.227   6.348   3.142  1.2267  1.0074  2.2565
 5784TIP3    H238912   6.292   6.307   3.012 -1.9711 -1.8672  1.4086
 5785TIP3   OH238913   1.600   5.300   2.059  0.0182 -0.2541  0.1871
 5785TIP3    H138914   1.668   5.323   1.996  1.2240  2.8330  2.3321
 5785TIP3    H238915   1.641   5.236   2.117  0.5114  0.2325  0.3896
 5786TIP3   OH238916   6.203   1.289   7.715 -0.1024  0.4934  0.1128
 5786TIP3    H138917   6.141   1.287   7.642  0.8744  0.6630 -0.7526
 5786TIP3    H238918   6.261   1.362   7.695  1.2639 -0.5561  0.1295
 5787TIP3   OH238919   5.841   5.401   1.987 -0.1160 -0.4616 -0.0667
 5787TIP3    H138920   5.753   5.393   1.949 -1.3025  0.0860  2.3713
 5787TIP3    H238921   5.862   5.494   1.979  1.0026 -0.8254 -2.0677
 5788TIP3   OH238922   0.198   6.034   8.876  0.2771 -0.0451 -0.1513
 5788TIP3    H138923   0.204   6.023   8.782 -1.1333  2.2337 -0.5737
 5788TIP3    H238924   0.252   6.111   8.895 -0.2570  0.1195  0.7477
 5789TIP3   OH238925   3.995   6.014   8.839 -0.6866  0.6176  0.0885
 5789TIP3    H138926   4.059   6.068   8.793 -0.5984  0.0051 -0.5441
 5789TIP3    H238927   3.919   6.071   8.851 -0.8023  0.7393 -1.0475
 5790TIP3   OH238928   3.793   2.584   8.356 -0.0962 -0.1919 -0.6551
 5790TIP3    H138929   3.736   2.508   8.347 -0.9162  0.6344 -3.8522
 5790TIP3    H238930   3.733   2.658   8.367  0.6251  0.1978  0.9604
 5791TIP3   OH238931   2.449   5.461   8.748  0.1962  0.0115 -1.2609
 5791TIP3    H138932   2.514   5.525   8.776 -0.1556  0.0484 -0.4939
 5791TIP3    H238933   2.368   5.512   8.737 -0.1431 -0.3272 -0.4159
 5792TIP3   OH238934   1.083   3.738   2.397  0.0710  0.4055  0.4488
 5792TIP3    H138935   1.098   3.819   2.445 -0.3451  0.7706 -0.0203
 5792TIP3    H238936   1.031   3.765   2.321  0.7519 -0.1514 -0.2291
 5793TIP3   OH238937   3.877   2.251   8.033  0.5176  0.2741 -0.1319
 5793TIP3    H138938   3.956   2.292   8.069  0.1276  0.3557  0.6408
 5793TIP3    H238939   3.849   2.190   8.100  0.3930 -0.3674 -0.7600
 5794TIP3   OH238940   1.303   2.106   1.792  0.0204 -0.0039 -0.4098
 5794TIP3    H138941   1.252   2.183   1.765 -1.0097 -0.3833  0.4043
 5794TIP3    H238942   1.240   2.049   1.836  1.2206 -0.2867  1.0493
 5795TIP3   OH238943   4.378   6.555   7.790 -0.2073  0.0110  0.3612
 5795TIP3    H138944   4.292   6.546   7.750  0.3632  0.3424 -1.0012
 5795TIP3    H238945   4.394   6.471   7.833 -0.9730 -0.2396  0.1746
 5796TIP3   OH238946   1.050   6.623   9.094 -0.1609 -0.3745  0.2916
 5796TIP3    H138947   1.087   6.627   9.182  0.0076  0.3388  0.1943
 5796TIP3    H238948   0.958   6.647   9.106 -0.2885 -0.8689  0.3493
 5797TIP3   OH238949   5.401   0.934   8.639 -0.0595  0.4716  0.2623
 5797TIP3    H138950   5.395   0.938   8.734 -0.5125 -0.2458  0.2731
 5797TIP3    H238951   5.429   1.022   8.613  0.1312  0.6562  1.0555
 5798TIP3   OH238952   5.567   0.666   1.624  0.1656  0.0866  0.2000
 5798TIP3    H138953   5.614   0.593   1.583 -0.2789 -1.9125  2.9641
 5798TIP3    H238954   5.583   0.740   1.565  4.7533 -0.9864 -0.3370
 5799TIP3   OH238955   6.008   0.100   0.476 -0.1543  0.1501 -0.3733
 5799TIP3    H138956   6.097   0.133   0.465  0.5637 -1.4732  0.2664
 5799TIP3    H238957   6.013   0.008   0.449 -1.4565 -0.1736  0.4129
 5800TIP3   OH238958   1.997   5.305   2.627  0.2128 -0.3183 -0.0572
 5800TIP3    H138959   1.914   5.262   2.605  0.1820 -0.9129  1.1376
 5800TIP3    H238960   1.972   5.376   2.686  0.5615 -0.6440  0.4929
 5801TIP3   OH238961   2.711   5.146   1.154 -0.2008 -0.4905 -0.2230
 5801TIP3    H138962   2.741   5.073   1.101 -1.6594 -0.2086 -1.5051
 5801TIP3    H238963   2.774   5.151   1.226  1.5158 -1.2301 -1.6135
 5802TIP3   OH238964   0.131   2.504   0.396 -0.1042 -0.8449 -0.3289
 5802TIP3    H138965   0.157   2.448   0.469  0.3332  0.9743  1.0014
 5802TIP3    H238966   0.037   2.490   0.387 -0.4340 -0.1282  1.5347
 5803TIP3   OH238967   6.386   0.522   2.292 -0.5769  0.1850  0.3407
 5803TIP3    H138968   6.409   0.471   2.370 -0.7264 -1.0275 -0.3798
 5803TIP3    H238969   6.310   0.573   2.318 -1.5469 -1.3104  0.5839
 5804TIP3   OH238970   1.190   2.539   8.536  0.3718 -0.0423 -0.2473
 5804TIP3    H138971   1.152   2.623   8.562  0.8411 -0.1855  0.9506
 5804TIP3    H238972   1.114   2.483   8.519  0.0258  0.0039  1.0478
 5805TIP3   OH238973   2.430   4.248   0.028 -0.3995 -0.3766  0.0356
 5805TIP3    H138974   2.464   4.338   0.024  0.3637 -0.6796 -0.6122
 5805TIP3    H238975   2.396   4.231  -0.059 -0.6062 -0.6986  0.1772
 5806TIP3   OH238976   2.660   2.062   1.665 -0.1499 -0.1007  0.4007
 5806TIP3    H138977   2.747   2.025   1.678 -0.7939 -1.7235  0.3187
 5806TIP3    H238978   2.601   2.001   1.709 -1.2139  1.3206  1.0410
 5807TIP3   OH238979   2.532   2.501   0.211 -0.3521  0.0146 -0.1099
 5807TIP3    H138980   2.468   2.431   0.226 -1.3024  1.0002  0.5767
 5807TIP3    H238981   2.587   2.468   0.140 -1.5299 -0.9262 -0.6305
 5808TIP3   OH238982   0.168   1.624   7.776  0.3805  0.2514  0.0480
 5808TIP3    H138983   0.184   1.531   7.764 -0.7802  0.1609 -0.9387
 5808TIP3    H238984   0.211   1.667   7.702  0.8976  0.5136  0.4884
 5809TIP3   OH238985   3.539   1.323   2.968  0.3607  0.9458  0.1215
 5809TIP3    H138986   3.548   1.418   2.980  3.5335  0.7177  0.2694
 5809TIP3    H238987   3.562   1.286   3.053 -0.5589 -0.0056 -0.0259
 5810TIP3   OH238988   5.791   0.212   2.130  0.0422  0.5536 -0.3964
 5810TIP3    H138989   5.735   0.163   2.190  2.0297 -2.1169 -0.5485
 5810TIP3    H238990   5.791   0.161   2.049  0.0915  2.2873 -1.5461
 5811TIP3   OH238991   6.000   5.599   0.911 -0.4825  0.6354 -0.5287
 5811TIP3    H138992   5.996   5.663   0.840 -3.1995  2.1455  0.8391
 5811TIP3    H238993   5.979   5.649   0.989  1.8050 -1.0821  1.3499
 5812TIP3   OH238994   4.135   5.587   8.151  0.0916 -0.6212 -0.8873
 5812TIP3    H138995   4.199   5.565   8.083 -0.0601  0.0230 -1.2522
 5812TIP3    H238996   4.082   5.508   8.161 -0.1654 -0.5882 -1.8395
 5813TIP3   OH238997   1.697   0.485   0.276 -0.1892 -0.0079  0.1584
 5813TIP3    H138998   1.670   0.397   0.250  1.0530 -0.0210 -1.1657
 5813TIP3    H238999   1.768   0.471   0.338  1.0169  0.0406 -1.1771
 5814TIP3   OH239000   4.610   1.310   8.234  0.0700  1.0838 -0.3955
 5814TIP3    H139001   4.637   1.261   8.312  0.3770  0.6218 -0.7844
 5814TIP3    H239002   4.558   1.247   8.184 -0.9767  1.6854 -0.0939
 5815TIP3   OH239003   5.946   4.441   8.742  0.3560  0.0242 -0.1640
 5815TIP3    H139004   5.889   4.456   8.817 -1.3986  2.5037 -1.8217
 5815TIP3    H239005   6.029   4.480   8.766 -0.3449  1.2583  0.3427
 5816TIP3   OH239006   5.709   0.848   7.853  0.6263  0.5096  0.0061
 5816TIP3    H139007   5.733   0.809   7.770  1.5079  1.3746 -0.1717
 5816TIP3    H239008   5.713   0.776   7.916  0.5821 -0.0143 -0.5806
 5817TIP3   OH239009   3.848   5.211   8.360 -0.2237 -0.1918  0.5378
 5817TIP3    H139010   3.820   5.182   8.447  1.7060 -0.6489  1.0800
 5817TIP3    H239011   3.916   5.148   8.335  0.9666  1.3274 -0.2332
 5818TIP3   OH239012   1.752   4.074   8.581  0.2815  1.1226 -0.0763
 5818TIP3    H139013   1.789   4.161   8.570  0.0315  0.9660 -2.6732
 5818TIP3    H239014   1.822   4.014   8.555 -0.6545  0.7282 -1.8677
 5819TIP3   OH239015   2.193   2.346   8.960 -0.1819 -0.2250 -0.3636
 5819TIP3    H139016   2.118   2.375   9.011 -0.5631 -0.4017 -0.8202
 5819TIP3    H239017   2.193   2.401   8.882  0.7562  0.4597  0.0963
 5820TIP3   OH239018   6.199   2.105   1.674 -0.3378 -0.3648 -0.0404
 5820TIP3    H139019   6.174   2.013   1.659  0.8262 -0.5491 -0.9823
 5820TIP3    H239020   6.146   2.154   1.611 -2.1257 -0.1923  1.5220
 5821TIP3   OH239021   1.478   5.246   1.105  0.4054  0.3160  0.0647
 5821TIP3    H139022   1.452   5.336   1.082 -1.1967  0.1019  0.8621
 5821TIP3    H239023   1.442   5.233   1.193  3.2142 -0.1123  1.2460
 5822TIP3   OH239024   4.624   3.391   8.650  0.2704  0.0027 -0.3897
 5822TIP3    H139025   4.577   3.399   8.733 -2.0570 -0.0121 -1.6320
 5822TIP3    H239026   4.626   3.480   8.615  1.0233 -0.0293 -0.4382
 5823TIP3   OH239027   5.008   5.479   1.279 -0.4544 -0.9544 -0.1171
 5823TIP3    H139028   4.979   5.441   1.196  1.3815  0.6971 -1.6170
 5823TIP3    H239029   5.078   5.421   1.308  0.9495  0.0374 -1.3484
 5824TIP3   OH239030   3.551   4.592   2.012  0.1412 -0.0053  0.4021
 5824TIP3    H139031   3.499   4.672   2.010 -0.0932 -0.1037  1.8063
 5824TIP3    H239032   3.641   4.623   1.997 -0.2859  0.1053 -2.5669
 5825TIP3   OH239033   4.193   5.001   2.886  0.6870  0.0523  0.4315
 5825TIP3    H139034   4.132   4.979   2.956 -0.5846  1.5718 -0.1518
 5825TIP3    H239035   4.194   4.922   2.831 -1.6904  0.3551 -0.1716
 5826TIP3   OH239036   6.141   2.947   0.887  0.8004  0.0878  0.1372
 5826TIP3    H139037   6.194   3.023   0.910  0.6030 -0.4194  2.4744
 5826TIP3    H239038   6.143   2.892   0.965  0.4142 -2.0301 -1.2729
 5827TIP3   OH239039   4.200   3.340   8.230  0.4512 -0.5006 -0.2632
 5827TIP3    H139040   4.217   3.299   8.314 -0.7629 -0.6009 -0.0487
 5827TIP3    H239041   4.114   3.307   8.204  0.1466  0.6819 -0.8307
 5828TIP3   OH239042   4.662   2.159   9.085 -0.2280  0.0416 -0.0586
 5828TIP3    H139043   4.643   2.069   9.113 -0.8053 -0.7528 -2.7486
 5828TIP3    H239044   4.752   2.157   9.055 -0.6077  0.0286 -1.2442
 5829TIP3   OH239045   4.858   2.368   8.809 -0.1906  0.2521  0.6075
 5829TIP3    H139046   4.851   2.435   8.877 -1.9569 -1.8088  2.6257
 5829TIP3    H239047   4.898   2.293   8.853  0.1103 -0.6166 -1.0739
 5830TIP3   OH239048   1.076   5.792   2.031 -0.1634  0.3964 -0.0607
 5830TIP3    H139049   1.134   5.793   1.955 -0.6234  1.4735 -0.4123
 5830TIP3    H239050   0.992   5.825   1.998 -1.5261 -2.6242  0.0171
 5831TIP3   OH239051   1.672   0.744   8.414  0.5906 -0.2532  0.5276
 5831TIP3    H139052   1.610   0.674   8.433 -0.0151  0.2533  0.4388
 5831TIP3    H239053   1.721   0.756   8.496 -1.0787  0.9937  1.3929
 5832TIP3   OH239054   5.503   2.772   2.787 -0.0014  0.8647  0.2907
 5832TIP3    H139055   5.580   2.798   2.837  0.3799  0.2622  0.0313
 5832TIP3    H239056   5.438   2.840   2.805  0.8372  1.7851 -0.0788
 5833TIP3   OH239057   2.239   4.906   8.681 -0.3208 -0.1472 -0.6051
 5833TIP3    H139058   2.253   4.812   8.675 -0.0897 -0.1628  0.0783
 5833TIP3    H239059   2.146   4.915   8.703 -0.4688 -0.1922 -1.2013
 5834TIP3   OH239060   4.441   5.483   1.091  0.9114 -0.1935  0.2744
 5834TIP3    H139061   4.375   5.477   1.022  1.0483  0.5460  0.0666
 5834TIP3    H239062   4.393   5.471   1.173  0.4928  0.4990  0.1305
 5835TIP3   OH239063   4.150   1.318   7.890  0.0894 -0.1189 -0.1433
 5835TIP3    H139064   4.240   1.288   7.899  0.3309 -0.6335 -3.1955
 5835TIP3    H239065   4.101   1.241   7.862 -0.8639  0.5813 -0.4843
 5836TIP3   OH239066   3.838   2.812   1.093 -0.0918 -0.2817 -0.5519
 5836TIP3    H139067   3.845   2.718   1.073 -0.3073 -0.3487 -0.3125
 5836TIP3    H239068   3.744   2.829   1.093 -0.0872 -0.2439  0.2294
 5837TIP3   OH239069   3.435   1.065   8.022 -0.0598 -0.0422  0.3508
 5837TIP3    H139070   3.524   1.048   8.055  0.4598  2.5219  0.5146
 5837TIP3    H239071   3.427   1.161   8.024 -2.5834 -0.1695 -0.3706
 5838TIP3   OH239072   4.365   2.699   2.516 -0.4304 -0.1785 -0.0315
 5838TIP3    H139073   4.373   2.768   2.582  1.3435  0.6878 -1.0645
 5838TIP3    H239074   4.410   2.624   2.554 -3.5885 -1.3729  1.7035
 5839TIP3   OH239075   4.033   0.362   8.896 -0.5323  0.5653  0.5193
 5839TIP3    H139076   4.078   0.302   8.835  0.7250  1.2874  0.6912
 5839TIP3    H239077   3.941   0.358   8.870 -0.3488 -0.7702 -0.0330
 5840TIP3   OH239078   2.191   1.295   8.760 -0.5961 -0.7232  0.3496
 5840TIP3    H139079   2.254   1.230   8.791 -0.8445 -1.8667 -1.4276
 5840TIP3    H239080   2.216   1.312   8.669 -0.3251  1.9810  0.8294
 5841TIP3   OH239081   2.925   0.990   7.996 -0.6202  0.3292  0.3347
 5841TIP3    H139082   3.011   1.032   7.993 -0.2549 -0.2815  1.5749
 5841TIP3    H239083   2.943   0.900   8.023 -1.5888 -0.0048 -0.0936
 5842TIP3   OH239084   3.576   0.379   8.215  0.3568  0.4049 -0.0456
 5842TIP3    H139085   3.573   0.318   8.290 -1.9652  0.5575  0.0742
 5842TIP3    H239086   3.495   0.430   8.224  0.3415  0.8534 -2.3205
 5843TIP3   OH239087   5.044   2.134   0.343  0.7420  0.0836  0.5323
 5843TIP3    H139088   5.126   2.185   0.342  0.6801  0.3538  3.1352
 5843TIP3    H239089   5.053   2.074   0.269  3.2336  0.2242  0.6248
 5844TIP3   OH239090   5.449   5.119   0.631  0.4242  0.0338 -0.0500
 5844TIP3    H139091   5.361   5.132   0.596 -0.1386 -0.1223  1.2491
 5844TIP3    H239092   5.485   5.208   0.638  0.1223  0.1524  0.0293
 5845TIP3   OH239093   6.285   3.926   8.485  0.0205  0.6022  0.0142
 5845TIP3    H139094   6.231   3.928   8.406  1.5787  0.3328 -1.1061
 5845TIP3    H239095   6.239   3.866   8.544 -1.6203  1.4860 -0.3134
 5846TIP3   OH239096   4.901   3.084   0.293 -0.0848 -0.0712 -0.3013
 5846TIP3    H139097   4.808   3.107   0.288  0.1781  0.7599 -2.4261
 5846TIP3    H239098   4.936   3.138   0.364 -1.3027 -0.8092  0.8964
 5847TIP3   OH239099   2.045   4.626   1.928  0.0925  0.0917  0.5741
 5847TIP3    H139100   2.012   4.629   1.838 -1.7432 -0.2883  1.1952
 5847TIP3    H239101   2.107   4.699   1.933  3.7991 -2.5073 -2.2475
 5848TIP3   OH239102   4.280   6.527   1.488 -0.6482  0.1764  0.3592
 5848TIP3    H139103   4.285   6.621   1.507  2.0538  0.3199 -0.7112
 5848TIP3    H239104   4.273   6.522   1.393  0.5199 -0.7004  0.3045
 5849TIP3   OH239105   5.041   1.250   2.054 -0.1265 -0.0603  0.3510
 5849TIP3    H139106   5.076   1.298   1.979 -0.0807  1.1085  1.1036
 5849TIP3    H239107   5.032   1.315   2.123 -0.3168 -1.0838  1.3286
 5850TIP3   OH239108   6.189   5.777   0.387 -0.2586 -0.0020 -0.3491
 5850TIP3    H139109   6.190   5.824   0.303  1.4251  1.6567  0.5235
 5850TIP3    H239110   6.158   5.689   0.364  1.5991 -0.0938 -2.9856
 5851TIP3   OH239111   4.447   5.697   0.912  0.1032 -0.2614  0.4253
 5851TIP3    H139112   4.395   5.683   0.833 -1.5756  2.3059  0.9521
 5851TIP3    H239113   4.410   5.637   0.976 -2.0700  1.2394  0.6719
 5852TIP3   OH239114   6.047   0.662   8.191 -0.9369 -0.6158  0.0713
 5852TIP3    H139115   6.078   0.683   8.103 -0.4107 -1.5127  0.0231
 5852TIP3    H239116   5.957   0.694   8.194 -0.6293  0.3282 -0.4479
 5853TIP3   OH239117   6.350   3.255   3.058 -0.2369 -0.5378 -0.2508
 5853TIP3    H139118   6.268   3.303   3.057 -0.1632 -0.3836  0.5546
 5853TIP3    H239119   6.393   3.279   2.976 -0.1559  0.8750  0.1696
 5854TIP3   OH239120   6.395   3.842   0.976  0.0658  0.6552 -0.5205
 5854TIP3    H139121   6.346   3.789   0.913  0.6898 -0.9249  0.2606
 5854TIP3    H239122   6.329   3.896   1.019 -0.4680  1.2208 -1.9855
 5855TIP3   OH239123   2.008   5.906   0.289  0.0232 -0.7490 -0.1938
 5855TIP3    H139124   2.074   5.923   0.356  0.1699 -1.1064 -0.2508
 5855TIP3    H239125   2.055   5.863   0.218  0.2925  1.3994 -1.4079
 5856TIP3   OH239126   5.912   6.327   0.185  0.0755 -0.7210  0.2662
 5856TIP3    H139127   5.980   6.347   0.121 -0.3105 -1.0133 -0.2457
 5856TIP3    H239128   5.865   6.409   0.198  0.9088 -0.3534  1.1036
 5857TIP3   OH239129   1.966   3.166   8.156  0.4817 -0.5590  0.2481
 5857TIP3    H139130   1.899   3.234   8.146  1.8842  0.5168 -3.4769
 5857TIP3    H239131   2.035   3.207   8.208 -0.5536 -0.7863  1.8690
 5858TIP3   OH239132   2.087   0.143   0.079  0.1246 -0.6723  0.4538
 5858TIP3    H139133   2.174   0.102   0.080  0.5061  0.0894 -0.1804
 5858TIP3    H239134   2.098   0.225   0.128 -0.7959 -1.5976  2.3087
 5859TIP3   OH239135   5.131   4.652   2.167 -0.0181  0.4426  0.2480
 5859TIP3    H139136   5.086   4.602   2.234 -0.3292  0.2326 -0.1175
 5859TIP3    H239137   5.172   4.724   2.215 -0.3080  0.3433  0.6504
 5860TIP3   OH239138   2.724   3.399   8.314  0.0158  0.2770  0.4311
 5860TIP3    H139139   2.773   3.457   8.256 -0.0268  0.8705  0.9867
 5860TIP3    H239140   2.633   3.409   8.287 -0.0317  0.7425  0.7685
 5861TIP3   OH239141   1.790   0.760   1.694 -0.5357  0.2198  0.5034
 5861TIP3    H139142   1.765   0.836   1.642  0.2026  0.0484 -0.1289
 5861TIP3    H239143   1.885   0.768   1.705 -0.5864 -0.1106  1.2494
 5862TIP3   OH239144   5.208   5.761   2.598  0.6526 -0.5415 -0.1639
 5862TIP3    H139145   5.282   5.763   2.658  1.1546 -0.3765 -0.7821
 5862TIP3    H239146   5.131   5.769   2.655  1.1733  1.8685  0.3249
 5863TIP3   OH239147   6.517   1.646   2.562 -0.5789 -0.3277 -0.0194
 5863TIP3    H139148   6.560   1.572   2.518 -0.1163 -0.5414  0.7689
 5863TIP3    H239149   6.487   1.609   2.646 -1.3203  0.1036 -0.0936
 5864TIP3   OH239150   0.281   2.377   7.999 -0.4220 -0.4306 -0.7340
 5864TIP3    H139151   0.290   2.412   7.910 -1.0799 -0.4768 -0.8243
 5864TIP3    H239152   0.361   2.405   8.044 -0.7731  0.8989 -0.9002
 5865TIP3   OH239153   4.470   3.887   7.714  0.2271 -0.0322 -0.2531
 5865TIP3    H139154   4.416   3.947   7.662  1.3305  1.4576  0.2218
 5865TIP3    H239155   4.486   3.813   7.656 -0.7565  0.3661 -1.0689
 5866TIP3   OH239156   4.160   3.863   0.409  0.0572  0.1171  0.1384
 5866TIP3    H139157   4.117   3.828   0.330  0.8282  0.7843 -0.5928
 5866TIP3    H239158   4.088   3.889   0.466 -0.5133 -0.3236 -0.3646
 5867TIP3   OH239159   4.240   0.276   1.648  0.1473 -0.0255  0.3202
 5867TIP3    H139160   4.225   0.223   1.570  1.3348  0.3822 -0.2244
 5867TIP3    H239161   4.326   0.247   1.680 -0.4000 -0.3185  1.6068
 5868TIP3   OH239162   1.095   3.069   8.899 -0.0504  0.6437  0.3508
 5868TIP3    H139163   1.099   3.143   8.960  0.0135  0.1773  0.9176
 5868TIP3    H239164   1.052   3.105   8.821 -2.7328  0.5456  1.6750
 5869TIP3   OH239165   0.604   3.835   3.212  0.5729 -0.0189 -0.4409
 5869TIP3    H139166   0.677   3.804   3.265  0.8313  0.2635 -0.6227
 5869TIP3    H239167   0.527   3.827   3.268  0.5050 -1.6475 -0.7136
 5870TIP3   OH239168   4.300   5.771   8.347 -0.5882  0.1261  0.6109
 5870TIP3    H139169   4.228   5.716   8.317 -0.3963  0.2613 -0.1268
 5870TIP3    H239170   4.262   5.827   8.415 -1.7018  1.5847 -1.1247
 5871TIP3   OH239171   5.601   1.718   0.172 -0.2525  0.0768 -0.4813
 5871TIP3    H139172   5.541   1.781   0.210 -0.5973 -0.9141  0.6783
 5871TIP3    H239173   5.672   1.711   0.236  0.7615  0.7018 -1.5016
 5872TIP3   OH239174   3.566   6.381   1.223 -0.3058 -0.1217  0.2042
 5872TIP3    H139175   3.612   6.453   1.181  0.7122 -1.6203 -1.4427
 5872TIP3    H239176   3.509   6.422   1.288 -1.8057  2.3857 -2.4828
 5873TIP3   OH239177   1.633   2.256   2.604  0.0817 -0.6675 -0.0717
 5873TIP3    H139178   1.548   2.291   2.631  0.9011 -0.3498  2.2722
 5873TIP3    H239179   1.666   2.320   2.540 -1.8642 -1.3844 -1.9264
 5874TIP3   OH239180   4.261   1.851   7.874  0.2453  0.1626 -0.6828
 5874TIP3    H139181   4.284   1.866   7.782  0.4256 -0.9116 -0.8200
 5874TIP3    H239182   4.166   1.860   7.877  0.1919 -0.2593 -1.0643
 5875TIP3   OH239183   2.052   3.910   2.289  0.0711 -0.3262  0.2527
 5875TIP3    H139184   2.101   3.841   2.244 -1.4212 -1.8954  0.9414
 5875TIP3    H239185   1.973   3.922   2.237  0.1913  0.7233  0.2793
 5876TIP3   OH239186   0.156   1.364   7.744 -0.3806  0.0265  0.4278
 5876TIP3    H139187   0.168   1.311   7.665  0.9451  0.7995  0.0754
 5876TIP3    H239188   0.081   1.324   7.789  0.3943 -1.9732  0.0525
 5877TIP3   OH239189   4.080   1.651   8.474 -0.0433  0.0915  0.4870
 5877TIP3    H139190   4.113   1.562   8.465 -0.9759 -0.2285  0.1190
 5877TIP3    H239191   4.103   1.694   8.392  1.7630  0.6679  1.2565
 5878TIP3   OH239192   4.459   4.579   2.345  0.0327 -0.1542 -0.2576
 5878TIP3    H139193   4.499   4.636   2.280 -0.6078 -1.0365 -1.4924
 5878TIP3    H239194   4.513   4.588   2.423  1.6275 -0.0669 -1.3343
 5879TIP3   OH239195   6.175   2.690   0.706 -0.9408 -0.4385  0.1365
 5879TIP3    H139196   6.086   2.719   0.721 -1.0171 -1.4398  1.9064
 5879TIP3    H239197   6.214   2.685   0.793  1.2263  1.0565 -0.6633
 5880TIP3   OH239198   2.394   5.790   0.990  0.0556 -0.2798 -0.1008
 5880TIP3    H139199   2.450   5.740   1.050  0.5942  1.1606  0.6503
 5880TIP3    H239200   2.322   5.821   1.044  0.1574  0.4328 -0.3703
 5881TIP3   OH239201   4.020   2.134   0.996  0.1595 -0.0337 -0.7155
 5881TIP3    H139202   4.021   2.215   1.046  1.7501 -0.7728  0.5632
 5881TIP3    H239203   4.105   2.132   0.952 -0.4602 -0.3124 -1.9508
 5882TIP3   OH239204   2.623   3.915   0.780 -0.6408  0.2877  0.2312
 5882TIP3    H139205   2.684   3.989   0.788  0.9814 -0.9579  0.0014
 5882TIP3    H239206   2.575   3.932   0.699 -0.1706  1.0129  0.0916
 5883TIP3   OH239207   1.339   0.106   1.313 -0.1542  0.5611 -0.0650
 5883TIP3    H139208   1.429   0.098   1.281 -0.2921  2.0502 -0.9234
 5883TIP3    H239209   1.286   0.068   1.243 -0.3340  2.0583 -0.7747
 5884TIP3   OH239210   4.949   6.020   7.466 -0.0901 -0.1644 -0.2245
 5884TIP3    H139211   4.877   5.986   7.414 -0.0182 -0.0164 -0.4242
 5884TIP3    H239212   4.967   5.952   7.532  0.2501 -0.6443 -0.8030
 5885TIP3   OH239213   1.458   2.295   2.836 -0.1479 -0.4859 -0.2085
 5885TIP3    H139214   1.393   2.239   2.878 -0.1327 -0.5279 -0.2406
 5885TIP3    H239215   1.455   2.377   2.885  1.1472 -1.1421  1.0726
 5886TIP3   OH239216   5.531   4.712   0.000 -0.3813  0.0801 -0.2764
 5886TIP3    H139217   5.497   4.801   0.011 -0.8251 -0.0168 -0.8035
 5886TIP3    H239218   5.623   4.717   0.026 -0.5734  0.5443  0.3300
 5887TIP3   OH239219   1.506   3.563   1.257 -0.2545  0.0285  0.0960
 5887TIP3    H139220   1.454   3.489   1.223  0.6564  0.1286 -1.6164
 5887TIP3    H239221   1.509   3.625   1.184  1.7426  0.2928  0.3463
 5888TIP3   OH239222   2.555   4.623   0.387 -0.0461 -0.0447  0.5126
 5888TIP3    H139223   2.584   4.698   0.335  0.2466  0.0653  0.8325
 5888TIP3    H239224   2.465   4.608   0.359  0.0632  0.0974  0.0693
 5889TIP3   OH239225   0.570   4.011   0.754 -0.3161  0.3555 -0.2444
 5889TIP3    H139226   0.617   3.962   0.687  0.7438  1.1848 -0.1324
 5889TIP3    H239227   0.512   4.069   0.704  1.1707  1.6693 -0.5199
 5890TIP3   OH239228   6.564   5.664   2.013  0.2563 -0.7814  0.0898
 5890TIP3    H139229   6.468   5.663   2.012  0.2128 -0.7364  1.7422
 5890TIP3    H239230   6.586   5.757   2.021  0.4866 -0.7030 -1.2012
 5891TIP3   OH239231   2.507   0.294   0.232 -0.0125 -0.1415 -0.0249
 5891TIP3    H139232   2.602   0.295   0.243  0.1558 -1.9804 -0.9379
 5891TIP3    H239233   2.493   0.324   0.142 -0.3035  0.0452  0.0792
 5892TIP3   OH239234   3.033   0.007   2.116 -0.1674  0.1082  0.3860
 5892TIP3    H139235   2.996   0.055   2.190 -1.0418  0.5836 -0.3260
 5892TIP3    H239236   2.956  -0.024   2.068  0.3790  0.0608 -0.4677
 5893TIP3   OH239237   3.539   1.079   1.389  0.0109 -0.6809 -0.2100
 5893TIP3    H139238   3.465   1.070   1.328  0.8507 -0.0574 -1.3540
 5893TIP3    H239239   3.616   1.062   1.336  0.7392 -0.6622  0.8199
 5894TIP3   OH239240   4.922   4.514   1.873 -0.1376 -0.1733  0.2549
 5894TIP3    H139241   4.997   4.462   1.902  0.0848  0.9212  1.7373
 5894TIP3    H239242   4.961   4.592   1.833 -0.4585  0.4689  1.1617
 5895TIP3   OH239243   1.470   0.312   1.721 -0.3606 -0.0595  0.0679
 5895TIP3    H139244   1.404   0.364   1.766  0.0236  0.3235  0.1925
 5895TIP3    H239245   1.434   0.223   1.720 -0.8857  0.1512  0.1131
 5896TIP3   OH239246   6.435   5.431   7.243  0.7510 -0.7092 -0.1383
 5896TIP3    H139247   6.379   5.395   7.175  0.8538 -0.6424 -0.2592
 5896TIP3    H239248   6.433   5.366   7.313 -0.3533 -0.2094  0.3231
 5897TIP3   OH239249   3.091   3.458   0.587 -0.2584 -0.0872 -0.5984
 5897TIP3    H139250   3.052   3.371   0.593 -0.3315 -0.1872 -2.1086
 5897TIP3    H239251   3.131   3.460   0.500  1.6459  0.6273  0.2496
 5898TIP3   OH239252   0.462   0.112   8.599 -0.0009  0.1897 -0.0766
 5898TIP3    H139253   0.447   0.055   8.674 -4.3333 -2.3068 -2.4406
 5898TIP3    H239254   0.519   0.060   8.542  2.3009  1.5961  0.7972
 5899TIP3   OH239255   5.588   3.665   1.381  0.6931 -0.8029  0.0779
 5899TIP3    H139256   5.568   3.709   1.463  2.1917 -1.8648  1.0762
 5899TIP3    H239257   5.510   3.677   1.327 -1.1569 -1.7215  2.3759
 5900TIP3   OH239258   1.221   3.892   7.536  0.0119 -0.2220  0.1096
 5900TIP3    H139259   1.236   3.968   7.592  0.3118 -2.0369  2.7033
 5900TIP3    H239260   1.147   3.846   7.577  0.1302 -1.5721 -1.0881
 5901TIP3   OH239261   6.342   5.823   8.522  0.3142  0.3621  0.1179
 5901TIP3    H139262   6.303   5.740   8.552  0.9847  0.1262  0.3622
 5901TIP3    H239263   6.404   5.846   8.591  0.9981  0.4445 -0.5198
 5902TIP3   OH239264   1.337   3.313   2.509  0.5722  0.1714 -0.3445
 5902TIP3    H139265   1.377   3.371   2.574 -0.1768 -2.4542  2.7414
 5902TIP3    H239266   1.243   3.319   2.526  0.3477 -0.4380 -1.3132
 5903TIP3   OH239267   2.505   0.224   2.496  0.0010 -0.3182  0.6469
 5903TIP3    H139268   2.461   0.254   2.417  0.5268 -0.6867  0.2094
 5903TIP3    H239269   2.517   0.303   2.549  1.1224  0.2124 -0.3583
 5904TIP3   OH239270   1.376   2.822   7.904  0.9026  0.2696 -0.8736
 5904TIP3    H139271   1.398   2.744   7.853  1.3371  0.2221 -0.6202
 5904TIP3    H239272   1.438   2.888   7.875  2.1918 -0.1953  0.6665
 5905TIP3   OH239273   4.749   1.111   7.307  0.7310 -0.0366 -0.4410
 5905TIP3    H139274   4.816   1.177   7.289  1.5278 -1.1148 -1.5328
 5905TIP3    H239275   4.754   1.051   7.233 -1.0900 -0.4453 -0.2847
 5906TIP3   OH239276   3.142   5.724   9.125  0.1474  0.1612  0.0817
 5906TIP3    H139277   3.205   5.653   9.134  1.0628  0.9183 -0.2624
 5906TIP3    H239278   3.057   5.679   9.118  0.7655 -0.9287 -0.7890
 5907TIP3   OH239279   2.814   2.530   0.994  0.1859 -0.9743 -0.3686
 5907TIP3    H139280   2.900   2.569   0.979 -0.0171 -0.9483 -1.5659
 5907TIP3    H239281   2.752   2.596   0.964 -0.2790 -0.7939  0.9620
 5908TIP3   OH239282   1.082   3.247   0.647 -0.4731  0.4918  0.3990
 5908TIP3    H139283   1.011   3.282   0.593  0.1214  0.5386 -0.3665
 5908TIP3    H239284   1.081   3.153   0.630 -0.3688  0.4889  0.4091
 5909TIP3   OH239285   1.376   4.027   0.323 -0.2872  0.6113 -0.1605
 5909TIP3    H139286   1.422   3.971   0.261  0.1682  0.9550 -0.1425
 5909TIP3    H239287   1.435   4.101   0.335  0.4717 -0.2956  2.0766
 5910TIP3   OH239288   2.481   3.824   9.098  0.1517 -0.1795  0.2094
 5910TIP3    H139289   2.452   3.872   9.020 -0.9948 -2.8385 -1.1269
 5910TIP3    H239290   2.538   3.755   9.065 -0.6552 -1.6080  1.6509
 5911TIP3   OH239291   1.167   5.546   3.250  0.2511 -0.2994  0.0854
 5911TIP3    H139292   1.097   5.496   3.208  0.3466 -0.9040  0.6188
 5911TIP3    H239293   1.190   5.614   3.187  0.6398 -1.3955 -0.9979
 5912TIP3   OH239294   2.624   4.139   8.520 -0.3169  0.1275  0.2419
 5912TIP3    H139295   2.688   4.104   8.457 -0.1410 -0.9420  0.9843
 5912TIP3    H239296   2.676   4.196   8.577 -0.1337 -0.2696  0.4765
 5913TIP3   OH239297   3.674   4.506   8.193  0.0005 -0.5400 -0.2334
 5913TIP3    H139298   3.587   4.500   8.233 -0.2656  2.5966 -0.0493
 5913TIP3    H239299   3.659   4.489   8.100 -0.3677 -2.3342  0.1276
 5914TIP3   OH239300   0.832   0.788   0.198  0.1399 -0.5451  0.3311
 5914TIP3    H139301   0.874   0.866   0.162  0.0487 -0.5047  0.3132
 5914TIP3    H239302   0.863   0.783   0.288  1.5569 -1.4756 -0.1715
 5915TIP3   OH239303   5.616   6.069   3.134  0.5138  0.3255 -0.2784
 5915TIP3    H139304   5.554   6.136   3.164  0.4777 -0.6410  1.9763
 5915TIP3    H239305   5.565   6.013   3.075 -0.8503 -0.5139  1.6144
 5916TIP3   OH239306   1.394   3.207   2.891  0.6075 -0.2565 -0.3099
 5916TIP3    H139307   1.420   3.265   2.820  3.5882 -1.2577 -0.1424
 5916TIP3    H239308   1.329   3.148   2.851 -0.9566  1.7972 -0.9906
 5917TIP3   OH239309   3.725   4.409   1.618  0.0013  0.0081  0.0359
 5917TIP3    H139310   3.696   4.338   1.560 -0.5018  0.9750 -0.9417
 5917TIP3    H239311   3.652   4.421   1.680 -0.5292  0.5873 -0.6804
 5918TIP3   OH239312   4.632   0.233   0.035 -0.5724  0.3353  0.2367
 5918TIP3    H139313   4.617   0.257  -0.057 -0.8738 -2.2348 -0.4615
 5918TIP3    H239314   4.544   0.235   0.074 -0.7459 -0.5583 -0.0854
 5919TIP3   OH239315   6.198   4.543   8.805  0.2049 -0.6713  0.3552
 5919TIP3    H139316   6.178   4.596   8.727  3.9915  0.1260 -0.2686
 5919TIP3    H239317   6.255   4.598   8.858  2.3773 -3.2149  0.8563
 5920TIP3   OH239318   5.211   0.191   9.189 -0.2229 -0.4996  0.0461
 5920TIP3    H139319   5.180   0.102   9.170  0.6539 -0.4174 -2.0022
 5920TIP3    H239320   5.132   0.244   9.189 -0.6433 -1.1127  0.2552
 5921TIP3   OH239321   0.805   0.192   8.416  0.0195 -0.1287 -0.0399
 5921TIP3    H139322   0.763   0.277   8.432  0.2470 -0.0499  0.1383
 5921TIP3    H239323   0.749   0.150   8.351 -0.1037  0.1508 -0.1146
 5922TIP3   OH239324   0.868   2.594   1.292 -0.0929 -0.1517 -0.5153
 5922TIP3    H139325   0.853   2.606   1.386 -0.2169 -1.5985 -0.3321
 5922TIP3    H239326   0.922   2.669   1.268  1.8839 -0.9112  1.2101
 5923TIP3   OH239327   5.044   0.337   1.239  0.4174 -0.3443  0.1954
 5923TIP3    H139328   5.052   0.299   1.327 -0.3414  0.6527  0.7251
 5923TIP3    H239329   5.005   0.423   1.254  0.1459 -0.2128 -1.1418
 5924TIP3   OH239330   0.305   2.457   1.564  0.7157  0.6578  0.5964
 5924TIP3    H139331   0.313   2.426   1.654  0.4741  0.8931  0.6988
 5924TIP3    H239332   0.363   2.533   1.559  1.7779 -0.1484  0.1803
 5925TIP3   OH239333   2.752   0.505   8.980 -0.7439  0.1086  0.2993
 5925TIP3    H139334   2.714   0.435   9.034 -0.0179 -0.4603  0.0850
 5925TIP3    H239335   2.745   0.472   8.891  0.5192 -0.1572  0.2740
 5926TIP3   OH239336   6.551   5.896   2.589  0.4884 -0.2446  0.0480
 5926TIP3    H139337   6.569   5.802   2.586 -1.2070 -0.5956 -0.6486
 5926TIP3    H239338   6.520   5.917   2.501 -0.5744  0.6338  0.6127
 5927TIP3   OH239339   1.747   6.248   1.456  0.5633 -0.4609 -0.0947
 5927TIP3    H139340   1.793   6.307   1.396  1.2004  2.3142  2.8092
 5927TIP3    H239341   1.816   6.201   1.502  0.2868 -0.3160  0.4911
 5928TIP3   OH239342   3.874   6.361   9.085 -0.3115 -1.2133 -0.2559
 5928TIP3    H139343   3.951   6.360   9.142 -0.0576 -0.9498 -0.5869
 5928TIP3    H239344   3.800   6.351   9.145 -0.0200 -1.4786  0.0657
 5929TIP3   OH239345   2.330   3.019   0.586  0.4720  0.0462  0.0808
 5929TIP3    H139346   2.295   2.943   0.539  1.2925 -0.5492  0.4028
 5929TIP3    H239347   2.330   3.089   0.520  2.8385 -1.1031 -1.2742
 5930TIP3   OH239348   2.125   2.602   8.447  0.3053  0.2389 -0.6094
 5930TIP3    H139349   2.198   2.603   8.386 -0.7754 -0.6287 -1.9759
 5930TIP3    H239350   2.047   2.593   8.391 -0.7503 -0.1631  0.8675
 5931TIP3   OH239351   4.664   2.026   8.248  0.1022  0.4822  0.6434
 5931TIP3    H139352   4.737   2.080   8.215  0.1592 -0.9042 -1.7700
 5931TIP3    H239353   4.585   2.073   8.221  0.1487  0.4260  0.4002
 5932TIP3   OH239354   2.347   4.824   2.324 -0.1525  0.2715  0.0474
 5932TIP3    H139355   2.320   4.890   2.388 -2.4568  0.7486 -1.3314
 5932TIP3    H239356   2.425   4.861   2.283 -0.7817  1.6620  0.0487
 5933TIP3   OH239357   1.718   4.690   7.937 -0.1081 -0.0596  0.1762
 5933TIP3    H139358   1.716   4.647   8.022  0.3322 -0.2118  0.1156
 5933TIP3    H239359   1.653   4.643   7.885 -2.0315  1.4699  1.0667
 5934TIP3   OH239360   5.911   0.573   1.198  0.1366 -0.1327  0.3741
 5934TIP3    H139361   5.925   0.646   1.257  0.0704  0.6927 -0.6019
 5934TIP3    H239362   5.816   0.563   1.193  0.0500  0.9995 -0.9704
 5935TIP3   OH239363   4.684   0.993   1.840 -0.4229 -0.2056 -0.2347
 5935TIP3    H139364   4.778   0.982   1.831 -0.3513 -0.5368  0.7684
 5935TIP3    H239365   4.673   1.076   1.887 -0.5828 -0.5789  0.4062
 5936TIP3   OH239366   1.524   6.361   0.711 -0.6181 -0.5319  0.1844
 5936TIP3    H139367   1.497   6.324   0.795  0.0316  1.4449  1.3267
 5936TIP3    H239368   1.603   6.412   0.732 -1.3133  1.2429 -1.3132
 5937TIP3   OH239369   4.903   4.330   2.316 -0.3122 -0.3540  0.4677
 5937TIP3    H139370   4.911   4.332   2.411 -1.2145 -1.9973  0.5929
 5937TIP3    H239371   4.981   4.282   2.286  0.1632  0.4748  0.3169
 5938TIP3   OH239372   1.395   6.147   8.154  0.6202 -0.3497 -0.3315
 5938TIP3    H139373   1.406   6.116   8.064  0.6815  1.5818 -1.0432
 5938TIP3    H239374   1.483   6.171   8.182  0.2750  1.8057 -0.8813
 5939TIP3   OH239375   5.413   5.737   1.858  0.8655 -0.3213 -0.2621
 5939TIP3    H139376   5.413   5.698   1.771 -1.5263 -1.8198  0.3308
 5939TIP3    H239377   5.371   5.672   1.914  1.4941  0.9837  1.8426
 5940TIP3   OH239378   0.499   4.783   1.199  0.1556  0.8796 -0.0693
 5940TIP3    H139379   0.468   4.752   1.284 -0.3383 -1.7941 -1.1217
 5940TIP3    H239380   0.450   4.863   1.183  0.2580  1.4408  2.1252
 5941TIP3   OH239381   6.345   4.926   3.221  0.0475 -0.4991 -0.1386
 5941TIP3    H139382   6.370   4.844   3.179 -0.7669  0.4888 -2.7375
 5941TIP3    H239383   6.410   4.989   3.189 -2.3600  0.9372 -2.5673
 5942TIP3   OH239384   3.262   6.431   9.149 -0.3505 -0.1084  0.2480
 5942TIP3    H139385   3.300   6.389   9.073 -1.3305 -0.2823 -0.1553
 5942TIP3    H239386   3.216   6.361   9.196  0.1577  0.0139  0.9560
 5943TIP3   OH239387   5.722   5.845   2.480 -0.1078  0.5372  0.2616
 5943TIP3    H139388   5.645   5.798   2.450  0.2581  0.8922 -1.3544
 5943TIP3    H239389   5.757   5.791   2.551 -1.6756  0.2544  0.8611
 5944TIP3   OH239390   5.444   2.700   1.308 -0.1708 -0.2476  0.5444
 5944TIP3    H139391   5.387   2.743   1.372  1.8988  1.6163  1.2577
 5944TIP3    H239392   5.410   2.728   1.223 -0.5372  0.5785  0.9471
 5945TIP3   OH239393   6.282   2.420   0.847 -0.2087 -0.2837 -0.8452
 5945TIP3    H139394   6.312   2.497   0.895  0.1967 -0.9455 -0.0216
 5945TIP3    H239395   6.197   2.400   0.885  0.7347 -1.6647  0.6399
 5946TIP3   OH239396   0.243   6.358   9.293 -0.0121 -0.1195 -0.0091
 5946TIP3    H139397   0.333   6.382   9.319 -0.0175  1.3488 -1.2171
 5946TIP3    H239398   0.251   6.269   9.261  1.0659  0.0520 -0.2807
 5947TIP3   OH239399   2.462   5.226   2.133  0.3598  0.3484  0.2149
 5947TIP3    H139400   2.380   5.274   2.140  0.6260  0.8887 -0.3646
 5947TIP3    H239401   2.463   5.193   2.043  1.2135  1.1348 -0.0657
 5948TIP3   OH239402   5.518   1.101   9.233  0.2957 -0.2831 -0.3469
 5948TIP3    H139403   5.489   1.139   9.317  1.8273  1.1233 -0.4035
 5948TIP3    H239404   5.447   1.120   9.172  0.1990  0.8681  0.0906
 5949TIP3   OH239405   3.108   6.187   0.580  0.1163 -0.0544 -0.2394
 5949TIP3    H139406   3.181   6.159   0.636 -0.6978 -1.0603  0.3480
 5949TIP3    H239407   3.082   6.272   0.616  0.1480 -0.3020  0.3776
 5950TIP3   OH239408   3.102   3.971   0.317  0.3172  0.2238  0.5153
 5950TIP3    H139409   3.115   3.917   0.395 -1.1743  0.8379  1.2386
 5950TIP3    H239410   3.073   4.056   0.352  0.4368  0.7752 -0.6876
 5951TIP3   OH239411   0.840   1.810   8.503 -0.6463  0.0996 -0.7459
 5951TIP3    H139412   0.890   1.759   8.567 -0.9657 -0.1951 -0.7257
 5951TIP3    H239413   0.886   1.894   8.498 -1.2218  0.5302  0.6805
 5952TIP3   OH239414   2.008   5.553   2.767  0.3875  0.0725 -0.1171
 5952TIP3    H139415   2.050   5.518   2.845 -1.0665  1.0750  1.1715
 5952TIP3    H239416   1.944   5.616   2.800 -1.0296 -0.2519 -2.0656
 5953TIP3   OH239417   6.353   2.445   8.700  0.6021 -0.6028 -0.4450
 5953TIP3    H139418   6.316   2.356   8.695 -1.0203  0.0215 -0.1944
 5953TIP3    H239419   6.324   2.486   8.618  1.2549 -0.2604 -0.5058
 5954TIP3   OH239420   5.937   4.322   9.088 -0.1264 -0.3335 -0.2290
 5954TIP3    H139421   5.989   4.249   9.122  2.0642  1.4462  0.5027
 5954TIP3    H239422   5.921   4.377   9.164  0.6136  1.2616 -1.1626
 5955TIP3   OH239423   0.033   6.652   1.694 -0.5751  0.5740  1.0799
 5955TIP3    H139424   0.105   6.589   1.696 -0.1658  1.0241  0.7629
 5955TIP3    H239425   0.010   6.658   1.601 -1.6026 -0.2111  1.2652
 5956TIP3   OH239426   0.636   3.277   1.419  0.4570  0.5510 -0.5119
 5956TIP3    H139427   0.670   3.219   1.351 -0.8039 -0.1559 -0.5670
 5956TIP3    H239428   0.546   3.297   1.391 -0.8538 -1.3815  1.8699
 5957TIP3   OH239429   3.608   2.176   3.228  0.1736 -0.1096 -0.4878
 5957TIP3    H139430   3.522   2.166   3.267  0.2721  2.7853  0.7766
 5957TIP3    H239431   3.591   2.214   3.142  0.1398 -0.5506 -0.6731
 5958TIP3   OH239432   5.175   3.992   1.162 -0.1641  0.0476 -0.2118
 5958TIP3    H139433   5.207   4.033   1.081 -0.1020  2.4502  0.9271
 5958TIP3    H239434   5.216   4.044   1.231 -1.2278 -1.1418  1.3461
 5959TIP3   OH239435   0.627   4.623   9.162 -0.0820  0.2098 -0.2256
 5959TIP3    H139436   0.713   4.665   9.160 -0.2031  0.5988  1.3350
 5959TIP3    H239437   0.576   4.677   9.222 -1.5129  0.1351 -1.3289
 5960TIP3   OH239438   1.822   2.528   0.204 -0.2187  0.0152  0.0316
 5960TIP3    H139439   1.916   2.514   0.195 -0.1170 -0.2409  1.3406
 5960TIP3    H239440   1.782   2.461   0.148  0.3686  0.3058 -0.7513
 5961TIP3   OH239441   6.071   0.174   1.762  0.0675 -0.2818  0.6893
 5961TIP3    H139442   6.148   0.145   1.813  0.5904 -1.0056 -0.4628
 5961TIP3    H239443   6.031   0.092   1.733 -1.0908  0.0999  1.1766
 5962TIP3   OH239444   2.187   5.174   2.780 -0.2760  0.0925 -0.1069
 5962TIP3    H139445   2.260   5.225   2.745 -1.0002  1.1343 -0.1293
 5962TIP3    H239446   2.112   5.201   2.728 -1.2505  1.1689  1.7815
 5963TIP3   OH239447   4.168   1.660   8.821 -0.6969 -0.2328 -0.0733
 5963TIP3    H139448   4.079   1.643   8.791 -0.6369 -1.2251  0.2839
 5963TIP3    H239449   4.163   1.656   8.916 -0.8818  2.8564  0.1490
 5964TIP3   OH239450   3.986   3.307   2.258 -0.2363  0.8873  0.2569
 5964TIP3    H139451   4.060   3.246   2.254 -0.9579 -0.0605  0.8173
 5964TIP3    H239452   3.951   3.308   2.169 -0.3596  0.2761  0.2899
 5965TIP3   OH239453   1.841   2.216   8.819 -0.3175 -0.5602 -0.4816
 5965TIP3    H139454   1.882   2.257   8.742 -0.6475 -0.8508 -0.8199
 5965TIP3    H239455   1.900   2.144   8.842 -0.4885 -0.8110 -0.8046
 5966TIP3   OH239456   2.207   3.678   2.320 -0.3915 -0.2461  0.2041
 5966TIP3    H139457   2.122   3.654   2.357 -0.1870 -0.9839  0.1969
 5966TIP3    H239458   2.226   3.610   2.257  0.7243 -0.6985  1.0096
 5967TIP3   OH239459   0.805   3.533   1.217  0.4714 -0.4856  0.3029
 5967TIP3    H139460   0.760   3.593   1.157  0.0237 -0.8808  0.2353
 5967TIP3    H239461   0.792   3.572   1.304  2.5292  0.9858  0.0326
 5968TIP3   OH239462   3.843   5.079   1.622  0.3149  0.5561 -0.0305
 5968TIP3    H139463   3.843   4.985   1.643  0.4191  0.8397  1.3202
 5968TIP3    H239464   3.836   5.082   1.527 -0.1598 -0.8162 -0.0595
 5969TIP3   OH239465   4.825   5.747   2.400 -0.3311  0.0110 -0.1172
 5969TIP3    H139466   4.797   5.668   2.445  2.5180 -1.8004 -1.2393
 5969TIP3    H239467   4.909   5.769   2.440  0.9602 -0.0669 -2.5615
 5970TIP3   OH239468   0.016   3.611   7.422  0.1788 -0.0044  0.0458
 5970TIP3    H139469  -0.078   3.624   7.436  0.1119 -1.1952  0.7933
 5970TIP3    H239470   0.056   3.640   7.504  0.6270  1.9141 -0.7892
 5971TIP3   OH239471   1.479   4.535   2.301 -0.2360 -0.3529 -0.1271
 5971TIP3    H139472   1.428   4.608   2.264  0.0675 -0.5094 -0.8756
 5971TIP3    H239473   1.548   4.578   2.352 -1.5675 -0.1327  1.5941
 5972TIP3   OH239474   6.426   1.132   8.618 -0.5485 -0.0582 -0.1039
 5972TIP3    H139475   6.352   1.082   8.653 -1.1350  1.4796  0.9618
 5972TIP3    H239476   6.386   1.192   8.554 -0.0143 -0.1942 -0.5700
 5973TIP3   OH239477   5.765   6.203   9.079  0.0587  0.4593 -0.1221
 5973TIP3    H139478   5.837   6.249   9.035  0.9206  1.2381  1.9684
 5973TIP3    H239479   5.791   6.111   9.077 -0.5179  0.2967 -2.2391
 5974TIP3   OH239480   2.734   1.235   1.301 -0.3940  0.0719 -0.3840
 5974TIP3    H139481   2.710   1.163   1.359 -1.3338  0.1933 -0.6123
 5974TIP3    H239482   2.681   1.222   1.223  1.2513 -0.4073 -1.4809
 5975TIP3   OH239483   4.498   4.449   0.541  0.4102 -0.1618 -0.1191
 5975TIP3    H139484   4.556   4.376   0.522  0.2846 -0.7760  1.6715
 5975TIP3    H239485   4.541   4.497   0.612  0.8483  1.9698 -1.7409
 5976TIP3   OH239486   0.636   3.337   0.373  0.0353 -0.0701 -0.0908
 5976TIP3    H139487   0.678   3.416   0.340  0.0203 -0.3148 -0.7118
 5976TIP3    H239488   0.607   3.290   0.294 -2.6014  0.7090  0.2997
 5977TIP3   OH239489   2.336   5.244   8.512  0.2176 -0.5733 -0.5003
 5977TIP3    H139490   2.336   5.149   8.500 -2.1753 -0.8234  0.8717
 5977TIP3    H239491   2.313   5.278   8.425  1.8666 -1.1496 -1.2031
 5978TIP3   OH239492   3.487   2.257   2.000 -0.0797 -0.2123 -0.3084
 5978TIP3    H139493   3.507   2.314   1.926 -1.1756  2.0075  0.9947
 5978TIP3    H239494   3.516   2.170   1.972  0.9261  0.8043 -2.7177
 5979TIP3   OH239495   4.698   4.746   2.810 -0.1183  0.1698  0.3019
 5979TIP3    H139496   4.628   4.713   2.866 -0.6472 -0.3523 -0.6443
 5979TIP3    H239497   4.652   4.797   2.742  0.3664 -0.5859 -0.6113
 5980TIP3   OH239498   2.205   2.111   1.748 -0.2359  0.1213  0.1099
 5980TIP3    H139499   2.157   2.104   1.831 -0.2602 -2.3591 -0.0411
 5980TIP3    H239500   2.170   2.040   1.694 -0.6535  2.0360 -2.3126
 5981TIP3   OH239501   0.469   1.161   7.483 -0.3781  0.1877  0.2213
 5981TIP3    H139502   0.388   1.192   7.442 -1.0599 -1.4873  0.2184
 5981TIP3    H239503   0.447   1.073   7.515  1.6402 -0.5841 -0.3796
 5982TIP3   OH239504   3.500   3.803   8.679  0.3326  0.1475  0.1792
 5982TIP3    H139505   3.430   3.823   8.617  2.2527  0.1675 -2.1260
 5982TIP3    H239506   3.577   3.790   8.624  2.5170  1.6518  2.6614
 5983TIP3   OH239507   3.400   5.986   1.927  0.3457 -0.2935 -0.1577
 5983TIP3    H139508   3.451   5.905   1.934 -0.4582 -0.8414 -0.4418
 5983TIP3    H239509   3.312   5.961   1.955  0.5204  0.9527  1.6377
 5984TIP3   OH239510   1.817   1.469   8.596 -0.2740  0.5732 -0.0674
 5984TIP3    H139511   1.838   1.423   8.677  0.5996  0.7490 -0.1853
 5984TIP3    H239512   1.837   1.407   8.527 -0.5059  0.6148 -0.1752
 5985TIP3   OH239513   5.761   5.512   2.432 -0.4048  0.0926  0.1044
 5985TIP3    H139514   5.738   5.438   2.376  0.0080  1.3097 -1.7342
 5985TIP3    H239515   5.795   5.471   2.512 -2.5710 -1.6965  0.1973
 5986TIP3   OH239516   4.542   0.142   2.479 -0.1696  0.0671 -0.5269
 5986TIP3    H139517   4.503   0.144   2.392  0.7928  0.2306 -0.9647
 5986TIP3    H239518   4.557   0.049   2.496 -1.2373 -0.0466 -0.1175
 5987TIP3   OH239519   2.208   5.923   0.486 -0.3061 -0.4724  0.0085
 5987TIP3    H139520   2.178   5.833   0.497  0.3955 -0.8891 -1.2555
 5987TIP3    H239521   2.225   5.953   0.575 -0.5365 -1.5946  0.4565
 5988TIP3   OH239522   4.514   2.282   2.849  1.2685  0.4167 -0.1556
 5988TIP3    H139523   4.430   2.235   2.849  1.8694 -0.6853  0.6628
 5988TIP3    H239524   4.499   2.356   2.789  0.0140 -0.2756 -0.7492
 5989TIP3   OH239525   4.175   6.265   1.713 -0.0802 -0.5056 -0.3674
 5989TIP3    H139526   4.087   6.264   1.751  0.2694 -1.4272  0.4686
 5989TIP3    H239527   4.219   6.190   1.753  1.5667  0.8073  0.3646
 5990TIP3   OH239528   4.182   1.164   0.315 -0.4337 -0.5685 -0.2118
 5990TIP3    H139529   4.157   1.072   0.307 -0.9833 -0.4649  0.2248
 5990TIP3    H239530   4.139   1.208   0.241 -1.4429 -0.4174  0.4479
 5991TIP3   OH239531   1.669   1.538   0.609 -1.3365  0.0758 -0.3308
 5991TIP3    H139532   1.614   1.483   0.663 -1.7447  0.8342  0.0432
 5991TIP3    H239533   1.608   1.585   0.552 -1.0563  0.6227 -0.1917
 5992TIP3   OH239534   0.910   6.524   0.280  0.2648  0.7685 -0.0652
 5992TIP3    H139535   0.816   6.537   0.297  0.2764  1.1760 -0.2897
 5992TIP3    H239536   0.953   6.559   0.358  0.2116  0.0475  0.2946
 5993TIP3   OH239537   4.771   2.268   0.015 -0.4579  0.3141 -0.1008
 5993TIP3    H139538   4.748   2.208   0.086 -0.5379 -1.0566 -1.2262
 5993TIP3    H239539   4.730   2.230  -0.062 -0.0696  1.5650 -0.9596
 5994TIP3   OH239540   3.553   1.400   0.544  0.7726  0.0954  0.1115
 5994TIP3    H139541   3.629   1.342   0.553 -0.5561 -1.5214  1.6937
 5994TIP3    H239542   3.491   1.351   0.491  0.9586  1.6207 -1.6209
 5995TIP3   OH239543   4.455   2.284   0.129  0.0561 -0.0147  0.0425
 5995TIP3    H139544   4.458   2.316   0.039  0.7918  1.7779  0.6694
 5995TIP3    H239545   4.530   2.225   0.136  2.0615  2.4318  0.3623
 5996TIP3   OH239546   4.894   5.304   0.134 -0.2164  0.1557  0.1930
 5996TIP3    H139547   4.878   5.398   0.128 -1.9622 -0.1660 -0.9692
 5996TIP3    H239548   4.984   5.297   0.166 -0.3464  2.2002  1.1723
 5997TIP3   OH239549   4.210   1.711   0.312  0.4723  0.1542  0.1981
 5997TIP3    H139550   4.162   1.793   0.325 -1.7923 -1.1450  0.7546
 5997TIP3    H239551   4.155   1.645   0.354  2.2726 -1.6533 -0.1256
 5998TIP3   OH239552   1.739   1.951   8.634 -0.0467 -0.0060  0.0268
 5998TIP3    H139553   1.728   2.046   8.633  0.5184  0.0633  0.0588
 5998TIP3    H239554   1.677   1.920   8.700 -0.0060  0.3707  0.2433
 5999TIP3   OH239555   5.077   6.560   8.065  0.2380 -0.5217 -0.1719
 5999TIP3    H139556   5.060   6.646   8.103  0.9065 -0.2633 -0.4431
 5999TIP3    H239557   5.082   6.576   7.970 -1.5036 -1.1722 -0.4290
 6000TIP3   OH239558   5.111   6.048   1.997 -0.1569  0.1435 -0.1990
 6000TIP3    H139559   5.095   6.033   1.904 -2.6346 -0.2857  0.2399
 6000TIP3    H239560   5.076   5.971   2.041  1.6313 -0.0096  1.1061
 6001TIP3   OH239561   4.604   5.322   9.123 -0.0160 -0.0012  0.2072
 6001TIP3    H139562   4.509   5.325   9.131 -0.1997 -2.0789 -0.7627
 6001TIP3    H239563   4.621   5.335   9.030  0.6056 -0.5222  0.2411
 6002TIP3   OH239564   3.416   2.089   9.253  0.0146  0.0713  0.0412
 6002TIP3    H139565   3.388   2.118   9.166 -0.2089 -0.6873 -0.1463
 6002TIP3    H239566   3.477   2.017   9.235 -1.3353 -1.2340  0.5339
 6003TIP3   OH239567   4.831   5.033   1.177  0.0549 -0.3732 -0.3860
 6003TIP3    H139568   4.887   5.110   1.169  1.0555 -1.0091  0.2921
 6003TIP3    H239569   4.742   5.066   1.161  0.5359  0.7861 -0.7500
 6004TIP3   OH239570   1.908   4.467   1.360 -0.4086  0.1692 -0.0574
 6004TIP3    H139571   1.961   4.505   1.290 -0.4323 -1.7425 -1.1626
 6004TIP3    H239572   1.820   4.503   1.345 -0.0369  1.1857  0.1174
 6005TIP3   OH239573   0.375   3.659   8.990 -0.3275 -0.1841 -0.1914
 6005TIP3    H139574   0.448   3.618   8.943 -1.4393 -1.2019 -1.0922
 6005TIP3    H239575   0.330   3.585   9.031 -1.1806  0.3697 -0.1307
 6006TIP3   OH239576   2.667   2.392   8.427  0.0395  0.3168 -0.5410
 6006TIP3    H139577   2.648   2.457   8.494  2.0118  2.0628 -1.5342
 6006TIP3    H239578   2.693   2.443   8.350  1.7802 -1.6009 -1.3540
 6007TIP3   OH239579   4.851   3.988   2.753  0.2274  0.2646  0.2568
 6007TIP3    H139580   4.835   3.912   2.809  0.0248  0.8252  0.9629
 6007TIP3    H239581   4.882   4.056   2.812 -0.5123  1.0332 -0.2219
 6008TIP3   OH239582   3.932   4.815   0.849 -0.2359 -0.0783  0.1347
 6008TIP3    H139583   3.934   4.763   0.929  1.0226  0.7217  0.6440
 6008TIP3    H239584   4.012   4.791   0.802 -0.8913 -0.4401 -0.8326
 6009TIP3   OH239585   4.883   6.013   0.880  0.1498 -0.3625 -0.2141
 6009TIP3    H139586   4.972   6.045   0.867 -0.2839  0.2041 -2.0451
 6009TIP3    H239587   4.846   6.071   0.946  0.8018  0.0694 -0.2220
 6010TIP3   OH239588   5.957   5.635   8.006 -0.9467  0.3543 -0.2629
 6010TIP3    H139589   6.022   5.645   8.076 -0.4035  0.1560 -0.7344
 6010TIP3    H239590   5.923   5.546   8.018 -0.0436 -0.0966 -0.9224
 6011TIP3   OH239591   5.348   5.533   2.013 -0.1060 -0.2433  0.1592
 6011TIP3    H139592   5.323   5.571   2.097 -0.0188 -1.9338  1.0024
 6011TIP3    H239593   5.351   5.439   2.030 -0.3443 -0.6431 -1.8208
 6012TIP3   OH239594   4.850   2.582   9.016  0.2230 -0.1644  0.3789
 6012TIP3    H139595   4.931   2.628   9.039  0.0460  1.0547 -1.3171
 6012TIP3    H239596   4.786   2.615   9.079  0.3779  1.0329 -0.0710
 6013TIP3   OH239597   5.753   1.958   0.676  0.1819  0.0424  0.4688
 6013TIP3    H139598   5.689   1.927   0.612  0.9489 -0.8669  0.0969
 6013TIP3    H239599   5.751   1.892   0.746 -1.1487  1.3895  1.7664
 6014TIP3   OH239600   3.383   1.734   7.667  0.6254 -0.0122  0.9682
 6014TIP3    H139601   3.390   1.642   7.692  1.5899  0.1554  1.3671
 6014TIP3    H239602   3.363   1.733   7.573 -0.2631 -0.6236  1.1503
 6015TIP3   OH239603   4.139   1.348   8.195  0.0067 -0.4839 -0.2931
 6015TIP3    H139604   4.207   1.404   8.232 -0.7947 -0.2956  0.9862
 6015TIP3    H239605   4.124   1.383   8.107  1.2203 -0.2507 -0.4245
 6016TIP3   OH239606   4.439   6.433   8.217 -0.0851  0.1257 -0.1187
 6016TIP3    H139607   4.482   6.348   8.228 -0.2311 -0.1372 -1.3482
 6016TIP3    H239608   4.377   6.419   8.145 -0.3400  1.1896 -0.1283
 6017TIP3   OH239609   4.735   3.502   9.267  0.3739 -0.2157 -0.1005
 6017TIP3    H139610   4.806   3.475   9.209  1.2055  2.1224 -0.2547
 6017TIP3    H239611   4.668   3.434   9.255  2.0790 -1.8622 -0.8198
 6018TIP3   OH239612   2.793   6.022   1.654  0.6357 -0.2777 -0.1109
 6018TIP3    H139613   2.781   6.085   1.583  0.6719 -0.3372 -0.1692
 6018TIP3    H239614   2.711   6.026   1.703  0.5110 -0.4226 -0.3046
 6019TIP3   OH239615   5.141   1.169   2.812  0.1343 -0.4116 -0.1943
 6019TIP3    H139616   5.185   1.244   2.854 -0.4149 -0.1504 -0.0780
 6019TIP3    H239617   5.165   1.094   2.866 -0.5550 -0.0815  0.5912
 6020TIP3   OH239618   5.640   0.920   2.070  0.3089 -0.8812  0.0707
 6020TIP3    H139619   5.693   0.984   2.022 -2.1086  0.2996 -1.2327
 6020TIP3    H239620   5.636   0.844   2.013  1.2587 -1.3144  0.5616
 6021TIP3   OH239621   3.640   2.292   1.493  0.0366  0.8568 -0.3669
 6021TIP3    H139622   3.544   2.290   1.489 -0.0465  0.9690  1.0022
 6021TIP3    H239623   3.665   2.201   1.509  0.1059  0.9455  0.0412
 6022TIP3   OH239624   4.057   4.570   8.895  0.3607 -0.4769 -0.0474
 6022TIP3    H139625   4.048   4.482   8.933  2.1503 -0.6039  0.1723
 6022TIP3    H239626   4.128   4.562   8.832  0.9205  0.9206  0.3601
 6023TIP3   OH239627   6.095   0.363   1.491  0.4896  0.6761 -0.5352
 6023TIP3    H139628   6.139   0.285   1.524  1.4684  0.8051 -1.5097
 6023TIP3    H239629   6.027   0.381   1.556  1.1147 -0.2082  0.3896
 6024TIP3   OH239630   5.931   4.330   2.434 -0.0935 -0.1038  0.4876
 6024TIP3    H139631   5.908   4.360   2.522  1.2632 -0.9007  1.1481
 6024TIP3    H239632   6.026   4.314   2.437  0.0149 -0.0293 -1.1575
 6025TIP3   OH239633   3.958   2.235   7.261  0.0703 -0.6583  0.0596
 6025TIP3    H139634   3.939   2.235   7.355 -3.5574 -2.3539 -0.5065
 6025TIP3    H239635   4.005   2.154   7.246 -0.7500 -1.1868  0.2579
 6026TIP3   OH239636   5.962   2.198   0.286 -0.1589  0.0261  0.6215
 6026TIP3    H139637   5.906   2.271   0.313 -0.8726  0.5018 -1.8388
 6026TIP3    H239638   6.051   2.233   0.291 -0.4355  0.8017  0.3153
 6027TIP3   OH239639   0.456   5.474   8.024  0.0251 -0.4104  0.5213
 6027TIP3    H139640   0.392   5.545   8.035  0.7685  0.0771  2.0231
 6027TIP3    H239641   0.532   5.503   8.075  0.8207 -1.7214  0.1087
 6028TIP3   OH239642   6.219   0.904   1.996  0.1846  0.9511  0.3902
 6028TIP3    H139643   6.193   0.820   2.032 -1.1201  1.0282 -0.3215
 6028TIP3    H239644   6.255   0.883   1.909  1.8871  0.9258  1.0608
 6029TIP3   OH239645   0.979   2.725   8.230 -0.0513  0.1807  0.2358
 6029TIP3    H139646   1.051   2.734   8.167 -0.0764  2.2901  0.4400
 6029TIP3    H239647   0.917   2.667   8.187  1.2048 -0.6708 -0.4772
 6030TIP3   OH239648   3.497   2.959   2.515 -0.5078  0.3455 -0.3044
 6030TIP3    H139649   3.454   2.873   2.521 -0.0288  0.1692  0.7834
 6030TIP3    H239650   3.561   2.948   2.445 -1.2690  0.1879 -0.9931
 6031TIP3   OH239651   2.742   1.302   7.806 -0.1815 -0.0019 -0.1203
 6031TIP3    H139652   2.711   1.255   7.883  0.3810  0.1588  0.2131
 6031TIP3    H239653   2.791   1.236   7.756  0.7210  0.2523  0.4142
 6032TIP3   OH239654   0.796   3.462   8.057 -0.4049  0.0068  0.0152
 6032TIP3    H139655   0.744   3.493   7.982 -0.4148  0.3075  0.1471
 6032TIP3    H239656   0.882   3.500   8.043 -0.4761  0.2716  0.2912
 6033TIP3   OH239657   5.230   0.608   0.247 -0.0856 -0.3077  0.0395
 6033TIP3    H139658   5.315   0.579   0.212 -0.0488 -2.2725  1.5606
 6033TIP3    H239659   5.252   0.683   0.302  0.3857  0.3187 -0.9695
 6034TIP3   OH239660   1.244   3.805   1.463 -0.2138 -0.1704 -0.5754
 6034TIP3    H139661   1.224   3.881   1.518 -0.1230 -0.4710 -0.1282
 6034TIP3    H239662   1.324   3.830   1.416 -0.6058  0.3087 -0.9986
 6035TIP3   OH239663   0.476   5.040   1.709 -0.2711 -0.4146  0.6636
 6035TIP3    H139664   0.500   5.082   1.791  0.0480 -0.5196  0.6271
 6035TIP3    H239665   0.463   4.948   1.731  0.6742 -0.6086  0.4407
 6036TIP3   OH239666   3.953   0.747   8.664  0.1084 -0.8131  0.1694
 6036TIP3    H139667   4.009   0.669   8.674  1.5552  0.4264  3.2723
 6036TIP3    H239668   3.865   0.716   8.685  0.7398 -1.6065  1.8897
 6037TIP3   OH239669   4.391   1.429   2.291  0.0820  0.2355 -0.2795
 6037TIP3    H139670   4.407   1.496   2.224  0.2479  0.8904  0.3923
 6037TIP3    H239671   4.312   1.459   2.336 -0.5794 -0.7099 -0.7983
 6038TIP3   OH239672   2.357   5.492   1.775  0.2383  0.2039 -0.0411
 6038TIP3    H139673   2.302   5.414   1.762 -2.1707  1.8008 -0.1732
 6038TIP3    H239674   2.387   5.485   1.866 -2.7001  0.6527  1.0776
 6039TIP3   OH239675   3.661   0.960   0.597 -0.6026 -0.0246 -0.2783
 6039TIP3    H139676   3.581   0.957   0.650 -0.4559 -0.9804 -0.0957
 6039TIP3    H239677   3.658   0.880   0.545 -0.2880  0.4607 -1.0501
 6040TIP3   OH239678   5.419   2.075   2.376  0.0268  0.1862 -0.0681
 6040TIP3    H139679   5.326   2.089   2.392  0.3651  1.9820  0.5345
 6040TIP3    H239680   5.463   2.125   2.445  1.4382 -0.4983 -0.4411
 6041TIP3   OH239681   2.786   1.893   7.505 -0.2152  0.4200 -0.4801
 6041TIP3    H139682   2.852   1.949   7.546 -0.8607  0.4293  0.5824
 6041TIP3    H239683   2.826   1.806   7.505 -0.1245  0.4543  0.0195
 6042TIP3   OH239684   3.909   1.132   1.905  0.4201  0.0537  0.5548
 6042TIP3    H139685   3.919   1.037   1.900  0.3067  0.1030 -1.0660
 6042TIP3    H239686   3.982   1.162   1.959  0.2503 -0.9756  1.3846
 6043TIP3   OH239687   3.182   3.671   0.262  0.0241 -0.9348  0.5122
 6043TIP3    H139688   3.175   3.704   0.351 -0.6567  0.6712 -0.0854
 6043TIP3    H239689   3.194   3.750   0.208  2.0427 -1.9776 -0.6692
 6044TIP3   OH239690   3.687   0.559   8.428  0.0558  0.4963  0.0159
 6044TIP3    H139691   3.623   0.621   8.394 -1.5344 -0.4804  1.0658
 6044TIP3    H239692   3.679   0.483   8.371  0.2026  0.3249  0.2227
 6045TIP3   OH239693   3.427   3.194   7.540  0.2402  0.3051  0.1338
 6045TIP3    H139694   3.364   3.124   7.518  2.7560 -2.4929  1.1329
 6045TIP3    H239695   3.410   3.213   7.632 -0.4568  1.0702 -0.1427
 6046TIP3   OH239696   2.304   0.521   8.536  0.0942 -0.8328  0.7724
 6046TIP3    H139697   2.233   0.548   8.478  1.1686 -0.7681 -0.5492
 6046TIP3    H239698   2.260   0.473   8.607 -1.2227 -1.1650 -0.2318
 6047TIP3   OH239699   1.631   3.585   8.274 -0.2193 -0.5308 -0.4829
 6047TIP3    H139700   1.558   3.613   8.328 -0.7529  0.3377 -1.6168
 6047TIP3    H239701   1.590   3.561   8.190  0.7464 -0.3995 -1.0003
 6048TIP3   OH239702   0.290   1.973   9.258 -0.1295 -0.3270  0.0737
 6048TIP3    H139703   0.254   2.031   9.190  0.4920 -1.1019 -0.9498
 6048TIP3    H239704   0.223   1.973   9.327  0.6598  3.0758  1.0103
 6049TIP3   OH239705   3.396   1.523   0.134 -0.0952  0.4167  0.2371
 6049TIP3    H139706   3.459   1.453   0.153 -1.7499 -1.0077  0.7746
 6049TIP3    H239707   3.439   1.603   0.165  1.7829 -0.3518 -0.2188
 6050TIP3   OH239708   2.161   4.864   9.094 -0.0715 -0.2816 -0.2250
 6050TIP3    H139709   2.088   4.856   9.032 -1.2441  1.1093  0.9030
 6050TIP3    H239710   2.179   4.958   9.097  0.4083 -0.4032  1.0485
 6051TIP3   OH239711   4.154   5.387   2.501 -0.3677 -0.6345  0.1182
 6051TIP3    H139712   4.245   5.397   2.528 -0.4228 -0.2911  0.1850
 6051TIP3    H239713   4.107   5.364   2.581 -0.5519  0.5152  0.3648
 6052TIP3   OH239714   1.014   0.971   8.915  0.0540 -0.1983 -0.1396
 6052TIP3    H139715   1.051   0.950   9.001 -0.3255  1.3172  0.4145
 6052TIP3    H239716   0.927   0.930   8.916 -0.6004  1.1455  0.8525
 6053TIP3   OH239717   5.003   4.709   1.428  0.2299  0.0608 -0.1228
 6053TIP3    H139718   5.024   4.703   1.521  1.7194 -1.0173 -0.4834
 6053TIP3    H239719   5.073   4.763   1.391 -0.4236  0.5961 -0.6084
 6054TIP3   OH239720   5.915   3.572   9.130  0.0226  0.3845  0.1882
 6054TIP3    H139721   5.896   3.531   9.045 -0.0113  1.8523 -0.5381
 6054TIP3    H239722   5.995   3.529   9.159  0.8989  0.9095 -1.3311
 6055TIP3   OH239723   3.509   3.784   1.164 -0.1722 -0.4516  0.9321
 6055TIP3    H139724   3.472   3.784   1.076 -1.1436 -1.6196  1.3047
 6055TIP3    H239725   3.484   3.868   1.201 -2.0918 -1.0236  1.0037
 6056TIP3   OH239726   0.772   3.868   0.615  0.1367 -0.0080 -0.0716
 6056TIP3    H139727   0.825   3.897   0.541  1.5634  2.5028  1.7850
 6056TIP3    H239728   0.822   3.895   0.692 -2.0040 -1.1465  1.8348
 6057TIP3   OH239729   4.746   5.136   8.138 -0.8039 -0.3026 -0.4679
 6057TIP3    H139730   4.709   5.221   8.163  1.9658  1.3308 -1.4348
 6057TIP3    H239731   4.772   5.148   8.046  1.7942 -1.3233  0.0461
 6058TIP3   OH239732   0.184   5.436   8.839 -0.2322  0.0317 -0.1908
 6058TIP3    H139733   0.207   5.368   8.902  0.6281  0.4357 -0.0456
 6058TIP3    H239734   0.217   5.403   8.755  0.8420  0.5639 -0.0008
 6059TIP3   OH239735   3.441   1.326   1.078  0.0238 -0.0342  0.1787
 6059TIP3    H139736   3.420   1.233   1.088 -1.9882  0.3188 -0.2725
 6059TIP3    H239737   3.454   1.337   0.984  0.5050  0.1040  0.2597
 6060TIP3   OH239738   6.356   5.330   8.684 -0.0054  0.4432  0.4238
 6060TIP3    H139739   6.406   5.265   8.734  1.8412  0.3945 -1.3181
 6060TIP3    H239740   6.269   5.291   8.674  0.3532 -0.6783  1.4086
 6061TIP3   OH239741   0.153   1.374   8.520  1.0990 -0.8618 -0.7078
 6061TIP3    H139742   0.245   1.371   8.492  1.1203  0.7232 -0.8967
 6061TIP3    H239743   0.118   1.452   8.477  0.4957  0.3599  1.8108
 6062TIP3   OH239744   1.825   3.000   8.994 -0.5756 -0.0758 -0.5933
 6062TIP3    H139745   1.871   2.993   9.078  0.1370 -0.7187 -1.0272
 6062TIP3    H239746   1.815   3.094   8.980  0.4970  0.0752 -0.4251
 6063TIP3   OH239747   3.601   4.733   8.742  0.0201 -0.1548 -0.1638
 6063TIP3    H139748   3.692   4.711   8.762  0.0357  1.4576  1.8825
 6063TIP3    H239749   3.551   4.694   8.814 -0.9761 -1.0814 -1.2966
 6064TIP3   OH239750   3.507   5.783   0.069 -0.2703 -1.2671 -0.2968
 6064TIP3    H139751   3.415   5.785   0.098  0.1483  1.1501  1.1893
 6064TIP3    H239752   3.519   5.867   0.024  1.7560 -0.4096  1.6505
 6065TIP3   OH239753   2.327   0.775   8.177 -0.4692 -0.9547  0.2004
 6065TIP3    H139754   2.387   0.847   8.155 -0.7556 -0.6781  0.3213
 6065TIP3    H239755   2.332   0.768   8.272 -1.6831  0.0005  0.3516
 6066TIP3   OH239756   0.272   1.651   8.612  0.0947 -0.4874  0.2723
 6066TIP3    H139757   0.300   1.711   8.680  1.0127 -1.4476  0.7814
 6066TIP3    H239758   0.303   1.690   8.530 -0.5534  0.4074  0.4457
 6067TIP3   OH239759   3.902   1.180   3.118  0.3331 -0.1083  0.5631
 6067TIP3    H139760   3.906   1.222   3.204 -1.1124  0.8925  0.1783
 6067TIP3    H239761   3.993   1.179   3.088  0.7650  0.1880  1.7772
 6068TIP3   OH239762   0.373   1.356   8.999  0.0005 -0.0143  0.2719
 6068TIP3    H139763   0.304   1.395   8.945  1.9485  0.1263 -2.3171
 6068TIP3    H239764   0.366   1.262   8.983 -1.4240 -0.3266  2.4154
 6069TIP3   OH239765   1.944   0.271   8.463  0.6696 -0.5091 -0.1443
 6069TIP3    H139766   1.969   0.363   8.461  0.5326 -0.4329  0.9460
 6069TIP3    H239767   1.874   0.267   8.529  1.5750 -1.5919  0.7763
 6070TIP3   OH239768   1.941   6.449   2.227  0.3497  0.1898  0.3941
 6070TIP3    H139769   1.927   6.358   2.255 -0.3222  0.0493 -0.3557
 6070TIP3    H239770   2.022   6.446   2.176 -0.1437 -0.1766 -0.3964
 6071TIP3   OH239771   0.727   6.240   0.860 -0.7444 -0.2126  0.3852
 6071TIP3    H139772   0.710   6.241   0.766  0.0424 -0.2765  0.2385
 6071TIP3    H239773   0.743   6.148   0.881  0.3793 -0.0409  0.3326
 6072TIP3   OH239774   5.011   0.746   7.202  0.3508  0.2458  0.1536
 6072TIP3    H139775   5.080   0.809   7.178  0.9031  0.1809  1.4988
 6072TIP3    H239776   4.956   0.793   7.265 -0.5528  0.1156 -0.5133
 6073TIP3   OH239777   1.651   2.467   9.097 -0.5406 -0.1523 -0.2604
 6073TIP3    H139778   1.589   2.435   9.163 -0.9465 -0.0898 -0.6068
 6073TIP3    H239779   1.598   2.523   9.040  0.3822  2.3616  1.1507
 6074TIP3   OH239780   2.915   0.126   9.204 -0.0536  0.1555 -0.1915
 6074TIP3    H139781   2.947   0.098   9.118  0.1366  1.2787 -0.4962
 6074TIP3    H239782   2.943   0.056   9.263 -0.0904 -0.5809 -1.0163
 6075TIP3   OH239783   0.824   5.263   7.578  0.1819 -0.1560  0.1354
 6075TIP3    H139784   0.906   5.215   7.563  0.9952  0.7466  1.4715
 6075TIP3    H239785   0.834   5.300   7.666 -0.9597  1.3935 -0.3492
 6076TIP3   OH239786   2.968   2.323   3.081 -0.3979 -0.3026 -0.1700
 6076TIP3    H139787   2.877   2.294   3.079 -0.3384 -0.5437  0.4103
 6076TIP3    H239788   3.019   2.250   3.045 -0.3046 -0.7141  0.7672
 6077TIP3   OH239789   3.869   2.512   7.206 -0.7309  0.4842  0.1447
 6077TIP3    H139790   3.907   2.424   7.211  1.2220  1.2604  0.1514
 6077TIP3    H239791   3.925   2.565   7.263 -3.1902  1.3498  1.9244
 6078TIP3   OH239792   3.314   4.483   7.999  0.1963 -0.0602  0.0269
 6078TIP3    H139793   3.250   4.537   8.045 -0.2427 -0.7626  0.2487
 6078TIP3    H239794   3.284   4.393   8.012  0.6761 -0.3359 -0.7050
 6079TIP3   OH239795   4.657   3.521   7.812  0.3458 -0.3529 -0.0759
 6079TIP3    H139796   4.711   3.519   7.733  0.1773  1.0977 -0.2511
 6079TIP3    H239797   4.660   3.612   7.841 -0.5189 -0.6302  0.9509
 6080TIP3   OH239798   0.980   2.380   8.467  0.3956  0.1244 -0.8257
 6080TIP3    H139799   0.907   2.325   8.496 -0.2663  0.6609 -1.4348
 6080TIP3    H239800   0.976   2.377   8.372  0.7829  0.6590 -0.8600
 6081TIP3   OH239801   1.180   0.147   2.312 -0.2665 -0.0197 -0.5624
 6081TIP3    H139802   1.148   0.071   2.263 -1.2560 -0.7235  1.0896
 6081TIP3    H239803   1.269   0.161   2.280 -0.3837 -1.3167 -1.5334
 6082TIP3   OH239804   3.121   4.732   1.204  0.1258 -0.1288  0.7356
 6082TIP3    H139805   3.105   4.639   1.224  0.0651 -0.6005 -1.3222
 6082TIP3    H239806   3.196   4.731   1.145  0.8181  1.2449  1.5484
 6083TIP3   OH239807   5.584   4.074   0.855 -0.3764  0.1354  0.6264
 6083TIP3    H139808   5.543   4.016   0.920 -1.2204  1.3179  1.1853
 6083TIP3    H239809   5.550   4.161   0.875  1.1927  0.9200  0.0823
 6084TIP3   OH239810   4.231   2.070   0.093 -0.0611  0.1449 -0.4143
 6084TIP3    H139811   4.326   2.074   0.096 -0.0992  0.2911  0.9224
 6084TIP3    H239812   4.201   2.153   0.129 -0.7029 -0.1308 -0.2905
 6085TIP3   OH239813   4.583   0.631   7.910 -0.2172 -0.4757  0.3773
 6085TIP3    H139814   4.650   0.572   7.943 -0.1132 -0.1384  0.7681
 6085TIP3    H239815   4.564   0.599   7.821  0.1482 -0.8276  0.4267
 6086TIP3   OH239816   5.817   6.615   2.301 -0.5935  0.4132 -0.0793
 6086TIP3    H139817   5.770   6.576   2.227 -0.1392  0.6415 -0.4961
 6086TIP3    H239818   5.756   6.609   2.374 -0.6926 -0.6744 -0.2440
 6087TIP3   OH239819   5.043   2.244   1.194  0.4718  0.2755  0.3223
 6087TIP3    H139820   5.015   2.247   1.102 -0.0932  1.1085  0.5169
 6087TIP3    H239821   4.984   2.304   1.240 -1.1997 -2.2783  1.7596
 6088TIP3   OH239822   2.884   3.933   8.659  0.2974  0.2183 -0.0701
 6088TIP3    H139823   2.866   4.007   8.717 -1.1947 -0.3279  0.2077
 6088TIP3    H239824   2.880   3.856   8.716 -1.9176 -0.4045 -0.9528
 6089TIP3   OH239825   3.784   6.501   8.227 -0.2805 -0.6201  0.9898
 6089TIP3    H139826   3.822   6.456   8.303  0.3219 -0.1099  0.9999
 6089TIP3    H239827   3.837   6.473   8.153  0.3099  0.3147  1.0445
 6090TIP3   OH239828   4.001   2.803   7.933  0.2455  0.5031  0.0950
 6090TIP3    H139829   4.059   2.768   7.866  1.2546  1.7602  0.2628
 6090TIP3    H239830   3.934   2.736   7.946 -1.3844  1.1471 -3.8203
 6091TIP3   OH239831   3.555   2.449   9.160 -0.0237 -0.0055 -0.4028
 6091TIP3    H139832   3.595   2.495   9.234  0.3770  1.0737 -1.2701
 6091TIP3    H239833   3.462   2.469   9.167 -0.1397 -0.7594  0.3901
 6092TIP3   OH239834   1.762   3.792   7.948 -0.7577  0.2531  0.2258
 6092TIP3    H139835   1.801   3.710   7.979 -1.4081 -0.4876 -0.8307
 6092TIP3    H239836   1.667   3.774   7.949 -0.8556  0.6420 -0.9278
 6093TIP3   OH239837   4.274   1.920   8.760  0.2028  0.4556  0.2652
 6093TIP3    H139838   4.344   1.918   8.826  0.7072 -0.0028 -0.2802
 6093TIP3    H239839   4.199   1.879   8.804  0.6037 -0.0576  0.4852
 6094TIP3   OH239840   0.297   6.501   2.553 -0.3180  0.6312  0.4369
 6094TIP3    H139841   0.261   6.424   2.598  1.1925  1.1594  2.7101
 6094TIP3    H239842   0.356   6.541   2.617  1.4959  1.8329 -1.8441
 6095TIP3   OH239843   3.579   3.623   7.924  0.0068 -0.6469 -0.2973
 6095TIP3    H139844   3.608   3.678   7.852  0.8918 -0.6357  0.0578
 6095TIP3    H239845   3.639   3.644   7.996 -1.0985 -0.3698  0.5716
 6096TIP3   OH239846   3.387   2.149   7.747 -0.1005 -0.4630  0.0873
 6096TIP3    H139847   3.397   2.228   7.800  0.4374 -0.0298 -0.6370
 6096TIP3    H239848   3.400   2.179   7.657 -0.3417 -1.2974 -0.2343
 6097TIP3   OH239849   4.261   1.912   9.168  0.2359 -0.1211 -0.1741
 6097TIP3    H139850   4.244   1.889   9.259 -0.5138  0.4115 -0.1690
 6097TIP3    H239851   4.300   1.999   9.172 -2.2335  1.0981 -0.4497
 6098TIP3   OH239852   4.881   1.981   1.174 -0.1635  0.4779 -0.2066
 6098TIP3    H139853   4.801   2.005   1.220  0.6614  1.1523  0.9488
 6098TIP3    H239854   4.934   2.061   1.176  0.7315 -0.0939 -0.5172
 6099TIP3   OH239855   0.600   2.764   8.007  0.4849 -0.4682 -0.5471
 6099TIP3    H139856   0.579   2.848   7.966 -2.2404 -0.1730  1.2037
 6099TIP3    H239857   0.561   2.699   7.949  0.6979 -0.3895 -0.7814
 6100TIP3   OH239858   2.947   0.484   0.758  0.1829 -0.0936  0.0756
 6100TIP3    H139859   2.968   0.472   0.666  0.6074  1.7843 -0.1071
 6100TIP3    H239860   2.853   0.505   0.759  0.3040  0.4603  0.0073
 6101TIP3   OH239861   0.778   5.744   8.524 -0.2250  0.2334 -0.4031
 6101TIP3    H139862   0.825   5.816   8.565 -0.5947  1.2672 -1.7216
 6101TIP3    H239863   0.699   5.732   8.576  1.4137 -1.5803  1.9002
 6102TIP3   OH239864   4.743   5.831   7.370 -0.0964  0.1212 -0.1379
 6102TIP3    H139865   4.716   5.741   7.390 -0.2806  0.1912 -0.0684
 6102TIP3    H239866   4.671   5.885   7.403 -0.4375  0.2338 -1.0545
 6103TIP3   OH239867   0.209   0.105   9.199 -0.0073 -0.1642 -0.0997
 6103TIP3    H139868   0.276   0.163   9.163 -0.9234  1.4740  0.7263
 6103TIP3    H239869   0.139   0.164   9.228 -0.2588 -1.5321  2.3485
 6104TIP3   OH239870   1.563   0.367   0.519  0.2936  0.5131  0.2914
 6104TIP3    H139871   1.513   0.307   0.463  0.9245 -0.1910  0.4636
 6104TIP3    H239872   1.565   0.449   0.471  1.6276 -0.3266 -1.2128
 6105TIP3   OH239873   2.999   1.346   1.334  0.0716 -0.3308 -0.9812
 6105TIP3    H139874   3.078   1.292   1.337  0.0203 -0.5453 -2.7975
 6105TIP3    H239875   2.943   1.309   1.402  1.4548 -0.2549  0.2580
 6106TIP3   OH239876   5.000   4.771   8.073  0.1521 -0.3420  0.2939
 6106TIP3    H139877   4.977   4.680   8.091  1.2441 -0.9535 -1.1743
 6106TIP3    H239878   5.033   4.770   7.983  2.5492  1.0501  1.0702
 6107TIP3   OH239879   2.658   0.739   9.091  0.1098  0.0248  0.1371
 6107TIP3    H139880   2.735   0.796   9.090 -0.5086  0.8845 -1.9339
 6107TIP3    H239881   2.690   0.656   9.055  0.0282  0.4952 -1.0690
 6108TIP3   OH239882   1.878   6.620   0.542 -0.0192  0.3628  0.5180
 6108TIP3    H139883   1.853   6.697   0.593  0.8128  0.9933  0.0054
 6108TIP3    H239884   1.814   6.616   0.471 -0.0308  0.6150  0.5142
 6109TIP3   OH239885   3.796   4.278   0.457 -0.5186 -0.1317  0.2182
 6109TIP3    H139886   3.871   4.221   0.443  1.4119  2.3429 -0.2255
 6109TIP3    H239887   3.733   4.252   0.390  0.8004 -0.9323 -0.7593
 6110TIP3   OH239888   0.971   6.409   8.652  0.0269 -0.9177  0.3882
 6110TIP3    H139889   1.008   6.490   8.688 -2.4855  0.9374 -0.9144
 6110TIP3    H239890   1.046   6.349   8.649  1.6381  0.7440  2.9576
 6111TIP3   OH239891   2.299   4.681   0.808 -0.0668  0.3428  0.3990
 6111TIP3    H139892   2.336   4.716   0.889 -0.0018  0.3545  0.3640
 6111TIP3    H239893   2.374   4.667   0.751 -0.1679  0.8955  0.1231
 6112TIP3   OH239894   2.318   3.738   0.976 -0.0905  0.3226 -0.2669
 6112TIP3    H139895   2.340   3.831   0.984  0.2694  0.1042  1.8889
 6112TIP3    H239896   2.402   3.694   0.966 -0.2717  0.2172 -1.4399
 6113TIP3   OH239897   5.324   3.863   8.801 -0.4184  0.8541 -0.1356
 6113TIP3    H139898   5.248   3.845   8.856 -1.3724  0.6000 -1.4751
 6113TIP3    H239899   5.329   3.959   8.797 -0.9566  0.8752 -0.3982
 6114TIP3   OH239900   0.537   3.422   0.138 -0.4260 -0.3553 -0.2541
 6114TIP3    H139901   0.625   3.446   0.109 -0.0990 -1.3761 -0.1286
 6114TIP3    H239902   0.498   3.379   0.063 -0.0653 -1.7691  0.3448
 6115TIP3   OH239903   3.106   6.304   2.793 -0.6166  0.3304  0.1396
 6115TIP3    H139904   3.174   6.237   2.787  0.5691  1.5033 -0.1081
 6115TIP3    H239905   3.025   6.256   2.810  0.5825 -0.9708  2.6704
 6116TIP3   OH239906   3.036   4.063   1.787 -0.3745  0.0665 -0.3707
 6116TIP3    H139907   3.104   4.009   1.745 -1.0142  0.3366 -1.8236
 6116TIP3    H239908   3.068   4.076   1.876  0.4703 -1.5567 -0.3882
 6117TIP3   OH239909   0.419   1.371   8.430 -0.2057 -0.2493 -0.0901
 6117TIP3    H139910   0.441   1.420   8.351  2.2449 -3.2722 -1.4982
 6117TIP3    H239911   0.504   1.353   8.472 -1.0055 -2.5112  0.7348
 6118TIP3   OH239912   3.889   5.761   8.256  0.1919 -0.2137 -0.5216
 6118TIP3    H139913   3.964   5.733   8.309 -0.3599 -0.3225  0.2179
 6118TIP3    H239914   3.920   5.840   8.212  1.3546 -1.2730 -1.6908
 6119TIP3   OH239915   1.483   5.436   1.411 -0.3832 -0.3168 -0.0392
 6119TIP3    H139916   1.428   5.510   1.385 -0.1763 -0.2348 -0.2505
 6119TIP3    H239917   1.455   5.364   1.354 -0.2334 -0.2606 -0.1820
 6120TIP3   OH239918   3.579   4.974   1.936  0.3364  0.7100 -0.5570
 6120TIP3    H139919   3.538   5.055   1.966 -1.6147 -0.7596  1.0521
 6120TIP3    H239920   3.556   4.909   2.002 -0.4823 -1.7822 -3.0654
 6121TIP3   OH239921   5.879   0.526   0.215 -0.4846 -0.0950 -0.6676
 6121TIP3    H139922   5.938   0.511   0.141 -1.0503 -0.6381 -1.0191
 6121TIP3    H239923   5.918   0.477   0.287  0.7994  1.5186 -0.2043
 6122TIP3   OH239924   4.658   1.057   1.508 -0.0670  0.2572 -0.1390
 6122TIP3    H139925   4.590   1.023   1.450 -0.0008  1.9138 -1.2579
 6122TIP3    H239926   4.622   1.046   1.596 -0.8330 -0.8780 -0.5694
 6123TIP3   OH239927   5.009   2.827   0.289  0.1297  0.0575  0.9052
 6123TIP3    H139928   4.959   2.788   0.218  1.3069  1.3283 -0.7206
 6123TIP3    H239929   4.962   2.908   0.310  1.0546  0.8869 -0.1231
 6124TIP3   OH239930   5.320   3.671   2.852 -0.3503  0.1470  0.1361
 6124TIP3    H139931   5.335   3.711   2.767 -0.3218  2.3418  1.1058
 6124TIP3    H239932   5.354   3.734   2.915 -0.1783 -1.4945  1.7964
 6125TIP3   OH239933   5.348   3.786   0.813  0.2651 -0.4020 -0.6085
 6125TIP3    H139934   5.306   3.737   0.883 -1.0322  0.4529 -0.7642
 6125TIP3    H239935   5.397   3.720   0.763  1.5624 -0.9795  1.2984
 6126TIP3   OH239936   3.779   4.039   9.232 -0.3422  0.0878  0.2762
 6126TIP3    H139937   3.796   4.094   9.156  1.5481 -0.4662  0.2463
 6126TIP3    H239938   3.710   3.980   9.203  1.2394 -1.0037 -1.5371
 6127TIP3   OH239939   3.317   2.642   0.977 -0.3761  0.0288 -0.2001
 6127TIP3    H139940   3.276   2.728   0.984  0.1049  0.1421  2.5805
 6127TIP3    H239941   3.280   2.593   1.050  2.1537 -0.8473  0.5952
 6128TIP3   OH239942   2.041   0.680   8.927 -0.1032 -0.2553 -0.6825
 6128TIP3    H139943   1.981   0.611   8.953 -1.2766  1.6618  2.2946
 6128TIP3    H239944   1.988   0.739   8.872  0.0101 -0.2177 -0.7523
 6129TIP3   OH239945   0.632   0.343   1.414  0.3249 -0.5321  0.1250
 6129TIP3    H139946   0.664   0.264   1.370  3.0398 -0.2895  1.4481
 6129TIP3    H239947   0.575   0.310   1.483 -0.2341 -1.1739 -0.6201
 6130TIP3   OH239948   5.362   2.337   2.077  0.2720 -0.1651  0.0898
 6130TIP3    H139949   5.305   2.412   2.096  0.4791 -0.1458  0.6454
 6130TIP3    H239950   5.388   2.349   1.986  0.2864  0.4274  0.1691
 6131TIP3   OH239951   0.693   1.061   0.429  0.3591  0.0070  0.1405
 6131TIP3    H139952   0.730   1.128   0.371  1.9326 -0.9703 -0.0426
 6131TIP3    H239953   0.717   1.090   0.517 -0.0711  0.3231  0.1589
 6132TIP3   OH239954   2.347   4.726   1.139 -0.1872  0.1313  0.1995
 6132TIP3    H139955   2.357   4.821   1.141  1.2369  0.0319 -0.9116
 6132TIP3    H239956   2.253   4.712   1.123  0.0887  1.4500 -3.2391
 6133TIP3   OH239957   5.853   5.772   1.059  0.0570 -0.4969  1.1008
 6133TIP3    H139958   5.858   5.772   1.154 -0.3532 -2.7620  1.1894
 6133TIP3    H239959   5.796   5.697   1.038 -1.8689  1.3600 -0.8709
 6134TIP3   OH239960   0.003   5.354   8.502  0.0531  0.0872  0.0816
 6134TIP3    H139961   0.099   5.362   8.499  0.0913 -0.4186 -0.1476
 6134TIP3    H239962  -0.028   5.443   8.518  0.5806  0.1928  0.5238
 6135TIP3   OH239963   0.429   5.129   9.262 -0.4111 -0.3529  0.3000
 6135TIP3    H139964   0.478   5.212   9.266 -3.2010  1.4536  0.1195
 6135TIP3    H239965   0.439   5.100   9.171  1.9352 -1.1851  0.7593
 6136TIP3   OH239966   2.511   6.337   1.584  0.0843 -0.0183 -1.0593
 6136TIP3    H139967   2.508   6.431   1.570 -1.3369  0.3909  1.3879
 6136TIP3    H239968   2.591   6.308   1.540  0.3821  2.2472 -2.1303
 6137TIP3   OH239969   2.988   3.070   0.300 -1.0561 -0.1129 -0.2536
 6137TIP3    H139970   2.895   3.095   0.303 -0.9332  0.2933  0.3011
 6137TIP3    H239971   3.020   3.106   0.217 -1.4913 -0.6256 -0.6562
 6138TIP3   OH239972   4.156   0.816   2.802  0.9400  0.0225 -0.6509
 6138TIP3    H139973   4.175   0.729   2.837 -0.3781 -0.5644 -1.3145
 6138TIP3    H239974   4.119   0.864   2.876  1.6620  0.0198 -0.2845
 6139TIP3   OH239975   4.647   3.672   1.333  0.4738 -0.4178  0.4718
 6139TIP3    H139976   4.692   3.589   1.351  1.7849  0.3356  0.8029
 6139TIP3    H239977   4.632   3.710   1.419  0.2969 -0.0970  0.3000
 6140TIP3   OH239978   4.929   4.709   9.171  0.2095 -0.6420  0.6354
 6140TIP3    H139979   4.948   4.663   9.253  0.4838 -0.6201  0.5876
 6140TIP3    H239980   4.958   4.798   9.187 -0.0665 -0.5513  0.6339
 6141TIP3   OH239981   3.720   3.933   2.577  0.0585  0.7390  0.3592
 6141TIP3    H139982   3.722   3.906   2.669  0.6912 -0.9037 -0.1016
 6141TIP3    H239983   3.720   3.851   2.528 -0.4245  1.5839 -1.1211
 6142TIP3   OH239984   0.451   4.234   0.083  0.4314  0.1065 -0.5194
 6142TIP3    H139985   0.429   4.236   0.176 -0.0743 -0.0440 -0.6310
 6142TIP3    H239986   0.521   4.170   0.076  0.5470  0.1996 -0.2260
 6143TIP3   OH239987   1.411   5.346   1.653  0.2053  0.0845 -0.0976
 6143TIP3    H139988   1.399   5.422   1.710 -0.5389 -1.1159  1.4157
 6143TIP3    H239989   1.454   5.381   1.575  2.5736  1.6185  1.7419
 6144TIP3   OH239990   1.245   5.080   2.217 -0.4317 -0.3044  0.0104
 6144TIP3    H139991   1.332   5.040   2.212 -1.4109 -2.5541 -0.4448
 6144TIP3    H239992   1.261   5.170   2.244  2.0434 -0.6040 -0.2415
 6145TIP3   OH239993   4.640   3.063   9.296  1.0146  0.4584  0.1145
 6145TIP3    H139994   4.657   2.990   9.356 -0.0157  0.1867  0.1016
 6145TIP3    H239995   4.580   3.120   9.343  3.0457  2.1676  0.7496
 6146TIP3   OH239996   6.385   3.667   1.549  0.1531  0.8515 -0.0317
 6146TIP3    H139997   6.338   3.738   1.505  0.8854  0.8786 -0.7952
 6146TIP3    H239998   6.410   3.704   1.634 -1.8283  0.5900  0.7407
 6147TIP3   OH239999   5.705   3.275   0.905 -0.0005  0.4098 -0.3405
 6147TIP3    H140000   5.610   3.284   0.908 -0.1120 -0.9637  1.3194
 6147TIP3    H240001   5.735   3.356   0.863 -1.7444  2.0884  1.4205
 6148TIP3   OH240002   1.940   4.848   8.687 -0.4002  0.7022 -0.0445
 6148TIP3    H140003   1.897   4.791   8.623  0.1366 -0.3790  0.5355
 6148TIP3    H240004   1.925   4.937   8.654 -1.4760  0.2445 -0.8257
 6149TIP3   OH240005   2.913   5.112   0.131 -0.2512  0.0955 -0.1536
 6149TIP3    H140006   2.891   5.022   0.156  0.0969 -0.3059 -1.2288
 6149TIP3    H240007   2.923   5.109   0.036  2.5799  0.6193  0.0209
 6150TIP3   OH240008   4.835   1.365   0.615 -0.5728  0.2696 -0.0077
 6150TIP3    H140009   4.899   1.421   0.571 -0.8241  0.2301 -0.4388
 6150TIP3    H240010   4.787   1.323   0.543  0.5406 -1.6035  0.2590
 6151TIP3   OH240011   4.850   0.524   0.032  0.3398  0.2679  0.0068
 6151TIP3    H140012   4.851   0.489  -0.058 -0.1938  0.3432 -0.0332
 6151TIP3    H240013   4.913   0.470   0.079 -0.0578 -0.3850 -0.1934
 6152TIP3   OH240014   3.754   1.772   1.543  0.0897 -0.2946 -0.1131
 6152TIP3    H140015   3.715   1.709   1.604  1.4292  1.2406  2.5034
 6152TIP3    H240016   3.782   1.844   1.598  0.3922  1.7576 -2.7512
 6153TIP3   OH240017   5.748   0.252   8.879  0.4474  1.0682  0.0951
 6153TIP3    H140018   5.657   0.229   8.896  1.0889 -1.5691  0.4031
 6153TIP3    H240019   5.752   0.266   8.784 -0.0147 -0.3959 -0.1709
 6154TIP3   OH240020   0.056   2.042   8.805  0.1209 -0.1086 -0.6407
 6154TIP3    H140021   0.040   2.120   8.859 -0.3364  0.9386 -2.2289
 6154TIP3    H240022  -0.013   2.044   8.739  0.9327 -1.0986 -1.5540
 6155TIP3   OH240023   3.617   4.376   0.626  0.8038  0.1099  0.3344
 6155TIP3    H140024   3.666   4.336   0.554  1.6373 -1.6557  1.8013
 6155TIP3    H240025   3.684   4.398   0.690  0.0120  1.1575  0.8369
 6156TIP3   OH240026   5.332   1.636   0.188  0.6880 -0.1793  0.1677
 6156TIP3    H140027   5.324   1.585   0.108 -0.8419 -0.2866  0.3444
 6156TIP3    H240028   5.421   1.622   0.218  1.0790 -0.6430 -1.1741
 6157TIP3   OH240029   1.825   2.984   7.448 -0.1244  0.7742  0.5679
 6157TIP3    H140030   1.740   3.000   7.488 -0.8607 -0.4164 -0.4423
 6157TIP3    H240031   1.812   3.002   7.355  0.2357 -0.9816  0.1221
 6158TIP3   OH240032   1.835   0.004   2.061  0.8028 -0.1870 -0.3750
 6158TIP3    H140033   1.878  -0.064   2.112 -0.1703  0.4350  1.3601
 6158TIP3    H240034   1.818   0.074   2.124 -1.1986  0.2739 -1.3491
 6159TIP3   OH240035   0.167   4.421   8.503  0.3203 -0.3032  0.2147
 6159TIP3    H140036   0.099   4.409   8.437  0.3766 -2.1027  0.4248
 6159TIP3    H240037   0.164   4.340   8.555  1.5185  0.2872  1.2531
 6160TIP3   OH240038   0.561   0.447   2.707  0.0659  0.3707  0.6686
 6160TIP3    H140039   0.551   0.355   2.730 -0.3293  0.6383  1.6129
 6160TIP3    H240040   0.551   0.494   2.790  1.2382  1.2065  0.3707
 6161TIP3   OH240041   3.053   3.187   0.627  0.4081  0.3968 -0.3127
 6161TIP3    H140042   3.096   3.174   0.711  1.2435  0.4263 -0.7214
 6161TIP3    H240043   3.046   3.099   0.590 -0.9863  0.2489  0.2658
 6162TIP3   OH240044   3.501   5.182   2.105  0.1587 -0.4687  0.2107
 6162TIP3    H140045   3.468   5.267   2.076 -1.7479 -1.5567 -1.0451
 6162TIP3    H240046   3.517   5.193   2.199  0.9267  1.5201 -0.0998
 6163TIP3   OH240047   3.932   3.244   7.085  0.3393  0.2762  0.0081
 6163TIP3    H140048   3.900   3.175   7.142 -0.4935  0.6149 -0.0271
 6163TIP3    H240049   3.942   3.203   7.000 -0.6894  0.3095 -0.1462
 6164TIP3   OH240050   5.504   2.926   1.975  0.0714 -0.1238  0.5500
 6164TIP3    H140051   5.520   2.878   1.894 -0.7837 -0.5699  0.6351
 6164TIP3    H240052   5.574   2.898   2.034  0.5999  0.0794  0.0321
 6165TIP3   OH240053   1.766   2.640   3.289  0.0066 -0.1096  0.1182
 6165TIP3    H140054   1.753   2.735   3.287  0.7361  0.0140  0.9474
 6165TIP3    H240055   1.720   2.609   3.211  0.3933  1.0070 -0.5828
 6166TIP3   OH240056   5.347   3.338   2.629  0.0984  0.4662  0.1753
 6166TIP3    H140057   5.424   3.343   2.686 -1.5690  2.6019  2.4914
 6166TIP3    H240058   5.301   3.259   2.657  0.9208 -0.2860 -0.5471
 6167TIP3   OH240059   2.251   3.300   1.879  0.5002  0.3342 -0.0630
 6167TIP3    H140060   2.296   3.261   1.953  0.3486 -1.8550 -1.0398
 6167TIP3    H240061   2.315   3.358   1.839  0.8550  0.8806  1.2596
 6168TIP3   OH240062   4.012   6.431   1.975 -0.0113 -0.1393  0.0520
 6168TIP3    H140063   3.977   6.360   1.921 -0.4942 -0.9035  1.3362
 6168TIP3    H240064   4.039   6.497   1.912 -0.1927 -1.1657 -1.1516
 6169TIP3   OH240065   4.501   6.398   0.706  0.2832  0.4154  0.4402
 6169TIP3    H140066   4.406   6.406   0.698  0.3815  0.5174 -0.6652
 6169TIP3    H240067   4.530   6.483   0.739 -0.0359  0.2851  1.0674
 6170TIP3   OH240068   6.116   4.245   0.623  0.0160  0.3840 -0.4893
 6170TIP3    H140069   6.107   4.150   0.617 -0.0357  0.3835 -0.3911
 6170TIP3    H240070   6.026   4.278   0.630  0.0895  0.3364  1.1036
 6171TIP3   OH240071   4.600   5.254   1.117  0.0826 -0.5473  0.2436
 6171TIP3    H140072   4.554   5.336   1.131 -0.6853 -1.0034  0.5040
 6171TIP3    H240073   4.552   5.212   1.045 -1.1268 -1.8607  1.7245
 6172TIP3   OH240074   3.633   4.564   8.523  0.4508 -0.3386  0.0347
 6172TIP3    H140075   3.702   4.593   8.463  0.3436  0.1060  0.1254
 6172TIP3    H240076   3.632   4.630   8.592 -0.3457 -0.1113 -0.1868
 6173TIP3   OH240077   2.506   0.812   0.630 -0.1610 -0.1388 -0.0495
 6173TIP3    H140078   2.553   0.884   0.671  0.1268  0.2122 -0.9569
 6173TIP3    H240079   2.521   0.824   0.536  0.8317 -1.9907 -0.1842
 6174TIP3   OH240080   1.105   1.271   8.848  0.7270 -0.8827 -0.3633
 6174TIP3    H140081   1.090   1.283   8.942 -1.0994 -2.7734 -0.3270
 6174TIP3    H240082   1.044   1.332   8.806  1.9453  0.3740 -0.3721
 6175TIP3   OH240083   0.962   6.343   3.447 -0.3908 -0.3115 -0.3747
 6175TIP3    H140084   0.936   6.434   3.462 -2.4679 -0.7510 -1.0342
 6175TIP3    H240085   1.054   6.349   3.421  0.0018  1.4324  1.1651
 6176TIP3   OH240086   3.587   5.357   7.766 -0.1997 -0.4012 -0.1757
 6176TIP3    H140087   3.615   5.364   7.675 -0.9323  0.3536 -0.3563
 6176TIP3    H240088   3.491   5.362   7.762 -0.1854  1.6033  0.7636
 6177TIP3   OH240089   3.247   4.859   8.770 -0.3484 -0.0708 -0.1336
 6177TIP3    H140090   3.208   4.946   8.764 -0.7990 -0.2985 -0.6053
 6177TIP3    H240091   3.331   4.873   8.813 -0.3540  0.6159 -0.3356
 6178TIP3   OH240092   5.839   2.302   8.702 -0.8184 -0.4085  0.1770
 6178TIP3    H140093   5.881   2.388   8.697  0.1101 -0.8026  0.8482
 6178TIP3    H240094   5.837   2.271   8.612 -0.7137  0.1104 -0.0054
 6179TIP3   OH240095   6.311   1.584   0.037  0.7438 -0.3260 -0.6750
 6179TIP3    H140096   6.281   1.624  -0.045  2.8538  1.5130 -0.6652
 6179TIP3    H240097   6.280   1.643   0.105 -2.0279 -2.4639  0.0930
 6180TIP3   OH240098   3.684   0.264   2.171  0.2350  0.3343  0.4580
 6180TIP3    H140099   3.686   0.274   2.266  1.7089 -0.8883  0.5990
 6180TIP3    H240100   3.679   0.169   2.158  1.6334  0.3867 -0.6678
 6181TIP3   OH240101   3.201   2.487   0.656 -0.0986 -0.0632 -0.1558
 6181TIP3    H140102   3.216   2.410   0.601  0.0669  0.0679 -0.2963
 6181TIP3    H240103   3.111   2.514   0.636 -0.7842 -1.2180  1.1408
 6182TIP3   OH240104   0.840   3.901   8.542 -0.0968  0.3036  0.5493
 6182TIP3    H140105   0.784   3.835   8.502 -1.0280  0.4258  1.6104
 6182TIP3    H240106   0.923   3.894   8.494 -0.4771 -0.9972  0.0403
 6183TIP3   OH240107   1.253   5.313   8.688  0.1999  0.0213 -0.0061
 6183TIP3    H140108   1.311   5.379   8.725 -2.3120  1.5067  1.5333
 6183TIP3    H240109   1.290   5.230   8.718  0.6821  0.9860  2.2824
 6184TIP3   OH240110   6.124   3.391   3.055 -0.1688 -0.3041 -0.3959
 6184TIP3    H140111   6.098   3.437   2.975 -0.7231 -2.7245 -1.7019
 6184TIP3    H240112   6.116   3.457   3.124 -1.8031  1.3017 -2.0048
 6185TIP3   OH240113   1.336   2.031   9.038 -0.6441  0.1257  0.5289
 6185TIP3    H140114   1.411   2.090   9.035  0.6715 -1.4104  1.3110
 6185TIP3    H240115   1.309   2.020   8.947 -0.5310  1.4178  0.3292
 6186TIP3   OH240116   1.560   4.872   0.423  0.0258  0.4163 -0.6202
 6186TIP3    H140117   1.578   4.811   0.351  0.0502 -1.7146  1.1292
 6186TIP3    H240118   1.628   4.854   0.488 -1.3094  0.7043  0.9131
 6187TIP3   OH240119   3.006   3.610   9.184  0.3829 -0.5498 -0.1870
 6187TIP3    H140120   2.933   3.592   9.244 -0.9105  1.5957 -0.9846
 6187TIP3    H240121   3.023   3.527   9.140  0.2067 -1.7497  1.8568
 6188TIP3   OH240122   1.206   1.946   1.583 -0.3415  0.4200 -0.1802
 6188TIP3    H140123   1.251   1.980   1.660  0.6747 -1.0379 -0.0936
 6188TIP3    H240124   1.253   1.985   1.509  1.5084 -1.4608 -0.1077
 6189TIP3   OH240125   1.176   3.715   3.308  0.0849  0.6486  0.1141
 6189TIP3    H140126   1.244   3.682   3.249 -0.7628 -0.9431 -0.0415
 6189TIP3    H240127   1.224   3.752   3.382  1.1235  0.0939 -0.2581
 6190TIP3   OH240128   3.179   3.305   7.821 -0.4419  0.2370  0.1228
 6190TIP3    H140129   3.271   3.331   7.812 -0.1148 -0.5451  1.0410
 6190TIP3    H240130   3.143   3.366   7.885 -0.3881  0.1106  0.2719
 6191TIP3   OH240131   2.694   1.882   8.946 -0.3287 -0.1793 -0.3409
 6191TIP3    H140132   2.661   1.813   9.005 -0.2094 -0.4275 -0.5619
 6191TIP3    H240133   2.659   1.963   8.983 -1.3120 -0.4432 -0.6478
 6192TIP3   OH240134   2.946   4.661   8.028 -0.4098 -0.0237  0.2546
 6192TIP3    H140135   2.866   4.610   8.017 -1.1843  1.0035  0.9319
 6192TIP3    H240136   2.995   4.647   7.947 -2.2780  1.0776 -1.1450
 6193TIP3   OH240137   0.107   4.684   1.233  0.2851 -0.2114 -0.5692
 6193TIP3    H140138   0.068   4.621   1.294 -0.0223  0.6164  0.1201
 6193TIP3    H240139   0.145   4.751   1.289 -0.5424  0.8945 -1.2743
 6194TIP3   OH240140   2.418   1.891   1.755  0.5866 -0.0542  0.1650
 6194TIP3    H140141   2.429   1.816   1.813 -2.3394 -1.5295 -0.9854
 6194TIP3    H240142   2.426   1.855   1.667  0.8775  1.3333 -0.4036
 6195TIP3   OH240143   5.527   6.281   0.302  0.0047 -0.0525  0.0529
 6195TIP3    H140144   5.618   6.288   0.333  1.2678  0.5322 -3.3003
 6195TIP3    H240145   5.523   6.195   0.261 -0.9913 -0.0851  0.2138
 6196TIP3   OH240146   4.085   4.627   8.255 -0.2941 -0.4425 -0.2870
 6196TIP3    H140147   4.161   4.581   8.291 -0.0343 -1.8008 -2.4332
 6196TIP3    H240148   4.075   4.593   8.166 -1.6311  1.8765 -1.1221
 6197TIP3   OH240149   4.707   0.867   7.645  0.2238  0.3737  0.3232
 6197TIP3    H140150   4.744   0.902   7.726  0.9403 -1.7458  0.9746
 6197TIP3    H240151   4.664   0.785   7.671 -1.4530  0.7274 -1.0993
 6198TIP3   OH240152   4.273   4.161   1.194  0.2233 -0.3909 -0.1444
 6198TIP3    H140153   4.276   4.138   1.101 -1.5129 -0.4283 -0.2232
 6198TIP3    H240154   4.249   4.079   1.238  2.3731 -0.7341  0.5419
 6199TIP3   OH240155   1.979   2.241   2.498 -0.0878  0.1456  0.7773
 6199TIP3    H140156   2.008   2.234   2.589  2.3157  3.0180  0.3905
 6199TIP3    H240157   2.052   2.208   2.446  0.6743  2.9052 -0.1058
 6200TIP3   OH240158   5.531   4.619   0.474 -0.2986 -0.3663  0.1899
 6200TIP3    H140159   5.547   4.529   0.503 -0.3787 -1.2194 -2.1097
 6200TIP3    H240160   5.481   4.608   0.393 -0.7974  1.7968  0.1512
 6201TIP3   OH240161   4.553   5.989   1.981  0.0761  0.1785  0.4766
 6201TIP3    H140162   4.610   5.933   1.929 -1.1643  0.1393 -0.9148
 6201TIP3    H240163   4.594   5.991   2.068  2.0156 -0.0624 -0.3714
 6202TIP3   OH240164   1.484   1.352   8.633 -0.2600  0.0978 -0.2680
 6202TIP3    H140165   1.516   1.282   8.576  0.7756  1.3206 -1.2713
 6202TIP3    H240166   1.511   1.433   8.588 -2.3799  1.1699  0.2816
 6203TIP3   OH240167   6.192   2.086   1.260  0.0491 -0.2872 -0.4503
 6203TIP3    H140168   6.278   2.050   1.279  0.3214 -0.3865 -1.7570
 6203TIP3    H240169   6.174   2.058   1.170 -0.7063  0.9593 -0.7106
 6204TIP3   OH240170   2.780   3.647   2.160  0.7736  0.2729  0.1286
 6204TIP3    H140171   2.817   3.712   2.101 -0.0918  0.9275  0.2887
 6204TIP3    H240172   2.856   3.613   2.208  1.2361  1.2836  0.1581
 6205TIP3   OH240173   1.680   3.337   1.299  0.5089  0.8283  0.2467
 6205TIP3    H140174   1.766   3.319   1.261 -0.3965 -0.0709 -1.5007
 6205TIP3    H240175   1.663   3.429   1.278 -0.8550 -0.1163 -3.6651
 6206TIP3   OH240176   4.908   2.701   1.297  0.3382 -0.7919 -0.4199
 6206TIP3    H140177   4.831   2.730   1.249  0.8563  0.3687 -0.5847
 6206TIP3    H240178   4.947   2.781   1.332  1.1524 -1.4064  0.1514
 6207TIP3   OH240179   4.916   1.749   8.682  0.0736 -0.1324 -0.9284
 6207TIP3    H140180   4.876   1.662   8.680  0.4381 -0.3010 -0.9615
 6207TIP3    H240181   4.897   1.786   8.596 -0.0664 -0.1884 -0.9215
 6208TIP3   OH240182   4.663   6.339   8.012 -0.4556  0.8310 -0.4562
 6208TIP3    H140183   4.696   6.317   8.099  0.3854  1.5383 -0.5859
 6208TIP3    H240184   4.630   6.256   7.978  0.8804  0.1586 -0.1709
 6209TIP3   OH240185   6.185   3.473   1.260 -0.1648  0.2912 -0.3619
 6209TIP3    H140186   6.120   3.438   1.200  0.6596  0.4746 -1.4043
 6209TIP3    H240187   6.193   3.565   1.235  1.6885 -0.1023 -1.4295
 6210TIP3   OH240188   1.563   2.095   7.924  0.5064 -0.1302  0.0163
 6210TIP3    H140189   1.652   2.132   7.922  1.1060 -1.3179  1.8601
 6210TIP3    H240190   1.554   2.052   7.839  0.8774  1.7387 -1.0196
 6211TIP3   OH240191   6.355   1.482   8.022  0.3142  0.5088  0.3433
 6211TIP3    H140192   6.397   1.555   8.068 -0.1884  1.0965 -0.1149
 6211TIP3    H240193   6.407   1.471   7.942  1.1528 -0.4744  1.0008
 6212TIP3   OH240194   2.200   0.972   0.085  0.7929  0.0569  0.3018
 6212TIP3    H140195   2.142   0.941   0.015  1.2128  0.5617 -0.2783
 6212TIP3    H240196   2.145   0.970   0.163  0.3886 -0.7581  0.0162
 6213TIP3   OH240197   4.398   3.441   8.830 -0.4154 -0.3402  0.8454
 6213TIP3    H140198   4.342   3.396   8.767 -1.8869  0.7300  1.3295
 6213TIP3    H240199   4.341   3.459   8.905  0.3838  1.4166  1.0788
 6214TIP3   OH240200   1.027   3.393   7.571  0.4326  0.7320 -0.5508
 6214TIP3    H140201   1.092   3.457   7.543  1.5228  0.7555  1.8179
 6214TIP3    H240202   1.079   3.318   7.602 -0.6167  0.7091  1.3049
 6215TIP3   OH240203   3.429   0.666   0.162 -0.7707 -0.2646 -0.0133
 6215TIP3    H140204   3.435   0.571   0.176 -0.7195 -0.1929  0.4595
 6215TIP3    H240205   3.380   0.698   0.237 -1.1500  0.0342 -0.3813
 6216TIP3   OH240206   0.722   5.337   8.930 -0.1887  0.0579  0.6452
 6216TIP3    H140207   0.751   5.350   8.840  0.3664  1.0683  0.9539
 6216TIP3    H240208   0.628   5.355   8.928 -0.4016 -1.0144  0.0751
 6217TIP3   OH240209   6.301   1.389   0.608 -0.4535  0.0091  0.2474
 6217TIP3    H140210   6.307   1.313   0.666 -0.0453  1.2222  1.8562
 6217TIP3    H240211   6.306   1.352   0.520  0.9135 -1.7351  0.9945
 6218TIP3   OH240212   2.829   0.624   8.611  0.3844  0.1391  0.1698
 6218TIP3    H140213   2.740   0.650   8.634 -0.4608 -1.2178 -1.3858
 6218TIP3    H240214   2.839   0.537   8.648  0.6052 -0.2215 -0.7206
 6219TIP3   OH240215   1.257   2.893   1.693 -0.8156  0.5393 -0.1902
 6219TIP3    H140216   1.211   2.923   1.614 -0.7554  2.0561  0.3012
 6219TIP3    H240217   1.349   2.914   1.677 -0.7403  0.4369  0.0941
 6220TIP3   OH240218   0.130   1.251   7.451 -0.0410 -0.2447 -0.2003
 6220TIP3    H140219   0.133   1.186   7.381 -1.0877  0.7333 -1.2007
 6220TIP3    H240220   0.037   1.260   7.471  0.1909  0.0555  0.7772
 6221TIP3   OH240221   2.571   2.101   2.193  0.7137 -0.1429 -0.3634
 6221TIP3    H140222   2.592   2.191   2.218  0.6269  0.0043 -0.8202
 6221TIP3    H240223   2.515   2.109   2.116  1.6872 -0.6009 -1.1521
 6222TIP3   OH240224   4.547   5.356   0.390  0.7656  0.2389 -0.3116
 6222TIP3    H140225   4.579   5.285   0.335 -0.7766 -1.2963  0.6606
 6222TIP3    H240226   4.464   5.383   0.350 -0.0798 -0.5035  0.8402
 6223TIP3   OH240227   3.904   1.046   8.879  0.3902  0.2569 -0.5000
 6223TIP3    H140228   3.938   1.034   8.967 -1.5841  0.4392  0.3414
 6223TIP3    H240229   3.894   0.958   8.844  0.7861  0.1678 -0.3921
 6224TIP3   OH240230   1.938   1.618   9.065  0.0530 -0.0476  0.2824
 6224TIP3    H140231   1.850   1.622   9.030  0.2934  1.0397 -0.2301
 6224TIP3    H240232   1.987   1.565   9.002 -0.1129 -0.2393  0.3134
 6225TIP3   OH240233   3.254   2.280   2.129 -0.1157  0.5790 -0.3487
 6225TIP3    H140234   3.331   2.282   2.073  0.7635  0.5361  0.8330
 6225TIP3    H240235   3.268   2.349   2.193 -1.3488  0.9747 -0.4640
 6226TIP3   OH240236   1.332   2.260   7.418  0.4543  0.7342 -0.2102
 6226TIP3    H140237   1.244   2.224   7.408  0.6617  0.4395 -1.0550
 6226TIP3    H240238   1.391   2.185   7.408  0.8102  0.9229  0.3679
 6227TIP3   OH240239   6.167   2.798   1.153  0.1773  0.4464  0.5019
 6227TIP3    H140240   6.187   2.889   1.176  0.7246  0.5935 -0.5103
 6227TIP3    H240241   6.142   2.758   1.236  1.4993  1.1090  1.2518
 6228TIP3   OH240242   4.562   0.605   7.634  0.3833  0.1134  0.3203
 6228TIP3    H140243   4.475   0.584   7.600  0.5778 -0.8752  0.3934
 6228TIP3    H240244   4.621   0.594   7.559  0.5201  0.1825  0.4160
 6229TIP3   OH240245   4.432   0.891   1.921 -0.1177 -0.0709 -0.1076
 6229TIP3    H140246   4.448   0.935   2.004  0.9946 -1.4318  0.4401
 6229TIP3    H240247   4.519   0.885   1.881 -0.2861 -1.4869 -0.2903
 6230TIP3   OH240248   0.512   1.922   0.685  0.6126 -0.0037  0.0898
 6230TIP3    H140249   0.461   1.965   0.754 -0.0368 -0.4921 -0.0841
 6230TIP3    H240250   0.478   1.960   0.604 -1.0490 -1.9095 -0.1757
 6231TIP3   OH240251   2.022   0.861   2.087 -0.3169  0.2232  0.3091
 6231TIP3    H140252   2.038   0.955   2.076 -0.1479  0.3303  1.4339
 6231TIP3    H240253   1.962   0.855   2.161 -0.8364 -0.5312 -0.1503
 6232TIP3   OH240254   2.186   1.352   1.027  0.3380  0.0262 -0.4720
 6232TIP3    H140255   2.167   1.437   1.065  1.6307  0.2729 -0.3177
 6232TIP3    H240256   2.101   1.317   1.001 -0.3820  0.6295  0.9753
 6233TIP3   OH240257   5.434   1.803   2.428  0.0055 -0.1624 -0.1058
 6233TIP3    H140258   5.438   1.812   2.523  3.5445 -0.8553 -0.0555
 6233TIP3    H240259   5.438   1.893   2.395  1.6059 -0.0084  0.4434
 6234TIP3   OH240260   0.955   1.494   8.756 -0.0233  0.0448 -0.2485
 6234TIP3    H140261   0.921   1.578   8.788  0.0077  0.2208 -0.6691
 6234TIP3    H240262   0.951   1.501   8.661 -0.6665 -0.7035 -0.2872
 6235TIP3   OH240263   2.129   4.893   8.387 -0.6951  1.1724  0.1517
 6235TIP3    H140264   2.055   4.937   8.428 -0.0075  0.9603  1.7202
 6235TIP3    H240265   2.127   4.804   8.423 -0.1590  0.9159 -0.4315
 6236TIP3   OH240266   4.253   5.845   3.123 -0.1173  0.0720  0.3575
 6236TIP3    H140267   4.266   5.798   3.205 -0.8300  0.9999  1.0266
 6236TIP3    H240268   4.293   5.789   3.056 -0.4780 -1.2112  1.1835
 6237TIP3   OH240269   5.597   6.235   7.894 -0.1347 -0.3232  0.2723
 6237TIP3    H140270   5.681   6.207   7.929  0.7679  0.3536 -1.2548
 6237TIP3    H240271   5.538   6.236   7.970  0.9664 -1.7375  1.1961
 6238TIP3   OH240272   0.689   2.096   0.001 -0.0147  0.0209  0.3346
 6238TIP3    H140273   0.738   2.162  -0.049  2.5838 -1.9879  0.0258
 6238TIP3    H240274   0.695   2.016  -0.052 -2.1349 -0.7858  1.2072
 6239TIP3   OH240275   2.989   1.134   2.814  0.3642  0.0544  0.1848
 6239TIP3    H140276   3.047   1.060   2.825  1.0171  0.5085 -0.1317
 6239TIP3    H240277   2.942   1.141   2.897  0.5226 -0.5103  0.3253
 6240TIP3   OH240278   3.720   4.168   8.409  0.1297  0.5153  0.6774
 6240TIP3    H140279   3.712   4.123   8.325 -0.0688  0.9185  0.4761
 6240TIP3    H240280   3.774   4.244   8.391  0.9694  0.0524  1.1451
 6241TIP3   OH240281   5.937   1.925   0.413 -0.4360  0.0052 -0.2965
 6241TIP3    H140282   5.939   1.992   0.345 -1.4553 -0.3506 -0.6955
 6241TIP3    H240283   5.874   1.959   0.478  0.1727  0.1239  0.2382
 6242TIP3   OH240284   2.419   0.492   0.643  0.2906  0.3108  0.3151
 6242TIP3    H140285   2.400   0.542   0.564 -0.8091  0.3165  0.5754
 6242TIP3    H240286   2.341   0.438   0.657  0.7439 -0.1767  1.0229
 6243TIP3   OH240287   1.757   5.815   7.819 -0.2925 -0.7473  0.0788
 6243TIP3    H140288   1.720   5.901   7.798 -0.0943 -0.5218  0.6164
 6243TIP3    H240289   1.689   5.752   7.793 -2.2779 -0.2532  3.4452
 6244TIP3   OH240290   1.084   6.274   8.145 -0.3393  0.7051 -0.1064
 6244TIP3    H140291   1.168   6.318   8.128  0.8227 -1.1835  0.4771
 6244TIP3    H240292   1.053   6.313   8.227  1.3347 -0.4148  1.1165
 6245TIP3   OH240293   6.519   2.899   8.139  0.0770 -0.5050 -0.4642
 6245TIP3    H140294   6.541   2.873   8.050 -0.7885  0.6286 -1.0261
 6245TIP3    H240295   6.603   2.896   8.186  0.4325 -1.7838 -1.1149
 6246TIP3   OH240296   3.094   0.860   1.683  0.2216  0.5465  0.2159
 6246TIP3    H140297   3.145   0.791   1.641 -1.4793 -1.6126  1.4494
 6246TIP3    H240298   3.091   0.931   1.619 -0.6211 -1.7682 -2.5077
 6247TIP3   OH240299   3.974   3.362   1.757  0.8718 -0.0139  0.2038
 6247TIP3    H140300   3.913   3.408   1.700  1.1290  0.3173  0.1957
 6247TIP3    H240301   4.059   3.405   1.742  1.1625 -0.6397  0.0187
 6248TIP3   OH240302   1.897   6.421   1.329  0.3300  0.7023  0.0308
 6248TIP3    H140303   1.980   6.413   1.282 -0.4715  1.2095 -1.5496
 6248TIP3    H240304   1.883   6.515   1.338 -0.9695  0.6854 -1.4511
 6249TIP3   OH240305   4.521   1.462   7.374  0.6721  0.4295  0.0628
 6249TIP3    H140306   4.603   1.428   7.411  0.7264 -0.4536 -0.8274
 6249TIP3    H240307   4.516   1.552   7.406  2.5237  0.8579 -0.6716
 6250TIP3   OH240308   0.478   1.953   1.948 -0.1784 -0.3400  0.3793
 6250TIP3    H140309   0.473   2.049   1.946  0.1387 -0.2347 -3.8409
 6250TIP3    H240310   0.556   1.932   1.898 -1.6562 -2.7829 -1.1096
 6251TIP3   OH240311   0.249   5.081   2.147  0.1544  0.2561 -0.2140
 6251TIP3    H140312   0.252   5.009   2.209 -0.2954 -0.0510 -0.5429
 6251TIP3    H240313   0.326   5.134   2.168  0.4659 -0.2951  0.0530
 6252TIP3   OH240314   2.785   4.872   0.446  0.5720  0.3025  0.2003
 6252TIP3    H140315   2.798   4.967   0.445  2.9258  0.0717  1.0743
 6252TIP3    H240316   2.825   4.842   0.364 -0.2353  0.0560 -0.1101
 6253TIP3   OH240317   3.913   3.646   9.037 -0.1388  0.7996 -0.6715
 6253TIP3    H140318   3.949   3.687   8.958  0.5529 -1.3585 -1.5417
 6253TIP3    H240319   3.866   3.569   9.005 -0.7342  0.4504  0.9571
 6254TIP3   OH240320   5.332   3.145   2.439  0.0467 -0.3955 -0.3103
 6254TIP3    H140321   5.416   3.128   2.396  0.1932 -2.6846  0.7340
 6254TIP3    H240322   5.349   3.222   2.493  0.9013  0.3191 -1.5293
 6255TIP3   OH240323   1.817   0.164   2.282 -0.0170 -0.1798  0.2777
 6255TIP3    H140324   1.801   0.257   2.298  1.3642  0.0153  0.6588
 6255TIP3    H240325   1.912   0.157   2.271  0.0387 -1.7200  1.4292
 6256TIP3   OH240326   3.849   3.632   7.379 -0.5753 -0.4272  0.5510
 6256TIP3    H140327   3.851   3.596   7.290 -0.9816 -0.1412  0.4237
 6256TIP3    H240328   3.903   3.572   7.430 -1.6159 -1.4824  0.4456
 6257TIP3   OH240329   5.810   1.688   0.343 -1.0531 -0.5978  0.4463
 6257TIP3    H140330   5.842   1.778   0.353 -0.8761 -0.5831 -0.1903
 6257TIP3    H240331   5.858   1.638   0.409  0.6007 -0.6403 -0.7204
 6258TIP3   OH240332   5.798   5.408   1.372  0.1938 -0.1136 -0.2282
 6258TIP3    H140333   5.866   5.390   1.307  0.5748 -0.4754  0.2611
 6258TIP3    H240334   5.810   5.340   1.439  0.5643  0.9379  0.8148
 6259TIP3   OH240335   5.395   5.494   0.267 -0.0892  0.2957 -0.9899
 6259TIP3    H140336   5.448   5.544   0.329 -1.8167  1.0180 -0.0380
 6259TIP3    H240337   5.331   5.448   0.322 -0.6953 -0.2686 -2.1298
 6260TIP3   OH240338   5.786   1.437   7.974 -0.3602 -0.5419 -0.1578
 6260TIP3    H140339   5.787   1.526   8.011 -1.3326 -0.8095  0.5672
 6260TIP3    H240340   5.878   1.416   7.959 -0.1081  0.5363 -0.2089
 6261TIP3   OH240341   2.495   6.171   8.103  0.3474  0.2190  0.0257
 6261TIP3    H140342   2.401   6.158   8.085  0.2070  0.3556  0.6487
 6261TIP3    H240343   2.521   6.240   8.042 -0.2149  0.9570  0.6065
 6262TIP3   OH240344   5.345   0.801   0.379  0.0008  0.4048  0.0040
 6262TIP3    H140345   5.415   0.848   0.333 -0.1684 -0.8480 -1.6105
 6262TIP3    H240346   5.287   0.871   0.411  1.4521  1.4166  0.5585
 6263TIP3   OH240347   4.502   6.094   7.955  0.3598 -0.2161  0.0979
 6263TIP3    H140348   4.484   6.036   8.030 -1.4434 -0.8313 -0.7342
 6263TIP3    H240349   4.517   6.034   7.882 -1.5760  0.2863 -0.7892
 6264TIP3   OH240350   5.039   4.399   9.245 -0.0610 -0.4138 -0.1855
 6264TIP3    H140351   5.064   4.310   9.272 -1.7200 -0.9793 -0.3652
 6264TIP3    H240352   4.961   4.386   9.191  0.2433  1.0950 -1.0331
 6265TIP3   OH240353   1.703   5.523   9.217  0.1216 -0.7296 -0.2196
 6265TIP3    H140354   1.703   5.510   9.122 -0.4158  0.2199 -0.3602
 6265TIP3    H240355   1.776   5.582   9.232  1.7118 -2.7035  0.2611
 6266TIP3   OH240356   2.857   2.143   2.806 -0.1323 -0.1804 -0.1985
 6266TIP3    H140357   2.789   2.185   2.858 -1.4005 -2.7272  0.3566
 6266TIP3    H240358   2.891   2.072   2.862  1.0944 -0.6465 -1.4596
 6267TIP3   OH240359   4.152   1.206   2.046  0.0431  0.2795  0.2038
 6267TIP3    H140360   4.131   1.287   2.094 -1.8615  0.6549 -1.1694
 6267TIP3    H240361   4.207   1.157   2.106 -0.9978  1.3946  2.1760
 6268TIP3   OH240362   5.830   3.410   8.284 -0.2793  0.5762  0.5251
 6268TIP3    H140363   5.923   3.414   8.261 -0.0112  1.9759  1.6931
 6268TIP3    H240364   5.819   3.323   8.322  0.5274  0.3683  0.3174
 6269TIP3   OH240365   5.243   5.291   1.024  0.3883 -0.0698  0.1457
 6269TIP3    H140366   5.235   5.381   1.054 -1.0558 -0.9112  2.5873
 6269TIP3    H240367   5.322   5.258   1.067  0.5645 -0.1412 -0.2321
 6270TIP3   OH240368   3.054   2.557   3.191  0.0818  0.5951 -0.1181
 6270TIP3    H140369   3.008   2.489   3.143  0.0343  1.0179 -0.6825
 6270TIP3    H240370   2.989   2.591   3.253  0.3949 -0.5341  0.8699
 6271TIP3   OH240371   3.898   3.083   7.302  0.2015 -0.3833 -0.2892
 6271TIP3    H140372   3.827   3.106   7.362 -1.0148 -0.7523 -1.5205
 6271TIP3    H240373   3.927   2.997   7.330 -1.5476 -1.3389 -1.2153
 6272TIP3   OH240374   1.726   0.175   0.994 -0.1536 -0.2660 -0.2256
 6272TIP3    H140375   1.638   0.198   0.963 -0.8618  0.2563  1.9937
 6272TIP3    H240376   1.774   0.257   0.994 -0.2562 -0.2023  0.3180
 6273TIP3   OH240377   6.026   5.456   8.741  0.0162 -0.4119 -0.2552
 6273TIP3    H140378   6.002   5.401   8.667 -0.4966  1.6502 -1.7272
 6273TIP3    H240379   6.100   5.508   8.710  1.5036 -1.2828  1.6108
 6274TIP3   OH240380   2.879   5.242   2.819  0.2904  0.2126  0.5358
 6274TIP3    H140381   2.974   5.246   2.807  0.2384 -0.4640 -0.2612
 6274TIP3    H240382   2.866   5.172   2.883  0.2997 -0.4330 -0.1444
 6275TIP3   OH240383   4.810   6.250   9.083 -0.0415 -0.3203 -0.6016
 6275TIP3    H140384   4.836   6.241   9.174 -1.0152 -0.1056 -0.2841
 6275TIP3    H240385   4.762   6.169   9.063  0.2991 -0.4354 -0.9757
 6276TIP3   OH240386   6.599   0.928   2.188 -0.1713  0.5037  0.5935
 6276TIP3    H140387   6.680   0.929   2.136 -1.7981  0.4041 -2.1110
 6276TIP3    H240388   6.580   0.835   2.202 -0.3794  0.5023  0.2989
 6277TIP3   OH240389   1.923   5.383   7.994 -0.4068 -0.3329 -0.4164
 6277TIP3    H140390   2.000   5.327   7.995 -0.2372 -0.0962 -0.0904
 6277TIP3    H240391   1.900   5.395   8.086 -0.8822 -0.4669 -0.5121
 6278TIP3   OH240392   4.097   0.121   7.783 -0.7679 -0.4388 -0.3425
 6278TIP3    H140393   4.132   0.110   7.695 -1.0144 -0.7053 -0.4109
 6278TIP3    H240394   4.031   0.190   7.775 -2.1333 -1.7409 -0.7673
 6279TIP3   OH240395   6.289   0.700   8.002  0.0746  0.2367  0.2774
 6279TIP3    H140396   6.217   0.671   7.945  0.1615 -0.8455  0.6778
 6279TIP3    H240397   6.351   0.743   7.943 -0.4547  0.3237 -0.2285
 6280TIP3   OH240398   2.841   4.192   2.181  0.7659 -0.6446  0.0694
 6280TIP3    H140399   2.759   4.168   2.136 -0.1874 -0.7868  1.8142
 6280TIP3    H240400   2.823   4.276   2.222  1.5096 -0.6606  0.4483
 6281TIP3   OH240401   2.293   3.891   8.866  0.4228 -0.1246  0.4394
 6281TIP3    H140402   2.305   3.813   8.812  1.6157  1.1099 -1.1734
 6281TIP3    H240403   2.377   3.937   8.861 -0.4743  1.6247  0.7486
 6282TIP3   OH240404   1.128   4.024   2.795 -0.1401  0.0044 -0.0841
 6282TIP3    H140405   1.166   3.978   2.869 -1.0302 -0.5749  0.0349
 6282TIP3    H240406   1.141   4.117   2.814  0.1899 -0.1561  0.4879
 6283TIP3   OH240407   5.147   1.903   9.155 -0.3119  0.0305 -0.4945
 6283TIP3    H140408   5.172   1.991   9.128  1.6018 -0.6406 -1.0619
 6283TIP3    H240409   5.226   1.851   9.144 -1.4850 -1.8544 -0.5075
 6284TIP3   OH240410   2.031   2.002   8.778  0.6487 -0.0791  0.2561
 6284TIP3    H140411   2.084   2.017   8.699 -0.1345  0.6869 -0.1473
 6284TIP3    H240412   1.975   1.928   8.755 -0.3725  0.8566 -0.3442
 6285TIP3   OH240413   0.914   4.228   1.282  0.3410  0.2008  0.1375
 6285TIP3    H140414   0.984   4.250   1.221  0.1400  1.4826  0.3378
 6285TIP3    H240415   0.837   4.213   1.226  0.7139 -1.0063 -0.0677
 6286TIP3   OH240416   5.078   2.524   3.091 -0.0546 -0.5017 -0.1746
 6286TIP3    H140417   5.046   2.547   3.179 -0.8780 -2.3098  0.0451
 6286TIP3    H240418   4.998   2.508   3.040  0.3970 -2.2871 -0.4125
 6287TIP3   OH240419   3.963   2.737   2.034  0.1451  0.1020  0.1794
 6287TIP3    H140420   3.974   2.713   2.126 -0.2694  0.4616  0.3224
 6287TIP3    H240421   4.029   2.805   2.019  1.4699 -1.2250 -0.2823
 6288TIP3   OH240422   4.161   5.944   8.582 -0.5866 -0.2407  0.1517
 6288TIP3    H140423   4.073   5.921   8.613 -1.1555 -0.5203 -1.5645
 6288TIP3    H240424   4.163   6.039   8.585 -1.0060 -0.2262  0.0679
 6289TIP3   OH240425   0.141   2.404   2.100 -0.0407 -0.1974  0.1923
 6289TIP3    H140426   0.210   2.408   2.166  0.0896 -0.5040  0.0780
 6289TIP3    H240427   0.078   2.341   2.135  0.6175 -1.2709 -0.5204
 6290TIP3   OH240428   2.491   1.923   7.513 -0.4317 -0.5319  0.2568
 6290TIP3    H140429   2.490   2.019   7.515 -1.3985 -0.5236  1.8926
 6290TIP3    H240430   2.577   1.900   7.479 -0.8393  0.8936 -1.9224
 6291TIP3   OH240431   4.876   5.269   2.167  0.2204  0.1787 -0.4605
 6291TIP3    H140432   4.912   5.346   2.211 -0.9222 -0.2514  1.3133
 6291TIP3    H240433   4.854   5.300   2.079  1.8388  1.2701 -0.5297
 6292TIP3   OH240434   5.986   5.413   9.008 -0.6318 -0.1024  0.0942
 6292TIP3    H140435   6.006   5.418   8.915 -1.3157  1.9664 -0.0088
 6292TIP3    H240436   6.022   5.494   9.045 -2.0904  0.0832  1.2331
 6293TIP3   OH240437   3.427   4.399   1.208  0.1258  0.1572  0.6881
 6293TIP3    H140438   3.493   4.468   1.208 -0.9011  1.2339  2.6283
 6293TIP3    H240439   3.451   4.343   1.134  1.9521  1.6584  0.0510
 6294TIP3   OH240440   2.690   2.849   8.945  0.0183 -0.0682 -0.2319
 6294TIP3    H140441   2.608   2.853   8.994  0.2231 -0.4443  0.1552
 6294TIP3    H240442   2.758   2.862   9.011  0.2691  0.2831 -0.5573
 6295TIP3   OH240443   4.290   4.790   0.125 -0.0305 -0.0957 -0.3143
 6295TIP3    H140444   4.208   4.741   0.138 -0.0776  0.1087  0.1814
 6295TIP3    H240445   4.348   4.758   0.194  0.1136  0.1738 -0.3091
 6296TIP3   OH240446   4.929   0.170   8.738 -0.3052 -0.6267 -0.2137
 6296TIP3    H140447   4.836   0.171   8.717 -0.7031 -1.9065  1.2732
 6296TIP3    H240448   4.971   0.129   8.663 -0.8996  0.1401 -0.9807
 6297TIP3   OH240449   3.665   1.535   1.681  0.5695  0.1542 -0.1273
 6297TIP3    H140450   3.601   1.558   1.748  0.3783 -1.8190  0.4325
 6297TIP3    H240451   3.742   1.508   1.731  0.3216 -1.6246 -0.6541
 6298TIP3   OH240452   0.606   0.495   9.202  0.1874 -0.4278  0.0838
 6298TIP3    H140453   0.524   0.542   9.215  0.5842  0.4203 -0.4268
 6298TIP3    H240454   0.619   0.448   9.284  1.2349  2.6443  1.8487
 6299TIP3   OH240455   5.623   2.484   0.609 -0.4457  0.4072 -0.0945
 6299TIP3    H140456   5.628   2.419   0.539 -2.4484  1.8858 -1.7342
 6299TIP3    H240457   5.602   2.434   0.688  3.4158 -1.5142 -0.0340
 6300TIP3   OH240458   6.619   0.956   8.083  0.2464 -0.5285 -0.6378
 6300TIP3    H140459   6.661   0.872   8.098 -1.1169 -0.9637  1.0370
 6300TIP3    H240460   6.554   0.939   8.015  1.0234 -0.4453 -1.4128
 6301TIP3   OH240461   2.942   1.018   0.538 -0.0062  0.1280  0.0038
 6301TIP3    H140462   2.874   1.077   0.507  0.5761  0.2686 -1.0342
 6301TIP3    H240463   2.894   0.942   0.571 -0.6966 -1.5999 -4.2847
 6302TIP3   OH240464   1.865   6.489   8.016 -0.6891  0.0728 -0.1795
 6302TIP3    H140465   1.892   6.462   7.928  0.9143  2.6758 -0.6065
 6302TIP3    H240466   1.937   6.460   8.072 -0.7971  0.0481 -0.0560
 6303TIP3   OH240467   5.228   4.040   0.885  0.3910 -0.2250 -0.1238
 6303TIP3    H140468   5.149   4.043   0.831  1.4557 -0.2309 -1.7553
 6303TIP3    H240469   5.270   3.957   0.861  1.8691  0.6726 -0.7694
 6304TIP3   OH240470   6.226   3.406   8.935 -0.1601  0.1139  0.6527
 6304TIP3    H140471   6.221   3.436   9.026 -0.0115 -0.7614  0.9666
 6304TIP3    H240472   6.291   3.335   8.938  0.7326  0.8751 -0.3650
 6305TIP3   OH240473   3.557   5.064   7.879  0.2379  0.1393 -0.6227
 6305TIP3    H140474   3.473   5.062   7.833 -0.4375  2.1568  0.4058
 6305TIP3    H240475   3.585   5.155   7.874  3.8572 -0.9113 -3.4096
 6306TIP3   OH240476   1.418   2.472   1.558 -0.0754 -0.1416 -0.3180
 6306TIP3    H140477   1.368   2.393   1.578 -1.1620  0.2760 -1.2604
 6306TIP3    H240478   1.360   2.524   1.503  0.6367  1.3061  0.2401
 6307TIP3   OH240479   3.744   4.855   2.940  0.2981  0.0051 -0.1628
 6307TIP3    H140480   3.788   4.797   3.003 -2.5645 -1.0454  1.0619
 6307TIP3    H240481   3.721   4.933   2.991 -0.5519 -0.1160 -0.3421
 6308TIP3   OH240482   4.326   6.059   1.805  0.2431 -0.1707  0.4470
 6308TIP3    H140483   4.386   6.042   1.877  1.8190  1.9408 -0.2828
 6308TIP3    H240484   4.374   6.033   1.727 -0.5743 -0.3027 -0.0280
 6309TIP3   OH240485   5.746   5.858   8.117  0.3761 -0.5174 -0.0264
 6309TIP3    H140486   5.697   5.782   8.149  1.3194 -1.2333 -0.2377
 6309TIP3    H240487   5.767   5.836   8.026  1.1803 -0.2778  0.0929
 6310TIP3   OH240488   2.285   4.038   7.896 -0.2466  0.3315 -0.3285
 6310TIP3    H140489   2.266   3.950   7.864  0.2364 -0.2230  0.8296
 6310TIP3    H240490   2.367   4.028   7.945  0.2940  1.6158 -0.9227
 6311TIP3   OH240491   5.643   1.680   2.987  0.1692 -0.4921 -0.1643
 6311TIP3    H140492   5.557   1.718   3.005 -0.1766 -1.7283  0.9216
 6311TIP3    H240493   5.624   1.591   2.957  1.0775 -0.9620  0.6002
 6312TIP3   OH240494   1.262   5.729   1.046 -0.3255 -0.2515 -0.0719
 6312TIP3    H140495   1.253   5.646   0.999 -1.2199 -0.3028  0.1732
 6312TIP3    H240496   1.175   5.768   1.043 -0.2141  0.0990  0.8858
 6313TIP3   OH240497   3.640   5.091   7.597  0.1403 -0.0341 -0.2725
 6313TIP3    H140498   3.664   5.180   7.573 -2.4833  0.6827 -0.5603
 6313TIP3    H240499   3.674   5.079   7.686  0.9566  1.0571 -0.4274
 6314TIP3   OH240500   5.521   4.928   3.291  0.0342 -0.0343 -0.2346
 6314TIP3    H140501   5.593   4.876   3.328  0.8500  1.9348  1.1792
 6314TIP3    H240502   5.555   4.959   3.207 -0.5587 -1.9116 -1.2079
 6315TIP3   OH240503   2.745   1.635   2.216 -0.1729 -0.3266  0.2879
 6315TIP3    H140504   2.671   1.641   2.156  0.2078 -1.1410 -0.2719
 6315TIP3    H240505   2.798   1.712   2.197 -0.9808  0.4035  0.8686
 6316TIP3   OH240506   5.783   2.524   9.124  0.0315  0.2725  0.0592
 6316TIP3    H140507   5.769   2.600   9.068 -1.7233  1.0373  1.4594
 6316TIP3    H240508   5.835   2.556   9.197  0.4024 -0.1861  0.0020
 6317TIP3   OH240509   0.761   5.108   2.098 -0.2881  0.6901  0.0506
 6317TIP3    H140510   0.817   5.051   2.151 -3.1228 -1.3278  1.0985
 6317TIP3    H240511   0.804   5.109   2.012  1.4472 -0.5482  0.8323
 6318TIP3   OH240512   3.233   4.778   8.094 -0.2466 -0.0145 -0.2614
 6318TIP3    H140513   3.142   4.749   8.093 -0.6186  1.1201 -1.0976
 6318TIP3    H240514   3.258   4.784   8.002 -0.4840  3.0592 -0.2328
 6319TIP3   OH240515   6.340   0.956   2.380 -0.7683  0.2893 -0.0660
 6319TIP3    H140516   6.362   0.866   2.404  0.9446  0.3090 -1.4106
 6319TIP3    H240517   6.309   0.949   2.290 -1.4933  0.9517  0.1255
 6320TIP3   OH240518   5.532   0.285   2.307  0.2615  0.3126  0.0694
 6320TIP3    H140519   5.600   0.305   2.371  0.4542  4.0542 -1.0540
 6320TIP3    H240520   5.481   0.367   2.300  0.6402  0.4336 -4.9289
 6321TIP3   OH240521   3.911   0.287   0.297 -0.4448 -0.2569 -0.0875
 6321TIP3    H140522   3.895   0.380   0.311 -0.2420 -0.1859 -0.3167
 6321TIP3    H240523   3.871   0.244   0.372 -1.7237 -0.0899 -0.6570
 6322TIP3   OH240524   4.585   6.335   1.906  0.4957 -0.0314  0.1205
 6322TIP3    H140525   4.653   6.331   1.973  0.7325  0.5444 -0.0854
 6322TIP3    H240526   4.514   6.280   1.941  0.5893  0.3192  0.8753
 6323TIP3   OH240527   0.978   4.480   0.513 -0.0880  0.3963 -0.1124
 6323TIP3    H140528   0.937   4.396   0.489  0.6928 -0.2936  0.8480
 6323TIP3    H240529   0.907   4.530   0.554 -0.2555 -0.3558  0.5525
 6324TIP3   OH240530   1.695   2.987   2.757 -0.0916 -0.1977  0.5180
 6324TIP3    H140531   1.678   3.031   2.840 -0.7208 -1.5188  1.1263
 6324TIP3    H240532   1.628   3.019   2.697 -0.2349  0.0296  0.8033
 6325TIP3   OH240533   0.268   4.090   9.206  0.2654  0.3731  0.1940
 6325TIP3    H140534   0.320   4.122   9.280 -0.0306  0.2262  0.4691
 6325TIP3    H240535   0.311   4.008   9.182 -1.0757 -0.8934  1.8262
 6326TIP3   OH240536   4.411   3.812   1.772 -0.0745  0.9183 -0.3163
 6326TIP3    H140537   4.445   3.875   1.836 -0.5858 -0.3060  1.2459
 6326TIP3    H240538   4.323   3.791   1.804  0.2201 -0.8572 -0.5427
 6327TIP3   OH240539   4.306   5.657   2.220 -0.6543  0.3086 -0.3488
 6327TIP3    H140540   4.363   5.673   2.294 -0.4326 -1.1219 -0.1739
 6327TIP3    H240541   4.276   5.744   2.192  1.0692  1.0265 -0.0407
 6328TIP3   OH240542   2.803   4.542   8.827  0.3831 -0.0911  0.1949
 6328TIP3    H140543   2.730   4.580   8.877  0.2481  1.3357 -1.0033
 6328TIP3    H240544   2.882   4.576   8.869  0.3025 -0.0647  0.3241
 6329TIP3   OH240545   1.876   5.677   1.800 -0.9252 -0.8527 -0.3354
 6329TIP3    H140546   1.970   5.667   1.811 -0.8057  1.1026  0.9508
 6329TIP3    H240547   1.838   5.645   1.882 -1.1413  0.6184  0.1864
 6330TIP3   OH240548   5.053   1.190   7.268 -0.3535 -0.1454 -0.0124
 6330TIP3    H140549   5.089   1.246   7.199 -0.6059  0.4783  0.3564
 6330TIP3    H240550   5.113   1.115   7.271  0.4200  0.4611 -0.0014
 6331TIP3   OH240551   1.607   4.542   1.259  0.3415 -0.1634  0.0050
 6331TIP3    H140552   1.590   4.635   1.250  2.4660  0.2121 -0.6179
 6331TIP3    H240553   1.528   4.507   1.299 -0.7208  1.7994 -0.2739
 6332TIP3   OH240554   3.250   5.042   8.102  0.1810 -0.7007  0.4819
 6332TIP3    H140555   3.234   5.025   8.009  0.4427  0.3730  0.2289
 6332TIP3    H240556   3.229   4.959   8.145  1.6292 -1.7459 -0.7117
 6333TIP3   OH240557   1.368   5.053   0.318  0.2754  0.2941  0.0226
 6333TIP3    H140558   1.427   4.991   0.360  1.0551  1.0207  0.0211
 6333TIP3    H240559   1.287   5.004   0.304 -0.1175  0.0949  2.6148
 6334TIP3   OH240560   4.365   4.183   2.958 -0.7165 -0.4195 -0.2138
 6334TIP3    H140561   4.367   4.262   3.012  0.5771 -0.2092 -0.5414
 6334TIP3    H240562   4.421   4.121   3.005  0.9100 -0.0425 -1.5349
 6335TIP3   OH240563   5.730   6.458   8.796 -0.6411 -0.2751 -0.3885
 6335TIP3    H140564   5.778   6.376   8.792 -0.8476 -0.6140  2.2754
 6335TIP3    H240565   5.720   6.485   8.705  3.3308 -0.8939 -1.1940
 6336TIP3   OH240566   6.288   5.246   7.771 -0.0528  0.0657  0.2778
 6336TIP3    H140567   6.228   5.184   7.729 -0.4733  1.3856 -1.1690
 6336TIP3    H240568   6.375   5.206   7.761 -0.5531 -1.4649  1.6504
 6337TIP3   OH240569   3.268   4.396   2.965 -0.2833  0.0822 -0.2451
 6337TIP3    H140570   3.178   4.366   2.949 -0.5387  0.2843  0.7516
 6337TIP3    H240571   3.292   4.442   2.885 -1.8868  2.0028  0.2980
 6338TIP3   OH240572   5.115   0.816   0.737  0.0526 -0.2190 -0.1596
 6338TIP3    H140573   5.091   0.802   0.645 -0.0906 -1.4082  0.0475
 6338TIP3    H240574   5.148   0.906   0.739 -0.6687  0.0947 -1.2222
 6339TIP3   OH240575   4.739   0.084   8.579  0.3517  0.0541  0.0120
 6339TIP3    H140576   4.758   0.070   8.486 -2.2694  1.1158 -0.7954
 6339TIP3    H240577   4.688   0.007   8.604  1.6177 -0.5455  0.7788
 6340TIP3   OH240578   6.406   2.200   7.355 -0.2530 -0.1635  0.4975
 6340TIP3    H140579   6.391   2.158   7.440  0.9957 -0.5803  0.5224
 6340TIP3    H240580   6.318   2.226   7.326 -0.9588 -2.0437  0.8442
 6341TIP3   OH240581   1.668   5.075   1.615  0.2436  0.0604  0.2998
 6341TIP3    H140582   1.682   5.146   1.552  0.4209  0.7421  1.0969
 6341TIP3    H240583   1.576   5.083   1.641  0.8306  1.4657  2.1144
 6342TIP3   OH240584   6.271   2.681   2.574 -0.0402 -0.1953 -0.5244
 6342TIP3    H140585   6.274   2.732   2.494  0.2557  0.0392 -0.3667
 6342TIP3    H240586   6.353   2.702   2.620 -1.1944  1.4130  0.9058
 6343TIP3   OH240587   4.098   5.297   1.935  0.0886 -0.2114 -0.5316
 6343TIP3    H140588   4.115   5.386   1.967 -1.4262  0.9209 -2.6406
 6343TIP3    H240589   4.087   5.245   2.015 -1.3448  2.0084  0.8144
 6344TIP3   OH240590   1.921   3.259   1.602 -0.7316  0.0464  0.1923
 6344TIP3    H140591   1.844   3.312   1.625 -2.7660 -1.3664 -2.6754
 6344TIP3    H240592   1.899   3.171   1.633  1.5554  0.2436  2.7669
 6345TIP3   OH240593   4.992   3.005   8.442 -0.0743  0.1729 -0.3899
 6345TIP3    H140594   5.004   3.077   8.380 -0.5837  2.3877  1.9258
 6345TIP3    H240595   5.066   2.947   8.426  1.3993  2.1646 -1.1451
 6346TIP3   OH240596   3.027   2.047   9.136  0.2820 -0.2584  0.0008
 6346TIP3    H140597   2.997   1.962   9.103  3.7096 -1.3825 -0.6633
 6346TIP3    H240598   3.039   2.100   9.058 -0.3883  0.3282  0.2894
 6347TIP3   OH240599   0.051   1.006   0.569 -0.0424  0.0791  0.5605
 6347TIP3    H140600   0.037   0.945   0.497 -1.9649 -1.4378  2.1189
 6347TIP3    H240601   0.099   0.956   0.634 -2.4706 -0.2221  2.2605
 6348TIP3   OH240602   1.913   0.422   0.460 -0.0600 -0.1358  0.4417
 6348TIP3    H140603   1.972   0.473   0.406  0.3570  0.6208  1.5734
 6348TIP3    H240604   1.964   0.403   0.539 -0.9299 -0.4839  0.9284
 6349TIP3   OH240605   5.423   1.200   8.530  0.5561  0.2017  0.3286
 6349TIP3    H140606   5.516   1.210   8.509  0.6301 -0.1081  0.5090
 6349TIP3    H240607   5.410   1.254   8.607  0.5465  0.3916  0.1942
 6350TIP3   OH240608   5.789   6.083   0.256 -0.2064  0.7281  0.0040
 6350TIP3    H140609   5.840   6.163   0.246 -1.2327  1.2490 -1.3168
 6350TIP3    H240610   5.740   6.075   0.175 -0.1886 -1.2246  0.1275
 6351TIP3   OH240611   1.470   3.145   0.814 -0.0298 -0.1540  0.5487
 6351TIP3    H140612   1.468   3.081   0.743 -0.5546 -0.5192  0.8813
 6351TIP3    H240613   1.516   3.102   0.885 -3.0297 -1.4395  1.9085
 6352TIP3   OH240614   1.541   1.136   1.726 -0.6400 -0.2527  0.0032
 6352TIP3    H140615   1.529   1.056   1.778 -0.9961 -1.5939 -2.0235
 6352TIP3    H240616   1.636   1.141   1.712 -0.7054 -1.0109 -0.8270
 6353TIP3   OH240617   4.963   4.004   0.759 -0.1423 -0.4233  0.3481
 6353TIP3    H140618   4.896   3.936   0.751  1.1841 -2.0158  2.1425
 6353TIP3    H240619   4.941   4.049   0.841 -1.1462  1.5622 -0.9304
 6354TIP3   OH240620   5.933   5.021   8.833 -0.2437  0.1180  0.1402
 6354TIP3    H140621   5.847   5.043   8.797  0.2781  1.1079 -0.5264
 6354TIP3    H240622   5.934   4.925   8.834 -0.6140  0.0639 -1.6725
 6355TIP3   OH240623   1.152   0.003   7.570 -0.0437 -0.0463  0.0380
 6355TIP3    H140624   1.134   0.097   7.563  2.5736  0.5275 -0.0640
 6355TIP3    H240625   1.068  -0.039   7.549 -1.0119  2.2237 -1.0329
 6356TIP3   OH240626   0.388   2.821   8.816 -0.3596 -0.1295  0.2071
 6356TIP3    H140627   0.339   2.804   8.735 -3.0447  0.1568  1.6648
 6356TIP3    H240628   0.426   2.736   8.839  1.9105  0.1087 -2.1150
 6357TIP3   OH240629   4.431   0.229   1.118  0.9536  0.1197 -0.5020
 6357TIP3    H140630   4.444   0.318   1.084  0.8152 -0.0186 -0.9112
 6357TIP3    H240631   4.336   0.222   1.130  0.8920 -0.2289 -1.1627
 6358TIP3   OH240632   5.437   1.190   8.919  0.7422 -0.2529  0.9590
 6358TIP3    H140633   5.383   1.195   8.998 -0.5922 -2.0003  0.2237
 6358TIP3    H240634   5.395   1.252   8.859  2.0782  1.4855  1.7349
 6359TIP3   OH240635   2.160   5.359   1.273  0.1886  0.4515  0.4679
 6359TIP3    H140636   2.164   5.399   1.186  1.2037  0.2212  0.3873
 6359TIP3    H240637   2.196   5.425   1.331  0.9432  0.0487  0.4782
 6360TIP3   OH240638   4.534   3.225   0.180 -0.3354  0.1398  0.0271
 6360TIP3    H140639   4.596   3.285   0.222  0.9731 -1.1995  0.1106
 6360TIP3    H240640   4.458   3.224   0.239 -0.2972  1.5142  0.1268
 6361TIP3   OH240641   5.490   2.414   2.378  0.5567 -0.4336 -0.5481
 6361TIP3    H140642   5.521   2.348   2.440 -0.9062  0.4870  1.2533
 6361TIP3    H240643   5.395   2.405   2.379  0.2501  2.2070  0.3767
 6362TIP3   OH240644   4.346   5.617   0.065 -0.2291 -0.0479  0.1073
 6362TIP3    H140645   4.305   5.597   0.149  0.2867 -0.1016  0.3496
 6362TIP3    H240646   4.375   5.532   0.032  0.7262  0.1242  0.4873
 6363TIP3   OH240647   5.519   0.161   7.922 -0.2368 -0.2791  0.8250
 6363TIP3    H140648   5.423   0.166   7.916 -0.2586 -1.4833 -0.7221
 6363TIP3    H240649   5.538   0.067   7.920  1.0465 -0.0598 -1.9058
 6364TIP3   OH240650   1.249   3.908   8.195  0.3549 -0.0531  0.1268
 6364TIP3    H140651   1.271   3.979   8.135 -2.6361  0.7007 -0.2413
 6364TIP3    H240652   1.223   3.836   8.138  0.3199 -0.3398  0.5047
 6365TIP3   OH240653   3.979   1.618   2.742 -0.3459 -0.1218  0.0753
 6365TIP3    H140654   4.049   1.675   2.774 -0.8475  0.5438  0.0161
 6365TIP3    H240655   3.948   1.662   2.662 -1.5571  0.1784  0.6906
 6366TIP3   OH240656   5.465   0.450   8.942 -0.3434  0.0044  1.0844
 6366TIP3    H140657   5.515   0.462   8.862 -0.1431  2.1232  1.4592
 6366TIP3    H240658   5.512   0.381   8.989  0.0024 -0.6963 -0.2433
 6367TIP3   OH240659   3.234   5.416   2.513  0.2485 -0.4634  0.5521
 6367TIP3    H140660   3.273   5.379   2.593  0.1128 -0.9732  0.3894
 6367TIP3    H240661   3.305   5.463   2.471  0.5040 -0.7817  0.6240
 6368TIP3   OH240662   5.262   5.972   8.805 -0.0917 -0.8465  0.9681
 6368TIP3    H140663   5.289   5.892   8.850  0.3758 -0.6118  1.1122
 6368TIP3    H240664   5.211   5.942   8.730 -0.4711 -1.2552  1.3837
 6369TIP3   OH240665   6.418   2.151   0.113  0.1860  0.0006 -0.5945
 6369TIP3    H140666   6.474   2.176   0.187 -1.2521  1.9255 -0.0598
 6369TIP3    H240667   6.476   2.154   0.037  1.4622 -0.9910  0.3010
 6370TIP3   OH240668   0.882   1.744   7.740 -0.1933 -0.3679 -0.4187
 6370TIP3    H140669   0.974   1.743   7.765 -0.1646 -2.7297 -0.4182
 6370TIP3    H240670   0.881   1.710   7.650 -0.9535  1.2790 -1.0866
 6371TIP3   OH240671   2.593   5.334   1.422  0.2652 -0.1475 -0.0230
 6371TIP3    H140672   2.558   5.356   1.508 -0.5386 -1.3207 -0.0239
 6371TIP3    H240673   2.686   5.351   1.428  0.6847 -2.6144  1.9490
 6372TIP3   OH240674   1.119   3.222   8.379  0.5940  0.1775  0.6208
 6372TIP3    H140675   1.112   3.154   8.312 -0.3843 -1.0625  1.8917
 6372TIP3    H240676   1.042   3.278   8.366  0.4052 -0.0625  0.6890
 6373TIP3   OH240677   6.063   6.460   0.439 -0.6937 -0.3214  0.2275
 6373TIP3    H140678   6.009   6.399   0.388  0.3994  0.0196 -1.4410
 6373TIP3    H240679   6.079   6.416   0.522 -1.4694 -1.4969 -0.2346
 6374TIP3   OH240680   2.927   5.625   8.754 -0.2797  0.1842  0.0726
 6374TIP3    H140681   3.008   5.590   8.716 -1.1614 -0.8012 -0.9784
 6374TIP3    H240682   2.887   5.551   8.799 -0.8990  0.5022  0.0621
 6375TIP3   OH240683   4.471   0.264   0.734 -0.0374 -1.0093  0.2361
 6375TIP3    H140684   4.410   0.315   0.787 -0.8676 -2.0143  0.2841
 6375TIP3    H240685   4.543   0.243   0.793 -0.8466 -1.9262  0.9252
 6376TIP3   OH240686   1.090   4.182   7.352 -0.0887  0.4266  0.4397
 6376TIP3    H140687   1.166   4.152   7.302 -0.7044  0.4444 -0.5357
 6376TIP3    H240688   1.102   4.144   7.439  0.7109 -0.0963  0.1108
 6377TIP3   OH240689   4.392   6.122   2.300 -0.2053 -0.2127 -0.6993
 6377TIP3    H140690   4.350   6.057   2.244 -2.2684  0.6141 -0.1921
 6377TIP3    H240691   4.429   6.071   2.372 -0.2643 -0.9809 -1.1986
 6378TIP3   OH240692   0.046   5.621   2.934  0.1094 -0.0485  0.8802
 6378TIP3    H140693   0.078   5.691   2.877 -0.9614  0.8055  1.2843
 6378TIP3    H240694   0.112   5.552   2.928  0.5128  0.4292 -0.6107
 6379TIP3   OH240695   3.045   2.910   0.572  0.0211  0.6681  0.2955
 6379TIP3    H140696   2.999   2.905   0.488 -1.0523 -1.2324  0.9046
 6379TIP3    H240697   3.116   2.846   0.564  1.1202  1.8701  0.1989
 6380TIP3   OH240698   3.923   6.348   8.426 -0.2540  0.2186  0.2596
 6380TIP3    H140699   4.017   6.354   8.407 -0.3208 -2.8450 -1.5169
 6380TIP3    H240700   3.917   6.362   8.521  1.9849  0.4111  0.4211
 6381TIP3   OH240701   5.869   4.097   8.025 -0.4026  0.7154 -0.4426
 6381TIP3    H140702   5.900   4.042   7.952 -1.4250  1.3808 -1.4021
 6381TIP3    H240703   5.783   4.061   8.047 -0.0240  0.4096  0.5746
 6382TIP3   OH240704   0.793   3.678   1.827 -0.1430 -0.0698  0.2999
 6382TIP3    H140705   0.833   3.591   1.837 -0.5694 -0.1827  1.0491
 6382TIP3    H240706   0.861   3.730   1.783 -0.0247 -0.8813 -0.5291
 6383TIP3   OH240707   4.023   3.167   8.035  0.3779  0.2982 -0.0060
 6383TIP3    H140708   4.090   3.216   7.988 -1.4858  2.1490 -0.9066
 6383TIP3    H240709   3.981   3.114   7.968 -1.7609  2.3431 -0.4025
 6384TIP3   OH240710   5.038   5.072   8.985 -0.2378  0.5915 -0.6773
 6384TIP3    H140711   5.001   5.114   9.063  2.8416  0.4913  1.0296
 6384TIP3    H240712   4.967   5.022   8.948 -1.7315  0.1404  2.4671
 6385TIP3   OH240713   5.157   0.193   1.802  0.5793  0.3185  0.3537
 6385TIP3    H140714   5.181   0.210   1.893  2.0718  1.1416 -0.1623
 6385TIP3    H240715   5.083   0.251   1.786  1.6298  1.7307  0.4637
 6386TIP3   OH240716   6.559   4.826   1.481  0.4883 -0.1738  0.7523
 6386TIP3    H140717   6.590   4.748   1.528  0.8819  0.3301  1.3415
 6386TIP3    H240718   6.637   4.878   1.466  0.4586 -0.5722 -0.9731
 6387TIP3   OH240719   6.294   3.688   8.844 -0.5958  0.2736 -0.2583
 6387TIP3    H140720   6.266   3.596   8.844 -1.6052  0.4264  3.0689
 6387TIP3    H240721   6.234   3.732   8.784 -0.9864 -1.0044 -0.8416
 6388TIP3   OH240722   3.464   1.881   8.281 -0.3070  0.7896  0.7355
 6388TIP3    H140723   3.409   1.805   8.262  0.8181  0.7000 -2.7717
 6388TIP3    H240724   3.553   1.849   8.273  0.2208  2.6589 -2.3166
 6389TIP3   OH240725   0.602   4.830   2.581 -0.1533  0.7089  0.4539
 6389TIP3    H140726   0.607   4.913   2.627  0.9440 -0.4184  2.5175
 6389TIP3    H240727   0.509   4.817   2.563 -0.2407  2.9073 -1.0708
 6390TIP3   OH240728   3.914   6.304   1.754 -0.4433  0.4351 -0.1846
 6390TIP3    H140729   3.875   6.358   1.685 -0.9596 -0.6514 -0.7857
 6390TIP3    H240730   3.917   6.216   1.715 -0.0123 -0.0439  0.9086
 6391TIP3   OH240731   5.908   1.089   7.382  0.5687 -0.5744  0.4868
 6391TIP3    H140732   5.836   1.148   7.404  0.3949 -0.5849 -0.0370
 6391TIP3    H240733   5.885   1.006   7.422 -0.1657 -0.8342 -0.4441
 6392TIP3   OH240734   5.825   1.510   1.940  0.2707  0.3796 -0.2998
 6392TIP3    H140735   5.831   1.583   2.002 -1.1740  0.3257 -0.0728
 6392TIP3    H240736   5.900   1.454   1.963  0.1250  0.6771  0.9957
 6393TIP3   OH240737   3.064   3.425   0.248 -0.2489 -0.5073 -0.3073
 6393TIP3    H140738   3.082   3.518   0.237 -1.0501 -0.4058 -0.8140
 6393TIP3    H240739   3.146   3.388   0.281  0.0673  0.3755 -0.0887
 6394TIP3   OH240740   1.795   0.677   0.585  0.2719  0.0099  0.2974
 6394TIP3    H140741   1.880   0.694   0.625  1.6428 -1.2742 -1.9051
 6394TIP3    H240742   1.789   0.581   0.581 -0.2408  0.0925 -1.6239
 6395TIP3   OH240743   4.849   2.856   8.879 -0.0319 -0.0507 -0.0070
 6395TIP3    H140744   4.893   2.771   8.883 -1.2530 -0.6519  1.3911
 6395TIP3    H240745   4.760   2.839   8.908 -1.3011  1.1150 -2.8451
 6396TIP3   OH240746   1.320   3.678   0.178  0.3603 -0.2857  0.3297
 6396TIP3    H140747   1.278   3.623   0.112  1.2195 -0.7058  0.1167
 6396TIP3    H240748   1.309   3.628   0.260  2.4586 -1.5657 -0.1034
 6397TIP3   OH240749   4.776   5.714   8.992  0.5640  0.0979 -0.1346
 6397TIP3    H140750   4.772   5.638   8.935  0.2871  0.3485 -0.4480
 6397TIP3    H240751   4.867   5.744   8.986  0.6077 -0.0506 -0.2144
 6398TIP3   OH240752   5.479   4.984   0.224 -0.4254  0.1649 -0.9151
 6398TIP3    H140753   5.536   4.978   0.301 -1.1158  0.3330 -0.3759
 6398TIP3    H240754   5.539   4.997   0.151  0.1564  2.9417 -0.0868
 6399TIP3   OH240755   3.331   4.672   1.035  0.2755 -0.1670  0.1740
 6399TIP3    H140756   3.256   4.624   1.001  0.4619  0.1786 -0.7660
 6399TIP3    H240757   3.407   4.619   1.008  0.5613  1.1566 -1.8776
 6400TIP3   OH240758   3.312   1.900   2.729 -0.1892  0.3568 -0.2565
 6400TIP3    H140759   3.363   1.856   2.796 -0.4151  1.1300  0.4407
 6400TIP3    H240760   3.296   1.833   2.663  1.6142  0.0581 -0.4518
 6401TIP3   OH240761   2.723   4.583   2.337  0.1075  0.0770 -0.2150
 6401TIP3    H140762   2.741   4.667   2.378 -0.7075 -0.8818  2.2796
 6401TIP3    H240763   2.634   4.562   2.362  1.4328 -3.1839  2.5631
 6402TIP3   OH240764   3.893   3.040   8.268  0.6461  0.2327  0.0142
 6402TIP3    H140765   3.943   2.966   8.303  1.8475  0.9295 -0.1908
 6402TIP3    H240766   3.922   3.048   8.177 -0.8439 -0.1904 -0.5264
 6403TIP3   OH240767   6.572   0.322   8.845  0.6960 -0.2272 -0.1706
 6403TIP3    H140768   6.649   0.349   8.796  0.7106  0.7242  0.3480
 6403TIP3    H240769   6.561   0.389   8.912  0.6954 -1.4930  1.1616
 6404TIP3   OH240770   1.457   4.480   9.289 -0.0003 -0.2256  0.4328
 6404TIP3    H140771   1.468   4.574   9.306  1.1793 -0.2940  0.1245
 6404TIP3    H240772   1.502   4.437   9.362 -2.4261 -0.6045  1.7896
 6405TIP3   OH240773   3.833   6.276   8.837 -0.4226 -0.0512  0.2381
 6405TIP3    H140774   3.883   6.334   8.780 -1.2767  0.3811 -0.0948
 6405TIP3    H240775   3.861   6.299   8.925  2.8037 -2.4490  0.0144
 6406TIP3   OH240776   3.407   0.478   1.980  0.6286 -0.1107  0.4304
 6406TIP3    H140777   3.422   0.493   1.886  0.3765  1.2259  0.5794
 6406TIP3    H240778   3.369   0.560   2.011 -0.2657 -0.8985  1.5044
 6407TIP3   OH240779   4.327   1.167   2.253 -0.4128  0.4483  0.5507
 6407TIP3    H140780   4.333   1.138   2.344  0.5784 -1.0158  0.0507
 6407TIP3    H240781   4.359   1.257   2.254  1.9658 -0.3282  1.3089
 6408TIP3   OH240782   1.655   5.732   1.079  0.2953  0.2473  0.0834
 6408TIP3    H140783   1.713   5.808   1.079 -0.4722  0.8656 -1.4010
 6408TIP3    H240784   1.632   5.719   1.172  0.6133  1.6691  0.3788
 6409TIP3   OH240785   5.025   5.389   8.288  0.3241 -0.2890 -0.4102
 6409TIP3    H140786   4.992   5.459   8.231 -1.7045 -1.5565 -0.8895
 6409TIP3    H240787   5.098   5.351   8.239  0.9292  0.9396 -0.5058
 6410TIP3   OH240788   3.679   3.280   2.260  0.0676  0.6489  0.1089
 6410TIP3    H140789   3.644   3.354   2.310 -0.2849  0.3955  0.2449
 6410TIP3    H240790   3.764   3.310   2.229  0.1688  0.9148  0.6243
 6411TIP3   OH240791   2.405   5.178   8.998 -0.0069  0.5809 -0.0875
 6411TIP3    H140792   2.428   5.267   9.025 -0.4292  0.4625  0.7097
 6411TIP3    H240793   2.318   5.163   9.037  0.3155 -0.3901  0.2956
 6412TIP3   OH240794   3.845   6.518   2.449  0.0732  0.2637  0.4477
 6412TIP3    H140795   3.847   6.530   2.354 -0.6687  0.6254  0.4727
 6412TIP3    H240796   3.753   6.507   2.470  0.2883 -0.5580  1.0445
 6413TIP3   OH240797   0.231   3.584   1.889  0.3849  0.9872 -0.1490
 6413TIP3    H140798   0.267   3.576   1.801  1.0046  0.3867  0.1460
 6413TIP3    H240799   0.234   3.677   1.909 -0.7842  1.2626 -1.1743
 6414TIP3   OH240800   5.104   5.012   7.999 -0.1539  0.0619 -0.7405
 6414TIP3    H140801   5.031   4.960   8.034  0.8885 -1.0511 -0.1497
 6414TIP3    H240802   5.081   5.027   7.907 -0.5295 -1.3789 -0.8969
 6415TIP3   OH240803   1.153   1.723   2.224  0.3903 -0.6525 -0.1805
 6415TIP3    H140804   1.061   1.700   2.213 -0.2383  0.8631  1.4977
 6415TIP3    H240805   1.152   1.816   2.245  2.3774 -0.4541 -0.7891
 6416TIP3   OH240806   4.539   4.022   8.560  0.6000  0.1207 -0.4848
 6416TIP3    H140807   4.458   3.973   8.546 -0.5293  1.5195  0.7749
 6416TIP3    H240808   4.554   4.017   8.654  0.2947  2.3237 -0.2577
 6417TIP3   OH240809   4.221   6.592   7.210 -0.2000  0.3228  0.5412
 6417TIP3    H140810   4.237   6.642   7.291  1.3795 -0.6451  0.8757
 6417TIP3    H240811   4.177   6.512   7.239  1.5994 -0.6678  0.6767
 6418TIP3   OH240812   0.168   6.138   8.163 -0.1642  0.1134 -0.1497
 6418TIP3    H140813   0.161   6.092   8.247  0.3301 -1.6578 -1.0487
 6418TIP3    H240814   0.097   6.203   8.166  1.3029  1.7782  2.6067
 6419TIP3   OH240815   4.257   2.827   7.382 -0.4166 -0.3214  0.4809
 6419TIP3    H140816   4.288   2.751   7.432  0.5224  0.5594  1.3063
 6419TIP3    H240817   4.290   2.813   7.294 -0.7271 -1.1321  0.4860
 6420TIP3   OH240818   5.440   5.291   7.941 -0.5415 -0.0967 -0.0998
 6420TIP3    H140819   5.365   5.344   7.913 -1.6470 -1.8384 -0.5992
 6420TIP3    H240820   5.467   5.244   7.862  0.2142 -0.5287  0.4057
 6421TIP3   OH240821   5.625   3.571   3.202  0.3484 -0.0922  0.1886
 6421TIP3    H140822   5.607   3.660   3.233 -2.7633 -0.9319  1.1293
 6421TIP3    H240823   5.669   3.583   3.118  0.8298  2.2995  0.7047
 6422TIP3   OH240824   3.673   0.150   1.409  0.1152  0.0210  0.7467
 6422TIP3    H140825   3.640   0.128   1.322  0.0041 -0.8172  0.9872
 6422TIP3    H240826   3.692   0.243   1.405 -2.6930  0.6666  0.7218
 6423TIP3   OH240827   4.874   1.906   3.110  0.3842  0.6288 -0.0380
 6423TIP3    H140828   4.950   1.884   3.164  0.5787  0.4754 -0.3721
 6423TIP3    H240829   4.874   2.002   3.107  0.6097  0.6281 -0.0944
 6424TIP3   OH240830   4.241   3.929   8.557  0.2957 -0.1558 -0.2697
 6424TIP3    H140831   4.153   3.937   8.519 -0.5800  0.3613  1.7736
 6424TIP3    H240832   4.247   3.838   8.584 -0.8923  0.4647  2.3961
 6425TIP3   OH240833   2.594   5.266   0.302 -0.3974 -0.2994  0.0905
 6425TIP3    H140834   2.683   5.301   0.295 -0.2689 -0.5621  0.3560
 6425TIP3    H240835   2.545   5.311   0.233 -0.5713  1.3800  1.2552
 6426TIP3   OH240836   4.901   3.350   8.779  0.4274 -0.1679 -0.5513
 6426TIP3    H140837   4.897   3.382   8.689 -1.6646 -2.6683 -1.4939
 6426TIP3    H240838   4.928   3.259   8.770  0.2701 -0.4386  1.3632
 6427TIP3   OH240839   6.431   5.205   7.427  0.1463 -0.1146 -0.8189
 6427TIP3    H140840   6.462   5.190   7.517 -0.1239  1.5934 -0.4082
 6427TIP3    H240841   6.338   5.183   7.430 -0.1875  1.2587 -0.2917
 6428TIP3   OH240842   1.716   3.942   7.163 -0.1644 -0.5079 -0.1499
 6428TIP3    H140843   1.731   3.848   7.155 -0.6466 -0.7794  1.7016
 6428TIP3    H240844   1.792   3.982   7.121  1.6071 -1.7809  1.6490
 6429TIP3   OH240845   5.437   1.223   0.551 -0.1921  0.3684  0.1208
 6429TIP3    H140846   5.436   1.297   0.611  1.0689 -0.2568  0.9534
 6429TIP3    H240847   5.517   1.235   0.500  0.3169 -0.7035  0.6444
 6430TIP3   OH240848   0.797   6.253   7.990 -0.3561  1.4344  0.7139
 6430TIP3    H140849   0.882   6.281   8.025  0.3704  0.3723 -0.1286
 6430TIP3    H240850   0.812   6.242   7.896 -1.5409  1.6285  0.4878
 6431TIP3   OH240851   6.495   0.768   8.851  0.0754 -0.5004 -0.1019
 6431TIP3    H140852   6.418   0.816   8.820  1.2932  0.1496 -2.3399
 6431TIP3    H240853   6.529   0.822   8.923  0.5115  1.2269 -1.5319
 6432TIP3   OH240854   0.238   1.272   2.060  0.2918  0.1584 -0.1481
 6432TIP3    H140855   0.231   1.220   2.140 -1.5789 -0.2020 -0.4979
 6432TIP3    H240856   0.156   1.321   2.057 -0.5633 -1.2545 -2.7924
 6433TIP3   OH240857   0.667   0.308   8.966  0.3250 -0.2015  0.2246
 6433TIP3    H140858   0.688   0.220   8.933  0.6873 -0.5743  1.4201
 6433TIP3    H240859   0.711   0.314   9.050 -1.1588  0.4663  0.9908
 6434TIP3   OH240860   4.464   5.622   8.630  0.3763 -0.3797  0.2664
 6434TIP3    H140861   4.414   5.631   8.548 -1.8017 -0.7851  1.4729
 6434TIP3    H240862   4.531   5.556   8.609  0.5719  0.2967 -1.4661
 6435TIP3   OH240863   4.165   5.483   0.563  0.5879  0.9287 -0.0139
 6435TIP3    H140864   4.134   5.493   0.473 -1.6871 -0.7870  0.4855
 6435TIP3    H240865   4.249   5.437   0.554 -1.1299 -2.3192 -1.2773
 6436TIP3   OH240866   1.385   5.614   2.791  0.2204 -0.4204 -0.0706
 6436TIP3    H140867   1.465   5.587   2.835  0.8823 -1.3612 -1.7350
 6436TIP3    H240868   1.315   5.576   2.843  0.9703 -1.5469  0.1463
 6437TIP3   OH240869   2.553   3.379   0.217  0.0901  0.0012 -0.0818
 6437TIP3    H140870   2.640   3.377   0.259 -0.0757  0.0335  0.2699
 6437TIP3    H240871   2.510   3.455   0.255 -0.4237 -0.5315  0.4258
 6438TIP3   OH240872   6.321   2.160   1.956 -0.2454 -0.0540 -0.2492
 6438TIP3    H140873   6.414   2.176   1.938 -0.1215  0.7888  1.0273
 6438TIP3    H240874   6.284   2.136   1.871  0.6127  2.2361 -1.3448
 6439TIP3   OH240875   6.302   5.160   1.148  0.1502  0.1891  0.4507
 6439TIP3    H140876   6.243   5.155   1.224 -0.2738  1.5462  0.2285
 6439TIP3    H240877   6.340   5.248   1.153 -0.6213  0.6655 -1.4547
 6440TIP3   OH240878   1.538   6.128   0.544 -0.1822 -0.3841 -0.0601
 6440TIP3    H140879   1.551   6.202   0.603  0.5840 -0.6914  0.1624
 6440TIP3    H240880   1.553   6.051   0.599 -2.3210 -0.7704  0.0739
 6441TIP3   OH240881   5.022   0.869   8.765 -0.4580 -0.1228 -0.2752
 6441TIP3    H140882   4.951   0.897   8.822 -1.3422 -0.6420 -1.0871
 6441TIP3    H240883   5.014   0.773   8.761 -1.4395 -0.0281 -2.4743
 6442TIP3   OH240884   2.106   0.575   2.105 -0.2041 -0.1371 -0.1448
 6442TIP3    H140885   2.035   0.531   2.058  1.2860 -2.1081 -0.6841
 6442TIP3    H240886   2.082   0.668   2.103 -3.7248 -0.8472  1.4307
 6443TIP3   OH240887   2.034   3.204   0.425  0.6375 -0.4054  0.0565
 6443TIP3    H140888   2.126   3.203   0.451  0.9408 -0.4811 -0.9590
 6443TIP3    H240889   2.020   3.291   0.389 -0.0526  0.0563  1.3773
 6444TIP3   OH240890   6.315   1.313   8.450 -0.5005  0.5181 -0.0967
 6444TIP3    H140891   6.354   1.373   8.386 -0.7802  1.5562  0.6909
 6444TIP3    H240892   6.231   1.353   8.473 -0.9279 -0.4450  0.0530
 6445TIP3   OH240893   5.285   1.210   9.136  0.1929 -0.0666 -0.0603
 6445TIP3    H140894   5.316   1.297   9.160  0.6162 -0.3152  0.3182
 6445TIP3    H240895   5.196   1.205   9.170 -0.3162  0.6835 -1.2194
 6446TIP3   OH240896   3.892   4.005   0.181 -0.1222  0.1105  0.0133
 6446TIP3    H140897   3.878   4.011   0.087  0.8008 -1.9819 -0.3041
 6446TIP3    H240898   3.977   4.045   0.196 -0.4050  0.7269  0.0371
 6447TIP3   OH240899   5.943   2.057   7.189  0.1842 -0.2810  0.2407
 6447TIP3    H140900   6.035   2.032   7.198  0.3212  0.1993  0.1835
 6447TIP3    H240901   5.941   2.150   7.214 -0.1760 -0.1149 -0.3955
 6448TIP3   OH240902   5.604   3.957   0.209 -0.1642  0.0100 -0.1494
 6448TIP3    H140903   5.684   3.941   0.160  0.8864  0.4564  1.3488
 6448TIP3    H240904   5.597   3.883   0.269 -0.6320  0.2060  0.0470
 6449TIP3   OH240905   4.359   0.549   0.589  0.0215  0.0629  0.0704
 6449TIP3    H140906   4.453   0.531   0.584 -0.1416 -0.8502  0.0773
 6449TIP3    H240907   4.323   0.474   0.637 -0.8415 -0.0718 -0.7648
 6450TIP3   OH240908   3.917   4.888   2.278  0.3685  0.5170 -0.1939
 6450TIP3    H140909   3.860   4.916   2.350 -0.9127  0.9955 -1.3402
 6450TIP3    H240910   3.932   4.968   2.228  0.9265  0.1238 -0.6641
 6451TIP3   OH240911   5.416   4.933   1.058  0.2597  0.2343 -0.4037
 6451TIP3    H140912   5.477   4.940   0.985  0.5292  0.1386 -0.1893
 6451TIP3    H240913   5.334   4.968   1.024  0.2593 -0.2367 -0.8980
 6452TIP3   OH240914   0.091   0.842   0.307 -0.5881 -0.3026  0.1930
 6452TIP3    H140915   0.148   0.903   0.260  0.9216 -0.9521  1.0973
 6452TIP3    H240916   0.152   0.783   0.353 -1.9779 -0.1773  2.3352
 6453TIP3   OH240917   2.493   3.081   1.844  0.1521  0.2724  0.1227
 6453TIP3    H140918   2.581   3.072   1.880  0.4870  0.7182 -0.5819
 6453TIP3    H240919   2.459   2.991   1.842 -0.2309  0.2930  2.3831
 6454TIP3   OH240920   0.479   2.093   8.904  0.1745  0.4018  0.2224
 6454TIP3    H140921   0.402   2.037   8.917 -0.1754  0.0644 -2.7416
 6454TIP3    H240922   0.532   2.046   8.840  0.2701  3.0195 -1.7604
 6455TIP3   OH240923   2.409   0.602   1.415 -0.2590 -0.9157 -0.1561
 6455TIP3    H140924   2.431   0.549   1.339  0.4462  0.2108 -0.7621
 6455TIP3    H240925   2.325   0.643   1.393  0.3381  0.0494 -0.6920
 6456TIP3   OH240926   0.024   2.719   7.940  0.9535  0.1314 -0.0171
 6456TIP3    H140927   0.097   2.692   7.885 -1.1422 -1.0629 -2.4158
 6456TIP3    H240928  -0.033   2.769   7.882  0.0378  1.4458  1.8939
 6457TIP3   OH240929   4.641   1.527   1.992  0.1517  0.5369  0.5227
 6457TIP3    H140930   4.675   1.510   1.904 -0.0652 -1.1904  0.7362
 6457TIP3    H240931   4.551   1.494   1.990  0.3818 -0.2111  1.5783
 6458TIP3   OH240932   1.526   5.698   7.743  0.5368 -0.0727  0.3661
 6458TIP3    H140933   1.456   5.762   7.757  0.5613 -0.3622  2.0494
 6458TIP3    H240934   1.481   5.622   7.705  0.3052  0.4854 -0.5081
 6459TIP3   OH240935   2.986   5.214   0.879  0.2598  0.3729 -0.1626
 6459TIP3    H140936   2.991   5.140   0.940  2.4992  0.7545  0.2008
 6459TIP3    H240937   3.038   5.186   0.804  0.1665  1.1579 -0.5243
 6460TIP3   OH240938   6.288   5.741   0.744  0.2672  0.8617  0.2156
 6460TIP3    H140939   6.358   5.718   0.804 -0.7078  0.9943  1.4594
 6460TIP3    H240940   6.262   5.830   0.770 -2.4328 -0.2831  1.9808
 6461TIP3   OH240941   5.411   1.172   1.170 -0.3741 -0.2343 -0.4377
 6461TIP3    H140942   5.322   1.137   1.174 -0.0797 -1.1447 -1.4963
 6461TIP3    H240943   5.455   1.119   1.103  0.8665  0.4250 -0.1722
 6462TIP3   OH240944   1.561   4.083   7.513  0.0214 -0.0010  0.1717
 6462TIP3    H140945   1.515   4.139   7.574  0.5472 -0.8492  1.3858
 6462TIP3    H240946   1.553   3.995   7.550  3.1836 -0.1121  0.8471
 6463TIP3   OH240947   1.091   4.660   9.156 -0.5250 -0.2821  0.1635
 6463TIP3    H140948   1.169   4.640   9.104  1.1706  0.8914  2.1296
 6463TIP3    H240949   1.124   4.678   9.244 -3.0941 -0.3088  1.2251
 6464TIP3   OH240950   4.635   4.857   8.678  0.2529  0.5850  0.0590
 6464TIP3    H140951   4.594   4.771   8.690 -0.2421  0.9547  1.1481
 6464TIP3    H240952   4.726   4.838   8.659  0.5025 -0.1682  1.8462
 6465TIP3   OH240953   5.120   4.152   2.286 -0.7354 -0.5889 -0.7357
 6465TIP3    H140954   5.161   4.067   2.297  0.2687  0.0699  1.1440
 6465TIP3    H240955   5.162   4.208   2.352 -0.6176  1.6574 -2.5724
 6466TIP3   OH240956   6.618   3.951   8.717 -0.5142  0.0421  0.1379
 6466TIP3    H140957   6.543   3.986   8.765 -2.8373 -3.8154 -0.2353
 6466TIP3    H240958   6.682   3.929   8.784 -0.5574  1.4305  0.6629
 6467TIP3   OH240959   5.265   5.979   7.385  0.1151 -0.3400 -0.2829
 6467TIP3    H140960   5.178   5.990   7.423 -0.2146 -0.4118 -0.9877
 6467TIP3    H240961   5.255   5.906   7.323  0.5174  0.0595 -0.8301
 6468TIP3   OH240962   1.741   5.261   9.250  0.6207  0.2975 -0.1883
 6468TIP3    H140963   1.743   5.354   9.227 -1.6727  0.1593 -1.1932
 6468TIP3    H240964   1.648   5.237   9.247  0.9698 -1.6338  1.7649
 6469TIP3   OH240965   0.462   1.083   1.938 -0.3938 -0.4654  0.6035
 6469TIP3    H140966   0.484   1.083   2.032  0.6266 -1.1446  0.3769
 6469TIP3    H240967   0.383   1.029   1.933  0.5524 -1.9439  0.8790
 6470TIP3   OH240968   3.038   0.652   3.017 -0.3775 -0.6589  0.0132
 6470TIP3    H140969   3.124   0.694   3.013 -0.8940  0.4801  0.5333
 6470TIP3    H240970   3.034   0.616   3.105 -0.6913 -0.1380  0.2134
 6471TIP3   OH240971   0.558   0.822   8.536 -0.0527  0.2264  0.2492
 6471TIP3    H140972   0.583   0.900   8.585 -0.4302 -0.4966  1.6516
 6471TIP3    H240973   0.580   0.749   8.594 -1.4273 -0.6195 -0.2389
 6472TIP3   OH240974   5.391   1.633   8.895 -0.1521  0.2636  0.5555
 6472TIP3    H140975   5.376   1.544   8.926  1.5173 -0.6000 -0.9575
 6472TIP3    H240976   5.319   1.649   8.833 -0.9170  0.3104  1.4320
 6473TIP3   OH240977   3.124   4.220   2.458  0.1843  0.0597  0.2929
 6473TIP3    H140978   3.081   4.306   2.463  0.8793  0.4818 -0.6554
 6473TIP3    H240979   3.209   4.233   2.500  0.3387 -0.1376  0.0412
 6474TIP3   OH240980   4.721   2.851   0.823  0.1933  0.0975  0.8692
 6474TIP3    H140981   4.686   2.783   0.767  1.3487 -1.7027  2.2059
 6474TIP3    H240982   4.666   2.849   0.902  1.0468 -0.2345  1.4694
 6475TIP3   OH240983   3.555   4.563   7.933  0.2553 -0.0583 -0.0658
 6475TIP3    H140984   3.474   4.517   7.956 -0.7543  2.0481  0.9072
 6475TIP3    H240985   3.542   4.652   7.965  2.1894  0.8833 -1.6356
 6476TIP3   OH240986   6.049   0.649   1.642 -0.4147 -0.3575 -0.0300
 6476TIP3    H140987   6.105   0.592   1.695  0.2989  0.1965 -0.1828
 6476TIP3    H240988   5.966   0.602   1.637 -0.1671 -0.8996  0.7222
 6477TIP3   OH240989   5.111   3.607   7.856 -0.1350  0.0781  0.2341
 6477TIP3    H140990   5.024   3.641   7.836 -0.0270  0.8173  0.9981
 6477TIP3    H240991   5.142   3.659   7.929  1.3345  0.4506 -0.6032
 6478TIP3   OH240992   2.541   0.849   0.363 -0.4098 -0.9112  0.1114
 6478TIP3    H140993   2.614   0.899   0.325  0.3756 -1.5387  0.7522
 6478TIP3    H240994   2.474   0.915   0.380 -0.8506 -0.6252 -2.4327
 6479TIP3   OH240995   2.817   3.057   7.997 -0.1476 -0.9181  0.3403
 6479TIP3    H140996   2.790   3.038   8.086 -0.3382 -0.2689  0.4237
 6479TIP3    H240997   2.906   3.091   8.006 -0.9577  1.3108  0.5306
 6480TIP3   OH240998   2.871   1.391   1.036  0.0512 -0.2760  0.2480
 6480TIP3    H140999   2.924   1.469   1.057 -0.1295 -0.2991  0.8119
 6480TIP3    H241000   2.878   1.336   1.114 -1.0630 -0.1358  0.4611
 6481TIP3   OH241001   4.811   6.049   8.717 -0.5599  0.6661 -0.3062
 6481TIP3    H141002   4.747   5.978   8.717  1.1609 -1.1315 -3.1037
 6481TIP3    H241003   4.893   6.006   8.691  0.8947  3.4621 -0.6987
 6482TIP3   OH241004   5.611   2.821   2.548 -0.0819  0.1095  0.0514
 6482TIP3    H141005   5.587   2.780   2.631 -1.3603  0.3087 -0.2039
 6482TIP3    H241006   5.541   2.797   2.488  1.1830 -0.6507 -1.1933
 6483TIP3   OH241007   1.136   3.565   8.289 -0.0242 -0.9004 -0.0541
 6483TIP3    H141008   1.071   3.494   8.286 -1.3660  0.2650  0.6564
 6483TIP3    H241009   1.156   3.582   8.197 -1.3796 -0.6982 -0.3309
 6484TIP3   OH241010   3.572   1.667   1.360 -0.1416  0.0854 -0.5338
 6484TIP3    H141011   3.501   1.728   1.338  0.9219  1.4382 -0.2871
 6484TIP3    H241012   3.640   1.722   1.398  0.2880 -1.4621  1.0344
 6485TIP3   OH241013   5.536   2.274   0.846  0.6367 -0.4643 -0.7599
 6485TIP3    H141014   5.537   2.348   0.907  0.2222 -1.9439  1.1264
 6485TIP3    H241015   5.453   2.229   0.864  0.0317 -0.4362 -3.1136
 6486TIP3   OH241016   1.588   3.574   0.288  0.1524  0.6599  0.5386
 6486TIP3    H141017   1.522   3.577   0.219  1.1500 -1.2840 -0.6046
 6486TIP3    H241018   1.543   3.535   0.363  0.0992 -1.3312 -0.4527
 6487TIP3   OH241019   5.398   0.459   1.928 -0.1570 -0.2202  0.0528
 6487TIP3    H141020   5.435   0.544   1.953 -0.6158 -0.2338  0.7924
 6487TIP3    H241021   5.471   0.415   1.884  0.5606 -0.0257  0.9902
 6488TIP3   OH241022   6.553   1.479   1.515  0.1033  0.0549 -0.5513
 6488TIP3    H141023   6.490   1.442   1.576  1.6363 -1.2796  0.2787
 6488TIP3    H241024   6.515   1.462   1.429 -0.5036 -1.0673 -0.0853
 6489TIP3   OH241025   2.762   3.406   6.996  0.3662  0.3721  0.1660
 6489TIP3    H141026   2.819   3.480   7.014 -0.3177  0.5325  1.9137
 6489TIP3    H241027   2.777   3.346   7.069 -0.6008 -0.2558 -0.1289
 6490TIP3   OH241028   4.830   1.072   2.875 -0.3090 -0.1422 -0.2386
 6490TIP3    H141029   4.836   1.111   2.963 -1.4122 -0.4682 -0.0016
 6490TIP3    H241030   4.893   1.000   2.876 -0.2872 -0.1190  0.2775
 6491TIP3   OH241031   5.665   5.287   7.466 -0.5356  0.1723  0.0486
 6491TIP3    H141032   5.660   5.257   7.375 -2.7418  2.3840 -0.6663
 6491TIP3    H241033   5.578   5.271   7.501 -0.0764  0.5072  1.3904
 6492TIP3   OH241034   1.436   0.937   8.575  0.1804 -0.3371  0.0101
 6492TIP3    H141035   1.469   0.930   8.665  0.9938 -0.8885 -0.3200
 6492TIP3    H241036   1.341   0.938   8.584  0.2141 -1.8758  0.7872
 6493TIP3   OH241037   3.114   3.843   1.628  0.0372  0.2041  0.1909
 6493TIP3    H141038   3.053   3.787   1.675 -0.8387  1.3458  0.4459
 6493TIP3    H241039   3.186   3.785   1.605  0.0018 -0.6452  2.0002
 6494TIP3   OH241040   0.870   1.056   0.094  0.1981 -0.2185  0.4058
 6494TIP3    H141041   0.776   1.057   0.111  0.4013 -2.3729  2.0055
 6494TIP3    H241042   0.893   1.149   0.082 -1.8327  0.4987  1.6232
 6495TIP3   OH241043   3.037   1.459   9.187  0.0132  0.9401 -0.4351
 6495TIP3    H141044   3.093   1.448   9.110 -2.9788  0.7109 -2.7718
 6495TIP3    H241045   3.079   1.406   9.255  0.8462 -2.0602 -3.0395
 6496TIP3   OH241046   1.305   3.273   9.254  0.2119  0.2261 -0.1830
 6496TIP3    H141047   1.353   3.277   9.337  0.1192 -1.8513  0.0250
 6496TIP3    H241048   1.312   3.181   9.227  0.9119  1.0079 -2.9079
 6497TIP3   OH241049   3.581   4.575   7.618 -0.3260 -0.1090 -0.1282
 6497TIP3    H141050   3.592   4.663   7.583 -1.6623  0.4740  0.7967
 6497TIP3    H241051   3.489   4.554   7.600 -0.2392 -0.9740  0.4013
 6498TIP3   OH241052   3.360   2.023   1.657  0.1471 -0.1789 -0.2950
 6498TIP3    H141053   3.283   2.069   1.624 -0.8648  0.1774  2.2892
 6498TIP3    H241054   3.325   1.940   1.690  0.6409  0.3889  1.7935
 6499TIP3   OH241055   2.666   4.881   0.671 -0.1262  0.1756 -0.1481
 6499TIP3    H141056   2.718   4.833   0.607 -0.0002 -1.0668  0.8563
 6499TIP3    H241057   2.667   4.971   0.639 -0.4276 -0.4631 -2.1145
 6500TIP3   OH241058   3.886   1.845   1.164 -0.0431 -0.1026  0.2539
 6500TIP3    H141059   3.893   1.787   1.239 -0.1826 -0.8697 -0.3190
 6500TIP3    H241060   3.976   1.869   1.143 -0.0044  0.1084  0.6542
 6501TIP3   OH241061   6.555   2.077   9.177 -0.3608 -0.3691 -0.2425
 6501TIP3    H141062   6.642   2.115   9.188 -0.3114 -0.5213 -0.1100
 6501TIP3    H241063   6.523   2.112   9.093 -0.5958  0.5182  0.2100
 6502TIP3   OH241064   3.613   4.581   0.409 -0.2776  0.7028 -0.0639
 6502TIP3    H141065   3.547   4.648   0.423 -1.4067 -0.6360  1.3615
 6502TIP3    H241066   3.616   4.532   0.491  0.7092 -0.8087 -0.9484
 6503TIP3   OH241067   6.393   0.248   8.539 -0.2274 -0.9458 -0.4522
 6503TIP3    H141068   6.305   0.210   8.531 -1.0193  1.1120 -2.7731
 6503TIP3    H241069   6.399   0.275   8.631 -1.7285 -1.7865 -0.0784
 6504TIP3   OH241070   4.862   0.162   2.146  0.4372  0.5762  0.4085
 6504TIP3    H141071   4.801   0.233   2.168  0.0607 -0.0233  1.3649
 6504TIP3    H241072   4.935   0.175   2.206  0.1730 -0.0819  0.8890
 6505TIP3   OH241073   1.719   0.621   2.648  0.4555  0.4845 -0.1066
 6505TIP3    H141074   1.631   0.586   2.647  0.3490  0.6258 -2.4535
 6505TIP3    H241075   1.714   0.700   2.594  1.7657  1.2148  0.7676
 6506TIP3   OH241076   1.230   2.130   7.861  0.2349  0.0102  0.5656
 6506TIP3    H141077   1.253   2.218   7.834  0.0513  0.2960  1.3057
 6506TIP3    H241078   1.264   2.073   7.792 -2.5815  0.8509 -1.6925
 6507TIP3   OH241079   4.357   2.455   0.848  0.2673  0.4434 -0.3672
 6507TIP3    H141080   4.263   2.472   0.840  0.5649  2.1836 -0.4977
 6507TIP3    H241081   4.376   2.470   0.940  0.7904  2.3794 -0.7447
 6508TIP3   OH241082   5.797   4.564   8.960 -0.5887 -0.1358 -0.4015
 6508TIP3    H141083   5.831   4.491   9.012 -1.0549 -0.8056 -1.0286
 6508TIP3    H241084   5.703   4.562   8.975 -0.7408 -0.4009 -1.3520
 6509TIP3   OH241085   2.467   3.475   7.884  0.2575  0.1793 -0.4658
 6509TIP3    H141086   2.536   3.539   7.867 -0.2403  0.7077 -0.5372
 6509TIP3    H241087   2.453   3.430   7.801  0.9300 -0.3541 -0.2996
 6510TIP3   OH241088   1.500   1.744   0.991  0.0608  0.1365  0.2912
 6510TIP3    H141089   1.466   1.673   0.936  0.5445  0.6732 -0.7474
 6510TIP3    H241090   1.593   1.724   1.000 -0.1619 -0.3769  1.6253
 6511TIP3   OH241091   4.997   4.846   0.322  0.4501 -0.3671 -0.3411
 6511TIP3    H141092   5.006   4.805   0.408  0.8066 -1.0554 -0.6970
 6511TIP3    H241093   5.088   4.860   0.293  0.3296  0.3120 -0.3930
 6512TIP3   OH241094   4.091   0.178   8.509 -0.1348  0.1472  0.2833
 6512TIP3    H141095   4.037   0.127   8.449  0.4120 -1.2516  0.9459
 6512TIP3    H241096   4.038   0.188   8.588  0.3340 -0.7333  0.7211
 6513TIP3   OH241097   5.919   4.291   2.144  0.3482 -0.2810 -0.1054
 6513TIP3    H141098   5.918   4.313   2.237  1.0676 -1.0168  0.0905
 6513TIP3    H241099   5.907   4.196   2.141 -1.5735 -0.0656 -0.8704
 6514TIP3   OH241100   5.810   0.751   2.536 -0.7540 -0.4352  0.1155
 6514TIP3    H141101   5.796   0.776   2.444  0.0424 -0.3130  0.0195
 6514TIP3    H241102   5.879   0.809   2.566 -0.4295 -1.0414  0.5491
 6515TIP3   OH241103   6.616   3.272   8.697 -0.5064  0.0497  0.4551
 6515TIP3    H141104   6.582   3.230   8.618 -0.4387 -0.9578  0.9480
 6515TIP3    H241105   6.652   3.200   8.750  0.7222  0.8652  0.7806
 6516TIP3   OH241106   0.931   0.489   0.271 -0.5991 -0.4529 -0.1965
 6516TIP3    H141107   0.918   0.477   0.365 -1.3039  0.2184 -0.1876
 6516TIP3    H241108   1.019   0.526   0.263 -1.0531  0.8353  0.3509
 6517TIP3   OH241109   4.801   6.068   2.707 -0.0786 -0.2084  0.3410
 6517TIP3    H141110   4.839   6.124   2.775  0.5098 -0.0751 -0.0897
 6517TIP3    H241111   4.784   5.985   2.752 -1.1343  0.3616  1.0249
 6518TIP3   OH241112   3.128   2.934   8.262 -0.5507  0.1410  0.8455
 6518TIP3    H141113   3.149   2.973   8.178 -0.2990  0.1587  0.9168
 6518TIP3    H241114   3.034   2.949   8.273 -0.4066  0.9449  0.9882
 6519TIP3   OH241115   3.471   2.830   0.229 -0.5836 -0.3551  0.1431
 6519TIP3    H141116   3.491   2.894   0.161 -2.6444  0.3626  0.1278
 6519TIP3    H241117   3.468   2.881   0.310 -2.6375 -0.2663  0.0756
 6520TIP3   OH241118   4.391   0.164   0.118  0.2379  0.0499  0.2063
 6520TIP3    H141119   4.305   0.152   0.078 -0.1868  1.4139  0.6466
 6520TIP3    H241120   4.382   0.129   0.206  0.1892  0.0162  0.1881
 6521TIP3   OH241121   0.920   5.769   8.878 -0.1527  0.4822  0.5676
 6521TIP3    H141122   0.857   5.812   8.821 -1.2761 -1.5476  0.1859
 6521TIP3    H241123   1.005   5.786   8.836 -0.3567  3.2989  1.1294
 6522TIP3   OH241124   6.137   3.844   7.828 -0.6124  0.8538 -0.2864
 6522TIP3    H141125   6.107   3.754   7.839  1.6406  0.1869  1.2249
 6522TIP3    H241126   6.219   3.836   7.778  1.1494  1.6631  2.2486
 6523TIP3   OH241127   1.331   2.828   2.169  0.4132  0.2026 -0.3640
 6523TIP3    H141128   1.327   2.892   2.240 -1.7649 -0.2552  0.0159
 6523TIP3    H241129   1.311   2.878   2.090  1.4033  0.4559 -0.4596
 6524TIP3   OH241130   1.267   3.049   2.368 -0.0006  0.1828 -0.0776
 6524TIP3    H141131   1.192   3.078   2.315  0.1100  0.5489 -0.0343
 6524TIP3    H241132   1.298   3.129   2.411  0.2618 -0.0150  0.0980
 6525TIP3   OH241133   3.666   0.398   2.431  0.3139  0.5874 -0.0102
 6525TIP3    H141134   3.660   0.437   2.518 -0.8016  0.7815 -0.1614
 6525TIP3    H241135   3.584   0.349   2.421  1.6031 -1.7482  0.1508
 6526TIP3   OH241136   1.454   2.573   8.932  0.3897 -0.5418  0.8215
 6526TIP3    H141137   1.421   2.663   8.939  0.3289 -0.7053  3.2566
 6526TIP3    H241138   1.398   2.533   8.866  1.8098  1.7391 -2.0162
 6527TIP3   OH241139   5.203   2.562   1.848 -0.3241 -0.3786  0.0316
 6527TIP3    H141140   5.200   2.541   1.755 -1.4487 -0.0021 -0.0245
 6527TIP3    H241141   5.183   2.656   1.852 -1.0363 -0.5516  0.7071
 6528TIP3   OH241142   0.860   4.869   8.511 -0.7306 -0.0982  0.4852
 6528TIP3    H141143   0.774   4.912   8.512 -1.3866 -1.2908  3.0931
 6528TIP3    H241144   0.921   4.937   8.540 -1.4294 -0.2738  2.4710
 6529TIP3   OH241145   4.522   0.919   2.171  0.7410  0.2910 -0.1918
 6529TIP3    H141146   4.519   0.861   2.247  2.9175 -1.6399 -1.4219
 6529TIP3    H241147   4.477   0.999   2.199 -1.9362 -1.7314  1.7852
 6530TIP3   OH241148   1.248   4.286   2.191  0.6336  0.2932  0.1315
 6530TIP3    H141149   1.249   4.194   2.217 -0.3366  0.8628  2.4385
 6530TIP3    H241150   1.156   4.304   2.172  0.0583  1.5977  3.3733
 6531TIP3   OH241151   3.863   2.855   1.372 -0.0080  0.2697 -0.4175
 6531TIP3    H141152   3.851   2.826   1.281 -0.9583 -1.1464  0.1188
 6531TIP3    H241153   3.952   2.888   1.375 -0.1946  1.0366 -2.0358
 6532TIP3   OH241154   2.890   1.244   2.528 -0.2319 -0.0405 -0.0972
 6532TIP3    H141155   2.927   1.217   2.613  0.6969  1.1493 -0.1012
 6532TIP3    H241156   2.966   1.250   2.470 -0.8316 -0.5510 -0.9451
 6533TIP3   OH241157   1.821   4.433   8.088 -0.1701 -0.8897  1.0654
 6533TIP3    H141158   1.827   4.494   8.014 -0.5981  1.2019  2.6793
 6533TIP3    H241159   1.911   4.421   8.117  0.0930 -2.3724 -0.2465
 6534TIP3   OH241160   2.427   6.039   0.352 -0.1973  0.2311 -0.1113
 6534TIP3    H141161   2.374   5.969   0.390 -0.9555  1.4687  1.1992
 6534TIP3    H241162   2.366   6.111   0.339  0.5252  0.6034 -1.6642
 6535TIP3   OH241163   0.599   5.834   0.722  0.4878 -0.0602 -0.3320
 6535TIP3    H141164   0.607   5.738   0.727 -2.8923 -0.4603  0.1491
 6535TIP3    H241165   0.644   5.866   0.800 -0.1751 -1.4757  0.6831
 6536TIP3   OH241166   3.644   1.159   1.842 -0.6858  0.0566 -0.1523
 6536TIP3    H141167   3.684   1.105   1.774 -0.6846  1.2848 -1.1636
 6536TIP3    H241168   3.714   1.174   1.906  0.1512  1.1984 -1.3025
 6537TIP3   OH241169   1.396   4.106   8.400 -0.5920 -0.1207 -0.0174
 6537TIP3    H141170   1.362   4.117   8.311 -0.8831  0.5223  0.1666
 6537TIP3    H241171   1.322   4.070   8.449 -0.6151  0.0829  0.0973
 6538TIP3   OH241172   3.081   4.365   9.158  0.1279  0.3684 -0.4586
 6538TIP3    H141173   3.035   4.446   9.180  0.5025  0.4395  0.1051
 6538TIP3    H241174   3.131   4.344   9.237 -0.2247 -0.5925 -0.4797
 6539TIP3   OH241175   5.428   6.582   2.836 -0.1363 -0.2142  0.0008
 6539TIP3    H141176   5.410   6.645   2.906 -1.5689 -0.4007 -0.1746
 6539TIP3    H241177   5.521   6.592   2.819  0.5764 -1.0936  2.8454
 6540TIP3   OH241178   6.115   3.036   7.429 -0.4126 -0.2778  0.1732
 6540TIP3    H141179   6.059   3.001   7.360 -1.9993  2.8142 -0.2553
 6540TIP3    H241180   6.135   2.960   7.484 -2.9480 -1.9831 -1.0622
 6541TIP3   OH241181   2.004   6.140   8.759  0.1467  0.7272 -0.2963
 6541TIP3    H141182   2.069   6.107   8.696 -0.5896 -0.0914 -0.6330
 6541TIP3    H241183   1.986   6.066   8.816 -0.4187  0.9826 -0.1441
 6542TIP3   OH241184   4.091   4.567   1.729 -0.3251 -0.4441  0.4970
 6542TIP3    H141185   4.159   4.548   1.665 -1.0382  2.2956 -1.2516
 6542TIP3    H241186   4.113   4.653   1.763 -3.5335  1.2453 -1.2400
 6543TIP3   OH241187   5.474   3.491   2.424  0.1178 -0.1828  0.0311
 6543TIP3    H141188   5.457   3.431   2.352  1.0949 -0.2124 -0.1826
 6543TIP3    H241189   5.400   3.478   2.484 -2.5046  2.1836 -2.4294
 6544TIP3   OH241190   1.775   4.361   7.490 -0.3869 -0.5895  0.0448
 6544TIP3    H141191   1.756   4.292   7.426 -2.5781  0.1348 -0.1755
 6544TIP3    H241192   1.799   4.437   7.437  0.0702 -0.6109  0.2106
 6545TIP3   OH241193   1.218   1.336   2.737 -0.2708 -0.2120  1.0103
 6545TIP3    H141194   1.303   1.295   2.721  0.1930  1.1305 -0.1438
 6545TIP3    H241195   1.237   1.411   2.793 -0.3968  1.0731 -0.5889
 6546TIP3   OH241196   0.858   2.985   9.053  0.3554 -0.6028  0.5920
 6546TIP3    H141197   0.947   2.999   9.085  0.0818  1.4118  0.6335
 6546TIP3    H241198   0.854   3.035   8.971 -0.9905  0.1363  1.0793
 6547TIP3   OH241199   5.173   3.315   2.309  0.1375 -0.3081 -0.3093
 6547TIP3    H141200   5.237   3.245   2.320  1.3218  1.0278  1.8265
 6547TIP3    H241201   5.120   3.312   2.389 -0.4725  0.5839 -0.6624
 6548TIP3   OH241202   2.134   5.260   7.780 -0.1443 -0.0170  0.6427
 6548TIP3    H141203   2.203   5.224   7.724 -0.8991 -2.5537  1.2146
 6548TIP3    H241204   2.054   5.249   7.729 -0.3436  1.6768  0.5299
 6549TIP3   OH241205   0.135   4.922   1.906 -0.1989 -0.1645  0.0229
 6549TIP3    H141206   0.051   4.943   1.866  0.1447  0.5800 -0.3379
 6549TIP3    H241207   0.166   5.005   1.942 -0.7691 -0.9269  2.4298
 6550TIP3   OH241208   4.919   3.068   8.700 -0.5624 -0.1239 -0.1034
 6550TIP3    H141209   4.905   2.998   8.763 -2.3373 -0.7324 -1.0970
 6550TIP3    H241210   4.967   3.027   8.628 -1.2636 -0.2267 -0.5162
 6551TIP3   OH241211   3.922   6.516   8.676 -0.2210  0.0914 -0.0065
 6551TIP3    H141212   4.004   6.537   8.720 -0.9462  0.3447  1.2807
 6551TIP3    H241213   3.879   6.600   8.661 -0.1991 -0.0263 -0.7957
 6552TIP3   OH241214   4.576   4.313   0.909 -0.0371  0.1067 -0.0173
 6552TIP3    H141215   4.665   4.315   0.876 -0.0172  1.4791  0.0597
 6552TIP3    H241216   4.583   4.272   0.995  0.3972 -0.4887 -0.3308
 6553TIP3   OH241217   0.199   1.575   1.355 -0.0189 -0.0938  0.5228
 6553TIP3    H141218   0.174   1.570   1.447 -3.2086 -0.4765 -0.2531
 6553TIP3    H241219   0.208   1.669   1.337 -0.7993  0.0522  0.8951
 6554TIP3   OH241220   4.837   5.749   2.754 -0.5652 -0.1445 -0.3954
 6554TIP3    H141221   4.861   5.793   2.835  0.1194 -1.4542  0.1492
 6554TIP3    H241222   4.852   5.656   2.772 -1.2388 -0.5400 -1.7383
 6555TIP3   OH241223   3.046   1.550   3.026 -0.2320 -0.6020 -0.4582
 6555TIP3    H141224   2.985   1.624   3.029 -0.5972 -0.9368  1.1756
 6555TIP3    H241225   3.126   1.587   2.987 -0.9335  0.2286 -1.1640
 6556TIP3   OH241226   5.036   6.619   2.527  0.7099  0.6078 -0.8316
 6556TIP3    H141227   5.009   6.573   2.606  0.6782  1.4476 -0.3522
 6556TIP3    H241228   4.958   6.665   2.497 -0.1251 -1.9785 -3.0087
 6557TIP3   OH241229   6.403   2.910   0.147  0.4959 -0.0962 -0.3867
 6557TIP3    H141230   6.352   2.843   0.103 -0.5724 -0.3565  1.1654
 6557TIP3    H241231   6.387   2.896   0.240  1.2946  1.4883  0.0395
 6558TIP3   OH241232   0.191   4.556   2.926  0.3986 -0.4863  0.3255
 6558TIP3    H141233   0.201   4.478   2.980  1.8023 -1.2224 -0.9104
 6558TIP3    H241234   0.139   4.616   2.979  1.9831 -1.0073  2.6099
 6559TIP3   OH241235   0.241   2.932   7.893 -0.0676 -0.3841 -0.0846
 6559TIP3    H141236   0.249   2.853   7.840 -1.4658 -0.4330 -0.2603
 6559TIP3    H241237   0.189   2.992   7.839  0.5286  0.4624  0.2605
 6560TIP3   OH241238   1.419   6.306   0.968  0.4063 -0.0020 -0.6258
 6560TIP3    H141239   1.327   6.318   0.989  0.2507 -0.4967 -1.0236
 6560TIP3    H241240   1.463   6.379   1.013  0.1030 -1.0534  1.5049
 6561TIP3   OH241241   2.143   1.570   8.888  0.3812  0.2453  0.3323
 6561TIP3    H141242   2.157   1.477   8.869  0.6046  0.1487  0.9403
 6561TIP3    H241243   2.077   1.598   8.824 -0.7213 -0.6795  1.0178
 6562TIP3   OH241244   3.730   0.616   2.251 -0.2651 -0.3122 -0.4321
 6562TIP3    H141245   3.661   0.682   2.254  0.2780  0.2222  0.6605
 6562TIP3    H241246   3.689   0.537   2.286 -0.8057 -0.4701 -1.3912
 6563TIP3   OH241247   2.303   0.244   1.470 -0.0001 -0.0413  0.5027
 6563TIP3    H141248   2.377   0.293   1.434  0.9887 -1.3747  0.6421
 6563TIP3    H241249   2.322   0.236   1.563  0.1065 -1.0906  0.4013
 6564TIP3   OH241250   0.150   0.290   1.341 -0.2015 -0.0686 -0.6230
 6564TIP3    H141251   0.179   0.199   1.348 -0.3742 -0.0564  0.5091
 6564TIP3    H241252   0.080   0.288   1.276 -3.0957 -1.5553  2.2365
 6565TIP3   OH241253   2.253   0.558   7.712  0.6213  0.0663  0.0486
 6565TIP3    H141254   2.171   0.555   7.761  0.2064  1.0372 -0.5477
 6565TIP3    H241255   2.260   0.649   7.684  1.8635 -0.0279  0.0195
 6566TIP3   OH241256   4.421   4.070   1.542  0.2741  0.0109  0.3216
 6566TIP3    H141257   4.430   3.975   1.550 -0.4566 -0.0565  0.4386
 6566TIP3    H241258   4.418   4.102   1.633  0.8484  0.1826  0.2827
 6567TIP3   OH241259   2.782   6.078   9.029  0.0031  0.0476 -0.6924
 6567TIP3    H141260   2.819   6.151   9.079 -1.4189  0.3311 -0.0239
 6567TIP3    H241261   2.769   6.113   8.941  1.9400 -0.2698 -1.1519
 6568TIP3   OH241262   5.418   1.552   2.640  0.2704 -0.2064 -0.1113
 6568TIP3    H141263   5.399   1.638   2.679  0.7721 -0.4694  0.7340
 6568TIP3    H241264   5.349   1.540   2.575 -0.6484  0.2191  0.7447
 6569TIP3   OH241265   3.429   3.436   7.763 -0.0055  0.1485 -0.2119
 6569TIP3    H141266   3.500   3.456   7.702 -0.4706  1.0902 -0.4505
 6569TIP3    H241267   3.452   3.483   7.843 -0.3399  0.4081 -0.2715
 6570TIP3   OH241268   5.932   3.723   1.546 -0.4145  0.3442 -0.2529
 6570TIP3    H141269   5.984   3.643   1.537  2.1276  1.9447 -0.7772
 6570TIP3    H241270   5.935   3.764   1.460 -0.5257  1.6642  0.3415
 6571TIP3   OH241271   4.073   6.362   9.264  0.0698 -0.1379  0.0299
 6571TIP3    H141272   4.138   6.390   9.328  2.1982 -3.1395 -0.5950
 6571TIP3    H241273   4.025   6.292   9.306  0.3189 -0.9763 -1.0265
 6572TIP3   OH241274   2.215   2.443   0.494 -0.4324  1.2001  0.3193
 6572TIP3    H141275   2.310   2.433   0.497 -0.4659  0.4848 -0.6770
 6572TIP3    H241276   2.181   2.355   0.480 -1.0848  1.7484 -2.0390
 6573TIP3   OH241277   4.055   5.998   0.383 -0.0959 -0.5825 -0.3087
 6573TIP3    H141278   4.019   6.009   0.471  1.0235 -0.3535  0.1390
 6573TIP3    H241279   4.077   6.086   0.354 -0.5110 -0.6502 -0.8491
 6574TIP3   OH241280   0.918   3.363   8.280 -0.0424 -0.2312  0.0701
 6574TIP3    H141281   0.857   3.385   8.351  1.3476 -0.2685  1.3354
 6574TIP3    H241282   0.866   3.369   8.200 -0.8946  3.0907  0.7458
 6575TIP3   OH241283   2.597   5.035   0.170 -0.2332 -0.2038  0.4415
 6575TIP3    H141284   2.533   5.054   0.100  0.8529  0.1585 -0.4895
 6575TIP3    H241285   2.612   5.119   0.212  0.2720 -0.1109  0.0854
 6576TIP3   OH241286   5.471   0.860   0.745  0.4347 -0.1187  0.4222
 6576TIP3    H141287   5.476   0.801   0.821  1.1788 -0.1064  0.3885
 6576TIP3    H241288   5.412   0.816   0.685 -1.9504  0.8836  1.8920
 6577TIP3   OH241289   0.268   3.089   9.270 -0.4751  0.5718  0.8345
 6577TIP3    H141290   0.297   3.008   9.229  1.7279 -0.4252  4.0098
 6577TIP3    H241291   0.172   3.083   9.269 -0.4444 -0.6712 -1.4598
 6578TIP3   OH241292   2.659   0.123   1.972  0.1334 -0.2182 -0.4387
 6578TIP3    H141293   2.586   0.143   2.031 -1.3659  0.1680 -2.3301
 6578TIP3    H241294   2.668   0.028   1.977 -0.4474 -0.2618 -0.1235
 6579TIP3   OH241295   1.383   5.536   8.788 -0.0781 -0.4645  0.3081
 6579TIP3    H141296   1.417   5.622   8.813  1.9097 -1.6097  1.8804
 6579TIP3    H241297   1.442   5.507   8.718 -1.2352 -0.2390 -0.7786
 6580TIP3   OH241298   2.480   3.237   7.997  0.4316 -0.3845 -0.0162
 6580TIP3    H141299   2.414   3.183   7.953  0.9596 -0.0485 -1.2682
 6580TIP3    H241300   2.466   3.325   7.962  1.1365 -0.1886  0.1826
 6581TIP3   OH241301   3.929   1.948   8.812  0.7333  0.0993  0.2208
 6581TIP3    H141302   3.836   1.941   8.834  0.9160 -0.1414  0.9393
 6581TIP3    H241303   3.950   1.864   8.771  0.8550 -0.2378  0.9458
 6582TIP3   OH241304   6.523   6.299   1.543  0.0516  0.2955 -0.4245
 6582TIP3    H141305   6.550   6.307   1.635  1.1781  0.5802 -0.7694
 6582TIP3    H241306   6.583   6.355   1.496 -1.6406  1.5950 -1.1575
 6583TIP3   OH241307   6.338   1.856   9.135  0.1266  0.0938  0.0627
 6583TIP3    H141308   6.412   1.883   9.189  2.9257 -0.7685 -3.0301
 6583TIP3    H241309   6.314   1.934   9.084  0.2463 -0.1482 -0.3685
 6584TIP3   OH241310   3.951   3.114   1.613  0.1487  0.1796 -0.4942
 6584TIP3    H141311   3.965   3.203   1.646 -0.1277  0.4476 -1.0820
 6584TIP3    H241312   3.856   3.104   1.612  0.1914 -1.0418  1.9340
 6585TIP3   OH241313   5.809   2.848   7.721 -0.9737  0.1825 -0.0098
 6585TIP3    H141314   5.838   2.936   7.695  0.2554  0.2112  1.3430
 6585TIP3    H241315   5.879   2.790   7.692 -1.0657 -0.1616  0.4454
 6586TIP3   OH241316   5.592   3.701   0.313  0.5533 -0.3819 -0.0087
 6586TIP3    H141317   5.539   3.639   0.363  1.5871 -0.0781  1.5382
 6586TIP3    H241318   5.665   3.649   0.280  0.0149 -0.5235 -1.0284
 6587TIP3   OH241319   4.367   4.924   3.158 -0.6143 -0.5476  0.7085
 6587TIP3    H141320   4.296   4.876   3.202 -2.8633  2.0346  0.1548
 6587TIP3    H241321   4.378   4.879   3.074 -3.1209  0.1591 -0.0820
 6588TIP3   OH241322   5.993   4.829   2.434 -0.0535 -0.1582 -0.5359
 6588TIP3    H141323   5.917   4.811   2.488  0.6719  1.4138  1.1339
 6588TIP3    H241324   5.960   4.887   2.365 -0.7839 -1.3651 -1.2404
 6589TIP3   OH241325   0.930   2.896   1.994  0.0250  0.1743 -0.5502
 6589TIP3    H141326   0.913   2.905   1.900  0.9830 -0.9613 -0.8575
 6589TIP3    H241327   0.869   2.828   2.023 -0.9286  1.1719 -0.1227
 6590TIP3   OH241328   6.454   2.151   0.770 -0.0419  0.2671 -0.3972
 6590TIP3    H141329   6.443   2.079   0.833  2.7547  1.1227  1.2211
 6590TIP3    H241330   6.372   2.200   0.777  0.0091  0.1241  2.3893
 6591TIP3   OH241331   1.154   6.616   3.465 -1.1189 -0.4462  0.2048
 6591TIP3    H141332   1.088   6.672   3.424 -0.0576 -1.2817 -2.9039
 6591TIP3    H241333   1.237   6.660   3.448 -0.4800 -1.7530 -0.1567
 6592TIP3   OH241334   5.627   3.746   0.920 -0.8533 -0.0224  0.1328
 6592TIP3    H141335   5.634   3.701   0.836 -0.1276  0.6233 -0.1630
 6592TIP3    H241336   5.533   3.747   0.939 -0.9270 -1.2640 -0.0553
 6593TIP3   OH241337   5.185   2.689   2.881  0.1103 -0.5751  0.0818
 6593TIP3    H141338   5.197   2.782   2.899 -1.3249 -0.1018 -1.1129
 6593TIP3    H241339   5.164   2.650   2.966 -2.7391  0.8670  0.1785
 6594TIP3   OH241340   5.889   6.029   1.563 -0.3952  0.0395 -0.4743
 6594TIP3    H141341   5.809   5.977   1.571 -0.7799  0.9004  3.6503
 6594TIP3    H241342   5.942   6.003   1.639  0.7036  3.4259  0.0762
 6595TIP3   OH241343   6.429   3.442   1.739  0.1734 -0.2801  0.2747
 6595TIP3    H141344   6.521   3.418   1.731 -0.2576 -1.4501 -2.4998
 6595TIP3    H241345   6.421   3.522   1.687 -0.3236 -0.0534  0.6974
 6596TIP3   OH241346   6.516   6.334   7.488 -0.0656 -0.2881 -0.5053
 6596TIP3    H141347   6.598   6.379   7.506 -1.9356  2.2618  3.2148
 6596TIP3    H241348   6.466   6.396   7.435 -0.3652 -0.8347 -0.8646
 6597TIP3   OH241349   1.313   6.494   8.448 -0.7098 -0.1266  0.6653
 6597TIP3    H141350   1.302   6.580   8.487 -0.9023 -0.3990  1.2149
 6597TIP3    H241351   1.283   6.433   8.515  1.1572 -0.7326  0.9818
 6598TIP3   OH241352   2.803   0.225   2.587 -0.2412 -0.0221 -0.0762
 6598TIP3    H141353   2.800   0.321   2.596 -1.0303  0.0044 -0.5296
 6598TIP3    H241354   2.718   0.202   2.552  0.2848 -0.8028 -0.8770
 6599TIP3   OH241355   3.361   3.339   2.284 -0.0938 -0.3899  0.9131
 6599TIP3    H141356   3.306   3.410   2.251 -0.5747 -0.0924  2.2908
 6599TIP3    H241357   3.420   3.319   2.211  1.0466  2.4155  0.9090
 6600TIP3   OH241358   4.501   2.135   1.995 -0.1115  0.3308 -0.4288
 6600TIP3    H141359   4.474   2.056   1.949 -1.3101  0.3702  0.1544
 6600TIP3    H241360   4.592   2.120   2.019 -0.9998 -2.0377  1.9538
 6601TIP3   OH241361   1.314   5.609   2.238 -0.2590  0.2023  0.0616
 6601TIP3    H141362   1.235   5.657   2.213 -0.9071  0.0242  1.6549
 6601TIP3    H241363   1.369   5.674   2.281  0.0095  0.0910 -0.1137
 6602TIP3   OH241364   4.542   3.108   2.505 -0.1608 -0.7403  0.6345
 6602TIP3    H141365   4.496   3.110   2.589 -0.0907 -0.0761  0.6648
 6602TIP3    H241366   4.620   3.162   2.520 -1.5979  1.8986 -0.6651
 6603TIP3   OH241367   4.070   5.513   2.274  0.0242  0.3559  0.6925
 6603TIP3    H141368   4.078   5.476   2.362  0.6414 -1.7465 -0.2083
 6603TIP3    H241369   4.158   5.508   2.237 -1.0547 -3.9756 -1.9539
 6604TIP3   OH241370   5.491   4.188   0.308 -0.1734 -0.1161  0.0693
 6604TIP3    H141371   5.542   4.115   0.273  1.5980  0.8612  0.5197
 6604TIP3    H241372   5.455   4.154   0.390  1.3035 -0.2705  0.6848
 6605TIP3   OH241373   2.280   4.283   0.242 -0.2006  0.3264 -0.1722
 6605TIP3    H141374   2.188   4.303   0.225 -0.1569  1.0190  0.3402
 6605TIP3    H241375   2.322   4.289   0.156 -0.1941  2.5720 -0.0808
 6606TIP3   OH241376   6.347   3.852   9.075 -0.0216 -0.2708 -0.3978
 6606TIP3    H141377   6.315   3.938   9.048 -0.6287 -0.4389 -0.2355
 6606TIP3    H241378   6.326   3.795   9.001 -1.5326 -0.6977  0.3253
 6607TIP3   OH241379   5.822   4.587   2.953  0.9899  0.6159 -0.1176
 6607TIP3    H141380   5.891   4.543   3.002  1.9250  2.5384  0.3572
 6607TIP3    H241381   5.770   4.632   3.020  0.0141  0.2152 -0.5820
 6608TIP3   OH241382   6.252   0.201   0.004  0.4274 -0.3938 -0.0212
 6608TIP3    H141383   6.251   0.109   0.030 -0.5290  0.0573  1.6985
 6608TIP3    H241384   6.304   0.244   0.072  0.2077  0.4389 -0.3779
 6609TIP3   OH241385   3.021   1.181   8.365 -0.3420  0.3733  0.8278
 6609TIP3    H141386   3.036   1.088   8.346 -0.2509  0.5492 -0.0115
 6609TIP3    H241387   2.926   1.189   8.372 -0.4125  0.3890 -0.0773
 6610TIP3   OH241388   5.444   2.744   8.916 -0.0389  0.0158  0.0889
 6610TIP3    H141389   5.427   2.831   8.879 -1.0343 -0.1111  0.2379
 6610TIP3    H241390   5.536   2.748   8.943  0.0220  0.9097 -0.2030
 6611TIP3   OH241391   3.553   1.072   8.712 -0.0354 -0.4436 -0.6365
 6611TIP3    H141392   3.634   1.087   8.663 -0.1797 -0.3539 -0.8497
 6611TIP3    H241393   3.497   1.025   8.652 -0.5075  0.3561 -0.8445
 6612TIP3   OH241394   2.671   6.265   0.002 -0.4230  0.3001  0.1504
 6612TIP3    H141395   2.594   6.272  -0.054 -0.3989 -0.4899  0.0086
 6612TIP3    H241396   2.678   6.171   0.023  1.5955  0.0162 -1.4157
 6613TIP3   OH241397   0.516   0.234   2.216 -0.4821 -0.2586 -0.5319
 6613TIP3    H141398   0.498   0.321   2.181  0.0294 -0.2619 -0.8095
 6613TIP3    H241399   0.597   0.207   2.174  0.2739 -0.1836  0.8165
 6614TIP3   OH241400   1.864   2.826   2.592 -0.1475  0.2326 -0.1218
 6614TIP3    H141401   1.800   2.879   2.640  0.4047  0.1104  0.7709
 6614TIP3    H241402   1.831   2.736   2.599 -0.6138  0.3353 -0.8762
 6615TIP3   OH241403   0.847   0.233   2.023  0.0355 -0.2214  0.1469
 6615TIP3    H141404   0.868   0.222   2.115  0.5647 -0.3914  0.0101
 6615TIP3    H241405   0.926   0.205   1.976  0.5097  1.6586 -0.3005
 6616TIP3   OH241406   5.578   0.724   8.693 -0.0080 -0.4777 -0.0378
 6616TIP3    H141407   5.570   0.786   8.765 -1.0393 -1.9073  1.1343
 6616TIP3    H241408   5.542   0.770   8.617  0.1392  0.6775  0.5703
 6617TIP3   OH241409   4.941   4.593   0.116  0.6493 -0.1017  0.3652
 6617TIP3    H141410   4.970   4.511   0.077  3.4215  0.4684  0.9833
 6617TIP3    H241411   4.983   4.595   0.202 -0.3442  1.4179  0.8530
 6618TIP3   OH241412   0.041   5.942   3.102 -0.5105  0.2719 -0.9342
 6618TIP3    H141413   0.027   5.852   3.134  0.0431  0.1868 -0.9219
 6618TIP3    H241414   0.134   5.946   3.081 -0.8292  0.3503 -2.4794
 6619TIP3   OH241415   3.152   0.525   2.117  0.1882  0.7404 -0.2847
 6619TIP3    H141416   3.092   0.558   2.050  0.5556  3.4381  0.5899
 6619TIP3    H241417   3.211   0.466   2.069 -2.5653 -1.4593 -1.3073
 6620TIP3   OH241418   6.555   2.873   8.862 -0.5437 -0.3053  0.1282
 6620TIP3    H141419   6.501   2.890   8.785 -2.2263  0.3150  1.3862
 6620TIP3    H241420   6.519   2.930   8.930  1.9077  0.3728  0.9775
 6621TIP3   OH241421   6.336   1.802   8.210  0.1642  0.4370 -0.2897
 6621TIP3    H141422   6.342   1.895   8.230  1.9720  0.0236  1.4030
 6621TIP3    H241423   6.244   1.779   8.226 -0.0292  1.6835  0.4696
 6622TIP3   OH241424   3.582   0.696   1.363  0.0168 -0.0524 -0.1383
 6622TIP3    H141425   3.607   0.608   1.390 -1.3202 -0.2135  0.6819
 6622TIP3    H241426   3.495   0.686   1.324  0.2042  0.7835 -0.8064
 6623TIP3   OH241427   2.448   5.215   2.649  0.3241  0.3423  0.3656
 6623TIP3    H141428   2.490   5.292   2.610  1.0062 -0.2105 -0.0184
 6623TIP3    H241429   2.496   5.201   2.731  0.3213  0.2252  0.3476
 6624TIP3   OH241430   5.343   4.904   8.088 -0.4314  0.2829  0.4647
 6624TIP3    H141431   5.258   4.938   8.118 -0.8415 -0.9580  0.7898
 6624TIP3    H241432   5.321   4.822   8.044  0.5756  0.1175  0.2458
 6625TIP3   OH241433   2.413   0.133   0.443 -0.0659  0.2502 -0.1348
 6625TIP3    H141434   2.318   0.143   0.447 -0.1320  0.2822 -1.4534
 6625TIP3    H241435   2.442   0.203   0.385  0.8971  0.9008  1.0882
 6626TIP3   OH241436   3.740   0.396   8.815 -0.5161  0.1926 -0.3207
 6626TIP3    H141437   3.761   0.466   8.753  0.5821  0.4141  0.2807
 6626TIP3    H241438   3.763   0.432   8.901  0.0480 -0.8963 -0.0027
 6627TIP3   OH241439   1.720   1.548   8.907  0.7828 -0.3220  0.6540
 6627TIP3    H141440   1.741   1.558   8.814  0.7178 -1.1465  0.5428
 6627TIP3    H241441   1.656   1.618   8.925  0.7599 -0.1887  0.0694
 6628TIP3   OH241442   6.590   5.053   1.201  0.1546 -0.2665 -0.0919
 6628TIP3    H141443   6.510   5.022   1.242  0.7328 -1.9337 -0.1383
 6628TIP3    H241444   6.649   5.072   1.274 -1.0321  3.5571  0.1191
 6629TIP3   OH241445   1.565   6.504   0.474  0.1298 -0.2386 -0.5572
 6629TIP3    H141446   1.525   6.452   0.544  1.0422 -1.0927 -0.6583
 6629TIP3    H241447   1.513   6.584   0.472 -0.5406 -0.6263  0.4212
 6630TIP3   OH241448   1.073   6.574   2.211 -0.1523 -0.1956  0.1519
 6630TIP3    H141449   0.989   6.528   2.215 -0.0349 -0.6460 -1.6685
 6630TIP3    H241450   1.129   6.518   2.157  1.7218 -0.4571  2.2354
 6631TIP3   OH241451   5.238   6.317   1.932  0.1819 -0.0791  0.0045
 6631TIP3    H141452   5.187   6.263   1.872  0.0483 -1.0574  0.9703
 6631TIP3    H241453   5.290   6.374   1.875 -0.6981 -0.2672 -1.0141
 6632TIP3   OH241454   2.435   3.710   0.045 -0.1580 -0.6438  0.5377
 6632TIP3    H141455   2.428   3.797   0.085  0.5010  0.9411 -2.5109
 6632TIP3    H241456   2.416   3.724  -0.048 -1.8253 -4.1069  0.1810
 6633TIP3   OH241457   3.071   2.635   8.918 -0.3049  0.5584  0.5576
 6633TIP3    H141458   3.072   2.645   9.014  1.4718  0.4363  0.5801
 6633TIP3    H241459   3.026   2.552   8.903 -0.6682  0.6145  1.2713
 6634TIP3   OH241460   3.735   3.387   1.594  0.0975 -0.1042  0.1013
 6634TIP3    H141461   3.734   3.483   1.589  0.3727 -0.1368 -0.7240
 6634TIP3    H241462   3.696   3.359   1.511  1.6815 -0.7145 -0.4775
 6635TIP3   OH241463   2.936   4.361   7.482 -0.0950  0.9285  0.1836
 6635TIP3    H141464   2.895   4.279   7.455  0.7698  0.1113  1.2637
 6635TIP3    H241465   2.865   4.425   7.480 -0.5297  0.4708 -1.8801
 6636TIP3   OH241466   5.704   5.000   3.032  0.3017 -0.3065  0.0142
 6636TIP3    H141467   5.618   4.974   3.000 -0.2874  0.9268  0.5451
 6636TIP3    H241468   5.734   5.067   2.971 -0.1085  0.8657  1.0597
 6637TIP3   OH241469   1.666   4.998   8.594 -0.0478 -0.3955 -0.0220
 6637TIP3    H141470   1.658   4.927   8.658  1.2369 -0.8278 -0.2939
 6637TIP3    H241471   1.630   4.962   8.513 -0.7691 -0.2005  0.2110
 6638TIP3   OH241472   5.401   1.751   1.241 -0.7130  0.4045  0.3029
 6638TIP3    H141473   5.322   1.730   1.291 -1.5450 -1.2127 -1.5640
 6638TIP3    H241474   5.411   1.678   1.180  1.9417  0.8498  0.1025
 6639TIP3   OH241475   1.002   5.295   2.341  0.0721  0.4888  0.4535
 6639TIP3    H141476   0.906   5.293   2.338  0.0493 -1.9242  0.4941
 6639TIP3    H241477   1.025   5.227   2.404  1.8354  0.4735 -0.1554
 6640TIP3   OH241478   1.460   5.222   9.132  0.0658 -0.5653 -0.3795
 6640TIP3    H141479   1.435   5.189   9.219 -2.4998  0.0328 -0.7911
 6640TIP3    H241480   1.456   5.145   9.075 -0.1067 -0.6225 -0.2922
 6641TIP3   OH241481   2.913   5.447   1.169 -0.5691 -0.0435  0.4157
 6641TIP3    H141482   2.947   5.361   1.142 -0.0056  0.8660 -2.0916
 6641TIP3    H241483   2.882   5.486   1.088 -0.9288  2.0914  1.5213
 6642TIP3   OH241484   0.506   0.179   0.722 -0.1973  0.1787  0.3758
 6642TIP3    H141485   0.528   0.117   0.653  3.0234  0.5554  0.9147
 6642TIP3    H241486   0.543   0.262   0.692 -1.5449  1.0961  1.1550
 6643TIP3   OH241487   0.394   2.248   1.017 -0.0301 -0.2644 -0.1216
 6643TIP3    H141488   0.472   2.280   0.972  0.2975  0.7749  1.1419
 6643TIP3    H241489   0.321   2.278   0.963  0.3903 -0.7013 -0.9700
 6644TIP3   OH241490   0.938   3.844   1.664  0.0693 -0.1731  0.2030
 6644TIP3    H141491   1.030   3.850   1.689 -0.8148  0.5354  3.9848
 6644TIP3    H241492   0.903   3.932   1.682 -1.4569 -0.5581 -0.6816
 6645TIP3   OH241493   4.291   2.821   9.260  0.1794  0.4117  0.6113
 6645TIP3    H141494   4.308   2.912   9.237  0.1802  0.4274  0.6744
 6645TIP3    H241495   4.367   2.794   9.311 -0.0081  0.4933  0.9318
 6646TIP3   OH241496   1.932   4.784   0.291  0.1196 -0.1876 -0.5730
 6646TIP3    H141497   1.870   4.837   0.241  1.8275  0.4958 -2.0875
 6646TIP3    H241498   1.950   4.836   0.369 -1.4563 -0.5663  0.0687
 6647TIP3   OH241499   0.906   2.868   0.808  0.3970  0.1170 -0.2380
 6647TIP3    H141500   0.907   2.774   0.826 -1.3688 -0.0163 -0.6352
 6647TIP3    H241501   0.991   2.886   0.767  0.6723 -1.3419 -0.3564
 6648TIP3   OH241502   0.710   5.481   1.434 -0.4610  0.0895  0.0763
 6648TIP3    H141503   0.629   5.446   1.471 -0.4644 -1.6417 -1.4168
 6648TIP3    H241504   0.684   5.515   1.348  0.3384 -0.1644 -0.2744
 6649TIP3   OH241505   3.268   2.912   1.472  0.2818 -0.5199 -0.1182
 6649TIP3    H141506   3.284   2.821   1.499 -2.1288 -0.3102  2.4832
 6649TIP3    H241507   3.174   2.917   1.460  0.2708  1.8037  0.4646
 6650TIP3   OH241508   4.496   3.787   2.837  0.4930  0.0564  0.2470
 6650TIP3    H141509   4.564   3.720   2.829  0.7506  0.4884 -1.8071
 6650TIP3    H241510   4.414   3.739   2.820  0.3933 -0.2272  1.4751
 6651TIP3   OH241511   3.200   3.546   1.972  0.2147  0.4573 -0.5283
 6651TIP3    H141512   3.231   3.557   2.063 -0.0536  1.1554 -0.5185
 6651TIP3    H241513   3.122   3.492   1.980 -0.0394  0.8548 -0.3011
 6652TIP3   OH241514   6.064   1.954   0.749  0.3468 -0.1298  0.6240
 6652TIP3    H141515   6.065   1.981   0.841  1.7551  0.8376  0.3676
 6652TIP3    H241516   6.088   2.033   0.701  0.3687 -0.8057 -0.5137
 6653TIP3   OH241517   6.406   5.440   2.239 -0.2446  0.2477  0.8522
 6653TIP3    H141518   6.448   5.509   2.290 -1.2149  3.0702 -1.8891
 6653TIP3    H241519   6.425   5.462   2.148 -3.5965 -1.0193 -0.3023
 6654TIP3   OH241520   2.966   1.753   1.184  0.2838  0.2665  0.1097
 6654TIP3    H141521   3.024   1.694   1.233 -0.1183  0.3131  0.6506
 6654TIP3    H241522   2.931   1.698   1.114  0.8037  0.1763 -0.0845
 6655TIP3   OH241523   3.176   2.302   0.400  0.2800  0.2215 -0.1572
 6655TIP3    H141524   3.180   2.385   0.353 -0.3620  0.1428 -0.3554
 6655TIP3    H241525   3.252   2.253   0.369 -0.7944 -0.3170 -2.0421
 6656TIP3   OH241526   2.551   2.712   1.654 -0.5751 -0.8393 -0.3721
 6656TIP3    H141527   2.459   2.689   1.663 -0.6386 -2.1791 -3.2574
 6656TIP3    H241528   2.554   2.772   1.580  0.8790 -0.8464 -0.3611
 6657TIP3   OH241529   6.072   4.991   2.758  0.0425  0.0052 -0.1670
 6657TIP3    H141530   6.053   5.085   2.749 -0.2073 -0.2107 -2.9027
 6657TIP3    H241531   5.987   4.948   2.748  0.5267 -0.5795 -2.4136
 6658TIP3   OH241532   5.618   5.945   1.258 -0.2922  0.4367 -0.2870
 6658TIP3    H141533   5.703   5.937   1.301 -0.4508  0.3048  0.0034
 6658TIP3    H241534   5.610   6.037   1.236  0.3650  0.2850 -1.2090
 6659TIP3   OH241535   1.448   1.266   1.473  0.2104 -0.3917 -0.2202
 6659TIP3    H141536   1.384   1.328   1.510  1.2350 -0.6858  2.2323
 6659TIP3    H241537   1.533   1.305   1.494  0.8754 -0.9638 -1.7345
 6660TIP3   OH241538   4.394   3.461   7.822  0.0575 -0.1663 -0.6964
 6660TIP3    H141539   4.490   3.467   7.824  0.0336  0.2340 -0.7265
 6660TIP3    H241540   4.369   3.508   7.743 -0.3998  3.0920  1.2005
 6661TIP3   OH241541   1.165   1.208   7.457  0.1760 -0.4697  0.2572
 6661TIP3    H141542   1.125   1.294   7.440 -2.5233 -0.7001  4.0230
 6661TIP3    H241543   1.094   1.146   7.441  0.4135 -1.4082  2.4935
 6662TIP3   OH241544   2.370   4.722   7.848  0.0027 -0.1730  0.5915
 6662TIP3    H141545   2.370   4.793   7.784 -1.4542  0.6634  1.4683
 6662TIP3    H241546   2.281   4.687   7.847 -0.3231  0.4219  2.6968
 6663TIP3   OH241547   3.772   4.436   7.780  0.6917 -0.3567  0.3124
 6663TIP3    H141548   3.744   4.484   7.858  0.7772  0.9745 -0.4590
 6663TIP3    H241549   3.709   4.460   7.713  1.1995 -0.7212 -0.3062
 6664TIP3   OH241550   6.622   3.871   2.271 -0.1953  0.2123  0.0604
 6664TIP3    H141551   6.641   3.964   2.261 -0.4089  0.3566  0.9143
 6664TIP3    H241552   6.529   3.862   2.249  0.2382 -0.1245 -1.8643
 6665TIP3   OH241553   4.648   1.113   9.297 -0.2812 -0.6303 -0.4041
 6665TIP3    H141554   4.557   1.142   9.285  0.2489  0.7354 -1.1884
 6665TIP3    H241555   4.675   1.154   9.379  0.1846  0.4188 -1.0686
 6666TIP3   OH241556   1.461   3.971   1.691 -0.1813  0.4289 -0.1356
 6666TIP3    H141557   1.429   4.057   1.718 -1.1044  0.1017 -0.1606
 6666TIP3    H241558   1.523   3.990   1.621 -0.4875  1.0688 -0.2405
 6667TIP3   OH241559   3.916   2.150   3.068 -0.5690  0.3300  0.0987
 6667TIP3    H141560   3.831   2.182   3.038  0.0839  0.7248 -1.4151
 6667TIP3    H241561   3.960   2.119   2.988  0.0042 -1.5966  1.0840
 6668TIP3   OH241562   2.274   2.144   8.155  0.5562  0.1460  0.1649
 6668TIP3    H141563   2.339   2.098   8.101  0.9804 -0.1978  0.9509
 6668TIP3    H241564   2.279   2.101   8.240  0.0753  0.8490  0.5595
 6669TIP3   OH241565   4.624   5.137   8.454 -0.3155  0.1762 -0.0091
 6669TIP3    H141566   4.614   5.099   8.541 -1.0769 -1.4553 -0.7594
 6669TIP3    H241567   4.711   5.176   8.455  0.6618 -1.8585  0.7718
 6670TIP3   OH241568   1.379   4.140   7.309 -0.4052  0.3216 -0.2134
 6670TIP3    H141569   1.452   4.117   7.367  1.1960  2.5976 -1.1699
 6670TIP3    H241570   1.394   4.087   7.230  0.0015  0.4851 -0.2506
 6671TIP3   OH241571   2.525   2.204   0.909  0.3900  0.2088 -0.4392
 6671TIP3    H141572   2.535   2.269   0.839  0.5760 -0.7714 -1.3472
 6671TIP3    H241573   2.551   2.121   0.869 -1.4540 -0.7316  0.1778
 6672TIP3   OH241574   2.921   0.152   2.337  0.2972 -0.1646 -0.0242
 6672TIP3    H141575   2.890   0.150   2.428 -0.1112  0.1829 -0.1583
 6672TIP3    H241576   2.974   0.231   2.332  1.7964 -1.0917  0.3896
 6673TIP3   OH241577   0.671   0.656   2.155 -0.4086  0.4504 -0.3717
 6673TIP3    H141578   0.733   0.730   2.149  1.8492 -1.3212 -0.2483
 6673TIP3    H241579   0.685   0.620   2.243 -0.7190 -0.7436 -0.7980
 6674TIP3   OH241580   2.775   1.606   7.787  0.7387  0.2817  0.3965
 6674TIP3    H141581   2.818   1.529   7.824  0.1838 -0.7264 -0.9665
 6674TIP3    H241582   2.828   1.629   7.711  0.6310  0.9755  0.5193
 6675TIP3   OH241583   4.113   2.167   2.133 -0.0535  0.0007 -0.0147
 6675TIP3    H141584   4.033   2.203   2.171 -0.5734  0.0399 -1.1364
 6675TIP3    H241585   4.181   2.232   2.155 -0.5682  0.5935 -0.1610
 6676TIP3   OH241586   4.592   1.322   1.246 -0.3259 -0.4361 -0.3646
 6676TIP3    H141587   4.622   1.245   1.198  0.9522 -0.7694  0.8974
 6676TIP3    H241588   4.664   1.385   1.238 -1.6808  0.9651 -2.0457
 6677TIP3   OH241589   6.627   2.589   1.897  0.6036 -0.4730  0.1216
 6677TIP3    H141590   6.551   2.549   1.854 -2.6268  3.4886  1.4482
 6677TIP3    H241591   6.623   2.558   1.987  0.1938  0.0916  0.3072
 6678TIP3   OH241592   5.034   2.031   8.216  0.6912 -0.4323  0.2936
 6678TIP3    H141593   5.014   1.963   8.152  1.7358 -1.1248  0.6918
 6678TIP3    H241594   4.965   2.096   8.203 -0.0969 -1.3646 -0.3689
 6679TIP3   OH241595   6.624   5.064   8.012  0.1629 -0.0481  0.0395
 6679TIP3    H141596   6.688   5.100   8.074 -0.2223  0.0634  0.3822
 6679TIP3    H241597   6.668   5.065   7.928  0.4530  0.4585  0.1932
 6680TIP3   OH241598   5.291   0.260   8.560 -0.1882  0.6598 -0.3560
 6680TIP3    H141599   5.270   0.271   8.653  0.5537  1.4343 -0.2677
 6680TIP3    H241600   5.329   0.173   8.554  1.2756  1.2241  0.3598
 6681TIP3   OH241601   4.054   2.253   1.257  0.2785 -0.1391  0.3015
 6681TIP3    H141602   4.066   2.196   1.334  0.3508  0.4454  0.7318
 6681TIP3    H241603   4.021   2.335   1.293  2.9641  1.1591  0.0902
 6682TIP3   OH241604   2.094   3.618   0.011  0.3347  0.6383 -0.0451
 6682TIP3    H141605   2.122   3.693   0.063 -1.9513 -0.3981  2.9963
 6682TIP3    H241606   2.039   3.655  -0.058 -0.0129  1.8549  0.8493
 6683TIP3   OH241607   1.569   6.535   9.003 -0.1228 -0.3982 -0.7155
 6683TIP3    H141608   1.563   6.497   8.915 -2.5512 -1.8339 -0.0412
 6683TIP3    H241609   1.503   6.604   9.003 -2.2270 -2.2600  0.7093
 6684TIP3   OH241610   5.618   4.328   8.345  0.1286 -0.3204  0.3539
 6684TIP3    H141611   5.571   4.371   8.273 -0.6293 -0.6500  0.6441
 6684TIP3    H241612   5.698   4.294   8.304  0.0867  0.1852 -0.1596
 6685TIP3   OH241613   5.729   6.502   1.347 -0.5359  0.6138 -0.0270
 6685TIP3    H141614   5.747   6.437   1.416  2.6988  1.4698  0.1167
 6685TIP3    H241615   5.769   6.464   1.269  0.0515  1.7159 -0.2851
 6686TIP3   OH241616   1.648   1.172   0.907  0.0746 -0.1448 -0.9844
 6686TIP3    H141617   1.593   1.150   0.833 -1.6393 -0.5434  0.3410
 6686TIP3    H241618   1.658   1.090   0.955  1.9130 -0.0944 -1.2192
 6687TIP3   OH241619   1.119   0.995   9.234 -0.5719  0.5808 -0.3844
 6687TIP3    H141620   1.075   1.036   9.309 -1.6837  0.0091 -0.6994
 6687TIP3    H241621   1.191   0.945   9.273 -0.3052  1.3739  0.1635
 6688TIP3   OH241622   5.882   3.142   1.107 -0.3160  0.0829  0.0356
 6688TIP3    H141623   5.867   3.063   1.055  0.0906 -0.3242  0.5267
 6688TIP3    H241624   5.832   3.210   1.062 -0.5493 -0.4195 -0.4785
 6689TIP3   OH241625   3.740   4.782   7.796 -0.0004 -0.2440 -0.8075
 6689TIP3    H141626   3.683   4.825   7.860 -0.9578 -1.2083 -0.9812
 6689TIP3    H241627   3.711   4.691   7.795 -1.0625  0.0129 -3.6733
 6690TIP3   OH241628   0.221   4.564   1.029  0.2118  0.4886 -0.1426
 6690TIP3    H141629   0.280   4.521   1.090  0.4814  0.4270 -0.4437
 6690TIP3    H241630   0.150   4.598   1.084  0.6984  0.8605  0.2569
 6691TIP3   OH241631   1.642   5.776   0.663  0.1498  0.1461  0.0054
 6691TIP3    H141632   1.736   5.794   0.670  0.5230 -1.6417  0.0846
 6691TIP3    H241633   1.614   5.752   0.751 -0.3504  0.5223 -0.0457
 6692TIP3   OH241634   4.918   4.561   2.787  0.0649  0.2278 -0.8642
 6692TIP3    H141635   4.835   4.609   2.796  0.5721  0.9763  0.0319
 6692TIP3    H241636   4.954   4.559   2.876  0.4499 -1.1434 -1.0327
 6693TIP3   OH241637   4.597   4.968   0.560  0.0376 -0.0441 -0.0794
 6693TIP3    H141638   4.686   4.951   0.593  0.3687  0.8038 -0.4864
 6693TIP3    H241639   4.604   4.955   0.465  0.2845  2.0342 -0.4067
 6694TIP3   OH241640   4.031   4.244   9.168 -0.3474  0.2927 -0.0932
 6694TIP3    H141641   4.099   4.306   9.194  0.8334 -1.0136  0.0831
 6694TIP3    H241642   3.995   4.279   9.087  0.5394  1.0208 -0.1835
 6695TIP3   OH241643   5.041   6.136   8.925  0.4327 -0.2764  0.1950
 6695TIP3    H141644   5.065   6.182   8.844 -0.9647  0.6263  0.2671
 6695TIP3    H241645   4.971   6.189   8.962  0.1311 -1.4309  1.3064
 6696TIP3   OH241646   2.721   4.960   1.744  0.2523  0.5018 -0.0793
 6696TIP3    H141647   2.636   4.972   1.702 -1.1379 -0.3436  2.2732
 6696TIP3    H241648   2.759   4.883   1.702 -1.1467 -0.3968  0.2277
 6697TIP3   OH241649   0.101   2.037   0.350  0.0237  0.1950  0.1913
 6697TIP3    H141650   0.058   1.974   0.408 -0.5681  0.7009  0.3098
 6697TIP3    H241651   0.083   2.004   0.262  1.2646 -0.7995  0.2702
 6698TIP3   OH241652   1.443   1.001   1.408 -0.0533 -0.2938  0.1500
 6698TIP3    H141653   1.440   1.096   1.415 -0.9882 -0.3686  0.8305
 6698TIP3    H241654   1.488   0.985   1.324 -2.6478  0.7874 -1.5632
 6699TIP3   OH241655   3.684   1.306   2.587  0.3508 -0.1624 -0.1237
 6699TIP3    H141656   3.750   1.316   2.656  1.2226 -0.3792 -0.8946
 6699TIP3    H241657   3.706   1.374   2.523 -0.9324  0.5585  0.1715
 6700TIP3   OH241658   3.812   4.604   1.981 -0.1037 -0.3079 -0.5689
 6700TIP3    H141659   3.843   4.690   1.950  0.3606  1.0801  3.2369
 6700TIP3    H241660   3.881   4.543   1.956  0.7296  0.8714 -1.2390
 6701TIP3   OH241661   0.110   3.056   1.796 -0.7600 -0.2920 -0.0044
 6701TIP3    H141662   0.034   3.012   1.759 -0.7678  0.7380 -1.3229
 6701TIP3    H241663   0.167   3.071   1.720  1.2652 -1.9476  1.0873
 6702TIP3   OH241664   0.802   3.112   0.751  0.8364  0.3969 -0.2784
 6702TIP3    H141665   0.825   3.121   0.658  3.4486  1.1425  0.3798
 6702TIP3    H241666   0.838   3.027   0.777  0.9045  0.5874  0.2620
 6703TIP3   OH241667   3.703   0.804   3.060 -0.3750  0.6567 -0.0259
 6703TIP3    H141668   3.793   0.805   3.091 -0.9407  0.1442  1.7655
 6703TIP3    H241669   3.708   0.763   2.974  1.4290  3.2328 -1.2785
 6704TIP3   OH241670   3.836   4.601   2.274  0.3105  0.4220  0.4330
 6704TIP3    H141671   3.751   4.583   2.315  0.6480 -1.1371  0.5255
 6704TIP3    H241672   3.815   4.641   2.190 -0.5248 -0.1142  0.3841
 6705TIP3   OH241673   2.241   4.973   0.296 -0.3702 -0.1859  0.7018
 6705TIP3    H141674   2.230   4.932   0.210 -1.6506  0.2663  0.6202
 6705TIP3    H241675   2.198   5.059   0.287  0.1700  0.1890  1.5645
 6706TIP3   OH241676   6.313   4.365   9.012  0.1644 -0.0500 -0.8757
 6706TIP3    H141677   6.277   4.405   8.933  3.1490  2.2006 -1.2749
 6706TIP3    H241678   6.271   4.413   9.084  1.3053  1.6405 -1.2887
 6707TIP3   OH241679   2.901   2.940   9.110 -0.0624  0.3241  0.1393
 6707TIP3    H141680   2.836   2.977   9.170  0.0794  1.0337 -0.1335
 6707TIP3    H241681   2.982   2.986   9.132  0.2467 -0.2262  0.1659
 6708TIP3   OH241682   2.045   6.496   0.122  0.0622  0.0009  0.2921
 6708TIP3    H141683   1.961   6.531   0.094 -0.3769 -1.3502 -0.1672
 6708TIP3    H241684   2.065   6.427   0.059  0.7257 -0.7934  1.3184
 6709TIP3   OH241685   5.286   4.747   9.115  0.5450  0.1037 -0.3562
 6709TIP3    H141686   5.317   4.824   9.163  0.3512  0.6426 -1.0799
 6709TIP3    H241687   5.198   4.771   9.086  0.4142 -0.4627 -0.4226
 6710TIP3   OH241688   0.131   2.703   1.016 -0.5104 -0.5146 -0.2158
 6710TIP3    H141689   0.215   2.725   0.975 -1.3714  1.1757 -1.1841
 6710TIP3    H241690   0.143   2.614   1.050  2.4749  0.5530  1.9220
 6711TIP3   OH241691   3.192   4.214   7.417 -0.0064 -0.5161 -0.4625
 6711TIP3    H141692   3.116   4.268   7.435  1.8534  1.9233  0.5834
 6711TIP3    H241693   3.156   4.132   7.384 -3.0802  0.2491  0.6956
 6712TIP3   OH241694   1.443   5.782   2.402 -0.0125 -0.4164 -0.1782
 6712TIP3    H141695   1.524   5.812   2.362 -0.0448 -0.2903 -0.1483
 6712TIP3    H241696   1.400   5.862   2.434  0.0664 -0.5322  0.2135
 6713TIP3   OH241697   5.857   0.890   8.175 -0.4277  0.0844 -0.0219
 6713TIP3    H141698   5.802   0.955   8.132 -1.2551 -0.5179  0.1080
 6713TIP3    H241699   5.908   0.851   8.104 -0.8151  0.0280 -0.2685
 6714TIP3   OH241700   2.969   3.192   7.404  0.0428 -0.2127  0.1924
 6714TIP3    H141701   3.013   3.261   7.453 -1.6878  2.4303 -1.6935
 6714TIP3    H241702   3.040   3.146   7.359  1.2924 -0.0347  1.8692
 6715TIP3   OH241703   0.836   5.449   9.265  0.0801  0.3523  0.4185
 6715TIP3    H141704   0.806   5.508   9.195 -0.8997 -0.7915 -0.1527
 6715TIP3    H241705   0.928   5.431   9.243 -0.4489 -0.7020 -1.1265
 6716TIP3   OH241706   2.241   1.812   8.607  0.5133  0.7073  0.4041
 6716TIP3    H141707   2.214   1.863   8.531  1.2489 -0.1303 -0.4607
 6716TIP3    H241708   2.265   1.877   8.673  0.5592  1.4648 -0.3433
 6717TIP3   OH241709   1.645   4.649   9.031  0.1830  0.0400 -0.1042
 6717TIP3    H141710   1.550   4.644   9.041  0.2168 -0.4662  0.0231
 6717TIP3    H241711   1.674   4.558   9.038  0.4505 -0.1148 -2.4736
 6718TIP3   OH241712   3.429   3.796   0.863 -0.0762 -0.3054 -0.2677
 6718TIP3    H141713   3.358   3.776   0.802  0.8325 -0.4211 -1.3213
 6718TIP3    H241714   3.507   3.800   0.808  0.6851  0.1598  0.8182
 6719TIP3   OH241715   5.246   4.817   0.228  0.0602 -0.7009 -1.1829
 6719TIP3    H141716   5.320   4.875   0.210 -0.4140 -0.7382 -3.4644
 6719TIP3    H241717   5.286   4.738   0.263  0.9576 -0.1498 -0.9234
 6720TIP3   OH241718   2.071   0.110   8.006 -0.5017  0.4962  0.0773
 6720TIP3    H141719   2.065   0.093   8.100 -0.6993 -1.7350 -0.3030
 6720TIP3    H241720   2.129   0.186   8.000 -0.7713  0.9150  2.0112
 6721TIP3   OH241721   2.347   1.367   9.199 -0.2000  0.2399  0.0554
 6721TIP3    H141722   2.335   1.458   9.171 -3.0746 -0.5848 -1.9005
 6721TIP3    H241723   2.341   1.370   9.295  1.8929  2.2773  0.1986
 6722TIP3   OH241724   6.567   2.280   0.313 -0.2214 -0.3104 -0.7067
 6722TIP3    H141725   6.542   2.300   0.403  0.2174  1.8983 -1.0192
 6722TIP3    H241726   6.653   2.239   0.321  0.7961  1.8230 -0.1932
 6723TIP3   OH241727   5.607   3.665   1.864  0.3629 -0.2860  0.1814
 6723TIP3    H141728   5.698   3.668   1.894  0.0534  0.1513  1.1201
 6723TIP3    H241729   5.595   3.576   1.832  1.4052 -0.0637 -0.9014
 6724TIP3   OH241730   2.733   4.481   8.073  1.0067 -0.2198  0.0350
 6724TIP3    H141731   2.708   4.427   7.998 -0.1623  0.0436  0.2156
 6724TIP3    H241732   2.710   4.428   8.150 -0.5728  0.6710  0.2208
 6725TIP3   OH241733   3.582   0.149   1.159 -0.1248  0.5398 -0.3281
 6725TIP3    H141734   3.598   0.211   1.089 -0.7665 -0.7154 -1.6354
 6725TIP3    H241735   3.489   0.128   1.153  0.2144 -1.0636 -0.3962
 6726TIP3   OH241736   3.383   4.920   0.292  0.0035  0.1327  0.1926
 6726TIP3    H141737   3.291   4.900   0.307  0.1412 -0.2726  0.5196
 6726TIP3    H241738   3.430   4.863   0.353  0.3983  2.0571  1.7638
 6727TIP3   OH241739   3.094   3.137   8.033  0.0478 -0.3437  0.3351
 6727TIP3    H141740   3.126   3.219   7.996 -3.0218  0.3471 -1.0945
 6727TIP3    H241741   3.102   3.074   7.962 -1.5350 -0.1860 -0.0073
 6728TIP3   OH241742   5.032   1.100   1.485 -0.1708 -0.3830  0.4617
 6728TIP3    H141743   5.062   1.112   1.575  2.3349  0.3078 -0.3609
 6728TIP3    H241744   4.981   1.178   1.466 -0.4335 -0.3746  1.1726
 6729TIP3   OH241745   3.850   1.962   8.497 -0.3046 -0.7722  0.1368
 6729TIP3    H141746   3.875   1.956   8.590  2.7845 -2.8841 -0.6704
 6729TIP3    H241747   3.757   1.983   8.499 -0.1116  0.5854  3.6774
 6730TIP3   OH241748   5.552   4.459   2.587 -0.0448  0.8945  0.3687
 6730TIP3    H141749   5.541   4.364   2.589 -1.7894  1.0693  1.1884
 6730TIP3    H241750   5.462   4.493   2.591  0.5432  2.5833  0.0215
 6731TIP3   OH241751   5.828   1.234   1.668  0.2427 -0.3670  0.1922
 6731TIP3    H141752   5.883   1.221   1.591 -0.4716 -0.2844 -0.3413
 6731TIP3    H241753   5.882   1.284   1.728  0.4017  0.5901 -0.7289
 6732TIP3   OH241754   2.816   5.352   0.145  0.0948 -0.7443 -0.3843
 6732TIP3    H141755   2.855   5.265   0.154  1.4003 -0.2793 -1.2457
 6732TIP3    H241756   2.770   5.348   0.061  1.7136 -0.0728 -1.3490
 6733TIP3   OH241757   4.237   3.196   6.901  0.0797  0.1772  0.3966
 6733TIP3    H141758   4.318   3.206   6.952  1.2956 -3.7336 -0.3856
 6733TIP3    H241759   4.264   3.145   6.824 -3.1979 -2.0700  0.5504
 6734TIP3   OH241760   4.665   3.088   0.549  0.3648 -0.6760  0.6104
 6734TIP3    H141761   4.680   3.169   0.501 -2.7954  0.3355  1.0615
 6734TIP3    H241762   4.752   3.057   0.573  1.8285  1.0800 -1.9661
 6735TIP3   OH241763   4.136   1.856   1.677 -0.7398 -0.2040 -0.0978
 6735TIP3    H141764   4.105   1.916   1.745  0.1168 -2.3064  2.3200
 6735TIP3    H241765   4.217   1.895   1.646  0.9197 -0.9702  2.9226
 6736TIP3   OH241766   3.322   2.619   8.732 -0.0599 -0.7656 -0.2816
 6736TIP3    H141767   3.397   2.638   8.789  0.5546  0.2325 -1.3829
 6736TIP3    H241768   3.322   2.524   8.723 -0.0094 -0.9270  1.1356
 6737TIP3   OH241769   1.880   3.744   0.761  0.4623 -0.0988  0.8419
 6737TIP3    H141770   1.888   3.834   0.793  0.2186  1.1552 -2.2045
 6737TIP3    H241771   1.910   3.690   0.833  3.0943  2.5417  1.9475
 6738TIP3   OH241772   2.227   2.791   7.733 -0.3343  0.2262 -0.3994
 6738TIP3    H141773   2.145   2.743   7.725 -2.5483  3.3896  1.1140
 6738TIP3    H241774   2.246   2.822   7.645 -0.9084 -0.3088 -0.7136
 6739TIP3   OH241775   6.515   3.076   9.045 -0.1067 -0.1938  0.1297
 6739TIP3    H141776   6.521   3.171   9.036  0.7727 -0.1099  1.2927
 6739TIP3    H241777   6.555   3.058   9.130  1.2928 -1.7625 -0.7974
 6740TIP3   OH241778   5.960   2.140   1.043 -0.6057  0.2456 -0.2235
 6740TIP3    H141779   5.951   2.203   1.114 -0.3900  1.1175 -0.9545
 6740TIP3    H241780   5.888   2.160   0.983 -0.5101 -0.1757 -0.4863
 6741TIP3   OH241781   4.969   5.264   1.076  0.1153 -0.4761 -0.3561
 6741TIP3    H141782   4.919   5.264   0.995  0.9382 -0.5289 -0.8757
 6741TIP3    H241783   5.059   5.246   1.049  0.3110 -1.0985  0.6221
 6742TIP3   OH241784   2.481   1.379   2.143 -0.2423  0.2120  0.5835
 6742TIP3    H141785   2.520   1.359   2.229  1.2209  0.5058  0.0255
 6742TIP3    H241786   2.387   1.376   2.158 -0.0258 -0.7775  1.9620
 6743TIP3   OH241787   5.997   0.778   7.940  0.2684 -0.0164  0.1800
 6743TIP3    H141788   5.949   0.698   7.922 -0.3079  0.2975  0.2792
 6743TIP3    H241789   6.019   0.813   7.854  1.8586 -1.0536  0.1390
 6744TIP3   OH241790   2.845   5.889   8.763  0.1921  0.2802  0.7705
 6744TIP3    H141791   2.864   5.802   8.799  1.9349  1.0208  1.7672
 6744TIP3    H241792   2.873   5.883   8.672 -0.0920 -0.3271  0.7176
 6745TIP3   OH241793   0.159   0.776   1.999  0.2621  0.1052  0.1343
 6745TIP3    H141794   0.154   0.681   1.988 -0.4119  0.3030 -1.7026
 6745TIP3    H241795   0.248   0.799   1.973 -0.4555  0.2313 -2.6135
 6746TIP3   OH241796   3.871   4.349   1.307  0.0399 -0.5271 -0.1051
 6746TIP3    H141797   3.813   4.278   1.282 -0.6893 -0.0616  0.2506
 6746TIP3    H241798   3.837   4.381   1.390  0.6935 -0.1234  0.0216
 6747TIP3   OH241799   2.286   5.840   2.864  0.1304  0.2035 -0.0488
 6747TIP3    H141800   2.309   5.750   2.885  1.3755  0.3006 -0.8866
 6747TIP3    H241801   2.288   5.885   2.949 -0.3220 -0.5013  0.3472
 6748TIP3   OH241802   3.197   4.521   2.499 -0.0799  0.3569  0.1800
 6748TIP3    H141803   3.256   4.448   2.481 -1.0614 -0.2019 -0.9398
 6748TIP3    H241804   3.189   4.567   2.415 -0.3459  1.0955  0.5963
 6749TIP3   OH241805   0.530   3.045   7.846 -0.3853 -0.1915  0.1989
 6749TIP3    H141806   0.449   3.049   7.898 -0.4344 -0.2458  0.1279
 6749TIP3    H241807   0.587   3.110   7.886 -1.9456  2.9618 -2.2809
 6750TIP3   OH241808   6.278   0.174   0.554  0.0307 -0.6436 -0.3754
 6750TIP3    H141809   6.306   0.265   0.544  1.5032 -1.1790 -1.5561
 6750TIP3    H241810   6.314   0.146   0.638 -0.6901 -0.0691  0.1356
 6751TIP3   OH241811   1.248   0.518   1.468  0.1769  0.3239  0.4290
 6751TIP3    H141812   1.178   0.504   1.532  0.9499  1.8940  1.6803
 6751TIP3    H241813   1.255   0.613   1.461  1.2372  0.1760 -0.7427
 6752TIP3   OH241814   6.534   6.297   2.303 -0.0786  0.4478 -0.3547
 6752TIP3    H141815   6.473   6.369   2.319  1.0633  1.5026 -0.6292
 6752TIP3    H241816   6.542   6.253   2.388  0.1353  1.3815  0.1174
 6753TIP3   OH241817   3.308   6.157   0.764  0.2665  0.3343  0.5440
 6753TIP3    H141818   3.392   6.114   0.747  0.2019  0.6900 -0.8200
 6753TIP3    H241819   3.260   6.095   0.818  1.8298  0.6263  2.3731
 6754TIP3   OH241820   3.299   2.453   7.302 -0.3142  0.2357  0.1133
 6754TIP3    H141821   3.371   2.474   7.242  0.4197  1.0923  1.2447
 6754TIP3    H241822   3.233   2.412   7.247  0.5908  0.4348 -1.1643
 6755TIP3   OH241823   1.786   2.281   1.698 -0.0990 -0.3462  0.5740
 6755TIP3    H141824   1.753   2.371   1.694 -0.3412 -0.3868  1.3489
 6755TIP3    H241825   1.709   2.227   1.681  0.7705 -0.4429 -4.2182
 6756TIP3   OH241826   4.471   2.854   1.655 -0.2780 -0.7051  0.3604
 6756TIP3    H141827   4.502   2.904   1.580 -3.0435 -0.8745 -1.0040
 6756TIP3    H241828   4.551   2.819   1.694  1.4975  1.9545 -0.5893
 6757TIP3   OH241829   4.354   5.565   7.969  0.0748 -0.8114 -0.0818
 6757TIP3    H141830   4.368   5.519   7.886  0.9949 -1.9041  0.6356
 6757TIP3    H241831   4.436   5.613   7.985 -0.1512 -0.4860  0.1110
 6758TIP3   OH241832   3.675   2.216   7.837 -1.0989 -0.2172 -0.2201
 6758TIP3    H141833   3.596   2.215   7.890 -0.0924  2.3776  1.5113
 6758TIP3    H241834   3.746   2.235   7.899  0.3475  1.3615 -2.2046
 6759TIP3   OH241835   3.118   6.238   8.837 -0.2351 -0.2731 -0.2509
 6759TIP3    H141836   3.205   6.278   8.836 -0.4279  0.1399 -0.7621
 6759TIP3    H241837   3.135   6.146   8.813 -0.1055  0.1789 -2.0238
 6760TIP3   OH241838   2.221   4.095   2.330 -0.3345 -0.5591 -0.1539
 6760TIP3    H141839   2.286   4.054   2.388 -0.7026  1.2516  1.6371
 6760TIP3    H241840   2.149   4.032   2.326  0.1689 -1.1865  0.4810
 6761TIP3   OH241841   0.874   0.965   2.409  0.7860 -0.0454  0.2949
 6761TIP3    H141842   0.860   0.915   2.329  2.6393 -2.9000  1.5893
 6761TIP3    H241843   0.942   1.029   2.385  3.3045 -2.5962  0.0566
 6762TIP3   OH241844   2.254   2.166   2.378  0.1769  0.1897  0.4729
 6762TIP3    H141845   2.308   2.245   2.384 -0.3793  0.4402  3.2889
 6762TIP3    H241846   2.304   2.099   2.426  0.0137 -0.8349 -0.7264
 6763TIP3   OH241847   2.214   2.356   7.984  0.1518 -0.3483 -0.1556
 6763TIP3    H141848   2.207   2.288   8.052  0.2028 -2.7460 -2.3833
 6763TIP3    H241849   2.127   2.360   7.946  0.3431  0.3321 -0.5314
 6764TIP3   OH241850   5.419   3.133   3.055  0.3041 -0.6595  0.3637
 6764TIP3    H141851   5.512   3.109   3.054  0.6974  0.7848  0.7153
 6764TIP3    H241852   5.379   3.071   3.116  0.8274 -1.9668 -0.5750
 6765TIP3   OH241853   6.493   5.526   0.464 -0.4737  0.4715  0.0582
 6765TIP3    H141854   6.487   5.620   0.449 -0.7766  0.2313 -1.5136
 6765TIP3    H241855   6.575   5.514   0.512 -0.0063  1.4537 -0.4655
 6766TIP3   OH241856   2.929   0.854   7.728 -0.1014 -0.2064 -0.3054
 6766TIP3    H141857   2.989   0.888   7.661  0.1667  0.0625  0.0650
 6766TIP3    H241858   2.906   0.931   7.781 -1.3717 -0.1539 -0.8919
 6767TIP3   OH241859   1.240   3.574   1.741 -0.1634  0.0864 -0.0164
 6767TIP3    H141860   1.212   3.661   1.715  0.7434  0.5614  0.5266
 6767TIP3    H241861   1.263   3.530   1.659 -0.6434  0.3474 -0.2900
 6768TIP3   OH241862   2.002   6.646   8.583  0.0894  0.1348 -0.2060
 6768TIP3    H141863   1.990   6.666   8.676  2.6935 -0.5400  0.3439
 6768TIP3    H241864   2.042   6.559   8.582  1.2313  0.6355 -1.8996
 6769TIP3   OH241865   3.021   0.297   1.096 -0.0889  0.2576 -0.6298
 6769TIP3    H141866   2.926   0.293   1.087 -0.0514 -0.5680 -0.6780
 6769TIP3    H241867   3.054   0.248   1.021  0.3723  0.3378 -0.4799
 6770TIP3   OH241868   5.649   2.626   7.825 -0.2193  0.1437 -0.1546
 6770TIP3    H141869   5.694   2.691   7.772 -0.7589 -0.9178 -1.9960
 6770TIP3    H241870   5.580   2.676   7.869  0.9910  1.2658  0.5501
 6771TIP3   OH241871   1.303   3.021   1.973 -0.6892 -0.3241  0.2884
 6771TIP3    H141872   1.311   3.003   1.879 -1.2493  1.5896 -0.1607
 6771TIP3    H241873   1.363   3.093   1.989  1.0711 -2.0512  1.9100
 6772TIP3   OH241874   6.045   3.032   7.980  0.1045 -0.1969 -0.0327
 6772TIP3    H141875   5.957   3.068   7.969 -0.4032 -0.1357  3.1848
 6772TIP3    H241876   6.091   3.056   7.900 -2.7276 -0.0829 -1.7564
 6773TIP3   OH241877   1.230   4.494   2.503 -0.0599 -0.8930  0.1994
 6773TIP3    H141878   1.142   4.499   2.465 -0.1066 -0.2266  0.3905
 6773TIP3    H241879   1.288   4.480   2.428 -0.0353  1.4270 -0.2833
 6774TIP3   OH241880   4.354   4.558   7.695  0.7316  0.0917 -0.0443
 6774TIP3    H141881   4.282   4.503   7.664 -0.1336  1.8072 -1.2048
 6774TIP3    H241882   4.390   4.597   7.615  1.8114  0.6473  0.6915
 6775TIP3   OH241883   5.220   0.325   8.058  0.0671 -0.2820  0.5675
 6775TIP3    H141884   5.205   0.418   8.043  0.9968 -0.4177 -1.6905
 6775TIP3    H241885   5.153   0.281   8.005  0.6516 -0.8724  0.2990
 6776TIP3   OH241886   4.097   4.274   7.535 -0.0136  0.5950 -0.0686
 6776TIP3    H141887   4.016   4.272   7.484 -1.2065  0.5477  1.7261
 6776TIP3    H241888   4.078   4.333   7.609  1.2263 -0.2247  0.9622
 6777TIP3   OH241889   4.083   5.235   2.767 -0.4998 -0.0613  0.0988
 6777TIP3    H141890   4.152   5.169   2.773  0.0231  0.5881  2.5601
 6777TIP3    H241891   4.034   5.225   2.849 -0.7331  2.2394  0.2946
 6778TIP3   OH241892   5.524   3.694   9.246  0.2299  0.0920 -0.2286
 6778TIP3    H141893   5.585   3.725   9.313 -0.5919  1.3973 -0.0516
 6778TIP3    H241894   5.529   3.759   9.176 -0.4979 -0.1139 -0.4875
 6779TIP3   OH241895   3.906   3.727   0.747  0.0526  0.6366 -0.4321
 6779TIP3    H141896   3.880   3.699   0.835  0.2976 -0.5800 -0.7196
 6779TIP3    H241897   3.970   3.661   0.719 -1.2086  0.0523 -2.1571
 6780TIP3   OH241898   1.719   4.406   8.551 -0.0270  0.0076  0.6008
 6780TIP3    H141899   1.733   4.397   8.645 -1.0530  0.5253  0.8079
 6780TIP3    H241900   1.803   4.437   8.517 -0.0197  1.0163  1.5161
 6781TIP3   OH241901   0.822   0.177   2.294 -0.2210  0.3987  0.2938
 6781TIP3    H141902   0.759   0.162   2.365 -1.2644  1.5979 -0.3376
 6781TIP3    H241903   0.887   0.235   2.333 -0.7346  0.9724  0.3266
 6782TIP3   OH241904   6.087   3.305   8.466 -0.0732 -0.6561  0.8615
 6782TIP3    H141905   6.094   3.277   8.374 -2.4737 -0.3086  0.5122
 6782TIP3    H241906   6.056   3.228   8.513 -0.5570 -0.3437  1.0578
 6783TIP3   OH241907   0.299   1.990   0.921 -0.2954 -0.0936  0.0303
 6783TIP3    H141908   0.344   2.015   1.001 -1.3208 -1.8027  1.2308
 6783TIP3    H241909   0.245   2.066   0.899 -0.0752  0.3715  1.0301
 6784TIP3   OH241910   4.372   6.521   9.189  0.0907 -0.8327 -0.2918
 6784TIP3    H141911   4.356   6.428   9.177 -1.7487 -0.6348  0.3946
 6784TIP3    H241912   4.466   6.531   9.170 -0.2402 -2.2747 -3.4636
 6785TIP3   OH241913   5.839   0.872   1.821 -0.3173  0.9828  0.4958
 6785TIP3    H141914   5.877   0.937   1.880  1.5197  0.1524  0.2962
 6785TIP3    H241915   5.914   0.839   1.771 -1.3760 -0.4893 -0.1707
 6786TIP3   OH241916   4.755   5.909   0.110  0.0193  0.0893  0.3525
 6786TIP3    H141917   4.771   5.933   0.018 -0.7923 -1.5550 -0.2775
 6786TIP3    H241918   4.669   5.947   0.129 -0.6643 -1.1089 -0.2109
 6787TIP3   OH241919   1.916   1.231   0.874  0.2119  0.8288  0.3394
 6787TIP3    H141920   1.822   1.252   0.871  0.0934  0.3608 -2.9618
 6787TIP3    H241921   1.921   1.148   0.921 -1.2145  0.2770 -0.4220
 6788TIP3   OH241922   4.755   3.846   8.163  0.1998 -0.4456  0.7667
 6788TIP3    H141923   4.816   3.774   8.178  2.9283  1.3124 -0.9810
 6788TIP3    H241924   4.730   3.838   8.071 -1.0385 -0.2550  1.0669
 6789TIP3   OH241925   0.229   0.129   0.837 -0.3020 -0.5700 -0.0830
 6789TIP3    H141926   0.151   0.097   0.881 -0.3602 -0.2288  0.0686
 6789TIP3    H241927   0.256   0.205   0.889 -0.4725 -0.0591 -0.7295
 6790TIP3   OH241928   3.772   0.529   8.045  0.1602 -0.1895 -0.0363
 6790TIP3    H141929   3.711   0.463   8.078  2.7275 -0.7822  4.4086
 6790TIP3    H241930   3.851   0.480   8.024  1.4874  1.1500  1.5550
 6791TIP3   OH241931   0.320   6.299   1.272  0.4898 -0.5376 -0.8262
 6791TIP3    H141932   0.310   6.305   1.177 -1.9118 -0.6313 -0.6469
 6791TIP3    H241933   0.358   6.212   1.287  0.0291 -0.8973 -1.6665
 6792TIP3   OH241934   3.587   1.821   2.194  0.4270 -0.1807 -0.6867
 6792TIP3    H141935   3.623   1.765   2.263  0.8887  0.4339 -0.4304
 6792TIP3    H241936   3.658   1.880   2.170 -0.4424  1.1971 -0.0116
 6793TIP3   OH241937   2.722   2.468   1.568 -0.3938  0.2951 -0.7781
 6793TIP3    H141938   2.652   2.443   1.628 -1.0734  1.3315 -1.1265
 6793TIP3    H241939   2.700   2.424   1.486  1.3554 -2.4198  0.0495
 6794TIP3   OH241940   0.526   5.345   0.621 -0.4006  0.1515  0.3107
 6794TIP3    H141941   0.449   5.358   0.677 -1.0318  0.9942 -0.7274
 6794TIP3    H241942   0.580   5.422   0.636 -1.1968  1.0265 -1.2028
 6795TIP3   OH241943   0.514   5.065   1.989  0.3186  0.5148 -0.3638
 6795TIP3    H141944   0.589   5.119   2.014 -0.7281  2.4523 -1.1731
 6795TIP3    H241945   0.442   5.098   2.042 -0.6102  0.7427 -1.7063
 6796TIP3   OH241946   5.558   6.327   2.483 -0.4024 -0.0198 -0.4766
 6796TIP3    H141947   5.503   6.327   2.404 -1.2458  0.5393  0.0846
 6796TIP3    H241948   5.535   6.246   2.528 -1.3184  0.5319  0.0987
 6797TIP3   OH241949   6.023   2.492   8.320  0.5338  0.6559 -0.1167
 6797TIP3    H141950   5.959   2.499   8.249 -0.3840  0.4151  0.6621
 6797TIP3    H241951   6.092   2.437   8.284 -1.4165 -2.2345  0.1840
 6798TIP3   OH241952   0.928   5.257   8.734 -0.1469 -0.3592 -0.2203
 6798TIP3    H141953   0.974   5.340   8.716  1.8311 -1.2044  0.6263
 6798TIP3    H241954   0.962   5.197   8.668  0.4646 -1.1727  0.8133
 6799TIP3   OH241955   0.858   6.583   2.539 -0.0088  0.2595  0.6256
 6799TIP3    H141956   0.825   6.631   2.615  0.7577  1.9396 -0.0500
 6799TIP3    H241957   0.947   6.614   2.528  1.0509 -2.4183  0.9688
 6800TIP3   OH241958   3.662   1.642   0.460 -0.6647 -0.3119 -0.1629
 6800TIP3    H141959   3.672   1.555   0.498 -1.2101  0.1755  1.1503
 6800TIP3    H241960   3.571   1.664   0.474 -0.4176  0.6666 -0.0444
 6801TIP3   OH241961   4.257   2.419   2.610 -0.2428 -0.5741  0.1732
 6801TIP3    H141962   4.318   2.475   2.659  1.8080 -1.2822 -1.4716
 6801TIP3    H241963   4.252   2.339   2.662 -0.4961 -0.1849  0.7675
 6802TIP3   OH241964   5.061   4.119   1.429  0.3277  0.4235 -0.3915
 6802TIP3    H141965   5.054   4.026   1.409 -0.4849 -0.0720  1.8383
 6802TIP3    H241966   5.023   4.127   1.516  0.3994  2.8604 -0.5233
 6803TIP3   OH241967   4.424   0.596   2.597  0.3314  0.4435 -0.2690
 6803TIP3    H141968   4.336   0.622   2.571  0.6514 -1.0761 -3.2314
 6803TIP3    H241969   4.411   0.514   2.646 -0.0006  1.2919  1.1102
 6804TIP3   OH241970   4.912   6.363   2.333 -0.4379  0.1566  0.0513
 6804TIP3    H141971   4.974   6.395   2.268  0.7043  0.5216  1.2710
 6804TIP3    H241972   4.860   6.439   2.357 -2.1975 -0.3867 -1.7955
 6805TIP3   OH241973   1.144   5.111   8.106 -0.3547 -0.6297 -0.6219
 6805TIP3    H141974   1.161   5.150   8.192  1.1887 -0.9741 -0.7421
 6805TIP3    H241975   1.117   5.185   8.051  0.0982 -0.1529 -0.2100
 6806TIP3   OH241976   3.688   4.803   9.108 -0.5841 -0.1306  0.4054
 6806TIP3    H141977   3.698   4.771   9.198 -2.2402  1.1111  1.0709
 6806TIP3    H241978   3.773   4.785   9.067 -0.2470 -2.0158  1.7691
 6807TIP3   OH241979   5.395   5.632   0.737 -0.3311  0.4129  0.3269
 6807TIP3    H141980   5.348   5.565   0.687  0.7784 -0.5250  0.4834
 6807TIP3    H241981   5.327   5.692   0.768 -1.4024 -0.8011  0.4124
 6808TIP3   OH241982   2.943   3.533   1.424  0.4052 -0.8166  0.2913
 6808TIP3    H141983   2.962   3.585   1.346 -0.6176 -0.6869  0.1103
 6808TIP3    H241984   2.998   3.456   1.415  0.0937 -0.9393 -0.7108
 6809TIP3   OH241985   3.879   5.799   0.815 -0.1073  0.1916 -0.9045
 6809TIP3    H141986   3.791   5.766   0.835 -0.7532  1.9749 -0.6233
 6809TIP3    H241987   3.921   5.727   0.769 -1.6523 -0.7748 -0.8931
 6810TIP3   OH241988   3.865   1.675   7.682 -0.1318  0.6533  0.3327
 6810TIP3    H141989   3.875   1.588   7.644  0.3673  0.8653 -0.0211
 6810TIP3    H241990   3.794   1.715   7.632 -0.7830  0.2366  0.8955
 6811TIP3   OH241991   0.058   1.402   1.193 -0.0123 -0.2858 -0.2348
 6811TIP3    H141992   0.113   1.457   1.249 -1.6369  1.5197 -0.2792
 6811TIP3    H241993  -0.031   1.436   1.206 -1.0028 -2.4413 -0.8823
 6812TIP3   OH241994   3.935   4.199   7.878  0.4422  0.1801 -0.2717
 6812TIP3    H141995   3.907   4.281   7.839 -0.2718 -0.1317 -0.4302
 6812TIP3    H241996   3.911   4.132   7.814  1.0956 -0.1454 -0.1819
 6813TIP3   OH241997   4.302   5.401   0.273  0.2087  0.0243 -0.0875
 6813TIP3    H141998   4.271   5.313   0.295  4.0398 -1.3733  0.4195
 6813TIP3    H241999   4.321   5.397   0.179  2.0278 -0.3463  0.2582
 6814TIP3   OH242000   0.476   4.013   1.186  0.0280 -0.5518 -0.6007
 6814TIP3    H142001   0.513   3.955   1.253  0.5241 -0.3564 -0.7030
 6814TIP3    H242002   0.404   4.059   1.231  0.0915 -0.7212 -0.3210
 6815TIP3   OH242003   1.259   5.349   2.313  0.1569  0.2155 -0.3666
 6815TIP3    H142004   1.291   5.433   2.282  0.7541  0.2534  0.3324
 6815TIP3    H242005   1.164   5.352   2.297  0.2673  0.7486 -0.9504
 6816TIP3   OH242006   4.983   4.814   1.999 -0.3159  0.0284 -0.5626
 6816TIP3    H142007   4.938   4.845   2.078  0.0839 -2.3621  0.7253
 6816TIP3    H242008   5.054   4.759   2.033  0.5658 -0.1893 -2.6022
 6817TIP3   OH242009   4.617   3.395   1.454  0.0421 -0.2776  0.0207
 6817TIP3    H142010   4.553   3.428   1.517  0.6681  1.2227 -0.0763
 6817TIP3    H242011   4.571   3.327   1.406 -0.3586 -1.7455  2.2997
 6818TIP3   OH242012   1.106   6.399   2.480  0.6280 -0.5804  0.1982
 6818TIP3    H142013   1.019   6.414   2.443  0.5130  0.1358  0.7365
 6818TIP3    H242014   1.125   6.307   2.461 -0.4311 -0.8640  0.4582
 6819TIP3   OH242015   1.852   3.707   1.928  0.2397 -0.0435 -0.4821
 6819TIP3    H142016   1.767   3.666   1.941 -0.4605  1.6014  0.4325
 6819TIP3    H242017   1.834   3.801   1.929  2.0911  0.3526 -0.0415
 6820TIP3   OH242018   0.422   1.726   2.255 -0.0501 -0.0306 -0.4486
 6820TIP3    H142019   0.512   1.719   2.224 -0.1926 -1.6933 -0.5803
 6820TIP3    H242020   0.375   1.769   2.184  0.2957 -0.8019 -1.1668
 6821TIP3   OH242021   4.736   2.185   2.121 -0.8914  0.0842  0.0642
 6821TIP3    H142022   4.756   2.231   2.203  1.6592 -1.6677  0.5416
 6821TIP3    H242023   4.749   2.251   2.053  1.0887  0.5439  0.8210
 6822TIP3   OH242024   0.434   6.312   8.523 -0.1738 -0.5210  0.2223
 6822TIP3    H142025   0.424   6.399   8.484 -1.1417 -1.0777 -0.7967
 6822TIP3    H242026   0.503   6.270   8.471 -1.4278 -1.2431 -0.9071
 6823TIP3   OH242027   2.243   3.065   8.462  0.3479  0.2190 -0.5280
 6823TIP3    H142028   2.301   3.121   8.514  0.4740  0.0163 -0.4489
 6823TIP3    H242029   2.227   3.115   8.382 -1.7569  1.6103  0.6551
 6824TIP3   OH242030   4.027   1.535   0.400  0.0158  0.0793 -0.1475
 6824TIP3    H142031   3.944   1.494   0.376  0.6452 -1.1474 -0.3097
 6824TIP3    H242032   4.058   1.483   0.474  1.0080  0.0384 -0.5856
 6825TIP3   OH242033   2.576   2.035   8.353 -0.3751 -0.1271  0.0507
 6825TIP3    H142034   2.540   2.114   8.392 -1.3911  0.1999 -1.4700
 6825TIP3    H242035   2.671   2.047   8.356 -0.5143  1.9941 -1.7604
 6826TIP3   OH242036   0.603   1.686   8.464  0.1269 -0.0671  0.1555
 6826TIP3    H142037   0.609   1.615   8.529 -0.3490  0.4591  0.7829
 6826TIP3    H242038   0.692   1.722   8.460  0.0530  0.2193  0.8896
 6827TIP3   OH242039   3.822   4.670   0.625 -0.1409 -0.1307  0.0997
 6827TIP3    H142040   3.842   4.750   0.674  0.5347 -0.7432  0.8251
 6827TIP3    H242041   3.901   4.651   0.575 -0.8028  0.4678 -1.2673
 6828TIP3   OH242042   4.084   0.967   2.294 -0.4601 -0.1256 -0.2606
 6828TIP3    H142043   4.153   0.903   2.278 -0.5759 -0.3792  0.2353
 6828TIP3    H242044   4.125   1.033   2.349 -0.4171  0.0866 -0.5465
 6829TIP3   OH242045   3.595   5.800   7.721  0.5087 -0.2995  0.2937
 6829TIP3    H142046   3.518   5.776   7.670  0.7853  3.0915 -2.0929
 6829TIP3    H242047   3.669   5.767   7.670  0.7287 -1.0749  1.0923
 6830TIP3   OH242048   5.307   5.203   2.619 -0.2907  0.1188 -0.1329
 6830TIP3    H142049   5.402   5.197   2.623 -0.3787 -1.2598  3.1327
 6830TIP3    H242050   5.282   5.147   2.546  1.3545  1.1770 -1.6076
 6831TIP3   OH242051   1.497   6.125   1.456  0.5567 -0.3350  0.9192
 6831TIP3    H142052   1.579   6.176   1.453 -0.2135  0.8980 -0.2622
 6831TIP3    H242053   1.526   6.034   1.448  1.7448  0.1792 -3.5095
 6832TIP3   OH242054   2.275   2.722   1.612 -0.0209  0.2610  0.1935
 6832TIP3    H142055   2.265   2.762   1.525 -2.1508 -1.4024 -0.4304
 6832TIP3    H242056   2.192   2.676   1.626  1.6037 -2.5320  1.5282
 6833TIP3   OH242057   5.816   0.002   7.811  0.5800 -0.3802  0.1695
 6833TIP3    H142058   5.779  -0.036   7.890 -0.2901 -1.4040 -0.6908
 6833TIP3    H242059   5.895  -0.050   7.794 -0.5567 -1.8269 -0.9529
 6834TIP3   OH242060   0.040   5.802   1.094 -0.0597 -0.1145 -0.3770
 6834TIP3    H142061   0.050   5.843   1.008  2.0791  2.0076  0.7687
 6834TIP3    H242062   0.121   5.753   1.107 -0.8209 -1.2989  0.0165
 6835TIP3   OH242063   0.403   5.655   2.001 -0.9498  0.1159 -0.0425
 6835TIP3    H142064   0.449   5.737   2.018  0.2772 -0.7776  1.1453
 6835TIP3    H242065   0.401   5.647   1.906  0.7881  0.5242 -0.1396
 6836TIP3   OH242066   3.314   1.370   7.391 -0.1791  0.6646 -0.0418
 6836TIP3    H142067   3.278   1.283   7.406 -0.8017  0.2932 -3.0749
 6836TIP3    H242068   3.242   1.430   7.411 -0.5810  0.3046 -0.3944
 6837TIP3   OH242069   1.340   5.890   2.827 -0.1551 -0.5280  0.3177
 6837TIP3    H142070   1.368   5.803   2.800  0.6181 -0.9143  2.1986
 6837TIP3    H242071   1.412   5.922   2.881 -0.0431  1.6399 -0.9970
 6838TIP3   OH242072   0.900   0.561   8.531 -0.4719  0.6500 -0.0468
 6838TIP3    H142073   0.876   0.598   8.446 -1.1963  1.7180  0.5929
 6838TIP3    H242074   0.825   0.581   8.587 -0.8013 -1.6561  0.4055
 6839TIP3   OH242075   0.473   1.767   8.157 -0.3555 -0.2795  0.4401
 6839TIP3    H142076   0.567   1.761   8.139 -0.4812 -1.8309  0.2295
 6839TIP3    H242077   0.440   1.679   8.144 -1.4270 -0.3391  2.9367
 6840TIP3   OH242078   1.483   1.187   9.254 -0.0921  0.4857  0.3594
 6840TIP3    H142079   1.440   1.269   9.227  0.0658  0.8350  1.1310
 6840TIP3    H242080   1.575   1.201   9.233 -0.0062  0.6613  0.8562
 6841TIP3   OH242081   2.791   0.364   8.678  0.2971  0.1435  0.0083
 6841TIP3    H142082   2.723   0.302   8.652 -0.9342 -0.1159  3.2961
 6841TIP3    H242083   2.859   0.310   8.717  0.8962  0.6268 -0.3510
 6842TIP3   OH242084   2.763   4.079   1.838  0.0126 -0.4175 -0.2638
 6842TIP3    H142085   2.702   4.006   1.825 -0.1043 -0.3374 -0.1698
 6842TIP3    H242086   2.848   4.044   1.812 -0.1995 -0.2833 -1.1777
 6843TIP3   OH242087   0.083   2.034   1.223  0.3970  0.1014 -0.3710
 6843TIP3    H142088   0.013   1.985   1.178  0.0500 -0.9153  1.1879
 6843TIP3    H242089   0.067   2.125   1.200 -0.1811 -0.3150 -1.7172
 6844TIP3   OH242090   5.384   1.229   0.169 -0.4708 -0.5118 -0.5857
 6844TIP3    H142091   5.415   1.143   0.199 -0.3814 -0.4783 -0.5797
 6844TIP3    H242092   5.290   1.228   0.187 -0.2689 -0.1397  0.5790
 6845TIP3   OH242093   6.479   2.574   0.431  0.2694 -0.0286 -0.7494
 6845TIP3    H142094   6.520   2.660   0.446  0.6017 -0.3574  0.3350
 6845TIP3    H242095   6.507   2.521   0.506  0.1619 -1.1278 -1.4657
 6846TIP3   OH242096   0.165   3.726   7.624  0.1520 -0.3211 -0.4244
 6846TIP3    H142097   0.115   3.769   7.694 -1.4662 -0.2918 -1.5358
 6846TIP3    H242098   0.236   3.787   7.604 -1.0594  1.0530 -0.7450
 6847TIP3   OH242099   1.504   3.437   1.659 -0.4590 -0.0235 -0.4584
 6847TIP3    H142100   1.540   3.520   1.688 -0.9668  0.0067  0.1170
 6847TIP3    H242101   1.440   3.460   1.591 -1.5691  0.1875  0.6210
 6848TIP3   OH242102   2.686   4.387   1.247 -0.3729 -0.0781  0.1451
 6848TIP3    H142103   2.698   4.456   1.312 -1.1002 -0.0923  0.2931
 6848TIP3    H242104   2.750   4.320   1.272  1.4025  1.1294 -0.8550
 6849TIP3   OH242105   6.615   2.766   8.493  0.0375  0.0866 -0.1524
 6849TIP3    H142106   6.527   2.798   8.512 -0.2240  0.5205 -1.9148
 6849TIP3    H242107   6.601   2.677   8.460  0.1350  0.5077 -1.3811
 6850TIP3   OH242108   2.143   3.723   8.228 -0.0952  0.2905  0.1088
 6850TIP3    H142109   2.185   3.728   8.313 -0.7882 -1.6530  0.6055
 6850TIP3    H242110   2.213   3.698   8.168  0.3712  1.5628  0.0886
 6851TIP3   OH242111   0.137   2.567   2.386 -0.3270  0.3392  0.3637
 6851TIP3    H142112   0.181   2.635   2.438 -0.3740 -0.9339  2.1631
 6851TIP3    H242113   0.207   2.507   2.361 -0.6317 -0.2586  0.9230
 6852TIP3   OH242114   0.202   2.855   8.582  0.7814  0.1784 -0.4996
 6852TIP3    H142115   0.113   2.842   8.550  0.3226 -0.0522  0.7961
 6852TIP3    H242116   0.251   2.885   8.505 -0.7737  1.8989 -0.9013
 6853TIP3   OH242117   1.380   0.773   1.801  0.1158  0.0303  0.2097
 6853TIP3    H142118   1.364   0.858   1.841 -0.3629 -0.1398  0.3778
 6853TIP3    H242119   1.475   0.762   1.806  0.4130  1.3781 -1.4837
 6854TIP3   OH242120   3.553   2.577   7.472  0.0605 -0.3437  0.2091
 6854TIP3    H142121   3.558   2.486   7.443 -0.3074 -1.1517  2.5165
 6854TIP3    H242122   3.506   2.574   7.555  0.6111  1.8931  0.6766
 6855TIP3   OH242123   2.454   2.673   1.311 -0.0768  0.2545 -0.6947
 6855TIP3    H142124   2.464   2.753   1.362 -0.0152 -0.9163  1.2196
 6855TIP3    H242125   2.542   2.653   1.280  0.2817 -0.1471  0.5485
 6856TIP3   OH242126   6.242   3.944   2.284 -0.0526  0.1985 -0.8192
 6856TIP3    H142127   6.260   3.979   2.372 -1.9361  1.7616 -1.0032
 6856TIP3    H242128   6.302   3.870   2.276  0.7343  0.4950  1.4755
 6857TIP3   OH242129   0.458   4.172   8.500  0.3905 -0.0812  0.5186
 6857TIP3    H142130   0.553   4.183   8.487  0.2093 -0.2762 -1.0353
 6857TIP3    H242131   0.449   4.161   8.595  1.8052  1.0854  0.8281
 6858TIP3   OH242132   1.110   4.722   0.353  0.4408  0.0266  0.8910
 6858TIP3    H142133   1.083   4.773   0.430 -1.7345  0.6257 -0.1882
 6858TIP3    H242134   1.056   4.643   0.358  0.9591 -0.3572  0.4547
 6859TIP3   OH242135   2.679   6.469   0.849 -0.1005 -0.1569 -0.5599
 6859TIP3    H142136   2.721   6.427   0.775 -1.4316 -0.6317 -1.0826
 6859TIP3    H242137   2.597   6.421   0.861 -0.9034  1.2427 -0.1181
 6860TIP3   OH242138   5.950   3.195   2.815 -0.1524 -1.0018 -0.0413
 6860TIP3    H142139   5.897   3.133   2.866  0.9376 -0.2962  2.0560
 6860TIP3    H242140   5.891   3.269   2.801 -0.4896 -1.2271  0.1474
 6861TIP3   OH242141   1.502   4.314   2.085 -0.2543 -0.0006  0.3012
 6861TIP3    H142142   1.430   4.304   2.147 -0.2408 -2.5435  0.0166
 6861TIP3    H242143   1.575   4.344   2.139 -0.8760  0.1960  1.0623
 6862TIP3   OH242144   2.802   3.868   9.246 -0.2304 -0.0291  0.1379
 6862TIP3    H142145   2.744   3.877   9.322 -0.6194 -0.6673 -0.0770
 6862TIP3    H242146   2.890   3.871   9.282 -0.3605 -3.1728  1.0285
 6863TIP3   OH242147   4.993   4.819   1.090  0.6915  0.6948  0.5459
 6863TIP3    H142148   4.951   4.747   1.137 -0.5840  2.0451  1.5702
 6863TIP3    H242149   4.944   4.897   1.116  1.3091  1.8071 -1.3942
 6864TIP3   OH242150   3.363   3.277   1.253 -0.0946  0.2401 -0.1112
 6864TIP3    H142151   3.341   3.309   1.340 -1.1340 -1.2922  0.2232
 6864TIP3    H242152   3.304   3.324   1.194 -3.4165 -2.6074  0.6089
 6865TIP3   OH242153   0.160   5.488   2.444 -0.4237 -0.1011  0.7948
 6865TIP3    H142154   0.165   5.404   2.399  1.5090  0.7457 -0.7155
 6865TIP3    H242155   0.233   5.539   2.409 -0.6011  1.6832  2.7898
 6866TIP3   OH242156   6.524   2.619   8.945 -0.2381 -0.4689 -0.0850
 6866TIP3    H142157   6.495   2.577   8.863 -0.0573 -0.3501 -0.2103
 6866TIP3    H242158   6.535   2.711   8.922  1.8034 -0.7538 -0.4827
 6867TIP3   OH242159   2.613   2.795   2.492  0.5411 -0.0764 -0.6111
 6867TIP3    H142160   2.576   2.734   2.429 -3.7452  0.1612  1.3308
 6867TIP3    H242161   2.655   2.862   2.439 -0.3140 -1.3549 -3.0568
 6868TIP3   OH242162   5.620   5.578   8.972 -0.1887  0.5723 -0.2032
 6868TIP3    H142163   5.620   5.488   8.939  1.2428  0.6597 -0.5250
 6868TIP3    H242164   5.607   5.568   9.067  1.9799 -0.1744  0.0861
 6869TIP3   OH242165   1.536   4.736   2.107  0.2571 -0.8213 -0.1911
 6869TIP3    H142166   1.490   4.818   2.121 -0.3356 -1.0322 -0.8418
 6869TIP3    H242167   1.621   4.761   2.071  0.1866 -0.4813 -0.1208
 6870TIP3   OH242168   2.753   4.450   1.587 -0.4992 -0.2841 -0.2195
 6870TIP3    H142169   2.756   4.366   1.541 -2.1707 -0.6224  0.2203
 6870TIP3    H242170   2.671   4.447   1.635 -0.2223  1.3178  0.3839
 6871TIP3   OH242171   0.342   5.002   7.647 -0.2291  0.4174 -0.6001
 6871TIP3    H142172   0.376   4.942   7.713 -0.6820  0.5595 -0.2323
 6871TIP3    H242173   0.247   4.989   7.649 -0.2004 -0.0569 -1.6889
 6872TIP3   OH242174   5.030   2.726   7.500 -0.2428 -0.0317  0.5139
 6872TIP3    H142175   5.077   2.803   7.532 -0.9302  0.3511  0.6179
 6872TIP3    H242176   5.036   2.663   7.572  1.3579 -0.5570 -0.0178
 6873TIP3   OH242177   2.504   1.514   7.781  0.3960 -0.1135  0.1101
 6873TIP3    H142178   2.597   1.495   7.794  0.3211  0.3393  1.4998
 6873TIP3    H242179   2.500   1.609   7.770  0.2384 -0.2798 -1.6095
 6874TIP3   OH242180   2.734   2.311   2.289  0.1868  0.4607 -0.0494
 6874TIP3    H142181   2.760   2.274   2.373  0.8637 -1.7017 -1.1114
 6874TIP3    H242182   2.815   2.318   2.239  0.0166  3.1182 -0.0862
 6875TIP3   OH242183   5.761   1.310   0.175  0.6819  0.0866  0.1921
 6875TIP3    H142184   5.853   1.289   0.164  0.5344 -0.0731 -0.8422
 6875TIP3    H242185   5.730   1.328   0.086 -1.1615 -3.5270 -0.0891
 6876TIP3   OH242186   4.451   3.252   2.069 -0.1195  0.5102 -0.1629
 6876TIP3    H142187   4.493   3.204   2.141  0.3280  0.6428 -0.3286
 6876TIP3    H242188   4.452   3.344   2.098  0.4152  0.6183 -0.4937
 6877TIP3   OH242189   5.666   1.489   1.602  0.1290 -0.2305  0.3801
 6877TIP3    H142190   5.716   1.437   1.539  0.5141  1.8456 -1.1555
 6877TIP3    H242191   5.639   1.426   1.669  2.3954 -1.9640 -0.1926
 6878TIP3   OH242192   3.207   0.888   9.299 -0.1876  0.5157 -0.3819
 6878TIP3    H142193   3.245   0.952   9.239  2.0606 -0.2914  0.1114
 6878TIP3    H242194   3.116   0.915   9.308  0.2422  2.5449 -1.6187
 6879TIP3   OH242195   2.950   0.161   1.326  0.3387  0.8255  0.3310
 6879TIP3    H142196   2.958   0.178   1.232 -3.0515 -0.9174 -0.4680
 6879TIP3    H242197   2.869   0.206   1.351  0.9179  0.8307  2.3281
 6880TIP3   OH242198   1.650   4.352   9.131  0.6355 -0.5706  0.0221
 6880TIP3    H142199   1.624   4.274   9.083  2.0275  0.2585 -2.2250
 6880TIP3    H242200   1.567   4.392   9.159 -0.1851 -1.5689 -0.9045
 6881TIP3   OH242201   5.292   4.698   7.922 -0.1087  0.4527 -0.0966
 6881TIP3    H142202   5.367   4.680   7.865  1.4515  0.2588  1.8981
 6881TIP3    H242203   5.219   4.650   7.883  1.2009 -0.6717 -1.2489
 6882TIP3   OH242204   3.651   0.275   7.744 -0.2361  0.0011 -0.6363
 6882TIP3    H142205   3.717   0.343   7.730  1.0028 -0.7621  1.0637
 6882TIP3    H242206   3.573   0.323   7.770  1.4981  0.8889  3.9597
 6883TIP3   OH242207   4.512   3.696   0.415  0.1444 -0.2557  0.1768
 6883TIP3    H142208   4.434   3.646   0.389  0.1739 -1.0584  1.5183
 6883TIP3    H242209   4.542   3.653   0.495  0.2375  1.8796  1.3592
 6884TIP3   OH242210   5.036   5.529   1.815 -0.0370 -0.4196 -0.1066
 6884TIP3    H142211   5.096   5.593   1.777  1.6245 -1.9862 -0.2615
 6884TIP3    H242212   4.972   5.512   1.746  1.1700 -0.9741 -1.1271
 6885TIP3   OH242213   2.985   5.175   0.443  0.2897  0.3673  0.2934
 6885TIP3    H142214   2.904   5.223   0.462 -1.0738 -0.9841 -1.6859
 6885TIP3    H242215   2.985   5.165   0.348  2.3129 -0.5367  0.3389
 6886TIP3   OH242216   5.171   5.323   0.073  1.0326 -0.4252 -0.1582
 6886TIP3    H142217   5.258   5.283   0.069  1.6667  1.0105 -2.5099
 6886TIP3    H242218   5.188   5.417   0.078 -0.4119 -0.1851  0.7742
 6887TIP3   OH242219   5.014   3.272   0.495 -0.2989 -0.0873  0.1086
 6887TIP3    H142220   5.039   3.207   0.561  2.4527  0.3415 -0.3781
 6887TIP3    H242221   5.086   3.335   0.496 -1.2134  1.0613 -1.8354
 6888TIP3   OH242222   0.761   3.084   7.575 -0.2390 -0.4024 -0.8011
 6888TIP3    H142223   0.686   3.037   7.538 -0.1653 -3.0166  1.9631
 6888TIP3    H242224   0.723   3.144   7.639 -0.0609 -1.8163  0.6895
 6889TIP3   OH242225   2.435   6.072   2.417 -0.5519  0.4138  0.3438
 6889TIP3    H142226   2.500   6.135   2.449 -1.6105  1.5184  0.4042
 6889TIP3    H242227   2.421   6.013   2.491  0.8835 -0.2861  0.0915
 6890TIP3   OH242228   5.124   5.802   2.354 -0.0871 -0.5573  0.2931
 6890TIP3    H142229   5.160   5.798   2.443  0.4037 -0.1508  0.1189
 6890TIP3    H242230   5.201   5.811   2.298 -0.4923  1.3105 -0.0339
 6891TIP3   OH242231   2.328   6.640   9.134 -0.5721  0.0222  0.3935
 6891TIP3    H142232   2.346   6.548   9.114 -1.1947 -0.4137  1.7206
 6891TIP3    H242233   2.352   6.650   9.227 -2.8260  0.5311  0.9809
 6892TIP3   OH242234   3.460   1.369   0.814 -0.5013  0.4538 -0.5666
 6892TIP3    H142235   3.443   1.364   0.720 -1.0219 -0.6911 -0.4387
 6892TIP3    H242236   3.523   1.439   0.824  0.1642  0.0672 -1.8594
 6893TIP3   OH242237   0.382   5.989   0.684  0.0639 -0.6567  0.6665
 6893TIP3    H142238   0.455   5.934   0.713 -0.4961 -0.9879  1.4871
 6893TIP3    H242239   0.339   5.939   0.615  0.6062 -0.4614  0.1832
 6894TIP3   OH242240   1.812   1.929   8.373 -0.2132 -0.1710 -0.1412
 6894TIP3    H142241   1.881   1.864   8.377 -0.3576 -0.4271 -1.6424
 6894TIP3    H242242   1.783   1.938   8.464  2.2526  0.4682  0.6530
 6895TIP3   OH242243   2.088   5.934   1.073 -0.3424  0.2261 -0.5657
 6895TIP3    H142244   2.004   5.943   1.118 -0.2802  0.7954 -0.5614
 6895TIP3    H242245   2.117   6.024   1.058  0.2299  0.0322 -0.6353
 6896TIP3   OH242246   4.443   3.731   2.503  0.4037  0.0012  0.5715
 6896TIP3    H142247   4.420   3.638   2.507  0.3206 -0.0297 -0.4307
 6896TIP3    H242248   4.363   3.776   2.530  0.7261 -0.2234  1.9840
 6897TIP3   OH242249   2.443   4.927   8.846 -0.0742  1.0367  0.1179
 6897TIP3    H142250   2.438   5.019   8.873  0.0775  1.0718  0.0217
 6897TIP3    H242251   2.367   4.916   8.788  0.2988  1.2814 -0.4248
 6898TIP3   OH242252   5.175   3.790   8.051 -0.1989  0.3970 -0.2027
 6898TIP3    H142253   5.145   3.881   8.054  0.0031  0.4908 -0.8954
 6898TIP3    H242254   5.271   3.796   8.049 -0.1932  0.2101 -1.1183
 6899TIP3   OH242255   0.097   0.089   8.751  0.7583  0.3158  0.0693
 6899TIP3    H142256   0.078   0.045   8.834 -1.1044 -0.0464 -0.4904
 6899TIP3    H242257   0.106   0.182   8.774  0.4679  0.1873  0.7237
 6900TIP3   OH242258   5.149   1.096   1.741  0.1680  0.0424 -0.2080
 6900TIP3    H142259   5.225   1.050   1.776 -0.6714 -0.1814  1.3978
 6900TIP3    H242260   5.102   1.129   1.818 -1.5180 -0.0867 -1.1225
 6901TIP3   OH242261   2.807   5.823   0.150 -0.2373  0.2687  0.4675
 6901TIP3    H142262   2.870   5.751   0.141  0.4497  0.8919  0.0740
 6901TIP3    H242263   2.723   5.780   0.165 -0.2251 -0.7108 -1.8458
 6902TIP3   OH242264   6.507   0.724   7.419  0.2554  0.5436  0.2307
 6902TIP3    H142265   6.520   0.629   7.413 -0.6197  0.4926 -1.8013
 6902TIP3    H242266   6.580   0.756   7.472 -0.3836 -1.4299  2.4761
 6903TIP3   OH242267   6.177   0.490   7.243 -0.1307 -0.2139  0.2782
 6903TIP3    H142268   6.265   0.491   7.206 -0.3792  0.3105 -0.2997
 6903TIP3    H242269   6.186   0.437   7.322  1.2127  1.6472  1.4670
 6904TIP3   OH242270   2.745   1.953   0.668  0.2291 -0.0913 -0.5010
 6904TIP3    H142271   2.692   1.924   0.742  1.3574 -1.0128 -0.0147
 6904TIP3    H242272   2.721   1.892   0.597  0.8499 -0.7170 -0.1859
 6905TIP3   OH242273   5.266   0.711   8.525  0.4447  0.3119  0.1837
 6905TIP3    H142274   5.336   0.646   8.520 -1.0382 -1.4890  1.5289
 6905TIP3    H242275   5.308   0.788   8.565  1.7461 -0.5559  0.5564
 6906TIP3   OH242276   0.430   5.894   9.245 -0.2367  0.1510 -0.1568
 6906TIP3    H142277   0.521   5.865   9.239 -0.6516 -0.9633 -1.7536
 6906TIP3    H242278   0.433   5.986   9.217  0.5571  0.5359  1.1112
 6907TIP3   OH242279   2.890   4.013   1.119 -0.4813  0.0384 -0.4015
 6907TIP3    H142280   2.814   3.985   1.168 -0.1801  1.2313  0.8177
 6907TIP3    H242281   2.873   4.106   1.099  0.6253  0.3275 -0.1040
 6908TIP3   OH242282   5.797   2.208   0.842 -0.6595  0.1112 -0.1041
 6908TIP3    H142283   5.702   2.218   0.834 -0.3098  2.8224 -2.7985
 6908TIP3    H242284   5.820   2.142   0.776 -0.5312  0.9397 -0.9101
 6909TIP3   OH242285   4.673   3.751   1.070 -0.4678 -0.2334 -0.4060
 6909TIP3    H142286   4.758   3.792   1.079  1.3662 -3.7080 -0.2893
 6909TIP3    H242287   4.643   3.737   1.160 -1.5720  1.5388 -0.4389
 6910TIP3   OH242288   3.071   3.291   1.351  0.4873  0.1081 -0.5726
 6910TIP3    H142289   3.079   3.213   1.296 -2.4656 -1.1211  0.5032
 6910TIP3    H242290   3.110   3.266   1.435  0.3176  0.0957 -0.4970
 6911TIP3   OH242291   5.981   5.250   1.218  0.3786 -0.2098  0.7255
 6911TIP3    H142292   6.019   5.277   1.134 -2.0209  0.3780 -0.2524
 6911TIP3    H242293   6.016   5.162   1.233  1.5605  0.0221 -0.4093
 6912TIP3   OH242294   3.640   4.267   9.286 -0.0505 -0.4137 -0.1432
 6912TIP3    H142295   3.704   4.195   9.286  0.5097 -0.0828 -3.3741
 6912TIP3    H242296   3.686   4.340   9.244 -1.3977  1.0990  0.8777
 6913TIP3   OH242297   1.579   2.197   8.971 -0.3397 -0.2251  0.6201
 6913TIP3    H142298   1.515   2.230   8.908 -1.3930 -0.2807  1.6230
 6913TIP3    H242299   1.662   2.235   8.943 -0.6474 -0.7486 -1.1635
 6914TIP3   OH242300   5.533   5.179   1.722 -0.7051 -0.3611 -0.1783
 6914TIP3    H142301   5.443   5.145   1.719 -1.4701  1.3109  1.4561
 6914TIP3    H242302   5.522   5.274   1.732  1.2038 -0.2325  1.3041
 6915TIP3   OH242303   0.255   3.627   0.273 -0.1997 -0.0334 -0.0841
 6915TIP3    H142304   0.199   3.559   0.310 -1.4054  1.5391  1.0947
 6915TIP3    H242305   0.238   3.623   0.178 -1.3922 -0.3719  0.1329
 6916TIP3   OH242306   1.890   6.561   7.634  0.4360 -0.4603 -0.0237
 6916TIP3    H142307   1.833   6.607   7.694  0.3233  0.3181 -0.7148
 6916TIP3    H242308   1.889   6.470   7.664 -0.2649 -0.2346  0.6399
 6917TIP3   OH242309   4.540   6.343   1.347  0.5011  0.1699 -0.4248
 6917TIP3    H142310   4.450   6.316   1.364 -0.3583  1.0980 -3.0198
 6917TIP3    H242311   4.592   6.291   1.407 -1.6935 -1.1033  0.4963
 6918TIP3   OH242312   6.261   0.927   0.276 -0.0142  0.1704 -0.2048
 6918TIP3    H142313   6.254   1.007   0.329 -0.1653  0.3521 -0.4988
 6918TIP3    H242314   6.296   0.862   0.337  1.3299  0.7843 -0.2918
 6919TIP3   OH242315   6.117   3.522   0.269 -0.2493  0.1205  0.0817
 6919TIP3    H142316   6.150   3.606   0.238 -0.9804  1.3769  2.4335
 6919TIP3    H242317   6.183   3.492   0.332 -1.0249  0.0317  0.8714
 6920TIP3   OH242318   6.066   1.510   1.545  0.4705  0.1740 -0.1423
 6920TIP3    H142319   6.045   1.512   1.452  0.9603 -1.1271 -0.3013
 6920TIP3    H242320   5.982   1.524   1.589 -0.4640 -2.6376 -0.7780
 6921TIP3   OH242321   5.868   5.209   1.551 -0.5691 -1.0615  0.1917
 6921TIP3    H142322   5.963   5.222   1.546 -0.5857 -0.7132  0.7789
 6921TIP3    H242323   5.852   5.131   1.497  0.1566 -1.6388  0.7874
 6922TIP3   OH242324   5.987   4.971   8.381 -0.1694 -0.8571  0.5040
 6922TIP3    H142325   5.934   4.928   8.448 -1.9307  1.0885  0.4569
 6922TIP3    H242326   5.972   4.920   8.301 -2.2723 -0.1837  0.4268
 6923TIP3   OH242327   3.872   0.570   1.214 -0.0421  0.7377  0.1344
 6923TIP3    H142328   3.888   0.650   1.263  0.2561  0.9432 -0.2891
 6923TIP3    H242329   3.957   0.550   1.173 -0.5001  1.0775 -1.0279
 6924TIP3   OH242330   5.234   2.880   1.442  1.0785  0.0155 -0.0219
 6924TIP3    H142331   5.273   2.964   1.419  0.7104 -0.2334 -1.6488
 6924TIP3    H242332   5.140   2.895   1.439  0.9596 -0.8192 -1.9723
 6925TIP3   OH242333   6.112   5.209   8.271 -0.0122 -0.4166  0.0759
 6925TIP3    H142334   6.048   5.241   8.206  0.6774  0.3796 -0.2237
 6925TIP3    H242335   6.077   5.124   8.298 -1.3902  0.1438  0.1794
 6926TIP3   OH242336   4.587   2.013   0.050  0.1836 -0.6155 -0.0713
 6926TIP3    H142337   4.640   1.948   0.004  2.5642 -0.1973  1.8679
 6926TIP3    H242338   4.543   1.963   0.119  1.4565 -0.3646  0.9703
 6927TIP3   OH242339   0.648   6.105   9.283 -0.4684  0.3297  0.1192
 6927TIP3    H142340   0.692   6.109   9.368 -0.7651 -0.5167  0.3248
 6927TIP3    H242341   0.720   6.100   9.220 -0.2555  0.1847  0.3678
 6928TIP3   OH242342   4.279   3.568   0.995 -0.0107 -0.5199  0.6430
 6928TIP3    H142343   4.208   3.621   1.032 -1.5039 -2.9829  1.5799
 6928TIP3    H242344   4.240   3.526   0.918  0.9437 -0.7021  0.2471
 6929TIP3   OH242345   2.458   2.579   8.557  0.0831 -0.7869 -0.3668
 6929TIP3    H142346   2.425   2.668   8.550 -1.8766 -1.1215  2.7094
 6929TIP3    H242347   2.445   2.542   8.469 -0.7531  1.3820 -1.2226
 6930TIP3   OH242348   1.820   3.184   0.598 -0.0438 -0.2797  0.3154
 6930TIP3    H142349   1.907   3.221   0.608  0.0711 -0.5895  0.4569
 6930TIP3    H242350   1.817   3.154   0.506  0.6182 -1.8287  0.7581
 6931TIP3   OH242351   6.118   5.049   1.695  0.4562  0.6081 -0.2827
 6931TIP3    H142352   6.105   5.128   1.747  0.2179 -0.6931  1.7741
 6931TIP3    H242353   6.029   5.017   1.679  0.5731  0.3731 -0.4648
 6932TIP3   OH242354   1.537   5.588   2.556 -0.0642 -0.3309  0.2395
 6932TIP3    H142355   1.489   5.636   2.623  0.9659  0.2858  0.5567
 6932TIP3    H242356   1.526   5.640   2.477  0.4105  0.0242  0.4050
 6933TIP3   OH242357   3.170   5.378   1.435  0.2414  0.5447  0.1808
 6933TIP3    H142358   3.182   5.380   1.340  0.2316 -1.9254  0.0471
 6933TIP3    H242359   3.198   5.290   1.460  0.7487  1.3140  2.5625
 6934TIP3   OH242360   5.321   6.629   8.547 -0.3034 -0.3643 -0.6704
 6934TIP3    H142361   5.367   6.573   8.609  0.8800  2.4903  1.2200
 6934TIP3    H242362   5.369   6.618   8.465  0.3111 -1.5531 -0.1766
 6935TIP3   OH242363   0.727   3.141   8.866  0.4316 -0.0051  0.6837
 6935TIP3    H142364   0.633   3.136   8.851  0.3198 -0.6453  1.5078
 6935TIP3    H242365   0.767   3.099   8.790  0.1844  2.3410 -0.8507
 6936TIP3   OH242366   3.899   0.405   0.698 -0.4194 -0.4656  0.0013
 6936TIP3    H142367   3.854   0.395   0.782  1.0054  0.8701  0.9762
 6936TIP3    H242368   3.838   0.367   0.634 -1.6619 -1.2733  1.5787
 6937TIP3   OH242369   3.982   1.760   0.733 -0.1961 -0.1568 -0.2931
 6937TIP3    H142370   3.915   1.794   0.792 -0.3582 -0.8234 -0.0783
 6937TIP3    H242371   4.000   1.672   0.766  0.1389 -0.3158 -0.8836
 6938TIP3   OH242372   3.593   5.610   1.918 -0.2165 -0.1211 -0.1625
 6938TIP3    H142373   3.606   5.567   1.834 -0.4595 -1.2007  0.3430
 6938TIP3    H242374   3.679   5.606   1.960 -0.1415  0.2553 -0.2708
 6939TIP3   OH242375   0.927   3.601   2.674 -0.0330  0.4370 -0.0611
 6939TIP3    H142376   1.021   3.600   2.655 -0.1058  0.8902 -0.4773
 6939TIP3    H242377   0.922   3.625   2.767  0.2211  3.1522 -0.6421
 6940TIP3   OH242378   2.728   3.794   1.367  0.5022 -0.2490 -0.5344
 6940TIP3    H142379   2.699   3.756   1.450  2.1578  0.3210  0.3646
 6940TIP3    H242380   2.649   3.802   1.314 -0.5794 -0.6970  0.9655
 6941TIP3   OH242381   1.027   2.497   3.140 -0.2004  0.0209 -0.1814
 6941TIP3    H142382   1.080   2.544   3.205 -0.1570  0.0735 -0.2537
 6941TIP3    H242383   0.958   2.559   3.116 -1.6816 -0.8479  1.5944
 6942TIP3   OH242384   0.696   6.629   2.075  0.0876  0.5379 -0.5400
 6942TIP3    H142385   0.754   6.704   2.067 -0.4359  1.0721  0.5548
 6942TIP3    H242386   0.697   6.606   2.168  1.4005 -1.7706 -1.0491
 6943TIP3   OH242387   3.500   2.846   7.538  0.1111  0.4843 -0.3817
 6943TIP3    H142388   3.528   2.763   7.500  1.4597  0.0059  1.4572
 6943TIP3    H242389   3.477   2.901   7.464 -1.0500 -1.5910 -1.6443
 6944TIP3   OH242390   2.053   4.353   8.215 -0.2709  0.3228 -0.0097
 6944TIP3    H142391   2.108   4.327   8.141 -3.1448  0.4451 -2.4187
 6944TIP3    H242392   2.040   4.272   8.264 -0.5956 -0.4687 -1.3414
 6945TIP3   OH242393   5.895   0.586   8.720  0.3690 -0.1811 -0.1721
 6945TIP3    H142394   5.825   0.522   8.708  0.5170 -0.7349  1.5995
 6945TIP3    H242395   5.972   0.546   8.678 -0.3764  0.5635 -2.3884
 6946TIP3   OH242396   1.173   2.664   3.302  0.3976 -0.0234  0.5502
 6946TIP3    H142397   1.265   2.645   3.286  0.4718 -0.1178  1.0678
 6946TIP3    H242398   1.174   2.747   3.351  0.1202  0.9234 -0.9703
 6947TIP3   OH242399   2.901   5.385   2.127  0.2668 -0.1543 -0.0399
 6947TIP3    H142400   2.878   5.314   2.068 -0.7676  0.8434 -0.8936
 6947TIP3    H242401   2.983   5.358   2.168 -0.3250 -2.0050 -0.0101
 6948TIP3   OH242402   4.588   3.720   0.003  0.5065 -0.2811 -0.1054
 6948TIP3    H142403   4.626   3.771   0.074  0.4370  1.6163 -1.3517
 6948TIP3    H242404   4.647   3.645  -0.007  1.8850  0.6916  0.3622
 6949TIP3   OH242405   3.289   5.776   1.491  0.9506  0.5011 -0.6390
 6949TIP3    H142406   3.357   5.712   1.473  0.9635  0.0283  0.9456
 6949TIP3    H242407   3.335   5.852   1.526  0.8628  1.0994 -1.7843
 6950TIP3   OH242408   6.277   6.209   9.297  0.0715  0.2477 -0.1661
 6950TIP3    H142409   6.349   6.148   9.284 -0.1763 -0.4011  1.2824
 6950TIP3    H242410   6.298   6.254   9.379 -1.6352 -0.7178  0.8737
 6951TIP3   OH242411   3.990   2.877   8.527  0.4700  0.2525 -0.1368
 6951TIP3    H142412   3.906   2.892   8.572 -0.1815  1.6656 -1.7143
 6951TIP3    H242413   4.056   2.895   8.593 -0.4329  2.9948  0.1176
 6952TIP3   OH242414   5.758   4.131   2.413  0.6596  0.6743 -0.0105
 6952TIP3    H142415   5.826   4.195   2.434  0.0338  0.9170  1.3900
 6952TIP3    H242416   5.679   4.166   2.453 -0.1863  0.1239 -1.1476
 6953TIP3   OH242417   1.435   5.229   0.114 -0.0431  0.2830 -0.1468
 6953TIP3    H142418   1.452   5.177   0.193  2.0758 -0.2085 -0.8559
 6953TIP3    H242419   1.342   5.249   0.119 -0.5317 -1.8826  1.1917
 6954TIP3   OH242420   2.822   5.160   2.573 -0.0902  0.1272 -0.1558
 6954TIP3    H142421   2.856   5.169   2.662 -0.0772 -0.6182 -0.0812
 6954TIP3    H242422   2.867   5.228   2.523  0.5084  0.0197  0.2328
 6955TIP3   OH242423   2.776   3.620   1.125 -0.0087  0.0351  0.1463
 6955TIP3    H142424   2.747   3.704   1.092 -0.7536 -0.6082 -0.8913
 6955TIP3    H242425   2.764   3.626   1.220 -0.1830  1.0374  0.0670
 6956TIP3   OH242426   4.808   2.158   0.476  0.1567 -0.3526  0.4118
 6956TIP3    H142427   4.877   2.155   0.410  1.6113  2.5058  1.6087
 6956TIP3    H242428   4.807   2.070   0.514  1.0460 -1.3082 -1.6458
 6957TIP3   OH242429   0.587   6.541   8.345  1.0330 -0.1069 -0.4946
 6957TIP3    H142430   0.570   6.537   8.251  0.2306  0.6256 -0.3955
 6957TIP3    H242431   0.633   6.459   8.365  2.9262  0.5793 -1.8359
 6958TIP3   OH242432   1.306   6.535   0.757  0.1026 -0.3200 -0.1891
 6958TIP3    H142433   1.369   6.468   0.728  0.9010  0.2849  0.1081
 6958TIP3    H242434   1.355   6.617   0.754  0.1440 -0.1480  2.4813
 6959TIP3   OH242435   3.561   3.878   1.941 -0.1771  0.4714  0.3737
 6959TIP3    H142436   3.641   3.846   1.899 -0.9450  0.7113 -1.3262
 6959TIP3    H242437   3.572   3.973   1.942 -0.4021  0.4971  0.2485
 6960TIP3   OH242438   1.886   4.882   2.245  0.2551 -0.2637 -0.4251
 6960TIP3    H142439   1.977   4.858   2.263  0.1795  0.8019  1.6998
 6960TIP3    H242440   1.849   4.806   2.200  1.1492 -2.3980  2.1895
 6961TIP3   OH242441   0.815   0.414   7.910  0.3695  0.5661 -0.0017
 6961TIP3    H142442   0.857   0.415   7.996  0.7774  0.2321 -0.1932
 6961TIP3    H242443   0.722   0.426   7.928 -0.0309 -2.8064  0.7888
 6962TIP3   OH242444   2.021   4.041   0.767 -0.1808 -0.2895  0.1701
 6962TIP3    H142445   2.104   3.999   0.743  0.4628  0.2136  1.3912
 6962TIP3    H242446   2.003   4.102   0.695  0.2168 -0.8168 -0.3779
 6963TIP3   OH242447   2.605   0.683   8.780 -0.6426 -0.0202  0.5300
 6963TIP3    H142448   2.582   0.753   8.719  0.0173 -1.0737 -0.9839
 6963TIP3    H242449   2.599   0.724   8.866  0.9362  2.2761 -0.3492
 6964TIP3   OH242450   6.457   2.394   8.037 -0.3239 -0.4200 -0.0974
 6964TIP3    H142451   6.444   2.486   8.059  0.7890 -0.3400  0.3213
 6964TIP3    H242452   6.522   2.364   8.101  1.5415 -0.7161 -2.0372
 6965TIP3   OH242453   3.543   5.695   0.341  0.3382  0.5107 -0.2913
 6965TIP3    H142454   3.632   5.713   0.371  1.2737 -3.6997  0.0399
 6965TIP3    H242455   3.545   5.712   0.247  1.0727  1.6264 -0.0954
 6966TIP3   OH242456   2.053   3.555   8.707  0.5908  0.6701 -0.3598
 6966TIP3    H142457   2.012   3.528   8.625 -1.2792  1.7562  0.1583
 6966TIP3    H242458   2.013   3.640   8.726  1.7661  0.9152  1.1581
 6967TIP3   OH242459   1.426   4.210   1.845  0.1237 -0.2371 -0.3577
 6967TIP3    H142460   1.458   4.268   1.915 -0.2506  0.2808 -0.6076
 6967TIP3    H242461   1.342   4.178   1.877 -0.3888  0.5710 -0.8718
 6968TIP3   OH242462   1.909   1.430   1.614  0.1664 -0.1565 -0.1888
 6968TIP3    H142463   1.967   1.429   1.690 -0.3205 -0.5191  0.1848
 6968TIP3    H242464   1.946   1.497   1.557  0.3894  0.3123  0.4914
 6969TIP3   OH242465   2.139   6.253   1.833  0.3638  0.2839  0.0334
 6969TIP3    H142466   2.180   6.169   1.856 -1.7053 -1.0130 -0.7596
 6969TIP3    H242467   2.056   6.229   1.792 -0.4334  2.7526  0.0464
 6970TIP3   OH242468   0.491   5.170   8.582 -0.0176  0.4097  0.1612
 6970TIP3    H142469   0.539   5.118   8.518 -0.2071 -1.1564  1.2380
 6970TIP3    H242470   0.519   5.137   8.667 -1.7575  0.5726  0.8515
 6971TIP3   OH242471   1.563   5.701   1.725 -0.0550  0.3779 -0.2849
 6971TIP3    H142472   1.657   5.714   1.728 -0.1069  0.8046 -0.4577
 6971TIP3    H242473   1.536   5.693   1.816 -0.1711  2.6239 -0.0661
 6972TIP3   OH242474   5.502   3.500   9.051  0.7074  0.5490  0.3086
 6972TIP3    H142475   5.533   3.559   9.120 -0.0101 -0.6819  1.7390
 6972TIP3    H242476   5.494   3.556   8.973  1.0253  2.0920  1.3391
 6973TIP3   OH242477   4.490   3.883   8.187  0.2415  0.2443 -0.0871
 6973TIP3    H142478   4.508   3.972   8.217  0.8106  0.0092  0.2900
 6973TIP3    H242479   4.576   3.846   8.166  0.0717 -0.4093  0.3290
 6974TIP3   OH242480   1.936   5.948   0.702  0.1908 -0.7323 -0.2696
 6974TIP3    H142481   2.021   5.905   0.689  0.8266  0.1056  1.0369
 6974TIP3    H242482   1.949   6.037   0.671  0.0833 -0.3232  0.8260
 6975TIP3   OH242483   5.973   3.524   8.642 -0.0177 -0.1599 -0.7569
 6975TIP3    H142484   6.030   3.471   8.586  0.2658 -1.7232  0.9052
 6975TIP3    H242485   6.020   3.606   8.654  2.8647 -1.9625  1.8765
 6976TIP3   OH242486   4.296   3.786   1.504 -0.3421 -0.2874 -0.4202
 6976TIP3    H142487   4.329   3.702   1.473 -0.3559 -0.5877  0.3472
 6976TIP3    H242488   4.324   3.790   1.596  0.5680  1.0049 -0.7236
 6977TIP3   OH242489   5.911   4.759   0.347 -0.2088 -0.3326 -0.2370
 6977TIP3    H142490   5.868   4.683   0.386 -0.1337 -0.2437  0.0200
 6977TIP3    H242491   6.002   4.752   0.374 -0.3694  0.3041  0.5023
 6978TIP3   OH242492   5.848   1.889   1.902  0.2847  0.3201  0.3132
 6978TIP3    H142493   5.862   1.972   1.855 -0.2354 -0.3132 -1.0003
 6978TIP3    H242494   5.755   1.891   1.926  0.6688  0.8994  1.8840
 6979TIP3   OH242495   2.056   5.434   8.600 -0.0774 -0.2062 -0.3631
 6979TIP3    H142496   1.991   5.372   8.569 -0.6920 -0.6791  1.7638
 6979TIP3    H242497   2.046   5.435   8.695  0.8103  2.1715 -0.2316
 6980TIP3   OH242498   4.443   3.478   2.865 -0.1770  0.4774 -0.6291
 6980TIP3    H142499   4.373   3.537   2.838 -0.1388  1.0430  0.4539
 6980TIP3    H242500   4.468   3.432   2.784 -1.2409  0.8359 -1.1846
 6981TIP3   OH242501   2.460   5.449   9.086 -0.6157 -0.0836 -0.0678
 6981TIP3    H142502   2.366   5.459   9.100 -0.7604 -1.6679  0.2758
 6981TIP3    H242503   2.495   5.538   9.092 -1.7370  0.2520  2.3810
 6982TIP3   OH242504   3.825   4.421   0.817 -0.1795  0.2089  0.1360
 6982TIP3    H142505   3.917   4.416   0.842 -0.1420  1.9961  0.4982
 6982TIP3    H242506   3.814   4.510   0.783 -1.3398 -0.5865 -1.7632
 6983TIP3   OH242507   5.212   5.407   2.412 -0.1149 -0.2811 -0.0155
 6983TIP3    H142508   5.158   5.485   2.400  0.1297 -0.1060  0.0055
 6983TIP3    H242509   5.285   5.437   2.466 -0.9195 -0.9269  1.4933
 6984TIP3   OH242510   0.353   6.192   7.969  0.2001  0.1402  0.2197
 6984TIP3    H142511   0.299   6.163   8.042  0.5915  0.2808  0.5725
 6984TIP3    H242512   0.313   6.152   7.892 -0.3994  0.2406  0.4733
 6985TIP3   OH242513   5.801   6.402   1.845 -0.2673  0.3670  0.5511
 6985TIP3    H142514   5.773   6.381   1.756  0.2608  0.5534  0.3364
 6985TIP3    H242515   5.736   6.360   1.901  0.4485 -1.4113  0.1292
 6986TIP3   OH242516   4.362   0.161   2.270  0.4006  0.3806 -0.4706
 6986TIP3    H142517   4.315   0.241   2.246  2.7907  2.2239  0.5150
 6986TIP3    H242518   4.347   0.101   2.198 -1.5640  1.6722 -1.2088
 6987TIP3   OH242519   6.256   2.779   8.850 -0.0718  0.1232 -0.3247
 6987TIP3    H142520   6.309   2.826   8.786  2.9406  0.3439  2.1101
 6987TIP3    H242521   6.240   2.842   8.920  0.8481 -1.3257  1.2864
 6988TIP3   OH242522   4.138   2.148   8.719 -0.0347  0.0097  0.1394
 6988TIP3    H142523   4.192   2.069   8.724 -0.1752 -0.1600 -0.9138
 6988TIP3    H242524   4.048   2.117   8.730 -0.0844  0.0356 -0.2012
 6989TIP3   OH242525   6.611   1.392   2.027  0.0385  0.2071  0.0863
 6989TIP3    H142526   6.585   1.459   1.964  2.1526  0.1048 -0.9985
 6989TIP3    H242527   6.563   1.414   2.107 -1.7537  1.0887 -1.1608
 6990TIP3   OH242528   0.371   3.716   8.018  0.2343  0.0533 -0.1908
 6990TIP3    H142529   0.443   3.659   7.991  0.2383 -0.1453  0.2152
 6990TIP3    H242530   0.366   3.784   7.951  1.4372  0.6219  0.2754
 6991TIP3   OH242531   2.091   3.843   1.146  0.1020 -0.3814  0.3992
 6991TIP3    H142532   2.117   3.813   1.059  1.8310  0.1645  0.6974
 6991TIP3    H242533   2.072   3.936   1.134  1.0444 -0.1361  0.7215
 6992TIP3   OH242534   4.112   0.547   1.068  0.1882  0.2099  0.0400
 6992TIP3    H142535   4.172   0.589   1.130 -1.2150  2.0278  0.2421
 6992TIP3    H242536   4.115   0.602   0.990 -0.9922  0.1720 -0.0488
 6993TIP3   OH242537   2.347   4.946   3.328  0.5169 -0.2853  0.0165
 6993TIP3    H142538   2.298   4.896   3.263 -0.8866  1.3168 -0.2313
 6993TIP3    H242539   2.281   4.974   3.391  1.3095  0.9337  0.3323
 6994TIP3   OH242540   3.277   4.366   0.113  0.3821 -0.1862  0.5853
 6994TIP3    H142541   3.337   4.438   0.128  0.5878 -0.1037 -0.5627
 6994TIP3    H242542   3.218   4.368   0.188 -0.2581  1.8109  0.0917
 6995TIP3   OH242543   3.464   4.479   2.253 -0.0463 -0.6598 -0.1661
 6995TIP3    H142544   3.493   4.495   2.163  0.4176 -1.1041 -0.0978
 6995TIP3    H242545   3.420   4.394   2.249 -2.4406  0.5098 -0.5142
 6996TIP3   OH242546   5.362   5.598   8.907  0.2281 -0.3489  0.3141
 6996TIP3    H142547   5.323   5.626   8.990  0.3488  0.3166  0.1533
 6996TIP3    H242548   5.456   5.593   8.926  0.1973 -0.7426  0.3667
 6997TIP3   OH242549   4.474   1.323   8.688 -0.1863  0.5508 -0.4554
 6997TIP3    H142550   4.419   1.401   8.681 -0.5553  0.4859  1.2427
 6997TIP3    H242551   4.417   1.256   8.724  0.4578 -0.1276 -0.6826
 6998TIP3   OH242552   5.901   3.899   1.756  0.3132 -0.0342  0.3991
 6998TIP3    H142553   5.923   3.831   1.820  1.5524 -0.2302 -0.1983
 6998TIP3    H242554   5.904   3.854   1.672 -2.2541 -0.0091  0.2171
 6999TIP3   OH242555   2.317   1.972   0.895 -0.3434 -0.0025 -0.1569
 6999TIP3    H142556   2.334   1.985   0.989 -1.2849  3.1556 -0.2938
 6999TIP3    H242557   2.387   1.914   0.866  0.3559 -0.5631  2.3586
 7000TIP3   OH242558   5.899   5.696   9.273  0.0267 -0.1584 -0.0293
 7000TIP3    H142559   5.898   5.714   9.367  0.3958  0.1712 -0.0826
 7000TIP3    H242560   5.825   5.637   9.259  0.8282 -1.3691  0.6896
 7001TIP3   OH242561   4.211   3.494   1.670 -0.0922  0.7794 -0.5868
 7001TIP3    H142562   4.247   3.553   1.736 -0.1458  1.1412 -0.8823
 7001TIP3    H242563   4.270   3.418   1.673  0.2709  1.0578 -0.5554
 7002TIP3   OH242564   4.776   4.784   1.301  0.4450 -0.0319  0.3645
 7002TIP3    H142565   4.854   4.739   1.334  1.1925  1.1205  0.2009
 7002TIP3    H242566   4.802   4.875   1.291 -0.9961  0.4367  0.5379
 7003TIP3   OH242567   2.802   3.304   1.212  0.2280  0.1299 -0.1422
 7003TIP3    H142568   2.856   3.380   1.233  0.1356 -0.0235  0.6781
 7003TIP3    H242569   2.807   3.296   1.117  0.7582  0.7737 -0.1705
 7004TIP3   OH242570   6.197   6.101   1.762  0.5255  0.4461  0.0926
 7004TIP3    H142571   6.284   6.105   1.803 -0.4235 -0.3988  2.3613
 7004TIP3    H242572   6.215   6.090   1.669  2.8481  1.0108  0.4095
 7005TIP3   OH242573   5.056   3.418   8.413 -0.6033  0.4818  0.0953
 7005TIP3    H142574   5.057   3.415   8.317  0.1866 -0.2649  0.1074
 7005TIP3    H242575   4.971   3.382   8.438 -0.3496 -0.4532 -0.3205
 7006TIP3   OH242576   1.997   4.147   0.423  0.0981  0.4705 -0.2428
 7006TIP3    H142577   2.001   4.087   0.348  2.5875 -1.4402  1.2476
 7006TIP3    H242578   2.006   4.234   0.385  0.7335 -0.4120 -2.2302
 7007TIP3   OH242579   6.318   5.745   1.909 -0.0964  0.4803  0.0547
 7007TIP3    H142580   6.290   5.654   1.914  0.5312  0.2636 -0.1685
 7007TIP3    H242581   6.355   5.754   1.821  0.9420  0.6097  0.4797
 7008TIP3   OH242582   0.382   5.517   2.984  0.2661  0.1573  0.3199
 7008TIP3    H142583   0.348   5.521   3.074  0.2104  0.2898  0.2940
 7008TIP3    H242584   0.328   5.451   2.941  1.9380 -1.8101  1.0698
 7009TIP3   OH242585   5.507   2.973   0.947  0.0491 -0.1425  0.1152
 7009TIP3    H142586   5.590   2.937   0.978  0.4209  0.7154  0.1570
 7009TIP3    H242587   5.441   2.908   0.973  0.6581 -0.6419  0.4345
 7010TIP3   OH242588   5.163   6.506   8.316  0.7829  0.3309 -0.0530
 7010TIP3    H142589   5.258   6.515   8.323  1.1797 -2.5692 -0.3533
 7010TIP3    H242590   5.147   6.497   8.222 -0.0705  2.6133 -0.1803
 7011TIP3   OH242591   4.867   2.375   1.941  0.0078  0.1094  0.2266
 7011TIP3    H142592   4.878   2.380   1.846  1.3602  1.3338  0.4210
 7011TIP3    H242593   4.953   2.348   1.973 -0.4446 -0.3073  1.1182
 7012TIP3   OH242594   4.986   4.838   7.732  0.0038 -0.5458 -0.1581
 7012TIP3    H142595   4.917   4.902   7.744  0.3580  0.1939 -1.8040
 7012TIP3    H242596   4.952   4.758   7.771 -2.6972 -0.7793 -2.6595
 7013TIP3   OH242597   0.377   3.906   7.833  0.1609 -0.4204 -0.2227
 7013TIP3    H142598   0.412   3.955   7.907  0.2249  3.1887 -2.4032
 7013TIP3    H242599   0.282   3.912   7.843  0.1610  0.5576 -0.6323
 7014TIP3   OH242600   5.257   1.675   1.656  0.0729 -0.0984 -0.0654
 7014TIP3    H142601   5.303   1.601   1.618  0.6558 -0.2217  0.8664
 7014TIP3    H242602   5.324   1.724   1.703 -0.5624  0.2711  0.4736
 7015TIP3   OH242603   4.232   1.549   0.077 -0.1777 -0.2989 -0.0611
 7015TIP3    H142604   4.168   1.617   0.058  0.9480  0.8355  0.0410
 7015TIP3    H242605   4.223   1.533   0.171  0.4584  0.6982  0.1827
 7016TIP3   OH242606   1.683   2.516   1.942 -0.4063 -0.1727 -0.3297
 7016TIP3    H142607   1.607   2.570   1.963  0.0578  0.1785  0.4826
 7016TIP3    H242608   1.697   2.529   1.848 -1.3807 -0.2953 -0.5002
 7017TIP3   OH242609   3.993   4.514   8.501 -0.6516 -0.0361 -0.1402
 7017TIP3    H142610   3.999   4.419   8.515 -0.5770 -0.2246 -1.3955
 7017TIP3    H242611   3.981   4.524   8.407  0.7670  1.2536 -0.2271
 7018TIP3   OH242612   4.259   0.767   0.769 -0.3284  0.0819 -0.0616
 7018TIP3    H142613   4.291   0.702   0.707 -2.0732 -0.8107 -0.0868
 7018TIP3    H242614   4.203   0.718   0.829  0.2016  1.1768  1.3815
 7019TIP3   OH242615   4.246   5.127   2.397  0.1509  0.3953 -0.0814
 7019TIP3    H142616   4.215   5.218   2.401  0.9148  0.6625 -0.1683
 7019TIP3    H242617   4.319   5.129   2.336  0.3910 -0.2184  0.1815
 7020TIP3   OH242618   1.337   4.650   0.489 -0.3016  0.3543  0.1324
 7020TIP3    H142619   1.334   4.563   0.449  0.0029  0.8287 -0.9578
 7020TIP3    H242620   1.273   4.701   0.440 -2.2559  0.1531  2.3296
 7021TIP3   OH242621   6.599   3.798   0.637 -0.2321 -0.0293 -0.1454
 7021TIP3    H142622   6.680   3.850   0.634 -0.3690  0.2495  0.7498
 7021TIP3    H242623   6.530   3.861   0.619 -0.1634 -0.6206 -3.0389
 7022TIP3   OH242624   2.731   4.167   1.534  0.5765 -0.2699 -0.0207
 7022TIP3    H142625   2.808   4.115   1.555  0.0141 -0.6950  1.0848
 7022TIP3    H242626   2.658   4.105   1.535  0.2907 -0.0271 -1.8446
 7023TIP3   OH242627   2.262   3.619   0.583 -0.2411 -0.0565 -0.8757
 7023TIP3    H142628   2.182   3.670   0.568 -0.2918  0.0172 -0.3794
 7023TIP3    H242629   2.244   3.569   0.663  0.1768 -0.1015 -0.8060
 7024TIP3   OH242630   2.642   3.557   1.571 -0.3608 -0.3037  0.2040
 7024TIP3    H142631   2.614   3.498   1.502 -0.2765  0.4920 -0.5235
 7024TIP3    H242632   2.572   3.554   1.636 -2.4391  1.9872 -1.7735
 7025TIP3   OH242633   3.086   4.266   0.993 -0.1817  0.1706  0.0572
 7025TIP3    H142634   3.007   4.273   0.939 -1.1659 -1.8187  1.0842
 7025TIP3    H242635   3.126   4.184   0.966  0.0811 -0.1408  1.3118
 7026TIP3   OH242636   2.411   6.385   9.081 -0.1711 -0.1214 -0.3986
 7026TIP3    H142637   2.383   6.312   9.136  1.0510 -0.0674  0.3394
 7026TIP3    H242638   2.422   6.347   8.994 -2.8057 -0.0605 -0.8289
 7027TIP3   OH242639   4.968   3.060   9.047  0.1207  0.1773 -0.0619
 7027TIP3    H142640   5.054   3.018   9.060  0.7078  0.8683 -1.4770
 7027TIP3    H242641   4.914   2.992   9.007 -0.5936 -0.8249  2.4368
 7028TIP3   OH242642   3.390   5.576   9.194 -0.0322 -0.3435 -0.0928
 7028TIP3    H142643   3.462   5.639   9.194 -0.0055 -0.3740 -0.0827
 7028TIP3    H242644   3.410   5.517   9.267  0.0836 -0.5270 -0.2738
 7029TIP3   OH242645   3.561   5.416   2.634 -0.4901 -0.2546 -0.0826
 7029TIP3    H142646   3.471   5.404   2.661 -1.3645  0.6705 -2.3054
 7029TIP3    H242647   3.570   5.510   2.618  1.4369 -0.0438  1.8081
 7030TIP3   OH242648   0.390   0.492   2.471  0.8285 -0.1685  0.0119
 7030TIP3    H142649   0.331   0.422   2.499 -0.0725  1.0112  1.1819
 7030TIP3    H242650   0.443   0.511   2.549 -0.3957  1.8644  0.4019
 7031TIP3   OH242651   1.127   4.940   0.191  0.6247 -0.4372  0.5743
 7031TIP3    H142652   1.091   4.869   0.244 -1.5814 -0.0735 -0.3470
 7031TIP3    H242653   1.138   4.901   0.104 -2.9408  0.8585 -0.6137
 7032TIP3   OH242654   0.634   1.172   2.401  0.4739  0.2004  0.2688
 7032TIP3    H142655   0.694   1.179   2.327 -1.6874  0.0367 -1.5613
 7032TIP3    H242656   0.596   1.085   2.394 -0.6668  0.6274  0.8637
 7033TIP3   OH242657   1.317   4.134   9.073 -0.2429 -0.4637 -0.1186
 7033TIP3    H142658   1.243   4.102   9.124 -0.3068  1.3793  1.0250
 7033TIP3    H242659   1.295   4.225   9.054  1.5496 -0.0145 -0.1352
 7034TIP3   OH242660   3.480   2.373   8.782 -0.0493 -0.2474 -0.0828
 7034TIP3    H142661   3.538   2.344   8.852  0.1710 -0.0930 -0.2015
 7034TIP3    H242662   3.496   2.312   8.710  0.8178  0.4810 -0.5315
 7035TIP3   OH242663   2.984   3.178   7.703 -0.0471 -0.0685  0.4076
 7035TIP3    H142664   2.994   3.086   7.728  0.5289  0.3189  1.7018
 7035TIP3    H242665   3.060   3.222   7.741 -0.3949  0.9752 -0.0570
 7036TIP3   OH242666   4.891   6.122   8.047 -0.1641  0.2984  0.3714
 7036TIP3    H142667   4.825   6.083   8.105 -0.3615 -0.4652 -0.3390
 7036TIP3    H242668   4.873   6.083   7.962  0.8143  0.5688  0.0292
 7037TIP3   OH242669   1.006   2.515   1.541  0.0734 -0.1338  0.0761
 7037TIP3    H142670   0.999   2.579   1.612 -0.9135  0.3173 -0.4001
 7037TIP3    H242671   0.944   2.446   1.566 -0.5526  0.2056 -0.5197
 7038TIP3   OH242672   4.889   0.105   0.700 -0.2735  0.5235 -0.5858
 7038TIP3    H142673   4.877   0.101   0.605  0.0508  0.0564 -0.6146
 7038TIP3    H242674   4.950   0.033   0.719 -0.3797  0.5786 -0.0185
 7039TIP3   OH242675   6.225   1.960   0.158 -0.4515 -0.1764 -0.1184
 7039TIP3    H142676   6.160   1.985   0.091 -0.3987  1.0475  0.2658
 7039TIP3    H242677   6.274   2.040   0.175  0.4873 -0.8334  0.3655
 7040TIP3   OH242678   4.977   5.856   2.133  0.4149  0.4227  0.2607
 7040TIP3    H142679   4.984   5.764   2.106 -1.0407  0.3702 -0.0320
 7040TIP3    H242680   5.013   5.858   2.222  0.3257 -0.4547  0.3226
 7041TIP3   OH242681   1.359   5.197   1.347 -0.8775  0.5570 -0.3875
 7041TIP3    H142682   1.281   5.144   1.329 -1.7564  1.2825  1.1429
 7041TIP3    H242683   1.370   5.192   1.442  0.9419  0.5069 -0.5677
 7042TIP3   OH242684   0.646   1.399   8.665  0.1524  0.3144  0.1017
 7042TIP3    H142685   0.670   1.353   8.745 -0.0637  0.4395  0.2398
 7042TIP3    H242686   0.625   1.488   8.694  1.3980  0.7455 -0.2726
 7043TIP3   OH242687   4.409   6.339   0.164 -0.0140 -0.0595  0.0079
 7043TIP3    H142688   4.388   6.256   0.207 -1.6912  0.1282 -0.3851
 7043TIP3    H242689   4.482   6.318   0.105  0.7815 -0.8233  1.2172
 7044TIP3   OH242690   0.100   0.999   1.727 -1.3448 -0.1961  0.2600
 7044TIP3    H142691   0.056   1.084   1.736 -1.6678 -0.2503 -0.6670
 7044TIP3    H242692   0.054   0.942   1.789 -1.9641 -0.0098 -0.0197
 7045TIP3   OH242693   1.525   2.284   2.003 -0.4919  0.3114  0.2296
 7045TIP3    H142694   1.538   2.212   1.941 -1.7981 -0.3924  0.7501
 7045TIP3    H242695   1.553   2.362   1.954  0.1104 -0.4280 -0.6447
 7046TIP3   OH242696   0.422   4.853   8.176  0.7355 -0.4648 -0.1075
 7046TIP3    H142697   0.378   4.863   8.261  0.1372  0.1526 -0.4778
 7046TIP3    H242698   0.357   4.884   8.112  1.2261 -0.8078 -0.7789
 7047TIP3   OH242699   2.707   0.013   2.834  0.2552 -0.5119  0.3699
 7047TIP3    H142700   2.656  -0.032   2.901  1.3746 -0.4543  1.2973
 7047TIP3    H242701   2.643   0.064   2.785 -0.8506 -1.9987  0.1854
 7048TIP3   OH242702   5.146   0.476   0.645 -0.1883  0.3255 -0.1750
 7048TIP3    H142703   5.224   0.479   0.590 -0.2006  1.5535 -0.1555
 7048TIP3    H242704   5.141   0.385   0.675  0.7307  0.0262 -0.8850
 7049TIP3   OH242705   1.214   5.813   8.812 -0.2343  0.1746 -0.1128
 7049TIP3    H142706   1.259   5.897   8.798  0.4741 -0.0021  1.0123
 7049TIP3    H242707   1.214   5.772   8.725  0.5812  0.7678 -0.4062
 7050TIP3   OH242708   5.409   4.153   0.002 -0.2038  0.2641  0.4244
 7050TIP3    H142709   5.451   4.149   0.088  2.6926  1.4304 -0.7931
 7050TIP3    H242710   5.463   4.096  -0.053 -0.3462  1.6001 -1.1748
 7051TIP3   OH242711   4.822   0.552   8.135  0.5354 -0.1404  0.3990
 7051TIP3    H142712   4.775   0.485   8.085 -0.3403  0.0255  0.9810
 7051TIP3    H242713   4.837   0.512   8.221  3.4256 -1.0320 -0.4103
 7052TIP3   OH242714   4.993   0.598   9.085 -0.5393 -0.4793  0.7132
 7052TIP3    H142715   4.950   0.633   9.163 -0.8974  0.5027  0.0918
 7052TIP3    H242716   5.078   0.566   9.117 -0.3043  0.7382  1.3631
 7053TIP3   OH242717   0.313   5.598   0.525 -0.4727  0.2822  0.7568
 7053TIP3    H142718   0.234   5.544   0.529 -0.6216  0.4894  0.6259
 7053TIP3    H242719   0.284   5.679   0.483  0.2974 -0.5484 -1.5464
 7054TIP3   OH242720   2.906   4.235   1.307 -0.3219 -0.6958  0.1947
 7054TIP3    H142721   2.918   4.147   1.344  0.7908  0.1447  2.0077
 7054TIP3    H242722   2.991   4.255   1.267 -1.2681 -1.2710 -2.2653
 7055TIP3   OH242723   0.612   1.993   1.462  0.5881  0.3360 -0.4901
 7055TIP3    H142724   0.600   2.046   1.541  1.1090  0.8449 -0.7373
 7055TIP3    H242725   0.542   2.021   1.403 -0.7262 -1.1069  0.3163
 7056TIP3   OH242726   1.148   5.970   9.122  0.2552 -0.4466 -0.2279
 7056TIP3    H142727   1.143   6.049   9.069  0.7447 -0.0152  0.3394
 7056TIP3    H242728   1.158   5.898   9.059 -0.3061 -0.0677 -0.7515
 7057LIG     O142729   1.510   1.976   0.536 -0.7807  0.7191 -0.2876
 7057LIG     O242730   1.484   1.738   0.573 -0.2236  0.0210 -0.4624
 7057LIG     O342731   1.250   1.778   0.622 -0.1594 -0.3431  0.1856
 7057LIG     O442732   1.803   1.914   0.588 -0.4639 -0.3999  0.0890
 7057LIG     O542733   1.683   2.003   0.857  1.0357  0.2373 -1.2358
 7057LIG     O642734   1.380   1.603   0.326  0.2670  0.3885  0.0406
 7057LIG     O742735   1.400   1.455   0.584 -0.4728  0.1665 -0.6370
 7057LIG     O842736   1.165   1.437   0.741  0.0335  0.0891  0.0058
 7057LIG     O942737   1.706   1.900   0.319  0.2189 -0.3284 -0.6609
 7057LIG    O1042738   1.304   2.013   0.757 -0.4579  0.4372 -0.3787
 7057LIG    O1142739   1.107   1.620   0.920  0.3713  0.8170  0.1721
 7057LIG     C142740   1.575   1.845   0.528  0.1052 -0.6197  0.1502
 7057LIG     C242741   1.681   1.861   0.638  0.0817  0.3670 -0.0907
 7057LIG     C342742   1.605   1.952   0.744 -0.3086 -0.0655 -0.0769
 7057LIG     C442743   1.530   2.047   0.659 -0.6363  0.7063  0.3536
 7057LIG     C542744   1.349   1.749   0.523  0.6991 -0.0000 -0.6775
 7057LIG     C642745   1.300   1.625   0.448 -0.1740 -0.5480  1.0951
 7057LIG     C742746   1.278   1.499   0.535  1.0569  0.8648  0.7046
 7057LIG     C842747   1.180   1.540   0.648 -0.6052  0.0609  0.3449
 7057LIG     C942748   1.240   1.669   0.717  0.1508 -0.0844 -0.2601
 7057LIG    C1042749   1.620   1.806   0.383 -0.3692 -0.1127  0.0375
 7057LIG    C1142750   1.397   2.108   0.713  0.3683  0.1347  0.3157
 7057LIG    C1242751   1.136   1.717   0.820  0.6126  0.6052 -0.2525
 7057LIG     H142752   1.701   1.761   0.680 -1.0509 -0.3142 -1.1115
 7057LIG     H242753   1.532   1.877   0.780  0.4558 -1.3266 -1.1066
 7057LIG     H342754   1.597   2.127   0.625 -1.4154  0.4638 -1.9205
 7057LIG     H442755   1.345   1.833   0.451  2.2334  1.6909  1.0668
 7057LIG     H542756   1.197   1.649   0.411  0.1174 -0.2009  0.4868
 7057LIG     H642757   1.228   1.420   0.475  0.8637  1.3532  0.2137
 7057LIG     H742758   1.081   1.561   0.601 -0.3640  1.5803  0.4840
 7057LIG     H842759   1.332   1.634   0.770  0.2863  1.6040  0.6791
 7057LIG     H942760   1.679   1.716   0.410 -0.5809  0.1267  1.3810
 7057LIG    H1042761   1.536   1.778   0.315  0.2580 -6.4380  1.2448
 7057LIG    H1142762   1.425   2.181   0.792 -0.4802  1.4058 -0.5260
 7057LIG    H1242763   1.347   2.174   0.640 -1.7474 -0.9099  0.7604
 7057LIG    H1342764   1.182   1.797   0.881  1.7405 -0.2729  0.0867
 7057LIG    H1442765   1.038   1.737   0.772  0.1459  0.0982  0.4561
 7057LIG    H1542766   1.780   1.988   0.531 -3.0973 -0.5157  0.8636
 7057LIG    H1642767   1.624   2.013   0.932  0.6490 -2.7833 -0.9866
 7057LIG    H1742768   1.334   1.528   0.289  1.4516 -0.6751  0.6412
 7057LIG    H1842769   1.378   1.381   0.642 -4.5180  0.7834 -1.0959
 7057LIG    H1942770   1.139   1.481   0.822 -1.4354  1.3335 -1.0826
 7057LIG    H2042771   1.645   1.966   0.287 -2.0744 -2.2514 -0.5394
 7057LIG    H2142772   1.285   1.957   0.681 -0.8206 -3.2958  2.1451
 7057LIG    H2242773   1.046   1.661   0.982  0.6655 -0.7495  1.5497
   6.65229   6.65229   9.30002
