Title
42773
    1SAPS     N    1   6.477   5.228   7.484 -0.3420  0.5030 -0.2479
    1SAPS   HN1    2   6.574   5.267   7.484 -0.5310  1.1220  1.6002
    1SAPS   HN2    3   6.426   5.277   7.408 -0.2277 -1.0733 -1.3603
    1SAPS   HN3    4   6.433   5.246   7.577 -1.5264  0.7058 -0.8267
    1SAPS   C12    5   6.475   5.077   7.460  0.0420  0.2600  0.1607
    1SAPS  H12A    6   6.537   5.038   7.540  1.3703  0.9252 -0.5149
    1SAPS   C13    7   6.335   5.015   7.459  0.5977 -0.5335  0.1340
    1SAPS  O13A    8   6.242   5.093   7.495 -0.9651  0.6019  0.2228
    1SAPS  O13B    9   6.322   4.891   7.427 -0.3417 -0.4496  0.3567
    1SAPS   C11   10   6.552   5.044   7.329 -0.1352  0.6644 -0.6401
    1SAPS  H11A   11   6.492   5.082   7.244 -0.9827 -2.0903 -1.3935
    1SAPS  H11B   12   6.556   4.933   7.335  1.5151  0.6839 -0.9662
    1SAPS     P   13   6.811   5.016   7.297 -0.2835  0.1028  0.0069
    1SAPS   O13   14   6.914   5.063   7.385  0.1895  0.8605  0.3440
    1SAPS   O14   15   6.786   4.873   7.300  0.0697 -0.5342 -0.4580
    1SAPS   O12   16   6.686   5.105   7.322  0.6451 -0.2920 -0.3072
    1SAPS   O11   17   6.846   5.064   7.152 -0.1076 -0.4228  0.9555
    1SAPS    C1   18   6.851   5.205   7.122 -0.3351  0.4204  0.0472
    1SAPS    HA   19   6.761   5.231   7.063 -0.4865  0.6458  0.3736
    1SAPS    HB   20   6.856   5.277   7.207 -0.1484  2.3989 -1.5736
    1SAPS    C2   21   6.973   5.247   7.038  0.3141 -0.2539 -0.3148
    1SAPS    HS   22   6.981   5.358   7.035 -2.3722  0.1104  2.1612
    1SAPS   O21   23   6.972   5.186   6.900  0.2795 -0.4980 -0.0367
    1SAPS   C21   24   6.875   5.243   6.831  0.4018 -0.0392  0.2509
    1SAPS   O22   25   6.801   5.333   6.862  0.0445  0.5724 -0.4735
    1SAPS   C22   26   6.852   5.156   6.707 -0.1452 -0.2504  0.0871
    1SAPS   H2R   27   6.849   5.050   6.740 -2.7678 -0.5467 -0.8589
    1SAPS   H2S   28   6.748   5.176   6.674  0.2112  0.8322 -0.4124
    1SAPS    C3   29   7.101   5.195   7.121 -0.3306 -0.1433 -0.4871
    1SAPS    HX   30   7.104   5.087   7.097 -0.0865  0.1932 -2.0566
    1SAPS    HY   31   7.098   5.212   7.231  1.0228 -2.5195 -0.0147
    1SAPS   O31   32   7.214   5.267   7.062 -0.6765 -0.0405 -0.3114
    1SAPS   C31   33   7.327   5.193   7.065 -0.3162  0.0779  0.5384
    1SAPS   O32   34   7.344   5.092   7.129  0.0617  0.4377  0.1789
    1SAPS   C32   35   7.427   5.237   6.952  0.5498 -0.5942 -0.3126
    1SAPS   H2X   36   7.469   5.142   6.912  1.2457  0.1501 -1.3950
    1SAPS   H2Y   37   7.502   5.300   7.004 -0.4919 -0.1979  0.7486
    1SAPS   C23   38   6.964   5.173   6.606  0.0039  0.0994 -0.0536
    1SAPS   H3R   39   6.973   5.073   6.557 -0.8753 -1.6564  3.0725
    1SAPS   H3S   40   7.060   5.184   6.660 -1.1463  0.4376  2.0560
    1SAPS   C24   41   6.934   5.298   6.520 -0.6985  0.0141 -0.5069
    1SAPS   H4R   42   7.038   5.309   6.483  0.2108 -2.5566  0.9622
    1SAPS   H4S   43   6.914   5.387   6.583  0.8915  0.8881 -1.1746
    1SAPS   C25   44   6.842   5.270   6.405 -0.1222  0.3356 -0.6043
    1SAPS   H5R   45   6.742   5.242   6.441  0.8319 -1.4933  0.7936
    1SAPS   C26   46   6.860   5.278   6.273 -0.4671 -0.0942  0.5641
    1SAPS   H6R   47   6.767   5.274   6.213  0.3707  0.6347 -0.8270
    1SAPS   C27   48   6.990   5.312   6.196  0.4983 -0.4870 -0.4657
    1SAPS   H7R   49   7.067   5.349   6.266  0.0804 -0.5082  0.0100
    1SAPS   H7S   50   6.970   5.410   6.148 -0.7210  0.0296  1.0069
    1SAPS   C28   51   7.030   5.206   6.091 -0.1140  0.5344  0.2070
    1SAPS   H8R   52   7.026   5.103   6.128 -1.7540  0.8065  0.8811
    1SAPS   C29   53   7.031   5.230   5.960  0.0862 -0.0045  0.1850
    1SAPS   H9R   54   7.047   5.145   5.892 -0.1635  1.6937 -2.1093
    1SAPS  C210   55   7.013   5.364   5.891 -0.3118  0.5328 -1.1496
    1SAPS  H10R   56   7.055   5.444   5.955  1.7683 -0.3043 -1.3738
    1SAPS  H10S   57   6.907   5.393   5.885 -0.0310  2.6913  2.2322
    1SAPS  C211   58   7.082   5.356   5.758  0.0739  0.2242  0.3511
    1SAPS  H11R   59   7.186   5.391   5.766 -0.2868  1.4907 -0.2264
    1SAPS  C212   60   7.027   5.342   5.637 -0.0141 -0.1395  0.1025
    1SAPS  H12R   61   7.084   5.334   5.543 -0.1491 -1.3126  0.1089
    1SAPS  C213   62   6.886   5.324   5.608  0.2453 -0.5285 -0.0263
    1SAPS  H13R   63   6.840   5.425   5.613 -1.1898 -1.0036 -2.3264
    1SAPS  H13S   64   6.834   5.250   5.671  0.7366 -0.9800 -0.1374
    1SAPS  C214   65   6.851   5.283   5.469  0.0540 -0.9286 -0.4643
    1SAPS  H14R   66   6.823   5.364   5.400  1.3171 -0.7411 -0.7898
    1SAPS  C215   67   6.831   5.157   5.434 -0.4170  0.7812  0.2592
    1SAPS  H15R   68   6.795   5.129   5.334  1.0860 -1.9149  0.3773
    1SAPS  C216   69   6.851   5.031   5.516 -0.1365 -0.6505 -0.3539
    1SAPS  H16R   70   6.754   4.988   5.547 -0.0246  0.0425  1.0683
    1SAPS  H16S   71   6.898   5.057   5.614 -2.0479 -0.5126  0.5761
    1SAPS  C217   72   6.947   4.930   5.461  0.0191  0.4050 -0.0989
    1SAPS  H17R   73   6.938   4.846   5.532  1.8854  2.1540  2.4090
    1SAPS  H17S   74   7.049   4.972   5.473 -0.3767  0.9547  1.6126
    1SAPS  C218   75   6.928   4.894   5.316  0.0964  0.6034  0.5185
    1SAPS  H18R   76   7.014   4.837   5.275 -0.7629 -0.9777  0.8316
    1SAPS  H18S   77   6.928   4.990   5.260 -0.9401  0.6184  0.5184
    1SAPS  C219   78   6.798   4.831   5.287  0.1096 -0.6352  0.1517
    1SAPS  H19R   79   6.708   4.896   5.283 -1.6967 -2.9917  0.3805
    1SAPS  H19S   80   6.779   4.752   5.362 -1.8819  0.8210  1.3021
    1SAPS  C220   81   6.797   4.770   5.146  0.2847 -1.1814  1.2545
    1SAPS  H20R   82   6.707   4.706   5.130 -1.5908  2.0026 -2.8925
    1SAPS  H20S   83   6.890   4.716   5.119  1.2656  1.1014 -0.1563
    1SAPS  H20T   84   6.787   4.848   5.068 -1.8524  3.3729  5.5365
    1SAPS   C33   85   7.356   5.317   6.837 -0.6866 -0.2701  0.7768
    1SAPS   H3X   86   7.296   5.400   6.879 -1.3274  0.1353 -0.8632
    1SAPS   H3Y   87   7.291   5.236   6.796  2.4071 -2.6527  0.1789
    1SAPS   C34   88   7.467   5.364   6.742 -0.2735 -0.1688  0.0332
    1SAPS   H4X   89   7.556   5.298   6.737  0.6120  1.1007 -1.6735
    1SAPS   H4Y   90   7.497   5.461   6.789 -1.4531  0.9801 -1.4855
    1SAPS   C35   91   7.420   5.395   6.597 -0.1304 -0.0154 -1.0090
    1SAPS   H5X   92   7.317   5.436   6.608  0.3530  0.7698  1.0548
    1SAPS   H5Y   93   7.413   5.299   6.541  0.6473  0.3197 -1.7181
    1SAPS   C36   94   7.517   5.480   6.510  0.4173 -0.8975 -0.1757
    1SAPS   H6X   95   7.624   5.449   6.503  0.8679  0.0764  1.6159
    1SAPS   H6Y   96   7.525   5.578   6.561  1.2038  0.0473 -2.0061
    1SAPS   C37   97   7.451   5.506   6.370  0.1498  0.0665 -0.2766
    1SAPS   H7X   98   7.526   5.572   6.320  0.4511 -0.1439 -0.1070
    1SAPS   H7Y   99   7.359   5.566   6.389  1.3205  1.5412  1.0506
    1SAPS   C38  100   7.439   5.385   6.276 -0.1432  0.1261 -0.1699
    1SAPS   H8X  101   7.374   5.315   6.333  1.2065 -0.5519  0.5984
    1SAPS   H8Y  102   7.528   5.319   6.267 -0.2483  0.2170 -2.3385
    1SAPS   C39  103   7.382   5.423   6.139 -0.2680  0.1709 -0.4800
    1SAPS   H9X  104   7.349   5.528   6.152  1.1714  0.3782  2.4181
    1SAPS   H9Y  105   7.289   5.369   6.112 -0.1291 -0.2305 -0.1635
    1SAPS  C310  106   7.486   5.418   6.026 -0.2624  0.4054  0.6656
    1SAPS  H10X  107   7.531   5.316   6.016 -0.2177  0.5347 -0.6793
    1SAPS  H10Y  108   7.567   5.485   6.062  1.6445 -2.1862  1.5359
    1SAPS  C311  109   7.430   5.460   5.887 -0.5848 -0.3748  0.1481
    1SAPS  H11X  110   7.437   5.571   5.891  1.2816 -0.4968  1.6704
    1SAPS  H11Y  111   7.320   5.443   5.890 -0.5899 -0.8314 -1.3899
    1SAPS  C312  112   7.515   5.399   5.775  0.4650 -0.0145  0.0122
    1SAPS  H12X  113   7.512   5.288   5.775 -1.2036  0.0005  0.7632
    1SAPS  H12Y  114   7.621   5.433   5.782  1.3332 -2.1154 -1.8809
    1SAPS  C313  115   7.463   5.452   5.634  0.6640 -0.0682 -0.3884
    1SAPS  H13X  116   7.504   5.554   5.620 -0.5333  0.1874 -2.2499
    1SAPS  H13Y  117   7.353   5.466   5.636  0.6757  0.1914  2.1024
    1SAPS  C314  118   7.489   5.362   5.512  0.5371  0.2250  0.4645
    1SAPS  H14X  119   7.595   5.328   5.510  0.0170 -1.4324 -0.2889
    1SAPS  H14Y  120   7.474   5.424   5.421 -1.0375 -1.7501 -0.7041
    1SAPS  C315  121   7.392   5.248   5.492  0.3063  0.2142  0.6886
    1SAPS  H15X  122   7.285   5.276   5.502  0.6507  1.3999  1.1663
    1SAPS  H15Y  123   7.409   5.171   5.570  0.2904 -0.4599  0.0420
    1SAPS  C316  124   7.407   5.181   5.353  0.2628  0.7796  0.4471
    1SAPS  H16X  125   7.500   5.120   5.347 -1.2450 -1.7875  1.4006
    1SAPS  H16Y  126   7.417   5.263   5.279 -1.3347  0.9354  0.3717
    1SAPS  C317  127   7.299   5.087   5.308 -0.1589  0.0163  0.1746
    1SAPS  H17X  128   7.207   5.146   5.288 -0.0862  0.6749  1.6993
    1SAPS  H17Y  129   7.269   5.008   5.379  1.8123 -0.0662  0.9628
    1SAPS  C318  130   7.339   5.033   5.170 -0.0704 -0.2236  0.0738
    1SAPS  H18X  131   7.448   5.014   5.176  0.6179  2.2219 -2.5776
    1SAPS  H18Y  132   7.332   5.114   5.094 -0.7092 -0.9474 -0.6588
    1SAPS  H18Z  133   7.288   4.936   5.153 -1.7308  0.6091  0.0127
    2SAPS     N  134   2.143   4.383   7.709  0.0858  0.0482  0.3935
    2SAPS   HN1  135   2.165   4.282   7.721  1.0698 -0.1033 -2.1340
    2SAPS   HN2  136   2.073   4.413   7.781 -1.6734  0.5279 -1.4394
    2SAPS   HN3  137   2.096   4.377   7.617 -0.0553 -0.9499  0.5236
    2SAPS   C12  138   2.263   4.469   7.711 -0.3901 -0.1388  0.3305
    2SAPS  H12A  139   2.234   4.567   7.676 -1.5766  0.1863  2.0972
    2SAPS   C13  140   2.316   4.492   7.854  0.3800 -0.1117  0.2010
    2SAPS  O13A  141   2.283   4.415   7.949  0.3555  0.4259 -0.2744
    2SAPS  O13B  142   2.404   4.580   7.872  0.0063 -0.0945  0.1959
    2SAPS   C11  143   2.373   4.410   7.621  1.3996 -0.5467 -0.0578
    2SAPS  H11A  144   2.420   4.328   7.679  1.6408 -0.5577 -0.2662
    2SAPS  H11B  145   2.452   4.486   7.601  2.2047 -0.5770  2.6492
    2SAPS     P  146   2.264   4.453   7.384  0.1722  0.2118 -0.1931
    2SAPS   O13  147   2.163   4.365   7.309 -0.5702 -0.2615 -0.3656
    2SAPS   O14  148   2.210   4.587   7.418 -0.2406 -0.0590  0.2704
    2SAPS   O12  149   2.311   4.360   7.502 -0.1230  0.0762 -0.0321
    2SAPS   O11  150   2.398   4.468   7.301  1.0094 -0.0906  0.3924
    2SAPS    C1  151   2.483   4.363   7.275  0.6473 -0.6219 -0.2377
    2SAPS    HA  152   2.575   4.385   7.333  1.1238 -0.8575 -0.8826
    2SAPS    HB  153   2.444   4.267   7.315  1.1950 -0.6936  0.1277
    2SAPS    C2  154   2.521   4.338   7.127  0.5214 -0.2903  0.5548
    2SAPS    HS  155   2.613   4.278   7.147 -0.3083 -1.2958  1.5195
    2SAPS   O21  156   2.540   4.460   7.056 -0.3133 -0.7641  0.4018
    2SAPS   C21  157   2.644   4.468   6.971 -1.2305 -0.5897  0.5968
    2SAPS   O22  158   2.735   4.389   6.959  0.0271 -0.1631  0.0879
    2SAPS   C22  159   2.652   4.597   6.883  0.1990  1.1217  0.1908
    2SAPS   H2R  160   2.692   4.687   6.934 -0.2029  1.6412 -0.3963
    2SAPS   H2S  161   2.726   4.571   6.805  2.2819  1.9228  1.8119
    2SAPS    C3  162   2.418   4.247   7.054  0.4734 -0.1556  0.1090
    2SAPS    HX  163   2.322   4.301   7.043 -0.2753 -1.4621 -0.0177
    2SAPS    HY  164   2.399   4.157   7.117 -0.5997 -0.0147 -0.0012
    2SAPS   O31  165   2.460   4.221   6.914 -0.3199 -0.1626 -0.1310
    2SAPS   C31  166   2.499   4.101   6.884  1.0381 -0.0762 -0.7684
    2SAPS   O32  167   2.472   4.001   6.947 -0.6062  0.4942  0.1095
    2SAPS   C32  168   2.540   4.100   6.737 -0.0090  0.8677  0.0638
    2SAPS   H2X  169   2.466   4.036   6.684  1.7476  1.1328 -2.9599
    2SAPS   H2Y  170   2.639   4.050   6.741 -0.4548  0.0781  1.6722
    2SAPS   C23  171   2.518   4.638   6.819  0.1390  0.3008  0.1251
    2SAPS   H3R  172   2.465   4.703   6.892  1.0775  1.0466  0.1595
    2SAPS   H3S  173   2.457   4.548   6.796  0.2904  0.8659 -2.7914
    2SAPS   C24  174   2.529   4.694   6.672 -0.1191 -0.8638 -0.2225
    2SAPS   H4R  175   2.572   4.617   6.604 -0.0081 -1.2027  0.2317
    2SAPS   H4S  176   2.606   4.775   6.672 -1.4228  0.4141 -0.6473
    2SAPS   C25  177   2.399   4.745   6.613 -0.1196  0.1970  0.0347
    2SAPS   H5R  178   2.340   4.806   6.682 -0.7492  0.5567 -0.7979
    2SAPS   C26  179   2.354   4.735   6.486  0.5280  0.0425 -0.4240
    2SAPS   H6R  180   2.257   4.781   6.461  0.4671 -0.2035 -0.6474
    2SAPS   C27  181   2.425   4.656   6.382  0.5444 -0.7119 -0.4464
    2SAPS   H7R  182   2.535   4.661   6.392  0.3366  0.7026  2.2618
    2SAPS   H7S  183   2.406   4.711   6.287 -0.2568  1.8902  1.0838
    2SAPS   C28  184   2.396   4.515   6.364  0.1734  0.7675  0.0239
    2SAPS   H8R  185   2.370   4.469   6.460 -1.2980  0.2168 -0.6112
    2SAPS   C29  186   2.390   4.440   6.254  0.6867 -0.1619 -0.1227
    2SAPS   H9R  187   2.347   4.339   6.265 -1.3449  0.9139  3.8709
    2SAPS  C210  188   2.424   4.493   6.117 -0.6706  0.5356  0.2275
    2SAPS  H10R  189   2.482   4.430   6.046 -1.3151  0.2711 -0.0708
    2SAPS  H10S  190   2.481   4.589   6.125  1.1745 -0.3029 -1.8923
    2SAPS  C211  191   2.299   4.536   6.052 -0.6335  0.2910  0.0530
    2SAPS  H11R  192   2.238   4.602   6.115  0.6860 -0.0557  1.7545
    2SAPS  C212  193   2.262   4.511   5.922 -0.2940  0.8524 -0.2453
    2SAPS  H12R  194   2.172   4.564   5.889 -0.7226  1.0333  1.1419
    2SAPS  C213  195   2.335   4.441   5.809  0.6763  0.4580  0.0309
    2SAPS  H13R  196   2.444   4.434   5.825  0.8176  0.3503 -0.9226
    2SAPS  H13S  197   2.297   4.481   5.713 -1.2530  0.3621  0.7031
    2SAPS  C214  198   2.266   4.303   5.804 -0.0782  0.6230  0.4065
    2SAPS  H14R  199   2.245   4.260   5.904  5.6058 -1.2908  1.1062
    2SAPS  C215  200   2.216   4.233   5.703 -0.4715  0.2299  0.4933
    2SAPS  H15R  201   2.200   4.125   5.703 -1.5742  0.3823  0.4165
    2SAPS  C216  202   2.236   4.266   5.558 -0.9030  0.1802  0.9856
    2SAPS  H16R  203   2.283   4.180   5.506  0.1467  1.6141 -0.5284
    2SAPS  H16S  204   2.308   4.349   5.543 -2.6302  1.3296 -1.5197
    2SAPS  C217  205   2.106   4.302   5.475  0.1671 -0.2287 -0.1530
    2SAPS  H17R  206   2.057   4.387   5.528  0.2650 -0.9810  1.1851
    2SAPS  H17S  207   2.042   4.212   5.475  1.1559 -0.9457 -0.5185
    2SAPS  C218  208   2.150   4.321   5.332 -0.1249  0.0427  0.3654
    2SAPS  H18R  209   2.201   4.232   5.290  1.8790  1.1818  0.2530
    2SAPS  H18S  210   2.228   4.400   5.336  0.6826 -0.5989 -1.6719
    2SAPS  C219  211   2.035   4.360   5.234 -0.0923 -0.0170  0.3006
    2SAPS  H19R  212   1.994   4.455   5.276 -0.0100  0.5576 -0.8649
    2SAPS  H19S  213   1.962   4.277   5.230 -0.6309  0.4809 -1.1321
    2SAPS  C220  214   2.095   4.392   5.095  0.1370 -0.1318 -0.3685
    2SAPS  H20R  215   2.162   4.308   5.064  1.7754  0.0027  2.4970
    2SAPS  H20S  216   2.155   4.485   5.098  0.1673 -0.1680  0.2260
    2SAPS  H20T  217   2.019   4.416   5.018  0.3853 -0.2219 -0.6442
    2SAPS   C33  218   2.542   4.230   6.666 -0.4871 -0.2105  0.1351
    2SAPS   H3X  219   2.616   4.297   6.714 -0.3630 -0.5517  0.4306
    2SAPS   H3Y  220   2.441   4.275   6.679 -0.8621 -1.0367  0.1744
    2SAPS   C34  221   2.583   4.227   6.513 -0.3610 -0.4955 -0.5608
    2SAPS   H4X  222   2.685   4.183   6.514  0.6714  1.7794  0.1720
    2SAPS   H4Y  223   2.583   4.330   6.471 -0.7141  0.6675  2.1135
    2SAPS   C35  224   2.491   4.150   6.420  0.0156  0.4797  0.2585
    2SAPS   H5X  225   2.388   4.191   6.411 -0.2624 -0.5755 -2.7058
    2SAPS   H5Y  226   2.483   4.055   6.476 -0.5263 -0.1610 -0.8582
    2SAPS   C36  227   2.545   4.134   6.277 -0.5946 -0.2867 -0.0738
    2SAPS   H6X  228   2.648   4.093   6.271 -0.8632 -0.9454 -0.2763
    2SAPS   H6Y  229   2.562   4.233   6.230 -1.0226 -0.7067 -1.1345
    2SAPS   C37  230   2.463   4.045   6.188  0.0794 -0.7511 -0.5016
    2SAPS   H7X  231   2.354   4.063   6.202  0.3238  0.3439  0.1787
    2SAPS   H7Y  232   2.479   3.937   6.203  1.3245 -0.4122  0.7888
    2SAPS   C38  233   2.480   4.085   6.043 -0.8337  0.1707  0.2900
    2SAPS   H8X  234   2.589   4.100   6.029 -1.0730  1.9374  0.1722
    2SAPS   H8Y  235   2.442   4.188   6.032  4.3582  2.2653 -0.9795
    2SAPS   C39  236   2.402   3.989   5.955 -0.1299  0.4714  0.2420
    2SAPS   H9X  237   2.372   4.036   5.859 -2.1177  0.2574  0.7002
    2SAPS   H9Y  238   2.295   3.975   5.981 -0.3690  1.2323 -0.2894
    2SAPS  C310  239   2.464   3.854   5.927  0.6725 -0.8772  0.7416
    2SAPS  H10X  240   2.437   3.792   6.015 -3.7126 -0.4159 -0.0572
    2SAPS  H10Y  241   2.571   3.867   5.899  0.3464  1.7805  0.5014
    2SAPS  C311  242   2.399   3.788   5.796 -0.6158 -0.3111 -0.7774
    2SAPS  H11X  243   2.425   3.852   5.709  0.8065  0.9017  0.4674
    2SAPS  H11Y  244   2.289   3.792   5.811 -0.5439  2.1949 -0.3986
    2SAPS  C312  245   2.450   3.645   5.762  0.1568 -0.1220 -0.3931
    2SAPS  H12X  246   2.438   3.583   5.854 -1.7107 -1.1279 -1.2501
    2SAPS  H12Y  247   2.560   3.642   5.744  1.4000 -1.8670  5.3751
    2SAPS  C313  248   2.384   3.578   5.640 -0.3412  0.1822  0.0572
    2SAPS  H13X  249   2.341   3.659   5.578  0.1481 -0.0003 -0.5352
    2SAPS  H13Y  250   2.302   3.511   5.674 -0.6867 -0.8291 -2.5212
    2SAPS  C314  251   2.485   3.489   5.555 -0.2844 -0.2014  0.1965
    2SAPS  H14X  252   2.536   3.423   5.628 -0.6614 -0.8378 -0.1025
    2SAPS  H14Y  253   2.565   3.547   5.504 -1.8015  0.8108 -1.1208
    2SAPS  C315  254   2.418   3.411   5.440  0.2089  0.1266 -0.4618
    2SAPS  H15X  255   2.387   3.487   5.366  0.3595  1.5018  0.8448
    2SAPS  H15Y  256   2.328   3.355   5.475 -1.3782  1.5579 -2.0774
    2SAPS  C316  257   2.516   3.323   5.373 -0.6621  0.3038 -0.8333
    2SAPS  H16X  258   2.549   3.238   5.436 -1.1055  0.4872 -0.3523
    2SAPS  H16Y  259   2.611   3.376   5.352 -0.4083 -0.2668 -1.1774
    2SAPS  C317  260   2.478   3.284   5.228  0.1186  0.2584  0.3495
    2SAPS  H17X  261   2.462   3.368   5.157  0.2129 -0.4524 -0.5406
    2SAPS  H17Y  262   2.381   3.232   5.242  0.3202 -1.0210 -2.3733
    2SAPS  C318  263   2.585   3.181   5.171 -0.5333  0.3228 -0.6492
    2SAPS  H18X  264   2.672   3.232   5.126  0.0466 -0.5186 -0.5139
    2SAPS  H18Y  265   2.523   3.119   5.102 -1.6001 -1.8719  2.0528
    2SAPS  H18Z  266   2.612   3.108   5.251 -1.5807  1.3450  0.6818
    3SAPS     N  267   2.798   2.829   7.194  0.2659 -0.0056 -0.2088
    3SAPS   HN1  268   2.773   2.782   7.105 -0.7937 -1.1214  0.6429
    3SAPS   HN2  269   2.706   2.850   7.238 -0.1510 -2.0990  0.0056
    3SAPS   HN3  270   2.836   2.922   7.166 -0.7992 -0.2415 -2.6498
    3SAPS   C12  271   2.894   2.748   7.266 -0.2022 -0.2070  0.2799
    3SAPS  H12A  272   2.961   2.809   7.325  0.0931  1.0963 -1.3338
    3SAPS   C13  273   2.844   2.656   7.377  0.0256 -0.5542  0.2679
    3SAPS  O13A  274   2.715   2.638   7.378 -0.7622  0.4784 -0.2847
    3SAPS  O13B  275   2.925   2.583   7.442 -0.2681  0.3697  0.1299
    3SAPS   C11  276   2.963   2.663   7.159 -0.1386 -0.7256  0.0735
    3SAPS  H11A  277   2.904   2.595   7.094 -0.0845 -0.6395 -0.0663
    3SAPS  H11B  278   3.032   2.596   7.216  1.3557 -0.2994 -1.1571
    3SAPS     P  279   3.150   2.707   6.993 -0.4022  0.0874 -0.4363
    3SAPS   O13  280   3.284   2.733   7.051  0.3010 -0.6705  0.1228
    3SAPS   O14  281   3.135   2.566   6.960 -0.1170  0.0978  0.1317
    3SAPS   O12  282   3.042   2.766   7.089  0.8591  0.2342 -0.5105
    3SAPS   O11  283   3.132   2.795   6.858 -0.9077  0.6589  0.1682
    3SAPS    C1  284   3.130   2.935   6.857  0.2040 -0.0138 -0.0688
    3SAPS    HA  285   3.033   2.973   6.896 -1.0462 -0.3233 -2.6701
    3SAPS    HB  286   3.205   2.984   6.923 -0.5495  3.1744 -1.4206
    3SAPS    C2  287   3.149   2.989   6.715  0.1757 -0.1640 -0.1114
    3SAPS    HS  288   3.112   3.093   6.720  2.0268  0.6252 -1.5458
    3SAPS   O21  289   3.067   2.929   6.622  0.2138  0.1055 -0.3898
    3SAPS   C21  290   2.940   2.959   6.605 -0.0460 -0.5802 -0.2965
    3SAPS   O22  291   2.878   3.045   6.661  0.9257  0.1761 -0.4414
    3SAPS   C22  292   2.878   2.871   6.504 -0.3956  0.1206  0.6118
    3SAPS   H2R  293   2.927   2.771   6.502 -0.8745 -0.1570 -2.3404
    3SAPS   H2S  294   2.775   2.845   6.538  0.5736 -1.5857  2.4628
    3SAPS    C3  295   3.289   2.986   6.667 -0.4969 -0.2913  0.3140
    3SAPS    HX  296   3.312   2.877   6.664 -0.2828 -0.3386  2.5200
    3SAPS    HY  297   3.354   3.036   6.741 -1.1902  1.7633 -0.4134
    3SAPS   O31  298   3.291   3.052   6.540  0.1415  0.0431  0.0949
    3SAPS   C31  299   3.401   3.028   6.469 -0.4648  0.1705  0.0633
    3SAPS   O32  300   3.489   2.952   6.512 -0.5351  0.6577  0.2428
    3SAPS   C32  301   3.407   3.110   6.338  0.1588 -0.2327 -0.2743
    3SAPS   H2X  302   3.404   3.220   6.351  1.9279 -0.0797 -0.8407
    3SAPS   H2Y  303   3.314   3.081   6.285 -0.7145  3.8693 -1.3436
    3SAPS   C23  304   2.880   2.936   6.365 -0.1811  0.1572  0.0627
    3SAPS   H3R  305   2.851   3.042   6.378  0.5395  0.1867  1.7784
    3SAPS   H3S  306   2.812   2.883   6.295  0.7150 -2.3631  1.0035
    3SAPS   C24  307   3.020   2.955   6.307  0.1577  0.1032  0.2349
    3SAPS   H4R  308   3.092   3.022   6.359  0.1068 -0.9780  1.7727
    3SAPS   H4S  309   2.990   2.991   6.207 -0.7145 -0.6007  0.2317
    3SAPS   C25  310   3.093   2.824   6.309 -0.5446  0.4360 -0.2931
    3SAPS   H5R  311   3.164   2.825   6.393 -1.3831 -0.2554  0.4479
    3SAPS   C26  312   3.077   2.716   6.225 -0.9394 -0.1585  0.1719
    3SAPS   H6R  313   3.127   2.620   6.245  0.9059  0.6220 -0.4977
    3SAPS   C27  314   2.968   2.702   6.122 -0.1631  0.4994  0.6800
    3SAPS   H7R  315   2.912   2.797   6.105 -0.4252  0.1495 -0.5681
    3SAPS   H7S  316   2.898   2.626   6.162  1.6484  0.6700  4.6168
    3SAPS   C28  317   3.019   2.646   5.988 -0.3959 -0.3986 -0.1648
    3SAPS   H8R  318   3.090   2.561   5.987 -2.0446 -1.8491  0.2432
    3SAPS   C29  319   2.976   2.690   5.865 -0.3308 -0.2919 -1.1539
    3SAPS   H9R  320   3.029   2.663   5.773 -0.9285  1.5083 -2.0784
    3SAPS  C210  321   2.870   2.793   5.843 -0.3283  0.3805  0.1088
    3SAPS  H10R  322   2.801   2.805   5.930 -1.5708  0.3666 -0.8470
    3SAPS  H10S  323   2.798   2.767   5.762 -1.4058  1.5271  0.6662
    3SAPS  C211  324   2.941   2.924   5.814 -0.0834  1.1608  0.3049
    3SAPS  H11R  325   2.977   2.982   5.899 -0.4975  0.7823  0.7468
    3SAPS  C212  326   2.943   2.982   5.694  0.6499  0.0388  0.0692
    3SAPS  H12R  327   2.981   3.085   5.699  3.5035 -0.9453  0.4815
    3SAPS  C213  328   2.882   2.930   5.560 -0.2586 -0.4326 -0.2414
    3SAPS  H13R  329   2.857   3.016   5.494 -0.4942 -0.0849  0.2908
    3SAPS  H13S  330   2.786   2.875   5.577  0.7799 -1.7018  1.9759
    3SAPS  C214  331   2.983   2.849   5.482 -0.2657 -0.4614 -0.0909
    3SAPS  H14R  332   3.048   2.788   5.547  1.7882  1.6772 -0.0446
    3SAPS  C215  333   2.996   2.842   5.350  0.1373 -0.6120 -0.6276
    3SAPS  H15R  334   3.076   2.775   5.313  1.0552  1.3426 -2.4122
    3SAPS  C216  335   2.911   2.900   5.241 -0.6052 -0.1811  0.6114
    3SAPS  H16R  336   2.943   3.002   5.211 -0.5298 -0.3696  0.0393
    3SAPS  H16S  337   2.803   2.907   5.266 -2.2152 -1.7583 -4.6051
    3SAPS  C217  338   2.907   2.815   5.111  0.8596  0.4748  0.1103
    3SAPS  H17R  339   2.911   2.705   5.128 -0.6484  0.8126  3.4809
    3SAPS  H17S  340   3.009   2.833   5.072  1.4976  1.4763  2.1233
    3SAPS  C218  341   2.794   2.867   5.027 -0.6200 -0.2588 -0.0200
    3SAPS  H18R  342   2.817   2.972   4.998  2.6577 -1.4331 -2.1423
    3SAPS  H18S  343   2.699   2.863   5.086  1.1896 -1.7758  3.0377
    3SAPS  C219  344   2.782   2.783   4.894 -0.7406 -0.6355  0.1593
    3SAPS  H19R  345   2.885   2.780   4.852 -0.4074 -0.7801  0.9536
    3SAPS  H19S  346   2.747   2.682   4.926 -0.7683 -0.4342  0.7892
    3SAPS  C220  347   2.697   2.847   4.783 -0.3745 -0.4971 -0.7422
    3SAPS  H20R  348   2.597   2.865   4.830  1.4822  0.2769  3.4207
    3SAPS  H20S  349   2.700   2.783   4.692 -0.3805 -1.8840  0.1940
    3SAPS  H20T  350   2.744   2.944   4.759 -2.2499  0.7431  0.3014
    3SAPS   C33  351   3.517   3.068   6.235 -0.7159 -0.3577 -0.1888
    3SAPS   H3X  352   3.545   2.961   6.224  2.2695  0.4946 -1.9641
    3SAPS   H3Y  353   3.611   3.118   6.265  0.4921 -2.4344 -0.3052
    3SAPS   C34  354   3.483   3.127   6.095 -0.1216 -0.2010  0.4626
    3SAPS   H4X  355   3.584   3.134   6.048 -0.5493 -0.1871 -0.4686
    3SAPS   H4Y  356   3.430   3.224   6.096 -0.5303 -0.3747 -1.0426
    3SAPS   C35  357   3.392   3.035   6.010 -0.2748  0.1673 -0.2685
    3SAPS   H5X  358   3.434   2.936   6.039  1.3382  1.7101  3.2623
    3SAPS   H5Y  359   3.285   3.033   6.038 -0.2694  1.4160 -0.1044
    3SAPS   C36  360   3.410   3.073   5.863 -0.4596  0.1436 -0.0362
    3SAPS   H6X  361   3.504   3.029   5.823 -0.4243  0.2630 -0.0847
    3SAPS   H6Y  362   3.415   3.183   5.850 -1.0655 -0.0573 -2.4911
    3SAPS   C37  363   3.308   3.020   5.758  0.5602 -0.1083  0.7244
    3SAPS   H7X  364   3.199   3.039   5.768  0.3020 -1.5926  0.8556
    3SAPS   H7Y  365   3.315   2.911   5.773  0.8951 -0.3046 -0.7238
    3SAPS   C38  366   3.362   3.036   5.613  0.5457 -0.5983 -0.9512
    3SAPS   H8X  367   3.283   2.993   5.548 -1.6741  2.3783 -0.4149
    3SAPS   H8Y  368   3.457   2.980   5.603  2.5775  2.1371  1.2514
    3SAPS   C39  369   3.389   3.179   5.568  0.3153 -0.5326 -0.4045
    3SAPS   H9X  370   3.473   3.222   5.627 -0.4231  0.8170 -0.2846
    3SAPS   H9Y  371   3.300   3.247   5.574 -0.2232 -1.3604  2.9802
    3SAPS  C310  372   3.433   3.189   5.424  0.4515 -0.5175  0.5284
    3SAPS  H10X  373   3.514   3.115   5.403  1.0543  0.0143  0.9253
    3SAPS  H10Y  374   3.478   3.290   5.411  0.9148 -0.9308 -1.3925
    3SAPS  C311  375   3.329   3.155   5.319 -0.2899  0.8521 -0.4402
    3SAPS  H11X  376   3.245   3.225   5.338  0.1560  1.3915 -0.4245
    3SAPS  H11Y  377   3.305   3.050   5.347 -3.6650  1.5721 -0.1846
    3SAPS  C312  378   3.379   3.146   5.175 -0.1916  0.2434 -0.2487
    3SAPS  H12X  379   3.300   3.098   5.113  0.5883 -1.3439 -0.0866
    3SAPS  H12Y  380   3.466   3.077   5.169  0.4350  1.0946 -1.1346
    3SAPS  C313  381   3.410   3.293   5.125  0.2645  0.7647 -0.2180
    3SAPS  H13X  382   3.516   3.319   5.143  0.1671 -0.3805  2.5357
    3SAPS  H13Y  383   3.350   3.363   5.187  2.7299  1.6951  1.2506
    3SAPS  C314  384   3.379   3.310   4.978 -0.3213  0.0449  0.4183
    3SAPS  H14X  385   3.424   3.405   4.944  0.9860 -0.7197 -0.0784
    3SAPS  H14Y  386   3.268   3.308   4.966 -0.2672  0.9523 -0.3564
    3SAPS  C315  387   3.450   3.209   4.885  0.0585  0.0502  0.4290
    3SAPS  H15X  388   3.413   3.109   4.915  1.7035 -1.3295 -1.8102
    3SAPS  H15Y  389   3.559   3.211   4.907  0.3498 -0.4742 -0.8900
    3SAPS  C316  390   3.434   3.242   4.741  0.3551 -0.2436  0.5379
    3SAPS  H16X  391   3.493   3.333   4.715 -1.2626  0.2551 -1.7068
    3SAPS  H16Y  392   3.329   3.267   4.716  0.1692 -0.9171  0.6268
    3SAPS  C317  393   3.495   3.139   4.641 -0.4750 -0.9455 -0.2762
    3SAPS  H17X  394   3.428   3.050   4.645 -1.0577 -0.4590  1.1177
    3SAPS  H17Y  395   3.598   3.113   4.673  1.0340  3.0586 -1.2182
    3SAPS  C318  396   3.499   3.188   4.490 -0.2295 -0.0889  0.3539
    3SAPS  H18X  397   3.589   3.253   4.492  0.0657 -0.4501 -0.5832
    3SAPS  H18Y  398   3.410   3.245   4.456 -1.3538 -1.2517  1.2444
    3SAPS  H18Z  399   3.510   3.100   4.423  0.5007 -0.7702  1.3308
    4SAPS     N  400   1.148   4.391   7.123 -0.2397 -0.5850  0.2671
    4SAPS   HN1  401   1.170   4.442   7.210  0.8504  0.5540 -0.6499
    4SAPS   HN2  402   1.171   4.455   7.045 -3.3177  0.6208  0.2135
    4SAPS   HN3  403   1.045   4.381   7.113 -0.1899 -0.1889 -0.7648
    4SAPS   C12  404   1.221   4.264   7.115 -0.0393 -0.6213  0.4987
    4SAPS  H12A  405   1.221   4.224   7.015 -0.2708 -0.0884  0.2806
    4SAPS   C13  406   1.371   4.281   7.168 -0.0400 -0.0388 -0.2766
    4SAPS  O13A  407   1.394   4.384   7.235  0.3777  0.2183  0.6658
    4SAPS  O13B  408   1.433   4.171   7.179 -0.1005 -0.1758  0.1773
    4SAPS   C11  409   1.153   4.160   7.200  0.9884  0.0535 -0.0850
    4SAPS  H11A  410   1.162   4.184   7.308  0.1804  1.8871 -0.3828
    4SAPS  H11B  411   1.211   4.069   7.174 -0.3459 -1.2718  1.3601
    4SAPS     P  412   0.958   3.988   7.185  0.0185 -0.2122  0.3871
    4SAPS   O13  413   1.014   3.887   7.088  0.6822  0.3927 -0.4109
    4SAPS   O14  414   0.982   3.961   7.330 -0.2340  1.0196 -0.2892
    4SAPS   O12  415   1.023   4.125   7.151 -0.5498 -1.0203 -0.7630
    4SAPS   O11  416   0.806   4.028   7.161 -0.4683  0.2218  0.1686
    4SAPS    C1  417   0.753   4.156   7.191 -0.0555 -0.3956 -1.1238
    4SAPS    HA  418   0.696   4.147   7.287  0.0446 -2.6971 -1.2327
    4SAPS    HB  419   0.826   4.232   7.225  0.1458 -1.3922  0.8564
    4SAPS    C2  420   0.648   4.213   7.092 -0.1285 -0.2985 -0.0183
    4SAPS    HS  421   0.561   4.145   7.096  0.1217 -0.6653 -0.7306
    4SAPS   O21  422   0.699   4.203   6.957 -0.2835 -0.3788 -0.3771
    4SAPS   C21  423   0.819   4.260   6.937 -0.4123 -0.2204 -0.8356
    4SAPS   O22  424   0.869   4.337   7.021 -0.7258  0.1910 -0.2058
    4SAPS   C22  425   0.867   4.225   6.800 -0.0499  0.2111 -0.0135
    4SAPS   H2R  426   0.944   4.146   6.813  0.1594  0.5016  0.5362
    4SAPS   H2S  427   0.778   4.199   6.739 -0.1438  1.2902 -0.3590
    4SAPS    C3  428   0.605   4.351   7.130 -0.2272 -0.0718 -0.3208
    4SAPS    HX  429   0.693   4.414   7.158 -1.0197  0.2289  1.6772
    4SAPS    HY  430   0.554   4.345   7.228 -2.6519 -0.6616 -1.5466
    4SAPS   O31  431   0.531   4.410   7.019  0.3022 -0.5844 -0.0553
    4SAPS   C31  432   0.492   4.538   7.034 -0.0382  0.4392 -0.6219
    4SAPS   O32  433   0.493   4.601   7.139  0.3183 -0.0459 -0.1501
    4SAPS   C32  434   0.459   4.613   6.908  0.6708  0.4338  0.4351
    4SAPS   H2X  435   0.350   4.602   6.888  0.3418  1.4646  1.4914
    4SAPS   H2Y  436   0.516   4.564   6.827 -0.6550  0.9242 -0.8279
    4SAPS   C23  437   0.939   4.343   6.725 -0.0161  0.4980  0.5814
    4SAPS   H3R  438   0.961   4.297   6.626 -2.1144 -0.9160  0.7121
    4SAPS   H3S  439   1.038   4.368   6.770  0.1774  0.4316  0.2036
    4SAPS   C24  440   0.855   4.466   6.723  0.3362 -0.2095  0.1292
    4SAPS   H4R  441   0.913   4.536   6.658 -0.3889 -0.3801 -0.7235
    4SAPS   H4S  442   0.858   4.521   6.820  2.5304  0.4915 -0.2655
    4SAPS   C25  443   0.712   4.439   6.677 -0.3900 -0.6466 -0.3170
    4SAPS   H5R  444   0.654   4.387   6.755  1.1378 -1.7223  0.1476
    4SAPS   C26  445   0.661   4.471   6.558  0.4286 -0.6266 -0.0978
    4SAPS   H6R  446   0.553   4.457   6.541 -0.0781  0.6797  1.7999
    4SAPS   C27  447   0.721   4.550   6.446  0.2586  0.1133 -0.1916
    4SAPS   H7R  448   0.785   4.632   6.483  1.4208 -0.8332 -0.0337
    4SAPS   H7S  449   0.643   4.593   6.380 -0.0187 -1.4135 -0.9232
    4SAPS   C28  450   0.811   4.457   6.371 -0.3253 -0.1739  0.2460
    4SAPS   H8R  451   0.853   4.380   6.437  0.7610  0.4754  0.3350
    4SAPS   C29  452   0.830   4.435   6.235 -0.5457 -1.0886 -0.0188
    4SAPS   H9R  453   0.906   4.360   6.207  0.9749  0.1630  0.6390
    4SAPS  C210  454   0.776   4.531   6.133  0.0467 -0.3513  0.3593
    4SAPS  H10R  455   0.777   4.639   6.158  1.1356  0.4928 -2.7905
    4SAPS  H10S  456   0.672   4.499   6.114 -0.9220  0.1217  4.0979
    4SAPS  C211  457   0.865   4.523   6.018  0.0759  1.1491  0.7613
    4SAPS  H11R  458   0.968   4.558   6.030  1.7873 -3.7219  2.3851
    4SAPS  C212  459   0.831   4.467   5.898  0.3583 -0.2994 -0.6240
    4SAPS  H12R  460   0.912   4.479   5.823  0.6535  0.4318 -0.1993
    4SAPS  C213  461   0.705   4.394   5.862  0.1224 -0.2025 -0.2532
    4SAPS  H13R  462   0.665   4.436   5.767 -1.2965 -0.9693 -0.0222
    4SAPS  H13S  463   0.629   4.403   5.943  0.3353  2.0551 -0.2305
    4SAPS  C214  464   0.738   4.246   5.836 -0.1541 -0.1009 -0.0569
    4SAPS  H14R  465   0.844   4.230   5.863 -0.3749  1.4999  1.9591
    4SAPS  C215  466   0.647   4.154   5.801 -0.5632 -0.4320  0.5007
    4SAPS  H15R  467   0.683   4.052   5.782 -0.4739 -0.3356  0.1365
    4SAPS  C216  468   0.498   4.183   5.790 -0.0175 -0.4622  0.5455
    4SAPS  H16R  469   0.469   4.279   5.836 -0.5666 -0.4425  0.1586
    4SAPS  H16S  470   0.434   4.101   5.830  0.0409 -2.0392 -2.3345
    4SAPS  C217  471   0.463   4.219   5.643 -0.0121  0.0723 -0.5721
    4SAPS  H17R  472   0.539   4.287   5.599  0.8277 -0.4897 -0.0156
    4SAPS  H17S  473   0.364   4.269   5.642 -2.4551 -4.2378 -0.9459
    4SAPS  C218  474   0.459   4.093   5.560 -0.1023  0.2515 -0.3845
    4SAPS  H18R  475   0.369   4.036   5.591  0.0640 -0.4488 -1.1549
    4SAPS  H18S  476   0.549   4.029   5.567  0.0596  0.6705  2.0862
    4SAPS  C219  477   0.437   4.137   5.415 -0.0312  0.1359  0.3727
    4SAPS  H19R  478   0.372   4.226   5.407 -1.2756 -0.9327 -3.1167
    4SAPS  H19S  479   0.390   4.050   5.364 -0.6724 -0.2343  1.5389
    4SAPS  C220  480   0.564   4.160   5.338  0.3308  0.6155 -0.4291
    4SAPS  H20R  481   0.553   4.189   5.231 -0.5631 -3.3461 -1.6016
    4SAPS  H20S  482   0.609   4.059   5.327  1.0245  0.7951  0.6348
    4SAPS  H20T  483   0.641   4.217   5.392 -0.9284  2.2543 -0.2966
    4SAPS   C33  484   0.499   4.753   6.917  0.1340  0.4195 -0.1813
    4SAPS   H3X  485   0.598   4.769   6.965 -0.4976  0.0632  1.2639
    4SAPS   H3Y  486   0.424   4.805   6.980 -0.7512 -1.5118  0.4027
    4SAPS   C34  487   0.492   4.824   6.784  0.1702 -0.0595 -0.3085
    4SAPS   H4X  488   0.567   4.779   6.716  0.4307 -0.3515  0.1693
    4SAPS   H4Y  489   0.513   4.930   6.810  1.1666 -0.6296  1.3503
    4SAPS   C35  490   0.360   4.824   6.712 -0.2298  0.2377  0.4256
    4SAPS   H5X  491   0.291   4.875   6.782 -0.0580  1.6082 -0.3743
    4SAPS   H5Y  492   0.333   4.717   6.701 -1.1634  0.0659  3.4674
    4SAPS   C36  493   0.361   4.894   6.571  0.1300  0.6152 -1.3640
    4SAPS   H6X  494   0.400   4.997   6.565 -2.4559  1.7771 -0.0075
    4SAPS   H6Y  495   0.254   4.913   6.546  0.5238  1.8443 -2.1977
    4SAPS   C37  496   0.425   4.804   6.471  0.5224  0.0082 -0.0112
    4SAPS   H7X  497   0.388   4.699   6.478  2.4783 -0.7703 -0.6025
    4SAPS   H7Y  498   0.535   4.803   6.485  0.6920  2.0259 -0.9316
    4SAPS   C38  499   0.407   4.856   6.328  0.0424 -0.2067  0.3275
    4SAPS   H8X  500   0.449   4.959   6.329 -2.3016  0.8101  0.6125
    4SAPS   H8Y  501   0.299   4.852   6.301  0.0853  2.0677 -0.4479
    4SAPS   C39  502   0.496   4.780   6.224  0.6848 -0.1247 -0.0023
    4SAPS   H9X  503   0.481   4.671   6.240  2.7413 -0.3375  0.8400
    4SAPS   H9Y  504   0.604   4.796   6.243  0.6991 -0.5411  0.2913
    4SAPS  C310  505   0.445   4.810   6.076 -0.1634 -0.1762  0.0917
    4SAPS  H10X  506   0.469   4.912   6.039 -0.2291  0.5085  1.8395
    4SAPS  H10Y  507   0.334   4.813   6.076 -0.2128  0.7429 -2.5621
    4SAPS  C311  508   0.485   4.704   5.967 -0.2179 -0.5291 -0.1465
    4SAPS  H11X  509   0.470   4.599   6.001  2.3744 -0.4830  1.3983
    4SAPS  H11Y  510   0.596   4.706   5.962 -0.1732 -0.0450  0.8779
    4SAPS  C312  511   0.424   4.746   5.839  0.0686 -0.2397  0.3583
    4SAPS  H12X  512   0.447   4.851   5.809 -0.9905  0.1825  0.9866
    4SAPS  H12Y  513   0.314   4.742   5.848 -0.1718  1.3097 -1.3777
    4SAPS  C313  514   0.470   4.649   5.731 -0.3487  0.3860  0.5819
    4SAPS  H13X  515   0.435   4.552   5.774 -0.3013  0.1016 -0.0088
    4SAPS  H13Y  516   0.581   4.648   5.734 -0.3638  0.0021  1.8324
    4SAPS  C314  517   0.415   4.681   5.593 -0.3458 -0.4137 -0.8477
    4SAPS  H14X  518   0.492   4.750   5.553  1.8945 -2.3463 -0.1364
    4SAPS  H14Y  519   0.316   4.730   5.604 -0.3588 -0.5593 -0.2829
    4SAPS  C315  520   0.421   4.558   5.502 -0.0311 -0.3125 -0.4298
    4SAPS  H15X  521   0.367   4.475   5.552 -0.5735 -0.5275 -1.3526
    4SAPS  H15Y  522   0.527   4.527   5.499 -0.3106 -1.3021 -0.4981
    4SAPS  C316  523   0.368   4.592   5.359 -0.3380 -0.4176  0.1170
    4SAPS  H16X  524   0.273   4.649   5.366  0.7935  1.5667  0.0920
    4SAPS  H16Y  525   0.349   4.498   5.304 -0.5213  0.9169 -2.2727
    4SAPS  C317  526   0.475   4.675   5.276 -0.0179  0.2328 -0.0841
    4SAPS  H17X  527   0.578   4.644   5.304 -0.3817  1.0415  2.4196
    4SAPS  H17Y  528   0.477   4.777   5.321  4.1871  0.3212 -0.0545
    4SAPS  C318  529   0.463   4.663   5.124 -0.2150  0.8419  0.1293
    4SAPS  H18X  530   0.477   4.558   5.089  0.0253  1.2419 -1.0214
    4SAPS  H18Y  531   0.540   4.732   5.083  0.3213  1.1818  1.6378
    4SAPS  H18Z  532   0.360   4.694   5.096 -0.5275  0.0550  0.3898
    5SAPS     N  533   1.611   3.559   7.307  0.6803  0.5111  0.2848
    5SAPS   HN1  534   1.509   3.572   7.291  0.9254  1.6938 -0.3948
    5SAPS   HN2  535   1.669   3.577   7.222  1.1841  0.3688  0.5970
    5SAPS   HN3  536   1.623   3.459   7.335 -0.9223  0.4525  0.8525
    5SAPS   C12  537   1.675   3.652   7.405  0.2891 -0.4284  0.6019
    5SAPS  H12A  538   1.661   3.756   7.379  1.3972  0.0323  1.7017
    5SAPS   C13  539   1.619   3.642   7.545  0.1079  0.1352  0.5898
    5SAPS  O13A  540   1.533   3.554   7.575 -1.0631  0.1000  0.8606
    5SAPS  O13B  541   1.642   3.741   7.613  0.6418  0.4182 -0.0099
    5SAPS   C11  542   1.822   3.619   7.409  0.0030 -0.2310  1.0515
    5SAPS  H11A  543   1.839   3.519   7.454  0.9947 -0.6694 -0.2370
    5SAPS  H11B  544   1.866   3.703   7.467 -0.1845  0.7714 -0.2131
    5SAPS     P  545   2.016   3.661   7.236  0.0443  0.0249  0.2889
    5SAPS   O13  546   2.087   3.709   7.354  0.3510  0.6692 -0.5574
    5SAPS   O14  547   2.067   3.538   7.175 -0.5825  0.0823  0.3976
    5SAPS   O12  548   1.872   3.619   7.278  0.3261  0.0051  1.0043
    5SAPS   O11  549   1.994   3.779   7.129  0.0167 -0.3776  0.0452
    5SAPS    C1  550   1.879   3.857   7.110  0.8510  0.4296 -0.1238
    5SAPS    HA  551   1.789   3.800   7.080  0.5379 -0.9697  3.0873
    5SAPS    HB  552   1.842   3.906   7.202 -0.9362  1.4610 -1.3354
    5SAPS    C2  553   1.892   3.959   6.986 -0.4594 -0.3898  0.2219
    5SAPS    HS  554   1.790   3.973   6.945  0.8899  2.0853 -2.7610
    5SAPS   O21  555   1.984   3.920   6.878  0.0703 -0.2162  0.0102
    5SAPS   C21  556   1.945   3.814   6.809  0.7073  0.3461 -0.0121
    5SAPS   O22  557   1.841   3.748   6.827  0.4617  0.2291 -0.4947
    5SAPS   C22  558   2.058   3.779   6.706  0.3767  0.3192  0.2393
    5SAPS   H2R  559   2.068   3.875   6.650  2.2631  1.4266  2.3055
    5SAPS   H2S  560   2.148   3.751   6.765  0.6265 -0.4190 -0.4830
    5SAPS    C3  561   1.945   4.107   7.033  0.6110  0.3200  0.0339
    5SAPS    HX  562   2.042   4.085   7.083  0.8007 -2.7221 -1.4144
    5SAPS    HY  563   1.888   4.159   7.113  2.1155  1.2784  0.5293
    5SAPS   O31  564   1.963   4.196   6.917  0.2798  0.1997  0.1917
    5SAPS   C31  565   2.083   4.190   6.857 -0.5517  0.8388 -0.3735
    5SAPS   O32  566   2.176   4.116   6.899  0.6944  0.0604  0.6386
    5SAPS   C32  567   2.106   4.305   6.763  0.2299 -0.2138  0.2086
    5SAPS   H2X  568   2.186   4.370   6.804  1.2383 -1.0922 -0.3162
    5SAPS   H2Y  569   2.012   4.357   6.735  0.6339  0.7426  0.5943
    5SAPS   C23  570   2.022   3.663   6.614 -0.5387 -0.0835  0.4240
    5SAPS   H3R  571   1.948   3.594   6.660 -1.5406  0.8968  0.3496
    5SAPS   H3S  572   2.114   3.607   6.587  0.0224 -0.3402  2.6622
    5SAPS   C24  573   1.961   3.716   6.481  0.6038 -0.4008  0.3401
    5SAPS   H4R  574   2.038   3.771   6.422 -0.5363 -2.2080 -3.1330
    5SAPS   H4S  575   1.875   3.784   6.500 -0.1838 -1.5451  1.0358
    5SAPS   C25  576   1.915   3.600   6.399  0.0063  0.4653 -1.3131
    5SAPS   H5R  577   1.835   3.542   6.448  0.3901  1.4782  0.6239
    5SAPS   C26  578   1.961   3.563   6.277 -0.4255 -0.2934  0.1044
    5SAPS   H6R  579   1.903   3.484   6.229 -0.7088 -0.1139  0.1466
    5SAPS   C27  580   2.079   3.630   6.203  0.4230  0.5213  0.6891
    5SAPS   H7R  581   2.117   3.725   6.245  2.0784  0.0013  0.4340
    5SAPS   H7S  582   2.041   3.669   6.106 -1.2569 -1.4198  0.5065
    5SAPS   C28  583   2.197   3.543   6.184 -0.5014 -0.0247 -0.0641
    5SAPS   H8R  584   2.272   3.553   6.264  0.6019 -0.2701 -1.0524
    5SAPS   C29  585   2.210   3.447   6.094  0.5343 -0.0806 -0.6295
    5SAPS   H9R  586   2.303   3.387   6.097  0.9502  0.5074  2.5715
    5SAPS  C210  587   2.108   3.415   5.987 -0.6731 -0.3057 -0.2347
    5SAPS  H10R  588   2.145   3.420   5.883  1.8062 -0.1126  0.5835
    5SAPS  H10S  589   2.018   3.480   5.981  1.1410  2.3279 -0.9476
    5SAPS  C211  590   2.072   3.272   6.003  0.1129  0.4564  0.4784
    5SAPS  H11R  591   2.013   3.251   6.094 -0.9358 -1.3449 -0.5575
    5SAPS  C212  592   2.082   3.168   5.914  0.0715 -0.2705  0.1059
    5SAPS  H12R  593   2.045   3.069   5.945  0.8558  0.3428  3.3702
    5SAPS  C213  594   2.140   3.169   5.772  0.2938  1.3390  0.2312
    5SAPS  H13R  595   2.250   3.162   5.789  0.6939  0.1220 -2.4061
    5SAPS  H13S  596   2.104   3.259   5.718  0.4967  0.1794 -1.9551
    5SAPS  C214  597   2.087   3.054   5.686  0.3322  0.6499  0.2818
    5SAPS  H14R  598   1.978   3.039   5.694  0.1489  1.1662 -0.9600
    5SAPS  C215  599   2.157   2.965   5.618 -0.4637  1.5352 -0.9082
    5SAPS  H15R  600   2.109   2.887   5.556  0.1330 -0.3991  0.9427
    5SAPS  C216  601   2.304   2.971   5.593 -0.9530 -0.1859 -0.0184
    5SAPS  H16R  602   2.360   2.942   5.684  0.2896  1.3560 -0.2525
    5SAPS  H16S  603   2.331   3.078   5.580  0.8337 -0.8432 -2.6239
    5SAPS  C217  604   2.355   2.893   5.470 -0.1609  0.2820 -0.3703
    5SAPS  H17R  605   2.331   2.786   5.493 -0.0389  0.1064 -1.0337
    5SAPS  H17S  606   2.465   2.886   5.455 -0.6271 -2.4697 -3.6685
    5SAPS  C218  607   2.284   2.937   5.343  0.1790  0.2806  0.2535
    5SAPS  H18R  608   2.283   3.047   5.324  0.3194  0.3108  0.4186
    5SAPS  H18S  609   2.178   2.918   5.368  0.7935 -0.2718  2.7177
    5SAPS  C219  610   2.333   2.867   5.219 -0.2286  0.1915  0.3370
    5SAPS  H19R  611   2.439   2.895   5.201 -0.0673 -1.6343 -1.9922
    5SAPS  H19S  612   2.271   2.900   5.133  0.1168  1.0959  0.4302
    5SAPS  C220  613   2.322   2.716   5.227 -0.5447  0.5450 -0.2411
    5SAPS  H20R  614   2.214   2.688   5.227 -0.5570  0.5473 -1.3176
    5SAPS  H20S  615   2.374   2.672   5.315  1.7288 -0.5921 -2.0468
    5SAPS  H20T  616   2.369   2.663   5.142 -0.9250  0.6241 -0.5045
    5SAPS   C33  617   2.159   4.240   6.624  0.0549  0.1547  0.1312
    5SAPS   H3X  618   2.237   4.166   6.649  0.4627  0.5940  0.1848
    5SAPS   H3Y  619   2.201   4.323   6.562 -0.9512  0.8273  0.3155
    5SAPS   C34  620   2.039   4.174   6.555 -0.3976  1.0734 -0.2881
    5SAPS   H4X  621   1.955   4.245   6.538 -1.9766 -0.4572  0.7316
    5SAPS   H4Y  622   1.990   4.084   6.598 -0.7904  1.3653 -0.1171
    5SAPS   C35  623   2.081   4.123   6.410 -0.2822 -0.0155  0.6460
    5SAPS   H5X  624   2.162   4.048   6.422 -1.1660 -1.0199  0.5099
    5SAPS   H5Y  625   2.128   4.214   6.369 -3.2385  1.3885  0.1100
    5SAPS   C36  626   1.977   4.070   6.314  0.1553  0.2712  0.3367
    5SAPS   H6X  627   1.881   4.125   6.315 -0.4212 -0.6798 -0.6465
    5SAPS   H6Y  628   1.943   3.970   6.349 -2.3112  1.1549  0.6447
    5SAPS   C37  629   2.031   4.058   6.169 -0.1485  0.2563 -0.4278
    5SAPS   H7X  630   2.111   3.982   6.161 -0.7779 -0.3577 -0.9140
    5SAPS   H7Y  631   2.071   4.154   6.129 -1.0862  0.2836 -1.3172
    5SAPS   C38  632   1.930   4.010   6.065  0.2149  0.3239  0.1257
    5SAPS   H8X  633   1.844   4.076   6.044 -0.1719 -0.1975  0.0440
    5SAPS   H8Y  634   1.873   3.919   6.094 -3.6218  2.0351 -1.4934
    5SAPS   C39  635   1.988   3.984   5.920 -0.2550  0.8107  0.0041
    5SAPS   H9X  636   2.053   3.894   5.911 -0.6817  0.3600  1.1097
    5SAPS   H9Y  637   2.052   4.068   5.886  1.4842  0.0218  1.1490
    5SAPS  C310  638   1.884   3.970   5.808 -0.9552 -0.3405 -0.1096
    5SAPS  H10X  639   1.802   4.045   5.807 -1.1999 -0.5171 -3.0423
    5SAPS  H10Y  640   1.835   3.871   5.817 -2.5262  0.4996  0.9042
    5SAPS  C311  641   1.941   3.967   5.667  0.6104  0.1365  0.4310
    5SAPS  H11X  642   2.018   4.047   5.658 -0.2374  0.8014 -1.4248
    5SAPS  H11Y  643   1.859   3.991   5.596  0.6819 -2.2757 -0.5554
    5SAPS  C312  644   1.995   3.833   5.623 -0.3480 -0.9203 -0.1116
    5SAPS  H12X  645   1.931   3.746   5.647 -1.0699  0.1710  2.1117
    5SAPS  H12Y  646   2.090   3.818   5.679  0.4442 -0.3235 -1.2350
    5SAPS  C313  647   2.038   3.831   5.481 -0.0345  0.3611 -0.3922
    5SAPS  H13X  648   1.959   3.872   5.415  0.8248  3.2952  0.2679
    5SAPS  H13Y  649   2.067   3.726   5.460  0.8379  0.1546  1.5892
    5SAPS  C314  650   2.156   3.930   5.452 -0.1443  0.0767 -0.0351
    5SAPS  H14X  651   2.234   3.926   5.532 -0.2359  1.9663  0.1834
    5SAPS  H14Y  652   2.120   4.035   5.456 -0.8869 -0.2070  0.8648
    5SAPS  C315  653   2.213   3.910   5.310  0.4373 -0.5418 -1.0991
    5SAPS  H15X  654   2.266   4.005   5.286  1.2725 -0.4814  0.8415
    5SAPS  H15Y  655   2.129   3.883   5.242  0.6152 -1.3851 -0.9928
    5SAPS  C316  656   2.319   3.802   5.306 -0.2744 -0.1503 -0.6318
    5SAPS  H16X  657   2.279   3.706   5.344  0.4696 -0.8989 -1.6657
    5SAPS  H16Y  658   2.391   3.837   5.383 -4.1654  0.4633  3.1338
    5SAPS  C317  659   2.382   3.783   5.170  0.2767 -0.4168 -0.4983
    5SAPS  H17X  660   2.411   3.885   5.136 -1.3135  0.0877 -0.4026
    5SAPS  H17Y  661   2.307   3.743   5.099 -0.1951 -2.1202  0.8955
    5SAPS  C318  662   2.501   3.696   5.160 -0.3045  0.3451  0.3298
    5SAPS  H18X  663   2.540   3.722   5.059 -5.3545  0.9846 -1.7573
    5SAPS  H18Y  664   2.473   3.589   5.164 -1.2223  0.6151  1.5510
    5SAPS  H18Z  665   2.573   3.727   5.239 -1.3801  1.7212  0.8070
    6SAPS     N  666   5.810   5.265   7.332  0.4824  0.3412  0.2123
    6SAPS   HN1  667   5.762   5.318   7.256  0.3203  0.1750  0.1965
    6SAPS   HN2  668   5.802   5.317   7.421  2.0797 -1.9313  1.7691
    6SAPS   HN3  669   5.913   5.255   7.325  0.4050 -1.0912  0.7604
    6SAPS   C12  670   5.750   5.131   7.352  0.1532  0.2786 -0.3565
    6SAPS  H12A  671   5.800   5.055   7.293  0.2151 -0.8221  1.0593
    6SAPS   C13  672   5.766   5.083   7.498  0.2833  0.8190  0.0314
    6SAPS  O13A  673   5.796   5.159   7.591  0.5343 -0.4753 -0.2638
    6SAPS  O13B  674   5.732   4.963   7.515 -0.4829 -0.0469  0.0794
    6SAPS   C11  675   5.604   5.134   7.311  0.6030  0.0655 -0.0987
    6SAPS  H11A  676   5.558   5.190   7.396  1.1981  3.2707 -1.7098
    6SAPS  H11B  677   5.561   5.032   7.303 -0.5361  0.5771 -0.6903
    6SAPS     P  678   5.465   5.210   7.096 -0.1660  0.2547 -0.1137
    6SAPS   O13  679   5.351   5.260   7.178 -0.1016 -0.4272 -0.1830
    6SAPS   O14  680   5.510   5.287   6.977 -0.4417  0.8954 -0.2405
    6SAPS   O12  681   5.591   5.207   7.185 -0.2163 -0.1284 -0.6084
    6SAPS   O11  682   5.443   5.055   7.055 -0.4184  0.2399 -0.4478
    6SAPS    C1  683   5.333   5.010   6.974  0.2241  0.1104  0.0482
    6SAPS    HA  684   5.291   4.913   7.008 -1.3331  0.5009 -0.6289
    6SAPS    HB  685   5.255   5.089   6.983  1.9317  1.6951  1.7246
    6SAPS    C2  686   5.378   4.998   6.828 -0.1907 -0.3008 -0.3751
    6SAPS    HS  687   5.471   4.939   6.838 -1.0365 -1.4843  0.8401
    6SAPS   O21  688   5.398   5.128   6.761 -0.5573 -0.3489 -0.3185
    6SAPS   C21  689   5.521   5.147   6.707 -0.0263  0.3116 -0.0692
    6SAPS   O22  690   5.616   5.069   6.723  0.0514 -0.0588 -0.0193
    6SAPS   C22  691   5.521   5.263   6.617 -0.1343  0.3313  1.0325
    6SAPS   H2R  692   5.419   5.282   6.578 -0.6029 -1.7979  1.0719
    6SAPS   H2S  693   5.559   5.351   6.673  0.2919 -0.0534  1.3524
    6SAPS    C3  694   5.290   4.907   6.730 -0.4866  0.6296  1.1646
    6SAPS    HX  695   5.185   4.941   6.744 -0.2298  1.4453  1.1160
    6SAPS    HY  696   5.306   4.808   6.778  3.3801  0.6861  0.2681
    6SAPS   O31  697   5.324   4.913   6.588 -0.1496 -0.0944  0.1062
    6SAPS   C31  698   5.373   4.800   6.540  0.3667 -0.2205 -0.3520
    6SAPS   O32  699   5.401   4.706   6.618  0.5340 -0.1138 -0.1945
    6SAPS   C32  700   5.384   4.808   6.390  0.4884 -0.4862 -0.6136
    6SAPS   H2X  701   5.490   4.790   6.361  1.2769  0.6632  1.3579
    6SAPS   H2Y  702   5.344   4.908   6.364 -1.2173 -0.4022  1.9789
    6SAPS   C23  703   5.614   5.241   6.496  0.4262  0.4178  0.1149
    6SAPS   H3R  704   5.721   5.245   6.525  0.1174 -0.6361  1.5191
    6SAPS   H3S  705   5.602   5.337   6.441 -0.1893 -0.2591 -0.9797
    6SAPS   C24  706   5.569   5.118   6.408  0.4997  0.1770  0.3190
    6SAPS   H4R  707   5.465   5.131   6.371 -0.5983 -1.1839  2.6892
    6SAPS   H4S  708   5.577   5.029   6.474  4.5584  1.7448  2.2795
    6SAPS   C25  709   5.673   5.091   6.301 -0.9145 -0.3733 -0.2190
    6SAPS   H5R  710   5.762   5.039   6.339 -0.0450  1.5636  0.5356
    6SAPS   C26  711   5.652   5.114   6.172 -0.2755  0.0552 -0.3150
    6SAPS   H6R  712   5.731   5.079   6.104 -1.4466  1.7370 -2.6537
    6SAPS   C27  713   5.538   5.183   6.104  0.0326 -0.6897 -0.4808
    6SAPS   H7R  714   5.577   5.232   6.013  1.3129  1.0169  0.9186
    6SAPS   H7S  715   5.503   5.262   6.173  2.8355 -1.4625  2.0544
    6SAPS   C28  716   5.423   5.092   6.067 -0.0390  0.3359  0.3786
    6SAPS   H8R  717   5.365   5.055   6.153 -0.6607 -1.3716 -0.7250
    6SAPS   C29  718   5.383   5.046   5.949  0.4491 -0.0003  0.1461
    6SAPS   H9R  719   5.295   4.981   5.945 -0.1439  0.5954  2.1490
    6SAPS  C210  720   5.444   5.065   5.810  0.5628 -0.2369 -0.8379
    6SAPS  H10R  721   5.444   4.973   5.747  2.5946  0.3616 -1.8071
    6SAPS  H10S  722   5.553   5.082   5.825 -0.0829  2.5101  1.4878
    6SAPS  C211  723   5.392   5.183   5.734 -0.5377 -0.7066 -0.2174
    6SAPS  H11R  724   5.421   5.276   5.784 -0.4768 -1.0495  0.3959
    6SAPS  C212  725   5.336   5.193   5.613 -1.2401  0.0282 -0.6576
    6SAPS  H12R  726   5.312   5.291   5.571  0.4990  1.6165  1.7908
    6SAPS  C213  727   5.301   5.082   5.515  0.8616 -0.4222 -0.2829
    6SAPS  H13R  728   5.193   5.055   5.516 -0.0214  2.7007 -0.1222
    6SAPS  H13S  729   5.342   4.985   5.552  1.5832  0.5227  1.5039
    6SAPS  C214  730   5.353   5.115   5.373  0.5564  0.0789 -0.2911
    6SAPS  H14R  731   5.457   5.087   5.349  0.0390 -1.2773 -1.0967
    6SAPS  C215  732   5.292   5.165   5.268  0.7672  0.6795 -0.5641
    6SAPS  H15R  733   5.354   5.189   5.180  0.1822  3.0244 -0.3873
    6SAPS  C216  734   5.142   5.199   5.267  0.0511  0.4161 -0.1226
    6SAPS  H16R  735   5.112   5.218   5.373 -1.9816  0.0023 -0.5807
    6SAPS  H16S  736   5.083   5.107   5.248 -1.7022  0.5023  3.7445
    6SAPS  C217  737   5.091   5.321   5.181  0.6636 -0.5253  0.1044
    6SAPS  H17R  738   5.130   5.411   5.234  0.1714  0.7390 -1.6052
    6SAPS  H17S  739   4.981   5.327   5.175  0.6754 -1.3663 -1.0479
    6SAPS  C218  740   5.140   5.343   5.035 -0.0548  0.2387  0.1070
    6SAPS  H18R  741   5.098   5.257   4.979 -2.6310 -1.0187  3.5997
    6SAPS  H18S  742   5.250   5.330   5.039 -0.0595 -0.8856 -2.1234
    6SAPS  C219  743   5.110   5.479   4.975  0.4327 -0.0074 -0.3222
    6SAPS  H19R  744   5.006   5.508   4.998  0.5329 -0.2224  0.4388
    6SAPS  H19S  745   5.112   5.470   4.865 -0.4431 -0.9428 -0.2733
    6SAPS  C220  746   5.207   5.591   5.023 -0.7913  0.6236 -0.2120
    6SAPS  H20R  747   5.161   5.684   5.062 -1.2931 -0.0448  0.8187
    6SAPS  H20S  748   5.287   5.606   4.947  1.3379 -1.1514  1.5536
    6SAPS  H20T  749   5.261   5.545   5.108 -0.9362 -0.9297 -0.9046
    6SAPS   C33  750   5.308   4.689   6.311  0.1322  0.5720  0.0229
    6SAPS   H3X  751   5.230   4.640   6.374 -0.4066  0.1150 -0.9840
    6SAPS   H3Y  752   5.374   4.602   6.293 -0.1105 -0.7040  4.1011
    6SAPS   C34  753   5.243   4.743   6.184  0.4372 -0.3719  0.2226
    6SAPS   H4X  754   5.320   4.780   6.113 -3.1935 -0.2105 -4.0498
    6SAPS   H4Y  755   5.181   4.835   6.192  1.1432  0.3370 -1.8344
    6SAPS   C35  756   5.166   4.643   6.091  0.2048  0.6267  0.1422
    6SAPS   H5X  757   5.072   4.606   6.137  0.0732 -0.0586 -0.6464
    6SAPS   H5Y  758   5.226   4.551   6.073 -0.9072 -0.0695 -0.1190
    6SAPS   C36  759   5.139   4.711   5.955 -0.0233  0.5313 -0.3895
    6SAPS   H6X  760   5.114   4.818   5.972 -0.4714  0.3027  0.4672
    6SAPS   H6Y  761   5.054   4.674   5.895  1.7280 -1.3606 -1.8374
    6SAPS   C37  762   5.254   4.690   5.856  0.1350 -0.2324  0.3328
    6SAPS   H7X  763   5.341   4.747   5.896  0.7613 -0.7644 -0.2563
    6SAPS   H7Y  764   5.226   4.748   5.766 -0.0418 -1.2436 -0.2688
    6SAPS   C38  765   5.281   4.550   5.822 -0.1027  0.3174  0.2044
    6SAPS   H8X  766   5.201   4.474   5.830 -0.2431  0.2352 -1.5527
    6SAPS   H8Y  767   5.353   4.519   5.901 -2.5362 -1.3490  1.8860
    6SAPS   C39  768   5.362   4.537   5.691  0.0884  0.6789 -0.0814
    6SAPS   H9X  769   5.412   4.438   5.701 -1.3824 -0.1465 -0.6629
    6SAPS   H9Y  770   5.432   4.622   5.677 -0.1290  0.8647 -0.0519
    6SAPS  C310  771   5.263   4.530   5.577  0.5159 -0.5392  0.6831
    6SAPS  H10X  772   5.190   4.613   5.591 -2.2542 -2.7868  0.4036
    6SAPS  H10Y  773   5.205   4.435   5.577 -1.5364  0.6265 -0.0204
    6SAPS  C311  774   5.341   4.538   5.438  0.2846 -0.9616 -0.3283
    6SAPS  H11X  775   5.403   4.630   5.431 -1.1745  0.3110  2.1413
    6SAPS  H11Y  776   5.253   4.539   5.369 -0.5562 -1.6077  0.6965
    6SAPS  C312  777   5.433   4.411   5.410  0.3299 -0.3492 -0.5370
    6SAPS  H12X  778   5.379   4.318   5.439  0.9626 -1.3146 -2.3037
    6SAPS  H12Y  779   5.511   4.425   5.487  0.9786 -0.8856 -1.0884
    6SAPS  C313  780   5.495   4.399   5.267 -0.3967  0.2215 -1.3518
    6SAPS  H13X  781   5.598   4.442   5.266 -0.7114  1.1210  0.5238
    6SAPS  H13Y  782   5.443   4.469   5.198 -1.8003 -1.2443 -1.8529
    6SAPS  C314  783   5.509   4.259   5.206 -0.4534 -0.4558 -0.4910
    6SAPS  H14X  784   5.411   4.220   5.170 -1.0964 -0.9334  1.6465
    6SAPS  H14Y  785   5.552   4.188   5.280  1.3231  0.8574 -0.1928
    6SAPS  C315  786   5.602   4.265   5.087 -0.0863  0.2803  0.5410
    6SAPS  H15X  787   5.709   4.268   5.115 -0.4376 -1.4658  2.3261
    6SAPS  H15Y  788   5.568   4.351   5.025  0.0944 -0.6695 -0.9169
    6SAPS  C316  789   5.604   4.138   5.001  0.2945  0.2725 -0.6827
    6SAPS  H16X  790   5.508   4.138   4.945  0.7258  0.4997 -1.4496
    6SAPS  H16Y  791   5.620   4.053   5.070  1.5635 -0.4308 -1.7804
    6SAPS  C317  792   5.722   4.131   4.902 -0.9849 -0.3455 -0.4559
    6SAPS  H17X  793   5.734   4.235   4.865 -2.6381  1.4727  3.5690
    6SAPS  H17Y  794   5.685   4.080   4.811  0.3601  0.4862 -1.5178
    6SAPS  C318  795   5.848   4.087   4.961 -0.3372  0.3238 -0.1268
    6SAPS  H18X  796   5.840   3.979   4.989 -0.4480  0.4725  0.4415
    6SAPS  H18Y  797   5.869   4.142   5.055 -1.0511  2.2805 -1.0586
    6SAPS  H18Z  798   5.930   4.093   4.887  0.1776  0.0186  0.4044
    7SAPS     N  799   2.497   1.291   7.207  0.0718  0.8965 -0.1137
    7SAPS   HN1  800   2.535   1.199   7.239 -1.4900  0.5403  0.8596
    7SAPS   HN2  801   2.393   1.283   7.201 -0.0099  1.6945  0.1550
    7SAPS   HN3  802   2.525   1.307   7.109 -0.5125 -1.2062 -0.6711
    7SAPS   C12  803   2.531   1.410   7.282  0.0564 -0.3713  0.4679
    7SAPS  H12A  804   2.508   1.490   7.214  0.9214  0.1684  0.7871
    7SAPS   C13  805   2.440   1.434   7.408 -0.2020 -0.7892  0.5056
    7SAPS  O13A  806   2.352   1.352   7.432  0.3831  0.1963 -0.3838
    7SAPS  O13B  807   2.476   1.521   7.492  0.2050  0.0065  0.0016
    7SAPS   C11  808   2.676   1.416   7.319 -0.3544  0.3088 -0.0191
    7SAPS  H11A  809   2.706   1.326   7.378 -0.0255 -0.9669 -2.0115
    7SAPS  H11B  810   2.693   1.490   7.400  1.8728 -2.4220  2.2547
    7SAPS     P  811   2.887   1.363   7.179 -0.0069  0.1694 -0.3595
    7SAPS   O13  812   3.004   1.438   7.209 -0.2779 -0.5033  0.4013
    7SAPS   O14  813   2.872   1.234   7.242 -0.5007  0.4555 -0.5502
    7SAPS   O12  814   2.762   1.450   7.210 -0.3194 -0.0701 -0.7530
    7SAPS   O11  815   2.864   1.341   7.025  0.1290 -1.0057  0.2913
    7SAPS    C1  816   2.759   1.418   6.955  0.1735  0.8628  0.5173
    7SAPS    HA  817   2.659   1.407   7.001 -0.4842  2.6328 -0.4103
    7SAPS    HB  818   2.772   1.528   6.965 -1.4097  1.0405  0.9105
    7SAPS    C2  819   2.749   1.372   6.810 -0.5415 -0.5106  0.4543
    7SAPS    HS  820   2.646   1.394   6.774  0.6379  0.7532 -2.3855
    7SAPS   O21  821   2.793   1.238   6.787  0.2721  0.4995  0.0799
    7SAPS   C21  822   2.723   1.139   6.841 -1.0331 -0.7724 -0.4087
    7SAPS   O22  823   2.617   1.154   6.900  0.3816 -0.5761  0.4410
    7SAPS   C22  824   2.782   1.001   6.821  0.5734 -0.0335  0.0668
    7SAPS   H2R  825   2.881   1.003   6.871  0.1148  2.4949  0.9992
    7SAPS   H2S  826   2.717   0.934   6.880  3.2857 -2.1425  0.8977
    7SAPS    C3  827   2.832   1.457   6.710 -0.4356  0.2602  0.1154
    7SAPS    HX  828   2.936   1.455   6.748 -1.6290  1.7828  3.9840
    7SAPS    HY  829   2.803   1.563   6.725 -1.9375 -0.2998  1.5795
    7SAPS   O31  830   2.823   1.407   6.576  0.0417  0.3333  0.2789
    7SAPS   C31  831   2.913   1.313   6.527  0.3485 -0.6746 -0.0812
    7SAPS   O32  832   3.008   1.269   6.587 -0.3503 -0.7439 -0.1426
    7SAPS   C32  833   2.871   1.293   6.383 -0.4840  0.8323 -0.1236
    7SAPS   H2X  834   2.956   1.328   6.320  0.9605 -1.1150  0.6108
    7SAPS   H2Y  835   2.774   1.339   6.355 -2.1418 -1.0099  2.1565
    7SAPS   C23  836   2.778   0.962   6.670 -0.4117 -0.7406 -0.0435
    7SAPS   H3R  837   2.826   0.863   6.659  0.3702 -0.2415 -1.3465
    7SAPS   H3S  838   2.834   1.037   6.610 -2.4118  1.4576  0.6637
    7SAPS   C24  839   2.635   0.948   6.610  0.0987 -0.0925 -0.8200
    7SAPS   H4R  840   2.638   0.931   6.501  1.3303  2.6739 -1.3255
    7SAPS   H4S  841   2.593   1.050   6.625  1.0831 -0.0584  2.4776
    7SAPS   C25  842   2.557   0.833   6.670  0.4459 -0.1972 -0.7335
    7SAPS   H5R  843   2.537   0.846   6.777 -1.2079 -3.1870 -0.5817
    7SAPS   C26  844   2.541   0.711   6.615  0.0146 -0.5901 -0.4165
    7SAPS   H6R  845   2.498   0.634   6.680  1.9082 -2.3674 -1.1493
    7SAPS   C27  846   2.581   0.660   6.478  0.2272  0.1793 -0.2692
    7SAPS   H7R  847   2.527   0.723   6.405  0.3948 -1.1945 -1.6258
    7SAPS   H7S  848   2.535   0.559   6.470  0.3364  0.2116 -1.4048
    7SAPS   C28  849   2.730   0.660   6.461  0.5171  0.4683  0.1929
    7SAPS   H8R  850   2.791   0.648   6.552 -1.0909 -0.9532  1.1432
    7SAPS   C29  851   2.789   0.680   6.343 -0.3784 -0.5316  0.7083
    7SAPS   H9R  852   2.899   0.675   6.343 -0.3984 -1.7279  2.1919
    7SAPS  C210  853   2.720   0.704   6.214 -0.3675 -0.6331 -0.2106
    7SAPS  H10R  854   2.693   0.811   6.208 -1.8353 -0.9556  0.2072
    7SAPS  H10S  855   2.626   0.647   6.197 -1.2622  1.4799 -3.1106
    7SAPS  C211  856   2.810   0.670   6.092  0.3015 -0.3962 -0.2994
    7SAPS  H11R  857   2.914   0.648   6.121  0.3981 -1.0296 -1.0805
    7SAPS  C212  858   2.761   0.647   5.971 -0.0762  0.5557 -0.2058
    7SAPS  H12R  859   2.833   0.621   5.892 -0.1564  1.5787 -0.6435
    7SAPS  C213  860   2.615   0.663   5.921  0.2420 -0.6210  0.5717
    7SAPS  H13R  861   2.545   0.688   6.004  0.3072 -0.7290  0.6596
    7SAPS  H13S  862   2.582   0.564   5.883  1.4092 -0.3998 -1.1315
    7SAPS  C214  863   2.611   0.759   5.804 -0.1193  0.2065 -0.0418
    7SAPS  H14R  864   2.566   0.855   5.833 -1.9074 -0.7699  0.5918
    7SAPS  C215  865   2.646   0.752   5.678  0.7545  0.2282  0.1769
    7SAPS  H15R  866   2.642   0.845   5.620  0.4194  0.6388  0.8419
    7SAPS  C216  867   2.704   0.635   5.607 -0.2436 -0.0778  0.6356
    7SAPS  H16R  868   2.634   0.585   5.536  2.9984 -3.7888 -0.3002
    7SAPS  H16S  869   2.720   0.552   5.679 -0.3108 -0.8964 -0.2702
    7SAPS  C217  870   2.821   0.678   5.523  0.6356  0.7501 -0.2590
    7SAPS  H17R  871   2.915   0.688   5.582  1.1894  1.3800 -1.2264
    7SAPS  H17S  872   2.801   0.770   5.465 -0.1933  0.5984 -0.2340
    7SAPS  C218  873   2.849   0.575   5.403 -1.4648 -0.1457 -1.0171
    7SAPS  H18R  874   2.893   0.482   5.444 -1.4425  0.0374 -0.6191
    7SAPS  H18S  875   2.930   0.615   5.339 -0.4597 -0.6634 -0.0978
    7SAPS  C219  876   2.732   0.532   5.317  0.4683 -0.2174  0.7210
    7SAPS  H19R  877   2.673   0.460   5.378 -0.1150 -0.0640  0.3397
    7SAPS  H19S  878   2.771   0.490   5.222 -0.8825 -0.9166  0.4504
    7SAPS  C220  879   2.635   0.647   5.273  0.6167  0.6437 -0.3305
    7SAPS  H20R  880   2.570   0.673   5.360  1.0797 -0.4623  0.3714
    7SAPS  H20S  881   2.582   0.619   5.180  0.6759  1.8064 -0.7317
    7SAPS  H20T  882   2.690   0.743   5.263 -1.7878  2.0371 -1.0318
    7SAPS   C33  883   2.835   1.140   6.364  0.3373 -0.2653  0.5826
    7SAPS   H3X  884   2.741   1.131   6.421  0.1789  2.4301  0.9183
    7SAPS   H3Y  885   2.914   1.075   6.407  0.6057 -0.4422 -0.1661
    7SAPS   C34  886   2.792   1.107   6.216 -0.0738  0.1678 -0.6260
    7SAPS   H4X  887   2.725   1.182   6.168 -0.4367 -0.0262 -0.4243
    7SAPS   H4Y  888   2.729   1.016   6.208 -2.2273  1.4088  1.2290
    7SAPS   C35  889   2.915   1.106   6.125  0.5455  0.1396 -0.5565
    7SAPS   H5X  890   2.994   1.046   6.175  0.8089 -0.8689 -2.1051
    7SAPS   H5Y  891   2.965   1.204   6.114  0.2654  0.3193 -0.2445
    7SAPS   C36  892   2.878   1.054   5.996  0.2832  0.4769  0.4292
    7SAPS   H6X  893   2.774   1.083   5.971 -1.8844 -2.2150  4.9618
    7SAPS   H6Y  894   2.872   0.943   5.998  0.1504  0.4800  0.2451
    7SAPS   C37  895   2.965   1.099   5.879  0.4595  0.2503 -0.2965
    7SAPS   H7X  896   3.073   1.079   5.895  0.4732  1.6037  1.6965
    7SAPS   H7Y  897   2.964   1.210   5.885 -2.4414  0.2901 -0.3165
    7SAPS   C38  898   2.921   1.037   5.746 -0.3089  0.0567  0.2148
    7SAPS   H8X  899   2.815   1.062   5.723 -0.7584 -2.2145 -0.4910
    7SAPS   H8Y  900   2.915   0.926   5.754 -2.1760  0.1540  0.6776
    7SAPS   C39  901   3.013   1.089   5.632  0.0779 -0.7676 -0.5644
    7SAPS   H9X  902   3.116   1.055   5.654  0.0340 -0.7569 -0.3461
    7SAPS   H9Y  903   3.015   1.200   5.627  0.8069 -0.4802  3.3541
    7SAPS  C310  904   2.988   1.033   5.485 -0.0190 -0.1701 -0.2058
    7SAPS  H10X  905   2.958   0.927   5.499 -1.6085  0.3652  0.7334
    7SAPS  H10Y  906   3.085   1.049   5.434 -0.9753  1.3133 -1.6252
    7SAPS  C311  907   2.876   1.107   5.420 -0.1602 -0.0356 -0.0548
    7SAPS  H11X  908   2.912   1.212   5.425  1.4815 -0.5034 -1.2142
    7SAPS  H11Y  909   2.782   1.081   5.473 -0.0417 -0.0091  0.1679
    7SAPS  C312  910   2.852   1.072   5.272  0.7224  0.3269  0.1704
    7SAPS  H12X  911   2.878   0.965   5.264 -0.6943 -0.0837  0.7283
    7SAPS  H12Y  912   2.919   1.127   5.201 -0.8243 -0.0009 -1.6260
    7SAPS  C313  913   2.705   1.078   5.229  0.6394  0.2722  0.4242
    7SAPS  H13X  914   2.688   1.184   5.201  0.1219  0.0937  0.0301
    7SAPS  H13Y  915   2.641   1.052   5.316  0.4734 -1.6417 -0.2078
    7SAPS  C314  916   2.669   0.993   5.103 -0.0902  0.3950 -0.5902
    7SAPS  H14X  917   2.680   0.887   5.135 -1.9382  0.4546  0.3392
    7SAPS  H14Y  918   2.734   1.005   5.013 -0.0314 -0.0193 -0.6055
    7SAPS  C315  919   2.522   1.020   5.059 -0.5309  0.2029 -0.1910
    7SAPS  H15X  920   2.511   1.127   5.032 -2.8105  0.1644  0.4190
    7SAPS  H15Y  921   2.466   1.008   5.154  0.9147 -1.5707  0.5057
    7SAPS  C316  922   2.474   0.917   4.952  0.3121  0.4702  0.5409
    7SAPS  H16X  923   2.377   0.954   4.912  0.5272  0.5442  0.0842
    7SAPS  H16Y  924   2.468   0.826   5.015  1.5914 -0.1005 -0.1266
    7SAPS  C317  925   2.562   0.914   4.822 -0.5497 -0.1937  1.0031
    7SAPS  H17X  926   2.606   1.013   4.799  2.2979 -1.9859 -2.1124
    7SAPS  H17Y  927   2.488   0.893   4.741 -0.4090 -0.0318  0.8317
    7SAPS  C318  928   2.667   0.802   4.822  0.8356  0.1595 -0.0660
    7SAPS  H18X  929   2.758   0.810   4.885  0.9862 -0.6478 -0.1781
    7SAPS  H18Y  930   2.699   0.783   4.717  1.3570  2.5204 -0.3941
    7SAPS  H18Z  931   2.611   0.710   4.849  0.1368  0.2328 -1.1702
    8SAPS     N  932   1.677   1.493   7.688 -1.2695  0.2806  0.2095
    8SAPS   HN1  933   1.623   1.534   7.610 -0.0906 -1.9672 -1.9216
    8SAPS   HN2  934   1.625   1.488   7.778 -0.6376  0.7624  0.6136
    8SAPS   HN3  935   1.771   1.538   7.697  0.1376 -2.1313 -1.4006
    8SAPS   C12  936   1.698   1.354   7.637  0.4549 -0.2604 -1.0464
    8SAPS  H12A  937   1.804   1.338   7.652  0.2248 -0.7194  0.2751
    8SAPS   C13  938   1.618   1.234   7.699  0.3215 -0.2262  0.3541
    8SAPS  O13A  939   1.521   1.262   7.772 -0.0346 -0.0727 -0.6525
    8SAPS  O13B  940   1.643   1.121   7.652 -0.3435  0.0305 -0.3734
    8SAPS   C11  941   1.662   1.348   7.484 -0.0899  0.5324  0.3504
    8SAPS  H11A  942   1.553   1.365   7.469 -0.0166  1.1934  0.5297
    8SAPS  H11B  943   1.684   1.247   7.443  0.0827  1.5541 -2.2270
    8SAPS     P  944   1.774   1.437   7.260  0.0387  0.4283  0.3509
    8SAPS   O13  945   1.719   1.562   7.200  0.4656 -0.4058  0.8346
    8SAPS   O14  946   1.919   1.407   7.240  0.1481 -0.1427 -0.5657
    8SAPS   O12  947   1.744   1.438   7.415 -0.3501 -0.2729 -0.6124
    8SAPS   O11  948   1.684   1.314   7.219 -0.5001  0.1455 -0.2414
    8SAPS    C1  949   1.548   1.329   7.164  0.1695  0.2966  0.5964
    8SAPS    HA  950   1.496   1.232   7.178 -0.8896  1.0054  1.9357
    8SAPS    HB  951   1.492   1.405   7.225 -0.4235 -0.2296  0.7222
    8SAPS    C2  952   1.558   1.361   7.015 -0.1735 -0.2454  0.4522
    8SAPS    HS  953   1.609   1.459   7.009 -0.7578 -0.0391 -2.0617
    8SAPS   O21  954   1.422   1.370   6.965  0.5822 -0.0648  0.2710
    8SAPS   C21  955   1.370   1.493   6.982 -0.3235 -0.5613  0.6981
    8SAPS   O22  956   1.426   1.584   7.043  0.0748 -0.1623  0.2244
    8SAPS   C22  957   1.236   1.525   6.904 -0.4509  0.1437 -0.2124
    8SAPS   H2R  958   1.189   1.428   6.879  0.3341 -0.0778 -0.8923
    8SAPS   H2S  959   1.164   1.587   6.962  0.1396  0.2446  0.4278
    8SAPS    C3  960   1.641   1.256   6.937  0.5240  0.2961 -0.2321
    8SAPS    HX  961   1.581   1.164   6.957  1.1313  0.0938  0.7859
    8SAPS    HY  962   1.741   1.239   6.984 -0.6581 -0.5846  2.1684
    8SAPS   O31  963   1.659   1.277   6.796 -0.7339  0.3898  0.5338
    8SAPS   C31  964   1.698   1.179   6.723  0.3067  0.0163 -0.0486
    8SAPS   O32  965   1.702   1.065   6.764 -0.6264  0.5315 -0.0252
    8SAPS   C32  966   1.729   1.227   6.574 -0.2692  0.1343 -0.3113
    8SAPS   H2X  967   1.817   1.294   6.580 -0.7354  0.7937 -0.6005
    8SAPS   H2Y  968   1.642   1.285   6.535 -0.7658 -0.7273 -0.5206
    8SAPS   C23  969   1.277   1.612   6.775 -0.2907  0.9082  0.2336
    8SAPS   H3R  970   1.331   1.707   6.797 -0.0261  1.2177 -1.5217
    8SAPS   H3S  971   1.197   1.648   6.706  1.2862  1.9237 -1.1700
    8SAPS   C24  972   1.382   1.531   6.679  0.3457  0.1191 -0.3211
    8SAPS   H4R  973   1.478   1.523   6.734  0.4701 -2.5858 -0.8249
    8SAPS   H4S  974   1.389   1.602   6.594  1.6181  0.3060 -0.0847
    8SAPS   C25  975   1.345   1.391   6.640  0.1259 -0.1186 -0.1900
    8SAPS   H5R  976   1.341   1.327   6.729 -3.5292  0.1531  0.0060
    8SAPS   C26  977   1.262   1.359   6.538 -0.0428  0.5166  0.2887
    8SAPS   H6R  978   1.243   1.253   6.518 -0.5364  0.6235  0.1748
    8SAPS   C27  979   1.234   1.452   6.424  0.6652  0.1190  0.1288
    8SAPS   H7R  980   1.320   1.516   6.394  1.8621 -1.8965 -1.0075
    8SAPS   H7S  981   1.168   1.530   6.468  2.1682  0.5457  1.7297
    8SAPS   C28  982   1.184   1.388   6.302  0.5683  0.3025  0.2169
    8SAPS   H8R  983   1.262   1.337   6.243  0.5892 -1.0180  1.3139
    8SAPS   C29  984   1.067   1.392   6.244  0.1333 -0.3563 -0.7976
    8SAPS   H9R  985   1.059   1.350   6.143  0.2608  0.9182 -1.3561
    8SAPS  C210  986   0.947   1.473   6.298  0.0261  0.8276  0.0711
    8SAPS  H10R  987   0.975   1.514   6.398  2.1415 -1.1016  0.3722
    8SAPS  H10S  988   0.872   1.394   6.319 -0.0583  0.5054 -1.3533
    8SAPS  C211  989   0.885   1.579   6.212  0.1762 -0.7634 -0.9779
    8SAPS  H11R  990   0.864   1.681   6.248 -0.7547 -1.3745  0.2943
    8SAPS  C212  991   0.830   1.548   6.090 -0.5874 -0.2595  0.2808
    8SAPS  H12R  992   0.785   1.626   6.028 -2.1279 -1.9293 -0.8149
    8SAPS  C213  993   0.836   1.421   6.014 -0.4162 -0.4135  0.2997
    8SAPS  H13R  994   0.731   1.392   5.993 -0.5713 -0.5194  1.1955
    8SAPS  H13S  995   0.856   1.340   6.088  0.1839  1.2484  2.0326
    8SAPS  C214  996   0.933   1.414   5.900  0.3018  0.1707 -0.3896
    8SAPS  H14R  997   1.027   1.365   5.928  0.7528  2.6638  3.2021
    8SAPS  C215  998   0.901   1.450   5.778  0.3202  0.4153  0.5991
    8SAPS  H15R  999   0.979   1.451   5.700  0.3418 -0.7727  0.5896
    8SAPS  C216 1000   0.773   1.520   5.732 -0.4855  0.0412 -0.4656
    8SAPS  H16R 1001   0.801   1.627   5.746 -0.6528 -0.0813  0.8749
    8SAPS  H16S 1002   0.681   1.498   5.791 -1.0870  1.8644 -0.6592
    8SAPS  C217 1003   0.746   1.509   5.582 -0.3824  0.6628 -0.0368
    8SAPS  H17R 1004   0.837   1.554   5.539 -0.5212  1.1927  0.2095
    8SAPS  H17S 1005   0.666   1.579   5.549 -1.4239 -0.3246  0.3020
    8SAPS  C218 1006   0.724   1.366   5.530 -0.0123  0.4054 -0.2630
    8SAPS  H18R 1007   0.639   1.320   5.585  1.9163 -2.8690  0.2597
    8SAPS  H18S 1008   0.807   1.294   5.546 -0.9747 -0.2442  2.2941
    8SAPS  C219 1009   0.686   1.369   5.379  0.5315 -0.6102  0.2203
    8SAPS  H19R 1010   0.780   1.391   5.326 -0.3980  4.4303  0.2276
    8SAPS  H19S 1011   0.615   1.452   5.360  0.4953 -0.7251 -0.1547
    8SAPS  C220 1012   0.629   1.235   5.327  0.7188  0.7469  0.6255
    8SAPS  H20R 1013   0.549   1.197   5.394 -1.4693  0.9510 -1.6990
    8SAPS  H20S 1014   0.713   1.163   5.319 -0.1808 -0.2542 -0.1605
    8SAPS  H20T 1015   0.590   1.242   5.223 -0.9047  0.3860  1.1702
    8SAPS   C33 1016   1.750   1.099   6.487 -0.4566  0.3814  0.0673
    8SAPS   H3X 1017   1.653   1.046   6.481  1.3777 -3.1700 -1.7558
    8SAPS   H3Y 1018   1.824   1.029   6.532  0.1802  1.5702  0.9150
    8SAPS   C34 1019   1.796   1.125   6.343  0.0118 -0.3576 -0.1590
    8SAPS   H4X 1020   1.893   1.180   6.338 -0.3041  0.1963 -0.2682
    8SAPS   H4Y 1021   1.718   1.197   6.310 -2.6023 -2.1088  1.8633
    8SAPS   C35 1022   1.782   1.002   6.252 -0.3239  0.1981  0.8882
    8SAPS   H5X 1023   1.680   0.958   6.263 -0.6706  1.2720  2.2851
    8SAPS   H5Y 1024   1.848   0.921   6.290 -0.3791 -1.4486 -2.2310
    8SAPS   C36 1025   1.812   1.031   6.103  0.0589 -0.2657  0.4151
    8SAPS   H6X 1026   1.792   0.941   6.041  1.0034  0.5758 -1.1970
    8SAPS   H6Y 1027   1.921   1.052   6.091  0.5293 -1.8710  1.5972
    8SAPS   C37 1028   1.721   1.140   6.040  0.4076  0.4461 -0.5474
    8SAPS   H7X 1029   1.750   1.240   6.079 -0.2904  0.8446 -1.0261
    8SAPS   H7Y 1030   1.616   1.132   6.078  0.4833  1.7418 -0.0424
    8SAPS   C38 1031   1.723   1.132   5.888 -0.3613 -0.2347 -0.3452
    8SAPS   H8X 1032   1.634   1.180   5.843 -0.7644  0.0853  0.7532
    8SAPS   H8Y 1033   1.706   1.027   5.856 -0.4189  0.5592 -3.2258
    8SAPS   C39 1034   1.857   1.191   5.829 -0.1140  0.6363  0.0175
    8SAPS   H9X 1035   1.881   1.146   5.731  0.4898  0.1671  0.3715
    8SAPS   H9Y 1036   1.940   1.179   5.902 -2.0213  0.9127  2.3698
    8SAPS  C310 1037   1.828   1.338   5.808 -0.3648 -0.3938 -0.0318
    8SAPS  H10X 1038   1.837   1.386   5.907 -1.5386 -0.0943 -0.0593
    8SAPS  H10Y 1039   1.731   1.368   5.763 -0.8407 -1.4797  0.2475
    8SAPS  C311 1040   1.928   1.404   5.710 -0.5510  0.4432 -0.0151
    8SAPS  H11X 1041   2.022   1.346   5.721  0.4107  2.3875  3.7832
    8SAPS  H11Y 1042   1.950   1.509   5.739  0.8306  0.0634  0.4410
    8SAPS  C312 1043   1.881   1.410   5.565  0.6619  0.0621 -0.1702
    8SAPS  H12X 1044   1.808   1.494   5.560  1.3926  0.7808  0.9981
    8SAPS  H12Y 1045   1.823   1.323   5.526  0.4390 -0.2136  0.7552
    8SAPS  C313 1046   2.000   1.436   5.475  0.9067  0.4525 -0.2732
    8SAPS  H13X 1047   2.077   1.363   5.506 -1.1912 -0.8996  2.0393
    8SAPS  H13Y 1048   2.052   1.533   5.491  0.1321  1.1202 -1.6090
    8SAPS  C314 1049   1.966   1.436   5.330  0.2665 -0.0683 -0.0831
    8SAPS  H14X 1050   1.894   1.519   5.315 -0.2665 -0.5461 -0.2222
    8SAPS  H14Y 1051   1.895   1.354   5.304 -0.7348  0.8051 -0.1757
    8SAPS  C315 1052   2.088   1.443   5.238 -0.0809  0.7890  0.7663
    8SAPS  H15X 1053   2.152   1.355   5.265 -2.4260 -0.3271  3.1840
    8SAPS  H15Y 1054   2.156   1.528   5.260  0.9798  0.6177 -1.5715
    8SAPS  C316 1055   2.052   1.444   5.087  0.9187  0.0437  0.5049
    8SAPS  H16X 1056   1.981   1.363   5.063  1.5120 -0.9605  1.9865
    8SAPS  H16Y 1057   2.140   1.424   5.022  0.6059 -0.3485  0.2006
    8SAPS  C317 1058   1.995   1.574   5.026  0.4725  0.2000  0.2362
    8SAPS  H17X 1059   2.061   1.655   5.062 -0.7119  0.1550  2.6869
    8SAPS  H17Y 1060   1.895   1.588   5.072  0.7315 -0.1618  0.9302
    8SAPS  C318 1061   1.985   1.577   4.872  0.2862 -0.4221 -0.2093
    8SAPS  H18X 1062   1.919   1.495   4.836  0.8365 -1.1073  0.3011
    8SAPS  H18Y 1063   2.081   1.548   4.824  0.5007 -0.8865  0.4880
    8SAPS  H18Z 1064   1.963   1.677   4.828  1.7148  0.4766  1.0316
    9SAPS     N 1065   5.585   6.789   7.501 -0.1003 -0.2457 -0.0675
    9SAPS   HN1 1066   5.657   6.719   7.526 -0.9230 -1.2688 -0.4812
    9SAPS   HN2 1067   5.523   6.801   7.584 -0.2811  0.6630 -0.3231
    9SAPS   HN3 1068   5.525   6.748   7.427 -0.2175 -0.9705  0.4169
    9SAPS   C12 1069   5.637   6.924   7.465 -0.0144  0.6395  0.2645
    9SAPS  H12A 1070   5.560   6.978   7.411  1.2585  0.0671 -2.2884
    9SAPS   C13 1071   5.690   7.003   7.591  0.5071  0.8320 -0.4570
    9SAPS  O13A 1072   5.680   6.946   7.706 -0.9422 -0.0251  0.4957
    9SAPS  O13B 1073   5.687   7.130   7.575  0.3606  0.3690  0.5530
    9SAPS   C11 1074   5.762   6.917   7.368  0.8403 -0.8490 -0.8018
    9SAPS  H11A 1075   5.838   6.858   7.424 -1.0105 -1.7012  0.9318
    9SAPS  H11B 1076   5.803   7.019   7.357  0.2177 -0.2909  1.5641
    9SAPS     P 1077   5.851   6.781   7.162  0.4360 -0.1985  0.1277
    9SAPS   O13 1078   5.977   6.828   7.217 -0.3283  0.1666 -0.0251
    9SAPS   O14 1079   5.819   6.641   7.155 -0.5379  0.1667  0.4415
    9SAPS   O12 1080   5.735   6.857   7.237  0.1680 -0.2567  0.3307
    9SAPS   O11 1081   5.826   6.844   7.014 -0.2284 -0.0771  0.4574
    9SAPS    C1 1082   5.797   6.975   6.990 -0.2397  0.2925 -0.3859
    9SAPS    HA 1083   5.707   7.011   7.045  0.4342  1.9715 -0.3211
    9SAPS    HB 1084   5.881   7.032   7.034 -1.0112  0.0167  1.5241
    9SAPS    C2 1085   5.795   6.996   6.829  0.5361 -0.2195  0.6122
    9SAPS    HS 1086   5.770   7.104   6.821  0.3877 -0.3289 -0.6880
    9SAPS   O21 1087   5.691   6.921   6.761 -0.0667  0.6632  0.5536
    9SAPS   C21 1088   5.564   6.959   6.773 -0.4128  0.0558 -0.3601
    9SAPS   O22 1089   5.525   7.055   6.836 -0.0124 -0.0490 -0.0084
    9SAPS   C22 1090   5.482   6.860   6.691 -0.3816  0.8772 -0.3488
    9SAPS   H2R 1091   5.552   6.817   6.616  1.1624  2.0508  0.3542
    9SAPS   H2S 1092   5.463   6.786   6.772 -1.1186  1.1156 -0.2931
    9SAPS    C3 1093   5.933   6.978   6.756 -0.3521 -0.2124 -0.5226
    9SAPS    HX 1094   5.988   6.881   6.756  2.0411  1.0337 -1.7296
    9SAPS    HY 1095   6.002   7.048   6.809  0.4744 -0.5008 -1.1809
    9SAPS   O31 1096   5.919   7.024   6.619 -0.2656 -0.0804  0.1254
    9SAPS   C31 1097   5.861   6.943   6.528 -0.6536  0.7013 -0.0392
    9SAPS   O32 1098   5.845   6.820   6.543  0.0859  0.4404 -0.5081
    9SAPS   C32 1099   5.805   7.037   6.420  0.4324 -0.1321  0.0011
    9SAPS   H2X 1100   5.890   7.100   6.384 -0.8420  0.1015 -2.8944
    9SAPS   H2Y 1101   5.733   7.103   6.473 -0.1757 -0.1516 -0.7797
    9SAPS   C23 1102   5.360   6.917   6.611  0.1139 -0.2206  0.0259
    9SAPS   H3R 1103   5.278   6.923   6.686 -0.8348 -0.5357 -0.9552
    9SAPS   H3S 1104   5.322   6.832   6.550  1.8796 -1.6953  0.8831
    9SAPS   C24 1105   5.391   7.041   6.523  0.0973 -0.2056 -0.4718
    9SAPS   H4R 1106   5.480   7.026   6.457  0.2554  0.0879 -0.3304
    9SAPS   H4S 1107   5.406   7.118   6.602 -1.8585 -1.3203  1.0652
    9SAPS   C25 1108   5.271   7.090   6.459  0.4788  0.1573 -0.3786
    9SAPS   H5R 1109   5.175   7.104   6.513 -0.1879  1.1459 -1.7670
    9SAPS   C26 1110   5.264   7.141   6.335 -0.0461 -1.1106  0.9797
    9SAPS   H6R 1111   5.166   7.175   6.299  0.4630  0.9565  1.4031
    9SAPS   C27 1112   5.373   7.140   6.230 -0.3919 -0.0955 -0.2905
    9SAPS   H7R 1113   5.465   7.157   6.290 -1.5180 -1.3657  1.9494
    9SAPS   H7S 1114   5.364   7.226   6.161 -1.1445  0.5093  0.5261
    9SAPS   C28 1115   5.395   7.008   6.164  0.3279  0.4777  0.0974
    9SAPS   H8R 1116   5.415   6.925   6.233  0.0721  1.1000  0.9402
    9SAPS   C29 1117   5.391   6.995   6.028  0.7657 -0.3484  0.1112
    9SAPS   H9R 1118   5.404   6.894   5.987  1.7477  0.1384 -0.8177
    9SAPS  C210 1119   5.369   7.108   5.927  0.7136  0.4746 -0.5425
    9SAPS  H10R 1120   5.335   7.205   5.971  0.8945  0.2262  0.1665
    9SAPS  H10S 1121   5.281   7.076   5.867  0.5210  0.1974 -0.1177
    9SAPS  C211 1122   5.492   7.118   5.849  0.2993 -0.1062 -0.1523
    9SAPS  H11R 1123   5.582   7.117   5.913 -0.6334 -0.7836  1.2164
    9SAPS  C212 1124   5.495   7.160   5.720 -0.5898  0.6976 -0.0009
    9SAPS  H12R 1125   5.597   7.156   5.679  0.4110  1.0051  2.3178
    9SAPS  C213 1126   5.379   7.187   5.624 -0.4876  0.1622 -1.0884
    9SAPS  H13R 1127   5.298   7.116   5.649 -0.3432 -0.3214 -1.9369
    9SAPS  H13S 1128   5.419   7.166   5.522  1.0598 -1.4766 -0.1961
    9SAPS  C214 1129   5.325   7.328   5.618  0.0710 -0.3179 -0.3124
    9SAPS  H14R 1130   5.380   7.404   5.675 -0.0309  0.3688 -1.1235
    9SAPS  C215 1131   5.215   7.368   5.567  0.0182 -0.6449 -0.1759
    9SAPS  H15R 1132   5.197   7.476   5.564  0.0187 -0.6585 -0.8456
    9SAPS  C216 1133   5.131   7.278   5.476  0.2699  0.2770  0.6589
    9SAPS  H16R 1134   5.024   7.308   5.481 -0.1664 -1.2811  1.6346
    9SAPS  H16S 1135   5.137   7.171   5.508  1.4799  0.4429  1.0587
    9SAPS  C217 1136   5.165   7.292   5.325 -0.0942 -0.4668 -1.1118
    9SAPS  H17R 1137   5.081   7.234   5.280 -2.2965  0.8963  0.9981
    9SAPS  H17S 1138   5.260   7.236   5.312  0.2922 -0.3840  1.0111
    9SAPS  C218 1139   5.185   7.433   5.273 -0.4414  0.1839 -0.4351
    9SAPS  H18R 1140   5.259   7.501   5.320 -0.3650  0.6656 -1.2129
    9SAPS  H18S 1141   5.087   7.485   5.282  0.2215  1.3440  0.4450
    9SAPS  C219 1142   5.211   7.452   5.123 -0.3632 -0.3770 -0.7100
    9SAPS  H19R 1143   5.136   7.386   5.074 -0.0411 -1.1069 -0.2467
    9SAPS  H19S 1144   5.316   7.424   5.102 -0.2321 -1.6414  1.2915
    9SAPS  C220 1145   5.177   7.596   5.067 -0.0571  0.4473 -0.3369
    9SAPS  H20R 1146   5.240   7.678   5.106 -0.8191  1.2270 -0.7230
    9SAPS  H20S 1147   5.071   7.612   5.096  0.9184  1.7182  2.8748
    9SAPS  H20T 1148   5.184   7.587   4.956  0.4864  0.7871 -0.3315
    9SAPS   C33 1149   5.727   6.969   6.297 -0.0356  0.0968 -0.0082
    9SAPS   H3X 1150   5.642   7.035   6.270 -2.2220 -1.4151  2.6555
    9SAPS   H3Y 1151   5.681   6.878   6.340 -0.2782  0.8373  1.3603
    9SAPS   C34 1152   5.818   6.953   6.172  0.0737 -0.6513 -0.3666
    9SAPS   H4X 1153   5.916   6.913   6.205 -1.3622 -2.2509  2.2578
    9SAPS   H4Y 1154   5.830   7.055   6.128  2.3955 -0.2180  1.0495
    9SAPS   C35 1155   5.762   6.855   6.069  0.6657 -0.3388  0.3004
    9SAPS   H5X 1156   5.654   6.873   6.049  0.5377 -1.4038 -0.0480
    9SAPS   H5Y 1157   5.779   6.751   6.105  1.7308 -1.1964 -2.4204
    9SAPS   C36 1158   5.833   6.870   5.934 -0.3246 -0.4897  0.0419
    9SAPS   H6X 1159   5.943   6.868   5.951 -0.1986  2.4459  0.1173
    9SAPS   H6Y 1160   5.816   6.971   5.891 -1.2067  0.3205  2.1831
    9SAPS   C37 1161   5.788   6.768   5.830  0.9458 -0.0404 -0.1216
    9SAPS   H7X 1162   5.678   6.752   5.840  0.7954  0.3611 -1.0697
    9SAPS   H7Y 1163   5.836   6.672   5.857  0.6214 -0.2885 -0.4171
    9SAPS   C38 1164   5.837   6.798   5.690  0.2049 -0.1686 -0.5431
    9SAPS   H8X 1165   5.946   6.814   5.698  0.0134  0.6842  0.6483
    9SAPS   H8Y 1166   5.798   6.893   5.648  1.8637  0.4217 -0.8013
    9SAPS   C39 1167   5.814   6.694   5.580 -0.5690  0.0557 -0.4081
    9SAPS   H9X 1168   5.709   6.663   5.565 -0.1040 -2.3623  0.8169
    9SAPS   H9Y 1169   5.875   6.604   5.605 -1.8430 -0.8882 -0.5872
    9SAPS  C310 1170   5.852   6.748   5.440  0.4483 -0.3300  0.7105
    9SAPS  H10X 1171   5.962   6.764   5.431  0.5507 -1.2764  0.1815
    9SAPS  H10Y 1172   5.795   6.842   5.434  0.8362 -0.2075 -2.3066
    9SAPS  C311 1173   5.797   6.656   5.323 -0.2415  0.2321 -1.1330
    9SAPS  H11X 1174   5.697   6.617   5.352 -1.2679  3.4202  0.0186
    9SAPS  H11Y 1175   5.858   6.564   5.319 -0.7107 -0.1522  0.1446
    9SAPS  C312 1176   5.792   6.718   5.186  1.0333 -0.2217 -0.0711
    9SAPS  H12X 1177   5.744   6.818   5.181 -1.0630 -1.2180 -2.8711
    9SAPS  H12Y 1178   5.728   6.650   5.125 -2.6977  1.9377  1.1150
    9SAPS  C313 1179   5.931   6.737   5.118 -0.2849 -0.2987  0.5149
    9SAPS  H13X 1180   5.990   6.642   5.119  0.5147  0.1656  2.4724
    9SAPS  H13Y 1181   5.994   6.786   5.195  1.3814 -1.7406  0.1480
    9SAPS  C314 1182   5.923   6.808   4.982  0.5888  0.0079  0.6613
    9SAPS  H14X 1183   5.863   6.899   4.999 -0.2118 -0.5007  0.6133
    9SAPS  H14Y 1184   5.871   6.743   4.908 -0.0860  0.2303  0.9343
    9SAPS  C315 1185   6.063   6.830   4.932 -0.0555 -0.0961 -0.2718
    9SAPS  H15X 1186   6.117   6.737   4.958  0.6382  0.1372 -0.8349
    9SAPS  H15Y 1187   6.114   6.906   4.996  0.2012 -0.4223 -0.0875
    9SAPS  C316 1188   6.065   6.865   4.791 -0.3368 -0.4618 -0.0305
    9SAPS  H16X 1189   5.968   6.910   4.761  1.2947  2.2020 -1.7874
    9SAPS  H16Y 1190   6.065   6.779   4.720 -0.7565  1.3702 -2.3872
    9SAPS  C317 1191   6.176   6.974   4.765 -1.0936 -0.0141  0.2617
    9SAPS  H17X 1192   6.272   6.920   4.774  1.5197  4.2492  0.2713
    9SAPS  H17Y 1193   6.180   7.048   4.848 -0.3089 -2.0289  2.1168
    9SAPS  C318 1194   6.173   7.032   4.624 -0.0296  0.0972  0.0718
    9SAPS  H18X 1195   6.085   7.099   4.619 -0.2086 -0.1395  0.0761
    9SAPS  H18Y 1196   6.151   6.952   4.551  1.2521 -0.1862 -0.0329
    9SAPS  H18Z 1197   6.259   7.088   4.580  0.6102 -1.6222 -0.9576
   10SAPS     N 1198   4.798   6.607   7.251 -0.4909  0.2190  0.2361
   10SAPS   HN1 1199   4.830   6.571   7.344 -0.7647 -1.1898 -0.1896
   10SAPS   HN2 1200   4.798   6.527   7.184  0.0125  0.7213 -0.3763
   10SAPS   HN3 1201   4.859   6.686   7.223 -0.5517  0.3137  0.3696
   10SAPS   C12 1202   4.657   6.656   7.264 -0.2712 -0.1777 -0.8733
   10SAPS  H12A 1203   4.605   6.583   7.324  1.5644  2.0427  3.9290
   10SAPS   C13 1204   4.651   6.791   7.338 -0.0935 -0.1340 -0.6726
   10SAPS  O13A 1205   4.764   6.839   7.382 -0.3542  0.4520 -0.1119
   10SAPS  O13B 1206   4.541   6.841   7.371  0.2542 -0.1450  0.4670
   10SAPS   C11 1207   4.583   6.659   7.125 -0.1575  0.5079  0.0896
   10SAPS  H11A 1208   4.621   6.752   7.078 -0.1470 -0.2223 -1.4084
   10SAPS  H11B 1209   4.474   6.677   7.130  0.1833  3.3887 -0.8612
   10SAPS     P 1210   4.543   6.500   6.923  0.3288  0.2393 -0.4374
   10SAPS   O13 1211   4.654   6.437   6.837  0.2892 -0.0434  0.0743
   10SAPS   O14 1212   4.433   6.414   6.967  0.2579 -0.3213  0.1668
   10SAPS   O12 1213   4.620   6.540   7.057  0.9533 -0.1488 -0.4102
   10SAPS   O11 1214   4.469   6.623   6.868 -0.7490 -0.3777 -0.9831
   10SAPS    C1 1215   4.533   6.726   6.804 -0.6784  0.3560 -0.5689
   10SAPS    HA 1216   4.500   6.825   6.841 -2.5173  0.2422 -1.7717
   10SAPS    HB 1217   4.644   6.717   6.803 -0.5970  1.0956 -2.4369
   10SAPS    C2 1218   4.473   6.723   6.652  0.3325  0.4894 -0.2319
   10SAPS    HS 1219   4.509   6.815   6.602  0.7017  1.7766  2.2322
   10SAPS   O21 1220   4.325   6.728   6.637  0.1032  0.3647 -0.3872
   10SAPS   C21 1221   4.265   6.838   6.672 -0.4201  0.0083 -0.0353
   10SAPS   O22 1222   4.318   6.946   6.696 -0.0711  0.4840 -0.7025
   10SAPS   C22 1223   4.115   6.814   6.662  0.0949  0.3507  0.6170
   10SAPS   H2R 1224   4.088   6.730   6.594  0.8459 -1.5406  2.5402
   10SAPS   H2S 1225   4.080   6.778   6.762 -1.2920  0.2802  0.1301
   10SAPS    C3 1226   4.539   6.600   6.583 -0.1936 -0.4317 -0.2143
   10SAPS    HX 1227   4.498   6.507   6.629 -1.0999  0.4783  0.8830
   10SAPS    HY 1228   4.649   6.611   6.600 -0.0811  2.4650 -2.1460
   10SAPS   O31 1229   4.514   6.603   6.444 -0.0344  0.3221  0.8263
   10SAPS   C31 1230   4.604   6.679   6.373 -0.3475 -0.5712 -0.3787
   10SAPS   O32 1231   4.684   6.762   6.423  0.2956  0.0847  0.5512
   10SAPS   C32 1232   4.577   6.648   6.224  0.5621 -0.2928  0.3208
   10SAPS   H2X 1233   4.486   6.584   6.226  0.6752 -0.4869 -0.6596
   10SAPS   H2Y 1234   4.657   6.581   6.185 -1.0171 -0.5416 -2.7614
   10SAPS   C23 1235   4.037   6.948   6.650  0.8461 -0.2473 -0.0682
   10SAPS   H3R 1236   4.078   7.012   6.731 -0.6042 -0.2642  0.7120
   10SAPS   H3S 1237   3.929   6.932   6.670  0.6743 -1.0490 -1.5081
   10SAPS   C24 1238   4.046   7.021   6.509 -0.6246  0.3436 -0.8181
   10SAPS   H4R 1239   4.153   7.039   6.484  0.2640 -2.7672  0.3307
   10SAPS   H4S 1240   4.005   7.124   6.515  0.4209  0.7391 -0.0941
   10SAPS   C25 1241   3.978   6.956   6.386 -0.3234  0.2915  0.2318
   10SAPS   H5R 1242   3.873   6.988   6.376 -0.7638 -0.2016  2.7391
   10SAPS   C26 1243   4.032   6.881   6.284  0.2434 -0.1604  0.0044
   10SAPS   H6R 1244   3.971   6.840   6.201  1.3376  0.7697 -1.3084
   10SAPS   C27 1245   4.173   6.838   6.272  0.6692 -0.0498 -0.3887
   10SAPS   H7R 1246   4.231   6.881   6.357 -0.1805  1.6946 -0.6514
   10SAPS   H7S 1247   4.207   6.881   6.175  0.1639  1.8883  0.2453
   10SAPS   C28 1248   4.192   6.685   6.273 -0.3507 -0.3010  0.4861
   10SAPS   H8R 1249   4.220   6.643   6.371  0.7761 -4.1153 -1.2891
   10SAPS   C29 1250   4.172   6.600   6.167  0.0915 -0.4237 -0.0761
   10SAPS   H9R 1251   4.185   6.493   6.191 -1.3255 -0.5549  0.2342
   10SAPS  C210 1252   4.118   6.641   6.026  0.0283  0.0028  0.1271
   10SAPS  H10R 1253   4.201   6.619   5.956  0.1816 -0.5213  0.4638
   10SAPS  H10S 1254   4.091   6.747   6.006 -2.9725 -0.3000  1.9515
   10SAPS  C211 1255   4.005   6.548   5.985  0.0868 -0.3961  0.1951
   10SAPS  H11R 1256   3.977   6.464   6.050 -0.6377 -0.3272 -0.0150
   10SAPS  C212 1257   3.937   6.546   5.866  0.6280  0.2355 -0.0756
   10SAPS  H12R 1258   3.847   6.485   5.850 -1.1144  2.3127  1.2742
   10SAPS  C213 1259   3.940   6.658   5.762 -0.7730 -0.5378  0.9490
   10SAPS  H13R 1260   4.041   6.659   5.715 -0.9881  0.5571  0.4651
   10SAPS  H13S 1261   3.947   6.755   5.816  2.0071  0.5766 -1.1844
   10SAPS  C214 1262   3.834   6.655   5.657 -0.1698 -0.1849  0.4414
   10SAPS  H14R 1263   3.861   6.599   5.567 -1.3922 -0.3926  0.1851
   10SAPS  C215 1264   3.709   6.694   5.672  0.0356 -0.0997  0.1967
   10SAPS  H15R 1265   3.638   6.697   5.589  2.1815  0.2868 -1.7380
   10SAPS  C216 1266   3.649   6.768   5.789 -0.5069 -0.2364 -0.1930
   10SAPS  H16R 1267   3.720   6.767   5.875 -1.2757  0.1263  0.4660
   10SAPS  H16S 1268   3.560   6.710   5.822 -1.7068  1.7931  0.3579
   10SAPS  C217 1269   3.613   6.908   5.756 -0.1405 -0.2163 -0.7435
   10SAPS  H17R 1270   3.558   6.904   5.660  0.3792 -3.1248 -1.0201
   10SAPS  H17S 1271   3.702   6.974   5.746  1.0147 -1.3044  1.6403
   10SAPS  C218 1272   3.526   6.975   5.868  0.1172  0.3681  0.2632
   10SAPS  H18R 1273   3.426   6.926   5.856  0.1701  0.4397 -0.5222
   10SAPS  H18S 1274   3.510   7.080   5.837 -0.9177  0.3672  0.7443
   10SAPS  C219 1275   3.575   6.958   6.007  0.3284  0.7714 -0.2013
   10SAPS  H19R 1276   3.663   7.022   6.032  1.6461 -1.5286  1.4498
   10SAPS  H19S 1277   3.604   6.853   6.030  0.3682  0.9299  0.4924
   10SAPS  C220 1278   3.467   6.990   6.116 -0.0186 -0.6534 -0.3702
   10SAPS  H20R 1279   3.383   6.917   6.110  0.5759 -1.3858  0.0768
   10SAPS  H20S 1280   3.436   7.091   6.082 -0.2526 -0.2035  1.1110
   10SAPS  H20T 1281   3.510   7.003   6.217  0.4470 -0.6511 -0.5627
   10SAPS   C33 1282   4.563   6.770   6.148  0.6835  0.3725  0.7057
   10SAPS   H3X 1283   4.648   6.841   6.141  0.1761  0.8309 -1.8388
   10SAPS   H3Y 1284   4.481   6.829   6.195 -0.2256 -0.6078  0.3657
   10SAPS   C34 1285   4.529   6.747   5.996 -0.5205 -0.7997 -0.5953
   10SAPS   H4X 1286   4.431   6.698   5.976 -0.1538 -1.8781  0.1856
   10SAPS   H4Y 1287   4.608   6.687   5.946  1.6795  0.6884  0.9709
   10SAPS   C35 1288   4.536   6.892   5.948  0.0837 -0.2279 -0.3253
   10SAPS   H5X 1289   4.643   6.921   5.941 -0.0317 -0.0518 -1.5961
   10SAPS   H5Y 1290   4.487   6.967   6.014 -2.1156 -2.2468  0.4626
   10SAPS   C36 1291   4.483   6.907   5.808 -0.4114  0.7921 -0.5962
   10SAPS   H6X 1292   4.376   6.879   5.804  0.9355 -5.6764 -1.1768
   10SAPS   H6Y 1293   4.534   6.835   5.741 -1.8943  1.4980 -2.5691
   10SAPS   C37 1294   4.496   7.045   5.743  0.2150  0.6446  0.2725
   10SAPS   H7X 1295   4.603   7.074   5.742  0.6585 -0.9482 -0.6208
   10SAPS   H7Y 1296   4.447   7.116   5.813 -0.1936 -1.0451  1.7938
   10SAPS   C38 1297   4.448   7.055   5.594  0.4105  0.1703 -0.4250
   10SAPS   H8X 1298   4.476   6.965   5.535 -0.6013 -0.9926  0.8082
   10SAPS   H8Y 1299   4.505   7.133   5.539  0.0624 -0.5196 -1.8102
   10SAPS   C39 1300   4.295   7.080   5.596 -0.0854  0.2298  1.0161
   10SAPS   H9X 1301   4.276   7.184   5.630  1.5667  1.4347 -1.5134
   10SAPS   H9Y 1302   4.236   7.008   5.658 -0.6088 -2.3715 -2.2164
   10SAPS  C310 1303   4.227   7.068   5.459  0.0057 -0.0913  0.3182
   10SAPS  H10X 1304   4.213   6.963   5.427 -1.1027  0.3217 -0.6226
   10SAPS  H10Y 1305   4.299   7.122   5.394 -0.5552  0.9170  0.5091
   10SAPS  C311 1306   4.097   7.150   5.440  0.2088  0.0368 -0.7877
   10SAPS  H11X 1307   4.109   7.224   5.358  1.3101  0.9367  0.1563
   10SAPS  H11Y 1308   4.084   7.212   5.532 -0.8668 -1.5289  0.1742
   10SAPS  C312 1309   3.964   7.055   5.437  0.0118 -0.4856 -0.4569
   10SAPS  H12X 1310   3.889   7.137   5.441 -0.0858 -0.6182  1.0047
   10SAPS  H12Y 1311   3.948   6.989   5.525 -0.1905 -1.0454 -0.9099
   10SAPS  C313 1312   3.962   6.969   5.312  0.3100 -0.1933  0.0949
   10SAPS  H13X 1313   4.008   6.871   5.337  2.0710  1.0860  2.2104
   10SAPS  H13Y 1314   4.024   7.016   5.233 -0.0308  1.7448  0.9331
   10SAPS  C314 1315   3.818   6.954   5.258  0.6603  0.8010  0.1118
   10SAPS  H14X 1316   3.824   6.889   5.168 -0.9426  1.3417 -0.4153
   10SAPS  H14Y 1317   3.776   7.048   5.217 -1.5279 -0.0776  0.1876
   10SAPS  C315 1318   3.716   6.891   5.364 -0.4528  0.2381 -0.1002
   10SAPS  H15X 1319   3.714   6.946   5.461  0.7758  2.2003 -1.1114
   10SAPS  H15Y 1320   3.757   6.789   5.381  1.2387  0.8867 -0.1236
   10SAPS  C316 1321   3.578   6.881   5.299  0.1537  0.4643 -0.1470
   10SAPS  H16X 1322   3.588   6.842   5.195  0.0978 -0.4929  0.1947
   10SAPS  H16Y 1323   3.547   6.987   5.285 -1.6532 -0.2920 -2.5465
   10SAPS  C317 1324   3.471   6.792   5.366  0.1962 -0.5041 -0.4607
   10SAPS  H17X 1325   3.391   6.846   5.312 -0.0107 -0.5191 -0.1674
   10SAPS  H17Y 1326   3.441   6.812   5.471 -2.3521 -0.2429 -1.1870
   10SAPS  C318 1327   3.459   6.644   5.332  0.5782  0.9746 -0.3225
   10SAPS  H18X 1328   3.363   6.599   5.366  1.1404 -0.9185 -1.0937
   10SAPS  H18Y 1329   3.547   6.597   5.379  1.3584  1.9875 -0.7269
   10SAPS  H18Z 1330   3.472   6.616   5.225  2.1504 -0.8748  0.3045
   11SAPS     N 1331   0.278   4.121   2.449 -0.0650 -0.2167 -0.3733
   11SAPS   HN1 1332   0.193   4.141   2.393 -0.7881  0.7566  1.0186
   11SAPS   HN2 1333   0.256   4.127   2.550 -0.9030 -0.7604 -0.5098
   11SAPS   HN3 1334   0.352   4.193   2.435 -0.4643  0.5031  1.0198
   11SAPS   C12 1335   0.333   3.978   2.419 -0.1155 -0.4552 -0.6913
   11SAPS  H12A 1336   0.276   3.901   2.469 -0.3195  0.2424  0.1817
   11SAPS   C13 1337   0.338   3.954   2.268 -0.2614 -0.1015  0.0453
   11SAPS  O13A 1338   0.292   4.037   2.182  0.3077 -0.0847 -0.6594
   11SAPS  O13B 1339   0.367   3.836   2.237 -0.6236  0.1700 -0.8059
   11SAPS   C11 1340   0.479   3.975   2.469 -0.0103  0.8387 -0.6187
   11SAPS  H11A 1341   0.529   4.067   2.432 -0.4471  3.0237  3.6279
   11SAPS  H11B 1342   0.525   3.878   2.438  3.1370  2.3359 -1.0066
   11SAPS     P 1343   0.607   3.956   2.688  0.2683 -0.0410  0.3549
   11SAPS   O13 1344   0.668   3.824   2.653  0.2471  0.3048 -1.0146
   11SAPS   O14 1345   0.689   4.073   2.665  0.8106 -0.6655 -1.0255
   11SAPS   O12 1346   0.467   3.971   2.618 -1.0167  1.0579  0.3528
   11SAPS   O11 1347   0.553   3.961   2.836 -0.1640  0.2994 -0.1165
   11SAPS    C1 1348   0.489   3.849   2.893 -0.5160 -0.2573  0.0566
   11SAPS    HA 1349   0.389   3.877   2.932 -0.7049 -2.3337  1.2254
   11SAPS    HB 1350   0.475   3.766   2.822  2.6940 -0.5046 -0.4610
   11SAPS    C2 1351   0.572   3.803   3.017  0.2506  0.7267  1.0986
   11SAPS    HS 1352   0.532   3.711   3.065 -1.1673  1.0322  0.5327
   11SAPS   O21 1353   0.567   3.895   3.124  0.0738 -0.2838 -0.4968
   11SAPS   C21 1354   0.450   3.900   3.196  0.7604  0.2010  0.3962
   11SAPS   O22 1355   0.351   3.836   3.179 -0.0142  0.7459 -0.3728
   11SAPS   C22 1356   0.463   4.003   3.302  0.0281 -0.5732 -0.7851
   11SAPS   H2R 1357   0.570   4.015   3.327  0.1931  2.8353 -2.6508
   11SAPS   H2S 1358   0.422   4.091   3.249 -3.4402 -0.5243  1.6347
   11SAPS    C3 1359   0.718   3.766   2.991 -0.4696  0.4344  0.8294
   11SAPS    HX 1360   0.779   3.856   2.969 -0.5996  0.4083  0.3533
   11SAPS    HY 1361   0.731   3.706   2.899 -0.2745  1.2303  0.3272
   11SAPS   O31 1362   0.786   3.695   3.099  0.4343 -0.5836 -0.1233
   11SAPS   C31 1363   0.828   3.774   3.200  0.4537 -0.1078 -0.4257
   11SAPS   O32 1364   0.825   3.894   3.206 -0.7660  0.0115  0.0445
   11SAPS   C32 1365   0.876   3.683   3.306  0.3017 -0.8945  0.0774
   11SAPS   H2X 1366   0.856   3.575   3.289 -1.3878 -0.1688 -3.3312
   11SAPS   H2Y 1367   0.818   3.715   3.396  1.3231  0.1156  0.3978
   11SAPS   C23 1368   0.380   3.973   3.436 -0.0827 -0.1506  0.2270
   11SAPS   H3R 1369   0.270   3.974   3.418  0.1375  2.1768 -1.3611
   11SAPS   H3S 1370   0.414   4.051   3.508  1.1489 -2.3533  2.1699
   11SAPS   C24 1371   0.427   3.833   3.489 -0.3552 -0.5027  0.4368
   11SAPS   H4R 1372   0.537   3.835   3.499  0.2064  0.2363 -3.7368
   11SAPS   H4S 1373   0.388   3.753   3.423  1.8187 -2.5157  1.4646
   11SAPS   C25 1374   0.374   3.802   3.626  0.1085 -0.3862  0.5096
   11SAPS   H5R 1375   0.270   3.766   3.625 -0.4709  1.2315  0.5298
   11SAPS   C26 1376   0.435   3.816   3.737 -0.8425 -0.0095  0.0141
   11SAPS   H6R 1377   0.380   3.797   3.830 -0.1091  0.7748  0.6239
   11SAPS   C27 1378   0.579   3.870   3.759  0.3680  0.4979  0.0732
   11SAPS   H7R 1379   0.575   3.962   3.822  0.0921  0.6020 -0.0937
   11SAPS   H7S 1380   0.629   3.900   3.665  0.4471  0.3419  0.0660
   11SAPS   C28 1381   0.656   3.754   3.817 -0.5727  0.8112 -0.2217
   11SAPS   H8R 1382   0.706   3.690   3.742  0.8397 -0.0984  1.4182
   11SAPS   C29 1383   0.659   3.716   3.943 -0.0777 -0.0788  0.0885
   11SAPS   H9R 1384   0.735   3.643   3.973  1.5343  2.1760  1.8836
   11SAPS  C210 1385   0.576   3.786   4.048  0.8221 -0.1182 -0.0799
   11SAPS  H10R 1386   0.515   3.869   4.007  0.9845 -0.5397 -1.2215
   11SAPS  H10S 1387   0.656   3.832   4.110  0.9472 -2.0617  1.2804
   11SAPS  C211 1388   0.497   3.687   4.128  0.1366  0.1907 -0.4153
   11SAPS  H11R 1389   0.432   3.629   4.061  0.3194 -0.6802  0.1396
   11SAPS  C212 1390   0.511   3.666   4.262 -0.9997 -0.6767  0.4971
   11SAPS  H12R 1391   0.445   3.587   4.300 -1.2406 -1.0156 -0.5937
   11SAPS  C213 1392   0.593   3.738   4.364  0.1933 -0.5120 -0.6271
   11SAPS  H13R 1393   0.653   3.825   4.330  0.7541  0.4650  2.5349
   11SAPS  H13S 1394   0.673   3.670   4.400  1.3829  0.6683 -0.9699
   11SAPS  C214 1395   0.507   3.784   4.474 -0.1315  0.1522 -0.6795
   11SAPS  H14R 1396   0.404   3.744   4.468  1.0000 -2.9946 -0.8380
   11SAPS  C215 1397   0.562   3.846   4.585 -0.4590 -0.0198  0.6010
   11SAPS  H15R 1398   0.489   3.888   4.656 -2.7875 -0.9793 -1.1023
   11SAPS  C216 1399   0.711   3.876   4.617  0.4464 -0.5412  0.1473
   11SAPS  H16R 1400   0.733   3.985   4.617 -1.8069 -0.0258 -0.6033
   11SAPS  H16S 1401   0.769   3.831   4.534 -3.2190 -1.0512 -2.3826
   11SAPS  C217 1402   0.764   3.821   4.749 -0.3191  0.4180  0.5338
   11SAPS  H17R 1403   0.875   3.829   4.747 -0.0563 -0.8068  3.6940
   11SAPS  H17S 1404   0.748   3.713   4.768  0.8282  0.3731  1.3778
   11SAPS  C218 1405   0.705   3.903   4.867 -0.4585 -0.2049 -0.6707
   11SAPS  H18R 1406   0.617   3.848   4.907  0.4693 -0.7954  0.6191
   11SAPS  H18S 1407   0.662   4.000   4.835  0.2907  0.3241 -0.1168
   11SAPS  C219 1408   0.806   3.938   4.977 -0.1756  0.2603 -0.1869
   11SAPS  H19R 1409   0.886   3.980   4.913 -0.6875  0.4902 -0.6914
   11SAPS  H19S 1410   0.856   3.848   5.020  2.7107  0.3733 -2.9415
   11SAPS  C220 1411   0.745   4.025   5.090 -0.6377 -0.3882 -0.3152
   11SAPS  H20R 1412   0.817   4.035   5.174 -0.2982  0.9527 -0.7514
   11SAPS  H20S 1413   0.667   3.961   5.137 -0.7948 -2.0339 -2.5990
   11SAPS  H20T 1414   0.701   4.122   5.060  0.4050  0.1053 -0.2874
   11SAPS   C33 1415   1.026   3.701   3.339 -0.5604  0.6714  0.1117
   11SAPS   H3X 1416   1.053   3.806   3.360 -0.4996  0.3625  1.7581
   11SAPS   H3Y 1417   1.090   3.667   3.255 -0.2468  0.2166  0.5273
   11SAPS   C34 1418   1.066   3.621   3.459  0.1260 -0.6448 -0.1166
   11SAPS   H4X 1419   1.177   3.621   3.461  0.1704  0.6385 -1.1319
   11SAPS   H4Y 1420   1.016   3.524   3.440  1.4781 -0.8987 -2.8475
   11SAPS   C35 1421   1.023   3.691   3.591  1.1479  0.2449 -0.0768
   11SAPS   H5X 1422   0.912   3.693   3.597  1.2147  0.0367  1.6759
   11SAPS   H5Y 1423   1.062   3.795   3.590  2.0630 -0.0894 -0.7178
   11SAPS   C36 1424   1.067   3.608   3.708  0.1167 -0.2557 -0.2678
   11SAPS   H6X 1425   1.178   3.602   3.701  0.0798 -1.5082  0.0473
   11SAPS   H6Y 1426   1.027   3.505   3.696 -2.0399  0.8417 -3.8835
   11SAPS   C37 1427   1.043   3.676   3.851  0.2780 -0.2676  0.6744
   11SAPS   H7X 1428   0.936   3.704   3.847  0.4803  0.4093 -0.6473
   11SAPS   H7Y 1429   1.099   3.772   3.853  1.8006 -1.0099 -1.6836
   11SAPS   C38 1430   1.078   3.590   3.967 -1.1406  0.1054  0.1521
   11SAPS   H8X 1431   1.184   3.558   3.953 -0.8318  1.4312 -0.7063
   11SAPS   H8Y 1432   1.019   3.496   3.963  0.6728 -1.0491 -0.7882
   11SAPS   C39 1433   1.079   3.647   4.104  0.0037  0.8506  0.4425
   11SAPS   H9X 1434   1.045   3.753   4.110  0.2852  0.9411  0.4635
   11SAPS   H9Y 1435   1.181   3.655   4.148  0.6587  0.7275 -0.9781
   11SAPS  C310 1436   0.998   3.572   4.207  0.6389 -0.0874  0.2682
   11SAPS  H10X 1437   1.033   3.467   4.197  1.4348  0.2213 -0.3428
   11SAPS  H10Y 1438   0.895   3.594   4.171  0.2147  0.6935  1.8660
   11SAPS  C311 1439   1.011   3.622   4.355  0.9160 -0.4971  0.3877
   11SAPS  H11X 1440   0.907   3.651   4.380 -0.0271 -3.2968 -0.0241
   11SAPS  H11Y 1441   1.068   3.718   4.357  0.6103 -0.3204  1.6314
   11SAPS  C312 1442   1.079   3.521   4.439 -0.4061 -0.3235 -0.3435
   11SAPS  H12X 1443   1.179   3.515   4.392  0.6536 -0.6696  1.8123
   11SAPS  H12Y 1444   1.027   3.422   4.435  0.0200 -0.8192  3.0893
   11SAPS  C313 1445   1.095   3.567   4.587 -0.1655 -0.0468  0.3319
   11SAPS  H13X 1446   1.008   3.540   4.650 -0.3049 -0.3236  0.0236
   11SAPS  H13Y 1447   1.091   3.678   4.581  1.5722 -0.0497 -3.0315
   11SAPS  C314 1448   1.222   3.534   4.654  0.6076 -0.4249  0.2687
   11SAPS  H14X 1449   1.243   3.599   4.742 -1.1275  0.2981  0.1874
   11SAPS  H14Y 1450   1.304   3.560   4.584  0.8710 -1.7184  0.0811
   11SAPS  C315 1451   1.241   3.396   4.700  0.2765 -0.2068  0.6274
   11SAPS  H15X 1452   1.223   3.331   4.611 -1.7360  0.0216  0.8064
   11SAPS  H15Y 1453   1.152   3.375   4.764  0.2128  1.4668  1.1282
   11SAPS  C316 1454   1.374   3.375   4.765  0.3470 -0.1470  0.2130
   11SAPS  H16X 1455   1.394   3.463   4.830 -1.4370  0.6985 -0.3121
   11SAPS  H16Y 1456   1.447   3.370   4.681  2.1328  0.6661  1.6718
   11SAPS  C317 1457   1.378   3.239   4.841  0.3908 -0.4235 -0.1222
   11SAPS  H17X 1458   1.367   3.161   4.763 -2.4275  2.9020 -3.4196
   11SAPS  H17Y 1459   1.291   3.233   4.910  0.8786 -0.5543  0.4841
   11SAPS  C318 1460   1.509   3.221   4.924  0.7213 -0.6068 -0.3271
   11SAPS  H18X 1461   1.534   3.303   4.995 -0.9226 -0.3603  0.0023
   11SAPS  H18Y 1462   1.597   3.202   4.858  0.7565 -2.1099  0.1284
   11SAPS  H18Z 1463   1.498   3.125   4.979  1.6369 -1.2020 -1.1447
   12SAPS     N 1464   3.162   3.016   2.044  0.3554  0.8458 -0.0865
   12SAPS   HN1 1465   3.265   3.017   2.051  0.3469  1.8405 -0.0168
   12SAPS   HN2 1466   3.109   2.940   2.093  0.4756  2.0280  2.0011
   12SAPS   HN3 1467   3.138   3.004   1.943  0.8613  0.2518 -0.1414
   12SAPS   C12 1468   3.096   3.138   2.093  0.0842  0.6324 -0.1127
   12SAPS  H12A 1469   3.143   3.219   2.038 -0.5344 -0.5086 -2.4597
   12SAPS   C13 1470   2.943   3.150   2.074 -0.1128  0.3450 -0.1013
   12SAPS  O13A 1471   2.877   3.044   2.048 -0.1116 -0.6490  0.2343
   12SAPS  O13B 1472   2.880   3.253   2.109 -0.3038 -0.1129  0.1395
   12SAPS   C11 1473   3.129   3.149   2.244  0.1580 -0.2794  0.1215
   12SAPS  H11A 1474   3.085   3.066   2.302  0.9731 -0.0620  1.0734
   12SAPS  H11B 1475   3.072   3.242   2.267  0.2248  0.0341 -0.8979
   12SAPS     P 1476   3.328   3.176   2.410 -0.1048  0.1916 -0.1613
   12SAPS   O13 1477   3.326   3.033   2.452 -0.2493 -0.3269 -0.1679
   12SAPS   O14 1478   3.459   3.239   2.413 -0.0911 -0.1512  0.5757
   12SAPS   O12 1479   3.261   3.187   2.265  0.5511  0.5625 -0.4149
   12SAPS   O11 1480   3.228   3.264   2.491  0.2129 -0.3508 -0.2207
   12SAPS    C1 1481   3.110   3.211   2.548 -0.1760 -0.2980  0.0558
   12SAPS    HA 1482   3.024   3.279   2.531  0.3307 -0.0536 -1.8342
   12SAPS    HB 1483   3.071   3.120   2.498  2.2756 -1.6180  0.3863
   12SAPS    C2 1484   3.119   3.196   2.707  0.3134 -0.1444  0.0944
   12SAPS    HS 1485   3.204   3.132   2.739  0.4868 -0.1109 -0.2925
   12SAPS   O21 1486   2.988   3.159   2.743  0.1429 -0.3451  0.0649
   12SAPS   C21 1487   2.974   3.025   2.737 -0.1085 -0.0173  0.3883
   12SAPS   O22 1488   3.069   2.949   2.713  0.0978 -0.3426  0.6709
   12SAPS   C22 1489   2.827   2.984   2.754 -0.2600  1.0985 -0.3211
   12SAPS   H2R 1490   2.765   3.035   2.678 -2.0145 -1.6133 -0.8349
   12SAPS   H2S 1491   2.813   2.875   2.736  1.0508  0.6879  0.9357
   12SAPS    C3 1492   3.155   3.328   2.782  0.1280  0.3173  0.0355
   12SAPS    HX 1493   3.089   3.413   2.754 -0.8407 -0.6816 -0.7669
   12SAPS    HY 1494   3.253   3.361   2.741 -0.1507  0.1784 -0.7544
   12SAPS   O31 1495   3.147   3.319   2.931  0.2012  0.0431  0.1293
   12SAPS   C31 1496   3.251   3.263   2.994  0.2722 -0.8639 -0.4134
   12SAPS   O32 1497   3.352   3.224   2.933 -0.7396 -0.1710 -0.4811
   12SAPS   C32 1498   3.223   3.275   3.140 -0.0915  0.4230  0.0554
   12SAPS   H2X 1499   3.114   3.260   3.153 -0.2895  1.5212 -0.2967
   12SAPS   H2Y 1500   3.236   3.377   3.181 -1.1901  0.3051  0.7537
   12SAPS   C23 1501   2.775   3.029   2.901 -0.0070  0.1096  0.5051
   12SAPS   H3R 1502   2.664   3.038   2.909  0.2017  1.1699  3.2892
   12SAPS   H3S 1503   2.817   3.129   2.925  0.2765 -0.4687  2.6145
   12SAPS   C24 1504   2.831   2.937   3.016  0.4369 -0.3769 -0.2880
   12SAPS   H4R 1505   2.792   2.988   3.108  1.1865  0.7521 -0.5709
   12SAPS   H4S 1506   2.941   2.948   3.007  0.2929  0.0038 -1.7438
   12SAPS   C25 1507   2.796   2.793   3.015 -0.3060  0.0751 -0.6490
   12SAPS   H5R 1508   2.696   2.769   2.976 -0.9713 -1.5623  1.8144
   12SAPS   C26 1509   2.874   2.686   3.044 -0.6481  0.8624  0.4176
   12SAPS   H6R 1510   2.838   2.583   3.053 -0.0437  0.7778  2.1558
   12SAPS   C27 1511   3.015   2.695   3.080 -0.3709 -0.5940  0.0030
   12SAPS   H7R 1512   3.025   2.616   3.158  0.9015 -0.3081  0.1628
   12SAPS   H7S 1513   3.047   2.793   3.122 -1.1693 -0.6664  0.8004
   12SAPS   C28 1514   3.097   2.659   2.961 -0.2384 -0.1345  1.1139
   12SAPS   H8R 1515   3.053   2.696   2.867 -0.4614  0.4385  1.4371
   12SAPS   C29 1516   3.209   2.586   2.962  0.3968  0.5994 -0.2430
   12SAPS   H9R 1517   3.270   2.572   2.871  0.9902 -2.0185  0.4662
   12SAPS  C210 1518   3.283   2.537   3.086 -0.1832 -0.5248 -0.7283
   12SAPS  H10R 1519   3.277   2.427   3.095 -0.2198 -0.4589  0.1799
   12SAPS  H10S 1520   3.236   2.576   3.179  2.1665  0.9963 -0.0943
   12SAPS  C211 1521   3.435   2.577   3.083 -0.3915  0.2360  0.6487
   12SAPS  H11R 1522   3.457   2.675   3.038  1.8721  1.0354  3.2344
   12SAPS  C212 1523   3.532   2.494   3.121 -1.1544 -0.9520 -0.3756
   12SAPS  H12R 1524   3.636   2.529   3.114 -1.2178 -0.4867  0.7250
   12SAPS  C213 1525   3.525   2.345   3.153 -0.0110 -0.0285 -0.6784
   12SAPS  H13R 1526   3.503   2.289   3.060 -1.4662  0.1664 -0.4865
   12SAPS  H13S 1527   3.431   2.323   3.208 -0.4643 -4.5028 -2.8407
   12SAPS  C214 1528   3.642   2.287   3.216 -1.0382  0.7151  0.2639
   12SAPS  H14R 1529   3.721   2.266   3.142 -0.6889 -1.1272  1.1043
   12SAPS  C215 1530   3.666   2.271   3.350  0.4036  0.4154  0.0378
   12SAPS  H15R 1531   3.754   2.220   3.392  1.4299  1.8713 -0.2653
   12SAPS  C216 1532   3.559   2.296   3.453  0.5804 -0.1265  0.0281
   12SAPS  H16R 1533   3.540   2.202   3.510 -4.7676  0.5918 -0.0780
   12SAPS  H16S 1534   3.459   2.327   3.417  0.0957 -0.4398  1.0601
   12SAPS  C217 1535   3.618   2.409   3.543  0.4016  0.1929 -0.1579
   12SAPS  H17R 1536   3.633   2.486   3.466 -3.0043 -0.7198 -1.9400
   12SAPS  H17S 1537   3.716   2.377   3.584  0.3895 -0.4210 -0.5909
   12SAPS  C218 1538   3.521   2.465   3.652  0.2446  0.4948  0.5040
   12SAPS  H18R 1539   3.416   2.469   3.616 -0.5024 -1.9837  2.1943
   12SAPS  H18S 1540   3.551   2.561   3.701  0.0630 -0.3992  2.4600
   12SAPS  C219 1541   3.507   2.360   3.771  0.3054 -0.4345  0.2273
   12SAPS  H19R 1542   3.609   2.339   3.810  0.3689  2.5612  1.9764
   12SAPS  H19S 1543   3.472   2.266   3.724  1.1523 -0.6048 -0.0851
   12SAPS  C220 1544   3.424   2.394   3.895  0.3819 -0.1632  0.5022
   12SAPS  H20R 1545   3.425   2.305   3.961  2.6571 -0.6282 -0.0763
   12SAPS  H20S 1546   3.322   2.423   3.863 -0.3185 -2.2419  0.7364
   12SAPS  H20T 1547   3.471   2.481   3.946  1.0267 -1.3962  2.1013
   12SAPS   C33 1548   3.294   3.168   3.223 -0.4529 -0.5328 -0.2490
   12SAPS   H3X 1549   3.342   3.220   3.309 -0.4825 -0.6172 -0.1816
   12SAPS   H3Y 1550   3.374   3.120   3.162  0.7924 -1.9967  2.3586
   12SAPS   C34 1551   3.190   3.063   3.273 -0.0003 -0.2669  0.2572
   12SAPS   H4X 1552   3.160   3.004   3.184 -0.9084 -1.1768  1.1419
   12SAPS   H4Y 1553   3.111   3.126   3.319  1.1517  1.7219 -0.3855
   12SAPS   C35 1554   3.244   2.968   3.373 -0.1098  0.0269  0.1999
   12SAPS   H5X 1555   3.283   3.032   3.456  3.4680 -1.0043 -0.5094
   12SAPS   H5Y 1556   3.328   2.904   3.339  1.0837  1.4389  0.3977
   12SAPS   C36 1557   3.143   2.872   3.441 -0.2202 -0.0937 -0.2576
   12SAPS   H6X 1558   3.109   2.808   3.357 -1.2195 -0.7388  0.6086
   12SAPS   H6Y 1559   3.066   2.943   3.480  2.2716  1.3839  2.3204
   12SAPS   C37 1560   3.206   2.785   3.553 -0.4413  0.2036  0.0742
   12SAPS   H7X 1561   3.282   2.718   3.507  0.8729  2.0057 -0.5161
   12SAPS   H7Y 1562   3.124   2.730   3.603 -1.1913  0.2894 -1.0304
   12SAPS   C38 1563   3.265   2.872   3.667  0.0762  0.4716  0.3955
   12SAPS   H8X 1564   3.183   2.937   3.704 -2.6478 -0.8047 -2.9016
   12SAPS   H8Y 1565   3.347   2.929   3.619 -0.3776 -0.4007 -1.5156
   12SAPS   C39 1566   3.313   2.780   3.776 -0.2078  0.6512 -0.7660
   12SAPS   H9X 1567   3.406   2.726   3.750 -0.1338  0.8813 -0.9840
   12SAPS   H9Y 1568   3.231   2.707   3.798 -0.1840  0.6028 -0.8392
   12SAPS  C310 1569   3.360   2.866   3.900 -0.2796 -0.4391 -0.2174
   12SAPS  H10X 1570   3.282   2.941   3.925 -0.9636 -1.0705 -0.4549
   12SAPS  H10Y 1571   3.444   2.922   3.853 -0.3325 -0.1560  0.0209
   12SAPS  C311 1572   3.405   2.780   4.021 -0.0778 -0.0570 -0.0337
   12SAPS  H11X 1573   3.516   2.783   4.027 -0.0010 -0.4832 -1.0247
   12SAPS  H11Y 1574   3.374   2.675   4.002  2.6924 -0.5669 -2.7671
   12SAPS  C312 1575   3.361   2.826   4.159  0.4040  0.1353 -0.3654
   12SAPS  H12X 1576   3.250   2.820   4.165  0.4051  1.3355  1.2349
   12SAPS  H12Y 1577   3.390   2.930   4.182 -1.9546  1.0629 -1.2997
   12SAPS  C313 1578   3.433   2.729   4.258  1.0852 -0.1208 -0.2227
   12SAPS  H13X 1579   3.535   2.698   4.225  0.4458 -2.6321 -0.0921
   12SAPS  H13Y 1580   3.382   2.630   4.262 -1.4389  1.1389  1.7944
   12SAPS  C314 1581   3.424   2.790   4.400  0.3532  0.0430 -0.2495
   12SAPS  H14X 1582   3.317   2.816   4.415  1.0595  2.3759  1.3301
   12SAPS  H14Y 1583   3.471   2.891   4.405 -0.9197  0.5842  2.0932
   12SAPS  C315 1584   3.473   2.696   4.506  0.4339 -0.0233 -0.1703
   12SAPS  H15X 1585   3.448   2.590   4.486  0.6406 -0.1861  0.4144
   12SAPS  H15Y 1586   3.439   2.720   4.609 -0.5839  1.6764 -0.8621
   12SAPS  C316 1587   3.629   2.689   4.512  0.8347  0.1908  0.0681
   12SAPS  H16X 1588   3.668   2.790   4.489 -1.2544  0.3868 -3.5621
   12SAPS  H16Y 1589   3.652   2.623   4.425 -0.5399  0.0495 -0.2212
   12SAPS  C317 1590   3.676   2.625   4.647  0.0045 -0.0121 -0.0951
   12SAPS  H17X 1591   3.612   2.536   4.661  0.5460 -0.6279 -1.3148
   12SAPS  H17Y 1592   3.651   2.688   4.735 -2.5972  0.2672 -0.9673
   12SAPS  C318 1593   3.824   2.592   4.643 -0.2481  0.3336 -0.2328
   12SAPS  H18X 1594   3.861   2.518   4.717 -0.8273 -0.0966 -0.3679
   12SAPS  H18Y 1595   3.892   2.676   4.669 -0.2215 -0.5200  2.9208
   12SAPS  H18Z 1596   3.861   2.560   4.543 -0.8795 -0.8946 -0.0902
   13SAPS     N 1597   3.311   1.933   2.050  0.5992 -0.1908  0.5057
   13SAPS   HN1 1598   3.397   1.912   1.995  1.3295 -0.6038  1.7732
   13SAPS   HN2 1599   3.256   2.007   2.001 -1.2971 -1.9598 -0.1964
   13SAPS   HN3 1600   3.348   1.971   2.139 -0.4071  1.2971  0.3256
   13SAPS   C12 1601   3.232   1.816   2.079  0.1745 -0.2302  0.1949
   13SAPS  H12A 1602   3.138   1.849   2.120  0.1190  1.7682 -1.4022
   13SAPS   C13 1603   3.193   1.734   1.953  0.3300 -0.5422 -0.7355
   13SAPS  O13A 1604   3.238   1.755   1.838 -0.6573  0.3014 -0.2382
   13SAPS  O13B 1605   3.092   1.665   1.978 -0.4113 -0.0115  0.1884
   13SAPS   C11 1606   3.313   1.724   2.172  0.9234  0.4450  0.1666
   13SAPS  H11A 1607   3.405   1.697   2.115  0.3373 -0.5526 -0.3276
   13SAPS  H11B 1608   3.260   1.628   2.189 -0.3114  1.1898  0.5980
   13SAPS     P 1609   3.243   1.771   2.420 -0.1039  0.0914 -0.1894
   13SAPS   O13 1610   3.214   1.628   2.449 -0.9177 -0.0741  0.1829
   13SAPS   O14 1611   3.294   1.862   2.528 -0.3815  0.4776 -0.3847
   13SAPS   O12 1612   3.343   1.782   2.304 -0.0804 -0.5262 -0.0039
   13SAPS   O11 1613   3.113   1.837   2.368 -0.1863  0.3157 -0.0479
   13SAPS    C1 1614   3.100   1.978   2.378  0.3170  0.9316  0.7845
   13SAPS    HA 1615   3.183   2.038   2.422  1.0986  0.4008  0.0508
   13SAPS    HB 1616   3.074   2.018   2.278  2.2101  1.5995  0.5184
   13SAPS    C2 1617   2.971   2.012   2.454  0.3505 -0.0520 -0.3969
   13SAPS    HS 1618   2.942   2.115   2.421  1.8774  1.1935  1.8688
   13SAPS   O21 1619   2.998   2.015   2.592  0.1533 -0.2872 -0.2749
   13SAPS   C21 1620   3.038   2.132   2.639 -0.2458  0.3860 -0.6317
   13SAPS   O22 1621   3.042   2.240   2.577 -0.0870  0.0539  0.0663
   13SAPS   C22 1622   3.071   2.101   2.784 -0.0910  0.2597 -0.4948
   13SAPS   H2R 1623   2.995   2.032   2.826 -0.7952 -0.9270 -3.4181
   13SAPS   H2S 1624   3.169   2.048   2.776  0.7813  1.1104  2.9528
   13SAPS    C3 1625   2.854   1.912   2.418 -0.7268 -0.2242 -0.6371
   13SAPS    HX 1626   2.887   1.806   2.429 -0.2532  0.1614  2.8174
   13SAPS    HY 1627   2.840   1.935   2.310 -1.5483  0.1027 -0.4696
   13SAPS   O31 1628   2.732   1.940   2.488  0.7173 -0.9976  0.2536
   13SAPS   C31 1629   2.622   1.878   2.434 -0.5098 -0.5200 -0.7604
   13SAPS   O32 1630   2.631   1.812   2.333 -0.1009  0.2815  0.4934
   13SAPS   C32 1631   2.500   1.913   2.502  0.6377 -0.2954 -0.0692
   13SAPS   H2X 1632   2.439   1.981   2.439  0.0975  0.5178  1.2682
   13SAPS   H2Y 1633   2.520   1.958   2.602  3.6180 -2.3070  0.3441
   13SAPS   C23 1634   3.089   2.228   2.863 -0.0329 -0.1349 -0.6508
   13SAPS   H3R 1635   3.131   2.310   2.801  3.2016 -0.4096  0.9578
   13SAPS   H3S 1636   3.176   2.211   2.930  0.5231 -1.0651 -1.5839
   13SAPS   C24 1637   2.966   2.263   2.954  0.4307 -0.2009 -0.2020
   13SAPS   H4R 1638   3.005   2.349   3.011  0.4396  0.4566 -1.1654
   13SAPS   H4S 1639   2.938   2.182   3.025  1.6500  0.2659  0.8304
   13SAPS   C25 1640   2.859   2.310   2.858  0.1353  0.0362  0.3582
   13SAPS   H5R 1641   2.887   2.381   2.778 -1.4760  1.2599  0.8350
   13SAPS   C26 1642   2.731   2.272   2.872 -0.7094 -0.2752 -0.0174
   13SAPS   H6R 1643   2.661   2.319   2.801  1.2785  4.1466  0.5575
   13SAPS   C27 1644   2.661   2.171   2.966 -0.6204  0.1437  0.0916
   13SAPS   H7R 1645   2.558   2.208   2.987 -1.1082  0.4248 -2.5220
   13SAPS   H7S 1646   2.722   2.186   3.057 -0.0569  2.7072 -0.6442
   13SAPS   C28 1647   2.649   2.034   2.930 -0.6750 -0.1692  0.5109
   13SAPS   H8R 1648   2.593   2.004   2.840 -0.2636 -0.1676  0.2533
   13SAPS   C29 1649   2.686   1.929   3.008 -0.2657 -0.3324 -0.1235
   13SAPS   H9R 1650   2.670   1.830   2.964 -2.9743  0.6336 -1.5699
   13SAPS  C210 1651   2.763   1.932   3.134  0.6626  0.9793 -0.4477
   13SAPS  H10R 1652   2.698   1.874   3.202 -1.2102  1.9903 -1.3143
   13SAPS  H10S 1653   2.768   2.034   3.178 -1.0703 -0.1087  2.5442
   13SAPS  C211 1654   2.905   1.881   3.126  0.1911 -0.2000  0.2978
   13SAPS  H11R 1655   2.919   1.819   3.036  0.9881 -1.1112  1.0309
   13SAPS  C212 1656   3.009   1.904   3.205  0.1490  0.0650  0.5883
   13SAPS  H12R 1657   3.103   1.848   3.196  0.3559 -0.0338  2.8829
   13SAPS  C213 1658   3.003   2.013   3.312  0.0981  0.1908 -0.2468
   13SAPS  H13R 1659   3.029   1.956   3.404  0.5181  0.4344 -0.2157
   13SAPS  H13S 1660   2.901   2.056   3.324 -0.5246 -1.0599 -0.8370
   13SAPS  C214 1661   3.112   2.106   3.277  0.3797 -0.1583  0.4327
   13SAPS  H14R 1662   3.211   2.060   3.266 -0.2721 -1.8832  1.5382
   13SAPS  C215 1663   3.106   2.245   3.283 -0.2973  0.0993 -0.3574
   13SAPS  H15R 1664   3.194   2.303   3.253  0.9249 -0.8847  1.1914
   13SAPS  C216 1665   2.992   2.329   3.321 -0.2910 -0.3735  0.5974
   13SAPS  H16R 1666   2.900   2.280   3.282  0.9116 -0.7121 -2.0596
   13SAPS  H16S 1667   2.994   2.427   3.270 -1.2459 -1.5951 -1.9790
   13SAPS  C217 1668   2.988   2.343   3.480  0.1281  0.2067 -0.0721
   13SAPS  H17R 1669   2.987   2.241   3.523 -0.8728 -0.0469 -0.6606
   13SAPS  H17S 1670   2.888   2.390   3.489 -0.0251 -0.1138 -0.1096
   13SAPS  C218 1671   3.089   2.430   3.545  0.0773  0.5067 -0.5109
   13SAPS  H18R 1672   3.077   2.525   3.489 -0.5787  0.3768 -0.5956
   13SAPS  H18S 1673   3.192   2.390   3.530 -0.1524 -0.7552  1.0561
   13SAPS  C219 1674   3.056   2.450   3.692 -0.1018 -0.0634  0.0646
   13SAPS  H19R 1675   2.954   2.492   3.690 -0.2536 -0.4312 -1.9264
   13SAPS  H19S 1676   3.126   2.522   3.739 -1.3142 -0.8061  3.2447
   13SAPS  C220 1677   3.057   2.318   3.778  0.0995  0.6854 -0.5727
   13SAPS  H20R 1678   3.010   2.236   3.720  1.5377 -0.3273 -0.3429
   13SAPS  H20S 1679   2.992   2.329   3.868  0.3002  2.1652 -0.5848
   13SAPS  H20T 1680   3.159   2.294   3.813 -0.9197 -0.5825  1.7705
   13SAPS   C33 1681   2.405   1.785   2.502  0.4853  0.1646  0.3735
   13SAPS   H3X 1682   2.405   1.748   2.397 -0.9822  0.2863  0.3132
   13SAPS   H3Y 1683   2.298   1.798   2.529  0.2311  0.5762 -0.7766
   13SAPS   C34 1684   2.451   1.667   2.597 -0.1810 -0.3334  0.2959
   13SAPS   H4X 1685   2.557   1.641   2.579  0.3141  0.2347  2.1808
   13SAPS   H4Y 1686   2.380   1.582   2.589  1.6455 -1.7858 -1.4387
   13SAPS   C35 1687   2.430   1.701   2.748  0.0031  0.3841 -0.2810
   13SAPS   H5X 1688   2.322   1.700   2.770 -0.0110  0.0260 -0.3625
   13SAPS   H5Y 1689   2.468   1.805   2.761  0.5551  0.4562 -2.0971
   13SAPS   C36 1690   2.501   1.611   2.851  0.0702 -0.5713 -0.2576
   13SAPS   H6X 1691   2.607   1.638   2.832  0.3545 -1.9306 -0.7443
   13SAPS   H6Y 1692   2.486   1.507   2.813 -0.8016 -1.2618  1.8397
   13SAPS   C37 1693   2.446   1.637   2.988 -0.0045  0.0779 -0.2189
   13SAPS   H7X 1694   2.339   1.606   2.989 -0.0332 -0.0528 -2.7641
   13SAPS   H7Y 1695   2.444   1.745   3.013  1.5460  0.5728 -2.0511
   13SAPS   C38 1696   2.529   1.561   3.091  0.0358  0.2634 -0.1627
   13SAPS   H8X 1697   2.636   1.588   3.090  0.0083  0.4416  0.5934
   13SAPS   H8Y 1698   2.512   1.455   3.064 -3.1297  0.2910  1.2165
   13SAPS   C39 1699   2.479   1.569   3.235 -0.3438  0.1111  0.4119
   13SAPS   H9X 1700   2.387   1.508   3.243 -1.1214  1.2357  0.3157
   13SAPS   H9Y 1701   2.465   1.677   3.257  0.1503  0.5612 -1.3178
   13SAPS  C310 1702   2.588   1.538   3.348  0.3259 -0.0813 -0.1300
   13SAPS  H10X 1703   2.671   1.607   3.324  2.1804 -1.5732  1.6090
   13SAPS  H10Y 1704   2.622   1.433   3.336  1.7916  0.5711 -2.2510
   13SAPS  C311 1705   2.526   1.565   3.483 -0.3945 -0.0575 -0.1493
   13SAPS  H11X 1706   2.462   1.483   3.521 -1.2032  0.7457  0.2585
   13SAPS  H11Y 1707   2.463   1.656   3.489  0.2032  0.2597  2.7801
   13SAPS  C312 1708   2.635   1.594   3.590  0.1522 -0.0003  0.6861
   13SAPS  H12X 1709   2.699   1.681   3.564 -0.2827  0.3442  0.7623
   13SAPS  H12Y 1710   2.695   1.503   3.611 -0.9097 -1.1649 -1.0627
   13SAPS  C313 1711   2.582   1.635   3.732 -0.2270  0.5729  0.1556
   13SAPS  H13X 1712   2.533   1.735   3.730  2.0869  1.7891  0.1436
   13SAPS  H13Y 1713   2.667   1.645   3.802  0.1824  1.6885 -0.4644
   13SAPS  C314 1714   2.483   1.540   3.800  0.0301 -0.4438  1.2022
   13SAPS  H14X 1715   2.539   1.474   3.870  0.9601 -0.2246  0.6834
   13SAPS  H14Y 1716   2.430   1.474   3.729  3.3486 -0.8768 -1.1284
   13SAPS  C315 1717   2.385   1.606   3.895 -0.1073  0.1731  0.5824
   13SAPS  H15X 1718   2.315   1.535   3.944  0.5269 -1.0219 -0.1696
   13SAPS  H15Y 1719   2.322   1.681   3.842 -0.4362  0.0169  0.7492
   13SAPS  C316 1720   2.456   1.674   4.017 -0.2275 -0.3019  0.4839
   13SAPS  H16X 1721   2.536   1.735   3.970 -0.7707 -0.2456 -0.3986
   13SAPS  H16Y 1722   2.493   1.597   4.088 -0.9325 -0.4252  0.7253
   13SAPS  C317 1723   2.376   1.777   4.101  0.3134 -0.3912  0.1804
   13SAPS  H17X 1724   2.337   1.849   4.026 -1.7157 -0.4475  1.1162
   13SAPS  H17Y 1725   2.448   1.833   4.164 -0.3120  1.2505 -0.4871
   13SAPS  C318 1726   2.253   1.707   4.168 -0.3817  0.2758  0.0169
   13SAPS  H18X 1727   2.272   1.608   4.214 -0.6689 -1.2110 -2.8055
   13SAPS  H18Y 1728   2.174   1.713   4.090  0.0083  0.9278 -0.3432
   13SAPS  H18Z 1729   2.207   1.768   4.249 -2.5856 -2.3649  0.8752
   14SAPS     N 1730   1.337   2.979   2.341 -0.4163 -0.3606  0.2033
   14SAPS   HN1 1731   1.246   2.952   2.384 -0.2973  0.1321  0.7816
   14SAPS   HN2 1732   1.330   3.056   2.272  0.4630  0.1724  0.6861
   14SAPS   HN3 1733   1.372   2.889   2.301 -0.3263 -0.6136  0.8327
   14SAPS   C12 1734   1.433   3.026   2.450  0.5217 -0.2568  0.4002
   14SAPS  H12A 1735   1.527   3.043   2.401  0.6142  0.1876  0.7281
   14SAPS   C13 1736   1.373   3.151   2.522  0.5458 -0.5003  0.1722
   14SAPS  O13A 1737   1.285   3.218   2.463 -0.3353  0.4842  0.0925
   14SAPS  O13B 1738   1.418   3.187   2.635 -0.1476 -0.3890  0.2048
   14SAPS   C11 1739   1.462   2.914   2.558  0.0147  0.0370  0.0712
   14SAPS  H11A 1740   1.359   2.895   2.595 -0.5699  0.3734 -1.3153
   14SAPS  H11B 1741   1.522   2.958   2.640 -1.6702 -1.2288  2.1162
   14SAPS     P 1742   1.655   2.735   2.555  0.3350  0.0349 -0.0604
   14SAPS   O13 1743   1.713   2.659   2.445  0.1615 -0.1906 -0.3144
   14SAPS   O14 1744   1.735   2.852   2.602 -0.9206  0.0356 -1.0024
   14SAPS   O12 1745   1.516   2.796   2.510  0.2891  0.1563 -0.3139
   14SAPS   O11 1746   1.611   2.643   2.673 -0.2996 -0.3617 -0.1201
   14SAPS    C1 1747   1.590   2.690   2.807  0.0789  0.4575 -0.0307
   14SAPS    HA 1748   1.553   2.795   2.811 -0.0264  0.8540 -5.2702
   14SAPS    HB 1749   1.509   2.622   2.841  0.0384  0.2064 -0.6225
   14SAPS    C2 1750   1.722   2.671   2.897  0.6432 -0.0370  0.2073
   14SAPS    HS 1751   1.690   2.683   3.003 -0.4501 -0.7791 -0.0195
   14SAPS   O21 1752   1.826   2.765   2.870 -0.8215 -0.6098 -0.2362
   14SAPS   C21 1753   1.795   2.888   2.911 -0.6953 -0.5422  0.6320
   14SAPS   O22 1754   1.692   2.926   2.963 -0.5023 -0.0558  0.2539
   14SAPS   C22 1755   1.926   2.974   2.900 -0.2550 -0.1062 -0.0778
   14SAPS   H2R 1756   2.017   2.915   2.924  1.6869  1.5809 -2.8614
   14SAPS   H2S 1757   1.940   3.004   2.794  3.6597 -0.3045  0.2427
   14SAPS    C3 1758   1.772   2.522   2.870 -0.5897 -0.2875 -0.4088
   14SAPS    HX 1759   1.866   2.502   2.926  0.0007 -0.5384 -1.4650
   14SAPS    HY 1760   1.800   2.521   2.763 -0.4493 -0.9570 -0.3736
   14SAPS   O31 1761   1.674   2.420   2.900 -0.1243 -0.0835 -0.0476
   14SAPS   C31 1762   1.677   2.367   3.025 -0.5158  0.0387  0.7743
   14SAPS   O32 1763   1.759   2.400   3.110  0.4530  0.2056  0.5937
   14SAPS   C32 1764   1.559   2.269   3.038  0.2082  0.0941 -0.3108
   14SAPS   H2X 1765   1.589   2.190   2.965  2.0985  0.3497  0.1188
   14SAPS   H2Y 1766   1.458   2.309   3.015 -0.6147 -0.8099  1.5384
   14SAPS   C23 1767   1.936   3.099   2.992  0.5610  0.2858 -0.1669
   14SAPS   H3R 1768   1.840   3.155   2.987 -0.3835 -1.0925  1.3297
   14SAPS   H3S 1769   2.017   3.161   2.950 -1.9355  2.4368 -2.1911
   14SAPS   C24 1770   1.969   3.071   3.141 -0.0531 -1.0045 -0.0367
   14SAPS   H4R 1771   2.015   3.162   3.185 -1.3303  1.1305 -2.7995
   14SAPS   H4S 1772   2.041   2.987   3.148 -1.3889 -2.0236  2.6732
   14SAPS   C25 1773   1.845   3.038   3.221 -0.4994  0.0620 -0.9299
   14SAPS   H5R 1774   1.774   3.122   3.209 -2.6565 -1.9836 -4.1864
   14SAPS   C26 1775   1.821   2.926   3.293  0.6069 -0.4334 -0.0685
   14SAPS   H6R 1776   1.717   2.920   3.330  0.4744 -0.0389 -0.3635
   14SAPS   C27 1777   1.912   2.804   3.319 -0.7688  0.2233  0.4218
   14SAPS   H7R 1778   1.959   2.811   3.420  0.6505  1.5275 -0.2872
   14SAPS   H7S 1779   1.997   2.811   3.247  0.8948  0.4317  2.3067
   14SAPS   C28 1780   1.850   2.665   3.307 -0.0567 -0.7853 -0.0223
   14SAPS   H8R 1781   1.809   2.647   3.206  1.0063 -0.7577 -0.4674
   14SAPS   C29 1782   1.847   2.563   3.393  0.4148  0.1397  0.3558
   14SAPS   H9R 1783   1.800   2.471   3.356 -0.1250 -0.3576  2.1790
   14SAPS  C210 1784   1.887   2.564   3.535  0.1866 -0.2407 -0.6853
   14SAPS  H10R 1785   1.799   2.607   3.588  1.0466 -0.3985  0.9587
   14SAPS  H10S 1786   1.981   2.623   3.547 -0.3373  0.4163  0.3240
   14SAPS  C211 1787   1.915   2.427   3.589  0.7010 -0.1753  0.2761
   14SAPS  H11R 1788   1.969   2.363   3.518  0.6905  0.5612 -0.4098
   14SAPS  C212 1789   1.876   2.382   3.705 -0.4152  0.3666 -0.4045
   14SAPS  H12R 1790   1.906   2.279   3.728 -0.6822  0.3550 -0.0998
   14SAPS  C213 1791   1.801   2.453   3.817 -0.1223 -0.6275 -0.0110
   14SAPS  H13R 1792   1.756   2.380   3.888  0.5948  0.9655  2.2069
   14SAPS  H13S 1793   1.719   2.507   3.766  0.8033 -0.6586 -1.5949
   14SAPS  C214 1794   1.884   2.541   3.900  0.6139 -0.8421  0.4572
   14SAPS  H14R 1795   1.915   2.632   3.846 -2.1425 -0.0653  0.0298
   14SAPS  C215 1796   1.939   2.512   4.019 -0.2382 -0.3872  0.0942
   14SAPS  H15R 1797   1.989   2.588   4.080  2.0292 -1.6951 -0.0300
   14SAPS  C216 1798   1.927   2.384   4.088  0.4750 -0.4702  0.0918
   14SAPS  H16R 1799   2.025   2.337   4.108  0.7047 -0.3948 -0.8115
   14SAPS  H16S 1800   1.860   2.316   4.031 -0.9762  1.0120 -0.0699
   14SAPS  C217 1801   1.860   2.399   4.233 -0.2298  0.4379  0.3841
   14SAPS  H17R 1802   1.913   2.479   4.289  1.8980 -0.1039 -0.7672
   14SAPS  H17S 1803   1.882   2.311   4.297 -1.1260  0.0303  0.1482
   14SAPS  C218 1804   1.708   2.422   4.230  0.1558  0.5134 -0.0064
   14SAPS  H18R 1805   1.657   2.346   4.166 -1.1967  0.1319  1.4489
   14SAPS  H18S 1806   1.703   2.523   4.184 -0.8248  0.0543 -0.9548
   14SAPS  C219 1807   1.637   2.425   4.366 -0.2219  0.5151 -0.2361
   14SAPS  H19R 1808   1.527   2.425   4.352 -0.4948  0.9307  1.6770
   14SAPS  H19S 1809   1.670   2.522   4.409 -1.0788  0.7619 -0.1256
   14SAPS  C220 1810   1.667   2.309   4.463 -0.5299  0.3053 -0.6242
   14SAPS  H20R 1811   1.597   2.320   4.549 -0.1323 -1.1370 -0.0973
   14SAPS  H20S 1812   1.775   2.318   4.486 -0.9533  1.6612  1.0351
   14SAPS  H20T 1813   1.646   2.212   4.413 -1.3008  0.0089  0.2433
   14SAPS   C33 1814   1.557   2.209   3.174 -0.8887  0.2939 -0.3870
   14SAPS   H3X 1815   1.657   2.167   3.197 -0.4435  0.6603 -1.5710
   14SAPS   H3Y 1816   1.492   2.120   3.189 -0.2552  0.3424  3.7229
   14SAPS   C34 1817   1.499   2.311   3.272 -0.7831 -0.8633 -0.0690
   14SAPS   H4X 1818   1.398   2.331   3.230 -0.2442  0.8794 -0.6405
   14SAPS   H4Y 1819   1.551   2.410   3.271 -1.3451 -0.5346 -2.3804
   14SAPS   C35 1820   1.493   2.259   3.415 -0.0817  0.0442 -0.2773
   14SAPS   H5X 1821   1.594   2.225   3.447 -0.0808  0.4558  0.1623
   14SAPS   H5Y 1822   1.428   2.170   3.402  0.2735 -0.2827  0.1602
   14SAPS   C36 1823   1.454   2.361   3.522 -0.0192 -0.1796  0.6452
   14SAPS   H6X 1824   1.374   2.432   3.490  0.0510 -0.7965 -1.0051
   14SAPS   H6Y 1825   1.538   2.431   3.538 -0.7518  0.7628  0.4707
   14SAPS   C37 1826   1.435   2.307   3.667  0.0162  0.1146 -0.1155
   14SAPS   H7X 1827   1.527   2.262   3.711 -2.4306 -1.4969  3.9539
   14SAPS   H7Y 1828   1.366   2.224   3.645 -0.3089  0.4097 -0.2113
   14SAPS   C38 1829   1.372   2.403   3.767 -0.6454  0.4810 -0.1189
   14SAPS   H8X 1830   1.267   2.420   3.735 -0.6411  2.8975  0.9374
   14SAPS   H8Y 1831   1.437   2.492   3.767  0.9163 -0.6171 -1.2579
   14SAPS   C39 1832   1.378   2.352   3.912  0.1076  0.0765  0.3588
   14SAPS   H9X 1833   1.476   2.367   3.961  0.1563  1.8147 -0.1975
   14SAPS   H9Y 1834   1.337   2.249   3.915 -1.9342  0.8123 -0.1146
   14SAPS  C310 1835   1.269   2.429   3.991 -0.3703  0.2815  0.4600
   14SAPS  H10X 1836   1.166   2.425   3.948  0.0438  0.6863 -0.5874
   14SAPS  H10Y 1837   1.299   2.536   3.998  2.6251 -0.5553  2.6772
   14SAPS  C311 1838   1.253   2.377   4.133 -0.9440  0.1663  0.5238
   14SAPS  H11X 1839   1.359   2.362   4.162 -0.5905 -0.6957 -1.1046
   14SAPS  H11Y 1840   1.211   2.274   4.135 -0.8641  0.1060 -0.4374
   14SAPS  C312 1841   1.182   2.464   4.238 -0.1297  0.2224 -0.2322
   14SAPS  H12X 1842   1.104   2.394   4.277  0.5985 -0.0646  0.7545
   14SAPS  H12Y 1843   1.128   2.546   4.186 -2.5591 -1.2295 -0.1976
   14SAPS  C313 1844   1.274   2.511   4.349  0.5302  0.1379 -0.0824
   14SAPS  H13X 1845   1.352   2.570   4.298 -0.0598  0.2271 -0.9136
   14SAPS  H13Y 1846   1.324   2.431   4.407  3.8166  2.3279  0.3736
   14SAPS  C314 1847   1.206   2.604   4.458  0.1310 -0.3121 -0.4356
   14SAPS  H14X 1848   1.153   2.689   4.411  0.8169  0.4557  0.1454
   14SAPS  H14Y 1849   1.289   2.652   4.515 -1.0149  1.4209 -0.1486
   14SAPS  C315 1850   1.122   2.541   4.574  0.2181 -0.1818 -0.1729
   14SAPS  H15X 1851   1.183   2.481   4.645  1.8426  0.9083 -0.5771
   14SAPS  H15Y 1852   1.047   2.474   4.529 -0.5293  1.6243 -1.7483
   14SAPS  C316 1853   1.055   2.652   4.652  0.7760  0.3337  0.1502
   14SAPS  H16X 1854   0.969   2.682   4.588  0.2892 -3.9167 -1.5152
   14SAPS  H16Y 1855   1.128   2.733   4.674  1.5877 -0.0621 -0.9843
   14SAPS  C317 1856   0.985   2.600   4.786 -0.5762 -0.0812 -0.0453
   14SAPS  H17X 1857   0.927   2.506   4.774  2.0516 -1.6981 -1.0495
   14SAPS  H17Y 1858   0.909   2.676   4.812 -0.2826  0.1980  0.0027
   14SAPS  C318 1859   1.083   2.587   4.908 -0.0198  1.1982  0.3448
   14SAPS  H18X 1860   1.029   2.587   5.005 -0.5352  1.1248  0.0607
   14SAPS  H18Y 1861   1.154   2.672   4.912  0.8483  0.4715  0.8871
   14SAPS  H18Z 1862   1.143   2.493   4.902 -1.7872  0.1076 -1.0537
   15SAPS     N 1863   2.727   4.573   2.495  0.2605  0.3799 -0.3365
   15SAPS   HN1 1864   2.757   4.587   2.396  2.0418 -1.2899 -0.0859
   15SAPS   HN2 1865   2.664   4.653   2.519 -0.6961 -0.5253  0.2119
   15SAPS   HN3 1866   2.806   4.583   2.561 -0.9780 -0.9071  1.4161
   15SAPS   C12 1867   2.668   4.438   2.494 -0.3891 -0.4059 -0.5105
   15SAPS  H12A 1868   2.613   4.428   2.586  2.6339 -3.1211  1.1951
   15SAPS   C13 1869   2.584   4.407   2.368  0.3374  0.9589  0.0708
   15SAPS  O13A 1870   2.579   4.470   2.261  0.2161  0.2204  0.3446
   15SAPS  O13B 1871   2.505   4.308   2.384 -0.7270  0.0192 -0.0217
   15SAPS   C11 1872   2.773   4.325   2.496 -0.0138  0.0235  0.1189
   15SAPS  H11A 1873   2.819   4.323   2.395 -2.2639 -1.6990 -0.9596
   15SAPS  H11B 1874   2.710   4.233   2.496 -0.5027  0.2309 -3.1565
   15SAPS     P 1875   2.969   4.224   2.623  0.1679 -0.1981  0.0548
   15SAPS   O13 1876   2.904   4.095   2.644  0.7381  0.6517 -0.3957
   15SAPS   O14 1877   3.068   4.241   2.512  0.0715 -0.4856  0.3647
   15SAPS   O12 1878   2.868   4.336   2.606  0.4298 -0.0934  0.8425
   15SAPS   O11 1879   3.038   4.266   2.755 -0.1646  0.1955  0.1057
   15SAPS    C1 1880   2.999   4.366   2.848 -0.3782  0.0579  0.0981
   15SAPS    HA 1881   3.091   4.399   2.902 -1.3744  2.3457  0.5156
   15SAPS    HB 1882   2.956   4.459   2.806 -0.4535 -0.2009 -0.4003
   15SAPS    C2 1883   2.913   4.315   2.959  0.0902 -0.7388 -0.0390
   15SAPS    HS 1884   2.883   4.397   3.028  1.1007  0.1980 -0.6643
   15SAPS   O21 1885   2.986   4.216   3.045  0.2996 -0.4232  0.5464
   15SAPS   C21 1886   3.090   4.266   3.116  0.1288 -0.4594  0.7277
   15SAPS   O22 1887   3.119   4.384   3.134  0.3185  0.2042  0.3357
   15SAPS   C22 1888   3.181   4.156   3.169  0.1172 -0.8298 -0.0547
   15SAPS   H2R 1889   3.199   4.107   3.071  0.0319  1.5201 -1.3275
   15SAPS   H2S 1890   3.269   4.205   3.218 -0.8235 -0.2278  1.0901
   15SAPS    C3 1891   2.770   4.247   2.919 -0.1452  0.1864  0.4642
   15SAPS    HX 1892   2.803   4.143   2.897 -0.2234  0.3495 -0.4750
   15SAPS    HY 1893   2.736   4.286   2.821  0.4551 -0.4373 -0.0006
   15SAPS   O31 1894   2.655   4.255   3.018 -0.1472 -0.3651 -0.3350
   15SAPS   C31 1895   2.584   4.143   3.018 -0.0690 -0.6152  0.5087
   15SAPS   O32 1896   2.610   4.041   2.952 -0.1490 -0.0761  0.1488
   15SAPS   C32 1897   2.462   4.154   3.112  1.0279 -0.1115  0.4442
   15SAPS   H2X 1898   2.407   4.062   3.084  1.4469 -0.2648  0.1014
   15SAPS   H2Y 1899   2.391   4.237   3.094  1.0386 -0.0184  0.8343
   15SAPS   C23 1900   3.113   4.054   3.262 -0.3430 -0.8094  0.3475
   15SAPS   H3R 1901   3.193   3.988   3.302  0.2493  0.3674  1.1927
   15SAPS   H3S 1902   3.034   3.999   3.208 -1.3669 -0.5977  1.5927
   15SAPS   C24 1903   3.054   4.119   3.392  0.1197 -0.1635  0.4546
   15SAPS   H4R 1904   2.988   4.200   3.356  0.8629  1.1808  1.9851
   15SAPS   H4S 1905   3.138   4.162   3.452 -0.2956 -0.9606  1.6617
   15SAPS   C25 1906   2.970   4.016   3.469 -0.5698  0.7511  0.9431
   15SAPS   H5R 1907   2.873   3.990   3.425 -0.5766 -2.1800  2.4548
   15SAPS   C26 1908   2.994   3.962   3.586 -0.3265 -0.1676  0.4016
   15SAPS   H6R 1909   2.920   3.890   3.624 -0.9173 -0.4294 -1.1645
   15SAPS   C27 1910   3.113   3.989   3.685  0.4000  0.7250  0.2382
   15SAPS   H7R 1911   3.177   4.075   3.656  1.0521  0.1781  0.0319
   15SAPS   H7S 1912   3.188   3.908   3.675  0.4709  0.9700 -1.4984
   15SAPS   C28 1913   3.057   4.011   3.828 -0.7858 -0.6983  0.0758
   15SAPS   H8R 1914   3.030   4.114   3.855 -0.6198 -0.2696 -1.3147
   15SAPS   C29 1915   3.048   3.912   3.920  0.2809 -0.1529  0.3253
   15SAPS   H9R 1916   3.012   3.945   4.019  1.1412  0.4830  0.4305
   15SAPS  C210 1917   3.072   3.767   3.906  0.2350 -0.3957 -0.1816
   15SAPS  H10R 1918   3.096   3.745   3.800  1.3058 -0.2586  0.0244
   15SAPS  H10S 1919   2.985   3.702   3.931  0.5784 -0.5530  0.6251
   15SAPS  C211 1920   3.188   3.737   3.992  0.2398 -0.4969  0.5566
   15SAPS  H11R 1921   3.280   3.724   3.933  1.1698  0.2407  1.8007
   15SAPS  C212 1922   3.173   3.705   4.121  0.5619 -0.3423 -0.0490
   15SAPS  H12R 1923   3.259   3.671   4.180  0.2287 -1.6860 -0.3036
   15SAPS  C213 1924   3.040   3.701   4.206 -0.5076 -0.1517 -0.6358
   15SAPS  H13R 1925   2.949   3.756   4.173  0.5764  1.5293 -0.9384
   15SAPS  H13S 1926   3.059   3.752   4.303  0.0945 -1.9006  0.2219
   15SAPS  C214 1927   3.007   3.554   4.235 -0.1557 -0.2515 -0.2000
   15SAPS  H14R 1928   2.987   3.499   4.142  2.2754 -2.2718  0.3594
   15SAPS  C215 1929   3.012   3.490   4.351 -0.4493 -0.3203  0.6581
   15SAPS  H15R 1930   2.949   3.399   4.351 -2.3944  0.8696 -2.0411
   15SAPS  C216 1931   3.055   3.540   4.494 -0.1141  0.3463 -0.5373
   15SAPS  H16R 1932   2.976   3.604   4.539 -0.7145 -1.2724  0.7989
   15SAPS  H16S 1933   3.144   3.607   4.486  0.2594 -0.1480 -0.5911
   15SAPS  C217 1934   3.104   3.433   4.590  0.2297  0.1266 -1.0736
   15SAPS  H17R 1935   3.155   3.475   4.679  0.1860  0.7247 -1.3291
   15SAPS  H17S 1936   3.175   3.365   4.538 -1.4554 -1.9878 -0.7419
   15SAPS  C218 1937   2.994   3.346   4.649  0.9301 -0.8293  0.4384
   15SAPS  H18R 1938   2.949   3.294   4.562  0.5261  0.2868 -0.0436
   15SAPS  H18S 1939   2.918   3.411   4.697  0.9905 -1.2836  1.1502
   15SAPS  C219 1940   3.037   3.264   4.765 -0.0860 -0.1214 -0.3517
   15SAPS  H19R 1941   3.065   3.331   4.849 -0.8109 -1.0961  0.7123
   15SAPS  H19S 1942   3.130   3.207   4.745  0.2575  0.9891 -2.1207
   15SAPS  C220 1943   2.925   3.165   4.817  0.8435  0.0931 -0.5374
   15SAPS  H20R 1944   2.920   3.087   4.738  0.2762 -1.0256  0.5667
   15SAPS  H20S 1945   2.834   3.227   4.806  1.0167  0.4203 -0.1649
   15SAPS  H20T 1946   2.934   3.124   4.920 -2.8706 -1.9657 -0.8616
   15SAPS   C33 1947   2.504   4.153   3.259 -0.7171  0.0246 -0.4714
   15SAPS   H3X 1948   2.411   4.166   3.318 -0.8286 -0.3397 -0.5630
   15SAPS   H3Y 1949   2.570   4.238   3.286 -1.5829  0.2048  1.1824
   15SAPS   C34 1950   2.559   4.013   3.302  0.1900  0.0015 -0.3968
   15SAPS   H4X 1951   2.669   4.009   3.283  0.3299 -0.4846  0.4803
   15SAPS   H4Y 1952   2.504   3.933   3.248 -1.5379  1.6480 -1.1957
   15SAPS   C35 1953   2.560   4.014   3.455 -0.0965  0.3231 -0.3286
   15SAPS   H5X 1954   2.460   4.044   3.493 -0.3735 -0.6505 -0.2713
   15SAPS   H5Y 1955   2.623   4.100   3.488  1.6801 -0.9666 -0.1977
   15SAPS   C36 1956   2.614   3.890   3.516  0.0230  0.3164  0.1467
   15SAPS   H6X 1957   2.707   3.841   3.481  0.6128 -0.5678  2.6730
   15SAPS   H6Y 1958   2.544   3.804   3.503 -0.1442  0.4284  0.2902
   15SAPS   C37 1959   2.640   3.918   3.667  0.2840  0.4887 -0.1971
   15SAPS   H7X 1960   2.546   3.967   3.702  1.4749  2.6202  0.2025
   15SAPS   H7Y 1961   2.723   3.990   3.681 -0.0066  0.7066  0.4813
   15SAPS   C38 1962   2.649   3.783   3.744 -0.7341 -0.2658 -0.0963
   15SAPS   H8X 1963   2.727   3.713   3.707  2.5266  1.7194  2.3978
   15SAPS   H8Y 1964   2.555   3.726   3.728 -0.5189 -1.1606  1.5400
   15SAPS   C39 1965   2.675   3.804   3.900  0.4437 -0.5022 -0.1459
   15SAPS   H9X 1966   2.610   3.889   3.929  1.3415  0.0927  0.1717
   15SAPS   H9Y 1967   2.780   3.837   3.918 -0.7476  3.4799  0.6466
   15SAPS  C310 1968   2.629   3.670   3.959  0.2215 -0.6309 -0.4417
   15SAPS  H10X 1969   2.698   3.592   3.920  1.5786  0.8226 -1.0694
   15SAPS  H10Y 1970   2.532   3.642   3.912  1.1800 -4.6964 -0.3583
   15SAPS  C311 1971   2.622   3.670   4.111  0.4635  0.1666 -0.4559
   15SAPS  H11X 1972   2.549   3.746   4.147  0.9515 -0.3914  1.8415
   15SAPS  H11Y 1973   2.721   3.707   4.144 -0.0791  0.2465  1.1931
   15SAPS  C312 1974   2.602   3.532   4.177  0.0731 -1.0016  0.2449
   15SAPS  H12X 1975   2.686   3.464   4.153  0.0069 -0.4817 -1.5389
   15SAPS  H12Y 1976   2.510   3.492   4.129 -0.6920  0.2106  0.6498
   15SAPS  C313 1977   2.577   3.545   4.331 -0.0918 -0.2580  0.3659
   15SAPS  H13X 1978   2.472   3.576   4.352 -0.7693 -1.2041 -1.3676
   15SAPS  H13Y 1979   2.657   3.618   4.354  1.9662 -1.2164 -2.9716
   15SAPS  C314 1980   2.623   3.418   4.400  0.0757 -0.3700  0.3559
   15SAPS  H14X 1981   2.731   3.401   4.384  0.0245  0.5035 -1.1146
   15SAPS  H14Y 1982   2.568   3.338   4.346 -0.2641  1.1423 -1.6435
   15SAPS  C315 1983   2.597   3.429   4.548 -0.5052 -0.0284 -0.5211
   15SAPS  H15X 1984   2.494   3.469   4.557  1.1883  4.5967  1.3164
   15SAPS  H15Y 1985   2.675   3.495   4.592  1.2684 -0.1381 -3.2693
   15SAPS  C316 1986   2.598   3.295   4.615  0.3647  0.1722  0.5309
   15SAPS  H16X 1987   2.702   3.262   4.594  0.6865  1.0934  0.6164
   15SAPS  H16Y 1988   2.517   3.243   4.560 -0.9008  2.5137  0.0342
   15SAPS  C317 1989   2.584   3.282   4.766 -0.0168  0.3297 -0.0706
   15SAPS  H17X 1990   2.651   3.352   4.821 -1.0726  1.2145  0.1182
   15SAPS  H17Y 1991   2.618   3.179   4.791 -1.1892 -0.5060 -1.7265
   15SAPS  C318 1992   2.450   3.285   4.818  0.2522  0.9292  0.2564
   15SAPS  H18X 1993   2.396   3.375   4.781 -1.8264 -0.7662 -1.0313
   15SAPS  H18Y 1994   2.440   3.274   4.929  0.7012  1.6661  0.3800
   15SAPS  H18Z 1995   2.388   3.199   4.785  2.6186 -0.5773 -0.4123
   16SAPS     N 1996   4.690   5.486   2.582  0.1944  0.3581 -0.6805
   16SAPS   HN1 1997   4.606   5.448   2.629 -1.0489  1.0033 -2.3046
   16SAPS   HN2 1998   4.760   5.411   2.602 -1.6029 -1.2473 -0.0864
   16SAPS   HN3 1999   4.719   5.573   2.631 -1.7004  1.7605 -1.9312
   16SAPS   C12 2000   4.678   5.515   2.441  0.0920 -0.3211  0.3361
   16SAPS  H12A 2001   4.757   5.587   2.425 -1.6571  0.9859 -3.4084
   16SAPS   C13 2002   4.700   5.396   2.345 -0.1173  0.7005  0.4149
   16SAPS  O13A 2003   4.747   5.291   2.391  0.2174  0.2388  0.5305
   16SAPS  O13B 2004   4.697   5.420   2.219  0.5961  0.1330 -0.1176
   16SAPS   C11 2005   4.544   5.585   2.414 -0.3475  0.6726 -0.3819
   16SAPS  H11A 2006   4.462   5.513   2.433  1.0211 -1.4746 -2.1393
   16SAPS  H11B 2007   4.542   5.621   2.309 -2.2876 -0.9829 -0.9714
   16SAPS     P 2008   4.381   5.768   2.485 -0.3806  0.1124  0.1555
   16SAPS   O13 2009   4.408   5.912   2.470  0.5191  0.5677 -0.0227
   16SAPS   O14 2010   4.311   5.705   2.377 -0.0251  0.1305 -0.5047
   16SAPS   O12 2011   4.522   5.700   2.501 -0.1779  0.1374  0.1177
   16SAPS   O11 2012   4.303   5.742   2.609  0.2738  0.4993 -0.0600
   16SAPS    C1 2013   4.309   5.611   2.684 -0.4887 -0.4016 -0.1678
   16SAPS    HA 2014   4.276   5.525   2.622 -0.1393 -1.7441  1.4332
   16SAPS    HB 2015   4.406   5.580   2.728  0.4687  2.7755  0.2022
   16SAPS    C2 2016   4.223   5.636   2.809  0.1870  0.9910 -0.4859
   16SAPS    HS 2017   4.127   5.672   2.767  0.7853  0.8143 -2.1237
   16SAPS   O21 2018   4.272   5.730   2.906 -0.0688 -0.6300  0.2472
   16SAPS   C21 2019   4.184   5.814   2.958 -0.8793 -0.9292  0.7472
   16SAPS   O22 2020   4.069   5.830   2.919 -0.3523  0.4900  0.7056
   16SAPS   C22 2021   4.250   5.873   3.085  0.2878 -0.3045 -0.4351
   16SAPS   H2R 2022   4.255   5.799   3.168 -0.6386 -0.3520 -0.4205
   16SAPS   H2S 2023   4.352   5.911   3.060  0.1710 -0.0003 -0.4482
   16SAPS    C3 2024   4.168   5.509   2.875 -0.4230 -0.0450 -0.2391
   16SAPS    HX 2025   4.255   5.475   2.935  0.1618  3.7495  1.3181
   16SAPS    HY 2026   4.142   5.433   2.798 -0.3605  1.5337 -1.8782
   16SAPS   O31 2027   4.052   5.523   2.964 -0.2403  0.6411 -0.3961
   16SAPS   C31 2028   3.930   5.494   2.926 -0.1118 -0.5510  0.8215
   16SAPS   O32 2029   3.901   5.455   2.815 -0.2124 -0.0680 -0.3551
   16SAPS   C32 2030   3.835   5.518   3.044 -0.1309 -0.0138 -0.1488
   16SAPS   H2X 2031   3.806   5.626   3.050 -0.4307 -0.1482  0.9113
   16SAPS   H2Y 2032   3.890   5.505   3.139 -2.0139  3.0973  1.5526
   16SAPS   C23 2033   4.162   5.990   3.149 -0.4746  0.1671 -0.5780
   16SAPS   H3R 2034   4.067   5.949   3.188 -1.2395  0.8087 -1.7006
   16SAPS   H3S 2035   4.137   6.073   3.079 -4.0979 -1.2307 -1.1452
   16SAPS   C24 2036   4.233   6.068   3.261 -0.9673  0.3400  0.3217
   16SAPS   H4R 2037   4.168   6.156   3.278 -0.0225  0.8392  1.4976
   16SAPS   H4S 2038   4.327   6.105   3.214  0.8214 -2.3581  1.4822
   16SAPS   C25 2039   4.264   5.994   3.390 -0.1431 -0.1685 -0.0182
   16SAPS   H5R 2040   4.334   5.909   3.379 -0.8253 -0.5874 -1.3220
   16SAPS   C26 2041   4.229   6.024   3.518  0.1530  0.4376  0.1618
   16SAPS   H6R 2042   4.250   5.951   3.599 -0.7150  3.3161  3.1958
   16SAPS   C27 2043   4.124   6.129   3.549  0.2784  0.1255  0.0037
   16SAPS   H7R 2044   4.028   6.075   3.554  0.4990 -0.2477  0.2700
   16SAPS   H7S 2045   4.109   6.189   3.457  1.4491 -1.7158 -1.4712
   16SAPS   C28 2046   4.160   6.225   3.665  1.0691  0.4210  0.6079
   16SAPS   H8R 2047   4.217   6.308   3.620  0.8729  1.7468  2.6532
   16SAPS   C29 2048   4.119   6.219   3.795  0.4944  0.0362 -0.4078
   16SAPS   H9R 2049   4.156   6.307   3.849 -0.8286  1.6949 -2.0365
   16SAPS  C210 2050   4.051   6.100   3.862  0.0380  0.2150  0.0810
   16SAPS  H10R 2051   4.125   6.049   3.927  0.6756  0.9729 -0.0268
   16SAPS  H10S 2052   4.026   6.021   3.789  0.0800 -1.1468  1.5032
   16SAPS  C211 2053   3.923   6.144   3.932 -0.2202  0.3467 -0.0529
   16SAPS  H11R 2054   3.839   6.153   3.862 -1.7950  1.7320  1.9120
   16SAPS  C212 2055   3.915   6.168   4.069  0.1885 -0.2996 -0.8269
   16SAPS  H12R 2056   3.821   6.194   4.120 -0.0018 -0.9381 -0.8520
   16SAPS  C213 2057   4.019   6.147   4.176 -0.9495 -0.2394 -0.4570
   16SAPS  H13R 2058   3.996   6.213   4.262  2.5094 -0.2388  0.6163
   16SAPS  H13S 2059   4.118   6.184   4.140 -0.5922 -0.8987 -0.1848
   16SAPS  C214 2060   4.026   6.000   4.220 -0.4961  0.3441  0.8523
   16SAPS  H14R 2061   4.042   5.929   4.137 -0.2575  1.2298  0.1222
   16SAPS  C215 2062   4.007   5.951   4.341  0.4711  0.7353  0.4145
   16SAPS  H15R 2063   4.012   5.843   4.365 -1.2452  1.2324  3.5068
   16SAPS  C216 2064   3.957   6.027   4.459  0.6090  0.2887 -0.0728
   16SAPS  H16R 2065   3.890   5.966   4.524  2.0143 -1.5388 -0.2550
   16SAPS  H16S 2066   3.884   6.107   4.434 -0.9362 -0.5064  1.6455
   16SAPS  C217 2067   4.070   6.078   4.546 -0.1300 -0.4090 -0.6629
   16SAPS  H17R 2068   4.141   6.137   4.485  1.2634 -2.2589 -0.8885
   16SAPS  H17S 2069   4.134   5.996   4.584  0.9851  1.2766  1.3292
   16SAPS  C218 2070   4.024   6.162   4.665  0.1266 -0.2409 -0.2710
   16SAPS  H18R 2071   3.966   6.105   4.741  0.3952  0.4512  0.4721
   16SAPS  H18S 2072   3.983   6.249   4.611  0.2842  0.2215  0.3412
   16SAPS  C219 2073   4.148   6.211   4.731 -0.2058 -0.5164 -0.0572
   16SAPS  H19R 2074   4.203   6.269   4.654 -0.4999  0.8866  0.7510
   16SAPS  H19S 2075   4.205   6.118   4.753  2.3086  0.2220 -2.8095
   16SAPS  C220 2076   4.128   6.298   4.851  0.1870  0.3193 -0.2546
   16SAPS  H20R 2077   4.224   6.341   4.889 -0.0933 -0.3610  1.2961
   16SAPS  H20S 2078   4.085   6.245   4.939 -0.3880 -0.4236 -0.9652
   16SAPS  H20T 2079   4.052   6.375   4.824 -0.9775 -0.3133  1.0929
   16SAPS   C33 2080   3.705   5.436   3.034 -0.1220  0.3215 -0.0550
   16SAPS   H3X 2081   3.680   5.424   2.926 -0.3980  0.6691 -0.0299
   16SAPS   H3Y 2082   3.628   5.502   3.079  1.3445  1.3691  1.0065
   16SAPS   C34 2083   3.705   5.296   3.105 -0.4426 -0.9269  0.8340
   16SAPS   H4X 2084   3.796   5.236   3.082 -1.0093 -0.6140 -2.8738
   16SAPS   H4Y 2085   3.625   5.227   3.068  2.3070 -3.1205 -1.5668
   16SAPS   C35 2086   3.694   5.302   3.257  0.3403  0.5818 -0.2815
   16SAPS   H5X 2087   3.611   5.372   3.280  1.3735  1.6023  0.4443
   16SAPS   H5Y 2088   3.786   5.346   3.300  0.9417 -1.0297  0.1509
   16SAPS   C36 2089   3.679   5.162   3.308 -0.3659  0.3020 -0.2587
   16SAPS   H6X 2090   3.756   5.095   3.265 -0.7188 -0.6542  0.5703
   16SAPS   H6Y 2091   3.582   5.125   3.269  0.5004 -2.3270 -0.0790
   16SAPS   C37 2092   3.685   5.137   3.457 -0.2109 -0.0808 -0.5165
   16SAPS   H7X 2093   3.793   5.138   3.483 -0.5817  1.0216  1.1560
   16SAPS   H7Y 2094   3.639   5.038   3.479  0.7951  0.3465  5.2059
   16SAPS   C38 2095   3.612   5.253   3.529 -0.6043  0.0937 -1.0910
   16SAPS   H8X 2096   3.528   5.293   3.468 -0.4017  1.0607 -0.7505
   16SAPS   H8Y 2097   3.679   5.341   3.537  0.4086 -0.8448  2.5133
   16SAPS   C39 2098   3.583   5.213   3.675  0.1293  0.7950 -0.1420
   16SAPS   H9X 2099   3.570   5.309   3.730  0.3880  1.5482 -1.3748
   16SAPS   H9Y 2100   3.670   5.168   3.728  0.7121  0.9393 -0.9663
   16SAPS  C310 2101   3.461   5.121   3.699 -0.1755  0.1154 -0.0974
   16SAPS  H10X 2102   3.480   5.016   3.669 -0.2918 -0.2932  1.1909
   16SAPS  H10Y 2103   3.377   5.163   3.640 -0.7954 -0.3172  0.4716
   16SAPS  C311 2104   3.407   5.120   3.843 -0.6211  0.3918  0.2203
   16SAPS  H11X 2105   3.299   5.102   3.862 -0.5085  0.3183  0.8147
   16SAPS  H11Y 2106   3.408   5.225   3.878 -1.7625  0.5011 -0.0296
   16SAPS  C312 2107   3.480   5.020   3.936  0.5059  0.4072 -0.0067
   16SAPS  H12X 2108   3.590   5.033   3.923  0.7064  0.7939  1.7825
   16SAPS  H12Y 2109   3.447   4.916   3.915  0.6082  0.2970  0.3614
   16SAPS  C313 2110   3.455   5.043   4.084  0.5539  0.3012 -1.0646
   16SAPS  H13X 2111   3.353   5.007   4.109  0.5395 -0.0630 -1.6362
   16SAPS  H13Y 2112   3.451   5.154   4.089 -0.4794  0.2856 -1.3193
   16SAPS  C314 2113   3.565   4.988   4.182  0.3963  0.6122 -0.3172
   16SAPS  H14X 2114   3.656   5.051   4.174  1.2069 -0.5843 -0.7761
   16SAPS  H14Y 2115   3.580   4.883   4.148 -0.7694  0.2398  0.2348
   16SAPS  C315 2116   3.511   4.982   4.318  0.1337 -0.0033  0.1904
   16SAPS  H15X 2117   3.430   4.907   4.329  1.6452 -1.5569  1.2308
   16SAPS  H15Y 2118   3.493   5.087   4.350 -0.0433 -0.6189  2.3014
   16SAPS  C316 2119   3.608   4.934   4.414 -0.3489  0.0458 -0.0203
   16SAPS  H16X 2120   3.695   5.003   4.409  0.5375 -1.1037 -1.4618
   16SAPS  H16Y 2121   3.640   4.837   4.371 -0.0832  0.1163  0.0159
   16SAPS  C317 2122   3.558   4.937   4.563 -0.6935 -0.2799  0.2743
   16SAPS  H17X 2123   3.460   4.887   4.579 -1.0783 -0.1702 -1.5223
   16SAPS  H17Y 2124   3.532   5.042   4.590  2.2900  0.3107  1.1794
   16SAPS  C318 2125   3.658   4.881   4.667 -0.7964  0.1119 -0.2162
   16SAPS  H18X 2126   3.678   4.774   4.646 -0.5513  0.3165 -1.0462
   16SAPS  H18Y 2127   3.617   4.900   4.769  1.3796 -0.2175  0.7857
   16SAPS  H18Z 2128   3.751   4.941   4.659 -1.4409  1.0650 -0.7780
   17SAPS     N 2129   0.629   2.746   2.410  0.0606  0.1954  0.2775
   17SAPS   HN1 2130   0.724   2.788   2.421 -0.3951  1.3626 -0.1012
   17SAPS   HN2 2131   0.634   2.643   2.426 -0.5971  0.3224  1.4245
   17SAPS   HN3 2132   0.579   2.780   2.325 -0.3366  2.7669  1.4400
   17SAPS   C12 2133   0.554   2.812   2.524 -0.5923 -0.5113 -0.5520
   17SAPS  H12A 2134   0.624   2.823   2.606 -2.3555  2.4761  0.7128
   17SAPS   C13 2135   0.497   2.958   2.499 -0.2308 -0.1194 -0.4199
   17SAPS  O13A 2136   0.485   3.002   2.380 -0.0152 -0.0207 -0.2701
   17SAPS  O13B 2137   0.436   3.005   2.594 -0.4579 -0.0033  0.6950
   17SAPS   C11 2138   0.446   2.709   2.568 -0.1439 -0.0713  0.5435
   17SAPS  H11A 2139   0.378   2.689   2.483 -1.9894  1.4039  1.5916
   17SAPS  H11B 2140   0.380   2.751   2.648 -0.8266 -0.9273  0.4370
   17SAPS     P 2141   0.428   2.479   2.682  0.0183 -0.0120 -0.1199
   17SAPS   O13 2142   0.297   2.463   2.617  0.4358  0.2636  0.0871
   17SAPS   O14 2143   0.508   2.353   2.694  0.1809  0.2442 -0.1864
   17SAPS   O12 2144   0.512   2.587   2.605  0.5164 -0.6954 -0.3296
   17SAPS   O11 2145   0.418   2.537   2.828  0.3746 -0.8676 -0.4498
   17SAPS    C1 2146   0.537   2.600   2.889  0.7579 -0.0219  0.2107
   17SAPS    HA 2147   0.625   2.534   2.882  0.1186 -1.1363  1.9699
   17SAPS    HB 2148   0.556   2.698   2.840  0.3973  1.0179  2.0523
   17SAPS    C2 2149   0.508   2.620   3.044  0.1923 -0.4168  0.0324
   17SAPS    HS 2150   0.604   2.656   3.087 -1.5425  3.2594  1.2058
   17SAPS   O21 2151   0.469   2.493   3.107  0.4981 -0.2861  0.1559
   17SAPS   C21 2152   0.565   2.416   3.116 -0.3427 -0.2928  0.0211
   17SAPS   O22 2153   0.679   2.438   3.083 -0.8602 -0.5879  0.2628
   17SAPS   C22 2154   0.525   2.296   3.204 -0.7212 -0.3095 -0.0376
   17SAPS   H2R 2155   0.495   2.328   3.306 -0.1555  1.5531 -0.4325
   17SAPS   H2S 2156   0.440   2.244   3.154  0.3918 -4.1584  1.7032
   17SAPS    C3 2157   0.401   2.725   3.073 -0.1146  0.0168  0.3698
   17SAPS    HX 2158   0.309   2.678   3.032  0.1936 -0.8237  0.6163
   17SAPS    HY 2159   0.427   2.813   3.010  0.1949 -0.5915 -0.3631
   17SAPS   O31 2160   0.382   2.764   3.204 -0.5617  0.1178 -0.0186
   17SAPS   C31 2161   0.276   2.827   3.236  0.3783 -0.0223 -0.5716
   17SAPS   O32 2162   0.192   2.871   3.158 -0.1647  0.4186  0.4746
   17SAPS   C32 2163   0.273   2.848   3.390  0.2677  0.4790 -0.5924
   17SAPS   H2X 2164   0.361   2.903   3.429 -0.6471  0.0445  2.3678
   17SAPS   H2Y 2165   0.281   2.750   3.442 -1.1039 -0.8644 -2.7190
   17SAPS   C23 2166   0.646   2.196   3.213 -0.5431 -0.9565 -0.4590
   17SAPS   H3R 2167   0.747   2.238   3.232 -0.8504 -0.5901  0.4237
   17SAPS   H3S 2168   0.650   2.132   3.122 -0.5337 -0.9735 -0.4470
   17SAPS   C24 2169   0.623   2.099   3.332 -0.4936 -0.0097 -0.4056
   17SAPS   H4R 2170   0.648   2.147   3.429  2.2521 -0.0624 -0.9969
   17SAPS   H4S 2171   0.702   2.023   3.313  0.5701  0.6582  1.1932
   17SAPS   C25 2172   0.490   2.030   3.334 -0.8764 -0.3995  0.0321
   17SAPS   H5R 2173   0.469   1.982   3.237 -0.0086 -0.7617  0.0072
   17SAPS   C26 2174   0.405   2.014   3.433  0.3302  0.1623 -0.0713
   17SAPS   H6R 2175   0.310   1.961   3.419  0.4290 -0.1612  0.4329
   17SAPS   C27 2176   0.424   2.074   3.569 -0.0556  0.1354 -0.4198
   17SAPS   H7R 2177   0.324   2.102   3.610 -0.1761  1.1325 -1.3409
   17SAPS   H7S 2178   0.484   2.166   3.550  0.8494 -0.2461  0.4874
   17SAPS   C28 2179   0.504   1.978   3.662 -0.2690 -0.4189  0.3520
   17SAPS   H8R 2180   0.509   1.870   3.644  2.8865 -0.4057  0.5837
   17SAPS   C29 2181   0.548   2.023   3.784  0.0061  0.3419  0.5662
   17SAPS   H9R 2182   0.598   1.958   3.858 -0.3692 -0.8126 -0.1805
   17SAPS  C210 2183   0.548   2.157   3.841  0.2191  0.2847 -0.4683
   17SAPS  H10R 2184   0.575   2.236   3.767 -2.2157  1.2545 -0.4078
   17SAPS  H10S 2185   0.626   2.172   3.919 -0.8138  0.4298  0.5690
   17SAPS  C211 2186   0.412   2.208   3.882 -0.1821 -0.9968 -0.1726
   17SAPS  H11R 2187   0.339   2.208   3.800  0.8715 -0.2782 -1.1328
   17SAPS  C212 2188   0.371   2.246   4.007 -0.3838  0.1505  0.6004
   17SAPS  H12R 2189   0.265   2.270   4.020 -0.0487  1.1122  1.7234
   17SAPS  C213 2190   0.439   2.249   4.142 -0.0310 -0.3271  0.1611
   17SAPS  H13R 2191   0.403   2.337   4.200  2.2415  0.0441  1.1009
   17SAPS  H13S 2192   0.548   2.269   4.132 -0.4116  1.4991 -0.6522
   17SAPS  C214 2193   0.417   2.119   4.209 -0.4534 -0.0987  0.7133
   17SAPS  H14R 2194   0.433   2.030   4.146 -1.2869 -0.8543  1.5392
   17SAPS  C215 2195   0.371   2.095   4.334 -0.6967 -0.5158 -0.6218
   17SAPS  H15R 2196   0.365   1.990   4.364  1.6543 -0.6800 -0.5305
   17SAPS  C216 2197   0.356   2.206   4.438 -0.1643 -0.1578 -0.2632
   17SAPS  H16R 2198   0.423   2.294   4.422  0.2063 -0.8220 -2.9437
   17SAPS  H16S 2199   0.382   2.169   4.539 -2.6595  2.2723  1.4093
   17SAPS  C217 2200   0.213   2.263   4.426 -0.6105 -0.2550 -0.0335
   17SAPS  H17R 2201   0.141   2.185   4.460  0.2930 -1.1393 -0.1079
   17SAPS  H17S 2202   0.195   2.275   4.317  3.6959  0.0024 -0.8873
   17SAPS  C218 2203   0.209   2.382   4.514  0.3497  0.5157  0.0621
   17SAPS  H18R 2204   0.133   2.446   4.464  0.3486 -0.2943 -1.0085
   17SAPS  H18S 2205   0.306   2.434   4.498  0.2177  0.6160 -0.4444
   17SAPS  C219 2206   0.171   2.368   4.662 -0.7373  0.3477 -0.4865
   17SAPS  H19R 2207   0.178   2.456   4.729 -2.0878 -1.9869  3.0249
   17SAPS  H19S 2208   0.252   2.305   4.706  1.0664  2.7334 -0.1699
   17SAPS  C220 2209   0.037   2.302   4.699 -0.0469 -0.4635 -0.2132
   17SAPS  H20R 2210   0.031   2.304   4.810  1.9118  2.1695 -0.0618
   17SAPS  H20S 2211   0.024   2.197   4.665 -0.5421 -0.0035 -1.5245
   17SAPS  H20T 2212  -0.047   2.366   4.665  1.5558  0.2983 -3.1267
   17SAPS   C33 2213   0.154   2.930   3.447 -0.5594 -0.0331 -0.1588
   17SAPS   H3X 2214   0.074   2.863   3.485 -1.1827  1.0000  0.4121
   17SAPS   H3Y 2215   0.107   2.991   3.366  1.2535  2.3836  0.4856
   17SAPS   C34 2216   0.194   3.030   3.566 -0.2563 -0.2438  1.1134
   17SAPS   H4X 2217   0.275   3.094   3.525  0.7519 -2.3067 -0.2506
   17SAPS   H4Y 2218   0.243   2.966   3.643  3.4206 -0.6899 -1.3542
   17SAPS   C35 2219   0.076   3.095   3.622 -0.1903 -0.8703  0.6440
   17SAPS   H5X 2220  -0.004   3.019   3.636  0.2016 -1.6321 -0.9654
   17SAPS   H5Y 2221   0.027   3.170   3.556  1.8524  0.5734  0.6714
   17SAPS   C36 2222   0.109   3.154   3.759  0.2741  0.4001  0.6002
   17SAPS   H6X 2223   0.118   3.074   3.835  0.1444  0.2186  0.4253
   17SAPS   H6Y 2224   0.017   3.209   3.790 -0.5205 -1.6559  2.1128
   17SAPS   C37 2225   0.227   3.249   3.757  0.2848  0.5681 -0.4630
   17SAPS   H7X 2226   0.234   3.308   3.663  2.1440  1.4871  0.1873
   17SAPS   H7Y 2227   0.316   3.184   3.770 -1.2311 -1.2092  1.7001
   17SAPS   C38 2228   0.230   3.347   3.876  0.9687 -0.1217 -0.2268
   17SAPS   H8X 2229   0.137   3.405   3.858 -1.2265 -3.2801  0.1250
   17SAPS   H8Y 2230   0.318   3.415   3.883  0.8421 -0.1229  2.2023
   17SAPS   C39 2231   0.214   3.268   4.011  0.6195  0.3330 -0.0912
   17SAPS   H9X 2232   0.296   3.196   4.033  0.4573  0.1881  0.0415
   17SAPS   H9Y 2233   0.127   3.200   4.006 -0.2194  1.1506  2.3142
   17SAPS  C310 2234   0.195   3.369   4.131  0.1651  0.3277  0.6710
   17SAPS  H10X 2235   0.096   3.417   4.114  0.6221  0.5022 -2.0773
   17SAPS  H10Y 2236   0.269   3.450   4.116 -1.0008  0.8252 -5.1637
   17SAPS  C311 2237   0.191   3.306   4.270 -0.4244  0.7720 -0.2443
   17SAPS  H11X 2238   0.285   3.253   4.296 -2.6345 -2.9999  0.7498
   17SAPS  H11Y 2239   0.110   3.230   4.276  0.2556  0.0519 -0.0890
   17SAPS  C312 2240   0.155   3.407   4.383  0.1272  0.6719  0.0433
   17SAPS  H12X 2241   0.054   3.448   4.365  0.2843  0.8507 -0.4604
   17SAPS  H12Y 2242   0.221   3.495   4.362 -0.6223  0.9824 -1.0723
   17SAPS  C313 2243   0.169   3.358   4.531  0.0839  0.2914  0.0595
   17SAPS  H13X 2244   0.189   3.441   4.603  1.5761 -0.1175  0.1621
   17SAPS  H13Y 2245   0.263   3.299   4.525 -0.4978 -0.4972 -3.8128
   17SAPS  C314 2246   0.045   3.272   4.561  0.5730  0.2411  0.5528
   17SAPS  H14X 2247   0.049   3.200   4.477  2.2713  2.8898 -1.8418
   17SAPS  H14Y 2248  -0.048   3.329   4.541  0.2996 -0.5302 -0.4180
   17SAPS  C315 2249   0.058   3.186   4.687  0.5891 -0.0787  0.1178
   17SAPS  H15X 2250   0.069   3.269   4.761  1.0150  0.3540 -0.4221
   17SAPS  H15Y 2251   0.152   3.128   4.684  1.7058  1.6935 -1.0461
   17SAPS  C316 2252  -0.061   3.097   4.715 -0.2134  0.4282 -0.2716
   17SAPS  H16X 2253  -0.072   3.020   4.636  1.3151  0.1690 -0.2643
   17SAPS  H16Y 2254  -0.156   3.155   4.711 -0.3096  0.2868 -0.0879
   17SAPS  C317 2255  -0.052   3.013   4.845  0.0944  0.3820  0.1407
   17SAPS  H17X 2256  -0.029   3.081   4.930 -0.8216 -1.1109  1.6274
   17SAPS  H17Y 2257   0.039   2.949   4.847  0.1652  0.4962  0.9816
   17SAPS  C318 2258  -0.173   2.920   4.876 -0.6587 -0.4354 -0.2062
   17SAPS  H18X 2259  -0.180   2.903   4.986 -1.5739  2.2771  0.2237
   17SAPS  H18Y 2260  -0.164   2.823   4.822  2.3851  0.8172 -2.1904
   17SAPS  H18Z 2261  -0.262   2.971   4.836  0.0606 -0.4213 -1.8884
   18SAPS     N 2262   2.119   3.951   2.142 -0.9243  0.4792  0.5336
   18SAPS   HN1 2263   2.192   3.975   2.212  0.0210 -1.7535  0.4009
   18SAPS   HN2 2264   2.057   3.880   2.187  1.3389  0.1058  3.3742
   18SAPS   HN3 2265   2.174   3.922   2.059  0.0585  0.2871  1.2300
   18SAPS   C12 2266   2.038   4.071   2.123 -0.1395 -0.3403  0.2693
   18SAPS  H12A 2267   2.069   4.147   2.194 -0.4478 -0.6340  0.7253
   18SAPS   C13 2268   2.046   4.150   1.991 -0.1498 -0.4539 -1.4062
   18SAPS  O13A 2269   2.122   4.120   1.899 -0.1950  0.0749  0.0020
   18SAPS  O13B 2270   1.986   4.261   1.988 -0.1207  0.0283 -0.2064
   18SAPS   C11 2271   1.893   4.028   2.156 -0.0676  0.2857 -0.3156
   18SAPS  H11A 2272   1.860   3.978   2.063 -0.4379  1.9920 -1.1363
   18SAPS  H11B 2273   1.837   4.117   2.192 -1.2992 -0.4290 -0.4169
   18SAPS     P 2274   1.754   3.887   2.331 -0.4158  0.3593  0.6496
   18SAPS   O13 2275   1.670   4.006   2.356 -0.1068 -0.4371 -0.1189
   18SAPS   O14 2276   1.704   3.779   2.238 -0.1686 -0.2680 -0.1655
   18SAPS   O12 2277   1.890   3.941   2.271  0.5397 -0.0787  0.1265
   18SAPS   O11 2278   1.784   3.826   2.470  0.0048  0.5646 -0.1234
   18SAPS    C1 2279   1.871   3.882   2.568 -0.5166 -0.1895 -0.3532
   18SAPS    HA 2280   1.876   3.991   2.549 -0.4066  0.1985  1.6335
   18SAPS    HB 2281   1.824   3.878   2.669  2.5637 -0.1263  1.2141
   18SAPS    C2 2282   2.006   3.811   2.581 -0.8795 -0.0270 -0.0884
   18SAPS    HS 2283   2.059   3.812   2.483  0.9975  3.0079  0.8243
   18SAPS   O21 2284   1.983   3.679   2.627  0.3349 -0.6234 -0.3755
   18SAPS   C21 2285   2.058   3.579   2.583 -0.7477 -0.6441  0.5161
   18SAPS   O22 2286   2.154   3.596   2.507  0.3086 -0.0565 -0.2376
   18SAPS   C22 2287   2.018   3.445   2.631  0.5708  0.1273 -0.3695
   18SAPS   H2R 2288   1.908   3.429   2.631 -0.1144  3.9688 -0.6931
   18SAPS   H2S 2289   2.063   3.367   2.566  3.0140  0.5003  0.7577
   18SAPS    C3 2290   2.098   3.887   2.684  0.2295 -0.5735  0.3781
   18SAPS    HX 2291   2.040   3.900   2.777 -1.4763 -0.6499 -0.6361
   18SAPS    HY 2292   2.107   3.989   2.641 -0.4708  0.4360  2.5030
   18SAPS   O31 2293   2.229   3.829   2.710  0.0580 -0.0393 -0.1984
   18SAPS   C31 2294   2.293   3.887   2.821 -0.2609 -0.0109 -0.0271
   18SAPS   O32 2295   2.261   3.990   2.872  0.3993  0.1672 -0.4345
   18SAPS   C32 2296   2.426   3.815   2.835 -0.7213  0.3605  0.5425
   18SAPS   H2X 2297   2.507   3.879   2.794 -1.1201  0.4927 -0.0643
   18SAPS   H2Y 2298   2.423   3.727   2.767  2.1515 -0.1021  0.8895
   18SAPS   C23 2299   2.062   3.435   2.779 -0.0708  0.5877  0.1551
   18SAPS   H3R 2300   2.173   3.435   2.784 -0.0683  0.7215  0.1005
   18SAPS   H3S 2301   2.029   3.335   2.816 -0.8783  0.5008 -0.7471
   18SAPS   C24 2302   2.006   3.541   2.884  0.0672 -0.0911 -0.6736
   18SAPS   H4R 2303   2.024   3.646   2.852  1.7624  0.2714  1.2908
   18SAPS   H4S 2304   2.061   3.526   2.979 -1.3882  1.0427  0.4070
   18SAPS   C25 2305   1.864   3.509   2.910  0.6660  0.2395  0.1821
   18SAPS   H5R 2306   1.798   3.521   2.823  0.9748 -0.8412 -0.2175
   18SAPS   C26 2307   1.805   3.480   3.029 -0.2321 -1.2801 -0.6135
   18SAPS   H6R 2308   1.698   3.456   3.020 -0.4396 -0.2095 -1.0795
   18SAPS   C27 2309   1.864   3.472   3.168  0.2307  0.5785  0.3636
   18SAPS   H7R 2310   1.974   3.464   3.171  0.3373  1.8535  0.3367
   18SAPS   H7S 2311   1.840   3.369   3.203  1.4118 -0.4441 -1.6561
   18SAPS   C28 2312   1.820   3.586   3.259 -0.2265 -0.1336  0.3077
   18SAPS   H8R 2313   1.767   3.662   3.200 -0.5832  0.0088  0.8114
   18SAPS   C29 2314   1.840   3.598   3.389 -0.9600  0.2249  0.0491
   18SAPS   H9R 2315   1.797   3.682   3.446  3.1389  2.3109  0.4594
   18SAPS  C210 2316   1.909   3.493   3.470  0.5499  0.2261 -0.9212
   18SAPS  H10R 2317   1.847   3.400   3.466 -1.0626  1.2616 -0.7859
   18SAPS  H10S 2318   1.901   3.522   3.577 -0.1838 -1.1757 -0.5599
   18SAPS  C211 2319   2.049   3.451   3.427  0.3335  0.7368 -0.6919
   18SAPS  H11R 2320   2.112   3.523   3.374  0.2937  1.2880 -0.0077
   18SAPS  C212 2321   2.091   3.324   3.435  0.0194  0.6081  0.5331
   18SAPS  H12R 2322   2.191   3.306   3.394 -0.3317  1.6148 -0.8361
   18SAPS  C213 2323   2.024   3.210   3.513 -0.4424 -1.8576  0.3557
   18SAPS  H13R 2324   1.936   3.180   3.452 -1.6178  1.4793  0.2141
   18SAPS  H13S 2325   1.983   3.243   3.610 -0.1671  1.9085 -0.6570
   18SAPS  C214 2326   2.119   3.089   3.520 -0.0429  0.1147  0.1020
   18SAPS  H14R 2327   2.175   3.065   3.429  1.5053 -0.2355  1.1044
   18SAPS  C215 2328   2.111   2.992   3.620  0.4615  0.2213  0.2399
   18SAPS  H15R 2329   2.180   2.907   3.612 -1.2491 -1.2677  0.5137
   18SAPS  C216 2330   2.014   2.987   3.738 -0.5288 -0.0564  0.1093
   18SAPS  H16R 2331   1.927   2.919   3.723 -2.1008  1.8497  0.1525
   18SAPS  H16S 2332   1.959   3.083   3.748  0.7106  0.7860 -0.8680
   18SAPS  C217 2333   2.077   2.954   3.879  1.2317 -0.1580  0.5519
   18SAPS  H17R 2334   2.149   3.037   3.898  0.3832  0.8400 -0.5117
   18SAPS  H17S 2335   2.129   2.856   3.872 -2.0237 -2.0362  0.6559
   18SAPS  C218 2336   1.971   2.950   3.990  0.7101  0.4470  0.7484
   18SAPS  H18R 2337   1.905   2.861   3.981 -1.4017  1.9986 -0.0011
   18SAPS  H18S 2338   1.911   3.042   3.973  0.4765  0.3398  0.9787
   18SAPS  C219 2339   2.036   2.941   4.134 -0.1622  0.7260  0.5882
   18SAPS  H19R 2340   2.052   3.045   4.173  1.0851  0.9757 -0.5141
   18SAPS  H19S 2341   2.134   2.891   4.122  1.0993  3.2803 -0.7428
   18SAPS  C220 2342   1.947   2.869   4.231 -0.1191 -0.0235 -0.0932
   18SAPS  H20R 2343   1.846   2.915   4.234 -0.3455 -0.3431 -1.8306
   18SAPS  H20S 2344   1.994   2.890   4.330 -0.6541 -1.5445  0.5075
   18SAPS  H20T 2345   1.948   2.759   4.213 -0.7519 -0.5087  2.4152
   18SAPS   C33 2346   2.456   3.765   2.973  0.3300  0.2428 -0.2310
   18SAPS   H3X 2347   2.462   3.847   3.048 -2.5680  0.4030 -0.0464
   18SAPS   H3Y 2348   2.557   3.721   2.956  0.6196  1.3327 -1.4019
   18SAPS   C34 2349   2.357   3.660   3.018 -0.1780  0.4087 -0.5454
   18SAPS   H4X 2350   2.347   3.599   2.926  0.5224 -2.9309  1.4185
   18SAPS   H4Y 2351   2.255   3.696   3.042 -0.2596  0.2074 -0.5942
   18SAPS   C35 2352   2.419   3.570   3.131 -0.8586  0.3830  0.3951
   18SAPS   H5X 2353   2.530   3.574   3.120 -1.0222  2.2795 -1.0267
   18SAPS   H5Y 2354   2.390   3.463   3.119  0.8258 -0.4225  2.6628
   18SAPS   C36 2355   2.386   3.611   3.275 -0.0165  0.6729  0.0036
   18SAPS   H6X 2356   2.277   3.630   3.286  0.2701  1.8706  0.9676
   18SAPS   H6Y 2357   2.447   3.699   3.303  0.2720  0.5843 -0.3396
   18SAPS   C37 2358   2.421   3.490   3.369  0.7331 -0.5193  0.3681
   18SAPS   H7X 2359   2.526   3.459   3.352  0.2326 -1.8051 -0.5963
   18SAPS   H7Y 2360   2.355   3.406   3.339  0.4252 -0.0751 -0.2389
   18SAPS   C38 2361   2.399   3.522   3.514  0.0626  0.2212 -0.3539
   18SAPS   H8X 2362   2.313   3.588   3.535  0.8117  0.7624  1.1425
   18SAPS   H8Y 2363   2.486   3.577   3.554  0.0720 -1.1479  1.6774
   18SAPS   C39 2364   2.400   3.397   3.604  0.1949 -0.1739 -0.3480
   18SAPS   H9X 2365   2.499   3.346   3.600 -0.3331 -1.4497  1.3241
   18SAPS   H9Y 2366   2.322   3.325   3.569 -0.1748  1.0960 -2.2871
   18SAPS  C310 2367   2.359   3.413   3.751  0.2672 -0.2428  0.3900
   18SAPS  H10X 2368   2.255   3.445   3.773  0.8808  0.2441  2.8701
   18SAPS  H10Y 2369   2.420   3.498   3.789 -1.8632  0.9211  1.3533
   18SAPS  C311 2370   2.391   3.292   3.838 -0.3798  0.2686  0.3772
   18SAPS  H11X 2371   2.337   3.203   3.799  0.9996  0.1898 -1.5104
   18SAPS  H11Y 2372   2.355   3.305   3.942  1.3932 -0.2103  1.0804
   18SAPS  C312 2373   2.542   3.257   3.852  0.2946  0.1561  0.4781
   18SAPS  H12X 2374   2.603   3.346   3.879  0.9714 -0.2553  0.3516
   18SAPS  H12Y 2375   2.580   3.232   3.750  0.9248  1.0386  0.4862
   18SAPS  C313 2376   2.565   3.134   3.937 -0.1909 -0.0918  0.0526
   18SAPS  H13X 2377   2.671   3.100   3.934 -0.2924 -0.5486  1.0369
   18SAPS  H13Y 2378   2.512   3.053   3.882 -0.3766 -1.7041  2.4605
   18SAPS  C314 2379   2.515   3.148   4.077 -0.0234  0.7032 -0.0787
   18SAPS  H14X 2380   2.408   3.179   4.078  0.2050  1.5262 -0.2846
   18SAPS  H14Y 2381   2.559   3.244   4.113 -0.0849  0.9006 -0.5206
   18SAPS  C315 2382   2.537   3.033   4.178  0.0898  0.1379  1.2698
   18SAPS  H15X 2383   2.521   3.088   4.273 -3.3377  1.1256  0.2488
   18SAPS  H15Y 2384   2.639   2.990   4.168  0.7785  2.2343 -3.0624
   18SAPS  C316 2385   2.437   2.914   4.155 -0.3892  0.3968  0.4624
   18SAPS  H16X 2386   2.471   2.865   4.061  1.8219 -0.0797  1.4477
   18SAPS  H16Y 2387   2.338   2.959   4.134 -0.2392 -0.3870 -2.3380
   18SAPS  C317 2388   2.438   2.806   4.264 -0.2603 -0.2562 -0.0110
   18SAPS  H17X 2389   2.418   2.852   4.363  2.0595 -0.1508  0.4594
   18SAPS  H17Y 2390   2.539   2.761   4.275 -0.4739 -0.6206  0.4821
   18SAPS  C318 2391   2.338   2.692   4.240 -0.2450 -0.4752 -0.3448
   18SAPS  H18X 2392   2.362   2.654   4.138 -1.6384 -1.5234 -0.3001
   18SAPS  H18Y 2393   2.237   2.737   4.247  0.6534  1.8770 -1.2598
   18SAPS  H18Z 2394   2.362   2.611   4.312  1.9949 -0.8457 -1.4233
   19SAPS     N 2395   1.483   0.317   2.846  0.1399 -0.1149  1.0690
   19SAPS   HN1 2396   1.535   0.301   2.935  1.3645  0.3470  0.4557
   19SAPS   HN2 2397   1.548   0.363   2.779  0.1284 -1.0332  0.4166
   19SAPS   HN3 2398   1.407   0.385   2.869  0.8765  1.0153  0.2765
   19SAPS   C12 2399   1.419   0.186   2.795 -0.0771  0.6932  0.5874
   19SAPS  H12A 2400   1.351   0.147   2.870 -1.0292 -0.7713 -0.9577
   19SAPS   C13 2401   1.336   0.192   2.662  0.0870  0.3537  0.6302
   19SAPS  O13A 2402   1.339   0.303   2.600  0.6772  0.3076 -0.5567
   19SAPS  O13B 2403   1.280   0.088   2.622 -0.2997  0.2921 -0.5514
   19SAPS   C11 2404   1.544   0.090   2.777 -0.0773  0.3646 -0.2542
   19SAPS  H11A 2405   1.503  -0.005   2.735  1.1420 -0.0708 -0.5058
   19SAPS  H11B 2406   1.589   0.064   2.875 -0.4556 -0.7334 -0.3565
   19SAPS     P 2407   1.761   0.070   2.638  0.0502  0.4955 -0.0514
   19SAPS   O13 2408   1.704  -0.065   2.591  0.0710  0.4787 -0.0496
   19SAPS   O14 2409   1.841   0.152   2.545 -0.0392 -0.2073  0.2241
   19SAPS   O12 2410   1.636   0.154   2.685 -0.1627  0.5314 -0.1021
   19SAPS   O11 2411   1.843   0.054   2.769 -0.7865  0.2590  1.0276
   19SAPS    C1 2412   1.868   0.155   2.867  0.7203  0.0977 -0.3897
   19SAPS    HA 2413   1.916   0.243   2.818 -0.8873  0.2466 -1.8152
   19SAPS    HB 2414   1.769   0.190   2.903  0.7525 -0.2789  0.0703
   19SAPS    C2 2415   1.949   0.095   2.983 -0.4768 -0.0232  0.5410
   19SAPS    HS 2416   1.953  -0.015   2.968 -3.4976 -0.3923  1.7372
   19SAPS   O21 2417   1.899   0.138   3.107 -0.4876 -0.1286  0.0744
   19SAPS   C21 2418   1.792   0.069   3.145  0.0902 -0.0774  0.9399
   19SAPS   O22 2419   1.745  -0.024   3.082  0.2628  0.1356  0.1615
   19SAPS   C22 2420   1.741   0.132   3.274 -0.2428  0.0056 -0.0707
   19SAPS   H2R 2421   1.696   0.229   3.247 -0.0452  0.1308  0.0502
   19SAPS   H2S 2422   1.664   0.067   3.321 -0.0626 -0.2028 -0.0620
   19SAPS    C3 2423   2.096   0.152   2.966  0.6737  0.3472 -0.0582
   19SAPS    HX 2424   2.089   0.261   2.980 -1.9424  0.5540 -2.2800
   19SAPS    HY 2425   2.108   0.133   2.857 -0.9218 -0.6206 -0.1011
   19SAPS   O31 2426   2.191   0.084   3.047  0.3275 -0.0683  0.4424
   19SAPS   C31 2427   2.275   0.163   3.109 -0.0158 -0.4202 -0.3132
   19SAPS   O32 2428   2.286   0.281   3.090 -0.0871  0.2423 -0.0210
   19SAPS   C32 2429   2.357   0.080   3.200  0.6102 -0.0918  0.3560
   19SAPS   H2X 2430   2.456   0.128   3.220  0.2379  0.7236  0.2665
   19SAPS   H2Y 2431   2.377  -0.024   3.167 -2.1765  0.2551 -2.8557
   19SAPS   C23 2432   1.852   0.158   3.375  0.2630  0.2264  0.1994
   19SAPS   H3R 2433   1.803   0.217   3.456 -0.5325 -0.0132 -0.0919
   19SAPS   H3S 2434   1.922   0.226   3.322  1.6636 -1.4211 -0.1429
   19SAPS   C24 2435   1.927   0.035   3.433 -0.2515  0.3177  0.3757
   19SAPS   H4R 2436   1.981   0.062   3.526 -0.2900  0.0195  0.4842
   19SAPS   H4S 2437   1.996   0.016   3.348  0.7218  1.1455  0.9633
   19SAPS   C25 2438   1.835  -0.081   3.448 -0.3757 -0.2694  1.1559
   19SAPS   H5R 2439   1.786  -0.112   3.354  2.2545 -0.9234 -0.0857
   19SAPS   C26 2440   1.801  -0.140   3.559 -0.6229  0.1329  0.4164
   19SAPS   H6R 2441   1.730  -0.224   3.553  1.1514 -1.3532 -1.6966
   19SAPS   C27 2442   1.846  -0.108   3.700 -0.4857  0.5342 -0.0585
   19SAPS   H7R 2443   1.766  -0.136   3.771 -0.0317 -0.3791  0.1164
   19SAPS   H7S 2444   1.848   0.003   3.700 -1.9794  0.6297  2.3306
   19SAPS   C28 2445   1.974  -0.178   3.746 -0.0544 -0.3409 -0.2002
   19SAPS   H8R 2446   2.034  -0.216   3.662 -0.7751 -0.3552 -0.7152
   19SAPS   C29 2447   2.012  -0.206   3.870 -0.0904 -0.7983 -0.1525
   19SAPS   H9R 2448   2.110  -0.254   3.882 -0.2227 -1.7350 -2.3896
   19SAPS  C210 2449   1.954  -0.137   3.995 -0.0734  0.3133  0.0722
   19SAPS  H10R 2450   1.892  -0.051   3.962  0.1471 -0.0581 -1.3870
   19SAPS  H10S 2451   2.031  -0.077   4.048 -0.1471  2.1079 -1.7247
   19SAPS  C211 2452   1.869  -0.226   4.067  0.3730  0.0181  0.6227
   19SAPS  H11R 2453   1.784  -0.264   4.009  1.2812 -1.6887  0.3506
   19SAPS  C212 2454   1.873  -0.253   4.202 -0.2932  0.5200  1.0180
   19SAPS  H12R 2455   1.796  -0.324   4.235  0.4572  1.1533  4.5668
   19SAPS  C213 2456   1.976  -0.209   4.310 -0.1300 -0.0307  0.8469
   19SAPS  H13R 2457   2.077  -0.204   4.266 -0.6450 -0.9277 -0.4885
   19SAPS  H13S 2458   1.977  -0.292   4.383 -1.1175 -0.3424  0.5212
   19SAPS  C214 2459   1.936  -0.081   4.369  0.0989  0.0802 -0.2201
   19SAPS  H14R 2460   1.845  -0.035   4.329 -0.3642  1.1501  1.9222
   19SAPS  C215 2461   2.002  -0.018   4.470 -0.1520 -0.1249  0.4779
   19SAPS  H15R 2462   1.969   0.082   4.503 -0.2253  0.6584 -1.8336
   19SAPS  C216 2463   2.125  -0.084   4.536  0.4855 -0.6990 -0.5929
   19SAPS  H16R 2464   2.221  -0.029   4.529  0.1987 -0.1517 -0.2721
   19SAPS  H16S 2465   2.135  -0.189   4.501 -0.6961 -0.2519 -2.4155
   19SAPS  C217 2466   2.093  -0.099   4.690 -0.0196  0.5137 -0.5199
   19SAPS  H17R 2467   2.014  -0.175   4.704  0.5586  0.1060  0.6400
   19SAPS  H17S 2468   2.051  -0.003   4.727 -0.0693  0.0351  0.6993
   19SAPS  C218 2469   2.218  -0.143   4.777 -0.2446  0.8192 -0.0711
   19SAPS  H18R 2470   2.286  -0.056   4.790 -0.4378  1.1749 -1.3116
   19SAPS  H18S 2471   2.277  -0.225   4.731  0.6769  0.7616  1.1767
   19SAPS  C219 2472   2.183  -0.196   4.918 -0.9352 -0.4503 -0.2277
   19SAPS  H19R 2473   2.113  -0.282   4.908  0.4107 -1.4008 -2.1289
   19SAPS  H19S 2474   2.118  -0.120   4.967 -0.2889  0.8216 -1.2884
   19SAPS  C220 2475   2.304  -0.226   5.014 -0.0280 -0.0324  1.2758
   19SAPS  H20R 2476   2.362  -0.131   5.025 -0.6862  0.2640  2.2934
   19SAPS  H20S 2477   2.368  -0.299   4.960 -0.7301 -0.1254  0.5395
   19SAPS  H20T 2478   2.269  -0.281   5.104  0.0298 -1.9212  0.2052
   19SAPS   C33 2479   2.290   0.061   3.338 -0.2404 -0.2069 -0.5868
   19SAPS   H3X 2480   2.200  -0.003   3.333  0.0505 -0.5380 -2.0790
   19SAPS   H3Y 2481   2.253   0.154   3.386 -1.0395 -0.7545 -0.1284
   19SAPS   C34 2482   2.396   0.010   3.433 -0.1351 -0.5971 -0.4683
   19SAPS   H4X 2483   2.472   0.090   3.446  1.7773 -1.9490 -2.4899
   19SAPS   H4Y 2484   2.448  -0.076   3.384  0.1384 -0.0893 -1.0811
   19SAPS   C35 2485   2.330  -0.015   3.570  0.1157  0.5982 -0.0871
   19SAPS   H5X 2486   2.268  -0.106   3.557  1.4261 -0.5221  1.1636
   19SAPS   H5Y 2487   2.270   0.071   3.606 -1.8361 -1.7864  2.8307
   19SAPS   C36 2488   2.449  -0.052   3.675  0.0306  0.3433  0.1006
   19SAPS   H6X 2489   2.535   0.015   3.655 -1.0099  1.3990 -1.0176
   19SAPS   H6Y 2490   2.475  -0.158   3.651 -1.2511 -0.5384  2.2709
   19SAPS   C37 2491   2.387  -0.061   3.816  0.1964 -0.2456  0.8695
   19SAPS   H7X 2492   2.323  -0.152   3.824 -0.3246  0.1493  1.2463
   19SAPS   H7Y 2493   2.326   0.026   3.848  0.8463  0.6694 -0.3112
   19SAPS   C38 2494   2.494  -0.076   3.929 -0.2857  0.3966 -0.1877
   19SAPS   H8X 2495   2.577  -0.003   3.926  1.3047 -1.3425 -0.1643
   19SAPS   H8Y 2496   2.542  -0.169   3.890  0.6499  0.1500  1.4358
   19SAPS   C39 2497   2.433  -0.081   4.066  0.1510  0.5995 -0.1115
   19SAPS   H9X 2498   2.365  -0.165   4.093  1.2183  0.2217  1.5629
   19SAPS   H9Y 2499   2.363   0.004   4.073 -0.0606  0.3085  1.9469
   19SAPS  C310 2500   2.541  -0.062   4.175  0.0576 -0.6019  0.1003
   19SAPS  H10X 2501   2.586   0.034   4.140  1.6460 -0.5154  2.1822
   19SAPS  H10Y 2502   2.620  -0.138   4.160 -1.2645 -1.7628 -1.3331
   19SAPS  C311 2503   2.494  -0.038   4.310  0.0967  0.3620 -0.2317
   19SAPS  H11X 2504   2.450  -0.124   4.365 -1.7511  2.4145  1.6963
   19SAPS  H11Y 2505   2.409   0.033   4.304  0.9028  1.2402 -1.9004
   19SAPS  C312 2506   2.598   0.018   4.408 -0.1907  0.2739  0.2284
   19SAPS  H12X 2507   2.631   0.119   4.373 -2.1091  0.2251 -1.9404
   19SAPS  H12Y 2508   2.686  -0.051   4.407 -0.1086  0.3750  0.4030
   19SAPS  C313 2509   2.546   0.028   4.548 -0.1286 -0.2059  0.0828
   19SAPS  H13X 2510   2.514  -0.071   4.587 -0.2741 -0.8852 -1.6424
   19SAPS  H13Y 2511   2.459   0.097   4.539  0.9321  1.0267 -0.8971
   19SAPS  C314 2512   2.650   0.086   4.642  0.3442 -0.3010 -0.7785
   19SAPS  H14X 2513   2.712   0.160   4.587  1.6549  1.0578  2.2474
   19SAPS  H14Y 2514   2.717   0.001   4.669  1.0921 -0.9015 -4.0586
   19SAPS  C315 2515   2.601   0.151   4.778 -0.2921  0.2741 -0.1301
   19SAPS  H15X 2516   2.552   0.074   4.842  1.6245  1.0697  2.4712
   19SAPS  H15Y 2517   2.516   0.221   4.760  0.1611  0.8127 -0.2048
   19SAPS  C316 2518   2.712   0.228   4.846 -0.4617 -0.2223  0.8255
   19SAPS  H16X 2519   2.795   0.158   4.868 -0.0734 -0.3155 -0.8160
   19SAPS  H16Y 2520   2.681   0.251   4.951  1.8338 -1.2587  1.8004
   19SAPS  C317 2521   2.757   0.354   4.781 -0.4232 -0.9491  0.1144
   19SAPS  H17X 2522   2.672   0.420   4.807  0.0068 -0.2344 -0.2752
   19SAPS  H17Y 2523   2.763   0.360   4.670 -2.8832  0.8826 -0.0221
   19SAPS  C318 2524   2.883   0.413   4.839 -0.3287  0.2071 -0.1465
   19SAPS  H18X 2525   2.971   0.346   4.827 -1.1868 -0.8258 -0.9150
   19SAPS  H18Y 2526   2.876   0.419   4.949 -0.6974  0.7384 -0.1946
   19SAPS  H18Z 2527   2.907   0.512   4.795 -2.3440  0.1544 -1.5132
   20SAPS     N 2528   4.174   2.326   2.580  0.3821  0.7583  0.4489
   20SAPS   HN1 2529   4.170   2.335   2.684 -1.9353  1.1328  0.3814
   20SAPS   HN2 2530   4.092   2.379   2.546 -0.1368 -1.3266 -1.8747
   20SAPS   HN3 2531   4.170   2.230   2.541  1.7420  1.4665 -1.5642
   20SAPS   C12 2532   4.304   2.391   2.553 -0.7689 -0.6833  0.8402
   20SAPS  H12A 2533   4.331   2.400   2.449 -0.1549  0.0690  1.0568
   20SAPS   C13 2534   4.329   2.538   2.591  0.0107 -0.2505 -0.2204
   20SAPS  O13A 2535   4.242   2.606   2.652  0.2446 -0.2502  0.2902
   20SAPS  O13B 2536   4.439   2.593   2.557 -0.2915  0.3119  0.4799
   20SAPS   C11 2537   4.415   2.302   2.620  0.3524 -0.1180 -0.1999
   20SAPS  H11A 2538   4.511   2.352   2.597  0.6054 -0.6949 -0.4094
   20SAPS  H11B 2539   4.413   2.200   2.575 -1.0663 -0.1149 -0.1875
   20SAPS     P 2540   4.435   2.163   2.846  0.3997 -0.3031 -0.2894
   20SAPS   O13 2541   4.312   2.084   2.874 -0.0104  0.0544  0.4031
   20SAPS   O14 2542   4.548   2.091   2.784 -0.1269 -0.0435  0.7411
   20SAPS   O12 2543   4.391   2.293   2.763 -0.0509  0.2150  0.2787
   20SAPS   O11 2544   4.488   2.229   2.976 -0.2490  0.3983 -0.5808
   20SAPS    C1 2545   4.381   2.299   3.054 -0.3796  0.1958 -0.0976
   20SAPS    HA 2546   4.370   2.403   3.017  1.6246  0.6339  0.4231
   20SAPS    HB 2547   4.281   2.249   3.048 -1.6271  1.9536  3.2579
   20SAPS    C2 2548   4.423   2.304   3.209  0.1336 -0.0682 -0.4832
   20SAPS    HS 2549   4.367   2.390   3.253 -0.4391  0.1825 -1.6554
   20SAPS   O21 2550   4.565   2.303   3.224 -0.7673 -0.8338 -0.5213
   20SAPS   C21 2551   4.610   2.432   3.211 -0.8151  0.4443 -0.1753
   20SAPS   O22 2552   4.545   2.528   3.181 -0.1846  0.1361  0.1380
   20SAPS   C22 2553   4.761   2.432   3.223 -0.1205  0.1987  0.3581
   20SAPS   H2R 2554   4.806   2.335   3.252  0.0850  0.4033  0.7258
   20SAPS   H2S 2555   4.807   2.462   3.127  0.4269 -2.0773 -0.1587
   20SAPS    C3 2556   4.376   2.176   3.270 -0.2536 -0.4124  0.5794
   20SAPS    HX 2557   4.412   2.088   3.214  0.2043  0.1228  0.0243
   20SAPS    HY 2558   4.266   2.181   3.255 -0.0146  1.0561 -1.0225
   20SAPS   O31 2559   4.395   2.174   3.409 -0.4243 -0.7019  0.2541
   20SAPS   C31 2560   4.492   2.090   3.452 -0.3091 -0.5364 -0.5938
   20SAPS   O32 2561   4.552   2.008   3.389 -0.5411  0.1327 -0.0802
   20SAPS   C32 2562   4.503   2.103   3.610 -0.4426 -0.0345  0.3891
   20SAPS   H2X 2563   4.412   2.061   3.657  0.1177 -0.6761  0.9153
   20SAPS   H2Y 2564   4.486   2.209   3.640 -0.4536 -0.4752  2.0327
   20SAPS   C23 2565   4.805   2.522   3.341  0.0959 -0.4996  0.2281
   20SAPS   H3R 2566   4.756   2.622   3.337  0.9969 -0.0356 -3.8611
   20SAPS   H3S 2567   4.911   2.542   3.313 -0.4996  0.5240 -1.4412
   20SAPS   C24 2568   4.821   2.459   3.481  0.3790 -0.1231  0.3800
   20SAPS   H4R 2569   4.868   2.541   3.540 -3.1148  1.6027  1.0559
   20SAPS   H4S 2570   4.885   2.369   3.467 -0.2874 -0.3660 -1.4442
   20SAPS   C25 2571   4.700   2.416   3.558 -0.4916 -0.0885 -0.2258
   20SAPS   H5R 2572   4.638   2.337   3.514  0.5269 -1.3192  0.4894
   20SAPS   C26 2573   4.653   2.468   3.675 -0.1158 -0.0452  0.1887
   20SAPS   H6R 2574   4.565   2.418   3.720  0.4564 -1.2153  0.0330
   20SAPS   C27 2575   4.735   2.562   3.763  0.3187  0.7574 -0.1141
   20SAPS   H7R 2576   4.841   2.530   3.756  0.5881  1.3072  1.1088
   20SAPS   H7S 2577   4.708   2.550   3.870 -0.4425  1.1639 -0.2514
   20SAPS   C28 2578   4.723   2.711   3.740 -0.7900 -0.0613  0.6705
   20SAPS   H8R 2579   4.674   2.742   3.647 -0.3771  1.2171  0.8654
   20SAPS   C29 2580   4.781   2.805   3.825 -0.5470 -0.2177  0.0399
   20SAPS   H9R 2581   4.775   2.913   3.803 -2.6583 -0.3179 -0.1264
   20SAPS  C210 2582   4.857   2.790   3.956  0.5172 -0.2993  0.3068
   20SAPS  H10R 2583   4.857   2.682   3.980  0.7963 -0.7057 -1.4022
   20SAPS  H10S 2584   4.804   2.854   4.030 -0.1770 -1.5708  0.9345
   20SAPS  C211 2585   5.004   2.832   3.949 -0.6326  0.9120  0.6351
   20SAPS  H11R 2586   5.036   2.846   3.845 -1.6658 -0.8732  0.0272
   20SAPS  C212 2587   5.094   2.858   4.043  0.8015 -0.3998  0.0951
   20SAPS  H12R 2588   5.202   2.866   4.027  0.8719  0.2624  0.8463
   20SAPS  C213 2589   5.062   2.857   4.188 -0.9812 -0.5649  0.4053
   20SAPS  H13R 2590   4.960   2.901   4.195 -1.1654 -0.6922 -1.1871
   20SAPS  H13S 2591   5.130   2.929   4.238 -3.1590  1.2287  0.9844
   20SAPS  C214 2592   5.066   2.714   4.232  0.1134  0.0697  0.2268
   20SAPS  H14R 2593   4.992   2.649   4.182 -1.6062  3.2188 -1.6596
   20SAPS  C215 2594   5.154   2.666   4.322  0.3716  0.0518  0.1680
   20SAPS  H15R 2595   5.141   2.559   4.342 -2.4628  0.2663 -0.0919
   20SAPS  C216 2596   5.262   2.731   4.393  0.6833 -0.2412 -0.7903
   20SAPS  H16R 2597   5.286   2.830   4.348 -0.4036  0.4947  0.1850
   20SAPS  H16S 2598   5.355   2.673   4.374  1.2353 -0.5561  2.2839
   20SAPS  C217 2599   5.247   2.730   4.541  0.4588  0.0994  0.5521
   20SAPS  H17R 2600   5.236   2.626   4.579  1.2621 -0.1902  0.0189
   20SAPS  H17S 2601   5.155   2.783   4.572  0.5370  0.9623 -0.6292
   20SAPS  C218 2602   5.363   2.793   4.612 -0.3128 -0.5722 -0.1256
   20SAPS  H18R 2603   5.365   2.898   4.576  0.1705 -0.6512 -0.3365
   20SAPS  H18S 2604   5.460   2.745   4.586 -0.5638 -0.7180 -0.8227
   20SAPS  C219 2605   5.352   2.786   4.767  0.4561 -0.5677  0.4191
   20SAPS  H19R 2606   5.442   2.823   4.820  3.1256 -3.3372 -1.8583
   20SAPS  H19S 2607   5.338   2.677   4.779 -0.9541 -0.5897 -1.0738
   20SAPS  C220 2608   5.227   2.856   4.827 -0.2380 -0.5038 -0.0129
   20SAPS  H20R 2609   5.135   2.800   4.803 -1.5570  1.8625 -0.8271
   20SAPS  H20S 2610   5.222   2.963   4.796  1.6713 -0.2888  0.2491
   20SAPS  H20T 2611   5.223   2.850   4.938 -1.5138 -0.2244 -0.0319
   20SAPS   C33 2612   4.618   2.026   3.672 -0.3073  0.3354  0.1519
   20SAPS   H3X 2613   4.710   2.066   3.624 -0.7653 -0.1027 -1.1346
   20SAPS   H3Y 2614   4.607   1.921   3.637  2.3203  0.2694 -0.7445
   20SAPS   C34 2615   4.629   2.041   3.827 -0.2555  0.5142 -0.0826
   20SAPS   H4X 2616   4.541   2.009   3.887 -0.1205  0.8180  0.2856
   20SAPS   H4Y 2617   4.631   2.151   3.843  1.4640  0.3376  1.2317
   20SAPS   C35 2618   4.750   1.970   3.904  0.4210  0.1821  0.6869
   20SAPS   H5X 2619   4.741   1.860   3.889  0.8246  0.2560 -0.1239
   20SAPS   H5Y 2620   4.742   1.980   4.014  1.5587 -2.2054  1.0563
   20SAPS   C36 2621   4.882   2.030   3.858 -0.7142  0.1354  0.8733
   20SAPS   H6X 2622   4.880   2.139   3.876  0.1178  0.5682 -1.3647
   20SAPS   H6Y 2623   4.900   2.019   3.749 -1.3961 -0.6068  0.8195
   20SAPS   C37 2624   5.001   1.971   3.933  0.6309 -0.5355 -0.4352
   20SAPS   H7X 2625   4.995   1.861   3.943 -1.4662 -0.3476  1.1059
   20SAPS   H7Y 2626   4.985   2.006   4.037 -2.9790 -2.8572 -0.0412
   20SAPS   C38 2627   5.145   2.034   3.910  0.2554  0.3314  0.1080
   20SAPS   H8X 2628   5.175   1.978   3.819  2.6777 -0.4105  1.2840
   20SAPS   H8Y 2629   5.220   2.006   3.986 -0.2524 -0.1724  0.4289
   20SAPS   C39 2630   5.142   2.189   3.904 -0.6321 -0.4776  0.1326
   20SAPS   H9X 2631   5.091   2.234   3.991  1.0541  2.3044 -0.2215
   20SAPS   H9Y 2632   5.089   2.223   3.813  1.2006  1.8204 -0.1628
   20SAPS  C310 2633   5.278   2.259   3.901 -0.1560 -0.5073  0.3654
   20SAPS  H10X 2634   5.338   2.228   3.812  2.0472 -0.5890  1.8282
   20SAPS  H10Y 2635   5.332   2.229   3.993 -1.4446 -1.2896  0.9023
   20SAPS  C311 2636   5.258   2.410   3.892  0.5902  0.4351 -0.0352
   20SAPS  H11X 2637   5.199   2.447   3.979  0.3769 -0.0979  0.0514
   20SAPS  H11Y 2638   5.196   2.432   3.802  1.0508  0.0625 -0.4505
   20SAPS  C312 2639   5.386   2.495   3.879  0.3205  0.8193 -0.7633
   20SAPS  H12X 2640   5.358   2.600   3.859  1.1369  1.0992 -0.4908
   20SAPS  H12Y 2641   5.443   2.458   3.792  0.8367  1.1115 -0.5506
   20SAPS  C313 2642   5.475   2.487   4.002  0.3384  0.3692  0.2370
   20SAPS  H13X 2643   5.493   2.379   4.021  1.1092 -0.1029 -2.5959
   20SAPS  H13Y 2644   5.425   2.539   4.086  0.7859  0.9234  0.1701
   20SAPS  C314 2645   5.611   2.570   3.996 -0.5859 -0.3211  0.7214
   20SAPS  H14X 2646   5.582   2.673   3.967  1.2195 -0.1176 -0.5948
   20SAPS  H14Y 2647   5.687   2.535   3.922  1.7571  0.0216  2.8457
   20SAPS  C315 2648   5.687   2.578   4.135  0.4094 -0.1823 -0.2049
   20SAPS  H15X 2649   5.613   2.634   4.196  2.2746  1.0048  1.0582
   20SAPS  H15Y 2650   5.773   2.648   4.125 -0.2544  1.3452  3.3517
   20SAPS  C316 2651   5.731   2.447   4.197 -0.0354 -0.1950  0.2102
   20SAPS  H16X 2652   5.820   2.414   4.140 -0.4102 -1.1856  0.1743
   20SAPS  H16Y 2653   5.656   2.368   4.175 -0.5270 -0.0019  1.1534
   20SAPS  C317 2654   5.750   2.463   4.345 -0.4337  0.2726 -0.4545
   20SAPS  H17X 2655   5.817   2.549   4.363  1.3381 -1.3558  1.1167
   20SAPS  H17Y 2656   5.802   2.370   4.377 -1.7414  0.2462  1.8020
   20SAPS  C318 2657   5.628   2.468   4.431  0.1168 -0.3337 -0.0651
   20SAPS  H18X 2658   5.583   2.367   4.432 -0.4489 -0.0908  1.4914
   20SAPS  H18Y 2659   5.543   2.530   4.396 -0.6778 -2.3376 -1.8286
   20SAPS  H18Z 2660   5.652   2.488   4.538 -0.1427 -0.3909  0.0041
   21CHL1    C3 2661   5.471   4.161   6.596  0.2490  0.7485 -0.8717
   21CHL1    H3 2662   5.502   4.056   6.617  0.7066  0.6061 -2.1954
   21CHL1    O3 2663   5.406   4.212   6.709  0.2681 -0.3805  0.2161
   21CHL1   H3' 2664   5.371   4.297   6.681  0.9987  0.1385  0.8246
   21CHL1    C4 2665   5.577   4.260   6.541  0.9500 -0.5593 -0.5214
   21CHL1   H4A 2666   5.526   4.356   6.518  0.4894 -1.1550 -2.1334
   21CHL1   H4B 2667   5.661   4.255   6.614  1.2132  0.4235 -0.7403
   21CHL1    C5 2668   5.637   4.234   6.408 -0.6029  0.8289 -0.5558
   21CHL1    C6 2669   5.770   4.223   6.392 -0.3479 -0.1057  0.5394
   21CHL1    H6 2670   5.832   4.250   6.479 -1.2988  1.4910  0.7770
   21CHL1    C7 2671   5.848   4.197   6.268  0.3331  0.2907 -0.2502
   21CHL1   H7A 2672   5.940   4.259   6.262  1.2302 -0.9868 -0.0899
   21CHL1   H7B 2673   5.877   4.090   6.258  1.3406  0.4571  0.7091
   21CHL1    C8 2674   5.752   4.227   6.146 -0.0368  0.4654  0.5674
   21CHL1    H8 2675   5.740   4.337   6.143  1.1843  0.6239  0.9826
   21CHL1   C14 2676   5.804   4.180   6.014 -1.0504  0.8471 -0.0192
   21CHL1   H14 2677   5.806   4.070   6.025 -2.6325  0.6058 -1.7154
   21CHL1   C15 2678   5.951   4.218   5.976  0.5757  0.4675  0.4449
   21CHL1  H15A 2679   5.970   4.325   5.995 -0.8513  0.9668 -0.7899
   21CHL1  H15B 2680   6.024   4.151   6.028 -2.2785 -1.2034  2.6154
   21CHL1   C16 2681   5.963   4.207   5.829  0.6629  0.2286  0.9441
   21CHL1  H16A 2682   5.990   4.310   5.797 -0.9665 -0.1282 -2.0023
   21CHL1  H16B 2683   6.041   4.138   5.789  0.0591  0.6000 -0.9909
   21CHL1   C17 2684   5.822   4.162   5.779  0.4801 -0.5598 -0.1684
   21CHL1   H17 2685   5.823   4.051   5.780 -1.3934 -0.6013  0.8542
   21CHL1   C13 2686   5.726   4.208   5.888  0.7260 -0.5100  0.4550
   21CHL1   C18 2687   5.702   4.368   5.882 -0.1544  0.1900  0.0955
   21CHL1  H18A 2688   5.794   4.430   5.885 -0.1027  0.1425 -0.4282
   21CHL1  H18B 2689   5.641   4.395   5.793  0.6530  1.2992 -0.1373
   21CHL1  H18C 2690   5.643   4.401   5.970 -0.6695  1.4568 -0.6973
   21CHL1   C12 2691   5.590   4.141   5.908 -0.6468 -0.5206  0.4818
   21CHL1  H12A 2692   5.529   4.170   5.820  0.9766 -0.0356 -0.5143
   21CHL1  H12B 2693   5.611   4.032   5.900 -0.5328 -0.4059 -1.0955
   21CHL1   C11 2694   5.514   4.170   6.038 -0.1206  0.2469  0.3051
   21CHL1  H11A 2695   5.460   4.266   6.023  3.5032  2.2172 -1.5033
   21CHL1  H11B 2696   5.430   4.099   6.053 -0.1873  0.0412 -0.9537
   21CHL1    C9 2697   5.608   4.164   6.164  0.4902 -0.0756 -1.0525
   21CHL1    H9 2698   5.617   4.055   6.181 -0.8743 -0.3521 -1.9694
   21CHL1   C10 2699   5.541   4.223   6.291  0.5480 -0.0357 -0.8368
   21CHL1   C19 2700   5.487   4.364   6.259  0.7707 -0.0618 -0.8504
   21CHL1  H19A 2701   5.408   4.345   6.184  2.2046 -0.0031 -2.4554
   21CHL1  H19B 2702   5.437   4.409   6.347  0.6599  1.1746 -1.5083
   21CHL1  H19C 2703   5.559   4.441   6.222 -1.0412  2.9648  1.4759
   21CHL1    C1 2704   5.426   4.127   6.348  0.4096  0.5280  0.8585
   21CHL1   H1A 2705   5.348   4.118   6.269  1.1921 -3.0837  0.3335
   21CHL1   H1B 2706   5.472   4.026   6.356 -0.2394  0.3107  2.0131
   21CHL1    C2 2707   5.364   4.158   6.483 -0.5220 -0.0218  0.1151
   21CHL1   H2A 2708   5.286   4.084   6.512 -1.2417  1.2152  1.4286
   21CHL1   H2B 2709   5.318   4.258   6.478 -0.2267  0.2585  2.1695
   21CHL1   C20 2710   5.795   4.210   5.637  0.0051  0.2711  0.0390
   21CHL1   H20 2711   5.808   4.321   5.637  1.0670  0.2053  2.7158
   21CHL1   C21 2712   5.666   4.160   5.583  0.3384 -0.4707  0.4233
   21CHL1  H21A 2713   5.660   4.051   5.603  0.2184 -0.3852  0.8657
   21CHL1  H21B 2714   5.650   4.179   5.475 -2.0676 -0.7070  0.6901
   21CHL1  H21C 2715   5.582   4.210   5.634  1.3118  1.1548  0.4989
   21CHL1   C22 2716   5.910   4.169   5.538  0.2423 -0.8509  0.1984
   21CHL1  H22A 2717   6.013   4.183   5.576  0.3222 -1.0850  0.0736
   21CHL1  H22B 2718   5.900   4.058   5.540 -1.0521 -0.7613 -0.0917
   21CHL1   C23 2719   5.922   4.242   5.405  0.0545 -0.1032 -0.1750
   21CHL1  H23A 2720   5.963   4.177   5.325 -2.2860 -0.5165 -1.1255
   21CHL1  H23B 2721   5.821   4.262   5.363  0.4217  1.1684 -0.4980
   21CHL1   C24 2722   5.995   4.373   5.419 -0.6656 -0.1995  0.3739
   21CHL1  H24A 2723   5.982   4.420   5.518 -1.0151 -1.0996  0.7725
   21CHL1  H24B 2724   6.105   4.367   5.403 -0.3434  1.9411  1.4994
   21CHL1   C25 2725   5.943   4.484   5.318  0.7845 -0.1221 -0.7218
   21CHL1   H25 2726   5.834   4.476   5.338  1.2172 -1.1381  1.5377
   21CHL1   C26 2727   5.994   4.627   5.352  0.0768 -1.0183 -0.3386
   21CHL1  H26A 2728   6.100   4.654   5.330  0.8411  0.9671  4.5398
   21CHL1  H26B 2729   5.928   4.697   5.295  1.2630  1.0786  0.7496
   21CHL1  H26C 2730   5.974   4.642   5.460  0.4136 -1.8689 -0.1506
   21CHL1   C27 2731   5.975   4.448   5.174  0.4255  0.2741 -0.4135
   21CHL1  H27A 2732   5.959   4.342   5.146  3.3631 -0.1105 -1.0079
   21CHL1  H27B 2733   5.931   4.517   5.099  1.0361 -0.3431 -1.3642
   21CHL1  H27C 2734   6.083   4.460   5.151  0.2503 -1.5284 -2.5275
   22CHL1    C3 2735   0.404   3.794   6.876  0.8710  0.1532 -0.1506
   22CHL1    H3 2736   0.408   3.725   6.789  0.6647  0.7483 -0.6350
   22CHL1    O3 2737   0.442   3.722   6.990 -0.2103  0.4807  0.2506
   22CHL1   H3' 2738   0.481   3.784   7.051 -0.8259 -1.4203  2.7144
   22CHL1    C4 2739   0.500   3.911   6.853 -0.2119 -0.2026 -0.3305
   22CHL1   H4A 2740   0.489   3.975   6.944 -0.2280 -0.1387 -0.3776
   22CHL1   H4B 2741   0.601   3.867   6.843 -0.3582 -0.5234 -0.4125
   22CHL1    C5 2742   0.461   3.991   6.731 -0.4732 -0.5369  0.2842
   22CHL1    C6 2743   0.548   4.016   6.636 -0.3957 -0.1181  0.6733
   22CHL1    H6 2744   0.654   3.986   6.638 -1.0428 -2.9002 -0.9231
   22CHL1    C7 2745   0.515   4.087   6.507  0.5973  0.2088  0.1491
   22CHL1   H7A 2746   0.601   4.152   6.479  1.4073 -0.6586  0.5797
   22CHL1   H7B 2747   0.510   4.009   6.428 -0.1600 -1.1400  1.4657
   22CHL1    C8 2748   0.395   4.174   6.525 -0.0368  0.8070  0.2709
   22CHL1    H8 2749   0.425   4.263   6.584 -1.3792  2.6480 -1.6669
   22CHL1   C14 2750   0.352   4.229   6.388  0.8741  0.2922  0.0771
   22CHL1   H14 2751   0.319   4.138   6.333 -0.4387  1.9148 -1.9602
   22CHL1   C15 2752   0.457   4.283   6.286  0.4734  0.2823  0.3174
   22CHL1  H15A 2753   0.530   4.362   6.315  0.0599  0.5070  0.7501
   22CHL1  H15B 2754   0.506   4.192   6.246  1.0443 -0.2471  2.1551
   22CHL1   C16 2755   0.360   4.339   6.175 -0.9529 -0.4750  0.0203
   22CHL1  H16A 2756   0.412   4.433   6.148  0.8356 -1.1236  1.0721
   22CHL1  H16B 2757   0.369   4.262   6.095 -1.2579 -0.5015  0.0087
   22CHL1   C17 2758   0.221   4.353   6.224 -0.9942 -0.1216 -0.4636
   22CHL1   H17 2759   0.173   4.263   6.182  0.8267 -0.9215 -0.9285
   22CHL1   C13 2760   0.229   4.316   6.378 -0.0710 -0.2644 -0.3657
   22CHL1   C18 2761   0.250   4.446   6.463 -0.2062  1.2087 -0.1543
   22CHL1  H18A 2762   0.337   4.496   6.415  0.4363  1.7177  1.4573
   22CHL1  H18B 2763   0.166   4.519   6.467 -0.6142  0.7537 -0.3376
   22CHL1  H18C 2764   0.289   4.428   6.566  0.4882  0.6841 -0.5000
   22CHL1   C12 2765   0.113   4.244   6.439 -0.4803 -0.0055 -0.1474
   22CHL1  H12A 2766   0.029   4.315   6.459 -1.0625 -1.2362  2.1217
   22CHL1  H12B 2767   0.086   4.172   6.360  0.9468 -0.4165 -0.2825
   22CHL1   C11 2768   0.148   4.181   6.575  0.3756 -0.4326  0.0923
   22CHL1  H11A 2769   0.147   4.264   6.649 -2.3117  1.3250 -1.7653
   22CHL1  H11B 2770   0.072   4.108   6.609 -1.8781  0.4433 -2.6758
   22CHL1    C9 2771   0.281   4.101   6.586 -0.3289  0.7423 -0.1977
   22CHL1    H9 2772   0.259   4.013   6.522  0.7235  1.1994 -1.2296
   22CHL1   C10 2773   0.312   4.036   6.725  0.1865  0.1132 -0.2662
   22CHL1   C19 2774   0.294   4.154   6.830  0.2777  0.4094 -0.4068
   22CHL1  H19A 2775   0.187   4.170   6.856  0.1294 -0.3304 -0.5364
   22CHL1  H19B 2776   0.355   4.132   6.920 -0.6092 -1.9885 -0.3210
   22CHL1  H19C 2777   0.327   4.252   6.788  1.1918  0.4808  0.4480
   22CHL1    C1 2778   0.223   3.913   6.759 -0.5271 -0.1688  0.4733
   22CHL1   H1A 2779   0.117   3.944   6.770 -1.0192 -1.7085  0.2144
   22CHL1   H1B 2780   0.215   3.848   6.670 -0.2798  1.5417 -0.8393
   22CHL1    C2 2781   0.253   3.836   6.892 -0.6497 -0.4022  0.1022
   22CHL1   H2A 2782   0.189   3.745   6.894  0.0180 -1.0454 -2.7475
   22CHL1   H2B 2783   0.246   3.913   6.972  2.9983  1.6402 -1.2979
   22CHL1   C20 2784   0.144   4.477   6.180  0.1630  0.0534  0.5217
   22CHL1   H20 2785   0.181   4.559   6.245 -2.4948 -0.2423  2.5605
   22CHL1   C21 2786  -0.008   4.468   6.202  0.5706 -0.0156  0.1959
   22CHL1  H21A 2787  -0.069   4.556   6.173 -0.2604 -0.9766 -1.1096
   22CHL1  H21B 2788  -0.019   4.459   6.312  1.7246  3.9198  0.7827
   22CHL1  H21C 2789  -0.046   4.371   6.164 -0.3906 -0.5103  2.2764
   22CHL1   C22 2790   0.163   4.528   6.035 -0.2171  0.2928 -0.6106
   22CHL1  H22A 2791   0.112   4.624   6.012 -1.2720 -0.7223 -2.8183
   22CHL1  H22B 2792   0.273   4.530   6.018 -0.1798  1.9006 -0.3034
   22CHL1   C23 2793   0.104   4.428   5.928 -0.5066  0.1377 -0.4364
   22CHL1  H23A 2794   0.152   4.332   5.955  2.4507  0.8742 -2.4487
   22CHL1  H23B 2795  -0.005   4.410   5.935 -0.7832  2.1026  0.9630
   22CHL1   C24 2796   0.127   4.460   5.782  0.6755 -0.5526  0.1667
   22CHL1  H24A 2797   0.212   4.529   5.761 -0.1138  1.0859  2.0559
   22CHL1  H24B 2798   0.139   4.364   5.728 -2.1346 -2.1225  2.1262
   22CHL1   C25 2799   0.005   4.524   5.706 -0.1333 -0.4099  0.0431
   22CHL1   H25 2800  -0.089   4.466   5.722 -0.3969  0.2308  0.8667
   22CHL1   C26 2801  -0.013   4.673   5.756  0.0568 -0.4837 -0.8264
   22CHL1  H26A 2802  -0.087   4.730   5.695  1.2399  2.2470  0.1325
   22CHL1  H26B 2803  -0.039   4.675   5.865  1.0452  0.8441 -0.5865
   22CHL1  H26C 2804   0.086   4.723   5.748  0.8254 -1.6753  0.7219
   22CHL1   C27 2805   0.030   4.533   5.558  0.2169  0.0699 -0.0089
   22CHL1  H27A 2806   0.114   4.600   5.529 -0.5195  0.4414 -1.4008
   22CHL1  H27B 2807   0.058   4.430   5.530 -1.1225 -0.2555 -0.2208
   22CHL1  H27C 2808  -0.064   4.564   5.506 -0.0631 -0.6330  0.0724
   23CHL1    C3 2809   3.881   2.761   6.072 -0.7606 -0.2764  0.1622
   23CHL1    H3 2810   3.806   2.679   6.073 -1.7573  0.5487 -1.7685
   23CHL1    O3 2811   3.925   2.777   6.207  0.1529  0.4761 -0.2782
   23CHL1   H3' 2812   3.943   2.684   6.225 -1.1688 -0.1596 -1.9270
   23CHL1    C4 2813   3.997   2.713   5.979  0.1110  0.4414 -0.6049
   23CHL1   H4A 2814   4.077   2.787   5.999 -1.3265  1.5898  1.2405
   23CHL1   H4B 2815   4.037   2.614   6.011 -0.3348  0.9024  1.5764
   23CHL1    C5 2816   3.947   2.713   5.836  0.1982 -0.1737 -0.2292
   23CHL1    C6 2817   3.966   2.599   5.764  0.0900 -1.0072 -0.6086
   23CHL1    H6 2818   4.002   2.506   5.810 -0.3617 -1.1979 -0.6335
   23CHL1    C7 2819   3.922   2.597   5.622  0.7134 -0.4564  0.5384
   23CHL1   H7A 2820   3.985   2.530   5.558 -2.3315 -2.8343 -0.1885
   23CHL1   H7B 2821   3.823   2.548   5.610  0.5022 -0.0996  0.8194
   23CHL1    C8 2822   3.906   2.732   5.557  0.4655  0.1940 -0.1012
   23CHL1    H8 2823   4.008   2.772   5.537  0.0828  0.8098 -0.8835
   23CHL1   C14 2824   3.833   2.722   5.421  0.2283  0.1627 -0.2048
   23CHL1   H14 2825   3.725   2.699   5.438  0.6840 -0.8262  1.6759
   23CHL1   C15 2826   3.879   2.612   5.316  0.3664  0.0320  0.4341
   23CHL1  H15A 2827   3.988   2.589   5.309  0.3270 -0.0706  0.0964
   23CHL1  H15B 2828   3.824   2.517   5.336  0.2353 -0.4125 -1.7505
   23CHL1   C16 2829   3.831   2.663   5.175  0.7151  0.3801  0.3436
   23CHL1  H16A 2830   3.920   2.691   5.116  0.0106 -0.9815 -1.4556
   23CHL1  H16B 2831   3.767   2.587   5.125  0.2655  1.7381 -1.2377
   23CHL1   C17 2832   3.754   2.796   5.217 -0.1422  0.6318  0.2951
   23CHL1   H17 2833   3.653   2.766   5.253 -0.3628  2.0758  0.9501
   23CHL1   C13 2834   3.825   2.846   5.344 -0.7337 -0.4897  0.4857
   23CHL1   C18 2835   3.975   2.894   5.316  0.9042 -0.0350  0.3288
   23CHL1  H18A 2836   4.030   2.817   5.258  1.5296 -0.9255  2.0225
   23CHL1  H18B 2837   3.962   2.992   5.266 -0.1837 -0.4489 -0.2287
   23CHL1  H18C 2838   4.031   2.914   5.410 -1.7668  0.6141  1.9077
   23CHL1   C12 2839   3.749   2.954   5.423  0.0519  0.9680 -1.0339
   23CHL1  H12A 2840   3.745   3.052   5.370 -0.2651  1.1464 -0.6829
   23CHL1  H12B 2841   3.644   2.919   5.429  0.1931  0.7094  0.0986
   23CHL1   C11 2842   3.805   2.964   5.568 -0.0026  0.2510  0.5262
   23CHL1  H11A 2843   3.897   3.027   5.575 -0.2931  0.7423  0.0616
   23CHL1  H11B 2844   3.735   3.016   5.637  2.2902 -0.3543  3.4971
   23CHL1    C9 2845   3.829   2.826   5.640  0.2727 -0.3659 -0.1949
   23CHL1    H9 2846   3.727   2.787   5.660  0.3955 -0.9759 -0.7289
   23CHL1   C10 2847   3.889   2.840   5.785  0.2791  0.4888  0.3834
   23CHL1   C19 2848   4.010   2.941   5.778  0.3192 -0.5116  0.2922
   23CHL1  H19A 2849   4.065   2.961   5.872  2.3974  0.5919 -1.1029
   23CHL1  H19B 2850   4.089   2.912   5.706  0.7948 -2.8618  1.6747
   23CHL1  H19C 2851   3.976   3.044   5.756 -0.1369 -1.0244 -1.6324
   23CHL1    C1 2852   3.781   2.891   5.890 -0.3211 -0.6862  0.8157
   23CHL1   H1A 2853   3.764   2.996   5.859 -0.4732 -0.9079  0.1240
   23CHL1   H1B 2854   3.684   2.836   5.880 -0.8589  0.4406 -0.6071
   23CHL1    C2 2855   3.826   2.898   6.031 -0.2343  0.0179 -0.3731
   23CHL1   H2A 2856   3.741   2.939   6.090 -0.1478 -0.9161  0.4332
   23CHL1   H2B 2857   3.907   2.974   6.035  0.1403 -0.3832 -0.3214
   23CHL1   C20 2858   3.740   2.896   5.104  0.3025 -0.6594  0.6240
   23CHL1   H20 2859   3.724   2.995   5.151  0.1610 -0.8965  1.0874
   23CHL1   C21 2860   3.606   2.867   5.037  0.5049  0.0509  0.5514
   23CHL1  H21A 2861   3.574   2.941   4.961  1.6597  1.3638  1.3103
   23CHL1  H21B 2862   3.525   2.882   5.112 -0.5965  4.6017 -1.1881
   23CHL1  H21C 2863   3.606   2.764   4.996 -1.9667  0.2959 -0.2624
   23CHL1   C22 2864   3.858   2.900   5.004  0.3790  0.2665  0.2027
   23CHL1  H22A 2865   3.953   2.912   5.059  0.0428  2.2697  0.4500
   23CHL1  H22B 2866   3.880   2.817   4.935 -1.4637  0.9568 -1.3121
   23CHL1   C23 2867   3.857   3.018   4.900  1.1931  0.5174 -0.5716
   23CHL1  H23A 2868   3.757   3.010   4.852  0.8108 -0.3555  0.3201
   23CHL1  H23B 2869   3.841   3.113   4.956 -0.6437 -1.1549  2.0072
   23CHL1   C24 2870   3.977   3.034   4.806 -0.0490 -0.1568 -0.5469
   23CHL1  H24A 2871   3.989   2.946   4.740  1.1432 -1.2921  1.0843
   23CHL1  H24B 2872   3.957   3.128   4.751 -0.2963  1.1913  1.7006
   23CHL1   C25 2873   4.118   3.054   4.881  0.4229  1.2360  0.8049
   23CHL1   H25 2874   4.147   2.956   4.924  0.6177  0.2858 -1.3674
   23CHL1   C26 2875   4.219   3.073   4.763 -1.1721  0.7767  0.4194
   23CHL1  H26A 2876   4.323   3.076   4.801  1.1906  3.5189 -5.2137
   23CHL1  H26B 2877   4.208   2.983   4.699  2.5305  1.3736 -1.2638
   23CHL1  H26C 2878   4.199   3.167   4.708  0.6735 -0.0601 -1.8541
   23CHL1   C27 2879   4.124   3.177   4.976 -1.0445  0.5968  0.1509
   23CHL1  H27A 2880   4.033   3.175   5.038  0.2502  2.2577  2.2368
   23CHL1  H27B 2881   4.208   3.164   5.048 -0.6712  1.8074 -0.0354
   23CHL1  H27C 2882   4.134   3.277   4.928  0.8955 -0.0768 -0.9987
   24CHL1    C3 2883   0.928   4.878   6.781 -0.3883 -0.2925  0.1859
   24CHL1    H3 2884   0.906   4.769   6.790  3.9307 -1.1937  2.6021
   24CHL1    O3 2885   0.945   4.907   6.918 -0.0612  0.5799 -0.2544
   24CHL1   H3' 2886   0.996   4.837   6.959  0.5183  1.2686  0.2323
   24CHL1    C4 2887   1.055   4.905   6.713 -0.1064  0.6428 -0.3204
   24CHL1   H4A 2888   1.090   5.009   6.728  0.1519  0.6625 -0.9926
   24CHL1   H4B 2889   1.127   4.833   6.758 -0.7821 -0.0411 -0.3297
   24CHL1    C5 2890   1.041   4.880   6.567 -0.1389 -0.2164 -0.6017
   24CHL1    C6 2891   1.116   4.790   6.494  0.2035 -0.2201  0.4442
   24CHL1    H6 2892   1.197   4.732   6.540  2.0757  0.2509 -2.0709
   24CHL1    C7 2893   1.096   4.774   6.345 -0.3345 -1.0054  0.2127
   24CHL1   H7A 2894   1.198   4.770   6.302  0.2039  2.2502  0.9661
   24CHL1   H7B 2895   1.047   4.681   6.308 -2.9008 -0.2781  1.5090
   24CHL1    C8 2896   1.025   4.892   6.275 -0.2847  1.0251 -0.4464
   24CHL1    H8 2897   1.088   4.982   6.283  1.2744 -0.0488 -0.1668
   24CHL1   C14 2898   0.990   4.857   6.133 -0.5316  0.0502  0.4420
   24CHL1   H14 2899   0.933   4.761   6.134 -1.2011  0.4097  3.1165
   24CHL1   C15 2900   1.123   4.826   6.044  0.0038  0.1134  0.5702
   24CHL1  H15A 2901   1.201   4.897   6.079 -1.1824  2.5245 -1.3797
   24CHL1  H15B 2902   1.150   4.720   6.063 -1.7921 -0.0751  2.4814
   24CHL1   C16 2903   1.079   4.857   5.898  0.0608 -0.4765  0.1681
   24CHL1  H16A 2904   1.141   4.941   5.863  0.8165 -0.5195  1.3664
   24CHL1  H16B 2905   1.100   4.769   5.833  1.5098 -0.0076 -0.0076
   24CHL1   C17 2906   0.930   4.905   5.905 -0.1421  1.1149  0.0235
   24CHL1   H17 2907   0.866   4.815   5.918 -1.1267  1.8425  0.2881
   24CHL1   C13 2908   0.919   4.964   6.052 -0.1263 -0.8315 -0.3985
   24CHL1   C18 2909   1.000   5.105   6.059 -0.0262  0.1249 -0.4104
   24CHL1  H18A 2910   1.008   5.139   6.164 -1.0596 -1.0217  0.0666
   24CHL1  H18B 2911   1.104   5.094   6.019 -0.3076 -1.0372 -0.8599
   24CHL1  H18C 2912   0.945   5.177   5.995  0.7353  0.1805 -1.0212
   24CHL1   C12 2913   0.782   4.987   6.113 -0.0065 -1.1184 -0.5573
   24CHL1  H12A 2914   0.728   5.075   6.072 -0.3686 -1.0568  0.0277
   24CHL1  H12B 2915   0.709   4.904   6.097 -2.6457  0.7576  0.8415
   24CHL1   C11 2916   0.798   5.016   6.265 -0.1272 -0.1262 -0.4122
   24CHL1  H11A 2917   0.835   5.120   6.269 -1.6619  0.4646 -0.8121
   24CHL1  H11B 2918   0.700   5.018   6.317 -0.1214  2.1798 -0.3785
   24CHL1    C9 2919   0.892   4.918   6.350  0.4033 -0.7097  0.2753
   24CHL1    H9 2920   0.842   4.820   6.357  2.1522 -1.5312  2.3629
   24CHL1   C10 2921   0.922   4.958   6.504 -0.0769 -0.2148  0.3810
   24CHL1   C19 2922   0.961   5.109   6.511 -0.2799 -0.1114  0.2689
   24CHL1  H19A 2923   1.053   5.126   6.451 -1.0092  1.4419 -0.4723
   24CHL1  H19B 2924   0.873   5.166   6.473 -1.2038 -0.3131  1.9898
   24CHL1  H19C 2925   0.980   5.142   6.616 -0.3865 -0.0171  0.2591
   24CHL1    C1 2926   0.786   4.942   6.577 -0.1756 -0.3928 -0.6130
   24CHL1   H1A 2927   0.708   5.018   6.552  0.5365  0.5209 -0.1408
   24CHL1   H1B 2928   0.754   4.837   6.560 -2.2817 -0.0740  0.8317
   24CHL1    C2 2929   0.812   4.962   6.730  1.0678  0.6618 -0.5316
   24CHL1   H2A 2930   0.716   4.952   6.785  0.5950 -2.5035 -1.7487
   24CHL1   H2B 2931   0.844   5.067   6.749 -1.1961  1.1239  1.1278
   24CHL1   C20 2932   0.889   4.987   5.787  0.1458  0.9381 -0.2794
   24CHL1   H20 2933   0.906   5.096   5.790 -1.1103  1.1415  0.2683
   24CHL1   C21 2934   0.737   4.984   5.780 -0.3981  0.6200 -0.9448
   24CHL1  H21A 2935   0.701   4.882   5.805  0.1327  0.4234 -0.9636
   24CHL1  H21B 2936   0.700   5.007   5.678  0.2959  0.5355 -1.2250
   24CHL1  H21C 2937   0.686   5.058   5.845  1.7184  0.0211  1.5345
   24CHL1   C22 2938   0.943   4.933   5.653 -0.2695  0.4135 -0.1167
   24CHL1  H22A 2939   0.903   4.999   5.573  0.2262  0.7148 -0.1233
   24CHL1  H22B 2940   1.053   4.941   5.643 -0.3899  2.1721 -0.2617
   24CHL1   C23 2941   0.888   4.801   5.612  0.9177 -0.6400  0.9393
   24CHL1  H23A 2942   0.919   4.729   5.691  0.0812 -0.1879  1.6939
   24CHL1  H23B 2943   0.778   4.814   5.616  1.1364  1.3590  1.2530
   24CHL1   C24 2944   0.940   4.767   5.468  0.0475 -0.1350 -1.3919
   24CHL1  H24A 2945   0.920   4.856   5.404  3.5883 -0.5629 -3.3418
   24CHL1  H24B 2946   1.047   4.749   5.489 -0.1844  1.6920  2.1190
   24CHL1   C25 2947   0.872   4.645   5.401 -0.1037 -0.0249  0.1993
   24CHL1   H25 2948   0.765   4.673   5.411  0.2357  1.8262 -0.9296
   24CHL1   C26 2949   0.895   4.637   5.253  0.5765  0.2588  0.0653
   24CHL1  H26A 2950   0.820   4.580   5.193  0.5993  0.3424 -0.0429
   24CHL1  H26B 2951   0.880   4.733   5.198 -0.1224  0.2275  0.1935
   24CHL1  H26C 2952   0.994   4.594   5.228  0.2285 -0.8928  0.5833
   24CHL1   C27 2953   0.903   4.510   5.474  0.4318 -0.4404  0.5235
   24CHL1  H27A 2954   1.010   4.481   5.482  0.1424 -1.4374  1.0067
   24CHL1  H27B 2955   0.854   4.504   5.573 -2.7074  0.6485 -0.8230
   24CHL1  H27C 2956   0.856   4.420   5.427 -0.8028  1.3259 -1.8846
   25CHL1    C3 2957   4.072   5.523   6.706 -0.1734  0.3715  0.6716
   25CHL1    H3 2958   4.153   5.457   6.667 -0.1047  1.2133 -0.6707
   25CHL1    O3 2959   4.091   5.537   6.848  0.0828  0.3752  0.2266
   25CHL1   H3' 2960   4.172   5.587   6.860 -0.7342  1.9470 -0.5295
   25CHL1    C4 2961   4.079   5.667   6.637 -0.2350  0.3958 -0.7549
   25CHL1   H4A 2962   3.995   5.730   6.674  0.3179  0.3134  0.7232
   25CHL1   H4B 2963   4.169   5.727   6.662 -0.2772  0.1936 -0.0879
   25CHL1    C5 2964   4.062   5.651   6.492  0.3898 -0.3101 -0.3379
   25CHL1    C6 2965   4.150   5.705   6.401 -0.7587  0.8909 -0.7996
   25CHL1    H6 2966   4.234   5.768   6.434 -0.5272  0.2095 -0.0659
   25CHL1    C7 2967   4.136   5.703   6.248  0.4399 -0.0310 -0.2071
   25CHL1   H7A 2968   4.159   5.802   6.204 -1.6915  0.8570  0.5609
   25CHL1   H7B 2969   4.214   5.640   6.200 -0.2954 -0.7141 -0.5121
   25CHL1    C8 2970   3.993   5.661   6.213 -0.3430  0.4820  1.5185
   25CHL1    H8 2971   3.929   5.750   6.230  1.3271  1.5774  2.3197
   25CHL1   C14 2972   3.976   5.629   6.064 -0.0184  0.1198 -0.4014
   25CHL1   H14 2973   4.033   5.536   6.042 -1.4303 -0.6717 -0.8006
   25CHL1   C15 2974   4.030   5.723   5.959  0.2442 -0.1491 -0.4779
   25CHL1  H15A 2975   4.007   5.830   5.979  1.0218  0.1602 -1.1996
   25CHL1  H15B 2976   4.141   5.716   5.959  0.4429  1.9489  1.0744
   25CHL1   C16 2977   3.964   5.681   5.827  0.4636 -0.7712 -0.3356
   25CHL1  H16A 2978   3.911   5.767   5.783 -1.0728 -0.4443  1.9796
   25CHL1  H16B 2979   4.043   5.636   5.763  0.1280 -0.9991 -0.5874
   25CHL1   C17 2980   3.853   5.569   5.859 -0.6629  0.0934 -0.2450
   25CHL1   H17 2981   3.896   5.468   5.845  1.1341  0.8104 -0.2150
   25CHL1   C13 2982   3.836   5.582   6.013  0.9452  0.8768 -0.4897
   25CHL1   C18 2983   3.736   5.697   6.041 -0.1425  0.6232 -0.3087
   25CHL1  H18A 2984   3.631   5.666   6.025  0.1979 -1.7136  1.4056
   25CHL1  H18B 2985   3.758   5.744   6.139  1.7264 -1.2256  0.2299
   25CHL1  H18C 2986   3.745   5.773   5.961  0.1454 -0.2339 -1.1144
   25CHL1   C12 2987   3.801   5.453   6.089  0.0256 -0.1292  0.6893
   25CHL1  H12A 2988   3.695   5.431   6.066 -1.1851  3.4713  2.1056
   25CHL1  H12B 2989   3.876   5.371   6.081  0.5928  0.4346  0.1282
   25CHL1   C11 2990   3.806   5.484   6.241  0.6487 -0.7891 -0.6639
   25CHL1  H11A 2991   3.731   5.564   6.260  0.0033 -1.3402 -0.8561
   25CHL1  H11B 2992   3.765   5.397   6.296  2.1901  0.4876  2.7763
   25CHL1    C9 2993   3.944   5.542   6.296  0.2853  0.5970  0.5841
   25CHL1    H9 2994   4.010   5.453   6.283  0.5106  0.9810 -1.1926
   25CHL1   C10 2995   3.935   5.570   6.447 -0.8373 -0.8348  0.4292
   25CHL1   C19 2996   3.814   5.658   6.481 -0.3952  0.3721  0.1176
   25CHL1  H19A 2997   3.800   5.698   6.584  1.2054  2.0644 -0.2736
   25CHL1  H19B 2998   3.816   5.746   6.414 -0.4443 -0.3638 -0.8631
   25CHL1  H19C 2999   3.717   5.605   6.466 -0.2104  0.1538 -0.3052
   25CHL1    C1 3000   3.917   5.440   6.527 -0.1524  0.2145 -0.4779
   25CHL1   H1A 3001   3.811   5.412   6.512 -0.3723 -0.0289  1.2907
   25CHL1   H1B 3002   3.994   5.364   6.500  1.7986  1.8107  0.2734
   25CHL1    C2 3003   3.944   5.444   6.681  0.0908  0.7790 -0.5005
   25CHL1   H2A 3004   3.936   5.347   6.736 -0.4055  1.2910  0.3573
   25CHL1   H2B 3005   3.861   5.504   6.723 -2.9686 -2.3319 -1.6152
   25CHL1   C20 3006   3.733   5.587   5.767  0.1185 -0.2773  0.5138
   25CHL1   H20 3007   3.689   5.688   5.783 -0.9734 -0.4999 -0.8643
   25CHL1   C21 3008   3.617   5.489   5.783 -1.0477 -0.3090  0.3466
   25CHL1  H21A 3009   3.576   5.477   5.885 -1.7464  0.3768  0.1520
   25CHL1  H21B 3010   3.644   5.388   5.743 -0.1839  0.4534 -1.0624
   25CHL1  H21C 3011   3.536   5.528   5.719  0.7289  2.4793 -0.3561
   25CHL1   C22 3012   3.755   5.577   5.613  0.2925 -0.3860  0.1055
   25CHL1  H22A 3013   3.658   5.587   5.559 -1.1082 -2.3995  2.0678
   25CHL1  H22B 3014   3.820   5.658   5.574  2.5158 -2.9122 -1.8070
   25CHL1   C23 3015   3.822   5.442   5.566  1.2495  0.4722 -0.6156
   25CHL1  H23A 3016   3.927   5.438   5.602  0.7787 -2.1971  0.7255
   25CHL1  H23B 3017   3.766   5.356   5.607 -0.6310  0.9934 -1.9472
   25CHL1   C24 3018   3.825   5.426   5.414 -0.7914 -0.2474 -0.5266
   25CHL1  H24A 3019   3.861   5.323   5.394 -0.5872  0.2632 -3.0296
   25CHL1  H24B 3020   3.716   5.427   5.389 -0.7676  0.1207 -0.6198
   25CHL1   C25 3021   3.903   5.524   5.327  0.4170 -0.7799 -0.7808
   25CHL1   H25 3022   3.868   5.629   5.342  1.7610 -0.3462 -0.4894
   25CHL1   C26 3023   4.056   5.518   5.351  0.6115  0.0358 -0.3391
   25CHL1  H26A 3024   4.107   5.578   5.272 -0.9216 -1.5767 -2.6930
   25CHL1  H26B 3025   4.075   5.571   5.447 -1.3722  0.2411 -0.0158
   25CHL1  H26C 3026   4.100   5.416   5.354  0.8658  0.1496  2.4895
   25CHL1   C27 3027   3.871   5.496   5.179 -0.2194  0.1624 -0.3388
   25CHL1  H27A 3028   3.766   5.522   5.151 -0.4035 -0.5514 -0.3467
   25CHL1  H27B 3029   3.938   5.547   5.107 -0.7422 -1.0813 -1.7655
   25CHL1  H27C 3030   3.883   5.387   5.161  0.6102  0.2178 -0.1440
   26CHL1    C3 3031   0.930   6.009   6.894 -0.4980  0.2797 -0.4881
   26CHL1    H3 3032   0.869   6.100   6.906 -1.1951 -0.1063 -1.0429
   26CHL1    O3 3033   0.977   5.966   7.022  0.6077 -0.0208  0.0160
   26CHL1   H3' 3034   1.023   5.883   7.008  0.4344 -0.2739  0.9357
   26CHL1    C4 3035   0.838   5.892   6.837  0.2982  0.1892  0.1409
   26CHL1   H4A 3036   0.896   5.798   6.849 -1.7196 -1.2091 -0.5251
   26CHL1   H4B 3037   0.752   5.884   6.907 -1.4850  0.1451 -1.9520
   26CHL1    C5 3038   0.796   5.893   6.691 -0.8126  0.3418 -0.5057
   26CHL1    C6 3039   0.669   5.892   6.649 -0.7406 -0.1301  0.2661
   26CHL1    H6 3040   0.581   5.888   6.715 -1.2909  1.4691 -0.3024
   26CHL1    C7 3041   0.642   5.904   6.500  0.7018  0.3242  0.1000
   26CHL1   H7A 3042   0.557   5.842   6.466  0.7686  1.8676 -3.3153
   26CHL1   H7B 3043   0.607   6.008   6.478 -0.0341 -0.1118 -0.8973
   26CHL1    C8 3044   0.765   5.875   6.410 -0.3109  0.5177  0.3759
   26CHL1    H8 3045   0.782   5.767   6.428 -3.6748 -0.4457 -1.3233
   26CHL1   C14 3046   0.740   5.901   6.265 -1.0609  0.5590  0.4280
   26CHL1   H14 3047   0.714   6.009   6.263 -0.3278  0.7222 -1.0338
   26CHL1   C15 3048   0.614   5.836   6.207  0.8384 -0.2837  0.2288
   26CHL1  H15A 3049   0.607   5.727   6.226 -1.3192 -0.0137  1.3026
   26CHL1  H15B 3050   0.517   5.884   6.232  1.4110  1.0758 -0.0972
   26CHL1   C16 3051   0.651   5.846   6.057 -0.3716 -0.0384 -0.1763
   26CHL1  H16A 3052   0.634   5.746   6.013  3.3220 -0.7373 -0.3166
   26CHL1  H16B 3053   0.592   5.924   6.004  0.1478 -0.4442 -1.3763
   26CHL1   C17 3054   0.792   5.896   6.039 -0.0736  0.5837 -0.4489
   26CHL1   H17 3055   0.784   6.007   6.030 -2.4520  0.4650 -0.4586
   26CHL1   C13 3056   0.859   5.877   6.172  0.1972  0.3194 -0.5816
   26CHL1   C18 3057   0.904   5.734   6.186  0.0154 -1.1105  0.2137
   26CHL1  H18A 3058   0.986   5.707   6.116  0.4879 -0.2368  0.4228
   26CHL1  H18B 3059   0.944   5.719   6.288 -2.1327 -1.1042  1.1171
   26CHL1  H18C 3060   0.820   5.662   6.173 -1.0920  0.0064  0.9156
   26CHL1   C12 3061   0.962   5.984   6.206  0.0567  0.4750 -0.6772
   26CHL1  H12A 3062   1.049   5.978   6.138  2.1286  2.2721  1.6102
   26CHL1  H12B 3063   0.907   6.080   6.191  0.4926  1.3846  2.7413
   26CHL1   C11 3064   1.004   5.982   6.354  0.5199 -0.0788 -0.5020
   26CHL1  H11A 3065   1.081   5.905   6.371  0.6034  0.1539  0.2314
   26CHL1  H11B 3066   1.061   6.070   6.390 -1.5728  0.5259  1.6345
   26CHL1    C9 3067   0.882   5.963   6.454  0.4316 -0.6632  0.1880
   26CHL1    H9 3068   0.846   6.068   6.461  0.1887 -0.8619  2.6624
   26CHL1   C10 3069   0.919   5.918   6.599 -0.0499 -0.1119 -1.1642
   26CHL1   C19 3070   1.023   5.802   6.589  0.7314 -0.6439  0.1352
   26CHL1  H19A 3071   1.039   5.758   6.690  0.6077 -0.9974  0.0038
   26CHL1  H19B 3072   0.978   5.716   6.533  1.7816 -1.7461  0.9343
   26CHL1  H19C 3073   1.118   5.833   6.541 -0.4325  2.1713 -0.5463
   26CHL1    C1 3074   1.007   6.037   6.662  0.2225 -0.2770  0.8030
   26CHL1   H1A 3075   1.090   6.057   6.592  0.1803 -1.6718  0.3280
   26CHL1   H1B 3076   0.936   6.122   6.647  0.1750 -0.4646 -0.1173
   26CHL1    C2 3077   1.049   6.025   6.807  0.2260 -0.3348 -0.0150
   26CHL1   H2A 3078   1.102   6.119   6.832 -1.9893  0.0877  4.0202
   26CHL1   H2B 3079   1.122   5.943   6.826  1.2399  0.3319 -0.9240
   26CHL1   C20 3080   0.851   5.843   5.912 -0.2213  0.4068  0.2240
   26CHL1   H20 3081   0.845   5.732   5.921  0.1441  0.4002  0.4173
   26CHL1   C21 3082   0.995   5.890   5.890  0.6581  0.1609 -0.0507
   26CHL1  H21A 3083   1.001   5.999   5.912  0.5327  0.2130 -0.2698
   26CHL1  H21B 3084   1.046   5.868   5.794  0.1436 -0.7564 -0.1275
   26CHL1  H21C 3085   1.053   5.828   5.961 -1.1082  0.5125  1.7757
   26CHL1   C22 3086   0.762   5.878   5.790 -0.0162  0.4890 -0.0937
   26CHL1  H22A 3087   0.674   5.810   5.801 -0.7146  1.1972 -1.1528
   26CHL1  H22B 3088   0.738   5.986   5.794 -0.0436  0.5149 -0.8671
   26CHL1   C23 3089   0.828   5.841   5.654 -0.3461 -0.7958  0.7086
   26CHL1  H23A 3090   0.913   5.912   5.640 -0.6331 -0.3668  1.0909
   26CHL1  H23B 3091   0.867   5.737   5.658  0.4454 -0.4714  2.0090
   26CHL1   C24 3092   0.729   5.855   5.535  0.5731  0.5531 -0.8438
   26CHL1  H24A 3093   0.646   5.781   5.541 -1.5721  2.7773 -1.1074
   26CHL1  H24B 3094   0.677   5.953   5.548  3.3310  1.8045  1.7610
   26CHL1   C25 3095   0.781   5.846   5.389 -0.8111  0.2037  0.1731
   26CHL1   H25 3096   0.856   5.926   5.373  0.7818 -1.1842  0.5035
   26CHL1   C26 3097   0.846   5.710   5.349  0.3750 -0.9316 -0.2680
   26CHL1  H26A 3098   0.778   5.623   5.363 -0.1009 -0.5615 -0.2439
   26CHL1  H26B 3099   0.886   5.697   5.246  0.5484 -1.1261 -0.1769
   26CHL1  H26C 3100   0.933   5.691   5.414  0.6678 -0.4074 -0.4993
   26CHL1   C27 3101   0.674   5.879   5.290  0.2253 -0.2908 -0.5220
   26CHL1  H27A 3102   0.645   5.987   5.290  1.2851 -0.0012 -0.7538
   26CHL1  H27B 3103   0.688   5.843   5.187 -1.9466  3.3152 -2.2948
   26CHL1  H27C 3104   0.584   5.833   5.337  1.1808 -1.8810 -0.1785
   27CHL1    C3 3105   6.534   3.331   6.690  0.0825 -0.3894 -0.0621
   27CHL1    H3 3106   6.609   3.412   6.677  0.3842 -0.6706 -0.0951
   27CHL1    O3 3107   6.513   3.291   6.826  0.1095 -0.0033 -0.2097
   27CHL1   H3' 3108   6.419   3.275   6.839  0.2402  0.6698  1.9866
   27CHL1    C4 3109   6.403   3.383   6.629  0.1454  0.2155 -0.5425
   27CHL1   H4A 3110   6.327   3.303   6.641 -0.2470  0.7577  0.8121
   27CHL1   H4B 3111   6.372   3.462   6.701 -0.2011  0.3914 -0.8780
   27CHL1    C5 3112   6.424   3.425   6.484  0.0379  1.0773 -0.8524
   27CHL1    C6 3113   6.408   3.548   6.436  0.0251  1.2880 -0.3938
   27CHL1    H6 3114   6.370   3.623   6.507  2.3937  1.5889  0.6426
   27CHL1    C7 3115   6.419   3.586   6.292 -0.5365  0.7550  0.0907
   27CHL1   H7A 3116   6.335   3.652   6.260 -0.3696  1.6552  1.4572
   27CHL1   H7B 3117   6.513   3.645   6.287  0.5471 -0.9194  0.1339
   27CHL1    C8 3118   6.430   3.464   6.196 -0.1691 -0.0203 -0.1224
   27CHL1    H8 3119   6.331   3.419   6.177  0.8856 -1.2019 -3.4424
   27CHL1   C14 3120   6.482   3.507   6.058  0.6312 -0.3638  0.2472
   27CHL1   H14 3121   6.580   3.555   6.081  1.4327 -1.3274 -1.0797
   27CHL1   C15 3122   6.410   3.619   5.987  0.0977  0.0194  0.1100
   27CHL1  H15A 3123   6.300   3.603   5.989 -0.5175  3.5252  2.6809
   27CHL1  H15B 3124   6.423   3.721   6.029 -1.6416  0.6748 -0.8417
   27CHL1   C16 3125   6.468   3.631   5.847  0.1935  0.2329  0.1558
   27CHL1  H16A 3126   6.383   3.626   5.776  0.4690  1.5376 -0.2825
   27CHL1  H16B 3127   6.543   3.708   5.819 -0.0711  0.7040  0.7099
   27CHL1   C17 3128   6.557   3.492   5.846  0.5951 -0.1421 -0.6926
   27CHL1   H17 3129   6.657   3.522   5.883 -0.0637  1.7175 -0.3266
   27CHL1   C13 3130   6.509   3.398   5.957  0.5001 -0.3437 -0.0295
   27CHL1   C18 3131   6.374   3.339   5.906  0.5014  0.4106  0.3231
   27CHL1  H18A 3132   6.335   3.287   5.996  1.7654 -0.8513  0.1767
   27CHL1  H18B 3133   6.302   3.420   5.881  0.6724  0.5042  0.1325
   27CHL1  H18C 3134   6.400   3.267   5.826 -0.2300  0.6524 -0.1498
   27CHL1   C12 3135   6.602   3.297   6.011 -0.1014  0.6006  0.4036
   27CHL1  H12A 3136   6.605   3.210   5.941  2.4218  0.7865  0.1949
   27CHL1  H12B 3137   6.706   3.336   6.015  0.5728 -0.7881 -1.6751
   27CHL1   C11 3138   6.561   3.243   6.150  0.0027  0.1308  0.4963
   27CHL1  H11A 3139   6.473   3.177   6.133  0.0165 -0.1950  1.5896
   27CHL1  H11B 3140   6.632   3.176   6.202 -1.6443 -1.5880  0.6431
   27CHL1    C9 3141   6.527   3.360   6.251 -0.0583  0.0098 -0.4127
   27CHL1    H9 3142   6.622   3.412   6.272  1.0222 -1.2286 -1.9165
   27CHL1   C10 3143   6.483   3.314   6.389  0.4293  0.6131 -0.7549
   27CHL1   C19 3144   6.369   3.206   6.375 -0.6348 -0.6365  0.1783
   27CHL1  H19A 3145   6.344   3.167   6.476  3.0871 -1.6967  0.8655
   27CHL1  H19B 3146   6.281   3.246   6.321  0.2569  0.7388 -0.3241
   27CHL1  H19C 3147   6.405   3.121   6.314 -2.4179 -0.0768 -1.7572
   27CHL1    C1 3148   6.608   3.244   6.457 -0.5642 -0.0815 -1.1543
   27CHL1   H1A 3149   6.638   3.155   6.398  0.1653 -1.7878  1.6230
   27CHL1   H1B 3150   6.687   3.322   6.448 -1.3768  0.5775 -3.0335
   27CHL1    C2 3151   6.580   3.206   6.615  0.6067  0.8330  0.5423
   27CHL1   H2A 3152   6.669   3.159   6.661  0.7263  1.7063  1.2226
   27CHL1   H2B 3153   6.492   3.137   6.615  1.8372 -0.7886  1.1201
   27CHL1   C20 3154   6.575   3.429   5.705 -0.0056  0.4594 -0.3165
   27CHL1   H20 3155   6.614   3.327   5.727  1.0702  0.7052 -1.0301
   27CHL1   C21 3156   6.692   3.504   5.624  0.0698  0.7100  0.3726
   27CHL1  H21A 3157   6.640   3.592   5.580  0.5973  1.8260  1.8911
   27CHL1  H21B 3158   6.717   3.439   5.537 -1.7613 -0.4027  0.6376
   27CHL1  H21C 3159   6.785   3.541   5.672  2.1435  0.4718 -3.0912
   27CHL1   C22 3160   6.450   3.416   5.618  0.7607  0.2779 -0.2857
   27CHL1  H22A 3161   6.358   3.372   5.662  1.1891 -2.0612 -1.5621
   27CHL1  H22B 3162   6.422   3.521   5.593 -3.0230  0.2615  2.8744
   27CHL1   C23 3163   6.477   3.334   5.480  0.2585 -0.6055 -0.2123
   27CHL1  H23A 3164   6.545   3.399   5.421 -1.6164  1.7650  0.0790
   27CHL1  H23B 3165   6.531   3.238   5.491  1.6335  0.3856  2.8425
   27CHL1   C24 3166   6.347   3.320   5.395  0.0795 -0.3255 -0.5570
   27CHL1  H24A 3167   6.279   3.258   5.457  1.3846 -1.5121 -0.2791
   27CHL1  H24B 3168   6.314   3.426   5.382 -1.0571 -0.5803  0.1292
   27CHL1   C25 3169   6.369   3.255   5.260  0.4842 -0.0754 -0.2734
   27CHL1   H25 3170   6.423   3.327   5.195 -1.0706  1.0354 -0.3837
   27CHL1   C26 3171   6.448   3.117   5.274 -0.7625  0.0276  0.0056
   27CHL1  H26A 3172   6.417   3.043   5.197  0.1340  0.8901 -1.2202
   27CHL1  H26B 3173   6.554   3.136   5.248 -0.7324  1.6749  1.2137
   27CHL1  H26C 3174   6.442   3.081   5.379  0.0319  1.9580  0.7620
   27CHL1   C27 3175   6.231   3.220   5.199  0.6390  0.3252 -0.1780
   27CHL1  H27A 3176   6.192   3.322   5.179  3.3283  1.5340  0.3340
   27CHL1  H27B 3177   6.159   3.179   5.273 -0.0510 -0.5028 -1.2668
   27CHL1  H27C 3178   6.232   3.162   5.105 -0.6445 -1.3233  0.7744
   28CHL1    C3 3179   1.302   2.250   6.993  0.0665 -0.2261  0.2513
   28CHL1    H3 3180   1.211   2.303   6.957 -0.4842 -1.6209 -0.4920
   28CHL1    O3 3181   1.333   2.282   7.132 -0.0043  0.1710  0.5866
   28CHL1   H3' 3182   1.357   2.198   7.172  0.8921  0.0839 -0.0985
   28CHL1    C4 3183   1.280   2.102   6.979  0.5137 -0.1500 -0.4003
   28CHL1   H4A 3184   1.356   2.030   7.017 -1.0110 -2.7388 -1.9787
   28CHL1   H4B 3185   1.194   2.071   7.042 -0.0677  1.1250 -0.5228
   28CHL1    C5 3186   1.256   2.072   6.833  0.1671 -0.2376  0.8787
   28CHL1    C6 3187   1.145   1.997   6.801 -0.2458 -0.0783 -0.1732
   28CHL1    H6 3188   1.079   1.949   6.875 -0.5187  0.7433  0.1272
   28CHL1    C7 3189   1.124   1.940   6.663 -0.0770 -0.5814 -0.7374
   28CHL1   H7A 3190   1.100   1.831   6.659 -1.3245 -0.3131 -0.9373
   28CHL1   H7B 3191   1.040   1.998   6.620 -0.6927 -0.4454  0.6160
   28CHL1    C8 3192   1.244   1.956   6.571 -0.5466  0.5691  0.1049
   28CHL1    H8 3193   1.320   1.879   6.596 -0.0936  0.7841 -0.5682
   28CHL1   C14 3194   1.194   1.943   6.429 -0.2223  0.9795  0.4478
   28CHL1   H14 3195   1.124   2.028   6.411  0.3630  1.4593  0.4083
   28CHL1   C15 3196   1.121   1.810   6.401  0.1226  0.0613  0.4262
   28CHL1  H15A 3197   1.185   1.725   6.433 -0.1595  0.0702  1.0233
   28CHL1  H15B 3198   1.020   1.791   6.443  0.0105 -1.3577 -0.4041
   28CHL1   C16 3199   1.109   1.809   6.245  0.3433 -0.1754  0.1093
   28CHL1  H16A 3200   1.143   1.708   6.215 -3.6586 -1.6829  0.0571
   28CHL1  H16B 3201   1.007   1.830   6.206  0.5515  2.2076  0.6344
   28CHL1   C17 3202   1.211   1.922   6.196  0.7548  0.6241  0.4612
   28CHL1   H17 3203   1.146   2.008   6.169  1.7815  0.3244 -3.6401
   28CHL1   C13 3204   1.292   1.958   6.319 -0.1070  0.0511 -0.4776
   28CHL1   C18 3205   1.410   1.862   6.334 -0.1757  0.3657 -0.0521
   28CHL1  H18A 3206   1.491   1.884   6.261  0.1033 -2.6016 -0.7899
   28CHL1  H18B 3207   1.466   1.870   6.429  1.4190 -2.4006 -0.6359
   28CHL1  H18C 3208   1.378   1.756   6.323 -0.2414  0.1265  1.9932
   28CHL1   C12 3209   1.360   2.100   6.336 -0.6710  0.3336  0.9825
   28CHL1  H12A 3210   1.452   2.112   6.274  0.7378 -2.9918  2.1925
   28CHL1  H12B 3211   1.286   2.178   6.309  1.0076  1.7913  0.3448
   28CHL1   C11 3212   1.409   2.122   6.473 -0.9072 -0.4259 -0.4292
   28CHL1  H11A 3213   1.496   2.057   6.493  1.3060  1.4857 -3.0785
   28CHL1  H11B 3214   1.445   2.226   6.491  2.1397 -1.7370  1.8096
   28CHL1    C9 3215   1.311   2.088   6.590  0.4369 -0.1614  1.2599
   28CHL1    H9 3216   1.227   2.161   6.585 -1.9122 -2.6546  1.3780
   28CHL1   C10 3217   1.359   2.120   6.730 -1.2663 -0.5698  0.5180
   28CHL1   C19 3218   1.499   2.045   6.757 -0.2575  0.0459  0.2402
   28CHL1  H19A 3219   1.571   2.100   6.693  0.8482 -1.2814  0.2962
   28CHL1  H19B 3220   1.529   2.044   6.864 -0.8173 -0.9771  0.4076
   28CHL1  H19C 3221   1.491   1.939   6.724  0.5933  0.2476 -0.6648
   28CHL1    C1 3222   1.382   2.268   6.758 -0.5626  0.8809  1.0213
   28CHL1   H1A 3223   1.452   2.314   6.685 -2.2467  0.8820 -0.6730
   28CHL1   H1B 3224   1.288   2.321   6.732 -1.1804 -1.8863 -3.4686
   28CHL1    C2 3225   1.412   2.301   6.902  0.0356  0.5499 -0.0136
   28CHL1   H2A 3226   1.448   2.406   6.912 -0.9242  0.8707  0.1651
   28CHL1   H2B 3227   1.498   2.236   6.931 -1.9140 -1.9509  0.5372
   28CHL1   C20 3228   1.289   1.898   6.068 -0.7168 -0.0547 -0.0907
   28CHL1   H20 3229   1.375   1.830   6.088  1.1329  0.3434 -5.1682
   28CHL1   C21 3230   1.357   2.024   6.010 -0.6772  0.3226 -0.3147
   28CHL1  H21A 3231   1.284   2.107   6.007  0.1485  1.0599 -3.2263
   28CHL1  H21B 3232   1.378   2.017   5.901  2.7590  0.0347  0.2470
   28CHL1  H21C 3233   1.449   2.051   6.066 -1.8124  0.4461  1.5759
   28CHL1   C22 3234   1.202   1.825   5.958  0.4095  1.0137  0.2533
   28CHL1  H22A 3235   1.277   1.784   5.887 -0.2015 -1.5336  0.9890
   28CHL1  H22B 3236   1.154   1.732   5.996 -0.6771  1.4170 -0.1030
   28CHL1   C23 3237   1.087   1.914   5.898 -0.8499  0.1534 -0.1118
   28CHL1  H23A 3238   1.013   1.939   5.978 -1.4226 -2.7760  0.3986
   28CHL1  H23B 3239   1.139   1.996   5.845  1.5065 -1.7608 -0.9793
   28CHL1   C24 3240   1.007   1.849   5.782  0.0010 -0.1890 -0.0911
   28CHL1  H24A 3241   0.953   1.753   5.797 -2.9376  0.4813 -4.4756
   28CHL1  H24B 3242   0.923   1.921   5.771  0.7317  0.7438  0.2347
   28CHL1   C25 3243   1.087   1.850   5.648  0.5345 -0.3017 -0.1148
   28CHL1   H25 3244   1.194   1.823   5.656  0.4253 -0.6254  0.2887
   28CHL1   C26 3245   1.032   1.739   5.549  0.2554 -0.6591 -0.6044
   28CHL1  H26A 3246   0.921   1.741   5.554  0.2449 -2.4502  0.6357
   28CHL1  H26B 3247   1.066   1.763   5.446 -0.2571 -0.7459 -0.7981
   28CHL1  H26C 3248   1.070   1.641   5.585  0.6773 -0.5731 -0.8219
   28CHL1   C27 3249   1.088   1.993   5.583  0.5122  0.0288  0.2666
   28CHL1  H27A 3250   1.121   2.079   5.645  0.4390 -0.8104  1.5126
   28CHL1  H27B 3251   1.140   1.990   5.485  0.0153  0.4593 -0.0148
   28CHL1  H27C 3252   0.987   2.025   5.548  0.4060 -1.3859 -0.8146
   29CHL1    C3 3253   4.328   3.390   6.353  0.2404  0.1882 -0.1767
   29CHL1    H3 3254   4.218   3.404   6.354  0.2178  0.2043  1.6186
   29CHL1    O3 3255   4.363   3.372   6.492 -0.9611 -0.4492  0.4618
   29CHL1   H3' 3256   4.458   3.364   6.483 -0.3872  1.4447  3.3188
   29CHL1    C4 3257   4.372   3.263   6.283 -0.3578 -0.0388 -0.0341
   29CHL1   H4A 3258   4.478   3.239   6.307 -0.1588 -0.7481 -1.4681
   29CHL1   H4B 3259   4.315   3.176   6.324 -1.6459 -1.0566 -3.5593
   29CHL1    C5 3260   4.357   3.260   6.136 -0.3202  0.5877 -0.0093
   29CHL1    C6 3261   4.282   3.171   6.073  0.2741  0.0174 -0.4239
   29CHL1    H6 3262   4.230   3.091   6.127  1.6733  2.5189  5.3393
   29CHL1    C7 3263   4.271   3.173   5.921  0.0884 -0.4352 -0.6720
   29CHL1   H7A 3264   4.298   3.071   5.885  1.8873 -0.1972 -0.1303
   29CHL1   H7B 3265   4.172   3.215   5.896  0.3525  0.6633  0.0743
   29CHL1    C8 3266   4.373   3.268   5.846  0.0630  0.7830 -0.4679
   29CHL1    H8 3267   4.469   3.211   5.841 -2.1695 -3.6713  1.9586
   29CHL1   C14 3268   4.326   3.310   5.706  0.6258  0.3844  0.2004
   29CHL1   H14 3269   4.232   3.368   5.722 -0.4667 -1.7091  1.8749
   29CHL1   C15 3270   4.289   3.190   5.620  0.0833  0.0101  1.1411
   29CHL1  H15A 3271   4.361   3.107   5.636  0.1921  0.0715  0.9663
   29CHL1  H15B 3272   4.189   3.143   5.633 -0.1315 -0.8700 -2.6513
   29CHL1   C16 3273   4.301   3.255   5.482 -0.4262 -0.1473 -0.1533
   29CHL1  H16A 3274   4.375   3.194   5.426  1.3415 -1.6369  3.4667
   29CHL1  H16B 3275   4.204   3.259   5.428  0.3327  0.3389 -1.4993
   29CHL1   C17 3276   4.350   3.406   5.492  0.6559 -0.6603  1.0045
   29CHL1   H17 3277   4.256   3.466   5.499  0.7099  0.6445 -4.6110
   29CHL1   C13 3278   4.421   3.400   5.627  0.5299  0.1835 -0.6512
   29CHL1   C18 3279   4.561   3.336   5.613  0.3930 -0.4881  0.1409
   29CHL1  H18A 3280   4.637   3.398   5.561 -0.4941  0.5924  0.0771
   29CHL1  H18B 3281   4.600   3.306   5.713 -1.2368 -1.2409  0.5786
   29CHL1  H18C 3282   4.562   3.244   5.551 -1.3703 -0.5731  0.1833
   29CHL1   C12 3283   4.420   3.529   5.704 -0.3075 -0.0784 -0.3057
   29CHL1  H12A 3284   4.486   3.607   5.661 -0.9790  0.4468 -0.4012
   29CHL1  H12B 3285   4.316   3.568   5.712 -1.0558 -1.4690 -2.4598
   29CHL1   C11 3286   4.465   3.508   5.849  0.0005 -0.1835  0.4828
   29CHL1  H11A 3287   4.569   3.469   5.853 -1.0238 -3.4376 -0.6571
   29CHL1  H11B 3288   4.459   3.609   5.895 -0.5650 -0.2612  0.5871
   29CHL1    C9 3289   4.375   3.402   5.919 -0.0109  0.3528 -1.4557
   29CHL1    H9 3290   4.268   3.433   5.921 -0.8622 -2.4289 -0.1879
   29CHL1   C10 3291   4.420   3.381   6.070  0.2390  0.0601  0.1303
   29CHL1   C19 3292   4.568   3.345   6.079 -0.1612  0.2477 -0.6925
   29CHL1  H19A 3293   4.633   3.430   6.049  0.2932 -0.0697 -0.6122
   29CHL1  H19B 3294   4.616   3.332   6.178  2.2476  0.6141 -1.7261
   29CHL1  H19C 3295   4.599   3.254   6.023  3.8796  1.7682 -1.2454
   29CHL1    C1 3296   4.400   3.517   6.147  0.5299  0.0864 -0.3146
   29CHL1   H1A 3297   4.483   3.583   6.115  2.1001 -1.7599 -0.1810
   29CHL1   H1B 3298   4.305   3.568   6.119  2.0571  2.7379 -0.9246
   29CHL1    C2 3299   4.413   3.509   6.299 -0.2219  0.7597 -0.4814
   29CHL1   H2A 3300   4.381   3.606   6.341 -0.8812 -0.2533  1.4878
   29CHL1   H2B 3301   4.520   3.502   6.328 -0.2057  0.8187 -0.5266
   29CHL1   C20 3302   4.436   3.452   5.373  0.0773  0.5000  0.2898
   29CHL1   H20 3303   4.522   3.383   5.363  0.1878  0.2681  2.3723
   29CHL1   C21 3304   4.490   3.601   5.389  0.5761 -0.6200  0.3918
   29CHL1  H21A 3305   4.560   3.609   5.475  0.3949 -0.0165  0.4838
   29CHL1  H21B 3306   4.412   3.676   5.412  1.2109  0.1146  0.1841
   29CHL1  H21C 3307   4.538   3.637   5.295 -0.8387 -0.5855 -0.3501
   29CHL1   C22 3308   4.354   3.446   5.236  0.4466  0.2491 -0.1428
   29CHL1  H22A 3309   4.282   3.362   5.229 -0.5974  1.2599 -2.5240
   29CHL1  H22B 3310   4.287   3.534   5.227 -2.9721 -2.0222  0.9861
   29CHL1   C23 3311   4.445   3.450   5.116 -0.1100 -0.3095  0.1848
   29CHL1  H23A 3312   4.516   3.535   5.117 -0.6701  0.1702  0.1112
   29CHL1  H23B 3313   4.507   3.359   5.111  0.3509  0.0158 -0.0252
   29CHL1   C24 3314   4.364   3.466   4.982 -0.5062 -0.5370  0.1162
   29CHL1  H24A 3315   4.306   3.372   4.979 -2.9726  0.9039 -1.1258
   29CHL1  H24B 3316   4.288   3.547   4.993 -0.2803  0.0606 -2.1229
   29CHL1   C25 3317   4.456   3.502   4.851  0.2940  0.5339  0.1004
   29CHL1   H25 3318   4.506   3.596   4.882 -0.8172  1.3609 -0.5392
   29CHL1   C26 3319   4.560   3.394   4.821  0.5210  0.9328  0.4601
   29CHL1  H26A 3320   4.587   3.322   4.902  2.2056 -0.6306 -1.3956
   29CHL1  H26B 3321   4.517   3.320   4.750 -0.8113  0.3430  1.8239
   29CHL1  H26C 3322   4.649   3.437   4.772  0.3599 -0.6798 -1.3628
   29CHL1   C27 3323   4.369   3.524   4.730 -0.5288 -0.1020 -0.2368
   29CHL1  H27A 3324   4.436   3.560   4.649 -0.3656 -0.2719 -0.1789
   29CHL1  H27B 3325   4.337   3.422   4.699  2.6473 -1.1994 -0.3455
   29CHL1  H27C 3326   4.285   3.593   4.750 -1.2164 -1.3798  1.4721
   30CHL1    C3 3327   2.613   5.098   6.774 -0.8895 -0.5430  0.3476
   30CHL1    H3 3328   2.548   5.009   6.791 -1.5905 -0.0745  0.1816
   30CHL1    O3 3329   2.623   5.168   6.902  0.0942 -0.0200  0.6162
   30CHL1   H3' 3330   2.684   5.107   6.944  2.2725  0.2124 -2.0006
   30CHL1    C4 3331   2.760   5.063   6.723 -0.2938  0.0401 -0.4998
   30CHL1   H4A 3332   2.814   5.161   6.722  0.7458 -0.5102  0.0962
   30CHL1   H4B 3333   2.816   4.997   6.792 -1.5593 -1.1035 -0.5351
   30CHL1    C5 3334   2.760   5.013   6.582 -0.4449 -0.1189 -0.0059
   30CHL1    C6 3335   2.818   4.905   6.546 -0.6518  0.5626 -0.8098
   30CHL1    H6 3336   2.879   4.852   6.620 -0.8076  2.9132  1.1331
   30CHL1    C7 3337   2.817   4.841   6.409  0.3162 -0.5903  0.0265
   30CHL1   H7A 3338   2.924   4.818   6.390  0.6033  0.9501 -0.3310
   30CHL1   H7B 3339   2.770   4.742   6.393 -0.1453 -0.5773  1.2258
   30CHL1    C8 3340   2.769   4.945   6.300 -0.1958  0.0336 -0.8445
   30CHL1    H8 3341   2.848   5.022   6.292  2.2336 -1.9167  2.2893
   30CHL1   C14 3342   2.731   4.872   6.173  0.1821 -0.2906  0.3498
   30CHL1   H14 3343   2.657   4.792   6.197  1.5954 -1.2593  1.6370
   30CHL1   C15 3344   2.851   4.793   6.107  0.0645 -0.2015  0.3535
   30CHL1  H15A 3345   2.937   4.862   6.124 -0.7296  0.6735  0.9196
   30CHL1  H15B 3346   2.879   4.698   6.157  1.4314 -0.8055 -1.4398
   30CHL1   C16 3347   2.809   4.770   5.958  0.1714  0.2716 -0.2820
   30CHL1  H16A 3348   2.882   4.827   5.896  1.7340 -1.4077 -0.0551
   30CHL1  H16B 3349   2.817   4.667   5.919  2.0096  1.6790 -4.0301
   30CHL1   C17 3350   2.668   4.844   5.946  0.2866 -0.1900  0.5647
   30CHL1   H17 3351   2.591   4.777   5.989 -0.0537  0.3238  0.7639
   30CHL1   C13 3352   2.672   4.954   6.059  0.5936 -0.0378 -0.1375
   30CHL1   C18 3353   2.768   5.060   6.015  0.3816  0.1870 -0.3695
   30CHL1  H18A 3354   2.828   5.103   6.099  0.0343 -1.8153  0.9841
   30CHL1  H18B 3355   2.841   5.016   5.944  0.2661 -0.1098 -0.3075
   30CHL1  H18C 3356   2.705   5.134   5.963  2.7769  0.9465 -2.3957
   30CHL1   C12 3357   2.539   5.006   6.111 -0.1423  0.1188 -0.2759
   30CHL1  H12A 3358   2.489   5.062   6.029  0.5205  0.8891 -0.1738
   30CHL1  H12B 3359   2.468   4.924   6.135 -2.4050  1.9452 -0.4354
   30CHL1   C11 3360   2.554   5.087   6.241  0.5233 -0.0310  0.1188
   30CHL1  H11A 3361   2.607   5.181   6.215  0.7380 -0.2873 -0.3821
   30CHL1  H11B 3362   2.456   5.126   6.275  0.8867 -0.3253  1.6223
   30CHL1    C9 3363   2.637   5.010   6.355 -0.2562  0.5494 -0.6554
   30CHL1    H9 3364   2.576   4.922   6.385  0.8266 -0.5678 -1.6749
   30CHL1   C10 3365   2.664   5.090   6.483  0.1153 -0.0726 -0.1660
   30CHL1   C19 3366   2.729   5.226   6.437  0.1314  0.4796  0.8126
   30CHL1  H19A 3367   2.804   5.206   6.358 -0.2119 -0.6719  0.7564
   30CHL1  H19B 3368   2.654   5.302   6.408  1.4421  2.8549  3.1663
   30CHL1  H19C 3369   2.779   5.264   6.529  3.2137 -3.0650  0.8506
   30CHL1    C1 3370   2.531   5.124   6.543 -0.3751  0.0215 -0.2545
   30CHL1   H1A 3371   2.480   5.194   6.474 -0.7966  0.9464  0.9784
   30CHL1   H1B 3372   2.457   5.042   6.555 -2.7941  2.0850 -0.3284
   30CHL1    C2 3373   2.543   5.193   6.674 -0.1485  0.1051  0.5657
   30CHL1   H2A 3374   2.441   5.206   6.715 -0.1128 -0.9687  1.0392
   30CHL1   H2B 3375   2.588   5.292   6.652 -2.5955  0.9706 -0.9257
   30CHL1   C20 3376   2.618   4.871   5.801  0.0413  0.1848 -0.4762
   30CHL1   H20 3377   2.530   4.938   5.813  1.9270  2.4310  2.2302
   30CHL1   C21 3378   2.554   4.742   5.742  0.1331 -1.0645 -1.0375
   30CHL1  H21A 3379   2.630   4.664   5.720 -0.0679 -2.4025  2.3792
   30CHL1  H21B 3380   2.488   4.754   5.654 -0.0647 -3.1670 -1.2130
   30CHL1  H21C 3381   2.488   4.690   5.814  2.1753  0.1627  1.9549
   30CHL1   C22 3382   2.717   4.945   5.711  0.3885  0.2178  0.5281
   30CHL1  H22A 3383   2.720   5.045   5.760  0.4051  0.7468 -0.5356
   30CHL1  H22B 3384   2.822   4.908   5.708  0.1608 -0.5064  1.1801
   30CHL1   C23 3385   2.658   4.966   5.567 -0.3106  0.7283 -0.3123
   30CHL1  H23A 3386   2.649   4.866   5.521 -2.8771 -0.0431  1.5699
   30CHL1  H23B 3387   2.551   4.992   5.581 -1.3081 -2.9360  0.0174
   30CHL1   C24 3388   2.732   5.066   5.481  0.1370 -1.0326  0.1012
   30CHL1  H24A 3389   2.728   5.160   5.541 -1.0949 -1.4850  0.7412
   30CHL1  H24B 3390   2.839   5.038   5.490  0.1306 -1.2727 -0.5217
   30CHL1   C25 3391   2.701   5.107   5.332 -0.2923  0.3467  0.2550
   30CHL1   H25 3392   2.708   5.009   5.280  0.0704 -1.1415  2.9100
   30CHL1   C26 3393   2.554   5.158   5.329 -0.6676 -0.0633  0.1573
   30CHL1  H26A 3394   2.486   5.070   5.332  1.0500 -1.4249  1.5234
   30CHL1  H26B 3395   2.518   5.224   5.411  1.2009  1.3715 -0.1243
   30CHL1  H26C 3396   2.542   5.222   5.240  0.7211  0.2929  0.1934
   30CHL1   C27 3397   2.805   5.202   5.278  0.9630  0.1047 -0.3085
   30CHL1  H27A 3398   2.903   5.152   5.294 -0.4270 -2.3212  1.3800
   30CHL1  H27B 3399   2.794   5.230   5.171 -1.2689 -0.7087 -0.3425
   30CHL1  H27C 3400   2.800   5.300   5.331 -0.4643  0.6792 -1.4505
   31CHL1    C3 3401   4.990   5.226   6.466  0.1644 -0.2499 -0.1622
   31CHL1    H3 3402   5.055   5.296   6.408 -1.0773  0.3340 -0.8780
   31CHL1    O3 3403   5.006   5.214   6.604 -0.3056 -0.3045 -0.2415
   31CHL1   H3' 3404   5.087   5.265   6.614 -0.8470  1.3087 -3.0435
   31CHL1    C4 3405   4.848   5.278   6.446  0.1137 -0.0591 -0.5907
   31CHL1   H4A 3406   4.786   5.196   6.490 -0.8184  1.2379  0.5940
   31CHL1   H4B 3407   4.813   5.365   6.505  2.2615  0.1871  0.4012
   31CHL1    C5 3408   4.805   5.276   6.297 -0.9198  0.3213  0.2641
   31CHL1    C6 3409   4.772   5.388   6.228  0.0871  0.0441  0.8946
   31CHL1    H6 3410   4.760   5.487   6.275  0.3102  0.9925 -0.9861
   31CHL1    C7 3411   4.751   5.394   6.078  0.4499 -0.6250 -0.1171
   31CHL1   H7A 3412   4.662   5.458   6.060  2.8172  3.3864  1.0758
   31CHL1   H7B 3413   4.831   5.440   6.017 -0.9633 -1.6721 -2.9418
   31CHL1    C8 3414   4.734   5.255   6.015  0.4477  0.3792 -0.3763
   31CHL1    H8 3415   4.634   5.220   6.047  0.5094 -1.2670 -1.8615
   31CHL1   C14 3416   4.738   5.265   5.867  0.0204  0.6436  0.5526
   31CHL1   H14 3417   4.835   5.312   5.839  0.1067  0.2398  0.1721
   31CHL1   C15 3418   4.640   5.365   5.807 -0.4663 -0.1433 -0.3840
   31CHL1  H15A 3419   4.544   5.362   5.863 -1.0181 -1.5012 -1.3513
   31CHL1  H15B 3420   4.686   5.464   5.825  0.5825 -0.5725 -0.6435
   31CHL1   C16 3421   4.630   5.327   5.659  0.0553  0.0893  0.1059
   31CHL1  H16A 3422   4.532   5.287   5.625 -0.0885  0.3001  0.2720
   31CHL1  H16B 3423   4.649   5.407   5.584 -0.8165 -0.1627 -0.3940
   31CHL1   C17 3424   4.727   5.207   5.638 -0.4835  0.2020 -0.8929
   31CHL1   H17 3425   4.827   5.250   5.619 -1.3539  2.7105 -0.1601
   31CHL1   C13 3426   4.730   5.140   5.781  0.3604 -0.2047  0.1988
   31CHL1   C18 3427   4.592   5.067   5.797 -0.1338  0.5352 -0.1010
   31CHL1  H18A 3428   4.593   4.965   5.754 -1.4802  0.9083 -1.1000
   31CHL1  H18B 3429   4.568   5.055   5.905 -1.3792 -1.7212 -0.5618
   31CHL1  H18C 3430   4.513   5.126   5.745  0.5009  1.8433  0.3755
   31CHL1   C12 3431   4.848   5.051   5.833  0.5857 -0.4944 -0.1133
   31CHL1  H12A 3432   4.867   4.963   5.768  0.3796  1.1582 -2.5668
   31CHL1  H12B 3433   4.943   5.109   5.829 -0.1459  0.8182  0.6747
   31CHL1   C11 3434   4.839   5.022   5.989 -0.8010 -0.8421 -0.5773
   31CHL1  H11A 3435   4.743   4.974   6.014 -1.2101  0.5656  0.7522
   31CHL1  H11B 3436   4.930   4.967   6.022 -1.0203  0.0378  1.6579
   31CHL1    C9 3437   4.841   5.160   6.071 -0.9965  0.2270  0.1432
   31CHL1    H9 3438   4.934   5.216   6.047  0.2033 -1.5559  0.4681
   31CHL1   C10 3439   4.834   5.145   6.224  0.1266 -0.2519 -0.5510
   31CHL1   C19 3440   4.719   5.049   6.255  0.1583 -0.2247  0.1226
   31CHL1  H19A 3441   4.743   4.952   6.206  0.5207  0.0638 -0.2790
   31CHL1  H19B 3442   4.699   5.027   6.362 -0.4567 -0.3994 -0.0198
   31CHL1  H19C 3443   4.624   5.091   6.215 -0.0643 -2.1988 -1.6138
   31CHL1    C1 3444   4.972   5.078   6.258  0.3710  1.1006  0.1776
   31CHL1   H1A 3445   4.970   4.970   6.232  0.2496  0.7084  1.7150
   31CHL1   H1B 3446   5.051   5.131   6.201  2.3842 -0.2616  1.5545
   31CHL1    C2 3447   5.015   5.085   6.405  0.6411  0.3610 -0.8588
   31CHL1   H2A 3448   5.116   5.045   6.425  0.6408  1.2248  1.2013
   31CHL1   H2B 3449   4.936   5.023   6.454 -2.7442  2.9224 -2.6674
   31CHL1   C20 3450   4.692   5.121   5.521 -0.1321 -0.1714  0.1660
   31CHL1   H20 3451   4.588   5.082   5.529 -0.4930  0.3789 -1.3533
   31CHL1   C21 3452   4.798   5.009   5.500  0.1746  0.3219  0.6927
   31CHL1  H21A 3453   4.776   4.935   5.579  0.9159 -1.3321 -0.5821
   31CHL1  H21B 3454   4.906   5.038   5.502  1.3558 -3.2948 -1.3682
   31CHL1  H21C 3455   4.788   4.944   5.410 -0.0358 -2.0242  2.3067
   31CHL1   C22 3456   4.712   5.200   5.388  0.2500 -0.1790  0.9470
   31CHL1  H22A 3457   4.673   5.304   5.398  3.1858  1.2441 -0.7940
   31CHL1  H22B 3458   4.820   5.224   5.381  0.1970 -0.1994 -0.0785
   31CHL1   C23 3459   4.639   5.156   5.267 -0.4001  0.0265  0.2002
   31CHL1  H23A 3460   4.687   5.207   5.181  1.8400 -0.4987  1.0832
   31CHL1  H23B 3461   4.645   5.045   5.254 -0.3459  0.0613 -0.0774
   31CHL1   C24 3462   4.491   5.203   5.275  0.2558 -0.2313 -0.6297
   31CHL1  H24A 3463   4.432   5.180   5.366  1.4771 -0.0888  0.2286
   31CHL1  H24B 3464   4.497   5.314   5.279 -2.4416 -0.0424  0.5203
   31CHL1   C25 3465   4.409   5.178   5.146 -0.0237 -0.1495  0.9398
   31CHL1   H25 3466   4.471   5.225   5.066  1.1269  0.2938  2.0418
   31CHL1   C26 3467   4.375   5.034   5.115  0.1197  0.5653  0.0903
   31CHL1  H26A 3468   4.314   5.023   5.023 -0.8728 -0.1552  0.8187
   31CHL1  H26B 3469   4.467   4.973   5.126 -1.6020 -1.8960  2.1872
   31CHL1  H26C 3470   4.304   5.001   5.194  0.9679 -0.4485  0.4434
   31CHL1   C27 3471   4.283   5.269   5.135 -0.0737  0.0721  0.1098
   31CHL1  H27A 3472   4.201   5.233   5.201 -1.9740  0.2575 -2.0045
   31CHL1  H27B 3473   4.305   5.374   5.161  0.5830 -0.3629  1.3878
   31CHL1  H27C 3474   4.240   5.262   5.032  1.4817 -2.9893 -0.4437
   32CHL1    C3 3475   0.503   3.447   6.699  0.5475  0.0057 -0.2023
   32CHL1    H3 3476   0.416   3.495   6.747 -0.3779 -2.3287  0.6067
   32CHL1    O3 3477   0.572   3.355   6.787  0.1983 -0.3245 -0.2379
   32CHL1   H3' 3478   0.639   3.338   6.720 -0.2350  0.8631 -1.0088
   32CHL1    C4 3479   0.449   3.358   6.586  0.5994  0.6035 -0.0510
   32CHL1   H4A 3480   0.541   3.315   6.541  1.9417  0.8028  2.3475
   32CHL1   H4B 3481   0.394   3.273   6.631 -0.4695  0.8402 -0.8499
   32CHL1    C5 3482   0.365   3.442   6.485 -0.2209  0.5175 -0.2527
   32CHL1    C6 3483   0.235   3.417   6.467 -0.2806  0.2029  0.5577
   32CHL1    H6 3484   0.191   3.334   6.523 -0.1045  0.5699  1.2521
   32CHL1    C7 3485   0.151   3.481   6.366  0.3986 -0.0250 -0.3703
   32CHL1   H7A 3486   0.088   3.411   6.306  0.8342 -1.2263  0.5156
   32CHL1   H7B 3487   0.076   3.537   6.426  0.1484  0.8708 -1.4922
   32CHL1    C8 3488   0.221   3.579   6.273 -0.3998 -0.5299 -0.0124
   32CHL1    H8 3489   0.271   3.521   6.193 -1.5404 -2.0076  0.3229
   32CHL1   C14 3490   0.121   3.682   6.218 -0.5008 -0.1925  0.5784
   32CHL1   H14 3491   0.088   3.731   6.312  0.4829 -2.7909  2.3870
   32CHL1   C15 3492  -0.007   3.635   6.152  1.1397 -0.0880 -0.1785
   32CHL1  H15A 3493  -0.011   3.540   6.094 -2.0461 -1.0103  1.3333
   32CHL1  H15B 3494  -0.073   3.620   6.240 -0.1059  0.6911 -0.9515
   32CHL1   C16 3495  -0.051   3.764   6.073  0.3770  0.5151 -0.0876
   32CHL1  H16A 3496  -0.049   3.730   5.967  0.7126 -1.0877  0.4023
   32CHL1  H16B 3497  -0.152   3.802   6.098 -0.4036 -0.5418 -1.5220
   32CHL1   C17 3498   0.056   3.872   6.108  0.0264  0.0260 -0.1285
   32CHL1   H17 3499   0.015   3.922   6.198  0.1332  0.3839 -0.2783
   32CHL1   C13 3500   0.186   3.794   6.135  0.5960 -0.4579 -0.0681
   32CHL1   C18 3501   0.242   3.723   6.010 -0.6236 -0.3606 -0.2038
   32CHL1  H18A 3502   0.169   3.658   5.957 -2.4289  2.3533 -1.2593
   32CHL1  H18B 3503   0.257   3.806   5.937  0.1147 -0.5277 -0.2534
   32CHL1  H18C 3504   0.335   3.667   6.035  0.2977  1.2748  0.2184
   32CHL1   C12 3505   0.294   3.864   6.214  0.2801 -0.4444  0.6723
   32CHL1  H12A 3506   0.349   3.943   6.158  1.2165 -1.2103  0.4960
   32CHL1  H12B 3507   0.241   3.925   6.290  2.1048  1.7364  0.2950
   32CHL1   C11 3508   0.396   3.773   6.271  0.5326  0.4346  0.1361
   32CHL1  H11A 3509   0.466   3.733   6.194 -0.8164  0.1310 -0.9897
   32CHL1  H11B 3510   0.459   3.833   6.339 -0.7616  2.6701 -0.5401
   32CHL1    C9 3511   0.332   3.657   6.354  0.0402  0.1221 -0.0196
   32CHL1    H9 3512   0.284   3.700   6.445  0.6115  0.7624 -0.0067
   32CHL1   C10 3513   0.441   3.559   6.414 -0.0527  0.4404 -0.3036
   32CHL1   C19 3514   0.521   3.493   6.308 -0.3188  0.0679  0.1587
   32CHL1  H19A 3515   0.470   3.468   6.213 -0.7875 -3.1762  1.1284
   32CHL1  H19B 3516   0.598   3.568   6.284  0.1731  1.1967  4.3924
   32CHL1  H19C 3517   0.569   3.398   6.342  0.8423  0.5650 -0.0810
   32CHL1    C1 3518   0.526   3.629   6.527  0.6509 -0.0552 -0.1452
   32CHL1   H1A 3519   0.605   3.684   6.472 -0.1693 -0.1616 -1.4770
   32CHL1   H1B 3520   0.467   3.709   6.578  0.4728  0.4301 -1.0908
   32CHL1    C2 3521   0.592   3.547   6.640  0.3756  0.7022 -0.2785
   32CHL1   H2A 3522   0.618   3.608   6.729 -1.9627 -1.8202  2.3690
   32CHL1   H2B 3523   0.681   3.494   6.599  0.9287  1.0315  0.4657
   32CHL1   C20 3524   0.071   3.982   6.003  0.6180  0.1668 -0.2919
   32CHL1   H20 3525   0.179   4.009   6.003  1.3847 -2.4692  1.9695
   32CHL1   C21 3526  -0.027   4.094   6.043 -0.8156  0.5253  0.1219
   32CHL1  H21A 3527  -0.012   4.136   6.145  0.0777  1.8072 -0.5007
   32CHL1  H21B 3528  -0.129   4.055   6.026 -0.3684  0.3468 -2.6258
   32CHL1  H21C 3529  -0.021   4.186   5.980 -1.0951 -0.0738 -0.8021
   32CHL1   C22 3530   0.039   3.943   5.853  0.5704 -0.0626 -0.3038
   32CHL1  H22A 3531   0.121   3.881   5.812  0.4356 -0.0503 -0.6007
   32CHL1  H22B 3532  -0.059   3.891   5.845 -0.0876  1.1226 -0.2231
   32CHL1   C23 3533   0.037   4.064   5.747  0.3056 -0.0443 -0.1215
   32CHL1  H23A 3534  -0.058   4.122   5.750  0.5619  0.4061 -0.5523
   32CHL1  H23B 3535   0.104   4.146   5.779  0.0059  0.7807 -1.4863
   32CHL1   C24 3536   0.053   4.003   5.614 -0.0193 -0.7688 -0.0961
   32CHL1  H24A 3537   0.154   3.956   5.610  0.8203  0.8115  1.1549
   32CHL1  H24B 3538  -0.015   3.915   5.611  2.7711 -3.0932  0.2525
   32CHL1   C25 3539   0.041   4.089   5.488 -0.0347 -0.2815  0.0786
   32CHL1   H25 3540   0.121   4.166   5.493 -0.8427  0.5229  1.3101
   32CHL1   C26 3541   0.065   4.000   5.361 -0.6044  0.0586 -0.0194
   32CHL1  H26A 3542   0.003   3.909   5.347 -1.3975  0.8508 -2.0524
   32CHL1  H26B 3543   0.053   4.067   5.273 -0.1314 -1.0464 -0.9539
   32CHL1  H26C 3544   0.172   3.970   5.361 -0.8502 -0.9143 -1.4056
   32CHL1   C27 3545  -0.092   4.164   5.465  0.0743 -0.0003 -0.1396
   32CHL1  H27A 3546  -0.114   4.223   5.557 -2.4553 -2.0158  0.6613
   32CHL1  H27B 3547  -0.096   4.245   5.390  0.1784  1.7924  1.6908
   32CHL1  H27C 3548  -0.180   4.098   5.449 -0.8857  1.6591 -2.1805
   33CHL1    C3 3549   5.457   3.781   6.825 -0.5332 -0.1879 -0.5117
   33CHL1    H3 3550   5.450   3.891   6.812  2.8253  0.3811  1.3583
   33CHL1    O3 3551   5.450   3.756   6.968  0.2637  0.4754 -0.7186
   33CHL1   H3' 3552   5.359   3.731   6.983  0.9397 -0.3925  2.9085
   33CHL1    C4 3553   5.345   3.714   6.757  0.5797  0.3849  0.1658
   33CHL1   H4A 3554   5.355   3.605   6.779 -0.0843 -0.1737 -2.0099
   33CHL1   H4B 3555   5.249   3.743   6.803  1.2497  1.0476  1.1875
   33CHL1    C5 3556   5.350   3.727   6.608 -0.7403  0.2408  0.2261
   33CHL1    C6 3557   5.256   3.796   6.541 -0.8328 -0.3718  0.2978
   33CHL1    H6 3558   5.172   3.837   6.599  1.5010  0.2036  3.5198
   33CHL1    C7 3559   5.244   3.814   6.399  0.2712  0.5414  0.0530
   33CHL1   H7A 3560   5.140   3.783   6.376  0.8144 -0.3787 -1.2696
   33CHL1   H7B 3561   5.252   3.922   6.375 -0.2755  1.2445  2.7021
   33CHL1    C8 3562   5.339   3.723   6.322  0.2834  0.2449  0.1664
   33CHL1    H8 3563   5.301   3.618   6.326 -0.0962  0.3893  0.3391
   33CHL1   C14 3564   5.357   3.768   6.180 -0.5967  0.9333  1.0157
   33CHL1   H14 3565   5.406   3.868   6.181 -0.8229  1.0407  1.1877
   33CHL1   C15 3566   5.235   3.785   6.084  0.8859  0.1172 -0.5379
   33CHL1  H15A 3567   5.182   3.688   6.095 -0.6521  0.6892 -2.3579
   33CHL1  H15B 3568   5.162   3.860   6.121  0.4682 -0.7103  0.3396
   33CHL1   C16 3569   5.293   3.801   5.947 -0.2069  0.3569  0.5924
   33CHL1  H16A 3570   5.230   3.759   5.866  1.7154 -0.9668 -0.2983
   33CHL1  H16B 3571   5.298   3.909   5.923 -0.0510  0.7568  2.2742
   33CHL1   C17 3572   5.435   3.748   5.954  1.3430 -0.4605 -0.4200
   33CHL1   H17 3573   5.501   3.837   5.953  0.7835  0.0049  1.1337
   33CHL1   C13 3574   5.449   3.687   6.093 -0.0572 -0.1900 -0.1785
   33CHL1   C18 3575   5.412   3.536   6.087  0.3169 -0.3290 -0.0147
   33CHL1  H18A 3576   5.488   3.475   6.032 -0.6660 -0.2965 -1.4486
   33CHL1  H18B 3577   5.407   3.481   6.183  0.3043 -0.4305 -0.0732
   33CHL1  H18C 3578   5.317   3.514   6.034 -0.8734  1.8608  1.0781
   33CHL1   C12 3579   5.589   3.704   6.163 -0.2873 -0.1370  0.1770
   33CHL1  H12A 3580   5.673   3.666   6.101 -1.1565 -0.8845 -0.5734
   33CHL1  H12B 3581   5.626   3.808   6.149  0.4768 -0.6341 -1.9150
   33CHL1   C11 3582   5.597   3.652   6.313 -0.3424 -0.7269  0.3417
   33CHL1  H11A 3583   5.590   3.541   6.309  1.4532 -1.0989  3.7292
   33CHL1  H11B 3584   5.694   3.680   6.360 -1.6741  4.7832  0.5453
   33CHL1    C9 3585   5.479   3.716   6.394  0.2329  0.3382  0.2271
   33CHL1    H9 3586   5.513   3.822   6.405 -0.4129  0.6645 -0.7537
   33CHL1   C10 3587   5.480   3.675   6.546  0.0870  0.4614  0.0194
   33CHL1   C19 3588   5.476   3.525   6.544 -0.1586 -0.2178 -0.4807
   33CHL1  H19A 3589   5.421   3.468   6.466  2.2059 -0.3462 -2.1294
   33CHL1  H19B 3590   5.577   3.481   6.531  0.1680  0.8701 -1.8290
   33CHL1  H19C 3591   5.435   3.485   6.640 -0.0667  0.0267 -0.3385
   33CHL1    C1 3592   5.605   3.731   6.622  0.2991  0.2255  0.3844
   33CHL1   H1A 3593   5.698   3.674   6.598  0.7593  1.0636  0.1274
   33CHL1   H1B 3594   5.618   3.838   6.592 -2.1084  1.1965  2.4790
   33CHL1    C2 3595   5.591   3.724   6.778 -0.3061  0.4321  0.2461
   33CHL1   H2A 3596   5.671   3.787   6.823  2.1319 -1.9256 -0.5348
   33CHL1   H2B 3597   5.608   3.620   6.811 -0.8335  0.3817  0.3774
   33CHL1   C20 3598   5.463   3.668   5.827  0.2102 -0.6145 -0.0367
   33CHL1   H20 3599   5.400   3.579   5.808 -2.9675  1.1015  1.7150
   33CHL1   C21 3600   5.614   3.643   5.823 -0.5459 -0.3139 -0.3119
   33CHL1  H21A 3601   5.646   3.579   5.908  2.7344  1.8394  0.2642
   33CHL1  H21B 3602   5.667   3.739   5.838  3.2822 -2.4282  1.0448
   33CHL1  H21C 3603   5.652   3.604   5.726 -2.3555 -2.1347 -0.3581
   33CHL1   C22 3604   5.425   3.762   5.703 -0.5482  0.3452 -0.4963
   33CHL1  H22A 3605   5.316   3.757   5.680 -0.4955 -1.6305 -0.4765
   33CHL1  H22B 3606   5.456   3.867   5.720  1.6584 -0.2881 -0.2328
   33CHL1   C23 3607   5.486   3.729   5.568  0.2080 -0.8288  0.1544
   33CHL1  H23A 3608   5.596   3.737   5.573  0.3490 -1.7823 -0.9982
   33CHL1  H23B 3609   5.460   3.624   5.542 -1.3287 -0.5074  0.2518
   33CHL1   C24 3610   5.434   3.813   5.454 -0.1083  0.4384  0.2059
   33CHL1  H24A 3611   5.325   3.794   5.445  0.0692 -0.5646  0.0712
   33CHL1  H24B 3612   5.470   3.917   5.468 -0.3830  0.5854 -0.1653
   33CHL1   C25 3613   5.504   3.775   5.321  0.3113  0.4723  0.1226
   33CHL1   H25 3614   5.527   3.667   5.305  3.0513  0.8197  1.0602
   33CHL1   C26 3615   5.426   3.823   5.200  0.1529 -0.2539  0.3400
   33CHL1  H26A 3616   5.400   3.931   5.202 -0.5846 -0.3697 -1.3838
   33CHL1  H26B 3617   5.462   3.799   5.098 -1.9839  0.4106 -0.6287
   33CHL1  H26C 3618   5.328   3.771   5.212  0.9533 -1.6795  0.9191
   33CHL1   C27 3619   5.647   3.836   5.312 -0.8773  0.2274 -0.0444
   33CHL1  H27A 3620   5.708   3.814   5.403 -2.4169  2.4782  1.6611
   33CHL1  H27B 3621   5.692   3.789   5.222  0.8266  0.6892  0.5348
   33CHL1  H27C 3622   5.630   3.946   5.317 -3.5333 -0.1497  1.2012
   34CHL1    C3 3623   6.664   6.149   7.053  0.2490  0.3311 -0.1824
   34CHL1    H3 3624   6.705   6.250   7.033  0.9473  0.0297 -0.2904
   34CHL1    O3 3625   6.676   6.141   7.196  0.4014  0.5508 -0.0829
   34CHL1   H3' 3626   6.619   6.068   7.219 -0.3069  0.7519 -1.1226
   34CHL1    C4 3627   6.519   6.137   7.016 -0.3761 -0.2350 -0.2769
   34CHL1   H4A 3628   6.486   6.033   7.041  0.1427 -0.7455 -1.6202
   34CHL1   H4B 3629   6.458   6.207   7.077 -0.6270  0.3638 -1.1817
   34CHL1    C5 3630   6.501   6.165   6.863  0.3239  0.3807  0.6518
   34CHL1    C6 3631   6.433   6.262   6.812 -0.0625  0.7918 -0.7028
   34CHL1    H6 3632   6.379   6.333   6.876  0.6837  1.2996 -0.6320
   34CHL1    C7 3633   6.417   6.294   6.669  0.0725  0.4578  0.6074
   34CHL1   H7A 3634   6.323   6.346   6.641  0.1219 -0.3389 -1.1973
   34CHL1   H7B 3635   6.494   6.369   6.644 -0.5964  0.4622 -1.6870
   34CHL1    C8 3636   6.457   6.176   6.569 -0.5709  0.2379 -0.3952
   34CHL1    H8 3637   6.385   6.092   6.574  2.1127 -2.1717  0.6648
   34CHL1   C14 3638   6.470   6.226   6.428  0.3563 -0.6817 -0.2531
   34CHL1   H14 3639   6.539   6.313   6.434  0.7366 -0.9907 -0.0735
   34CHL1   C15 3640   6.333   6.285   6.379 -0.3249 -0.3858  0.3164
   34CHL1  H15A 3641   6.249   6.218   6.407  0.8711 -1.3033  1.8661
   34CHL1  H15B 3642   6.320   6.390   6.412 -3.1634 -0.1362 -1.2544
   34CHL1   C16 3643   6.368   6.282   6.220 -0.0696  0.2027 -0.1023
   34CHL1  H16A 3644   6.278   6.243   6.168 -0.1088 -0.3239  0.3560
   34CHL1  H16B 3645   6.387   6.389   6.199  0.3372  0.9556  3.5319
   34CHL1   C17 3646   6.485   6.189   6.194  0.0488 -0.0228 -0.3609
   34CHL1   H17 3647   6.571   6.258   6.175  0.0349  0.1001  0.0081
   34CHL1   C13 3648   6.515   6.120   6.332 -0.6160  0.6984 -0.2037
   34CHL1   C18 3649   6.415   5.999   6.335 -0.0297 -0.3829 -0.0809
   34CHL1  H18A 3650   6.448   5.911   6.277  0.6444 -0.5443  0.5329
   34CHL1  H18B 3651   6.401   5.959   6.438 -6.3268  0.6652 -0.1154
   34CHL1  H18C 3652   6.321   6.037   6.289  0.9616 -0.2351 -2.0784
   34CHL1   C12 3653   6.658   6.076   6.377  0.2323 -0.6802 -0.0943
   34CHL1  H12A 3654   6.719   6.016   6.306 -0.4152  0.7101 -1.8884
   34CHL1  H12B 3655   6.709   6.174   6.388  1.7717 -1.4956  0.3800
   34CHL1   C11 3656   6.672   6.020   6.523  0.4480 -0.4714 -0.4571
   34CHL1  H11A 3657   6.625   5.920   6.529 -0.1817 -0.1173  1.3181
   34CHL1  H11B 3658   6.778   6.012   6.555 -0.0746 -1.0350  1.2277
   34CHL1    C9 3659   6.601   6.117   6.621  0.1606 -0.1647 -0.9825
   34CHL1    H9 3660   6.658   6.213   6.621 -1.8317  1.0794  0.2755
   34CHL1   C10 3661   6.592   6.076   6.773  0.6279  0.5465 -0.3565
   34CHL1   C19 3662   6.524   5.934   6.770 -0.7562  0.1277  0.8004
   34CHL1  H19A 3663   6.418   5.942   6.739 -1.2045 -2.2540  1.5572
   34CHL1  H19B 3664   6.571   5.853   6.710 -3.7884 -1.4218  0.3544
   34CHL1  H19C 3665   6.517   5.895   6.873  0.7024 -0.9173  0.5366
   34CHL1    C1 3666   6.734   6.068   6.827 -1.1859 -0.4423 -0.4370
   34CHL1   H1A 3667   6.802   6.005   6.766  0.8155 -0.0968  1.3209
   34CHL1   H1B 3668   6.770   6.172   6.808  2.1706 -1.3737  0.0498
   34CHL1    C2 3669   6.741   6.044   6.979  0.1228  0.2252  0.1039
   34CHL1   H2A 3670   6.843   6.033   7.022  0.0964 -1.5834 -0.2026
   34CHL1   H2B 3671   6.695   5.946   7.004  0.7268 -0.0855  0.0153
   34CHL1   C20 3672   6.471   6.096   6.077 -0.3072 -0.0574 -0.0080
   34CHL1   H20 3673   6.389   6.026   6.103 -0.2414  0.6897  2.3948
   34CHL1   C21 3674   6.592   6.004   6.054 -0.0359 -0.3537 -0.1344
   34CHL1  H21A 3675   6.616   5.933   6.136  1.6808 -1.2798 -1.3655
   34CHL1  H21B 3676   6.684   6.064   6.034  0.2900 -0.5598  0.6722
   34CHL1  H21C 3677   6.575   5.938   5.967 -0.0237  1.4005 -1.5363
   34CHL1   C22 3678   6.439   6.171   5.945  0.0068  0.4190 -0.1285
   34CHL1  H22A 3679   6.363   6.251   5.957  0.1247  0.4990  0.0963
   34CHL1  H22B 3680   6.530   6.211   5.896  0.3878 -1.0507 -0.6890
   34CHL1   C23 3681   6.369   6.079   5.840 -0.1083 -0.5023  0.0024
   34CHL1  H23A 3682   6.437   5.992   5.827 -0.3445 -0.6869  0.0035
   34CHL1  H23B 3683   6.278   6.037   5.889  0.6583 -1.4206  0.6926
   34CHL1   C24 3684   6.326   6.131   5.705 -0.4743 -0.1677  0.0716
   34CHL1  H24A 3685   6.236   6.196   5.714  0.3389  1.4992 -2.5577
   34CHL1  H24B 3686   6.406   6.198   5.669 -1.4316  1.5608  1.0251
   34CHL1   C25 3687   6.301   6.015   5.603  0.3744 -0.0586 -0.0336
   34CHL1   H25 3688   6.389   5.948   5.591  0.8814  0.4577  0.7609
   34CHL1   C26 3689   6.175   5.938   5.655 -0.3171  0.2478  0.0884
   34CHL1  H26A 3690   6.198   5.852   5.722 -1.1369 -0.4547 -0.5022
   34CHL1  H26B 3691   6.107   6.015   5.698  0.7880  1.8991 -1.0091
   34CHL1  H26C 3692   6.128   5.897   5.563  0.0546  2.9993 -1.4293
   34CHL1   C27 3693   6.265   6.075   5.459 -0.0232 -0.1362 -0.9317
   34CHL1  H27A 3694   6.251   5.999   5.380  0.4611  2.2235 -3.4540
   34CHL1  H27B 3695   6.179   6.143   5.477  0.6031  0.3546  0.4001
   34CHL1  H27C 3696   6.344   6.143   5.420 -0.5120  0.8703 -0.2440
   35CHL1    C3 3697   2.708   6.019   6.974  0.4932  0.0718  0.5136
   35CHL1    H3 3698   2.771   5.928   6.959  1.3196  0.2702  2.4493
   35CHL1    O3 3699   2.719   6.048   7.108 -0.0816 -0.5148  0.3470
   35CHL1   H3' 3700   2.649   6.113   7.124 -0.5912 -0.2095 -2.4987
   35CHL1    C4 3701   2.755   6.139   6.892 -0.5389  0.1276 -0.9496
   35CHL1   H4A 3702   2.704   6.233   6.922  0.9450  0.4568  0.6827
   35CHL1   H4B 3703   2.860   6.155   6.923 -0.5683 -2.8757  1.1757
   35CHL1    C5 3704   2.747   6.116   6.744 -0.6199 -0.2418 -0.9029
   35CHL1    C6 3705   2.858   6.109   6.659  0.0772  0.1730 -0.0540
   35CHL1    H6 3706   2.956   6.137   6.698  0.5796  0.4604 -1.4594
   35CHL1    C7 3707   2.856   6.074   6.508  0.6390  0.1129  0.4674
   35CHL1   H7A 3708   2.930   6.144   6.462  2.5344  0.6656  4.0335
   35CHL1   H7B 3709   2.875   5.966   6.496 -1.7757 -0.2821 -0.4757
   35CHL1    C8 3710   2.706   6.088   6.452 -0.3892 -0.4921  0.5511
   35CHL1    H8 3711   2.688   6.198   6.451 -0.7174 -0.5381  1.2004
   35CHL1   C14 3712   2.696   6.039   6.310  0.6109 -0.2811 -0.4088
   35CHL1   H14 3713   2.706   5.929   6.318 -0.4330 -0.3570  0.0344
   35CHL1   C15 3714   2.797   6.083   6.210 -0.7592  0.4162 -0.3162
   35CHL1  H15A 3715   2.810   6.193   6.225 -3.4648  0.9007 -0.9359
   35CHL1  H15B 3716   2.897   6.035   6.214 -0.5142  0.9604  0.4617
   35CHL1   C16 3717   2.745   6.050   6.070  0.1447  0.8252 -0.4195
   35CHL1  H16A 3718   2.743   6.148   6.016  1.0801  1.5076  0.7451
   35CHL1  H16B 3719   2.804   5.974   6.014  0.9119 -0.6027  2.2023
   35CHL1   C17 3720   2.595   5.988   6.103 -0.0681  0.4847 -0.2997
   35CHL1   H17 3721   2.604   5.879   6.124 -0.2558  0.3358 -0.9791
   35CHL1   C13 3722   2.560   6.054   6.242  0.7720 -0.0860 -0.7220
   35CHL1   C18 3723   2.508   6.197   6.219 -0.0218 -0.3831  1.0545
   35CHL1  H18A 3724   2.519   6.256   6.313 -1.8189  0.0155  1.0319
   35CHL1  H18B 3725   2.571   6.243   6.140  0.6867 -1.8576  0.7256
   35CHL1  H18C 3726   2.403   6.201   6.185 -0.2289 -0.9413  1.5885
   35CHL1   C12 3727   2.457   5.986   6.330 -0.6152 -0.2738 -0.4905
   35CHL1  H12A 3728   2.349   6.005   6.310 -1.0647 -0.8752  1.1680
   35CHL1  H12B 3729   2.488   5.880   6.318 -1.4425 -0.6228  0.3130
   35CHL1   C11 3730   2.461   6.031   6.480  0.3899  0.0804  0.6286
   35CHL1  H11A 3731   2.431   6.138   6.483  1.9305  0.5205  1.1462
   35CHL1  H11B 3732   2.384   5.973   6.536 -1.2295  0.8331 -0.7232
   35CHL1    C9 3733   2.605   6.023   6.546  1.5353 -0.1173 -0.5458
   35CHL1    H9 3734   2.638   5.918   6.558  1.7799 -0.3827 -2.9089
   35CHL1   C10 3735   2.608   6.075   6.696 -0.6341 -0.5013 -0.5744
   35CHL1   C19 3736   2.512   6.197   6.711 -0.2188 -0.0579  0.4636
   35CHL1  H19A 3737   2.519   6.235   6.815  0.7841 -1.1564  0.8142
   35CHL1  H19B 3738   2.550   6.270   6.636 -1.4682 -1.0549 -1.2201
   35CHL1  H19C 3739   2.408   6.160   6.696 -0.4140 -0.2628  2.1284
   35CHL1    C1 3740   2.568   5.953   6.783  0.3628 -0.1345 -0.4035
   35CHL1   H1A 3741   2.470   5.915   6.747 -0.3030  1.6203 -0.5394
   35CHL1   H1B 3742   2.634   5.864   6.775 -1.7579 -1.9408  1.0366
   35CHL1    C2 3743   2.565   5.977   6.937  1.0716 -0.3931  0.0072
   35CHL1   H2A 3744   2.532   5.885   6.990  3.5196  0.3465  3.1445
   35CHL1   H2B 3745   2.492   6.059   6.953  0.0052 -1.4207  0.5740
   35CHL1   C20 3746   2.496   6.000   5.989  0.0198  0.1667 -0.0617
   35CHL1   H20 3747   2.479   6.109   5.975  1.3342  0.4045 -0.0181
   35CHL1   C21 3748   2.370   5.923   6.021  0.3190  0.1246  0.4556
   35CHL1  H21A 3749   2.401   5.818   6.037 -1.8993 -0.3409  1.9991
   35CHL1  H21B 3750   2.295   5.921   5.940 -0.8476  1.3063  1.4613
   35CHL1  H21C 3751   2.315   5.964   6.108  0.1518 -1.2554  1.0101
   35CHL1   C22 3752   2.568   5.928   5.865  0.8656 -0.3351  0.5587
   35CHL1  H22A 3753   2.668   5.976   5.851  0.5346  1.9952  4.7111
   35CHL1  H22B 3754   2.587   5.822   5.893  1.5673 -0.6039 -0.7940
   35CHL1   C23 3755   2.486   5.921   5.736  0.4130  0.6421 -0.2439
   35CHL1  H23A 3756   2.531   5.864   5.652  0.2628  0.7999 -0.4326
   35CHL1  H23B 3757   2.386   5.877   5.755  0.1287  0.4797 -2.0059
   35CHL1   C24 3758   2.468   6.068   5.684  0.5188  0.4599 -0.4790
   35CHL1  H24A 3759   2.407   6.115   5.764 -0.8986 -2.0781  0.0324
   35CHL1  H24B 3760   2.569   6.114   5.677  1.1403 -1.0617 -2.6591
   35CHL1   C25 3761   2.401   6.078   5.549 -0.1544 -0.1415 -0.1820
   35CHL1   H25 3762   2.389   6.188   5.540  0.7750  0.0817  1.1287
   35CHL1   C26 3763   2.489   6.038   5.430 -0.3782  0.2889  0.1278
   35CHL1  H26A 3764   2.511   5.930   5.427 -0.9021  0.1821  0.0160
   35CHL1  H26B 3765   2.450   6.082   5.336  0.5680  4.2592  1.4005
   35CHL1  H26C 3766   2.585   6.093   5.443 -0.3298  1.4462 -3.9453
   35CHL1   C27 3767   2.267   6.022   5.551  0.1600  0.1462  0.5361
   35CHL1  H27A 3768   2.222   6.045   5.452  0.0253  1.7063  0.9300
   35CHL1  H27B 3769   2.268   5.913   5.572  0.7777 -0.1625 -0.9258
   35CHL1  H27C 3770   2.203   6.072   5.626  0.9028 -1.4412  2.3052
   36CHL1    C3 3771   3.914   2.145   6.247 -0.2907  0.8638 -0.0716
   36CHL1    H3 3772   3.853   2.237   6.260 -3.6845 -1.4654  2.6916
   36CHL1    O3 3773   3.940   2.089   6.376  0.0180  0.4608 -0.3671
   36CHL1   H3' 3774   4.007   2.139   6.423 -0.0567 -0.4327  0.7533
   36CHL1    C4 3775   3.835   2.035   6.163 -0.2956  0.4230  0.1358
   36CHL1   H4A 3776   3.891   1.941   6.182 -1.4857 -0.3135  0.1159
   36CHL1   H4B 3777   3.737   2.010   6.210  1.8419 -0.8741  4.4491
   36CHL1    C5 3778   3.821   2.069   6.010 -0.3981  0.1058  0.1620
   36CHL1    C6 3779   3.699   2.067   5.949  0.2854 -0.0110 -0.2434
   36CHL1    H6 3780   3.612   2.052   6.015  1.0224  1.5207  1.1394
   36CHL1    C7 3781   3.684   2.072   5.802 -0.9758  0.4283  0.2633
   36CHL1   H7A 3782   3.628   1.987   5.757 -2.9906  2.0433 -0.4574
   36CHL1   H7B 3783   3.628   2.167   5.784  0.2579  0.8854 -1.4385
   36CHL1    C8 3784   3.817   2.073   5.730 -0.2814  0.0371 -0.3815
   36CHL1    H8 3785   3.863   1.972   5.724  1.5303  0.7624  0.5567
   36CHL1   C14 3786   3.800   2.130   5.594  0.4851 -0.1661 -0.0022
   36CHL1   H14 3787   3.773   2.237   5.611 -1.7904 -0.5223 -0.9146
   36CHL1   C15 3788   3.681   2.090   5.514  0.3421 -0.9539  0.0731
   36CHL1  H15A 3789   3.670   1.980   5.517  1.5430 -1.1748 -1.9906
   36CHL1  H15B 3790   3.586   2.143   5.534 -0.3147 -1.1021 -2.4242
   36CHL1   C16 3791   3.721   2.129   5.372  0.2477  0.3219 -0.2459
   36CHL1  H16A 3792   3.704   2.038   5.312  1.1292  0.2235 -0.3627
   36CHL1  H16B 3793   3.660   2.211   5.328 -0.0687 -0.2609 -0.8935
   36CHL1   C17 3794   3.869   2.180   5.371  0.3890  0.0843  0.2882
   36CHL1   H17 3795   3.865   2.289   5.388 -0.0278  0.2283 -0.6587
   36CHL1   C13 3796   3.930   2.125   5.500  0.2125  0.7562  0.1142
   36CHL1   C18 3797   3.983   1.981   5.478  0.6497 -0.3453 -0.4986
   36CHL1  H18A 3798   3.988   1.928   5.576  1.1623 -0.4172 -0.5613
   36CHL1  H18B 3799   3.907   1.928   5.417 -0.6640 -0.6474  1.2993
   36CHL1  H18C 3800   4.086   1.990   5.440  1.2776  4.5389  1.6646
   36CHL1   C12 3801   4.044   2.210   5.568  0.7233 -0.4678 -0.3628
   36CHL1  H12A 3802   4.140   2.194   5.513  1.1918  0.4631  0.1651
   36CHL1  H12B 3803   4.012   2.315   5.556 -0.6376 -1.0762 -2.8298
   36CHL1   C11 3804   4.063   2.172   5.712 -0.1669  0.7959 -0.5328
   36CHL1  H11A 3805   4.117   2.074   5.715  1.3121  1.6039  0.3280
   36CHL1  H11B 3806   4.129   2.239   5.770 -0.2386  0.6733 -0.3038
   36CHL1    C9 3807   3.932   2.150   5.796 -0.8865 -0.3211  0.7516
   36CHL1    H9 3808   3.891   2.253   5.801  1.3628  0.6731 -0.2032
   36CHL1   C10 3809   3.951   2.108   5.942  0.3241 -0.5528 -0.1534
   36CHL1   C19 3810   4.044   1.984   5.929  0.2593 -0.1029  0.4710
   36CHL1  H19A 3811   4.058   1.930   6.025  0.7749 -0.0958  0.4013
   36CHL1  H19B 3812   4.009   1.909   5.854 -1.1738  1.1710 -0.2078
   36CHL1  H19C 3813   4.143   2.014   5.890 -0.0136  2.8603  1.8040
   36CHL1    C1 3814   4.015   2.219   6.030 -0.5894 -0.5234  0.1516
   36CHL1   H1A 3815   4.118   2.247   5.997 -0.8315  1.5698  1.0066
   36CHL1   H1B 3816   3.952   2.309   6.040 -0.3767 -0.4205  0.6124
   36CHL1    C2 3817   4.047   2.175   6.176 -0.3802  0.3516 -0.0051
   36CHL1   H2A 3818   4.106   2.245   6.238 -0.7172  0.4701  0.1832
   36CHL1   H2B 3819   4.113   2.086   6.184  0.7779  1.3500  2.2910
   36CHL1   C20 3820   3.933   2.162   5.238  0.0960  0.9470  0.7201
   36CHL1   H20 3821   3.927   2.055   5.208  1.0132  0.8706  0.7777
   36CHL1   C21 3822   4.078   2.214   5.247 -0.2566  0.4736  0.1605
   36CHL1  H21A 3823   4.145   2.143   5.301  0.9574  1.4601 -0.0057
   36CHL1  H21B 3824   4.091   2.307   5.305 -0.4400  0.6845 -0.1368
   36CHL1  H21C 3825   4.126   2.220   5.147  0.4988 -1.3389  0.3736
   36CHL1   C22 3826   3.855   2.222   5.121  0.2621 -0.0996 -0.1466
   36CHL1  H22A 3827   3.749   2.191   5.133 -0.0940  1.4783  1.0195
   36CHL1  H22B 3828   3.857   2.330   5.145 -1.0336 -0.1771  0.4294
   36CHL1   C23 3829   3.901   2.171   4.982 -1.0291  0.3000 -0.0174
   36CHL1  H23A 3830   4.001   2.215   4.961 -0.6015 -0.7477 -0.1934
   36CHL1  H23B 3831   3.906   2.061   4.987  0.7140  0.3399 -0.3091
   36CHL1   C24 3832   3.798   2.210   4.873 -0.6243 -0.3394  0.3849
   36CHL1  H24A 3833   3.692   2.190   4.899 -0.8940 -1.3590 -1.3137
   36CHL1  H24B 3834   3.800   2.321   4.861  1.2452 -0.5808 -2.5979
   36CHL1   C25 3835   3.821   2.139   4.738  0.3627 -0.2608  0.4651
   36CHL1   H25 3836   3.843   2.031   4.745  1.8621 -0.0381 -0.3904
   36CHL1   C26 3837   3.696   2.155   4.641  0.2047 -0.5471 -0.1074
   36CHL1  H26A 3838   3.606   2.098   4.671 -0.0846 -0.6534 -1.1487
   36CHL1  H26B 3839   3.688   2.265   4.628  0.7771 -0.2513  1.6964
   36CHL1  H26C 3840   3.722   2.104   4.546 -1.2711  0.4567 -1.0905
   36CHL1   C27 3841   3.938   2.204   4.665 -0.1892 -0.1866  0.1081
   36CHL1  H27A 3842   4.040   2.182   4.702  0.6627  2.1999 -0.6787
   36CHL1  H27B 3843   3.948   2.163   4.563  0.1073 -0.2223  0.1518
   36CHL1  H27C 3844   3.931   2.315   4.668  0.8857 -0.1227  1.6733
   37CHL1    C3 3845   1.221   0.257   6.747 -0.4535  0.3969 -0.1375
   37CHL1    H3 3846   1.184   0.154   6.727  2.6952 -0.5760 -1.4974
   37CHL1    O3 3847   1.276   0.257   6.882  0.0413  0.1008  0.0224
   37CHL1   H3' 3848   1.350   0.318   6.885 -0.0537  0.1593  1.6760
   37CHL1    C4 3849   1.330   0.291   6.647 -0.2935 -0.6398 -0.0343
   37CHL1   H4A 3850   1.364   0.390   6.682 -0.8048 -1.1748  2.1892
   37CHL1   H4B 3851   1.404   0.209   6.658 -0.3092 -0.8030 -1.0447
   37CHL1    C5 3852   1.266   0.307   6.513  0.4175 -0.0847  0.4730
   37CHL1    C6 3853   1.299   0.224   6.414  0.2060  0.0970 -0.0487
   37CHL1    H6 3854   1.374   0.146   6.435  0.2623 -0.4695 -2.1012
   37CHL1    C7 3855   1.250   0.234   6.275 -0.8467  0.0780 -0.6081
   37CHL1   H7A 3856   1.331   0.211   6.202  0.5452 -0.8308  1.1370
   37CHL1   H7B 3857   1.170   0.158   6.262  1.6414 -2.9054  0.2945
   37CHL1    C8 3858   1.189   0.375   6.243  0.8024  0.4516  0.9908
   37CHL1    H8 3859   1.266   0.454   6.234  0.7679  0.3946  0.1589
   37CHL1   C14 3860   1.116   0.368   6.115 -0.0789 -0.0037  0.2577
   37CHL1   H14 3861   1.049   0.281   6.134  1.3882 -1.1040  0.6312
   37CHL1   C15 3862   1.196   0.321   5.990  0.2682 -0.0546 -0.6074
   37CHL1  H15A 3863   1.284   0.388   5.994 -0.7685  1.2972  2.4549
   37CHL1  H15B 3864   1.233   0.216   5.990  0.4433 -0.0015 -1.3652
   37CHL1   C16 3865   1.102   0.350   5.878  0.1655 -0.5145  0.3380
   37CHL1  H16A 3866   1.155   0.397   5.792 -0.2681 -2.8197 -1.2897
   37CHL1  H16B 3867   1.070   0.253   5.835  0.1769 -0.1130 -0.6220
   37CHL1   C17 3868   0.986   0.435   5.939  0.2538  0.2141 -0.6462
   37CHL1   H17 3869   0.900   0.369   5.965 -0.0953  0.9791  0.2281
   37CHL1   C13 3870   1.038   0.492   6.071 -0.0553  0.4368  0.3311
   37CHL1   C18 3871   1.123   0.614   6.034 -0.2467 -0.2818 -0.2744
   37CHL1  H18A 3872   1.175   0.591   5.939  0.9688 -1.7444  0.6906
   37CHL1  H18B 3873   1.067   0.710   6.041 -0.3402 -0.3620  0.0920
   37CHL1  H18C 3874   1.206   0.632   6.106 -0.7410  1.5395 -0.1063
   37CHL1   C12 3875   0.939   0.523   6.176  0.0888 -0.0668 -0.6251
   37CHL1  H12A 3876   0.899   0.622   6.144  0.6330  0.9675  1.7033
   37CHL1  H12B 3877   0.851   0.456   6.169  0.4653 -0.4419 -2.4172
   37CHL1   C11 3878   0.997   0.536   6.320  0.2927  0.0257 -0.1637
   37CHL1  H11A 3879   1.058   0.628   6.303  0.7942 -0.2696  0.0054
   37CHL1  H11B 3880   0.920   0.554   6.398  0.4388 -1.9392  0.4858
   37CHL1    C9 3881   1.085   0.408   6.357  0.1250  0.1922  0.1695
   37CHL1    H9 3882   1.018   0.321   6.371  1.9676 -1.0561  1.8721
   37CHL1   C10 3883   1.162   0.414   6.495  0.4996 -0.5151  0.2670
   37CHL1   C19 3884   1.220   0.552   6.510  0.7216  0.5224  0.3633
   37CHL1  H19A 3885   1.148   0.636   6.507 -1.6146 -1.2825  2.3025
   37CHL1  H19B 3886   1.274   0.565   6.606  0.4601  1.5166  0.3939
   37CHL1  H19C 3887   1.278   0.565   6.416  0.2824 -0.1906 -0.0185
   37CHL1    C1 3888   1.058   0.382   6.606  0.4181 -0.1038 -0.0747
   37CHL1   H1A 3889   0.982   0.463   6.604 -1.1323 -1.4657  0.8712
   37CHL1   H1B 3890   1.007   0.290   6.570 -0.7921  0.7255 -0.5145
   37CHL1    C2 3891   1.112   0.358   6.743 -0.1161  0.6509  0.3431
   37CHL1   H2A 3892   1.034   0.305   6.802 -1.0731 -0.2413 -1.6275
   37CHL1   H2B 3893   1.147   0.449   6.795  1.8268  1.2723 -1.8980
   37CHL1   C20 3894   0.923   0.527   5.841 -1.1015  0.1434 -0.3074
   37CHL1   H20 3895   0.998   0.600   5.804 -1.2442  1.7027  2.2390
   37CHL1   C21 3896   0.812   0.613   5.897  0.1127 -0.3333  0.2748
   37CHL1  H21A 3897   0.864   0.692   5.955  1.1600 -0.4671 -0.4380
   37CHL1  H21B 3898   0.743   0.553   5.959 -0.9066 -1.2941 -1.6806
   37CHL1  H21C 3899   0.753   0.658   5.815  0.2842  0.2041  0.4400
   37CHL1   C22 3900   0.874   0.445   5.717 -0.7984 -0.3125  0.0888
   37CHL1  H22A 3901   0.923   0.346   5.700 -0.6699  0.1667 -2.8005
   37CHL1  H22B 3902   0.764   0.432   5.709 -1.4611  1.8421  3.7306
   37CHL1   C23 3903   0.911   0.512   5.581  0.5707 -0.2955 -0.0603
   37CHL1  H23A 3904   0.866   0.613   5.573 -1.8053 -1.2280  0.5167
   37CHL1  H23B 3905   1.021   0.522   5.573  0.6414  0.1985  1.2566
   37CHL1   C24 3906   0.876   0.432   5.459  0.2901 -0.1355 -0.1708
   37CHL1  H24A 3907   0.905   0.326   5.468 -0.8653 -0.3021  2.5432
   37CHL1  H24B 3908   0.765   0.438   5.460  0.2921  0.4083 -1.3448
   37CHL1   C25 3909   0.929   0.484   5.322  0.1698  0.0539  0.1894
   37CHL1   H25 3910   0.884   0.583   5.302  0.2946 -0.2869 -2.0123
   37CHL1   C26 3911   1.076   0.513   5.317  0.1250  0.1811  0.3613
   37CHL1  H26A 3912   1.113   0.600   5.375  1.6149  0.3520 -0.8004
   37CHL1  H26B 3913   1.131   0.420   5.345  0.6457  0.6677  0.9887
   37CHL1  H26C 3914   1.107   0.526   5.211  0.8756 -0.4866  0.4830
   37CHL1   C27 3915   0.883   0.384   5.212 -0.1606  0.9505  0.7954
   37CHL1  H27A 3916   0.775   0.358   5.213  0.6917 -3.6513  3.4086
   37CHL1  H27B 3917   0.914   0.419   5.111 -1.9272 -1.5009 -0.6960
   37CHL1  H27C 3918   0.924   0.281   5.214 -0.9244  0.6498  1.2852
   38CHL1    C3 3919   0.602   2.832   6.427 -0.4998 -0.8616 -0.1440
   38CHL1    H3 3920   0.530   2.757   6.388 -1.0401 -0.2809 -0.2853
   38CHL1    O3 3921   0.641   2.799   6.558  0.0696  0.1948  0.2380
   38CHL1   H3' 3922   0.720   2.850   6.579 -1.5468  3.3180 -0.7398
   38CHL1    C4 3923   0.737   2.815   6.349  0.0478 -0.4513 -0.6746
   38CHL1   H4A 3924   0.812   2.876   6.403 -0.7655 -0.0204 -0.0013
   38CHL1   H4B 3925   0.772   2.710   6.361 -0.1595 -0.6066 -1.3508
   38CHL1    C5 3926   0.728   2.860   6.207  0.5246  0.5165  1.0160
   38CHL1    C6 3927   0.756   2.766   6.114  0.1808  0.0876  0.6295
   38CHL1    H6 3928   0.788   2.663   6.137 -1.9089 -1.4330 -2.5189
   38CHL1    C7 3929   0.759   2.802   5.964  0.5212  0.2515 -0.8889
   38CHL1   H7A 3930   0.852   2.761   5.919  0.4869 -0.3764 -0.4018
   38CHL1   H7B 3931   0.676   2.747   5.914 -0.2773  0.0267  0.6359
   38CHL1    C8 3932   0.743   2.963   5.944 -0.5773 -0.3424 -0.5369
   38CHL1    H8 3933   0.840   3.008   5.976 -1.9722  0.4557  3.0286
   38CHL1   C14 3934   0.716   2.991   5.797 -0.2557  0.1423  0.7302
   38CHL1   H14 3935   0.620   2.939   5.775  0.7485 -1.3237 -0.4496
   38CHL1   C15 3936   0.812   2.932   5.691  0.2695 -0.8808  0.0433
   38CHL1  H15A 3937   0.917   2.949   5.723  0.8547 -0.9330 -1.7197
   38CHL1  H15B 3938   0.806   2.821   5.687  1.0394 -0.9133 -0.9890
   38CHL1   C16 3939   0.778   3.003   5.560 -0.5158  0.4849 -0.6798
   38CHL1  H16A 3940   0.867   3.057   5.520  0.5116 -0.5607  0.1471
   38CHL1  H16B 3941   0.731   2.943   5.479 -1.0482  0.1451 -0.1318
   38CHL1   C17 3942   0.672   3.114   5.601 -0.2353 -0.3120  0.1452
   38CHL1   H17 3943   0.573   3.063   5.600 -1.3809  1.7744  1.0226
   38CHL1   C13 3944   0.686   3.139   5.754 -0.0410 -0.1909 -0.7368
   38CHL1   C18 3945   0.812   3.215   5.774  0.3410 -0.0090 -0.0293
   38CHL1  H18A 3946   0.889   3.194   5.696  1.3974 -2.8026  1.6041
   38CHL1  H18B 3947   0.793   3.324   5.781  0.6475  0.2157 -2.0827
   38CHL1  H18C 3948   0.857   3.179   5.869  2.8422 -0.3030 -1.2518
   38CHL1   C12 3949   0.572   3.194   5.848  0.1453  0.7078  0.1051
   38CHL1  H12A 3950   0.543   3.299   5.822 -0.4482  0.6638  0.5609
   38CHL1  H12B 3951   0.481   3.133   5.830  0.5685  0.1613 -0.2328
   38CHL1   C11 3952   0.609   3.173   5.997 -0.1634 -0.3999  0.0406
   38CHL1  H11A 3953   0.702   3.227   6.023 -0.6549 -0.2761  1.6297
   38CHL1  H11B 3954   0.533   3.222   6.062  0.3459 -0.3275  0.5823
   38CHL1    C9 3955   0.638   3.025   6.037  0.3551  0.2670 -0.1309
   38CHL1    H9 3956   0.546   2.970   6.008 -0.3194  1.5776 -0.5655
   38CHL1   C10 3957   0.675   3.001   6.187 -1.2472 -0.2227  0.1073
   38CHL1   C19 3958   0.785   3.108   6.222  0.1209  0.5310 -0.7890
   38CHL1  H19A 3959   0.737   3.208   6.222 -0.7922  0.1509  1.2296
   38CHL1  H19B 3960   0.826   3.100   6.325  0.1717  0.6510 -0.7988
   38CHL1  H19C 3961   0.867   3.099   6.147 -0.5225 -0.5433 -1.3906
   38CHL1    C1 3962   0.545   3.020   6.275  0.1450  0.6246 -0.4942
   38CHL1   H1A 3963   0.506   3.122   6.254  0.0010  0.4778 -0.9615
   38CHL1   H1B 3964   0.473   2.943   6.240  2.0871 -1.4939 -0.0543
   38CHL1    C2 3965   0.567   2.980   6.418  0.1036  0.0550 -0.3379
   38CHL1   H2A 3966   0.476   2.997   6.479  0.4923  1.6514 -0.1574
   38CHL1   H2B 3967   0.650   3.039   6.463  1.3013 -2.7032  1.2760
   38CHL1   C20 3968   0.672   3.225   5.499  0.4775 -0.3323 -0.0014
   38CHL1   H20 3969   0.776   3.263   5.501 -0.2273  1.9165 -1.9475
   38CHL1   C21 3970   0.575   3.335   5.535  0.4162  0.9511 -0.6355
   38CHL1  H21A 3971   0.591   3.370   5.639  0.0931  0.2903 -0.3613
   38CHL1  H21B 3972   0.470   3.299   5.528  0.4536  1.1792 -3.7964
   38CHL1  H21C 3973   0.586   3.422   5.467 -1.0798  0.3985 -1.6400
   38CHL1   C22 3974   0.657   3.182   5.352  0.2809  0.3944  0.2375
   38CHL1  H22A 3975   0.670   3.272   5.288 -1.7853 -0.3941 -1.3864
   38CHL1  H22B 3976   0.728   3.101   5.325 -2.1574 -0.8103 -3.3902
   38CHL1   C23 3977   0.509   3.127   5.313 -0.6592  0.5646 -0.0871
   38CHL1  H23A 3978   0.489   3.044   5.384 -0.0682 -0.2872 -0.9091
   38CHL1  H23B 3979   0.437   3.211   5.326 -3.0964 -1.1770 -1.4455
   38CHL1   C24 3980   0.486   3.075   5.164  0.1520 -0.7587 -0.0078
   38CHL1  H24A 3981   0.475   3.169   5.107 -2.5779 -0.3021  1.0930
   38CHL1  H24B 3982   0.567   3.003   5.140 -0.0019 -1.3084  1.0767
   38CHL1   C25 3983   0.355   3.003   5.144  0.6920 -0.1332  0.4966
   38CHL1   H25 3984   0.343   2.932   5.228  0.9942  1.0375  1.5623
   38CHL1   C26 3985   0.232   3.092   5.123  0.1630 -0.1493  0.5131
   38CHL1  H26A 3986   0.214   3.149   5.217  0.1370  1.3815 -0.4029
   38CHL1  H26B 3987   0.257   3.173   5.052  0.6144  0.3808  1.2649
   38CHL1  H26C 3988   0.143   3.037   5.086 -1.3183  1.7950  1.0316
   38CHL1   C27 3989   0.371   2.909   5.025 -1.0212 -0.6172  0.0586
   38CHL1  H27A 3990   0.456   2.842   5.048  0.6911  1.1080 -0.9843
   38CHL1  H27B 3991   0.286   2.837   5.019 -0.7664 -1.4886  4.1034
   38CHL1  H27C 3992   0.396   2.969   4.935  0.2592  0.0755  0.8441
   39CHL1    C3 3993   0.161   2.421   6.483 -0.2577 -0.6120 -0.0437
   39CHL1    H3 3994   0.060   2.426   6.438 -0.3328 -0.6355  0.1207
   39CHL1    O3 3995   0.169   2.398   6.621  0.6557  0.3379 -0.2733
   39CHL1   H3' 3996   0.264   2.391   6.634  0.8089 -0.4767 -1.5656
   39CHL1    C4 3997   0.253   2.312   6.420  0.9772  0.4094  0.5860
   39CHL1   H4A 3998   0.354   2.324   6.465  1.1379 -1.3850  0.7659
   39CHL1   H4B 3999   0.212   2.213   6.450  1.0177  0.7507  1.7999
   39CHL1    C5 4000   0.275   2.323   6.267 -0.7059  0.7246 -0.0300
   39CHL1    C6 4001   0.244   2.225   6.179  0.5694  1.3519 -0.1006
   39CHL1    H6 4002   0.206   2.128   6.214  1.0197  1.2218  0.0418
   39CHL1    C7 4003   0.256   2.243   6.028 -0.4065  0.0086  0.2077
   39CHL1   H7A 4004   0.317   2.161   5.987 -0.5593 -0.1379  0.2720
   39CHL1   H7B 4005   0.165   2.227   5.965 -0.2430  1.6954 -0.5088
   39CHL1    C8 4006   0.319   2.376   5.978 -0.3976  0.0323 -0.5008
   39CHL1    H8 4007   0.426   2.356   5.995 -0.5387  0.5100  1.1326
   39CHL1   C14 4008   0.289   2.403   5.839 -0.7406  0.4833  0.1587
   39CHL1   H14 4009   0.181   2.426   5.837 -0.5614  1.4767  0.8502
   39CHL1   C15 4010   0.309   2.294   5.729 -0.5865 -0.5796  0.0775
   39CHL1  H15A 4011   0.388   2.222   5.756 -1.1405 -0.4710  2.1289
   39CHL1  H15B 4012   0.213   2.237   5.728 -1.1174  0.2280  1.5850
   39CHL1   C16 4013   0.328   2.376   5.604  0.5623  0.5871 -0.1057
   39CHL1  H16A 4014   0.432   2.356   5.569  1.2531  0.7004  1.7625
   39CHL1  H16B 4015   0.256   2.340   5.527  0.6481  2.0392 -0.8988
   39CHL1   C17 4016   0.316   2.525   5.636  0.2712 -0.7710 -0.2695
   39CHL1   H17 4017   0.209   2.549   5.617  0.3458 -0.0371  0.1804
   39CHL1   C13 4018   0.356   2.531   5.784  0.2705 -0.8205  0.0479
   39CHL1   C18 4019   0.505   2.515   5.799  0.0183  0.9993  0.3069
   39CHL1  H18A 4020   0.527   2.500   5.907 -0.0182 -0.1113  0.1660
   39CHL1  H18B 4021   0.541   2.422   5.750 -0.4385  0.3593  1.1607
   39CHL1  H18C 4022   0.559   2.602   5.755 -0.3171  1.3750  0.6233
   39CHL1   C12 4023   0.315   2.652   5.861 -0.1566 -0.4348 -0.4737
   39CHL1  H12A 4024   0.377   2.742   5.844 -1.1432  0.6065  1.0966
   39CHL1  H12B 4025   0.215   2.690   5.830 -1.0019 -1.5458  0.7771
   39CHL1   C11 4026   0.326   2.631   6.019 -0.0877  0.4825 -0.4874
   39CHL1  H11A 4027   0.437   2.633   6.024 -0.0989  1.0210 -0.3076
   39CHL1  H11B 4028   0.279   2.717   6.072 -0.9710  0.5145 -1.2982
   39CHL1    C9 4029   0.278   2.492   6.071 -0.4240 -0.1298  0.2825
   39CHL1    H9 4030   0.167   2.501   6.064 -0.5050  0.2484  1.8131
   39CHL1   C10 4031   0.313   2.467   6.217 -0.3146  1.2508 -0.3043
   39CHL1   C19 4032   0.465   2.478   6.248  0.4681 -0.0058  0.7625
   39CHL1  H19A 4033   0.497   2.449   6.351  0.5134 -0.0161  0.7456
   39CHL1  H19B 4034   0.523   2.418   6.176  0.2118  1.1315 -0.4364
   39CHL1  H19C 4035   0.484   2.586   6.231  1.1979 -0.1159  0.8809
   39CHL1    C1 4036   0.234   2.571   6.304 -0.4524  0.7135  0.6951
   39CHL1   H1A 4037   0.268   2.674   6.282 -0.8668  0.8015  0.4618
   39CHL1   H1B 4038   0.126   2.564   6.281 -0.9936  0.5427  3.0805
   39CHL1    C2 4039   0.233   2.551   6.456  0.1499  0.0320  0.9041
   39CHL1   H2A 4040   0.186   2.641   6.501 -1.5266  1.0606 -2.5172
   39CHL1   H2B 4041   0.336   2.540   6.495  0.2228 -0.5548  0.5654
   39CHL1   C20 4042   0.393   2.614   5.543  0.0900 -0.9467  0.0220
   39CHL1   H20 4043   0.502   2.594   5.550  1.1690  3.0963 -2.0298
   39CHL1   C21 4044   0.365   2.772   5.569 -0.4876  0.4457 -0.0377
   39CHL1  H21A 4045   0.426   2.809   5.654  0.5732 -0.9460 -0.1374
   39CHL1  H21B 4046   0.260   2.805   5.563 -0.5765 -0.1270 -3.4931
   39CHL1  H21C 4047   0.417   2.823   5.485 -1.3889  0.3428 -0.6644
   39CHL1   C22 4048   0.354   2.582   5.392  0.7419 -0.3583  0.1780
   39CHL1  H22A 4049   0.411   2.650   5.327 -0.8108  1.2571  0.4410
   39CHL1  H22B 4050   0.404   2.489   5.357  2.0169  0.5822 -0.5765
   39CHL1   C23 4051   0.210   2.580   5.343  0.5832 -0.4115 -0.4942
   39CHL1  H23A 4052   0.145   2.497   5.379 -1.6616  1.8885  1.1269
   39CHL1  H23B 4053   0.163   2.677   5.367 -2.8950 -1.8846 -0.7106
   39CHL1   C24 4054   0.200   2.568   5.186  0.0832  0.2244  0.0961
   39CHL1  H24A 4055   0.257   2.652   5.140  0.5213  0.0279  0.2768
   39CHL1  H24B 4056   0.240   2.472   5.146  2.6208  0.6918  1.3013
   39CHL1   C25 4057   0.058   2.580   5.134  0.3792  0.3055  0.0053
   39CHL1   H25 4058  -0.006   2.516   5.198 -0.8163  1.2806 -0.1675
   39CHL1   C26 4059   0.008   2.727   5.154  0.2068  0.1554  0.2652
   39CHL1  H26A 4060   0.014   2.744   5.264 -0.9446 -1.3278  0.5828
   39CHL1  H26B 4061   0.080   2.797   5.107  1.3337 -0.7555  0.5903
   39CHL1  H26C 4062  -0.094   2.733   5.110 -0.0735  0.9360  0.9742
   39CHL1   C27 4063   0.044   2.546   4.982 -0.3250  0.5807  0.3550
   39CHL1  H27A 4064   0.119   2.597   4.917 -1.8626 -0.1513 -2.1269
   39CHL1  H27B 4065   0.051   2.437   4.961  0.5281  0.5317  0.8211
   39CHL1  H27C 4066  -0.055   2.582   4.947 -0.2720  0.8403  0.4655
   40CHL1    C3 4067   1.678   0.451   6.642  0.4229  0.1127  0.5217
   40CHL1    H3 4068   1.575   0.411   6.657  0.7366 -0.7189  0.4855
   40CHL1    O3 4069   1.735   0.462   6.775 -0.0304 -0.1738  0.2604
   40CHL1   H3' 4070   1.763   0.553   6.784 -2.0966  0.5629 -0.2257
   40CHL1    C4 4071   1.772   0.373   6.549 -0.0982  0.0488  0.1439
   40CHL1   H4A 4072   1.876   0.412   6.557  0.0412 -0.1195 -0.7615
   40CHL1   H4B 4073   1.773   0.272   6.595 -0.1561  0.8211  1.9201
   40CHL1    C5 4074   1.728   0.377   6.410 -0.4761  0.1709  0.3573
   40CHL1    C6 4075   1.710   0.259   6.343 -0.3068  0.7406 -0.6824
   40CHL1    H6 4076   1.722   0.158   6.386 -2.5050 -0.2729 -2.3048
   40CHL1    C7 4077   1.674   0.266   6.198  0.1417  0.4726  0.3790
   40CHL1   H7A 4078   1.747   0.202   6.145 -0.4445  0.0581  0.0613
   40CHL1   H7B 4079   1.573   0.223   6.180  0.6697 -0.0679 -1.5222
   40CHL1    C8 4080   1.678   0.403   6.133 -0.8841  0.0747 -0.2253
   40CHL1    H8 4081   1.786   0.421   6.113 -1.0591  0.5464 -0.7756
   40CHL1   C14 4082   1.599   0.407   5.997 -0.5382 -0.2434  0.1745
   40CHL1   H14 4083   1.493   0.387   6.023 -0.2912  0.2205  1.6345
   40CHL1   C15 4084   1.643   0.307   5.889 -0.1801 -0.0825 -0.0342
   40CHL1  H15A 4085   1.752   0.286   5.876 -0.4056  0.3984 -3.5036
   40CHL1  H15B 4086   1.600   0.207   5.910 -3.6813  1.2594 -0.2353
   40CHL1   C16 4087   1.580   0.346   5.762  0.1585  0.0114  0.4921
   40CHL1  H16A 4088   1.646   0.342   5.672 -2.5695  0.4434 -1.6890
   40CHL1  H16B 4089   1.491   0.295   5.718  0.6793 -0.3886 -0.1215
   40CHL1   C17 4090   1.528   0.495   5.792  0.0160  0.5513 -0.6644
   40CHL1   H17 4091   1.429   0.474   5.839  0.4975  2.6599  1.5220
   40CHL1   C13 4092   1.593   0.538   5.923  0.3639  0.2632 -0.3603
   40CHL1   C18 4093   1.732   0.587   5.895  0.2857 -0.2830  0.0719
   40CHL1  H18A 4094   1.790   0.520   5.827 -1.2690 -2.3141  0.6236
   40CHL1  H18B 4095   1.732   0.693   5.864 -0.0689  1.0078  3.9325
   40CHL1  H18C 4096   1.793   0.587   5.987 -0.6261  1.2595  0.7086
   40CHL1   C12 4097   1.522   0.640   6.022 -0.8144 -0.6369 -0.0087
   40CHL1  H12A 4098   1.525   0.731   5.959  2.2921 -0.8330 -0.2802
   40CHL1  H12B 4099   1.420   0.598   6.041  0.3690 -2.6254  2.5662
   40CHL1   C11 4100   1.597   0.651   6.161  0.1392  0.0346  0.5123
   40CHL1  H11A 4101   1.696   0.698   6.143 -0.6919  1.1058 -1.6462
   40CHL1  H11B 4102   1.529   0.715   6.222 -1.1376 -0.9479  0.1629
   40CHL1    C9 4103   1.612   0.509   6.224 -0.5822 -0.5886  0.5907
   40CHL1    H9 4104   1.510   0.473   6.252  0.0413 -2.5055  0.5195
   40CHL1   C10 4105   1.693   0.522   6.351  0.0422 -0.0432 -0.6597
   40CHL1   C19 4106   1.829   0.592   6.334 -0.3544 -0.0133  0.1471
   40CHL1  H19A 4107   1.812   0.701   6.322 -0.3870 -0.1314 -1.0249
   40CHL1  H19B 4108   1.894   0.585   6.424 -0.1318 -0.4170 -0.0423
   40CHL1  H19C 4109   1.897   0.565   6.250 -0.5745  0.9737 -0.3561
   40CHL1    C1 4110   1.599   0.592   6.456 -0.9489 -0.6571 -0.0407
   40CHL1   H1A 4111   1.590   0.700   6.430  1.2355 -0.5329 -0.4896
   40CHL1   H1B 4112   1.501   0.540   6.460 -0.6411 -1.1883  1.2579
   40CHL1    C2 4113   1.658   0.591   6.602 -0.4866 -0.1044  0.4626
   40CHL1   H2A 4114   1.585   0.653   6.659 -0.7059  0.9492 -0.9076
   40CHL1   H2B 4115   1.752   0.649   6.618  0.0865 -1.3340  1.7321
   40CHL1   C20 4116   1.515   0.584   5.676  0.3757 -0.9375 -0.5345
   40CHL1   H20 4117   1.487   0.685   5.713  1.7082 -0.9630  0.6442
   40CHL1   C21 4118   1.397   0.536   5.586 -0.6755  0.4376  0.4687
   40CHL1  H21A 4119   1.437   0.447   5.533  0.9204  0.1391  2.0886
   40CHL1  H21B 4120   1.367   0.601   5.500 -0.4676  0.4682  0.4186
   40CHL1  H21C 4121   1.312   0.509   5.652  0.4414 -0.1571  1.7057
   40CHL1   C22 4122   1.639   0.617   5.583 -0.6252  0.2369  0.0201
   40CHL1  H22A 4123   1.732   0.634   5.642  0.9435 -1.6369 -1.7598
   40CHL1  H22B 4124   1.659   0.523   5.527 -3.6445 -0.2801 -0.3728
   40CHL1   C23 4125   1.615   0.739   5.490 -0.0454  0.2660  0.7046
   40CHL1  H23A 4126   1.565   0.697   5.400  1.6545 -2.3500  0.8713
   40CHL1  H23B 4127   1.535   0.795   5.543 -0.2137 -1.1573  2.0476
   40CHL1   C24 4128   1.733   0.824   5.457  0.2879  0.3946  0.4836
   40CHL1  H24A 4129   1.783   0.856   5.551  0.9181  0.9075 -0.0158
   40CHL1  H24B 4130   1.806   0.753   5.413 -1.8901 -3.7593  2.9891
   40CHL1   C25 4131   1.690   0.939   5.363 -0.0761 -0.0516 -0.4408
   40CHL1   H25 4132   1.629   0.888   5.285 -0.2332  0.6944 -0.8198
   40CHL1   C26 4133   1.593   1.044   5.424 -0.6118  0.5982 -0.1624
   40CHL1  H26A 4134   1.651   1.115   5.487 -1.2231  0.8210  0.1601
   40CHL1  H26B 4135   1.555   1.113   5.345  2.0339 -0.3474 -2.4504
   40CHL1  H26C 4136   1.503   0.999   5.470 -0.2024 -0.5835 -0.4985
   40CHL1   C27 4137   1.788   1.018   5.288 -0.2422  0.0717  0.3690
   40CHL1  H27A 4138   1.852   1.069   5.362 -1.5897  0.0370  1.5927
   40CHL1  H27B 4139   1.841   0.948   5.219  2.3601  0.5529  1.7605
   40CHL1  H27C 4140   1.746   1.093   5.217 -0.2580 -1.5621 -1.4439
   41CHL1    C3 4141   4.413   4.157   6.625  0.5196 -0.5553  0.3173
   41CHL1    H3 4142   4.491   4.078   6.632 -1.0735 -2.1023  1.4554
   41CHL1    O3 4143   4.383   4.183   6.759  0.3151  0.3767  0.1767
   41CHL1   H3' 4144   4.291   4.212   6.751  0.0596 -0.7006 -1.3183
   41CHL1    C4 4145   4.458   4.280   6.540 -0.6091  0.1329  0.0963
   41CHL1   H4A 4146   4.377   4.356   6.542  1.2471  2.2479 -0.9560
   41CHL1   H4B 4147   4.552   4.323   6.580  0.1100  1.0453 -2.4277
   41CHL1    C5 4148   4.489   4.245   6.398  0.5000  0.5803  0.2513
   41CHL1    C6 4149   4.616   4.264   6.338 -0.4883  0.4483  0.0368
   41CHL1    H6 4150   4.697   4.322   6.384  1.0317 -0.3530 -1.5517
   41CHL1    C7 4151   4.642   4.213   6.197  0.5586 -0.2151 -0.0922
   41CHL1   H7A 4152   4.694   4.295   6.142  0.8052 -1.1430 -1.2771
   41CHL1   H7B 4153   4.710   4.126   6.192  0.6624 -0.0620 -3.1350
   41CHL1    C8 4154   4.510   4.176   6.124  0.0735  0.1360 -0.2782
   41CHL1    H8 4155   4.457   4.270   6.098 -2.5058 -1.2473 -0.2892
   41CHL1   C14 4156   4.541   4.099   5.997 -0.0075 -0.7013 -0.4397
   41CHL1   H14 4157   4.600   4.014   6.036 -2.4399 -1.1757  2.6508
   41CHL1   C15 4158   4.633   4.166   5.893  0.4724 -0.3471 -0.1439
   41CHL1  H15A 4159   4.610   4.274   5.883  0.6344 -0.4420 -1.7454
   41CHL1  H15B 4160   4.735   4.156   5.936 -0.4541 -0.1688  2.2399
   41CHL1   C16 4161   4.605   4.108   5.750 -0.7067  0.4840 -0.3369
   41CHL1  H16A 4162   4.574   4.191   5.683 -2.1081  0.3688  0.1344
   41CHL1  H16B 4163   4.698   4.057   5.717 -0.8209  0.6816 -0.9782
   41CHL1   C17 4164   4.494   3.997   5.777  0.4794 -0.1496  0.4903
   41CHL1   H17 4165   4.529   3.894   5.800 -1.1747 -1.0327 -0.7424
   41CHL1   C13 4166   4.424   4.047   5.911 -0.0217  0.2517  0.6892
   41CHL1   C18 4167   4.336   4.164   5.877 -0.4687  0.4168 -0.8971
   41CHL1  H18A 4168   4.378   4.225   5.795  0.1097 -0.2148 -1.0782
   41CHL1  H18B 4169   4.240   4.121   5.840 -0.4391 -0.5597  0.1115
   41CHL1  H18C 4170   4.317   4.235   5.960  0.0702  0.1967 -0.5840
   41CHL1   C12 4171   4.351   3.950   5.999  0.2617 -0.2499 -0.0463
   41CHL1  H12A 4172   4.262   3.907   5.948 -1.3614  0.9145  1.6764
   41CHL1  H12B 4173   4.424   3.873   6.029  3.1794  1.6335 -1.7946
   41CHL1   C11 4174   4.298   4.019   6.133 -0.3291 -0.1252  0.6663
   41CHL1  H11A 4175   4.222   4.095   6.102 -0.9950 -1.4626 -1.1339
   41CHL1  H11B 4176   4.252   3.938   6.193  0.3286 -1.0849 -0.0983
   41CHL1    C9 4177   4.414   4.091   6.205  0.1662 -0.2386 -0.4420
   41CHL1    H9 4178   4.469   3.999   6.235 -0.8704  0.2309  3.4360
   41CHL1   C10 4179   4.375   4.163   6.332 -0.1971  0.3143  0.1837
   41CHL1   C19 4180   4.267   4.263   6.300 -0.1510 -0.1764 -0.3897
   41CHL1  H19A 4181   4.180   4.223   6.243 -1.7447  3.1516 -0.4977
   41CHL1  H19B 4182   4.226   4.308   6.393 -2.7259  0.1725 -1.5902
   41CHL1  H19C 4183   4.315   4.351   6.253  0.5999  1.6277  3.3760
   41CHL1    C1 4184   4.317   4.050   6.428 -0.2634 -0.1324  0.0907
   41CHL1   H1A 4185   4.217   4.036   6.382 -0.3775  1.2327 -0.1426
   41CHL1   H1B 4186   4.382   3.961   6.439  0.1485 -0.0190 -1.2664
   41CHL1    C2 4187   4.289   4.101   6.567 -0.6226  0.2843  0.0609
   41CHL1   H2A 4188   4.258   4.015   6.629  0.4540  1.0589  1.7315
   41CHL1   H2B 4189   4.209   4.178   6.562 -0.8090  0.0942  0.0915
   41CHL1   C20 4190   4.413   3.985   5.645  0.2665 -0.1093 -0.1411
   41CHL1   H20 4191   4.364   4.082   5.624  0.0473 -0.1373  0.2306
   41CHL1   C21 4192   4.289   3.888   5.665  0.1407  0.4364  0.3586
   41CHL1  H21A 4193   4.315   3.793   5.716  0.9673  1.1855  1.3895
   41CHL1  H21B 4194   4.245   3.883   5.564  0.6475 -0.2920  0.1718
   41CHL1  H21C 4195   4.217   3.943   5.731 -1.6573 -0.6314 -0.6428
   41CHL1   C22 4196   4.505   3.946   5.523  0.4014  0.8301 -0.3658
   41CHL1  H22A 4197   4.592   4.016   5.520  0.7678  0.4638  1.0457
   41CHL1  H22B 4198   4.536   3.840   5.530 -2.3148  0.0261  0.8046
   41CHL1   C23 4199   4.445   3.960   5.377  0.7152  0.6433 -0.1897
   41CHL1  H23A 4200   4.382   3.869   5.365  0.4947  0.9849 -1.9244
   41CHL1  H23B 4201   4.380   4.050   5.378 -0.7764 -0.3998 -0.2495
   41CHL1   C24 4202   4.552   3.975   5.264 -0.3435 -0.2256 -0.3225
   41CHL1  H24A 4203   4.611   4.067   5.284 -3.0288  1.2321  1.5541
   41CHL1  H24B 4204   4.617   3.886   5.273 -1.8441 -1.4230 -0.8358
   41CHL1   C25 4205   4.494   3.977   5.119  0.1039 -0.3737 -0.1714
   41CHL1   H25 4206   4.416   4.055   5.106 -1.8954 -1.9545  1.4583
   41CHL1   C26 4207   4.603   4.008   5.019 -0.8155 -0.0516 -0.3642
   41CHL1  H26A 4208   4.669   3.920   5.000  1.6165  0.9589  2.5984
   41CHL1  H26B 4209   4.557   4.040   4.923  1.7318 -0.7044 -1.9242
   41CHL1  H26C 4210   4.664   4.098   5.039 -0.4440 -0.2590 -0.5363
   41CHL1   C27 4211   4.438   3.844   5.088  0.2870  0.2034  0.7883
   41CHL1  H27A 4212   4.424   3.826   4.979  2.1468  0.7026  0.4197
   41CHL1  H27B 4213   4.508   3.765   5.120  0.0656 -0.8551 -1.1936
   41CHL1  H27C 4214   4.342   3.827   5.141 -0.8201  0.2988 -1.0821
   42CHL1    C3 4215   5.292   5.637   6.411  0.0867  0.1583  0.2384
   42CHL1    H3 4216   5.286   5.748   6.410  0.8155  0.2066 -0.5215
   42CHL1    O3 4217   5.328   5.611   6.547 -0.1103 -0.1902 -0.4255
   42CHL1   H3' 4218   5.333   5.696   6.591  1.8810 -0.2171 -0.4968
   42CHL1    C4 4219   5.158   5.594   6.367  0.7165 -0.1974 -0.4037
   42CHL1   H4A 4220   5.157   5.485   6.388  2.3740 -0.6775 -2.4865
   42CHL1   H4B 4221   5.077   5.639   6.430  0.8345 -0.9082  0.2678
   42CHL1    C5 4222   5.123   5.611   6.224  0.3542 -0.0790 -0.2505
   42CHL1    C6 4223   5.027   5.693   6.189  1.4135 -0.0944  0.6963
   42CHL1    H6 4224   4.957   5.723   6.268 -1.1139 -0.2352 -1.3983
   42CHL1    C7 4225   4.992   5.723   6.046  0.0399 -0.3989  0.7443
   42CHL1   H7A 4226   4.883   5.736   6.028  0.1807 -1.3496 -1.0347
   42CHL1   H7B 4227   5.036   5.818   6.007 -0.8607 -0.6549 -1.0162
   42CHL1    C8 4228   5.056   5.624   5.947 -0.1046  0.2560 -0.3068
   42CHL1    H8 4229   5.003   5.526   5.942 -1.1449  0.7827  0.2020
   42CHL1   C14 4230   5.044   5.686   5.802 -0.0356  0.2494  0.9583
   42CHL1   H14 4231   5.094   5.784   5.813  1.4215 -0.2262 -0.9483
   42CHL1   C15 4232   4.906   5.726   5.752 -0.4663 -0.1419  0.6869
   42CHL1  H15A 4233   4.835   5.642   5.767 -0.7561 -0.2465 -1.0605
   42CHL1  H15B 4234   4.856   5.811   5.803 -0.0810  0.3085  0.3232
   42CHL1   C16 4235   4.924   5.739   5.603  0.5049 -0.5184 -0.2721
   42CHL1  H16A 4236   4.861   5.667   5.546  0.0716 -2.3187  2.2888
   42CHL1  H16B 4237   4.912   5.844   5.569 -0.0401 -1.0519 -1.8186
   42CHL1   C17 4238   5.071   5.705   5.575 -0.3796  0.7196  0.0955
   42CHL1   H17 4239   5.137   5.793   5.594  2.6037 -1.1906 -0.7204
   42CHL1   C13 4240   5.108   5.612   5.691  0.4849  0.1494  0.2202
   42CHL1   C18 4241   5.044   5.472   5.667  0.3072 -0.4377 -0.1210
   42CHL1  H18A 4242   5.060   5.413   5.759 -0.2224  2.0562  1.6812
   42CHL1  H18B 4243   4.936   5.492   5.646  0.5737  0.1400 -0.9962
   42CHL1  H18C 4244   5.085   5.428   5.573  4.8033  1.4378  0.7199
   42CHL1   C12 4245   5.255   5.588   5.734 -0.4347 -0.4044  0.2705
   42CHL1  H12A 4246   5.321   5.521   5.675  0.6891  0.4061  0.5615
   42CHL1  H12B 4247   5.307   5.686   5.734 -1.5268  0.2545 -1.9656
   42CHL1   C11 4248   5.279   5.525   5.872 -1.0611 -0.5989 -0.3918
   42CHL1  H11A 4249   5.257   5.416   5.867 -1.4380 -0.5905  0.7022
   42CHL1  H11B 4250   5.388   5.525   5.892 -0.8178 -1.2935 -1.6104
   42CHL1    C9 4251   5.205   5.601   5.983 -0.0543 -0.1054 -0.6440
   42CHL1    H9 4252   5.249   5.702   5.970  2.4006 -1.1048 -0.7139
   42CHL1   C10 4253   5.227   5.552   6.128 -0.4790 -0.1940  0.1191
   42CHL1   C19 4254   5.215   5.404   6.140 -0.0167  0.2077  0.0651
   42CHL1  H19A 4255   5.221   5.374   6.247  2.5952 -0.5640 -0.2435
   42CHL1  H19B 4256   5.121   5.357   6.105 -1.0803  1.6003  0.9241
   42CHL1  H19C 4257   5.296   5.349   6.088  1.8333  1.3920  1.5283
   42CHL1    C1 4258   5.369   5.611   6.173 -0.0914 -0.3515 -0.3561
   42CHL1   H1A 4259   5.440   5.569   6.098 -3.0650 -2.8477 -2.0038
   42CHL1   H1B 4260   5.372   5.722   6.167  0.6754 -0.4060 -1.2812
   42CHL1    C2 4261   5.407   5.572   6.322  0.3744 -0.7321 -0.1791
   42CHL1   H2A 4262   5.500   5.623   6.354  0.0977  0.4223 -1.1313
   42CHL1   H2B 4263   5.401   5.462   6.331 -1.8942 -0.6371  0.2609
   42CHL1   C20 4264   5.098   5.658   5.429 -0.0517  0.1150 -0.0991
   42CHL1   H20 4265   5.049   5.558   5.417 -0.7574  0.6164 -1.7167
   42CHL1   C21 4266   5.250   5.633   5.403 -0.4864 -0.0299  0.3421
   42CHL1  H21A 4267   5.279   5.539   5.454 -0.9284  0.8615  2.3353
   42CHL1  H21B 4268   5.311   5.717   5.443 -0.7875  0.2052  0.3088
   42CHL1  H21C 4269   5.275   5.627   5.295  1.0958  1.1908  0.6154
   42CHL1   C22 4270   5.045   5.761   5.327  1.5052 -0.1651  0.5143
   42CHL1  H22A 4271   5.063   5.725   5.223 -0.3930  0.4562 -0.0750
   42CHL1  H22B 4272   4.935   5.774   5.318  1.7600  1.0431 -1.5522
   42CHL1   C23 4273   5.110   5.903   5.331 -0.1696  0.5368 -0.7951
   42CHL1  H23A 4274   5.088   5.947   5.431 -0.1800 -0.4417 -0.3582
   42CHL1  H23B 4275   5.218   5.890   5.308 -0.3187 -0.4145 -0.9923
   42CHL1   C24 4276   5.040   6.000   5.234 -0.0968 -0.3722  0.4157
   42CHL1  H24A 4277   5.104   6.091   5.230  1.0266 -1.0780  1.6822
   42CHL1  H24B 4278   5.052   5.955   5.133  0.6050 -0.9429  0.7478
   42CHL1   C25 4279   4.891   6.041   5.261 -0.3764  1.1883  0.4736
   42CHL1   H25 4280   4.824   5.953   5.275  1.4752 -0.4662 -0.5952
   42CHL1   C26 4281   4.877   6.127   5.393 -0.6937  0.1819  0.1077
   42CHL1  H26A 4282   4.931   6.220   5.366  2.2030 -1.1351  1.0292
   42CHL1  H26B 4283   4.774   6.167   5.402  0.5938  3.5948  1.0982
   42CHL1  H26C 4284   4.918   6.067   5.477 -0.6112 -1.3490 -0.9805
   42CHL1   C27 4285   4.829   6.120   5.148  0.2607  0.7440  0.5308
   42CHL1  H27A 4286   4.914   6.169   5.096  1.0794 -0.5419  0.6257
   42CHL1  H27B 4287   4.783   6.041   5.085  0.2969  0.2238  1.1570
   42CHL1  H27C 4288   4.748   6.188   5.181  0.0603  0.4512  0.6453
   43CHL1    C3 4289   1.996   2.728   6.271 -0.1199 -0.1594 -0.2441
   43CHL1    H3 4290   1.955   2.819   6.223 -3.5372 -1.2816  0.2471
   43CHL1    O3 4291   1.996   2.727   6.412  0.0672 -0.4183 -0.5651
   43CHL1   H3' 4292   2.005   2.639   6.448 -0.4190 -1.1073 -2.0483
   43CHL1    C4 4293   1.904   2.608   6.228  0.3782 -0.1799 -0.8614
   43CHL1   H4A 4294   1.952   2.516   6.268  0.3325 -0.6857 -1.9284
   43CHL1   H4B 4295   1.796   2.622   6.250  0.0382 -2.9587 -0.4227
   43CHL1    C5 4296   1.896   2.592   6.077  0.4147  0.2883 -0.7189
   43CHL1    C6 4297   1.776   2.603   6.017  0.3780  0.2580  1.2734
   43CHL1    H6 4298   1.680   2.621   6.068 -1.6445 -2.4606 -1.2016
   43CHL1    C7 4299   1.763   2.566   5.872 -0.0805 -0.6905  0.0748
   43CHL1   H7A 4300   1.674   2.501   5.858 -1.4544  1.0103  0.5131
   43CHL1   H7B 4301   1.736   2.659   5.819 -0.7368 -1.7409 -1.4894
   43CHL1    C8 4302   1.893   2.508   5.807 -0.0745 -0.7048  0.1274
   43CHL1    H8 4303   1.901   2.403   5.842  0.8913 -0.8402 -0.4416
   43CHL1   C14 4304   1.887   2.508   5.652  0.4792 -0.3255  0.1740
   43CHL1   H14 4305   1.877   2.610   5.610 -2.0200 -0.6768 -0.2512
   43CHL1   C15 4306   1.761   2.452   5.577 -0.1470  0.0927 -0.3278
   43CHL1  H15A 4307   1.725   2.367   5.639  3.4724 -0.5780  1.0593
   43CHL1  H15B 4308   1.674   2.518   5.554  0.2336 -0.1715 -2.8626
   43CHL1   C16 4309   1.820   2.429   5.435 -0.2263  0.3472 -0.1709
   43CHL1  H16A 4310   1.778   2.330   5.407 -0.0399  0.3623 -0.5216
   43CHL1  H16B 4311   1.778   2.502   5.362 -0.1033 -0.3776 -0.9856
   43CHL1   C17 4312   1.974   2.440   5.442 -0.4726 -0.5439  0.1776
   43CHL1   H17 4313   1.998   2.535   5.390 -0.1940  0.2736  1.7505
   43CHL1   C13 4314   2.012   2.449   5.590 -0.0300 -1.0123  0.0104
   43CHL1   C18 4315   2.046   2.314   5.644  0.1316  0.3732  0.7201
   43CHL1  H18A 4316   1.953   2.260   5.616 -0.6417  1.3944  1.2494
   43CHL1  H18B 4317   2.134   2.266   5.597  0.5602 -1.0832  2.8738
   43CHL1  H18C 4318   2.058   2.310   5.754 -0.0776 -1.3393  0.7132
   43CHL1   C12 4319   2.126   2.554   5.616 -0.2450  0.2536 -0.5317
   43CHL1  H12A 4320   2.231   2.528   5.592 -0.0059  0.0170  0.6894
   43CHL1  H12B 4321   2.114   2.656   5.574 -0.4654 -0.1143 -1.3686
   43CHL1   C11 4322   2.145   2.569   5.768 -0.5847  0.3040 -0.4365
   43CHL1  H11A 4323   2.203   2.484   5.810  0.9935  1.9318  0.8684
   43CHL1  H11B 4324   2.218   2.651   5.783  1.1592 -1.3511  0.6152
   43CHL1    C9 4325   2.014   2.588   5.856  0.4483 -0.4661 -0.7071
   43CHL1    H9 4326   1.996   2.693   5.825  0.1300 -0.2507  0.1676
   43CHL1   C10 4327   2.030   2.581   6.008 -0.2717 -0.1234 -0.3148
   43CHL1   C19 4328   2.097   2.440   6.043 -0.6690  0.0897 -0.1205
   43CHL1  H19A 4329   2.200   2.432   6.002 -0.1644 -3.1286  1.5395
   43CHL1  H19B 4330   2.102   2.424   6.152 -2.9127  0.2388  0.0563
   43CHL1  H19C 4331   2.040   2.359   5.993  2.0584 -2.8839  1.2760
   43CHL1    C1 4332   2.134   2.691   6.057 -0.0400 -1.0668  1.1657
   43CHL1   H1A 4333   2.232   2.688   6.004  0.4804 -0.5329  2.0660
   43CHL1   H1B 4334   2.092   2.791   6.031  2.2424 -0.1554  0.7132
   43CHL1    C2 4335   2.140   2.702   6.217  0.1917  0.0854 -0.2142
   43CHL1   H2A 4336   2.198   2.790   6.251  1.2070 -0.9422  0.7802
   43CHL1   H2B 4337   2.179   2.610   6.265 -1.0874 -0.3229  0.0779
   43CHL1   C20 4338   2.050   2.338   5.356  0.2885  0.1503 -0.3203
   43CHL1   H20 4339   2.045   2.236   5.401  1.0959  0.7571  1.2173
   43CHL1   C21 4340   2.193   2.380   5.350  0.0509 -0.1228  0.0672
   43CHL1  H21A 4341   2.252   2.323   5.275 -1.4048  2.2445 -3.1055
   43CHL1  H21B 4342   2.252   2.382   5.444  3.5761  0.3796 -1.9753
   43CHL1  H21C 4343   2.206   2.485   5.315 -0.5048 -0.0819 -0.0161
   43CHL1   C22 4344   1.997   2.321   5.213  0.9052  0.5714  0.1809
   43CHL1  H22A 4345   2.061   2.256   5.150  1.4143  1.3628 -0.1373
   43CHL1  H22B 4346   1.906   2.261   5.231  1.6147  0.1127  2.7256
   43CHL1   C23 4347   1.974   2.444   5.134 -0.1028  0.0063 -0.0946
   43CHL1  H23A 4348   1.910   2.522   5.180 -0.5531 -0.9119  0.8505
   43CHL1  H23B 4349   2.067   2.501   5.111 -2.5164  4.5864  0.1912
   43CHL1   C24 4350   1.895   2.414   5.004  0.2752  1.1987  0.5380
   43CHL1  H24A 4351   1.942   2.346   4.930 -1.5894  2.3043 -1.7987
   43CHL1  H24B 4352   1.805   2.371   5.054  1.4934 -0.9318  1.0313
   43CHL1   C25 4353   1.860   2.534   4.912  0.0536 -0.5563  0.0228
   43CHL1   H25 4354   1.789   2.602   4.964 -3.2844 -0.7343 -3.8440
   43CHL1   C26 4355   1.983   2.626   4.897  0.7882  0.7535  0.4489
   43CHL1  H26A 4356   2.012   2.670   4.995  0.2354  0.6851  0.6468
   43CHL1  H26B 4357   2.068   2.563   4.863 -0.1625 -0.3131 -0.0260
   43CHL1  H26C 4358   1.956   2.703   4.822 -1.1550 -1.4137 -1.2390
   43CHL1   C27 4359   1.811   2.494   4.773 -0.3921 -0.0780 -0.2769
   43CHL1  H27A 4360   1.890   2.444   4.714  0.4348  0.2097  0.5528
   43CHL1  H27B 4361   1.727   2.422   4.777 -1.8536  1.6146  2.1271
   43CHL1  H27C 4362   1.773   2.581   4.715 -1.2128  0.5327  1.1286
   44CHL1    C3 4363   3.426   2.454   6.282 -0.4274  0.7548  0.2058
   44CHL1    H3 4364   3.316   2.463   6.284 -0.3553  1.9060 -0.2601
   44CHL1    O3 4365   3.477   2.430   6.413 -0.2967 -0.4539 -0.0908
   44CHL1   H3' 4366   3.572   2.427   6.401 -0.2532  3.1039 -1.6806
   44CHL1    C4 4367   3.454   2.331   6.185  0.3066 -0.5595 -0.1814
   44CHL1   H4A 4368   3.563   2.312   6.191  0.2991 -0.0509  2.3032
   44CHL1   H4B 4369   3.402   2.248   6.239  0.7163  1.0813  2.9684
   44CHL1    C5 4370   3.408   2.361   6.046  0.1478 -0.0596  0.0088
   44CHL1    C6 4371   3.327   2.269   5.990  0.3957  0.6294  0.1025
   44CHL1    H6 4372   3.292   2.183   6.048 -0.4800  0.4834 -0.6156
   44CHL1    C7 4373   3.294   2.286   5.851  0.1702 -0.1691  0.9053
   44CHL1   H7A 4374   3.307   2.192   5.793 -1.2639 -0.5291  1.1158
   44CHL1   H7B 4375   3.186   2.311   5.846 -0.2297 -0.6513  4.4546
   44CHL1    C8 4376   3.371   2.401   5.767  0.6420 -0.1800  0.1607
   44CHL1    H8 4377   3.464   2.349   5.733 -0.2645 -3.1881  1.9359
   44CHL1   C14 4378   3.293   2.428   5.642 -0.6698 -0.4501  0.7260
   44CHL1   H14 4379   3.192   2.460   5.674 -0.0612  0.5733  1.7291
   44CHL1   C15 4380   3.257   2.313   5.546 -0.2810  0.5578  0.6110
   44CHL1  H15A 4381   3.340   2.240   5.538 -2.0038 -1.3593 -0.6779
   44CHL1  H15B 4382   3.169   2.254   5.580  0.1621 -0.9800 -0.8049
   44CHL1   C16 4383   3.234   2.384   5.410  0.8692 -0.0025 -0.1888
   44CHL1  H16A 4384   3.300   2.339   5.333 -0.2474 -0.7972 -0.6963
   44CHL1  H16B 4385   3.126   2.370   5.389  0.5911  1.7998 -0.1090
   44CHL1   C17 4386   3.288   2.535   5.428  0.0136  0.5440  0.7729
   44CHL1   H17 4387   3.193   2.589   5.448 -1.7942 -1.2153 -2.3698
   44CHL1   C13 4388   3.372   2.539   5.552 -0.2623  0.0347  0.2111
   44CHL1   C18 4389   3.509   2.481   5.518 -0.2810 -0.4527  0.6856
   44CHL1  H18A 4390   3.497   2.378   5.477 -0.2936 -0.6503  1.1811
   44CHL1  H18B 4391   3.566   2.546   5.448 -1.3229  0.6512  0.8221
   44CHL1  H18C 4392   3.565   2.474   5.614  0.6008  1.6974  0.3951
   44CHL1   C12 4393   3.372   2.672   5.639  0.4396  0.3860 -0.5112
   44CHL1  H12A 4394   3.432   2.752   5.591  0.1747  0.4010 -0.8193
   44CHL1  H12B 4395   3.270   2.710   5.658  0.4191 -0.0912  0.4300
   44CHL1   C11 4396   3.444   2.647   5.778 -0.3346  0.5805  0.5806
   44CHL1  H11A 4397   3.552   2.631   5.757  0.0745  0.0028  2.8744
   44CHL1  H11B 4398   3.435   2.741   5.838 -0.7007  0.0839  1.3242
   44CHL1    C9 4399   3.394   2.527   5.852  0.1536  0.2613 -0.5685
   44CHL1    H9 4400   3.291   2.558   5.879  0.0719  1.7082 -2.3841
   44CHL1   C10 4401   3.464   2.490   5.986 -0.5071  0.1405  0.4840
   44CHL1   C19 4402   3.624   2.463   5.953 -0.1588 -0.2434  0.3216
   44CHL1  H19A 4403   3.681   2.421   6.038  0.1157 -1.2698 -0.3470
   44CHL1  H19B 4404   3.629   2.385   5.874 -1.3690 -1.3628  1.2853
   44CHL1  H19C 4405   3.672   2.557   5.920  1.1569 -1.3084 -0.9444
   44CHL1    C1 4406   3.457   2.606   6.081  0.1958 -0.1685 -0.5219
   44CHL1   H1A 4407   3.509   2.695   6.039 -2.4951  2.2710  0.8970
   44CHL1   H1B 4408   3.349   2.632   6.091  0.6407  1.0633  1.8020
   44CHL1    C2 4409   3.499   2.585   6.228 -0.5466 -0.1526 -0.0994
   44CHL1   H2A 4410   3.472   2.683   6.272 -1.5142  0.8206 -2.6718
   44CHL1   H2B 4411   3.607   2.568   6.246 -0.9177 -2.0479  0.5925
   44CHL1   C20 4412   3.336   2.598   5.293 -0.1381 -0.4889  0.0052
   44CHL1   H20 4413   3.434   2.551   5.268  0.3673  0.6584 -0.2388
   44CHL1   C21 4414   3.368   2.745   5.327  0.4741  0.4472  0.4318
   44CHL1  H21A 4415   3.288   2.788   5.391  0.4977 -1.9013  2.1654
   44CHL1  H21B 4416   3.369   2.811   5.238  0.7725 -2.9644 -2.3264
   44CHL1  H21C 4417   3.463   2.756   5.383 -0.2133 -1.5473  2.1464
   44CHL1   C22 4418   3.238   2.569   5.173  0.6506 -0.1256  0.1045
   44CHL1  H22A 4419   3.253   2.461   5.152 -1.3319 -0.3850 -0.2326
   44CHL1  H22B 4420   3.135   2.583   5.213  0.6492  0.2199 -0.0164
   44CHL1   C23 4421   3.280   2.646   5.050  0.4296  0.4060 -0.1018
   44CHL1  H23A 4422   3.273   2.753   5.079  2.4781  0.1378  1.5334
   44CHL1  H23B 4423   3.384   2.617   5.026  0.6264  2.7022 -2.4236
   44CHL1   C24 4424   3.185   2.613   4.937 -0.0619 -0.0450 -0.4649
   44CHL1  H24A 4425   3.182   2.502   4.923  1.1222 -0.0387 -0.9204
   44CHL1  H24B 4426   3.085   2.652   4.965 -0.2120 -1.3445  0.9057
   44CHL1   C25 4427   3.232   2.679   4.801  0.0431  0.6734  0.3566
   44CHL1   H25 4428   3.326   2.628   4.770 -0.9102 -0.3012 -1.0394
   44CHL1   C26 4429   3.145   2.659   4.675  0.5948  0.2238 -0.0246
   44CHL1  H26A 4430   3.205   2.687   4.586 -1.7977 -0.3805 -1.9368
   44CHL1  H26B 4431   3.117   2.551   4.669  1.8810 -0.2580  1.7671
   44CHL1  H26C 4432   3.053   2.721   4.674 -0.4118 -1.1701 -2.2609
   44CHL1   C27 4433   3.258   2.836   4.815 -0.0640 -0.0591 -0.2728
   44CHL1  H27A 4434   3.309   2.872   4.723  0.5610 -2.3948 -0.8902
   44CHL1  H27B 4435   3.161   2.891   4.815 -0.4842 -0.7956  0.0191
   44CHL1  H27C 4436   3.328   2.857   4.898  1.9219 -0.8400 -1.6956
   45CHL1    C3 4437   3.922   3.376   6.219  0.1994 -0.3371  0.4410
   45CHL1    H3 4438   4.033   3.374   6.207 -0.0462  0.2105 -2.8731
   45CHL1    O3 4439   3.890   3.368   6.353  0.5603  0.2748 -0.1724
   45CHL1   H3' 4440   3.853   3.281   6.371  0.8042 -0.0494 -1.1921
   45CHL1    C4 4441   3.862   3.503   6.169  0.4735 -0.6687  0.2899
   45CHL1   H4A 4442   3.754   3.498   6.195  0.5890  0.1896  0.9974
   45CHL1   H4B 4443   3.920   3.581   6.224  0.0580 -0.6332  0.6824
   45CHL1    C5 4444   3.870   3.515   6.021 -0.3783  0.1584  0.2124
   45CHL1    C6 4445   3.936   3.620   5.971  0.1594 -0.0196  0.1453
   45CHL1    H6 4446   3.990   3.685   6.041  1.9858  0.4374 -1.5919
   45CHL1    C7 4447   3.967   3.639   5.819 -0.0524  0.8503 -0.3758
   45CHL1   H7A 4448   3.952   3.741   5.778 -0.3845  0.3894 -1.4424
   45CHL1   H7B 4449   4.075   3.614   5.806 -0.7882 -3.2447 -0.1159
   45CHL1    C8 4450   3.887   3.547   5.731 -0.6570  0.6637  0.1810
   45CHL1    H8 4451   3.785   3.589   5.719  0.3602  2.5002 -4.0548
   45CHL1   C14 4452   3.947   3.548   5.591 -0.3423 -0.3029  0.0894
   45CHL1   H14 4453   4.050   3.507   5.603 -1.1279 -2.2373  0.7539
   45CHL1   C15 4454   3.968   3.685   5.530  0.3271  0.3164  0.0571
   45CHL1  H15A 4455   3.868   3.735   5.535  0.5313  0.8006 -0.5455
   45CHL1  H15B 4456   4.053   3.744   5.571  0.7351  0.5211 -1.0702
   45CHL1   C16 4457   3.998   3.641   5.382  0.3425  1.3227 -0.6008
   45CHL1  H16A 4458   3.944   3.710   5.314  0.2450 -0.2228 -2.1762
   45CHL1  H16B 4459   4.107   3.640   5.360  0.5253 -1.3718  0.0556
   45CHL1   C17 4460   3.933   3.499   5.363 -0.7056 -0.1471  0.1633
   45CHL1   H17 4461   4.013   3.421   5.360 -1.5802 -1.0399 -0.3961
   45CHL1   C13 4462   3.864   3.458   5.493  0.5763 -0.0689 -0.0897
   45CHL1   C18 4463   3.719   3.510   5.487  0.4782  0.5652 -1.0880
   45CHL1  H18A 4464   3.725   3.620   5.467  1.1007  1.0014  1.2011
   45CHL1  H18B 4465   3.669   3.460   5.401  3.0190  0.2443 -2.4988
   45CHL1  H18C 4466   3.658   3.496   5.579  0.1220 -1.5083 -1.5862
   45CHL1   C12 4467   3.874   3.310   5.542 -0.4007 -0.3126 -0.7250
   45CHL1  H12A 4468   3.839   3.226   5.478  1.2391 -0.0047 -2.1018
   45CHL1  H12B 4469   3.983   3.289   5.551 -0.8153 -2.5080 -0.2899
   45CHL1   C11 4470   3.816   3.309   5.687 -0.0843  0.1050 -1.0017
   45CHL1  H11A 4471   3.706   3.326   5.683  0.0462  0.7840 -2.9657
   45CHL1  H11B 4472   3.834   3.207   5.727 -0.2058  0.4740  0.0337
   45CHL1    C9 4473   3.886   3.406   5.788  0.1506 -0.3207  0.4451
   45CHL1    H9 4474   3.994   3.378   5.788  0.3989  0.5213 -1.2521
   45CHL1   C10 4475   3.822   3.395   5.934 -0.8233 -0.1968  0.0703
   45CHL1   C19 4476   3.674   3.396   5.935  0.4106 -0.1791  0.2962
   45CHL1  H19A 4477   3.636   3.295   5.907  1.4856 -0.8232  1.0664
   45CHL1  H19B 4478   3.630   3.426   6.033  0.6316 -0.8356  0.6072
   45CHL1  H19C 4479   3.631   3.476   5.872 -1.6140 -0.7610  0.8491
   45CHL1    C1 4480   3.874   3.265   5.993  0.1553 -0.0532 -0.6442
   45CHL1   H1A 4481   3.816   3.174   5.967 -1.1757 -0.0581  1.9841
   45CHL1   H1B 4482   3.976   3.243   5.956  0.2075  0.1266 -0.6102
   45CHL1    C2 4483   3.865   3.261   6.144  0.7796 -0.0789 -0.4585
   45CHL1   H2A 4484   3.911   3.165   6.177 -1.9666 -0.6729  1.9739
   45CHL1   H2B 4485   3.758   3.246   6.167  0.6328  1.2979 -0.1735
   45CHL1   C20 4486   3.867   3.480   5.232 -0.2149  0.0599 -0.1095
   45CHL1   H20 4487   3.775   3.542   5.231  0.4432  1.0633 -1.2491
   45CHL1   C21 4488   3.825   3.331   5.214 -0.3948  0.1841 -0.2928
   45CHL1  H21A 4489   3.913   3.265   5.228  0.4479  1.0984 -1.1225
   45CHL1  H21B 4490   3.789   3.312   5.110 -0.0332  2.0939 -0.8202
   45CHL1  H21C 4491   3.736   3.305   5.275  1.0643  1.0532  2.3543
   45CHL1   C22 4492   3.958   3.521   5.113  0.2578 -0.1576 -0.2735
   45CHL1  H22A 4493   4.021   3.609   5.135  2.8326 -1.7225 -0.9895
   45CHL1  H22B 4494   4.027   3.434   5.102  0.0125 -0.1419 -2.3637
   45CHL1   C23 4495   3.869   3.529   4.988 -0.2201  0.0150  0.2206
   45CHL1  H23A 4496   3.833   3.425   4.972  1.4189 -0.4826 -0.4122
   45CHL1  H23B 4497   3.787   3.599   5.016  1.4593  2.9221 -1.5755
   45CHL1   C24 4498   3.949   3.567   4.865 -0.1253  0.4305  0.0301
   45CHL1  H24A 4499   4.008   3.655   4.900 -2.0485  1.6684  0.2710
   45CHL1  H24B 4500   4.018   3.482   4.846  0.5141  0.4274  2.1302
   45CHL1   C25 4501   3.863   3.609   4.748  0.2881 -0.3770 -0.5732
   45CHL1   H25 4502   3.792   3.680   4.795  0.4348 -1.4422  1.3937
   45CHL1   C26 4503   3.941   3.683   4.645  0.1748 -0.3665  0.4651
   45CHL1  H26A 4504   3.998   3.768   4.688 -0.4372  0.6229 -0.6242
   45CHL1  H26B 4505   4.011   3.610   4.600 -2.7786 -3.6154  0.6696
   45CHL1  H26C 4506   3.885   3.720   4.556  1.4992 -0.4171 -0.4139
   45CHL1   C27 4507   3.791   3.486   4.693  0.4248  0.4127  0.4778
   45CHL1  H27A 4508   3.860   3.418   4.640 -1.8552 -0.4436 -1.5799
   45CHL1  H27B 4509   3.738   3.427   4.771  0.6747 -0.4634 -0.0081
   45CHL1  H27C 4510   3.724   3.523   4.613 -0.2412  0.3412  0.9863
   46CHL1    C3 4511   0.563   0.802   6.898  0.3001 -0.0050  0.2127
   46CHL1    H3 4512   0.468   0.846   6.937 -1.8095 -2.8404 -1.3598
   46CHL1    O3 4513   0.640   0.763   7.010  0.4424 -0.7661  0.1558
   46CHL1   H3' 4514   0.695   0.687   6.990  2.4768 -0.6127  4.0720
   46CHL1    C4 4515   0.516   0.672   6.830 -0.5446  0.1936  0.3461
   46CHL1   H4A 4516   0.607   0.612   6.810  0.9031  1.6911  2.0335
   46CHL1   H4B 4517   0.450   0.619   6.902 -1.1452  0.3719 -0.0678
   46CHL1    C5 4518   0.439   0.700   6.700 -0.6346  0.7191  0.1738
   46CHL1    C6 4519   0.310   0.652   6.677 -0.0592 -0.0423  0.3248
   46CHL1    H6 4520   0.262   0.597   6.759 -1.6882  2.7976  1.4189
   46CHL1    C7 4521   0.230   0.670   6.558  0.3325  0.5865  0.5595
   46CHL1   H7A 4522   0.167   0.587   6.519 -1.2951  1.3432  1.4538
   46CHL1   H7B 4523   0.159   0.755   6.570 -0.6450  0.1309 -1.4608
   46CHL1    C8 4524   0.323   0.724   6.443  0.4335  1.0035 -1.0306
   46CHL1    H8 4525   0.393   0.641   6.419  0.1461  0.4931 -0.1483
   46CHL1   C14 4526   0.242   0.769   6.326  0.1271  0.5716  0.3142
   46CHL1   H14 4527   0.174   0.847   6.365 -0.8016 -1.4816  3.1025
   46CHL1   C15 4528   0.152   0.660   6.263  0.0012  0.5292  0.1124
   46CHL1  H15A 4529   0.213   0.567   6.254 -0.6161  0.0667  0.5708
   46CHL1  H15B 4530   0.064   0.637   6.327 -0.3688 -1.4147 -1.0195
   46CHL1   C16 4531   0.124   0.714   6.119  0.1356 -0.2477  0.3024
   46CHL1  H16A 4532   0.180   0.641   6.057 -0.6498 -0.5567 -0.0661
   46CHL1  H16B 4533   0.017   0.710   6.090 -0.3851  0.3994  2.0193
   46CHL1   C17 4534   0.195   0.849   6.101 -0.2264 -0.5980 -0.9942
   46CHL1   H17 4535   0.134   0.930   6.146  0.5321 -0.9433  0.7314
   46CHL1   C13 4536   0.316   0.836   6.207 -0.3656 -0.0475  0.1807
   46CHL1   C18 4537   0.433   0.747   6.151  0.5659  0.0628  0.2190
   46CHL1  H18A 4538   0.502   0.802   6.084  0.1697 -0.2756 -0.4759
   46CHL1  H18B 4539   0.497   0.703   6.230  1.3948  0.0055 -0.4811
   46CHL1  H18C 4540   0.405   0.660   6.089  2.3550 -0.3161 -0.0864
   46CHL1   C12 4541   0.366   0.965   6.268 -0.3704  0.2107  0.2580
   46CHL1  H12A 4542   0.426   1.032   6.202  1.1357 -1.0888  0.2394
   46CHL1  H12B 4543   0.285   1.032   6.305 -0.4029 -0.2264  0.9847
   46CHL1   C11 4544   0.469   0.934   6.389  1.0775  0.7292  0.2727
   46CHL1  H11A 4545   0.556   0.895   6.332  0.8826  1.7364 -0.7681
   46CHL1  H11B 4546   0.504   1.032   6.428 -4.2757  3.8093 -1.5122
   46CHL1    C9 4547   0.403   0.843   6.501 -0.4660 -0.2067  0.2700
   46CHL1    H9 4548   0.334   0.915   6.549  1.1594  1.5723  0.0686
   46CHL1   C10 4549   0.511   0.788   6.603  0.1855  0.1063  0.3059
   46CHL1   C19 4550   0.632   0.710   6.538  0.2300 -0.0339 -0.1980
   46CHL1  H19A 4551   0.603   0.619   6.480  2.2103 -0.9148  0.1306
   46CHL1  H19B 4552   0.691   0.785   6.482 -0.8209 -0.0058 -1.3237
   46CHL1  H19C 4553   0.696   0.675   6.622 -0.6759  1.1303  1.0149
   46CHL1    C1 4554   0.555   0.907   6.684 -0.4073  0.9159  0.1962
   46CHL1   H1A 4555   0.601   0.978   6.613 -0.1324  0.5528  0.0096
   46CHL1   H1B 4556   0.464   0.960   6.722 -2.2312 -0.3000 -2.1670
   46CHL1    C2 4557   0.647   0.892   6.810  0.2496 -0.0954  0.4854
   46CHL1   H2A 4558   0.659   0.984   6.871 -0.0222 -1.2774  2.4301
   46CHL1   H2B 4559   0.748   0.851   6.790  0.3299 -0.0176  0.7216
   46CHL1   C20 4560   0.231   0.876   5.962  0.2242 -0.1113  0.5869
   46CHL1   H20 4561   0.290   0.789   5.927  0.8441  0.0920  1.0875
   46CHL1   C21 4562   0.303   1.016   5.944 -0.1965 -0.7919  0.0543
   46CHL1  H21A 4563   0.312   1.041   5.836  0.5517  0.6861  0.4383
   46CHL1  H21B 4564   0.407   1.013   5.983  0.5866 -3.4339 -1.9675
   46CHL1  H21C 4565   0.242   1.101   5.980  0.2277 -0.7107  0.5879
   46CHL1   C22 4566   0.105   0.858   5.869 -0.2540 -0.7057  0.7922
   46CHL1  H22A 4567   0.060   0.756   5.878 -2.5380  0.3727  3.2868
   46CHL1  H22B 4568   0.028   0.924   5.915  0.6921  2.2664 -1.5436
   46CHL1   C23 4569   0.128   0.906   5.723  0.2145  0.0968  0.0736
   46CHL1  H23A 4570   0.138   1.016   5.717 -0.9608  0.1317 -1.9287
   46CHL1  H23B 4571   0.221   0.871   5.673 -0.3234  0.1934 -1.0164
   46CHL1   C24 4572   0.017   0.858   5.625  0.6396  0.1536  0.3280
   46CHL1  H24A 4573   0.015   0.748   5.617  0.2563  0.2436 -1.3887
   46CHL1  H24B 4574  -0.087   0.886   5.652  0.3665  0.3207 -0.8177
   46CHL1   C25 4575   0.028   0.917   5.478 -0.2322 -0.1013  0.3945
   46CHL1   H25 4576   0.046   1.027   5.479 -2.4025  0.3100  0.2652
   46CHL1   C26 4577   0.149   0.864   5.405 -0.7497  0.2065  0.2178
   46CHL1  H26A 4578   0.223   0.821   5.476 -0.8155  0.1084  0.2272
   46CHL1  H26B 4579   0.126   0.774   5.344  2.0150 -1.6282  1.6864
   46CHL1  H26C 4580   0.203   0.942   5.347  1.3923  0.7585  2.7822
   46CHL1   C27 4581  -0.101   0.898   5.399  0.2893 -0.5219  1.1348
   46CHL1  H27A 4582  -0.190   0.944   5.447 -0.8314  0.5555 -1.7726
   46CHL1  H27B 4583  -0.081   0.927   5.294  0.1818 -0.4749  1.1277
   46CHL1  H27C 4584  -0.129   0.791   5.400  1.0248 -0.7207  1.3941
   47CHL1    C3 4585   1.716   1.949   3.416 -0.3705  0.2660 -0.5544
   47CHL1    H3 4586   1.635   2.016   3.379 -0.1425 -0.7078 -3.0193
   47CHL1    O3 4587   1.663   1.882   3.531 -0.0821 -0.3002  0.5614
   47CHL1   H3' 4588   1.737   1.826   3.556  1.2931 -0.2308 -2.8253
   47CHL1    C4 4589   1.761   1.836   3.321 -0.1967 -0.3578 -0.1893
   47CHL1   H4A 4590   1.822   1.765   3.380  1.8949  0.7231 -0.9647
   47CHL1   H4B 4591   1.675   1.772   3.290 -2.2380  1.5754  1.1648
   47CHL1    C5 4592   1.835   1.892   3.199  0.0530  0.0036 -0.1245
   47CHL1    C6 4593   1.790   1.868   3.073 -0.0204 -0.4902 -0.1469
   47CHL1    H6 4594   1.698   1.808   3.060 -1.1493  0.9612  0.8513
   47CHL1    C7 4595   1.858   1.926   2.950 -0.2881 -0.4621  0.4262
   47CHL1   H7A 4596   1.859   1.847   2.872  0.4772 -0.1257  0.0846
   47CHL1   H7B 4597   1.802   2.010   2.904  0.2010 -0.7241 -0.6752
   47CHL1    C8 4598   2.003   1.994   2.974  0.5317 -0.1051 -0.6522
   47CHL1    H8 4599   2.069   1.907   2.991 -1.4626 -1.4610  0.5350
   47CHL1   C14 4600   2.042   2.081   2.859  0.7088 -0.3700  0.1338
   47CHL1   H14 4601   1.978   2.171   2.862  0.1468 -0.7744  0.3214
   47CHL1   C15 4602   2.031   2.023   2.717 -0.0087 -0.7974  0.1179
   47CHL1  H15A 4603   2.071   1.923   2.742  0.4750 -0.9796 -1.2909
   47CHL1  H15B 4604   1.929   2.018   2.675  0.9311  1.3237 -2.7163
   47CHL1   C16 4605   2.118   2.115   2.632 -0.1270  0.0226  0.0231
   47CHL1  H16A 4606   2.185   2.051   2.571  0.5628  0.1315  0.6459
   47CHL1  H16B 4607   2.046   2.172   2.570 -0.6608 -0.7379 -0.0671
   47CHL1   C17 4608   2.186   2.217   2.732 -0.1363  1.1712  0.4127
   47CHL1   H17 4609   2.118   2.304   2.736  0.7229  2.0424 -2.2235
   47CHL1   C13 4610   2.183   2.143   2.869 -0.5283 -0.1357  0.8032
   47CHL1   C18 4611   2.291   2.029   2.876  0.2279  0.9284 -0.4843
   47CHL1  H18A 4612   2.303   1.961   2.789  0.9869  0.3972  0.0166
   47CHL1  H18B 4613   2.387   2.081   2.895 -0.2626  2.0383 -1.0019
   47CHL1  H18C 4614   2.268   1.965   2.964  3.7243  0.8458  0.5325
   47CHL1   C12 4615   2.187   2.231   2.996 -0.0087 -0.0964 -0.7028
   47CHL1  H12A 4616   2.287   2.273   3.021 -0.7896 -0.5797  4.1544
   47CHL1  H12B 4617   2.119   2.317   2.975  2.0892  1.7859 -0.0980
   47CHL1   C11 4618   2.138   2.155   3.126 -0.5069  0.5109 -0.0869
   47CHL1  H11A 4619   2.215   2.082   3.160 -0.9223 -0.7050 -1.6574
   47CHL1  H11B 4620   2.140   2.235   3.204  0.1110 -0.9333  1.4283
   47CHL1    C9 4621   1.999   2.077   3.110  0.3088 -0.0631 -0.3067
   47CHL1    H9 4622   1.921   2.155   3.098 -1.2523 -1.6282 -0.7904
   47CHL1   C10 4623   1.950   1.993   3.230  0.3634  0.6747  0.1394
   47CHL1   C19 4624   2.066   1.896   3.272  0.6890  0.1094 -0.8453
   47CHL1  H19A 4625   2.031   1.822   3.347  1.9854  0.0405 -0.2786
   47CHL1  H19B 4626   2.094   1.826   3.190  0.2287 -1.0882  0.0041
   47CHL1  H19C 4627   2.150   1.957   3.313 -2.3361  2.5375  2.2542
   47CHL1    C1 4628   1.911   2.100   3.343 -0.0032 -0.0957  0.1681
   47CHL1   H1A 4629   2.002   2.152   3.380 -1.2559  2.4768 -0.1770
   47CHL1   H1B 4630   1.844   2.176   3.298 -1.0311 -2.1786 -2.0290
   47CHL1    C2 4631   1.837   2.030   3.462 -0.7994  0.1508 -0.0428
   47CHL1   H2A 4632   1.815   2.120   3.522  1.5736  2.6045 -2.5648
   47CHL1   H2B 4633   1.912   1.967   3.514 -1.6318  0.1824  1.2600
   47CHL1   C20 4634   2.332   2.265   2.686  0.7761 -0.0875  0.2005
   47CHL1   H20 4635   2.403   2.188   2.723  0.2948 -0.4122  0.4667
   47CHL1   C21 4636   2.362   2.400   2.754  0.4442 -0.1937 -0.3810
   47CHL1  H21A 4637   2.296   2.479   2.714 -0.0836 -0.7842 -0.6921
   47CHL1  H21B 4638   2.469   2.417   2.729  1.1466 -0.8371  1.8940
   47CHL1  H21C 4639   2.350   2.387   2.864 -0.1646 -1.9381 -0.6261
   47CHL1   C22 4640   2.328   2.285   2.535 -0.4316 -0.8416  0.0671
   47CHL1  H22A 4641   2.304   2.194   2.475  1.1098 -0.5435 -1.0450
   47CHL1  H22B 4642   2.251   2.360   2.506 -1.2762 -1.9614 -0.6751
   47CHL1   C23 4643   2.470   2.315   2.465  0.2164  0.1080 -0.4316
   47CHL1  H23A 4644   2.492   2.417   2.502 -2.1382 -0.1057  1.8027
   47CHL1  H23B 4645   2.548   2.240   2.492  0.9083  0.6226 -0.9528
   47CHL1   C24 4646   2.463   2.321   2.313 -0.0693 -0.0202 -0.0080
   47CHL1  H24A 4647   2.445   2.223   2.264 -2.0037  0.2608  0.0603
   47CHL1  H24B 4648   2.374   2.380   2.283  1.0945  1.8867  0.1544
   47CHL1   C25 4649   2.587   2.389   2.249  0.2171 -0.2595 -0.3710
   47CHL1   H25 4650   2.679   2.329   2.267  0.3749  0.0297 -0.2025
   47CHL1   C26 4651   2.562   2.400   2.101 -0.2954  0.2808  0.1399
   47CHL1  H26A 4652   2.548   2.298   2.060  2.1287  0.0922 -0.3857
   47CHL1  H26B 4653   2.472   2.463   2.087 -0.6007  0.2243  1.7022
   47CHL1  H26C 4654   2.644   2.452   2.047  2.1539 -1.2020  2.2023
   47CHL1   C27 4655   2.614   2.535   2.302 -0.6529 -0.6844 -0.4986
   47CHL1  H27A 4656   2.521   2.592   2.282 -1.2860 -0.9255  1.5087
   47CHL1  H27B 4657   2.626   2.555   2.411 -4.1378 -1.4353  0.1649
   47CHL1  H27C 4658   2.688   2.582   2.234 -1.2953  0.3181 -0.5179
   48CHL1    C3 4659   3.959   5.015   6.786 -0.1802 -0.1477  0.2261
   48CHL1    H3 4660   3.975   5.123   6.768  0.3796 -0.2264  0.2321
   48CHL1    O3 4661   3.971   4.972   6.923  0.0561  0.1410  0.0103
   48CHL1   H3' 4662   3.987   4.877   6.914  0.2253  0.1201  0.5037
   48CHL1    C4 4663   3.821   4.992   6.756  0.1959 -0.7649  0.5140
   48CHL1   H4A 4664   3.797   4.884   6.768 -0.1363 -0.5551  1.8650
   48CHL1   H4B 4665   3.751   5.042   6.826  1.5884  1.2159  0.5538
   48CHL1    C5 4666   3.782   5.015   6.607 -0.8707 -0.1311 -0.5516
   48CHL1    C6 4667   3.678   5.094   6.582 -0.0574  0.2386 -0.0098
   48CHL1    H6 4668   3.620   5.138   6.664 -2.1314 -2.7562  0.2868
   48CHL1    C7 4669   3.630   5.117   6.441  0.0145 -0.6198  0.3649
   48CHL1   H7A 4670   3.520   5.104   6.449 -0.0532  0.9654  3.4558
   48CHL1   H7B 4671   3.643   5.225   6.418 -2.1005 -0.3474  0.2618
   48CHL1    C8 4672   3.700   5.027   6.337  0.4138 -0.3266  0.7831
   48CHL1    H8 4673   3.661   4.923   6.335  2.7281 -1.2531 -0.8322
   48CHL1   C14 4674   3.680   5.086   6.202  0.1845  0.1524  0.9943
   48CHL1   H14 4675   3.730   5.185   6.213  0.5215 -0.0162  1.0037
   48CHL1   C15 4676   3.538   5.100   6.163  0.1910 -0.5697 -0.2328
   48CHL1  H15A 4677   3.486   5.005   6.191  0.5517 -0.3990  1.0954
   48CHL1  H15B 4678   3.481   5.179   6.216 -1.3534 -0.5912 -1.7466
   48CHL1   C16 4679   3.542   5.120   6.008  0.5566  0.3401  0.0005
   48CHL1  H16A 4680   3.472   5.042   5.971 -0.0501  0.4345  0.9306
   48CHL1  H16B 4681   3.511   5.218   5.966  0.0946 -0.3669 -1.3865
   48CHL1   C17 4682   3.685   5.079   5.958 -0.1253 -0.0752 -0.0523
   48CHL1   H17 4683   3.738   5.175   5.943  0.4065 -0.6300 -1.9926
   48CHL1   C13 4684   3.745   5.005   6.083  0.6412 -0.7640 -0.1157
   48CHL1   C18 4685   3.697   4.856   6.080 -0.3611 -0.0479  0.2683
   48CHL1  H18A 4686   3.765   4.803   6.010 -0.8092  2.2614 -2.0610
   48CHL1  H18B 4687   3.713   4.808   6.179 -0.6793 -1.1599 -0.2052
   48CHL1  H18C 4688   3.595   4.831   6.045  0.1999 -2.1237 -0.0010
   48CHL1   C12 4689   3.895   5.020   6.108 -0.0482 -0.1386 -0.1497
   48CHL1  H12A 4690   3.954   4.950   6.045  0.4387 -0.0898  0.2499
   48CHL1  H12B 4691   3.932   5.124   6.095  3.1757 -0.6757  3.0133
   48CHL1   C11 4692   3.931   4.965   6.246  0.2479 -0.0767  0.3168
   48CHL1  H11A 4693   3.906   4.858   6.232  0.9953 -0.5673  2.4225
   48CHL1  H11B 4694   4.040   4.977   6.262  0.4294  0.9363 -1.4129
   48CHL1    C9 4695   3.849   5.022   6.366  0.2626 -0.5336  0.9851
   48CHL1    H9 4696   3.886   5.127   6.374 -0.8572 -0.1216  0.9035
   48CHL1   C10 4697   3.875   4.957   6.501 -0.2959 -0.1757  0.4163
   48CHL1   C19 4698   3.850   4.803   6.489 -0.5200  0.6719 -0.2553
   48CHL1  H19A 4699   3.936   4.759   6.433  0.3208  1.3536  0.4708
   48CHL1  H19B 4700   3.852   4.753   6.588 -1.8906 -1.6678 -1.3247
   48CHL1  H19C 4701   3.759   4.786   6.428 -0.1094 -0.3482 -0.6146
   48CHL1    C1 4702   4.024   4.989   6.547 -0.2368  0.0691 -0.2544
   48CHL1   H1A 4703   4.092   4.925   6.486 -2.7453 -1.5759 -1.4730
   48CHL1   H1B 4704   4.050   5.096   6.532  0.1224  0.0163 -0.0349
   48CHL1    C2 4705   4.048   4.941   6.693 -0.0851  1.1570  0.1231
   48CHL1   H2A 4706   4.156   4.953   6.718 -0.3367 -0.6157  2.3930
   48CHL1   H2B 4707   4.023   4.833   6.685 -2.5871  1.7352 -0.6881
   48CHL1   C20 4708   3.683   5.016   5.819  0.0833  0.1942  0.3196
   48CHL1   H20 4709   3.618   4.927   5.806  1.0544 -0.3130 -1.3676
   48CHL1   C21 4710   3.834   4.971   5.785 -0.0522  0.0359 -0.4201
   48CHL1  H21A 4711   3.878   4.885   5.839  3.0388  1.6948 -0.0929
   48CHL1  H21B 4712   3.850   4.938   5.680 -1.8765  1.3444 -1.1574
   48CHL1  H21C 4713   3.893   5.062   5.806  0.8403 -1.1882  3.0243
   48CHL1   C22 4714   3.631   5.112   5.710  0.6853 -0.2575  0.1983
   48CHL1  H22A 4715   3.535   5.162   5.735  0.5151 -1.1174  1.3810
   48CHL1  H22B 4716   3.705   5.193   5.692  0.9137 -0.3761  0.5947
   48CHL1   C23 4717   3.605   5.029   5.584  0.4829  0.2195  0.1780
   48CHL1  H23A 4718   3.659   4.932   5.590  1.0365  0.5028 -0.1196
   48CHL1  H23B 4719   3.496   5.009   5.575  0.1126  0.6615  2.9401
   48CHL1   C24 4720   3.660   5.100   5.461 -1.2981 -0.3280 -0.5469
   48CHL1  H24A 4721   3.619   5.200   5.436  4.2854  1.8700 -2.7004
   48CHL1  H24B 4722   3.767   5.112   5.491 -2.6448  2.9077  4.1010
   48CHL1   C25 4723   3.655   5.011   5.335  0.2815 -0.4075 -0.7119
   48CHL1   H25 4724   3.695   4.909   5.355 -0.1015 -0.4573 -0.1997
   48CHL1   C26 4725   3.512   4.991   5.297  0.2604 -0.2277 -0.0750
   48CHL1  H26A 4726   3.484   5.054   5.210  1.8369 -0.7185 -0.9669
   48CHL1  H26B 4727   3.508   4.884   5.269 -0.4738  0.0148 -0.9598
   48CHL1  H26C 4728   3.440   5.017   5.379 -0.2108 -3.4025  0.6427
   48CHL1   C27 4729   3.729   5.072   5.215  0.0898  0.1907 -0.7386
   48CHL1  H27A 4730   3.708   5.006   5.128  3.7167 -0.8610 -0.9731
   48CHL1  H27B 4731   3.674   5.168   5.204 -3.0502 -1.3027  0.6819
   48CHL1  H27C 4732   3.839   5.079   5.230  0.6286 -2.9741 -2.4702
   49CHL1    C3 4733   3.590   4.035   2.976 -0.3039 -0.0741 -0.0169
   49CHL1    H3 4734   3.534   4.130   2.988 -0.5970 -0.2213 -0.2056
   49CHL1    O3 4735   3.589   4.004   2.837  0.1124  0.4397  0.1701
   49CHL1   H3' 4736   3.603   4.088   2.792  2.1553 -0.8207 -1.7104
   49CHL1    C4 4737   3.733   4.053   3.030  0.1461 -0.4870  1.5916
   49CHL1   H4A 4738   3.801   3.968   3.007  0.3700  0.2280 -0.6152
   49CHL1   H4B 4739   3.787   4.124   2.963  0.6534 -3.4415 -1.4127
   49CHL1    C5 4740   3.750   4.079   3.178 -0.4495  0.4677  0.2692
   49CHL1    C6 4741   3.825   4.182   3.222 -0.0629  0.3568 -0.5974
   49CHL1    H6 4742   3.890   4.239   3.153 -0.1084  1.3039  0.1095
   49CHL1    C7 4743   3.849   4.210   3.366  0.4375 -0.2036 -0.8243
   49CHL1   H7A 4744   3.956   4.231   3.389  0.3797  0.4266 -1.1091
   49CHL1   H7B 4745   3.792   4.300   3.395  1.2427  0.5599 -1.5740
   49CHL1    C8 4746   3.815   4.085   3.455  0.4303  0.7723  0.3200
   49CHL1    H8 4747   3.895   4.008   3.464 -0.2727  0.0730  0.7090
   49CHL1   C14 4748   3.789   4.132   3.601  0.5121  0.4569 -0.0782
   49CHL1   H14 4749   3.698   4.195   3.600 -0.7797 -1.3423  0.3408
   49CHL1   C15 4750   3.903   4.222   3.664 -0.2919 -0.2075 -0.0286
   49CHL1  H15A 4751   4.011   4.196   3.658  0.1455  1.5758 -0.7277
   49CHL1  H15B 4752   3.880   4.324   3.627 -0.0125  1.0230  2.8831
   49CHL1   C16 4753   3.870   4.212   3.812  0.3530 -0.2746  0.3575
   49CHL1  H16A 4754   3.957   4.165   3.863  0.3120  0.1829  0.8536
   49CHL1  H16B 4755   3.869   4.314   3.854  1.6342 -0.3504  0.6166
   49CHL1   C17 4756   3.750   4.109   3.836 -0.9113 -0.4242  0.1834
   49CHL1   H17 4757   3.655   4.166   3.835 -1.1334 -0.7736 -1.5856
   49CHL1   C13 4758   3.755   4.030   3.706 -0.0794  0.3610  0.2883
   49CHL1   C18 4759   3.876   3.930   3.707 -0.1565 -0.2360 -0.1958
   49CHL1  H18A 4760   3.977   3.977   3.716  0.6699 -2.0031  0.2115
   49CHL1  H18B 4761   3.861   3.852   3.784 -0.6124  0.5877  0.5729
   49CHL1  H18C 4762   3.884   3.874   3.612 -0.5280 -1.0575  0.2523
   49CHL1   C12 4763   3.621   3.967   3.657 -0.4786 -0.2922 -0.2064
   49CHL1  H12A 4764   3.598   3.877   3.717 -1.6165 -0.1081 -0.3557
   49CHL1  H12B 4765   3.542   4.042   3.678  0.1442  0.1190  0.7939
   49CHL1   C11 4766   3.635   3.919   3.515  0.1961 -0.2146 -1.3416
   49CHL1  H11A 4767   3.699   3.828   3.515  0.8750  0.2480 -0.9442
   49CHL1  H11B 4768   3.535   3.888   3.479 -0.2788  0.0898 -0.3144
   49CHL1    C9 4769   3.680   4.031   3.415 -0.0126  0.3520 -0.2103
   49CHL1    H9 4770   3.615   4.122   3.415 -0.0073  0.3549 -0.4812
   49CHL1   C10 4771   3.682   3.981   3.262 -0.0012  0.1355 -0.7434
   49CHL1   C19 4772   3.756   3.842   3.259  0.7532 -0.0884 -0.1981
   49CHL1  H19A 4773   3.844   3.845   3.327  0.5675  2.9259  0.0836
   49CHL1  H19B 4774   3.689   3.762   3.298 -0.5398  2.0187  2.2525
   49CHL1  H19C 4775   3.785   3.802   3.160 -0.0973 -1.5133  0.0952
   49CHL1    C1 4776   3.539   3.971   3.213 -0.1105  0.3676  0.6005
   49CHL1   H1A 4777   3.496   3.888   3.272 -1.2014 -0.2284 -0.9649
   49CHL1   H1B 4778   3.477   4.062   3.219 -2.4194 -1.2306  2.9131
   49CHL1    C2 4779   3.526   3.929   3.064 -0.1657 -0.4077  0.2775
   49CHL1   H2A 4780   3.420   3.917   3.034 -0.4829  0.5914  0.9115
   49CHL1   H2B 4781   3.570   3.831   3.039 -1.2301 -0.9518  0.4902
   49CHL1   C20 4782   3.771   4.034   3.970  0.1372 -0.3770 -0.5372
   49CHL1   H20 4783   3.870   3.984   3.975  0.3025  0.0207  0.4025
   49CHL1   C21 4784   3.664   3.934   3.984  0.6616 -1.0224  0.2838
   49CHL1  H21A 4785   3.674   3.881   4.081  1.1244 -2.5875 -0.5719
   49CHL1  H21B 4786   3.670   3.857   3.904 -0.7226 -0.0749 -0.7936
   49CHL1  H21C 4787   3.567   3.988   3.982  2.1754  1.8225 -0.2417
   49CHL1   C22 4788   3.764   4.135   4.089 -0.0683 -0.0073 -0.3329
   49CHL1  H22A 4789   3.825   4.225   4.062  1.9522 -0.5123  2.1612
   49CHL1  H22B 4790   3.661   4.164   4.118  0.2497  0.6501  0.1606
   49CHL1   C23 4791   3.827   4.073   4.215 -0.4302 -0.2413 -0.1582
   49CHL1  H23A 4792   3.780   3.975   4.238 -0.0710 -0.5806 -0.8310
   49CHL1  H23B 4793   3.931   4.046   4.189 -0.8544  0.9701 -3.6672
   49CHL1   C24 4794   3.815   4.184   4.323  0.3123  0.4434  0.3087
   49CHL1  H24A 4795   3.858   4.279   4.284 -0.5565  0.5210 -0.4855
   49CHL1  H24B 4796   3.710   4.217   4.342  0.4658 -0.0090  2.1556
   49CHL1   C25 4797   3.885   4.144   4.448  0.0398  0.5258 -0.6021
   49CHL1   H25 4798   3.992   4.123   4.426  0.8768 -0.2705  3.3989
   49CHL1   C26 4799   3.879   4.257   4.554  0.1169  0.1791  0.1447
   49CHL1  H26A 4800   3.949   4.238   4.637  0.9626 -0.6980 -0.7433
   49CHL1  H26B 4801   3.900   4.354   4.504  1.1589 -0.8757 -1.5642
   49CHL1  H26C 4802   3.777   4.250   4.598  0.6661 -0.3535  1.3781
   49CHL1   C27 4803   3.823   4.020   4.515 -0.3752 -0.0992  0.1316
   49CHL1  H27A 4804   3.832   3.933   4.447  0.9472  1.8002 -2.2639
   49CHL1  H27B 4805   3.875   4.006   4.612  0.7974  0.7529 -0.3501
   49CHL1  H27C 4806   3.717   4.043   4.539 -0.0920  1.2718  0.1895
   50CHL1    C3 4807   4.343   2.981   3.066  0.1101  0.4165 -0.7134
   50CHL1    H3 4808   4.451   2.953   3.065  0.0596 -0.0742  1.9586
   50CHL1    O3 4809   4.291   2.973   2.936 -0.6313  0.4210 -0.6399
   50CHL1   H3' 4810   4.203   3.008   2.952 -1.0733 -1.6327  2.0138
   50CHL1    C4 4811   4.254   2.893   3.157  0.3147 -0.5762  0.4021
   50CHL1   H4A 4812   4.152   2.937   3.149  0.7918  0.5029  0.1465
   50CHL1   H4B 4813   4.249   2.790   3.115  1.8925 -0.9478  1.0584
   50CHL1    C5 4814   4.288   2.896   3.297 -0.7431  0.3429 -0.2211
   50CHL1    C6 4815   4.322   2.778   3.357  0.1841  0.5574 -0.1872
   50CHL1    H6 4816   4.320   2.690   3.290 -0.0472  1.5688 -1.5601
   50CHL1    C7 4817   4.353   2.766   3.504 -0.1791 -0.7017  0.3797
   50CHL1   H7A 4818   4.288   2.685   3.545 -2.6573  1.0759  0.1870
   50CHL1   H7B 4819   4.462   2.748   3.505  0.2751  1.6377 -1.2240
   50CHL1    C8 4820   4.313   2.891   3.580  0.1512  1.1647 -0.3477
   50CHL1    H8 4821   4.203   2.887   3.598 -0.0534 -1.5467 -1.7231
   50CHL1   C14 4822   4.372   2.882   3.719 -0.2940 -0.0134 -0.5419
   50CHL1   H14 4823   4.482   2.877   3.711 -0.2365  0.2217  0.0317
   50CHL1   C15 4824   4.348   2.751   3.807  0.2979  0.3192  1.1196
   50CHL1  H15A 4825   4.241   2.723   3.816  0.0640  0.6687 -0.3746
   50CHL1  H15B 4826   4.412   2.671   3.765 -1.8278 -0.2915 -1.1649
   50CHL1   C16 4827   4.389   2.795   3.937 -0.8105  0.2941  0.6368
   50CHL1  H16A 4828   4.303   2.788   4.007 -0.9978  1.2554  0.5182
   50CHL1  H16B 4829   4.488   2.768   3.981 -1.0705 -1.1212  0.3821
   50CHL1   C17 4830   4.410   2.956   3.934  0.4778 -0.1997 -0.2646
   50CHL1   H17 4831   4.519   2.967   3.919  0.4265 -1.7971 -2.1075
   50CHL1   C13 4832   4.340   3.001   3.810 -0.3052  0.1964 -0.1710
   50CHL1   C18 4833   4.187   3.018   3.841  0.3181  0.7342 -0.4248
   50CHL1  H18A 4834   4.151   2.925   3.889  1.9708  1.0304  1.5102
   50CHL1  H18B 4835   4.154   3.106   3.899 -2.5491  0.5214 -1.5502
   50CHL1  H18C 4836   4.130   3.026   3.745 -1.0348 -0.0903  0.2738
   50CHL1   C12 4837   4.406   3.128   3.745 -0.2059  0.0461 -0.3391
   50CHL1  H12A 4838   4.395   3.221   3.804 -0.7960  0.4996 -1.1330
   50CHL1  H12B 4839   4.515   3.107   3.736 -0.6656 -2.1702 -1.5717
   50CHL1   C11 4840   4.339   3.147   3.608  0.1007 -0.1826 -0.1679
   50CHL1  H11A 4841   4.232   3.175   3.618  0.3431  0.7198 -0.0175
   50CHL1  H11B 4842   4.398   3.228   3.561  0.8424 -0.3162  0.5062
   50CHL1    C9 4843   4.351   3.023   3.518 -0.2758  0.1329  0.2500
   50CHL1    H9 4844   4.459   3.016   3.496 -0.5521  1.3381 -1.8488
   50CHL1   C10 4845   4.288   3.030   3.371 -0.0688  0.2948  0.0979
   50CHL1   C19 4846   4.137   3.086   3.391 -0.5715 -0.2357  0.5396
   50CHL1  H19A 4847   4.144   3.194   3.416  0.2011  0.1156 -1.0801
   50CHL1  H19B 4848   4.094   3.084   3.289  0.8609  0.8882 -0.1106
   50CHL1  H19C 4849   4.088   3.026   3.472  1.1775 -0.3752  1.5463
   50CHL1    C1 4850   4.365   3.132   3.281 -0.5581 -0.5050 -0.4456
   50CHL1   H1A 4851   4.344   3.231   3.326 -0.0292 -0.0381 -1.2031
   50CHL1   H1B 4852   4.476   3.120   3.284 -0.6273 -0.9614  1.8534
   50CHL1    C2 4853   4.323   3.121   3.130  0.7613 -0.4399  0.7357
   50CHL1   H2A 4854   4.383   3.194   3.071 -1.1486  0.0805 -0.6350
   50CHL1   H2B 4855   4.225   3.170   3.115  0.0727 -2.2702 -1.1609
   50CHL1   C20 4856   4.383   3.016   4.074  0.5848  0.2685 -0.0162
   50CHL1   H20 4857   4.275   3.009   4.099 -1.2302  3.9186 -5.0319
   50CHL1   C21 4858   4.423   3.168   4.079  0.2673  0.4325  0.0892
   50CHL1  H21A 4859   4.377   3.231   4.000  2.3454 -0.6797 -2.1434
   50CHL1  H21B 4860   4.531   3.184   4.057 -0.5068  3.7281 -2.0368
   50CHL1  H21C 4861   4.417   3.209   4.182  2.7110  0.2175  0.3809
   50CHL1   C22 4862   4.458   2.944   4.184  0.5651  0.0331 -0.1773
   50CHL1  H22A 4863   4.431   2.837   4.175  0.0735  0.1278  0.1254
   50CHL1  H22B 4864   4.568   2.943   4.170  0.4252 -0.8897 -1.3583
   50CHL1   C23 4865   4.407   2.963   4.329 -0.1800  0.4523  0.3688
   50CHL1  H23A 4866   4.404   3.071   4.354  1.7007  0.8891 -1.0737
   50CHL1  H23B 4867   4.301   2.931   4.328 -0.6309  1.8399 -1.3717
   50CHL1   C24 4868   4.492   2.905   4.445 -0.4927 -0.2499 -0.0032
   50CHL1  H24A 4869   4.420   2.896   4.529 -1.0870  0.5501 -0.4116
   50CHL1  H24B 4870   4.520   2.803   4.411  0.4244 -0.1595  0.4457
   50CHL1   C25 4871   4.616   2.985   4.482 -0.2440  0.2313  0.0676
   50CHL1   H25 4872   4.678   2.989   4.389 -2.0941 -0.4460 -1.2667
   50CHL1   C26 4873   4.595   3.131   4.546  0.5758  0.4873  0.3697
   50CHL1  H26A 4874   4.571   3.209   4.471  2.0900 -0.2346 -0.9185
   50CHL1  H26B 4875   4.540   3.128   4.642 -3.0429  1.3771 -1.5071
   50CHL1  H26C 4876   4.699   3.163   4.567  1.4930 -1.3397 -1.1054
   50CHL1   C27 4877   4.686   2.908   4.585 -0.0112 -0.5630 -0.4998
   50CHL1  H27A 4878   4.761   2.968   4.642 -0.0784 -1.9755  1.1384
   50CHL1  H27B 4879   4.618   2.882   4.669  1.8987  0.6913  1.5687
   50CHL1  H27C 4880   4.744   2.821   4.548 -0.5863 -0.5623 -1.4255
   51CHL1    C3 4881   1.520   4.105   3.438  0.7992  0.6217 -0.3061
   51CHL1    H3 4882   1.551   4.209   3.462  2.0788 -0.1259  1.4929
   51CHL1    O3 4883   1.496   4.076   3.297  0.0873 -0.2016  0.5503
   51CHL1   H3' 4884   1.445   4.149   3.262  1.3941 -0.0403 -1.1142
   51CHL1    C4 4885   1.636   4.013   3.481 -0.3194  0.0595 -0.4682
   51CHL1   H4A 4886   1.624   3.914   3.434 -1.2422 -0.2609  0.3991
   51CHL1   H4B 4887   1.728   4.055   3.436 -0.8494  0.5102 -1.1482
   51CHL1    C5 4888   1.646   4.000   3.641  0.0679 -0.3544 -0.4128
   51CHL1    C6 4889   1.761   4.021   3.703 -0.3803 -0.0228  0.4485
   51CHL1    H6 4890   1.851   4.039   3.642 -1.1649 -2.1901 -1.4965
   51CHL1    C7 4891   1.780   3.991   3.849 -0.0300  0.3527 -0.4964
   51CHL1   H7A 4892   1.868   3.926   3.870 -1.5914 -1.9013 -0.5319
   51CHL1   H7B 4893   1.796   4.085   3.906 -0.1659 -0.7238  1.4111
   51CHL1    C8 4894   1.661   3.918   3.914  0.0105  0.5300 -0.6277
   51CHL1    H8 4895   1.663   3.809   3.891 -1.2235  0.2808  0.3475
   51CHL1   C14 4896   1.665   3.923   4.068  0.1065 -0.2904  0.7984
   51CHL1   H14 4897   1.664   4.030   4.099 -2.2304  0.8938 -2.7820
   51CHL1   C15 4898   1.797   3.881   4.141  0.1041 -0.0466  0.4631
   51CHL1  H15A 4899   1.846   3.801   4.083  0.1453 -0.4333  1.0251
   51CHL1  H15B 4900   1.862   3.971   4.149  0.0432  0.4706 -3.1081
   51CHL1   C16 4901   1.755   3.833   4.283 -0.0338 -0.4057  0.7009
   51CHL1  H16A 4902   1.774   3.725   4.301  1.1315 -0.7006 -1.8167
   51CHL1  H16B 4903   1.808   3.896   4.357  2.1241 -2.0536  0.6641
   51CHL1   C17 4904   1.603   3.860   4.289  0.3790 -0.1374  0.1463
   51CHL1   H17 4905   1.592   3.967   4.317  0.1471  0.1344 -0.9313
   51CHL1   C13 4906   1.554   3.852   4.140  0.5709 -0.6645  0.5500
   51CHL1   C18 4907   1.548   3.701   4.104  0.5231  0.1325 -0.1502
   51CHL1  H18A 4908   1.451   3.651   4.126 -0.0599 -0.4661 -3.4865
   51CHL1  H18B 4909   1.555   3.675   3.996  0.6906 -0.8183  0.0828
   51CHL1  H18C 4910   1.631   3.646   4.152 -0.9323 -2.1482 -0.1327
   51CHL1   C12 4911   1.420   3.926   4.099 -0.8398  0.4190 -0.0194
   51CHL1  H12A 4912   1.338   3.881   4.159  0.1758 -0.6514  0.5958
   51CHL1  H12B 4913   1.431   4.033   4.128  1.2821  1.0733 -2.8332
   51CHL1   C11 4914   1.402   3.919   3.950 -0.0825 -0.5587  0.0273
   51CHL1  H11A 4915   1.390   3.812   3.921  0.0062 -0.0319 -2.1149
   51CHL1  H11B 4916   1.311   3.980   3.930 -0.6525 -1.8985 -1.7926
   51CHL1    C9 4917   1.525   3.977   3.870 -0.0973 -0.1626  0.0089
   51CHL1    H9 4918   1.532   4.085   3.894 -1.3221 -0.2983  1.0310
   51CHL1   C10 4919   1.516   3.972   3.720  0.2654  0.4618  0.6942
   51CHL1   C19 4920   1.484   3.829   3.678  0.0752  0.5267  0.7878
   51CHL1  H19A 4921   1.376   3.817   3.699  0.1842 -1.7600  0.3176
   51CHL1  H19B 4922   1.490   3.804   3.570 -1.7681 -1.5865  1.1103
   51CHL1  H19C 4923   1.546   3.761   3.740  2.0462  2.9821  1.6950
   51CHL1    C1 4924   1.407   4.069   3.674 -0.5075 -0.0308  0.3556
   51CHL1   H1A 4925   1.301   4.053   3.704 -0.8200  0.6879 -0.3434
   51CHL1   H1B 4926   1.428   4.174   3.704  0.2832  0.0973 -0.5777
   51CHL1    C2 4927   1.396   4.071   3.517 -0.1570  0.1191 -0.2747
   51CHL1   H2A 4928   1.333   4.158   3.488  1.4815  0.2027 -4.2153
   51CHL1   H2B 4929   1.360   3.969   3.494 -1.7402  0.5988 -0.0438
   51CHL1   C20 4930   1.523   3.779   4.396 -0.9094 -0.1474 -0.2691
   51CHL1   H20 4931   1.527   3.673   4.366 -1.4568  0.0937 -1.2421
   51CHL1   C21 4932   1.375   3.822   4.403  0.0324 -0.0782 -0.4549
   51CHL1  H21A 4933   1.318   3.794   4.495 -1.7311  1.2012 -1.1008
   51CHL1  H21B 4934   1.309   3.765   4.335 -0.9444  0.6122 -0.1147
   51CHL1  H21C 4935   1.362   3.932   4.395 -0.6814 -0.1053  0.1681
   51CHL1   C22 4936   1.592   3.779   4.535 -0.1431  0.0670  0.7311
   51CHL1  H22A 4937   1.549   3.705   4.606  1.5983 -0.4977  1.2555
   51CHL1  H22B 4938   1.693   3.733   4.528 -1.4568 -2.9997  0.1432
   51CHL1   C23 4939   1.600   3.917   4.596  0.0826  0.2142 -1.2161
   51CHL1  H23A 4940   1.638   3.980   4.513 -1.0996 -2.3824 -3.9548
   51CHL1  H23B 4941   1.497   3.939   4.632  0.4484 -1.3610  1.0187
   51CHL1   C24 4942   1.694   3.923   4.719  0.1174 -0.4877 -0.2177
   51CHL1  H24A 4943   1.791   3.877   4.689  0.3122 -0.5263  0.4555
   51CHL1  H24B 4944   1.708   4.029   4.748 -1.9925  0.2371 -1.6271
   51CHL1   C25 4945   1.641   3.876   4.851  0.4080 -0.7133 -0.3754
   51CHL1   H25 4946   1.572   3.791   4.835  1.4391 -1.6233 -0.0697
   51CHL1   C26 4947   1.749   3.822   4.953 -0.4488 -0.6557 -0.5745
   51CHL1  H26A 4948   1.790   3.729   4.906 -1.5015  0.1690 -3.2794
   51CHL1  H26B 4949   1.828   3.900   4.962 -0.2884 -0.4542 -2.9243
   51CHL1  H26C 4950   1.704   3.807   5.053  0.8339  2.2468  0.5253
   51CHL1   C27 4951   1.563   3.993   4.921  0.2912 -0.3058  0.5773
   51CHL1  H27A 4952   1.611   4.093   4.928 -2.2719  0.9760  0.9202
   51CHL1  H27B 4953   1.471   4.007   4.861 -0.6105  0.0582  1.9941
   51CHL1  H27C 4954   1.531   3.974   5.026 -0.7856  1.2077  0.5601
   52CHL1    C3 4955   2.689   4.646   3.426 -0.2696  0.0802 -0.2428
   52CHL1    H3 4956   2.584   4.665   3.458  1.1361  1.6029  4.1626
   52CHL1    O3 4957   2.727   4.707   3.300  0.3521 -0.0657  0.5148
   52CHL1   H3' 4958   2.787   4.646   3.256  0.4232  0.3191  0.0667
   52CHL1    C4 4959   2.786   4.709   3.530 -0.7039  0.8934 -0.2132
   52CHL1   H4A 4960   2.891   4.704   3.492 -1.2938 -0.5652 -1.8089
   52CHL1   H4B 4961   2.765   4.817   3.544 -1.0462  0.8359 -0.2827
   52CHL1    C5 4962   2.766   4.639   3.659  0.4154  0.6277  0.1666
   52CHL1    C6 4963   2.734   4.705   3.774  1.1749 -0.1600 -0.0994
   52CHL1    H6 4964   2.729   4.815   3.775 -1.4380 -0.0055 -4.0489
   52CHL1    C7 4965   2.707   4.642   3.908  0.0391 -0.2493 -0.3671
   52CHL1   H7A 4966   2.758   4.703   3.985  0.3680 -0.3784 -0.4817
   52CHL1   H7B 4967   2.598   4.644   3.934  0.5260  0.5961  1.8527
   52CHL1    C8 4968   2.765   4.498   3.919 -0.1712 -0.1710  0.2596
   52CHL1    H8 4969   2.875   4.503   3.926  0.0785 -1.1070 -2.2513
   52CHL1   C14 4970   2.709   4.431   4.047 -0.2254 -0.7151 -0.0045
   52CHL1   H14 4971   2.601   4.434   4.023  0.0191 -2.1445 -1.5252
   52CHL1   C15 4972   2.720   4.508   4.180  0.0487  0.1608 -0.2387
   52CHL1  H15A 4973   2.816   4.558   4.206  1.5366 -2.3650 -0.5452
   52CHL1  H15B 4974   2.636   4.578   4.202  0.4698  0.6232 -0.0725
   52CHL1   C16 4975   2.705   4.405   4.289 -0.2614 -0.8671 -0.0431
   52CHL1  H16A 4976   2.803   4.396   4.341  0.2186  0.5505 -0.6651
   52CHL1  H16B 4977   2.624   4.438   4.357  0.3830 -0.9414  0.7696
   52CHL1   C17 4978   2.675   4.270   4.208 -0.6614 -0.6584  0.2784
   52CHL1   H17 4979   2.566   4.273   4.186 -0.5153  1.9389 -0.4305
   52CHL1   C13 4980   2.749   4.287   4.067  0.8024  0.3708 -0.1076
   52CHL1   C18 4981   2.897   4.262   4.090  0.6956 -0.3535 -0.0781
   52CHL1  H18A 4982   2.924   4.312   4.186 -0.6754 -2.0660  1.2494
   52CHL1  H18B 4983   2.917   4.153   4.090 -0.4213 -0.5613  0.1907
   52CHL1  H18C 4984   2.959   4.313   4.012  1.2783 -0.1705  0.4899
   52CHL1   C12 4985   2.703   4.207   3.947 -0.6123 -0.7519  0.1059
   52CHL1  H12A 4986   2.728   4.098   3.951 -2.4090 -1.1738  1.1195
   52CHL1  H12B 4987   2.592   4.213   3.942 -0.5394  0.5549 -0.1695
   52CHL1   C11 4988   2.758   4.269   3.815  0.4091  0.5427  0.6055
   52CHL1  H11A 4989   2.867   4.247   3.809  0.7099  2.1643 -0.3010
   52CHL1  H11B 4990   2.710   4.209   3.734  1.7057 -1.5953  1.3180
   52CHL1    C9 4991   2.723   4.415   3.799  0.3551 -0.5080  0.4373
   52CHL1    H9 4992   2.613   4.430   3.797  0.3414 -0.4719 -2.8256
   52CHL1   C10 4993   2.776   4.480   3.671  0.3802  0.0076 -0.0065
   52CHL1   C19 4994   2.925   4.453   3.657  0.0954 -0.2690 -0.1564
   52CHL1  H19A 4995   2.962   4.485   3.557 -1.3063 -2.8511 -1.6072
   52CHL1  H19B 4996   2.974   4.508   3.740 -2.0921  1.1937  0.2344
   52CHL1  H19C 4997   2.954   4.346   3.669 -1.8557 -0.6335  1.9349
   52CHL1    C1 4998   2.704   4.422   3.538  0.2809 -0.4143  0.3382
   52CHL1   H1A 4999   2.753   4.324   3.519  3.5501  1.3062 -0.9084
   52CHL1   H1B 5000   2.596   4.401   3.556 -0.0633  1.0931  0.2143
   52CHL1    C2 5001   2.715   4.498   3.403  0.4840 -0.1925 -0.5678
   52CHL1   H2A 5002   2.644   4.463   3.325 -1.8803 -1.2147  1.8918
   52CHL1   H2B 5003   2.820   4.504   3.368  1.5826  4.1196  2.6162
   52CHL1   C20 5004   2.706   4.143   4.297  0.0840 -0.2109 -0.1861
   52CHL1   H20 5005   2.816   4.133   4.308 -0.1852 -2.6178  1.0382
   52CHL1   C21 5006   2.666   4.010   4.226 -0.4984 -0.1189 -0.0934
   52CHL1  H21A 5007   2.681   3.926   4.298 -0.9900 -0.2519 -0.1437
   52CHL1  H21B 5008   2.723   3.982   4.135 -0.6651 -1.5760  0.2169
   52CHL1  H21C 5009   2.557   4.014   4.205 -0.4514  2.0892 -0.1671
   52CHL1   C22 5010   2.646   4.144   4.440 -0.1998 -0.3003  0.2844
   52CHL1  H22A 5011   2.662   4.240   4.493  1.2472 -0.7406  0.6994
   52CHL1  H22B 5012   2.536   4.130   4.433  0.0501 -1.7734 -1.9355
   52CHL1   C23 5013   2.705   4.040   4.538 -0.0754  0.0975  0.1496
   52CHL1  H23A 5014   2.674   3.937   4.514  2.1200 -0.7711  0.8044
   52CHL1  H23B 5015   2.815   4.055   4.541  0.0282  0.0233 -2.0144
   52CHL1   C24 5016   2.641   4.050   4.675 -0.1507  0.9951 -0.3197
   52CHL1  H24A 5017   2.644   4.158   4.696  1.4165  1.2825 -1.7396
   52CHL1  H24B 5018   2.535   4.018   4.673  0.4935 -1.7956  2.3508
   52CHL1   C25 5019   2.722   3.981   4.788 -0.2171  0.0394  0.5301
   52CHL1   H25 5020   2.716   3.872   4.770  0.9795  0.2887 -1.7234
   52CHL1   C26 5021   2.872   4.017   4.791 -1.0047 -0.4038 -0.5910
   52CHL1  H26A 5022   2.934   3.946   4.732 -1.6974 -0.3576 -1.4001
   52CHL1  H26B 5023   2.881   4.118   4.746  1.2820  0.1191  0.8868
   52CHL1  H26C 5024   2.911   4.029   4.894  2.2514 -0.9294 -1.6569
   52CHL1   C27 5025   2.656   4.009   4.928 -0.3149  0.1554  0.6148
   52CHL1  H27A 5026   2.691   3.944   5.011  0.4338  0.1061  0.2773
   52CHL1  H27B 5027   2.655   4.118   4.949 -1.2441  0.3478 -0.3255
   52CHL1  H27C 5028   2.548   3.993   4.910  0.0761 -0.4062 -1.5383
   53CHL1    C3 5029   0.836   4.321   3.396  1.0384 -0.2927  0.1490
   53CHL1    H3 5030   0.731   4.291   3.418  0.7940 -0.1778 -0.7768
   53CHL1    O3 5031   0.839   4.347   3.253  0.2936  0.0588 -0.0937
   53CHL1   H3' 5032   0.801   4.268   3.215 -2.9055 -0.1035  2.8906
   53CHL1    C4 5033   0.896   4.433   3.480  0.2539 -0.4017 -0.0924
   53CHL1   H4A 5034   1.001   4.449   3.446  1.4972 -4.8282  0.9735
   53CHL1   H4B 5035   0.846   4.528   3.455  0.9040  0.9377  3.1899
   53CHL1    C5 5036   0.906   4.410   3.629  0.8121 -0.2358  0.7214
   53CHL1    C6 5037   0.854   4.496   3.713  0.0070  0.2026  0.4400
   53CHL1    H6 5038   0.801   4.583   3.671 -0.7710 -0.9962 -1.1536
   53CHL1    C7 5039   0.851   4.478   3.863  1.3500  0.0255 -0.5366
   53CHL1   H7A 5040   0.876   4.576   3.908  0.0628 -0.0413  0.3775
   53CHL1   H7B 5041   0.748   4.451   3.896  1.6904  0.1878  0.7033
   53CHL1    C8 5042   0.957   4.369   3.905  0.6212 -0.9841  0.2883
   53CHL1    H8 5043   1.053   4.422   3.892  0.2581  0.3482  2.4700
   53CHL1   C14 5044   0.922   4.353   4.049 -0.3741  0.2349  0.0253
   53CHL1   H14 5045   0.818   4.318   4.060  0.1589 -1.6881 -0.7529
   53CHL1   C15 5046   0.927   4.477   4.139 -0.0486 -0.3448 -0.0277
   53CHL1  H15A 5047   1.009   4.550   4.121  0.9697 -1.1338  1.2118
   53CHL1  H15B 5048   0.832   4.533   4.152  0.0176 -0.5625  1.6360
   53CHL1   C16 5049   0.963   4.410   4.274 -0.1650  0.0361 -0.5779
   53CHL1  H16A 5050   1.059   4.457   4.303  0.7173 -0.7905 -2.0391
   53CHL1  H16B 5051   0.888   4.444   4.348  0.3216  1.8174 -0.8530
   53CHL1   C17 5052   0.974   4.253   4.253 -0.3810 -0.5661 -0.7403
   53CHL1   H17 5053   0.869   4.222   4.269 -0.1749 -1.0444 -0.2790
   53CHL1   C13 5054   1.015   4.244   4.109  0.1621  0.0764  0.1526
   53CHL1   C18 5055   1.160   4.274   4.092 -0.4768 -0.5143 -0.3857
   53CHL1  H18A 5056   1.180   4.369   4.146 -1.3035  0.1095 -1.1449
   53CHL1  H18B 5057   1.223   4.194   4.137  2.2517  0.4733 -2.1900
   53CHL1  H18C 5058   1.187   4.290   3.985  0.5856  0.6960  0.0406
   53CHL1   C12 5059   0.967   4.113   4.038 -0.0473  0.7770  0.5229
   53CHL1  H12A 5060   1.030   4.026   4.066 -0.9111 -0.0219  0.0515
   53CHL1  H12B 5061   0.861   4.086   4.061  0.3690  1.5053  3.7175
   53CHL1   C11 5062   0.997   4.124   3.885 -0.3525  0.7196 -0.1545
   53CHL1  H11A 5063   1.105   4.102   3.873 -0.6392  0.3261 -2.3895
   53CHL1  H11B 5064   0.955   4.041   3.824  0.4578  0.1994 -0.0133
   53CHL1    C9 5065   0.942   4.251   3.816 -0.0566  0.4722  0.5644
   53CHL1    H9 5066   0.835   4.224   3.827 -0.2132  0.8991  0.1337
   53CHL1   C10 5067   0.966   4.273   3.666  0.3327 -0.0146  0.5969
   53CHL1   C19 5068   1.118   4.270   3.657  0.1815  0.3105 -0.2864
   53CHL1  H19A 5069   1.162   4.174   3.691 -2.1690 -0.7387 -0.0109
   53CHL1  H19B 5070   1.144   4.292   3.551  1.0907  0.7298  0.0079
   53CHL1  H19C 5071   1.159   4.356   3.715 -1.6974  0.4033  0.9882
   53CHL1    C1 5072   0.909   4.162   3.574  0.1329  0.4081  0.2629
   53CHL1   H1A 5073   0.964   4.066   3.582  0.2344  0.3538 -0.8516
   53CHL1   H1B 5074   0.804   4.140   3.604 -0.2810  0.1908 -1.2418
   53CHL1    C2 5075   0.915   4.191   3.425  0.1332 -0.0687  1.1203
   53CHL1   H2A 5076   0.872   4.113   3.360  1.6675 -0.3856  0.4415
   53CHL1   H2B 5077   1.023   4.201   3.401 -0.0310  0.0477  0.4012
   53CHL1   C20 5078   1.062   4.190   4.368  0.5919 -0.4082 -0.1017
   53CHL1   H20 5079   1.167   4.226   4.367  0.3504  0.3630  0.8260
   53CHL1   C21 5080   1.062   4.037   4.351  0.4583  0.3427 -1.0088
   53CHL1  H21A 5081   1.101   4.003   4.253 -2.5821 -2.9016 -1.3249
   53CHL1  H21B 5082   0.954   4.009   4.353 -0.0966  2.2929 -0.9403
   53CHL1  H21C 5083   1.111   3.981   4.432 -1.5860  1.4663  1.1284
   53CHL1   C22 5084   1.007   4.214   4.513 -0.8164  0.0598 -0.5248
   53CHL1  H22A 5085   1.006   4.324   4.527  1.5013 -0.1479  2.6387
   53CHL1  H22B 5086   0.910   4.160   4.512 -1.6346  1.4722  0.2752
   53CHL1   C23 5087   1.094   4.157   4.624 -0.7104  0.0591  0.3606
   53CHL1  H23A 5088   1.077   4.047   4.626 -0.9814  0.0830 -0.3930
   53CHL1  H23B 5089   1.202   4.172   4.604 -1.1961  2.8603 -0.5494
   53CHL1   C24 5090   1.052   4.205   4.763  0.3844 -0.1114 -0.8082
   53CHL1  H24A 5091   1.066   4.315   4.760  1.5646 -0.0888  2.3247
   53CHL1  H24B 5092   0.946   4.182   4.787  0.2934  1.6875  0.7778
   53CHL1   C25 5093   1.143   4.160   4.882 -0.1597  0.8022 -0.5875
   53CHL1   H25 5094   1.147   4.051   4.904  2.3741  0.8233 -0.5931
   53CHL1   C26 5095   1.292   4.207   4.870 -0.3411  0.6659  0.7011
   53CHL1  H26A 5096   1.295   4.318   4.875 -0.8143  0.7009  0.3075
   53CHL1  H26B 5097   1.345   4.161   4.956 -0.6631  0.1246  0.6181
   53CHL1  H26C 5098   1.332   4.183   4.769  2.1989 -0.1438  1.8109
   53CHL1   C27 5099   1.081   4.219   5.014 -0.2001  0.2856 -0.0597
   53CHL1  H27A 5100   1.156   4.203   5.095  1.3285  2.4866 -0.9306
   53CHL1  H27B 5101   1.056   4.327   4.999 -3.0757 -0.4984 -1.6720
   53CHL1  H27C 5102   0.985   4.164   5.024 -0.8974  1.0892 -1.8823
   54CHL1    C3 5103   1.744   5.046   3.522  0.5157 -0.5481  0.0096
   54CHL1    H3 5104   1.743   5.144   3.574 -0.6082  0.1724 -1.2880
   54CHL1    O3 5105   1.721   5.052   3.382  0.0007  0.2661  0.1498
   54CHL1   H3' 5106   1.807   5.056   3.339 -0.9259  2.8741 -1.7203
   54CHL1    C4 5107   1.880   4.977   3.545  0.6547  0.0523 -0.8983
   54CHL1   H4A 5108   1.872   4.873   3.508 -1.7519 -0.3929  0.6559
   54CHL1   H4B 5109   1.960   5.033   3.492  0.9030  0.4795 -0.1011
   54CHL1    C5 5110   1.911   4.956   3.693  0.4368 -0.1083 -0.2592
   54CHL1    C6 5111   2.028   4.993   3.753  1.0615 -0.3209  0.2834
   54CHL1    H6 5112   2.108   5.035   3.689  1.0958  0.8841  1.0957
   54CHL1    C7 5113   2.056   4.984   3.898 -0.1781  0.5534 -0.1871
   54CHL1   H7A 5114   2.154   4.938   3.925 -0.0885  1.1259  0.4818
   54CHL1   H7B 5115   2.065   5.086   3.940  2.6026 -0.5985  2.3963
   54CHL1    C8 5116   1.958   4.903   3.984  0.1429  0.0762 -0.1520
   54CHL1    H8 5117   1.975   4.794   3.972  0.1643  0.2449 -1.8496
   54CHL1   C14 5118   1.976   4.937   4.129  0.4325  0.1063 -0.9062
   54CHL1   H14 5119   1.972   5.048   4.135  2.7332  0.3280 -2.2084
   54CHL1   C15 5120   2.108   4.903   4.203 -0.7244 -0.2132 -0.6049
   54CHL1  H15A 5121   2.129   4.797   4.175  1.2202  0.7393 -3.1004
   54CHL1  H15B 5122   2.196   4.961   4.169  0.3126 -1.8029 -0.7639
   54CHL1   C16 5123   2.080   4.948   4.351  0.3766  0.0696 -0.1628
   54CHL1  H16A 5124   2.144   4.895   4.424 -1.3521 -1.0006  0.6462
   54CHL1  H16B 5125   2.107   5.056   4.355  0.9974 -0.0492 -1.0525
   54CHL1   C17 5126   1.926   4.929   4.373  0.3305  0.0922  0.8511
   54CHL1   H17 5127   1.886   5.032   4.378  0.1911  0.0615  0.4392
   54CHL1   C13 5128   1.873   4.882   4.233 -0.0324 -0.2090 -0.5580
   54CHL1   C18 5129   1.881   4.727   4.229 -0.2923 -0.0993 -0.0541
   54CHL1  H18A 5130   1.956   4.684   4.299 -0.4265  1.5588  1.1604
   54CHL1  H18B 5131   1.786   4.683   4.268  0.4264 -1.1508  0.5852
   54CHL1  H18C 5132   1.902   4.687   4.128  1.3212  2.2401 -0.6995
   54CHL1   C12 5133   1.735   4.938   4.190 -0.4702 -0.4954 -0.1984
   54CHL1  H12A 5134   1.647   4.905   4.249 -0.7851 -1.8284 -1.3607
   54CHL1  H12B 5135   1.736   5.049   4.188  3.6616 -0.3594  0.2541
   54CHL1   C11 5136   1.711   4.892   4.045  0.2884  0.5823  0.1251
   54CHL1  H11A 5137   1.702   4.782   4.036 -1.5809  0.8401 -2.1317
   54CHL1  H11B 5138   1.609   4.926   4.018 -0.5812 -2.4446 -0.8070
   54CHL1    C9 5139   1.818   4.940   3.939  0.1562 -0.5788  0.6789
   54CHL1    H9 5140   1.820   5.051   3.945  1.2910 -0.6383  1.7296
   54CHL1   C10 5141   1.792   4.907   3.787 -0.5926 -0.2158 -0.4669
   54CHL1   C19 5142   1.790   4.756   3.764 -0.5883  0.1306  0.3561
   54CHL1  H19A 5143   1.883   4.702   3.789 -0.3748 -0.5767 -1.7782
   54CHL1  H19B 5144   1.702   4.718   3.820  1.3615 -0.5026  3.2292
   54CHL1  H19C 5145   1.769   4.731   3.658 -0.6412  3.4952 -0.5699
   54CHL1    C1 5146   1.659   4.965   3.747  0.2580 -0.1892  0.1533
   54CHL1   H1A 5147   1.579   4.913   3.803  0.4040 -3.0946 -2.0943
   54CHL1   H1B 5148   1.650   5.067   3.789  0.0933  0.4690 -1.4147
   54CHL1    C2 5149   1.633   4.969   3.595  0.7135  0.0229 -0.8826
   54CHL1   H2A 5150   1.533   5.012   3.576 -0.5336 -1.4186  1.8141
   54CHL1   H2B 5151   1.639   4.865   3.556  0.5108  0.3812 -1.8972
   54CHL1   C20 5152   1.884   4.855   4.495 -0.2772  0.0948  0.6595
   54CHL1   H20 5153   1.929   4.754   4.498  1.1105  0.6966  1.3628
   54CHL1   C21 5154   1.731   4.843   4.498 -0.8196 -0.0585 -0.0321
   54CHL1  H21A 5155   1.682   4.942   4.492  0.5920  0.6922  0.4071
   54CHL1  H21B 5156   1.707   4.813   4.602 -1.0575 -1.0528 -0.3600
   54CHL1  H21C 5157   1.674   4.781   4.426 -1.2799 -0.2395  0.4813
   54CHL1   C22 5158   1.939   4.925   4.627  0.4495  0.1178 -0.3995
   54CHL1  H22A 5159   2.046   4.954   4.618  0.0848  1.5288 -0.4269
   54CHL1  H22B 5160   1.874   5.014   4.640 -0.9304 -1.1566  2.4111
   54CHL1   C23 5161   1.925   4.837   4.748  0.0039  0.2729 -0.3695
   54CHL1  H23A 5162   1.822   4.852   4.787  0.0070 -3.1593  1.2817
   54CHL1  H23B 5163   1.922   4.729   4.722  0.7753  0.2848 -0.5334
   54CHL1   C24 5164   2.041   4.865   4.854 -0.6850 -0.1465 -0.6202
   54CHL1  H24A 5165   2.139   4.847   4.805  0.5829  1.1045  1.3543
   54CHL1  H24B 5166   2.037   4.971   4.887 -0.3259 -0.4974  0.5910
   54CHL1   C25 5167   2.030   4.778   4.973 -0.0198  0.1620 -0.5492
   54CHL1   H25 5168   2.016   4.673   4.939 -1.2699  0.2541 -0.3450
   54CHL1   C26 5169   2.149   4.798   5.064 -0.1983 -0.3404  0.2057
   54CHL1  H26A 5170   2.129   4.742   5.158 -0.7956  2.0449  1.6081
   54CHL1  H26B 5171   2.245   4.755   5.027  1.7925  2.0384  2.2283
   54CHL1  H26C 5172   2.145   4.904   5.099 -2.4926 -0.9266  1.9018
   54CHL1   C27 5173   1.901   4.817   5.044  0.2423  0.8117  0.3692
   54CHL1  H27A 5174   1.901   4.926   5.066  4.1601  1.2565 -1.1296
   54CHL1  H27B 5175   1.809   4.784   4.992  1.3000 -2.0203  0.1646
   54CHL1  H27C 5176   1.904   4.752   5.134 -1.5630 -1.2408 -0.9402
   55CHL1    C3 5177   2.571   1.158   3.154  0.5059 -0.2192  0.8032
   55CHL1    H3 5178   2.602   1.264   3.167 -1.3294  0.4237  0.2324
   55CHL1    O3 5179   2.546   1.143   3.012 -0.5915  0.3384  0.8680
   55CHL1   H3' 5180   2.512   1.053   3.013 -1.3620  0.4536 -2.6677
   55CHL1    C4 5181   2.686   1.069   3.203  0.3047  0.1861 -0.0463
   55CHL1   H4A 5182   2.648   0.966   3.184  1.0496  0.1005 -1.1523
   55CHL1   H4B 5183   2.770   1.086   3.132  0.9292 -2.4909 -0.0641
   55CHL1    C5 5184   2.729   1.090   3.348  0.0083  0.8869  0.2317
   55CHL1    C6 5185   2.843   1.144   3.391  0.0351  0.9652  0.1729
   55CHL1    H6 5186   2.919   1.159   3.314 -2.6544  0.9833 -2.6989
   55CHL1    C7 5187   2.864   1.174   3.539 -0.4517  0.0574  0.0532
   55CHL1   H7A 5188   2.965   1.133   3.559  0.2904  2.2866  1.1197
   55CHL1   H7B 5189   2.868   1.283   3.560 -3.3103  0.4242 -0.8597
   55CHL1    C8 5190   2.761   1.111   3.639 -0.2005 -0.2380  0.6438
   55CHL1    H8 5191   2.777   1.001   3.634 -0.7649 -0.3495  1.1464
   55CHL1   C14 5192   2.766   1.178   3.776 -0.4775  1.1132 -0.5971
   55CHL1   H14 5193   2.747   1.285   3.752  0.1908  1.1955 -0.7593
   55CHL1   C15 5194   2.901   1.166   3.848  0.3910  0.3730 -0.0974
   55CHL1  H15A 5195   2.948   1.066   3.839 -0.9205 -0.1245 -2.2731
   55CHL1  H15B 5196   2.978   1.238   3.813  0.1005  0.5557 -0.3578
   55CHL1   C16 5197   2.879   1.200   3.994  0.5138  0.3817  0.1449
   55CHL1  H16A 5198   2.909   1.111   4.053  1.3352  1.3858  1.2889
   55CHL1  H16B 5199   2.935   1.291   4.024 -0.1834  1.0095 -0.4066
   55CHL1   C17 5200   2.722   1.224   4.001  0.2141  0.3914  0.0990
   55CHL1   H17 5201   2.709   1.331   3.977 -1.5394  0.6176  1.7913
   55CHL1   C13 5202   2.660   1.142   3.877  0.7450 -0.1871 -0.2871
   55CHL1   C18 5203   2.664   0.991   3.918 -0.7836 -0.4421 -0.3036
   55CHL1  H18A 5204   2.753   0.975   3.982 -0.6284  0.9100 -0.1481
   55CHL1  H18B 5205   2.574   0.978   3.983 -0.0801  0.2351  0.8489
   55CHL1  H18C 5206   2.662   0.920   3.833  2.3001  1.2090 -1.9334
   55CHL1   C12 5207   2.529   1.183   3.828 -0.5928  0.9235  0.5309
   55CHL1  H12A 5208   2.447   1.144   3.891  0.4272  0.7155  1.7637
   55CHL1  H12B 5209   2.514   1.291   3.809  1.4142  0.8169 -2.3004
   55CHL1   C11 5210   2.509   1.103   3.692 -0.7319  0.3160  0.1113
   55CHL1  H11A 5211   2.510   0.993   3.711  0.4228  0.4602  1.0415
   55CHL1  H11B 5212   2.405   1.126   3.662 -0.5136 -0.4958 -1.3390
   55CHL1    C9 5213   2.621   1.138   3.589  1.0911  0.1814 -0.1516
   55CHL1    H9 5214   2.624   1.249   3.585  2.6874  0.1422 -0.9850
   55CHL1   C10 5215   2.606   1.077   3.443  0.1207  0.4456 -0.3701
   55CHL1   C19 5216   2.579   0.925   3.451  0.1326  0.0231 -0.0267
   55CHL1  H19A 5217   2.556   0.885   3.350  0.7621 -0.4825  0.0242
   55CHL1  H19B 5218   2.664   0.874   3.500 -0.4087 -2.2936 -1.3665
   55CHL1  H19C 5219   2.489   0.901   3.512 -0.2843  0.7501 -0.3393
   55CHL1    C1 5220   2.467   1.142   3.388 -0.0207  0.4827  0.3236
   55CHL1   H1A 5221   2.384   1.099   3.446  1.4261 -2.2139  0.5476
   55CHL1   H1B 5222   2.479   1.250   3.413 -0.6885 -0.1089  3.6549
   55CHL1    C2 5223   2.444   1.126   3.240  0.6966 -0.2894 -0.7212
   55CHL1   H2A 5224   2.355   1.186   3.212 -1.2148 -2.1501  0.9951
   55CHL1   H2B 5225   2.413   1.020   3.223  0.4048 -0.4425  0.7011
   55CHL1   C20 5226   2.658   1.215   4.144 -0.0578  0.3713 -0.0012
   55CHL1   H20 5227   2.665   1.111   4.182  1.4632 -0.2175 -1.7408
   55CHL1   C21 5228   2.516   1.264   4.143  0.5653  0.0425 -0.2898
   55CHL1  H21A 5229   2.512   1.367   4.104  3.5379  0.3046 -0.1471
   55CHL1  H21B 5230   2.464   1.273   4.241  0.3024  1.5023 -0.5487
   55CHL1  H21C 5231   2.455   1.200   4.076  0.6517  0.2670 -0.5821
   55CHL1   C22 5232   2.747   1.290   4.252 -0.1526 -0.2031 -0.2003
   55CHL1  H22A 5233   2.703   1.260   4.349 -3.3445 -1.3389 -1.8349
   55CHL1  H22B 5234   2.845   1.238   4.241  0.7685  1.8240 -2.5714
   55CHL1   C23 5235   2.759   1.440   4.236 -0.8113 -0.4439 -0.1965
   55CHL1  H23A 5236   2.824   1.469   4.151 -0.7989 -2.6680 -1.0173
   55CHL1  H23B 5237   2.660   1.486   4.218 -0.4950 -0.0462 -0.9082
   55CHL1   C24 5238   2.819   1.503   4.367  0.1755  0.5357 -0.2612
   55CHL1  H24A 5239   2.762   1.466   4.456 -1.6091  0.7098 -1.2908
   55CHL1  H24B 5240   2.924   1.466   4.367  0.6682  1.7138  1.9798
   55CHL1   C25 5241   2.828   1.657   4.385  0.0701 -0.1534  0.5022
   55CHL1   H25 5242   2.874   1.699   4.293 -1.5118  0.4989 -0.0186
   55CHL1   C26 5243   2.685   1.710   4.386  0.5458  0.1399 -0.4866
   55CHL1  H26A 5244   2.610   1.637   4.423  0.5965  0.2480 -0.1605
   55CHL1  H26B 5245   2.686   1.800   4.452  2.6605 -0.1890  0.0148
   55CHL1  H26C 5246   2.646   1.740   4.287  0.4516 -0.9102 -0.7750
   55CHL1   C27 5247   2.900   1.676   4.516  0.1783 -0.3760 -0.1281
   55CHL1  H27A 5248   2.906   1.786   4.532 -1.1873 -0.3687  0.5297
   55CHL1  H27B 5249   2.849   1.625   4.600 -0.2732  0.7617  0.3076
   55CHL1  H27C 5250   3.000   1.631   4.504 -0.5755 -2.6170  1.3119
   56CHL1    C3 5251   3.022   0.650   3.050 -0.2140  0.1284  0.3463
   56CHL1    H3 5252   3.130   0.668   3.032  0.0593  1.0244  2.5111
   56CHL1    O3 5253   2.948   0.640   2.923 -0.2374 -0.1040 -0.1563
   56CHL1   H3' 5254   2.862   0.603   2.941 -0.5793  0.3079 -0.8884
   56CHL1    C4 5255   3.010   0.519   3.135 -0.5272  0.1919  0.2586
   56CHL1   H4A 5256   2.901   0.499   3.138 -0.2771 -1.1741  2.9682
   56CHL1   H4B 5257   3.056   0.430   3.088  1.5482  2.1070 -1.5991
   56CHL1    C5 5258   3.060   0.541   3.277 -0.2680 -0.8984 -0.0763
   56CHL1    C6 5259   3.149   0.462   3.334  0.2635  0.4019 -0.3751
   56CHL1    H6 5260   3.197   0.380   3.279  0.5076 -1.4643  2.3999
   56CHL1    C7 5261   3.186   0.462   3.480 -0.5227 -0.4011  0.2386
   56CHL1   H7A 5262   3.183   0.363   3.530 -0.6556  0.0921  1.2344
   56CHL1   H7B 5263   3.287   0.509   3.489 -0.0548 -1.2783 -0.2481
   56CHL1    C8 5264   3.085   0.545   3.569 -0.1521  0.4436 -0.1411
   56CHL1    H8 5265   2.994   0.486   3.593  0.8940 -0.5994  1.3956
   56CHL1   C14 5266   3.156   0.582   3.706  0.2438 -0.4863  0.1440
   56CHL1   H14 5267   3.248   0.634   3.672  1.3843 -3.0983 -1.0624
   56CHL1   C15 5268   3.207   0.469   3.801  0.3387 -0.2726  0.7209
   56CHL1  H15A 5269   3.135   0.385   3.798 -0.5869  0.5213 -1.0956
   56CHL1  H15B 5270   3.300   0.428   3.756  0.8892  1.4101  0.2288
   56CHL1   C16 5271   3.241   0.533   3.934  0.3759 -0.2950  0.3414
   56CHL1  H16A 5272   3.220   0.470   4.023  4.1011  0.0312  1.6216
   56CHL1  H16B 5273   3.350   0.556   3.931  0.9871 -2.7674 -3.1607
   56CHL1   C17 5274   3.166   0.671   3.927  0.2946 -0.0076 -0.0043
   56CHL1   H17 5275   3.244   0.741   3.892 -1.7451  1.9674 -0.7886
   56CHL1   C13 5276   3.075   0.667   3.799  0.8647  0.1083  0.1385
   56CHL1   C18 5277   2.949   0.592   3.838  0.6500  0.5294  0.0880
   56CHL1  H18A 5278   2.892   0.566   3.746 -1.5932  1.7260  1.0542
   56CHL1  H18B 5279   2.973   0.497   3.890  0.3707  0.7386  0.6071
   56CHL1  H18C 5280   2.889   0.644   3.916 -0.3442 -3.1334  2.0082
   56CHL1   C12 5281   3.044   0.799   3.730  0.6292 -0.6954  0.3115
   56CHL1  H12A 5282   2.969   0.846   3.797 -0.4733 -0.2397 -1.1900
   56CHL1  H12B 5283   3.135   0.858   3.707  1.0400 -1.2507  0.4801
   56CHL1   C11 5284   2.975   0.777   3.594 -0.0257  0.2284 -0.2454
   56CHL1  H11A 5285   2.877   0.735   3.624  0.0156  1.2035  1.4131
   56CHL1  H11B 5286   2.963   0.871   3.535  0.5495 -2.0101 -4.3247
   56CHL1    C9 5287   3.053   0.679   3.497 -0.1093 -0.2624  0.4971
   56CHL1    H9 5288   3.149   0.731   3.476 -0.5037  0.2639 -0.0480
   56CHL1   C10 5289   2.990   0.656   3.356  0.7066 -0.3997  0.5329
   56CHL1   C19 5290   2.836   0.631   3.380  0.0208  0.6796  0.6508
   56CHL1  H19A 5291   2.796   0.725   3.425  1.3721  1.4155  0.3862
   56CHL1  H19B 5292   2.795   0.609   3.279  2.4524 -0.6067 -0.1400
   56CHL1  H19C 5293   2.810   0.536   3.431 -1.8584  1.0738  0.4698
   56CHL1    C1 5294   3.011   0.779   3.274 -0.2104 -0.6917  0.4405
   56CHL1   H1A 5295   2.964   0.870   3.315 -1.1709 -0.7001 -0.5900
   56CHL1   H1B 5296   3.118   0.807   3.260 -0.9350  2.6277  0.8117
   56CHL1    C2 5297   2.963   0.771   3.128 -0.2074  0.3647 -0.5206
   56CHL1   H2A 5298   3.005   0.863   3.082  1.3658 -1.0659 -2.0484
   56CHL1   H2B 5299   2.852   0.771   3.134 -0.1769  1.4173  0.3068
   56CHL1   C20 5300   3.110   0.714   4.063  0.6312  0.1424 -0.2604
   56CHL1   H20 5301   3.017   0.654   4.072 -0.5351  1.5924 -1.8692
   56CHL1   C21 5302   3.063   0.864   4.063 -0.3734 -0.6140  0.7164
   56CHL1  H21A 5303   3.038   0.903   4.164 -1.2237  1.2472 -0.1684
   56CHL1  H21B 5304   2.970   0.877   4.005  0.3726 -2.5874 -1.0247
   56CHL1  H21C 5305   3.144   0.923   4.015 -3.7746  2.1750 -2.1134
   56CHL1   C22 5306   3.203   0.689   4.185 -0.3522  0.7485  0.1195
   56CHL1  H22A 5307   3.270   0.602   4.170  0.1053  1.2720 -1.0291
   56CHL1  H22B 5308   3.275   0.774   4.191 -0.9466  1.1627  2.6851
   56CHL1   C23 5309   3.130   0.673   4.321 -0.9098  0.3806  0.9803
   56CHL1  H23A 5310   3.060   0.759   4.333 -0.9911  0.5437 -0.4255
   56CHL1  H23B 5311   3.075   0.577   4.310  0.9601 -0.7197  0.7445
   56CHL1   C24 5312   3.224   0.647   4.437 -0.4913  0.1082 -0.0039
   56CHL1  H24A 5313   3.300   0.571   4.411  0.1578  1.3903 -2.0102
   56CHL1  H24B 5314   3.284   0.734   4.471 -0.2637  0.4131 -1.1610
   56CHL1   C25 5315   3.146   0.596   4.565 -0.2851 -0.1652  1.0173
   56CHL1   H25 5316   3.059   0.548   4.516 -0.5857  2.2005 -0.9564
   56CHL1   C26 5317   3.220   0.510   4.665 -0.8335  0.2666 -0.4602
   56CHL1  H26A 5318   3.328   0.531   4.678 -0.8111 -0.4204  0.5517
   56CHL1  H26B 5319   3.170   0.506   4.764 -2.6168  0.1875 -1.3182
   56CHL1  H26C 5320   3.224   0.409   4.620  1.3310  1.3743 -3.1056
   56CHL1   C27 5321   3.086   0.723   4.635  0.7236 -0.0701  0.5206
   56CHL1  H27A 5322   3.156   0.809   4.638 -0.8068  1.2232  0.4943
   56CHL1  H27B 5323   3.006   0.764   4.570  1.0735 -1.0152 -0.5374
   56CHL1  H27C 5324   3.048   0.696   4.735 -0.7092  3.0045  0.9292
   57CHL1    C3 5325   5.929   0.740   3.714 -0.2417 -0.4864 -0.6667
   57CHL1    H3 5326   5.901   0.637   3.683 -1.2322  0.2609 -2.3753
   57CHL1    O3 5327   5.984   0.805   3.598  0.1408  0.1514 -0.4175
   57CHL1   H3' 5328   6.075   0.819   3.625 -0.6694  1.0786  2.1526
   57CHL1    C4 5329   5.817   0.824   3.777 -0.1352 -0.3498  0.8961
   57CHL1   H4A 5330   5.847   0.931   3.782 -2.8217  0.6695 -1.5110
   57CHL1   H4B 5331   5.730   0.827   3.707  0.6696 -1.8180 -0.2311
   57CHL1    C5 5332   5.772   0.762   3.909 -0.1734  0.1814 -0.3945
   57CHL1    C6 5333   5.643   0.737   3.931 -0.4913  0.3242  0.2355
   57CHL1    H6 5334   5.568   0.755   3.853 -1.5250  0.2268  1.1766
   57CHL1    C7 5335   5.596   0.673   4.059 -0.2412  0.4938 -0.6757
   57CHL1   H7A 5336   5.507   0.727   4.097  0.2958  0.3177  0.9188
   57CHL1   H7B 5337   5.573   0.568   4.029 -0.2887  0.1244  0.6023
   57CHL1    C8 5338   5.709   0.675   4.176 -0.1561 -0.1042  0.6903
   57CHL1    H8 5339   5.714   0.779   4.213  0.0391  0.1160  0.0596
   57CHL1   C14 5340   5.663   0.582   4.283 -1.0483 -0.4947 -0.1989
   57CHL1   H14 5341   5.666   0.485   4.230  0.4000 -1.4435  1.5013
   57CHL1   C15 5342   5.517   0.598   4.343 -0.3643 -0.6096  0.1207
   57CHL1  H15A 5343   5.510   0.705   4.375  1.7739 -0.1703 -0.7032
   57CHL1  H15B 5344   5.437   0.570   4.272 -0.1212  1.9461 -1.2910
   57CHL1   C16 5345   5.521   0.514   4.468  0.0420  0.4462 -0.1796
   57CHL1  H16A 5346   5.474   0.572   4.551 -0.2705  0.0933 -0.1090
   57CHL1  H16B 5347   5.460   0.421   4.462  1.4665 -0.7945  2.6675
   57CHL1   C17 5348   5.674   0.463   4.489  0.2975 -0.2932 -0.1924
   57CHL1   H17 5349   5.666   0.365   4.436 -2.3324  0.6091 -1.6353
   57CHL1   C13 5350   5.762   0.562   4.402 -0.5239  0.7491 -0.0186
   57CHL1   C18 5351   5.769   0.694   4.478 -0.6756  0.0765  0.3290
   57CHL1  H18A 5352   5.842   0.690   4.561  3.1624  2.0604 -2.6256
   57CHL1  H18B 5353   5.812   0.775   4.415  1.8386 -3.4374 -2.9890
   57CHL1  H18C 5354   5.672   0.731   4.517 -0.6553 -0.9375  1.3976
   57CHL1   C12 5355   5.896   0.508   4.349 -0.0268 -0.8359 -0.8634
   57CHL1  H12A 5356   5.964   0.507   4.437 -0.2435 -1.2321 -0.7007
   57CHL1  H12B 5357   5.877   0.406   4.310 -1.8257 -0.6767 -0.4508
   57CHL1   C11 5358   5.948   0.598   4.246  0.3613  0.5748 -0.4305
   57CHL1  H11A 5359   5.974   0.701   4.281  1.2046  0.7756 -1.5774
   57CHL1  H11B 5360   6.039   0.552   4.200 -1.1551 -0.4141 -2.6137
   57CHL1    C9 5361   5.846   0.635   4.125 -0.6673  0.0825  1.2281
   57CHL1    H9 5362   5.832   0.539   4.072  0.7931  0.6541 -0.3150
   57CHL1   C10 5363   5.894   0.728   4.010  0.0402  0.4676  0.4431
   57CHL1   C19 5364   5.942   0.862   4.075 -0.3843  0.0774  0.1122
   57CHL1  H19A 5365   6.043   0.844   4.118 -0.0604  2.2507  0.3865
   57CHL1  H19B 5366   5.953   0.952   4.010 -0.6836  0.7255  0.9419
   57CHL1  H19C 5367   5.878   0.886   4.162 -1.9291  0.7568 -1.1455
   57CHL1    C1 5368   6.011   0.663   3.938  0.7067 -0.0683  0.1495
   57CHL1   H1A 5369   6.098   0.642   4.004 -0.1786 -1.4987  0.9158
   57CHL1   H1B 5370   5.986   0.559   3.908 -0.0463  0.6804 -2.0133
   57CHL1    C2 5371   6.052   0.736   3.811 -0.0051  0.3551  0.0342
   57CHL1   H2A 5372   6.134   0.678   3.763 -0.8154 -1.3303  0.5779
   57CHL1   H2B 5373   6.087   0.839   3.830  0.3002  0.1474  0.6268
   57CHL1   C20 5374   5.705   0.452   4.642  0.0985  0.2478 -0.0973
   57CHL1   H20 5375   5.732   0.554   4.677 -0.6189  0.3981  0.0383
   57CHL1   C21 5376   5.825   0.358   4.667 -0.2178 -0.0300 -0.1224
   57CHL1  H21A 5377   5.910   0.397   4.607 -1.6093  1.7607 -1.0390
   57CHL1  H21B 5378   5.794   0.264   4.617 -0.1376 -0.0433 -0.1479
   57CHL1  H21C 5379   5.859   0.349   4.772  2.2198 -1.7435 -0.9528
   57CHL1   C22 5380   5.581   0.404   4.728  0.2196 -0.5527  0.0049
   57CHL1  H22A 5381   5.515   0.494   4.735  3.9606  2.5273 -0.5477
   57CHL1  H22B 5382   5.530   0.322   4.673  0.1286  0.3358 -1.2680
   57CHL1   C23 5383   5.612   0.365   4.877  0.0555  0.5820 -0.4940
   57CHL1  H23A 5384   5.682   0.280   4.886 -0.1258  0.6152  2.1387
   57CHL1  H23B 5385   5.656   0.455   4.926 -2.2585 -0.1231  3.2312
   57CHL1   C24 5386   5.490   0.328   4.949 -0.2327  0.1468  0.7504
   57CHL1  H24A 5387   5.410   0.399   4.917  1.8261  2.9717  1.5147
   57CHL1  H24B 5388   5.466   0.223   4.921 -0.9481  0.8945 -1.7327
   57CHL1   C25 5389   5.490   0.331   5.106  0.7319 -0.3672 -0.2116
   57CHL1   H25 5390   5.392   0.332   5.159  1.6803  0.9186  1.6568
   57CHL1   C26 5391   5.553   0.200   5.164 -0.6120 -0.7815  0.0277
   57CHL1  H26A 5392   5.656   0.195   5.123 -1.3279 -1.4332 -1.8010
   57CHL1  H26B 5393   5.557   0.193   5.274  1.0394  0.8781  0.1155
   57CHL1  H26C 5394   5.493   0.118   5.118  0.0925 -0.3217 -1.8105
   57CHL1   C27 5395   5.568   0.447   5.171 -0.0595 -0.6379  0.3955
   57CHL1  H27A 5396   5.674   0.433   5.141  0.1178 -1.2663  1.2929
   57CHL1  H27B 5397   5.532   0.546   5.134 -0.5602 -0.7370  0.6070
   57CHL1  H27C 5398   5.559   0.434   5.281  0.4272 -1.5961  0.3286
   58CHL1    C3 5399   3.017   3.656   2.927 -0.3057  0.1744 -0.7246
   58CHL1    H3 5400   3.097   3.581   2.917  0.2325  0.4950  0.8781
   58CHL1    O3 5401   3.015   3.740   2.814 -0.0520 -0.1177 -0.3093
   58CHL1   H3' 5402   2.932   3.785   2.833 -0.5777 -0.3161 -1.9834
   58CHL1    C4 5403   2.885   3.583   2.958 -0.6784  0.6728 -0.8579
   58CHL1   H4A 5404   2.800   3.652   2.941 -1.0736 -0.0471 -1.9058
   58CHL1   H4B 5405   2.862   3.504   2.883 -1.2799 -0.4147  0.4359
   58CHL1    C5 5406   2.881   3.521   3.097  0.6401 -0.0757 -0.7671
   58CHL1    C6 5407   2.850   3.392   3.107 -0.5375 -0.0026 -0.7547
   58CHL1    H6 5408   2.818   3.336   3.018  0.0728 -2.4606  0.4682
   58CHL1    C7 5409   2.852   3.306   3.230 -0.2525 -0.2911  0.5620
   58CHL1   H7A 5410   2.760   3.244   3.235 -0.3966 -0.2861 -1.2193
   58CHL1   H7B 5411   2.933   3.230   3.220 -0.0367  0.0019  0.0658
   58CHL1    C8 5412   2.871   3.393   3.360  0.4841 -0.3014  0.4096
   58CHL1    H8 5413   2.773   3.437   3.386 -0.7692 -1.1269 -2.4280
   58CHL1   C14 5414   2.921   3.309   3.469  0.3092 -0.3383 -0.3204
   58CHL1   H14 5415   3.026   3.288   3.441 -0.0061 -1.1776 -0.8945
   58CHL1   C15 5416   2.877   3.165   3.491 -0.1902  0.2021 -0.1806
   58CHL1  H15A 5417   2.767   3.154   3.477 -0.2154 -0.2182  0.3396
   58CHL1  H15B 5418   2.930   3.098   3.421  3.0880  1.0704  1.2700
   58CHL1   C16 5419   2.905   3.137   3.639  0.0067  0.4543 -0.1370
   58CHL1  H16A 5420   2.814   3.128   3.701  1.9579 -2.0173  2.6929
   58CHL1  H16B 5421   2.970   3.047   3.651 -0.1111  0.4693  0.6616
   58CHL1   C17 5422   2.979   3.267   3.687 -0.1955 -0.0435  0.0745
   58CHL1   H17 5423   3.084   3.253   3.655  0.8171 -0.6562  3.2653
   58CHL1   C13 5424   2.923   3.379   3.602  0.2375  0.3963  0.6352
   58CHL1   C18 5425   2.781   3.423   3.647  0.1160  0.4454 -0.6006
   58CHL1  H18A 5426   2.714   3.338   3.623 -1.6637  1.6730 -0.1592
   58CHL1  H18B 5427   2.781   3.460   3.751  1.3712 -1.0171 -0.0347
   58CHL1  H18C 5428   2.745   3.510   3.588 -0.9945  0.4151  0.0120
   58CHL1   C12 5429   3.014   3.514   3.596  0.0177  0.1564  0.1912
   58CHL1  H12A 5430   3.007   3.577   3.687  0.1464  0.0389  0.2830
   58CHL1  H12B 5431   3.116   3.471   3.584 -0.2602 -0.0265 -2.1018
   58CHL1   C11 5432   2.984   3.591   3.472 -0.1411  0.1627  0.8515
   58CHL1  H11A 5433   2.892   3.651   3.490  0.0423  0.1873  1.7388
   58CHL1  H11B 5434   3.059   3.672   3.469 -1.2649  1.2165 -0.1362
   58CHL1    C9 5435   2.976   3.513   3.339  0.3554 -0.3375 -0.1591
   58CHL1    H9 5436   3.077   3.467   3.328  0.6036  0.6555 -2.5510
   58CHL1   C10 5437   2.935   3.600   3.216 -0.0518 -0.1590 -0.5077
   58CHL1   C19 5438   2.831   3.710   3.256 -0.8386  0.3436  0.4226
   58CHL1  H19A 5439   2.750   3.674   3.323 -1.9667  1.9013 -0.0516
   58CHL1  H19B 5440   2.887   3.786   3.315 -1.1090  0.7644  0.1425
   58CHL1  H19C 5441   2.783   3.765   3.173 -1.5336  1.0264  1.2504
   58CHL1    C1 5442   3.061   3.678   3.177 -0.2201  0.2993 -0.8459
   58CHL1   H1A 5443   3.085   3.760   3.248 -1.1581 -0.5826  0.5367
   58CHL1   H1B 5444   3.147   3.608   3.175 -0.0237  0.4727  0.6714
   58CHL1    C2 5445   3.052   3.751   3.043  0.0777  0.6581  0.0092
   58CHL1   H2A 5446   3.146   3.806   3.023 -0.3341  1.5937  0.5483
   58CHL1   H2B 5447   2.972   3.826   3.065  1.2068  1.6386  0.8869
   58CHL1   C20 5448   2.974   3.284   3.843 -0.5494  0.9508  0.0666
   58CHL1   H20 5449   2.880   3.339   3.867 -0.2881  0.8781  1.3785
   58CHL1   C21 5450   3.079   3.385   3.898  0.2891 -0.1808 -0.4298
   58CHL1  H21A 5451   3.053   3.484   3.855  1.6719 -0.3139 -1.6435
   58CHL1  H21B 5452   3.180   3.351   3.865  1.8768  2.6806  1.1183
   58CHL1  H21C 5453   3.069   3.398   4.008 -4.2538 -0.5377 -0.6033
   58CHL1   C22 5454   2.981   3.146   3.925 -0.4546 -0.1607  0.7747
   58CHL1  H22A 5455   2.910   3.071   3.884  0.3089 -1.2544  1.3944
   58CHL1  H22B 5456   3.085   3.112   3.900 -0.5954  0.2366 -0.4091
   58CHL1   C23 5457   2.956   3.157   4.075  0.6866  0.3037 -0.2450
   58CHL1  H23A 5458   3.046   3.206   4.118  0.1989  0.3701  0.7417
   58CHL1  H23B 5459   2.864   3.216   4.098 -0.9111 -1.8849 -0.6978
   58CHL1   C24 5460   2.951   3.025   4.159  0.0750 -0.1308  0.9314
   58CHL1  H24A 5461   2.858   2.971   4.136 -0.5587  1.2820  0.0585
   58CHL1  H24B 5462   3.039   2.957   4.150  0.2617  0.1030  0.9717
   58CHL1   C25 5463   2.955   3.049   4.316 -0.6042 -0.1257 -0.4265
   58CHL1   H25 5464   2.880   3.126   4.342  1.0914  0.7771  2.2371
   58CHL1   C26 5465   2.903   2.920   4.398  0.1586  0.4235  0.1229
   58CHL1  H26A 5466   2.932   2.935   4.504 -0.7481 -0.5666  0.5329
   58CHL1  H26B 5467   2.793   2.920   4.379 -0.3387 -1.7902  2.4184
   58CHL1  H26C 5468   2.956   2.829   4.365 -0.6210 -0.5377  1.4263
   58CHL1   C27 5469   3.091   3.089   4.366 -0.5852  1.1229 -0.1116
   58CHL1  H27A 5470   3.110   3.192   4.330 -2.0624  2.1175  1.7340
   58CHL1  H27B 5471   3.117   3.099   4.474  2.8510  0.2857 -0.7238
   58CHL1  H27C 5472   3.163   3.010   4.335 -2.8842 -2.0290  1.9549
   59CHL1    C3 5473   4.035   6.510   3.190 -0.3531  0.1123  0.0513
   59CHL1    H3 5474   4.091   6.415   3.204  1.5139  1.2635  0.7943
   59CHL1    O3 5475   4.045   6.543   3.055 -0.2368  0.5986 -0.5425
   59CHL1   H3' 5476   4.139   6.534   3.040  0.3561  2.0722  1.7959
   59CHL1    C4 5477   3.883   6.488   3.233  0.2591 -0.2799  0.4813
   59CHL1   H4A 5478   3.822   6.573   3.196  0.0507 -0.8563 -0.5364
   59CHL1   H4B 5479   3.844   6.399   3.178  3.0732 -1.8185  0.7946
   59CHL1    C5 5480   3.857   6.477   3.381 -0.4415  0.0247 -0.4062
   59CHL1    C6 5481   3.796   6.367   3.431 -0.0981  0.4686  0.1961
   59CHL1    H6 5482   3.766   6.288   3.360  0.6796  1.6679 -1.5406
   59CHL1    C7 5483   3.757   6.364   3.579 -0.5572  0.6944 -0.0487
   59CHL1   H7A 5484   3.649   6.340   3.587 -0.1450 -1.3033  0.1839
   59CHL1   H7B 5485   3.807   6.279   3.631 -0.4813 -0.2725 -1.6152
   59CHL1    C8 5486   3.788   6.497   3.646  0.2302  0.2166 -0.0068
   59CHL1    H8 5487   3.710   6.567   3.610 -0.0572  1.1498  2.2834
   59CHL1   C14 5488   3.765   6.469   3.795 -0.0129 -0.1046 -0.6690
   59CHL1   H14 5489   3.840   6.392   3.824 -0.2031 -0.2811 -0.6404
   59CHL1   C15 5490   3.623   6.420   3.838 -0.0407  0.1473 -0.2822
   59CHL1  H15A 5491   3.541   6.479   3.791  1.0826  1.4878 -0.6455
   59CHL1  H15B 5492   3.612   6.313   3.809 -0.5493  0.4760 -1.3542
   59CHL1   C16 5493   3.624   6.444   3.985 -0.2241  0.7851 -0.1084
   59CHL1  H16A 5494   3.529   6.479   4.030  0.1253  1.5097  0.0897
   59CHL1  H16B 5495   3.648   6.349   4.037 -2.7029 -2.0632 -3.6674
   59CHL1   C17 5496   3.741   6.546   4.020  0.2368  0.4591  0.5218
   59CHL1   H17 5497   3.821   6.484   4.064  0.9996 -0.3186 -1.8673
   59CHL1   C13 5498   3.794   6.592   3.877 -0.2590 -0.3220 -0.1802
   59CHL1   C18 5499   3.706   6.707   3.834 -0.4788 -0.8739  0.1003
   59CHL1  H18A 5500   3.711   6.735   3.726 -0.8187 -0.4105  0.2034
   59CHL1  H18B 5501   3.600   6.701   3.866 -0.3328  1.0379  1.0942
   59CHL1  H18C 5502   3.753   6.798   3.876 -1.6158  0.4543 -1.3963
   59CHL1   C12 5503   3.945   6.612   3.865  0.4094 -0.2480 -1.1306
   59CHL1  H12A 5504   3.991   6.690   3.929  0.2351 -1.8590  1.0916
   59CHL1  H12B 5505   4.004   6.521   3.890  3.5880  2.1649  0.9152
   59CHL1   C11 5506   3.986   6.654   3.720 -0.7666 -0.2974 -0.4708
   59CHL1  H11A 5507   3.927   6.741   3.686 -1.2402  0.1022  1.2816
   59CHL1  H11B 5508   4.096   6.666   3.706 -0.7649  3.0715  1.2787
   59CHL1    C9 5509   3.931   6.550   3.610  0.4199  0.0874 -0.5515
   59CHL1    H9 5510   3.994   6.459   3.624  1.4422  0.6389 -1.4569
   59CHL1   C10 5511   3.930   6.588   3.462  0.2748  0.9266 -1.1433
   59CHL1   C19 5512   3.853   6.719   3.424  0.2663 -1.2698  0.2617
   59CHL1  H19A 5513   3.753   6.714   3.472  0.7685  2.1927  2.0120
   59CHL1  H19B 5514   3.903   6.813   3.457  1.6045 -1.3326 -1.4729
   59CHL1  H19C 5515   3.842   6.745   3.317  0.6796  1.6046  0.8190
   59CHL1    C1 5516   4.079   6.601   3.420  0.3268 -0.4426  0.0171
   59CHL1   H1A 5517   4.123   6.689   3.471 -2.5655  1.2766 -0.1987
   59CHL1   H1B 5518   4.128   6.508   3.454 -1.5817 -1.1546  0.9985
   59CHL1    C2 5519   4.094   6.623   3.272  0.1887  0.2625  0.1261
   59CHL1   H2A 5520   4.203   6.638   3.260  0.2688 -0.0153  0.4960
   59CHL1   H2B 5521   4.048   6.719   3.240  1.9260  0.3978 -2.2624
   59CHL1   C20 5522   3.699   6.659   4.117 -0.0908  0.2250  0.3769
   59CHL1   H20 5523   3.629   6.728   4.067  1.2577  1.8473  0.6420
   59CHL1   C21 5524   3.829   6.743   4.147 -0.4249  0.6561 -0.0478
   59CHL1  H21A 5525   3.899   6.665   4.183 -0.4597  0.7768  0.2817
   59CHL1  H21B 5526   3.805   6.798   4.241 -1.9130  0.6775 -0.4118
   59CHL1  H21C 5527   3.871   6.799   4.060 -0.9317 -0.5819 -1.1147
   59CHL1   C22 5528   3.628   6.613   4.254  0.3484 -0.3562  1.0250
   59CHL1  H22A 5529   3.614   6.707   4.312  2.2159 -0.6960  2.1085
   59CHL1  H22B 5530   3.527   6.569   4.239  0.3307  0.3922 -1.6777
   59CHL1   C23 5531   3.724   6.513   4.333  0.8597 -1.4585  0.1954
   59CHL1  H23A 5532   3.741   6.417   4.279  1.5248 -0.0746 -2.1573
   59CHL1  H23B 5533   3.823   6.562   4.341  0.8435 -1.3458 -0.2854
   59CHL1   C24 5534   3.680   6.498   4.481  0.8472 -0.1989  0.3733
   59CHL1  H24A 5535   3.757   6.465   4.553  2.2914  1.4893 -0.3322
   59CHL1  H24B 5536   3.647   6.597   4.518 -1.7320 -1.2488  1.1261
   59CHL1   C25 5537   3.547   6.415   4.499 -0.2443 -0.2695 -0.7054
   59CHL1   H25 5538   3.461   6.470   4.455 -0.2436  1.1992  1.0198
   59CHL1   C26 5539   3.559   6.267   4.443  0.2817 -0.2688  0.0614
   59CHL1  H26A 5540   3.638   6.216   4.502  0.6026 -0.2121 -0.3147
   59CHL1  H26B 5541   3.468   6.209   4.468  1.6765 -1.9922  1.3912
   59CHL1  H26C 5542   3.584   6.265   4.335 -0.2516  0.6531 -0.0901
   59CHL1   C27 5543   3.509   6.409   4.647  0.0912 -0.1383  0.0731
   59CHL1  H27A 5544   3.412   6.355   4.645 -0.5535  0.7616  2.6927
   59CHL1  H27B 5545   3.577   6.346   4.709 -1.3242 -1.1075  0.7028
   59CHL1  H27C 5546   3.474   6.502   4.696 -0.3397 -0.6242  0.7073
   60CHL1    C3 5547   4.600   5.192   3.611 -1.0349  1.2475  0.8275
   60CHL1    H3 5548   4.650   5.094   3.598 -1.9719  1.0511 -1.9232
   60CHL1    O3 5549   4.564   5.246   3.484 -0.1642 -0.1958  0.2046
   60CHL1   H3' 5550   4.600   5.335   3.487  0.7620 -0.4315 -2.1484
   60CHL1    C4 5551   4.481   5.173   3.704 -0.0965  0.2336  0.6721
   60CHL1   H4A 5552   4.430   5.271   3.699 -1.6404 -0.5731 -3.2051
   60CHL1   H4B 5553   4.406   5.103   3.660  0.0202  2.0913 -2.7585
   60CHL1    C5 5554   4.510   5.143   3.853 -0.6787 -0.1297 -0.3543
   60CHL1    C6 5555   4.457   5.031   3.908 -0.1274  0.2841  0.0672
   60CHL1    H6 5556   4.392   4.962   3.851 -0.1869 -1.3806  2.0107
   60CHL1    C7 5557   4.488   4.986   4.047  0.3061  0.0480  0.2641
   60CHL1   H7A 5558   4.396   4.953   4.100 -1.6477  1.7589 -1.8462
   60CHL1   H7B 5559   4.549   4.894   4.049 -1.2567 -1.0152  0.4846
   60CHL1    C8 5560   4.549   5.103   4.138  0.3667  0.8519  0.0757
   60CHL1    H8 5561   4.470   5.179   4.155 -1.0675 -0.0598 -2.0621
   60CHL1   C14 5562   4.603   5.043   4.268  0.0543  0.3008 -0.1495
   60CHL1   H14 5563   4.688   4.986   4.225 -0.1020 -1.6442  1.9473
   60CHL1   C15 5564   4.518   4.942   4.344 -0.1447  0.9921 -0.1510
   60CHL1  H15A 5565   4.411   4.971   4.341 -0.1992  0.8821  0.5689
   60CHL1  H15B 5566   4.527   4.840   4.300  0.5824 -0.3051  2.7728
   60CHL1   C16 5567   4.572   4.933   4.487 -0.0411 -0.3484  0.3146
   60CHL1  H16A 5568   4.500   4.977   4.560  0.1640 -1.2017  1.0509
   60CHL1  H16B 5569   4.604   4.835   4.526  1.4869 -0.0199 -0.0539
   60CHL1   C17 5570   4.684   5.034   4.487 -0.8674 -0.2432  0.2622
   60CHL1   H17 5571   4.777   4.973   4.476 -0.1121  0.6876  1.2218
   60CHL1   C13 5572   4.671   5.136   4.367 -0.7139 -0.4501  0.2362
   60CHL1   C18 5573   4.571   5.245   4.416 -0.1063 -0.1236  0.4039
   60CHL1  H18A 5574   4.484   5.197   4.465  0.2216 -2.3045 -1.0027
   60CHL1  H18B 5575   4.625   5.317   4.481 -0.3168  0.0111  0.4289
   60CHL1  H18C 5576   4.534   5.303   4.329 -1.3651 -0.8534  0.4365
   60CHL1   C12 5577   4.787   5.206   4.299 -0.6799  0.2286  0.7418
   60CHL1  H12A 5578   4.828   5.292   4.356 -0.5699 -1.4014  3.2422
   60CHL1  H12B 5579   4.870   5.136   4.275 -2.7916 -1.6866 -1.6006
   60CHL1   C11 5580   4.751   5.265   4.155 -0.2026 -0.1191 -0.6711
   60CHL1  H11A 5581   4.699   5.363   4.166  0.3771  0.0208  1.1099
   60CHL1  H11B 5582   4.843   5.283   4.096  0.3128  2.6044  0.8053
   60CHL1    C9 5583   4.669   5.169   4.061  0.4023 -0.7344 -1.1158
   60CHL1    H9 5584   4.733   5.081   4.037 -1.3810 -2.5108  0.3077
   60CHL1   C10 5585   4.613   5.233   3.924 -0.0062  0.4367 -0.1621
   60CHL1   C19 5586   4.555   5.369   3.957 -0.3542  0.4605 -0.1111
   60CHL1  H19A 5587   4.624   5.450   3.989  1.3328 -1.1937  0.6044
   60CHL1  H19B 5588   4.500   5.400   3.866  0.1017  0.6310 -0.3304
   60CHL1  H19C 5589   4.480   5.353   4.038 -2.4505 -0.1121 -2.0567
   60CHL1    C1 5590   4.736   5.249   3.827  0.4302  0.3119 -0.0264
   60CHL1   H1A 5591   4.805   5.327   3.866  0.4434  1.3606 -1.9976
   60CHL1   H1B 5592   4.793   5.155   3.810 -0.1440 -0.0532  0.0461
   60CHL1    C2 5593   4.693   5.295   3.683  0.1016  0.1324  0.7625
   60CHL1   H2A 5594   4.781   5.310   3.616  0.5280 -0.4852  1.1724
   60CHL1   H2B 5595   4.623   5.381   3.682  1.2119  1.0594 -0.2331
   60CHL1   C20 5596   4.715   5.094   4.628 -0.2654 -0.1425  0.1388
   60CHL1   H20 5597   4.629   5.154   4.665 -0.1714 -0.4963  0.9641
   60CHL1   C21 5598   4.848   5.181   4.626  0.0131  0.0660 -0.2909
   60CHL1  H21A 5599   4.849   5.223   4.729 -2.6999  0.9356 -0.5458
   60CHL1  H21B 5600   4.855   5.257   4.546  2.8229 -2.1934 -2.3776
   60CHL1  H21C 5601   4.929   5.106   4.613 -1.3356 -1.2429 -1.4290
   60CHL1   C22 5602   4.729   4.980   4.738  0.0543  0.4625  0.6020
   60CHL1  H22A 5603   4.652   4.899   4.730 -0.7621  1.3125 -0.4655
   60CHL1  H22B 5604   4.828   4.934   4.720 -1.1193 -1.2081 -2.3524
   60CHL1   C23 5605   4.718   5.020   4.889 -0.8471  0.0488  0.2875
   60CHL1  H23A 5606   4.798   5.092   4.919  0.2875 -1.2469  0.4843
   60CHL1  H23B 5607   4.620   5.061   4.920  0.1224  1.3105  1.8540
   60CHL1   C24 5608   4.746   4.905   4.987 -0.5442 -0.0334  0.3830
   60CHL1  H24A 5609   4.756   4.939   5.093  0.8713 -1.6527  0.8178
   60CHL1  H24B 5610   4.663   4.831   4.986  0.4321 -1.1694  0.5826
   60CHL1   C25 5611   4.878   4.821   4.981 -0.1474  0.3123  0.3587
   60CHL1   H25 5612   4.882   4.766   4.885  2.9383  0.9422  0.0288
   60CHL1   C26 5613   5.007   4.908   4.988  0.1218  0.1068  0.5066
   60CHL1  H26A 5614   4.996   4.970   4.896 -0.8141 -1.5526 -0.5423
   60CHL1  H26B 5615   5.013   4.971   5.080  3.3880  2.1002 -0.9023
   60CHL1  H26C 5616   5.100   4.849   4.980  0.9957  1.2527  1.7695
   60CHL1   C27 5617   4.881   4.714   5.088 -0.9153 -0.1274 -0.2788
   60CHL1  H27A 5618   4.784   4.662   5.102 -1.2665  0.8444  1.1289
   60CHL1  H27B 5619   4.955   4.639   5.052  0.9530  1.1027  0.8477
   60CHL1  H27C 5620   4.912   4.759   5.185 -1.1439  1.2163 -0.8227
   61CHL1    C3 5621   3.472   0.757   3.195 -0.2905  0.3146  0.8549
   61CHL1    H3 5622   3.380   0.698   3.213 -0.9142  1.3574  1.1418
   61CHL1    O3 5623   3.521   0.713   3.067 -0.3325  0.4064 -0.2465
   61CHL1   H3' 5624   3.587   0.778   3.042 -0.1776  0.7747  1.0135
   61CHL1    C4 5625   3.439   0.907   3.192 -0.0741 -0.3664 -0.2650
   61CHL1   H4A 5626   3.521   0.972   3.152  1.0846 -0.0354  2.4421
   61CHL1   H4B 5627   3.364   0.928   3.112 -0.3231  0.0936  0.0864
   61CHL1    C5 5628   3.404   0.969   3.326  0.1490 -0.3105  0.0393
   61CHL1    C6 5629   3.296   1.044   3.347  1.1766  0.1652  0.5222
   61CHL1    H6 5630   3.232   1.071   3.261 -0.3464 -1.6743  1.0065
   61CHL1    C7 5631   3.251   1.094   3.481 -0.1172  0.1286  0.1989
   61CHL1   H7A 5632   3.204   1.195   3.475 -0.0261  0.2321  1.0814
   61CHL1   H7B 5633   3.166   1.037   3.525  0.9993 -0.5203  1.5824
   61CHL1    C8 5634   3.374   1.094   3.581  0.7344 -0.4861 -0.6523
   61CHL1    H8 5635   3.443   1.173   3.544 -1.2773  0.8048 -1.8703
   61CHL1   C14 5636   3.327   1.128   3.725  0.2782  0.1822 -0.3725
   61CHL1   H14 5637   3.255   1.048   3.754 -0.3306 -0.4313 -3.2441
   61CHL1   C15 5638   3.264   1.263   3.749 -0.6802 -0.5343 -0.1384
   61CHL1  H15A 5639   3.309   1.348   3.693 -3.6617  0.4335 -1.2520
   61CHL1  H15B 5640   3.156   1.254   3.729 -1.0786  1.3166  0.9744
   61CHL1   C16 5641   3.286   1.290   3.896 -0.6750 -0.2376  0.7783
   61CHL1  H16A 5642   3.346   1.382   3.916 -0.1602 -0.6402  1.1031
   61CHL1  H16B 5643   3.190   1.305   3.949 -0.6076  2.0771  0.3703
   61CHL1   C17 5644   3.370   1.171   3.948  0.0844 -0.0780  0.3256
   61CHL1   H17 5645   3.295   1.091   3.968  0.3098 -0.3066  0.2679
   61CHL1   C13 5646   3.450   1.117   3.820  0.1852  0.1351 -0.0535
   61CHL1   C18 5647   3.571   1.211   3.786 -0.3912  0.3449 -1.1509
   61CHL1  H18A 5648   3.640   1.190   3.870 -0.3535  0.1635 -1.2265
   61CHL1  H18B 5649   3.621   1.180   3.692 -0.9188 -3.2918 -0.4060
   61CHL1  H18C 5650   3.540   1.317   3.774 -0.2778  0.2177 -2.7941
   61CHL1   C12 5651   3.502   0.969   3.826 -0.4468 -0.9664  0.1990
   61CHL1  H12A 5652   3.578   0.948   3.905  1.3375  1.5679 -0.7137
   61CHL1  H12B 5653   3.416   0.907   3.857  0.9012 -3.3405 -0.5742
   61CHL1   C11 5654   3.544   0.926   3.687 -0.0586 -0.1747 -0.0607
   61CHL1  H11A 5655   3.638   0.982   3.671 -0.3859  0.4110  0.0238
   61CHL1  H11B 5656   3.556   0.816   3.694 -1.6820 -0.3670  0.0987
   61CHL1    C9 5657   3.442   0.958   3.579  0.2063 -0.3213  0.2777
   61CHL1    H9 5658   3.357   0.888   3.597 -0.9175  1.4072  2.0544
   61CHL1   C10 5659   3.498   0.927   3.440 -0.2251 -0.3126 -0.8463
   61CHL1   C19 5660   3.636   1.009   3.428  0.0242 -0.3776 -0.0445
   61CHL1  H19A 5661   3.722   0.979   3.491  1.4109  1.6615 -0.8410
   61CHL1  H19B 5662   3.678   0.993   3.326  2.3564 -0.4043  0.8510
   61CHL1  H19C 5663   3.611   1.116   3.447  1.2216 -0.0058 -0.4271
   61CHL1    C1 5664   3.535   0.774   3.436  0.3240 -0.0060  0.0999
   61CHL1   H1A 5665   3.622   0.755   3.502  0.5844 -1.7141 -0.6804
   61CHL1   H1B 5666   3.452   0.709   3.471  0.7296 -0.2261  0.6646
   61CHL1    C2 5667   3.576   0.726   3.295 -0.8539 -0.5971 -0.5414
   61CHL1   H2A 5668   3.582   0.615   3.303  0.4403 -0.4479  1.0197
   61CHL1   H2B 5669   3.673   0.771   3.264  0.1915 -1.0256  1.8846
   61CHL1   C20 5670   3.457   1.196   4.074  0.5222 -0.3277 -0.5314
   61CHL1   H20 5671   3.545   1.258   4.044 -0.8153  1.7375 -0.3846
   61CHL1   C21 5672   3.501   1.069   4.151 -0.2733  0.1276  0.1653
   61CHL1  H21A 5673   3.551   1.106   4.243  0.8671 -0.1228 -0.3383
   61CHL1  H21B 5674   3.566   1.005   4.088  0.9402  1.7050 -0.2396
   61CHL1  H21C 5675   3.415   1.008   4.186  0.1532  0.7095  2.4167
   61CHL1   C22 5676   3.384   1.284   4.187  0.0031 -0.0558  0.7167
   61CHL1  H22A 5677   3.451   1.300   4.274  1.0056  0.3862 -0.1070
   61CHL1  H22B 5678   3.360   1.382   4.140  1.4121 -0.7133 -1.5622
   61CHL1   C23 5679   3.271   1.204   4.256 -0.5499  0.1533 -0.2890
   61CHL1  H23A 5680   3.202   1.163   4.179 -0.2534  0.5764 -0.7901
   61CHL1  H23B 5681   3.312   1.117   4.310  1.2158 -0.5234 -2.5430
   61CHL1   C24 5682   3.187   1.285   4.361 -0.9847  0.6246  0.2765
   61CHL1  H24A 5683   3.147   1.373   4.306  1.2468 -0.1903 -2.9568
   61CHL1  H24B 5684   3.100   1.225   4.396  1.7785 -2.7302  2.0210
   61CHL1   C25 5685   3.258   1.333   4.488  0.2659  0.6658  0.1803
   61CHL1   H25 5686   3.302   1.428   4.450 -1.3603  1.3316 -0.1194
   61CHL1   C26 5687   3.159   1.364   4.597 -0.0468 -0.1706 -0.5121
   61CHL1  H26A 5688   3.080   1.432   4.559  0.4592  0.5641 -0.2742
   61CHL1  H26B 5689   3.107   1.280   4.648 -0.6886  1.1901  1.1725
   61CHL1  H26C 5690   3.205   1.425   4.678 -1.8633  1.8023 -0.8742
   61CHL1   C27 5691   3.365   1.238   4.532  0.5379  0.7063 -0.5731
   61CHL1  H27A 5692   3.406   1.285   4.624  0.3240  3.3161 -1.7078
   61CHL1  H27B 5693   3.321   1.139   4.556  4.5053 -0.9618  0.6176
   61CHL1  H27C 5694   3.448   1.226   4.459  0.0953 -1.9372 -0.7447
   62CHL1    C3 5695   6.565   3.843   3.369  1.2085 -0.2882  0.7440
   62CHL1    H3 5696   6.515   3.939   3.394  0.5568 -0.8016  1.4615
   62CHL1    O3 5697   6.534   3.805   3.231  0.3033  0.5791 -0.3513
   62CHL1   H3' 5698   6.615   3.759   3.208  0.2774  0.5516 -0.3860
   62CHL1    C4 5699   6.719   3.850   3.395 -0.1244  0.5441 -0.5724
   62CHL1   H4A 5700   6.763   3.755   3.358 -1.2437 -0.2301  0.0335
   62CHL1   H4B 5701   6.753   3.934   3.331  0.7772  0.2510 -0.4844
   62CHL1    C5 5702   6.754   3.864   3.544 -0.6456 -0.3481  0.5508
   62CHL1    C6 5703   6.835   3.964   3.582  0.5268  0.5454  0.1191
   62CHL1    H6 5704   6.860   4.036   3.503  0.9057 -0.0917 -0.3472
   62CHL1    C7 5705   6.898   3.980   3.721 -0.2894  0.0842  0.3050
   62CHL1   H7A 5706   7.009   3.977   3.715 -0.3516 -1.2444 -0.8233
   62CHL1   H7B 5707   6.857   4.073   3.765 -0.6876 -0.9470  2.2340
   62CHL1    C8 5708   6.849   3.865   3.822 -0.1183 -0.4228 -0.5057
   62CHL1    H8 5709   6.918   3.778   3.812  0.8597  0.3949 -1.0037
   62CHL1   C14 5710   6.849   3.915   3.969  0.1506  0.1937 -0.4354
   62CHL1   H14 5711   6.770   3.992   3.973  0.4165  0.5795 -1.9095
   62CHL1   C15 5712   6.963   4.005   4.022  0.0985  0.6561 -0.3413
   62CHL1  H15A 5713   7.062   3.982   3.979 -0.2809 -0.1752 -0.8090
   62CHL1  H15B 5714   6.932   4.106   3.987 -1.2761 -0.2044 -1.7673
   62CHL1   C16 5715   6.960   3.984   4.173 -0.2891 -0.4813  0.2800
   62CHL1  H16A 5716   7.058   3.940   4.203  0.8431  0.8735 -1.1985
   62CHL1  H16B 5717   6.960   4.082   4.226 -1.2979 -0.1444 -0.3093
   62CHL1   C17 5718   6.844   3.889   4.210 -0.1450  0.4712  0.3917
   62CHL1   H17 5719   6.751   3.946   4.229 -0.7179 -0.5343  0.6493
   62CHL1   C13 5720   6.828   3.807   4.078  0.5492 -0.1129  0.3067
   62CHL1   C18 5721   6.938   3.703   4.073 -0.7017 -0.7456  0.3860
   62CHL1  H18A 5722   6.946   3.675   3.966  1.0045  1.9194 -0.2971
   62CHL1  H18B 5723   7.041   3.732   4.102 -0.3146 -0.5398 -1.1045
   62CHL1  H18C 5724   6.899   3.619   4.133  2.8135 -1.8852  1.2949
   62CHL1   C12 5725   6.689   3.742   4.034 -0.4548  0.1562 -0.0471
   62CHL1  H12A 5726   6.662   3.661   4.106 -2.4078  1.2846  0.5534
   62CHL1  H12B 5727   6.621   3.828   4.050 -2.3248 -1.0645 -1.0961
   62CHL1   C11 5728   6.676   3.690   3.892 -0.4029  0.9784  0.2636
   62CHL1  H11A 5729   6.746   3.604   3.888  1.6028  2.5708 -0.3925
   62CHL1  H11B 5730   6.566   3.674   3.879 -0.5221  1.4265  0.6875
   62CHL1    C9 5731   6.712   3.805   3.793  0.4252 -0.7040  0.0683
   62CHL1    H9 5732   6.639   3.887   3.810 -0.6636 -1.9670  1.9080
   62CHL1   C10 5733   6.694   3.765   3.643 -0.0046  0.1331  0.3801
   62CHL1   C19 5734   6.766   3.630   3.614  0.1693 -0.0552  0.3298
   62CHL1  H19A 5735   6.873   3.644   3.641  0.4401 -0.1228 -0.6756
   62CHL1  H19B 5736   6.714   3.551   3.673  0.6118 -0.1882  0.5435
   62CHL1  H19C 5737   6.763   3.588   3.511  3.9989  1.6999 -0.6543
   62CHL1    C1 5738   6.538   3.758   3.608  0.0918 -0.3929 -0.0176
   62CHL1   H1A 5739   6.479   3.682   3.663 -0.6094  1.5267  2.0184
   62CHL1   H1B 5740   6.492   3.855   3.636  0.4462  0.1819 -1.3257
   62CHL1    C2 5741   6.504   3.737   3.455  0.6821 -0.0060  0.7885
   62CHL1   H2A 5742   6.395   3.727   3.440  0.8932  0.1022 -0.9995
   62CHL1   H2B 5743   6.559   3.642   3.436 -0.4134 -0.6342  0.6931
   62CHL1   C20 5744   6.868   3.812   4.337 -0.7979  0.3203 -0.6130
   62CHL1   H20 5745   6.955   3.743   4.327 -1.2016 -0.5581  1.3586
   62CHL1   C21 5746   6.753   3.721   4.370  1.1046 -0.4180 -0.5599
   62CHL1  H21A 5747   6.661   3.782   4.387  1.4129 -0.5047  1.7912
   62CHL1  H21B 5748   6.761   3.664   4.465  0.3787  1.0611  0.4365
   62CHL1  H21C 5749   6.727   3.646   4.293  0.0698 -0.9154  0.2484
   62CHL1   C22 5750   6.921   3.900   4.453 -0.4485 -0.5979  0.5818
   62CHL1  H22A 5751   7.024   3.930   4.420  0.0522 -1.8996  0.9131
   62CHL1  H22B 5752   6.861   3.993   4.458  1.3254  0.6050  0.5627
   62CHL1   C23 5753   6.933   3.819   4.580  0.0686 -0.4265 -0.1151
   62CHL1  H23A 5754   6.827   3.797   4.608 -0.3546 -2.9353 -3.2331
   62CHL1  H23B 5755   7.003   3.735   4.565  1.7779  0.8241  0.5231
   62CHL1   C24 5756   6.990   3.900   4.701 -0.9165  0.2443 -0.3196
   62CHL1  H24A 5757   7.088   3.951   4.690 -1.2251  0.5165 -2.3566
   62CHL1  H24B 5758   6.913   3.979   4.714  0.8678  2.2081 -1.0302
   62CHL1   C25 5759   6.999   3.809   4.829  0.1517  0.2432  0.0419
   62CHL1   H25 5760   6.914   3.736   4.828 -0.2320  0.6801 -0.8478
   62CHL1   C26 5761   7.129   3.729   4.820 -0.0463 -0.0738 -0.2315
   62CHL1  H26A 5762   7.207   3.800   4.852  1.1863 -0.8770 -1.3463
   62CHL1  H26B 5763   7.137   3.647   4.895 -0.7805  0.4443  0.4414
   62CHL1  H26C 5764   7.149   3.700   4.715 -0.9213 -1.5371 -0.0375
   62CHL1   C27 5765   6.991   3.902   4.947  0.2234  0.0365  0.2478
   62CHL1  H27A 5766   6.897   3.960   4.936  0.8071  0.6078 -2.6356
   62CHL1  H27B 5767   6.985   3.853   5.047 -2.3863 -0.9418 -0.3098
   62CHL1  H27C 5768   7.079   3.970   4.941  0.3398 -0.2116 -1.3072
   63CHL1    C3 5769   4.228   0.266   3.351 -0.1708  0.3415  0.5197
   63CHL1    H3 5770   4.159   0.347   3.316  1.6635  1.5606 -0.4190
   63CHL1    O3 5771   4.253   0.182   3.242  0.4912  0.3011 -0.1297
   63CHL1   H3' 5772   4.342   0.150   3.261  0.3129  0.3242  0.7966
   63CHL1    C4 5773   4.352   0.338   3.405 -0.1737 -0.4769  0.0191
   63CHL1   H4A 5774   4.426   0.262   3.436 -2.0176 -1.8965  1.1340
   63CHL1   H4B 5775   4.403   0.392   3.322 -0.6859 -1.6393 -1.0882
   63CHL1    C5 5776   4.321   0.424   3.528 -0.2222 -0.1745 -0.0971
   63CHL1    C6 5777   4.338   0.556   3.519  0.1935 -0.1318  0.1429
   63CHL1    H6 5778   4.360   0.600   3.421 -2.4763  0.2930 -0.3576
   63CHL1    C7 5779   4.303   0.644   3.633 -0.2783 -0.3875  0.0113
   63CHL1   H7A 5780   4.384   0.720   3.643 -0.1271 -0.6701  1.0364
   63CHL1   H7B 5781   4.211   0.701   3.610  1.1507  1.6426 -1.0514
   63CHL1    C8 5782   4.293   0.573   3.770  0.1409  0.6719  0.2467
   63CHL1    H8 5783   4.398   0.548   3.798  0.0521 -0.9347 -0.7518
   63CHL1   C14 5784   4.247   0.658   3.880  0.2536  0.0822  0.5697
   63CHL1   H14 5785   4.142   0.690   3.861  0.3195 -0.3458 -0.5888
   63CHL1   C15 5786   4.328   0.792   3.899 -0.3262 -0.2232  0.1719
   63CHL1  H15A 5787   4.435   0.791   3.867 -0.5923  1.1829 -0.7980
   63CHL1  H15B 5788   4.283   0.873   3.839  0.7464  0.4264  0.2040
   63CHL1   C16 5789   4.303   0.825   4.049  0.3027 -0.0486  0.3024
   63CHL1  H16A 5790   4.404   0.836   4.094  0.6577 -1.9339  0.0331
   63CHL1  H16B 5791   4.239   0.913   4.071  0.6544  0.4754 -0.7055
   63CHL1   C17 5792   4.223   0.708   4.108 -0.1202  0.4263 -0.0915
   63CHL1   H17 5793   4.115   0.725   4.086 -0.1819 -0.4155 -0.4671
   63CHL1   C13 5794   4.258   0.585   4.011 -0.2859 -0.4808  0.0249
   63CHL1   C18 5795   4.401   0.536   4.055  0.3657 -1.3297  0.3401
   63CHL1  H18A 5796   4.429   0.458   3.981 -0.0453 -2.5215  1.3801
   63CHL1  H18B 5797   4.471   0.622   4.058 -2.2633  0.9394 -0.0037
   63CHL1  H18C 5798   4.396   0.484   4.154  1.3502 -0.7862  0.6857
   63CHL1   C12 5799   4.162   0.469   4.011 -0.1012  0.3910  0.0921
   63CHL1  H12A 5800   4.162   0.398   4.097  0.0277 -1.1270 -1.1178
   63CHL1  H12B 5801   4.058   0.505   3.992 -0.3953 -1.0816 -1.2473
   63CHL1   C11 5802   4.199   0.371   3.903 -0.1640  0.2097 -0.1388
   63CHL1  H11A 5803   4.290   0.313   3.931  0.2254  0.3353 -1.1208
   63CHL1  H11B 5804   4.108   0.308   3.891 -2.2494  2.5065  2.2962
   63CHL1    C9 5805   4.215   0.441   3.766  0.4408  0.2230 -0.0154
   63CHL1    H9 5806   4.114   0.477   3.736  0.5157 -0.0197 -0.5785
   63CHL1   C10 5807   4.260   0.346   3.647  0.2473  0.1131 -0.1063
   63CHL1   C19 5808   4.371   0.255   3.702 -0.0654 -0.1744 -0.3478
   63CHL1  H19A 5809   4.424   0.197   3.623  1.9112 -0.4532  1.1043
   63CHL1  H19B 5810   4.447   0.308   3.763  1.5102 -1.8179 -0.7500
   63CHL1  H19C 5811   4.329   0.174   3.766 -0.5327 -1.0786 -1.7406
   63CHL1    C1 5812   4.141   0.262   3.590  0.1124  0.0155 -0.7002
   63CHL1   H1A 5813   4.114   0.195   3.675  1.3526  2.1052  1.4517
   63CHL1   H1B 5814   4.054   0.330   3.577 -0.5144 -0.6442 -0.0875
   63CHL1    C2 5815   4.172   0.181   3.467  0.4842  0.2243  0.3496
   63CHL1   H2A 5816   4.078   0.140   3.423  0.8426  0.4429 -0.6452
   63CHL1   H2B 5817   4.244   0.096   3.472  0.2084 -0.0148  0.3057
   63CHL1   C20 5818   4.233   0.696   4.266  0.2390  1.1706  0.5170
   63CHL1   H20 5819   4.331   0.649   4.288  0.1289  0.5252 -0.3033
   63CHL1   C21 5820   4.121   0.603   4.317  0.0289 -0.2095 -0.3031
   63CHL1  H21A 5821   4.019   0.646   4.310  0.0966 -0.0573 -0.3644
   63CHL1  H21B 5822   4.131   0.577   4.424  2.1470  1.3060 -0.0657
   63CHL1  H21C 5823   4.119   0.502   4.271 -3.1796 -0.4294  0.1260
   63CHL1   C22 5824   4.257   0.831   4.337 -0.1044  0.1287  0.0291
   63CHL1  H22A 5825   4.332   0.890   4.279 -1.5729  2.1075  0.0608
   63CHL1  H22B 5826   4.166   0.894   4.338 -0.3507 -0.2283  0.1578
   63CHL1   C23 5827   4.289   0.806   4.487 -0.2287 -0.6762  0.3562
   63CHL1  H23A 5828   4.223   0.728   4.530 -0.6858 -0.7698 -0.4831
   63CHL1  H23B 5829   4.392   0.765   4.490  1.4988  3.2916  1.3061
   63CHL1   C24 5830   4.277   0.930   4.580 -0.7326  0.0928 -0.5514
   63CHL1  H24A 5831   4.338   1.010   4.532 -0.0624 -0.2824 -0.3462
   63CHL1  H24B 5832   4.172   0.963   4.588 -0.1420  1.8721  0.4077
   63CHL1   C25 5833   4.330   0.893   4.725 -0.0954 -0.3892 -0.5800
   63CHL1   H25 5834   4.429   0.844   4.716 -0.5056 -1.7317  1.5456
   63CHL1   C26 5835   4.351   1.013   4.819 -0.2880  0.1459  0.2944
   63CHL1  H26A 5836   4.448   1.057   4.791 -0.2920  0.2007  0.3646
   63CHL1  H26B 5837   4.274   1.093   4.809  0.0405  0.2559 -1.6046
   63CHL1  H26C 5838   4.356   0.983   4.926 -0.3816 -0.4426  0.1368
   63CHL1   C27 5839   4.239   0.792   4.801  0.1502  0.1753  0.2188
   63CHL1  H27A 5840   4.225   0.698   4.743  0.5866 -0.7784  1.5984
   63CHL1  H27B 5841   4.288   0.769   4.898  1.6660 -1.3811 -0.8391
   63CHL1  H27C 5842   4.142   0.838   4.827  1.1240  3.0360 -0.8809
   64CHL1    C3 5843   1.929   4.465   3.185  0.4522 -0.3097  0.6668
   64CHL1    H3 5844   1.884   4.566   3.189 -0.2373 -0.6037  0.4488
   64CHL1    O3 5845   1.914   4.418   3.053 -0.2648 -0.4071 -0.1069
   64CHL1   H3' 5846   1.996   4.371   3.035 -0.7455 -1.6894  0.8689
   64CHL1    C4 5847   2.077   4.477   3.215  0.3304  0.5523 -0.3312
   64CHL1   H4A 5848   2.127   4.389   3.170 -0.8286 -0.0431 -0.5040
   64CHL1   H4B 5849   2.122   4.556   3.152 -0.2472  0.6315 -0.6570
   64CHL1    C5 5850   2.114   4.488   3.364 -0.9240  0.0621 -0.2200
   64CHL1    C6 5851   2.187   4.583   3.412  0.0196 -0.7915 -0.2777
   64CHL1    H6 5852   2.219   4.651   3.332 -1.9289  1.2603  0.5908
   64CHL1    C7 5853   2.225   4.612   3.556 -0.1647 -0.3365  0.9001
   64CHL1   H7A 5854   2.333   4.638   3.557  0.6137 -3.1439 -0.2878
   64CHL1   H7B 5855   2.167   4.694   3.604 -1.0387 -0.2805 -0.2040
   64CHL1    C8 5856   2.200   4.491   3.644 -1.5199 -0.6595 -0.4089
   64CHL1    H8 5857   2.279   4.418   3.615  0.1247  0.3242  1.3668
   64CHL1   C14 5858   2.210   4.523   3.788  0.0686 -0.6122 -0.4505
   64CHL1   H14 5859   2.145   4.610   3.809  3.1590  1.4959  1.1251
   64CHL1   C15 5860   2.347   4.577   3.839 -0.0726  0.0322 -0.0702
   64CHL1  H15A 5861   2.432   4.510   3.815 -0.3934 -0.1266 -0.7999
   64CHL1  H15B 5862   2.365   4.679   3.800 -0.8867  0.1616 -0.1225
   64CHL1   C16 5863   2.328   4.570   3.990 -0.2082 -0.2464 -0.0731
   64CHL1  H16A 5864   2.423   4.535   4.034  0.5004  0.3122 -1.1119
   64CHL1  H16B 5865   2.303   4.664   4.044  1.1681 -1.1034  2.1804
   64CHL1   C17 5866   2.197   4.498   4.021  0.0482  0.9468 -0.1824
   64CHL1   H17 5867   2.124   4.581   4.026 -0.2418  0.6521  0.4631
   64CHL1   C13 5868   2.173   4.422   3.888 -0.2422  0.3276  0.3434
   64CHL1   C18 5869   2.273   4.300   3.877 -0.0234 -0.1907 -0.3616
   64CHL1  H18A 5870   2.269   4.249   3.778 -3.1442 -3.4357  1.1773
   64CHL1  H18B 5871   2.376   4.331   3.906  0.4896  0.0926 -2.3613
   64CHL1  H18C 5872   2.233   4.222   3.946 -1.4852 -2.3579 -3.4594
   64CHL1   C12 5873   2.027   4.379   3.854  0.1447  0.1734 -0.0131
   64CHL1  H12A 5874   1.992   4.294   3.916 -0.0334 -0.2545 -0.6959
   64CHL1  H12B 5875   1.968   4.471   3.878 -0.4054 -0.0456 -0.5033
   64CHL1   C11 5876   2.016   4.331   3.713  0.2061  0.4793  0.3345
   64CHL1  H11A 5877   2.064   4.232   3.697 -3.2908 -1.3150 -0.0840
   64CHL1  H11B 5878   1.912   4.305   3.685  0.5620 -0.5981 -0.0527
   64CHL1    C9 5879   2.059   4.435   3.616  0.4742 -0.1750 -0.2449
   64CHL1    H9 5880   1.995   4.525   3.629 -1.5757 -1.7243  1.1015
   64CHL1   C10 5881   2.039   4.396   3.463  0.0590  0.1536 -0.2382
   64CHL1   C19 5882   2.101   4.254   3.443 -0.1622  0.4230 -1.1416
   64CHL1  H19A 5883   2.038   4.176   3.490 -0.2310  0.4737 -1.1484
   64CHL1  H19B 5884   2.117   4.226   3.337 -1.1424  0.8920 -1.4304
   64CHL1  H19C 5885   2.201   4.254   3.491 -1.6053 -1.2938  2.2425
   64CHL1    C1 5886   1.892   4.404   3.424 -0.0905  0.3491 -0.4794
   64CHL1   H1A 5887   1.827   4.335   3.482 -0.8542  0.9417 -0.6075
   64CHL1   H1B 5888   1.851   4.506   3.440 -0.7008  0.2885 -1.5651
   64CHL1    C2 5889   1.866   4.368   3.278 -0.4946  0.3995  0.5174
   64CHL1   H2A 5890   1.761   4.376   3.245  0.1667  2.7439 -1.2904
   64CHL1   H2B 5891   1.899   4.265   3.253 -2.9001 -0.1095 -0.8786
   64CHL1   C20 5892   2.196   4.407   4.147  0.2656  0.7163 -0.1331
   64CHL1   H20 5893   2.264   4.325   4.115  1.1839  1.9395 -1.5010
   64CHL1   C21 5894   2.053   4.372   4.188 -1.2712 -0.0365  0.0041
   64CHL1  H21A 5895   1.992   4.454   4.231 -0.9830  0.2108 -0.0622
   64CHL1  H21B 5896   2.046   4.285   4.258  0.7698 -0.1233  0.1449
   64CHL1  H21C 5897   1.996   4.351   4.095  0.0325  0.8276 -1.0135
   64CHL1   C22 5898   2.266   4.470   4.271  0.2712 -0.0665  0.2485
   64CHL1  H22A 5899   2.362   4.521   4.246 -0.3502  0.7605 -0.5504
   64CHL1  H22B 5900   2.200   4.553   4.305  1.3346  0.7542  0.3575
   64CHL1   C23 5901   2.277   4.375   4.392 -0.0802 -0.1112 -0.7187
   64CHL1  H23A 5902   2.181   4.328   4.424  0.2165 -0.7310 -0.7383
   64CHL1  H23B 5903   2.346   4.291   4.371  1.4269  0.7622  0.5243
   64CHL1   C24 5904   2.328   4.450   4.527  0.2845  0.0111  0.2704
   64CHL1  H24A 5905   2.427   4.491   4.499 -0.2740  1.5409  0.4338
   64CHL1  H24B 5906   2.254   4.530   4.551 -0.0681  0.2839 -1.6044
   64CHL1   C25 5907   2.351   4.370   4.656 -0.0686 -0.0153  0.4098
   64CHL1   H25 5908   2.415   4.285   4.623  0.1058  0.5278 -0.6828
   64CHL1   C26 5909   2.420   4.461   4.754  0.0031 -0.3271 -0.8978
   64CHL1  H26A 5910   2.357   4.546   4.787  2.3589  0.5284  1.7363
   64CHL1  H26B 5911   2.451   4.395   4.838  0.1901 -0.0804 -0.7739
   64CHL1  H26C 5912   2.513   4.500   4.708 -0.9166  0.5836 -2.0601
   64CHL1   C27 5913   2.219   4.329   4.716 -0.2629 -0.5715 -0.3010
   64CHL1  H27A 5914   2.226   4.272   4.811  0.8022 -0.1298 -0.1018
   64CHL1  H27B 5915   2.160   4.422   4.729  0.1088 -0.5009  0.9546
   64CHL1  H27C 5916   2.165   4.252   4.657 -1.6527 -0.9627  1.3961
   65CHL1    C3 5917   0.840   2.877   3.269  0.2682 -0.0617 -0.1549
   65CHL1    H3 5918   0.925   2.929   3.318  0.5072 -1.8910  1.4778
   65CHL1    O3 5919   0.852   2.876   3.128  0.3218  0.3041  0.1209
   65CHL1   H3' 5920   0.825   2.960   3.090 -1.4394 -0.4480 -0.3831
   65CHL1    C4 5921   0.850   2.736   3.310  0.2719  0.1496 -0.3232
   65CHL1   H4A 5922   0.784   2.669   3.251  0.0490 -0.8249  0.9677
   65CHL1   H4B 5923   0.949   2.690   3.288  1.0167  1.1146  0.8731
   65CHL1    C5 5924   0.839   2.729   3.468 -0.2668 -0.7074 -0.0802
   65CHL1    C6 5925   0.936   2.685   3.542  0.6764 -0.4901 -0.1067
   65CHL1    H6 5926   1.032   2.660   3.495  1.5656  2.5115 -0.0966
   65CHL1    C7 5927   0.942   2.684   3.689  0.2527 -0.3499  0.1836
   65CHL1   H7A 5928   0.986   2.586   3.720  0.7868  0.1071  0.9114
   65CHL1   H7B 5929   1.011   2.758   3.734 -0.4988  0.8787 -0.6348
   65CHL1    C8 5930   0.797   2.690   3.745 -0.0050  0.1916 -0.5129
   65CHL1    H8 5931   0.733   2.602   3.723 -1.4848  1.2764 -0.7329
   65CHL1   C14 5932   0.800   2.699   3.897  0.1419 -0.1611 -0.1840
   65CHL1   H14 5933   0.842   2.798   3.926  1.6495 -1.4285  2.2971
   65CHL1   C15 5934   0.897   2.603   3.977 -0.0510 -0.1777  0.2015
   65CHL1  H15A 5935   0.884   2.500   3.936 -1.2489  0.9500 -2.4996
   65CHL1  H15B 5936   1.005   2.628   3.973  0.2080 -1.2006  0.4460
   65CHL1   C16 5937   0.848   2.610   4.115  0.5726  0.6053 -0.4171
   65CHL1  H16A 5938   0.826   2.509   4.158 -0.2756  1.0228  0.1596
   65CHL1  H16B 5939   0.927   2.642   4.186  0.0154  0.3292  0.3466
   65CHL1   C17 5940   0.715   2.699   4.124 -0.2265  0.5298 -0.2418
   65CHL1   H17 5941   0.757   2.800   4.144  3.1335 -0.5538 -1.2066
   65CHL1   C13 5942   0.664   2.705   3.974 -0.1771  0.3643  0.0851
   65CHL1   C18 5943   0.597   2.569   3.943  0.4362 -1.1002 -0.8856
   65CHL1  H18A 5944   0.583   2.543   3.836  4.2190 -1.6692 -1.3600
   65CHL1  H18B 5945   0.641   2.482   3.996 -1.0356 -0.4226  1.6544
   65CHL1  H18C 5946   0.491   2.562   3.978  0.4669  0.8623 -0.2678
   65CHL1   C12 5947   0.594   2.832   3.914  0.9613 -0.0394  0.3574
   65CHL1  H12A 5948   0.496   2.855   3.962  0.5604  0.7570 -0.7658
   65CHL1  H12B 5949   0.664   2.913   3.944  0.8372  0.4398 -0.5792
   65CHL1   C11 5950   0.588   2.841   3.754  0.0536 -0.1559 -0.2948
   65CHL1  H11A 5951   0.505   2.773   3.726 -0.7484  1.1205 -1.1448
   65CHL1  H11B 5952   0.562   2.946   3.727  3.2755  0.2255 -2.4174
   65CHL1    C9 5953   0.722   2.804   3.677  0.0317  0.3530 -0.0102
   65CHL1    H9 5954   0.787   2.893   3.697  1.5761 -0.4392 -1.2957
   65CHL1   C10 5955   0.712   2.792   3.522 -0.1381 -0.5568 -0.4208
   65CHL1   C19 5956   0.595   2.696   3.483 -0.5226 -0.4123 -0.3741
   65CHL1  H19A 5957   0.580   2.684   3.374 -1.2897 -0.4821 -0.2650
   65CHL1  H19B 5958   0.614   2.599   3.535  0.3033  0.5531  1.1979
   65CHL1  H19C 5959   0.497   2.740   3.510 -0.1197  0.0536  0.3648
   65CHL1    C1 5960   0.678   2.926   3.459  0.7035  0.6088 -0.3883
   65CHL1   H1A 5961   0.569   2.937   3.480  0.8411 -0.6464  1.1473
   65CHL1   H1B 5962   0.733   3.003   3.517 -1.5843  1.4415  0.7959
   65CHL1    C2 5963   0.706   2.938   3.308 -0.2527  0.4622  0.2723
   65CHL1   H2A 5964   0.693   3.037   3.258 -1.2101  0.3996  0.3878
   65CHL1   H2B 5965   0.631   2.874   3.258  1.0456 -2.1539  1.4711
   65CHL1   C20 5966   0.612   2.652   4.228  0.5873 -0.3177 -0.1072
   65CHL1   H20 5967   0.592   2.544   4.213 -1.0562  0.1217 -1.3418
   65CHL1   C21 5968   0.480   2.728   4.213 -0.0016 -0.5273 -1.0846
   65CHL1  H21A 5969   0.501   2.837   4.219  0.9206 -0.7305 -0.3741
   65CHL1  H21B 5970   0.414   2.704   4.299 -0.4567  0.6681 -1.0832
   65CHL1  H21C 5971   0.430   2.704   4.116 -0.7078  0.4120 -0.9671
   65CHL1   C22 5972   0.669   2.677   4.377 -0.2092 -0.2967  0.8970
   65CHL1  H22A 5973   0.774   2.640   4.376  0.4339  1.3825 -0.6153
   65CHL1  H22B 5974   0.673   2.786   4.399 -0.7789 -0.5540  2.3740
   65CHL1   C23 5975   0.587   2.617   4.488  0.0772  0.3761 -1.2307
   65CHL1  H23A 5976   0.484   2.656   4.501 -0.1483 -0.5282 -0.1150
   65CHL1  H23B 5977   0.576   2.511   4.457 -2.2479  0.0621  0.3897
   65CHL1   C24 5978   0.656   2.616   4.631  0.0705  0.2783  0.5142
   65CHL1  H24A 5979   0.746   2.556   4.607 -1.4808 -1.4110 -1.5169
   65CHL1  H24B 5980   0.680   2.722   4.655 -1.5995  1.4426 -2.4391
   65CHL1   C25 5981   0.567   2.553   4.740 -0.3441 -0.1103  0.2318
   65CHL1   H25 5982   0.480   2.623   4.736 -0.1189  0.1327 -2.6473
   65CHL1   C26 5983   0.536   2.399   4.724 -0.6911 -0.0905  0.3939
   65CHL1  H26A 5984   0.631   2.341   4.718  0.2491  1.3720  0.6785
   65CHL1  H26B 5985   0.475   2.365   4.810 -3.0174  1.4252 -0.5570
   65CHL1  H26C 5986   0.471   2.396   4.634  0.1809  1.9306 -0.3563
   65CHL1   C27 5987   0.631   2.560   4.880  0.0353 -0.3963  0.1979
   65CHL1  H27A 5988   0.730   2.510   4.878  0.6616  0.7993 -1.3158
   65CHL1  H27B 5989   0.662   2.663   4.909  0.5584 -0.2708 -0.7482
   65CHL1  H27C 5990   0.562   2.506   4.949 -0.1715 -2.4861 -1.5392
   66CHL1    C3 5991   3.648   0.223   3.432 -0.0850 -0.0718  0.0965
   66CHL1    H3 5992   3.688   0.126   3.467 -2.5040 -1.2341 -0.1203
   66CHL1    O3 5993   3.629   0.208   3.291  0.0117 -0.1861 -0.1020
   66CHL1   H3' 5994   3.623   0.297   3.256  3.4064 -0.2652 -1.2256
   66CHL1    C4 5995   3.513   0.251   3.491 -0.5345 -0.2489 -0.1117
   66CHL1   H4A 5996   3.472   0.349   3.459  1.3416  0.5275 -0.2616
   66CHL1   H4B 5997   3.430   0.185   3.457 -1.6418  0.5819  0.8830
   66CHL1    C5 5998   3.525   0.252   3.642  0.1658  0.2807 -0.1949
   66CHL1    C6 5999   3.466   0.161   3.716 -0.7573 -0.1578  0.6137
   66CHL1    H6 6000   3.399   0.086   3.671  1.6850 -0.7050 -2.4597
   66CHL1    C7 6001   3.466   0.166   3.867 -0.5033 -0.1341  0.4117
   66CHL1   H7A 6002   3.367   0.160   3.918  0.8543  1.6162  3.5578
   66CHL1   H7B 6003   3.512   0.071   3.903  0.3880  0.2581  0.3171
   66CHL1    C8 6004   3.544   0.281   3.933 -0.6631  0.0284  0.0917
   66CHL1    H8 6005   3.485   0.375   3.929 -0.2330  0.3875  1.6676
   66CHL1   C14 6006   3.577   0.243   4.076  0.6638 -0.8198  0.6937
   66CHL1   H14 6007   3.637   0.150   4.074  1.5235 -0.2998  1.7019
   66CHL1   C15 6008   3.446   0.226   4.164 -0.4501 -0.1013 -0.8204
   66CHL1  H15A 6009   3.368   0.305   4.153 -1.5528 -0.6771  1.9973
   66CHL1  H15B 6010   3.393   0.128   4.164  0.3660 -0.6161  1.9898
   66CHL1   C16 6011   3.499   0.246   4.307 -0.1395 -0.0324  0.0518
   66CHL1  H16A 6012   3.429   0.314   4.359 -0.5900  0.1250 -0.7350
   66CHL1  H16B 6013   3.512   0.150   4.362 -0.6604 -0.0943  0.0654
   66CHL1   C17 6014   3.647   0.297   4.286  0.2692  0.0057  0.7406
   66CHL1   H17 6015   3.711   0.207   4.276  0.3421  0.2166 -0.8912
   66CHL1   C13 6016   3.647   0.353   4.147 -0.5017 -0.5150 -0.3813
   66CHL1   C18 6017   3.576   0.487   4.143  0.0565 -0.5476  0.2351
   66CHL1  H18A 6018   3.469   0.476   4.171  0.5373 -2.5004  1.5485
   66CHL1  H18B 6019   3.618   0.559   4.217 -2.2324  1.0034  0.0987
   66CHL1  H18C 6020   3.581   0.527   4.040 -0.7982  2.5705  1.2955
   66CHL1   C12 6021   3.786   0.365   4.068 -0.7348 -0.0069  0.6822
   66CHL1  H12A 6022   3.843   0.448   4.115  0.1977  0.5616 -1.3039
   66CHL1  H12B 6023   3.838   0.269   4.092  1.5026  1.0586  0.3820
   66CHL1   C11 6024   3.772   0.395   3.913 -0.1352 -0.7583 -0.4086
   66CHL1  H11A 6025   3.752   0.501   3.889 -1.4865 -1.3474 -2.0893
   66CHL1  H11B 6026   3.872   0.379   3.869 -0.4762 -2.7724 -0.5745
   66CHL1    C9 6027   3.674   0.305   3.848  0.1341  0.4421  0.3326
   66CHL1    H9 6028   3.722   0.205   3.837  0.1257  0.2283  2.0116
   66CHL1   C10 6029   3.635   0.341   3.696 -0.3603 -0.0054  0.2218
   66CHL1   C19 6030   3.585   0.485   3.688 -0.1821  0.4703  0.5948
   66CHL1  H19A 6031   3.529   0.516   3.597 -1.3152 -0.9298  0.7795
   66CHL1  H19B 6032   3.523   0.511   3.776  0.9928  0.6816  1.3792
   66CHL1  H19C 6033   3.675   0.550   3.692  1.2410 -1.4720  1.7434
   66CHL1    C1 6034   3.768   0.332   3.613  0.1312  0.8385  0.1624
   66CHL1   H1A 6035   3.834   0.412   3.652  1.9821 -0.2310 -0.6915
   66CHL1   H1B 6036   3.818   0.241   3.653 -0.8553  0.5745  0.8320
   66CHL1    C2 6037   3.751   0.329   3.462  0.6172 -0.4338  0.2556
   66CHL1   H2A 6038   3.839   0.297   3.401 -0.7960 -0.7028 -1.7298
   66CHL1   H2B 6039   3.718   0.428   3.425  0.3678 -0.3143  0.7925
   66CHL1   C20 6040   3.706   0.377   4.396  0.0561  0.1870  0.4701
   66CHL1   H20 6041   3.788   0.436   4.351  0.1916 -0.2326  0.1534
   66CHL1   C21 6042   3.763   0.278   4.503  0.6537  0.1501  0.3398
   66CHL1  H21A 6043   3.825   0.204   4.448 -0.0630 -0.0056 -0.2701
   66CHL1  H21B 6044   3.675   0.217   4.534  0.6510 -0.8223 -1.4821
   66CHL1  H21C 6045   3.806   0.344   4.582 -1.2155  2.3576 -0.3699
   66CHL1   C22 6046   3.618   0.482   4.477  0.4192 -0.0578 -0.4432
   66CHL1  H22A 6047   3.541   0.522   4.408  0.3164  4.9777  2.0975
   66CHL1  H22B 6048   3.559   0.428   4.554  0.2172  1.6890  0.6807
   66CHL1   C23 6049   3.698   0.600   4.538  0.4205 -0.0866  0.8021
   66CHL1  H23A 6050   3.752   0.560   4.626 -2.6313  0.4075  3.0584
   66CHL1  H23B 6051   3.759   0.648   4.459 -1.0694  1.8980  0.7471
   66CHL1   C24 6052   3.609   0.708   4.587  0.0625 -0.5384 -0.3866
   66CHL1  H24A 6053   3.563   0.754   4.498 -0.6433  0.7397  0.5984
   66CHL1  H24B 6054   3.533   0.660   4.653 -0.3870  2.2297  1.2814
   66CHL1   C25 6055   3.687   0.813   4.667  0.1510  0.0968 -0.4065
   66CHL1   H25 6056   3.721   0.767   4.762  1.4540  2.8277  0.5535
   66CHL1   C26 6057   3.821   0.868   4.595  0.4982  0.4762 -0.3253
   66CHL1  H26A 6058   3.876   0.945   4.653 -1.8577  3.0295 -1.2253
   66CHL1  H26B 6059   3.896   0.788   4.580 -1.5181 -1.4464 -0.6128
   66CHL1  H26C 6060   3.791   0.900   4.493  1.8743 -0.3631 -1.0214
   66CHL1   C27 6061   3.593   0.929   4.714  0.2721 -0.1376  0.8307
   66CHL1  H27A 6062   3.649   1.002   4.776 -0.6057  1.2682  0.0235
   66CHL1  H27B 6063   3.505   0.884   4.767 -0.5553 -1.8823 -1.8339
   66CHL1  H27C 6064   3.547   0.972   4.623 -0.9178  2.4652  2.5354
   67CHL1    C3 6065   4.562   4.357   3.328 -0.2406 -0.0567  0.4352
   67CHL1    H3 6066   4.527   4.257   3.361  1.1955 -1.3489 -1.7087
   67CHL1    O3 6067   4.612   4.368   3.193 -0.0510 -0.3575 -0.6866
   67CHL1   H3' 6068   4.638   4.460   3.183  2.4450 -1.0866 -1.6051
   67CHL1    C4 6069   4.452   4.462   3.351 -0.2839 -0.2788  0.6871
   67CHL1   H4A 6070   4.495   4.557   3.313 -2.4227 -0.0897 -1.5205
   67CHL1   H4B 6071   4.366   4.440   3.284 -2.0715  1.2827  2.3672
   67CHL1    C5 6072   4.400   4.470   3.486  0.2092  0.5170 -0.2120
   67CHL1    C6 6073   4.267   4.467   3.515 -0.1780 -0.7018 -0.2037
   67CHL1    H6 6074   4.190   4.453   3.438 -1.4171  0.0785  0.8566
   67CHL1    C7 6075   4.217   4.481   3.654  0.1785 -0.3716  0.0403
   67CHL1   H7A 6076   4.130   4.548   3.667  1.1492  0.9032  0.1204
   67CHL1   H7B 6077   4.172   4.383   3.683  0.0254 -1.3269 -3.0367
   67CHL1    C8 6078   4.322   4.518   3.759  0.5338  0.0314 -0.2380
   67CHL1    H8 6079   4.332   4.628   3.753 -1.5442  0.3003  0.3593
   67CHL1   C14 6080   4.269   4.483   3.895  0.2796  0.0896  0.6212
   67CHL1   H14 6081   4.263   4.372   3.891  0.4506  0.1199 -1.2643
   67CHL1   C15 6082   4.131   4.522   3.941 -0.2402 -0.3895  0.4596
   67CHL1  H15A 6083   4.112   4.627   3.908  0.0865 -0.2187  0.8010
   67CHL1  H15B 6084   4.054   4.454   3.901 -0.7841  0.0339  0.7678
   67CHL1   C16 6085   4.139   4.514   4.091 -0.4272  0.2108  1.0027
   67CHL1  H16A 6086   4.114   4.611   4.139 -1.2548  0.3020  0.3967
   67CHL1  H16B 6087   4.062   4.439   4.119  1.5673 -2.3110  0.2067
   67CHL1   C17 6088   4.282   4.464   4.129 -0.1721 -0.2408  0.5874
   67CHL1   H17 6089   4.273   4.353   4.130 -2.3155 -0.1069  2.0757
   67CHL1   C13 6090   4.362   4.512   4.006  0.7705 -0.3041 -0.9553
   67CHL1   C18 6091   4.385   4.669   4.014 -0.3620 -0.0438  1.1457
   67CHL1  H18A 6092   4.288   4.722   4.015 -0.2949  0.3128 -2.0599
   67CHL1  H18B 6093   4.432   4.695   4.112  0.1612  2.3439  0.3417
   67CHL1  H18C 6094   4.444   4.710   3.930 -0.5261 -0.3770  0.8699
   67CHL1   C12 6095   4.486   4.429   3.986  0.9218 -0.2514  0.2691
   67CHL1  H12A 6096   4.564   4.439   4.065  0.9433 -1.2793  0.3921
   67CHL1  H12B 6097   4.458   4.322   3.980  1.3802 -0.2845 -2.6990
   67CHL1   C11 6098   4.549   4.452   3.851 -0.6486  0.4414 -0.1036
   67CHL1  H11A 6099   4.592   4.555   3.852 -0.7453  0.4795  1.0259
   67CHL1  H11B 6100   4.636   4.383   3.841 -2.1738 -1.8777  1.5904
   67CHL1    C9 6101   4.454   4.447   3.733  0.4085  0.0382  0.3147
   67CHL1    H9 6102   4.420   4.341   3.721  1.0422 -0.1867  0.5107
   67CHL1   C10 6103   4.515   4.479   3.595  0.0041 -0.3802 -0.2247
   67CHL1   C19 6104   4.583   4.620   3.600  0.3237 -0.8299 -0.2213
   67CHL1  H19A 6105   4.670   4.615   3.669 -0.0211  0.3282  0.3420
   67CHL1  H19B 6106   4.612   4.652   3.498 -1.9647  1.0083 -0.3861
   67CHL1  H19C 6107   4.521   4.705   3.638 -0.0433 -0.1441 -2.2524
   67CHL1    C1 6108   4.625   4.381   3.568 -0.0988 -0.1822  0.8185
   67CHL1   H1A 6109   4.714   4.391   3.635  1.0187 -2.1183 -0.2774
   67CHL1   H1B 6110   4.590   4.277   3.580  0.3878 -0.3019  1.2447
   67CHL1    C2 6111   4.673   4.387   3.425 -0.2645 -0.5546 -0.2552
   67CHL1   H2A 6112   4.758   4.315   3.415  0.2243 -0.3741  2.1188
   67CHL1   H2B 6113   4.716   4.485   3.397 -0.9842 -0.3361 -0.6107
   67CHL1   C20 6114   4.324   4.501   4.276  0.0625 -0.2414  0.5399
   67CHL1   H20 6115   4.321   4.611   4.294 -0.7356 -0.3045  0.8198
   67CHL1   C21 6116   4.460   4.452   4.308 -0.2039  0.2336 -0.1709
   67CHL1  H21A 6117   4.476   4.342   4.297  0.2198  0.2900 -0.1334
   67CHL1  H21B 6118   4.483   4.475   4.414  2.6923 -2.0017 -0.1558
   67CHL1  H21C 6119   4.542   4.501   4.252 -0.8997  0.9109 -0.6130
   67CHL1   C22 6120   4.215   4.433   4.368  0.0477 -0.6439  0.6760
   67CHL1  H22A 6121   4.129   4.495   4.335  1.8032  1.2530 -0.6419
   67CHL1  H22B 6122   4.198   4.326   4.344  1.8158 -0.7517 -0.2291
   67CHL1   C23 6123   4.244   4.441   4.517  0.6542  0.2812  0.1667
   67CHL1  H23A 6124   4.172   4.382   4.578  0.6536 -0.0639 -0.1592
   67CHL1  H23B 6125   4.341   4.392   4.540  0.9313  0.2055 -1.0802
   67CHL1   C24 6126   4.269   4.575   4.577 -0.0830 -0.5476  0.1069
   67CHL1  H24A 6127   4.273   4.552   4.686 -1.6246  1.6997  0.7218
   67CHL1  H24B 6128   4.368   4.621   4.558 -0.5827  0.5947  0.1352
   67CHL1   C25 6129   4.152   4.670   4.556 -0.4670 -0.6647  0.4129
   67CHL1   H25 6130   4.135   4.681   4.447  0.2357 -0.3771  0.3249
   67CHL1   C26 6131   4.026   4.625   4.624 -0.1478  0.1927  0.5353
   67CHL1  H26A 6132   3.979   4.542   4.568 -3.6457  2.6669 -0.5100
   67CHL1  H26B 6133   4.056   4.586   4.723  0.9465  0.2136  0.2276
   67CHL1  H26C 6134   3.940   4.694   4.637  0.3039  0.5022  2.0276
   67CHL1   C27 6135   4.186   4.804   4.618 -0.2882 -0.1984  0.5144
   67CHL1  H27A 6136   4.107   4.872   4.578  0.8013  1.0858  0.4879
   67CHL1  H27B 6137   4.199   4.815   4.728  0.5050 -1.3181  0.5464
   67CHL1  H27C 6138   4.280   4.839   4.570 -0.3118 -1.4191 -0.4781
   68CHL1    C3 6139   1.691   0.753   3.559  0.4611  1.1198 -0.3125
   68CHL1    H3 6140   1.801   0.739   3.552  0.5586 -0.9361  2.9255
   68CHL1    O3 6141   1.632   0.723   3.431 -0.1144  0.1114 -0.3276
   68CHL1   H3' 6142   1.611   0.810   3.398  2.3705  1.5486  1.5288
   68CHL1    C4 6143   1.621   0.664   3.663  0.8851 -0.1664 -0.1811
   68CHL1   H4A 6144   1.512   0.680   3.649  0.4990 -0.6777  1.8841
   68CHL1   H4B 6145   1.657   0.565   3.628 -0.8918 -0.6764 -0.6493
   68CHL1    C5 6146   1.670   0.699   3.801 -0.0367  0.9283 -0.1287
   68CHL1    C6 6147   1.736   0.611   3.879  0.3402  0.4062  0.2726
   68CHL1    H6 6148   1.783   0.521   3.837  1.0872  0.7147  0.4287
   68CHL1    C7 6149   1.789   0.645   4.013  0.1880 -0.6996 -0.9134
   68CHL1   H7A 6150   1.786   0.553   4.076  0.8624  0.9107  1.6454
   68CHL1   H7B 6151   1.897   0.668   4.007  0.1567 -0.7753 -2.0088
   68CHL1    C8 6152   1.706   0.765   4.082 -0.0185  0.4568  0.1312
   68CHL1    H8 6153   1.603   0.729   4.106  0.0217  0.0639 -0.2688
   68CHL1   C14 6154   1.773   0.809   4.212 -0.1949  0.7963  0.1286
   68CHL1   H14 6155   1.878   0.837   4.187  0.3882  0.6662  2.2049
   68CHL1   C15 6156   1.782   0.714   4.327  0.3693  0.5255  0.5365
   68CHL1  H15A 6157   1.687   0.655   4.330 -0.0218  1.1431  0.5232
   68CHL1  H15B 6158   1.869   0.648   4.311 -0.4656 -0.2193 -1.2192
   68CHL1   C16 6159   1.799   0.787   4.457  0.2288 -0.3657 -0.0665
   68CHL1  H16A 6160   1.721   0.742   4.522  0.5752 -1.8208 -0.6232
   68CHL1  H16B 6161   1.896   0.773   4.510 -0.2535 -1.7050  0.5194
   68CHL1   C17 6162   1.769   0.934   4.415  0.1688 -0.4065 -0.1352
   68CHL1   H17 6163   1.867   0.986   4.414 -0.4091  0.6888 -0.5494
   68CHL1   C13 6164   1.705   0.931   4.276  0.3245  0.0082  0.1155
   68CHL1   C18 6165   1.543   0.915   4.286 -0.2246  0.2319  0.0568
   68CHL1  H18A 6166   1.492   1.011   4.310 -1.1158 -0.2472  0.1043
   68CHL1  H18B 6167   1.496   0.872   4.195  0.0137  0.4812 -0.1845
   68CHL1  H18C 6168   1.526   0.841   4.367 -0.0490 -1.5744 -1.4787
   68CHL1   C12 6169   1.735   1.048   4.182  0.2954  0.4955 -0.7334
   68CHL1  H12A 6170   1.691   1.141   4.224  1.7243  0.3328  1.2725
   68CHL1  H12B 6171   1.844   1.061   4.166  0.4108 -0.2522 -0.5886
   68CHL1   C11 6172   1.670   1.017   4.045  0.1991  0.3843  0.2666
   68CHL1  H11A 6173   1.561   1.037   4.050  0.1944  0.5043 -0.2785
   68CHL1  H11B 6174   1.709   1.090   3.970 -0.6675  1.3282  0.7179
   68CHL1    C9 6175   1.713   0.881   3.980  0.4092 -0.4777 -0.3091
   68CHL1    H9 6176   1.820   0.886   3.951 -0.1042 -2.8312 -3.1781
   68CHL1   C10 6177   1.649   0.843   3.840 -0.1186  0.4653 -0.5497
   68CHL1   C19 6178   1.496   0.864   3.845 -0.7667  0.7303 -0.0295
   68CHL1  H19A 6179   1.448   0.825   3.753  0.8591  1.8787 -1.4182
   68CHL1  H19B 6180   1.463   0.803   3.931  1.1994 -0.8322 -0.3053
   68CHL1  H19C 6181   1.463   0.969   3.858  1.0914  1.1496  1.9745
   68CHL1    C1 6182   1.707   0.942   3.732 -0.7516  0.1016 -0.1031
   68CHL1   H1A 6183   1.668   1.045   3.749 -0.5325 -0.0641  1.5614
   68CHL1   H1B 6184   1.818   0.953   3.730 -0.4418 -2.4769 -0.6223
   68CHL1    C2 6185   1.666   0.900   3.592  0.2547  0.1261  0.2062
   68CHL1   H2A 6186   1.717   0.956   3.511  1.6432 -2.7306 -1.0325
   68CHL1   H2B 6187   1.555   0.900   3.589  0.2370  0.7357  0.5512
   68CHL1   C20 6188   1.680   0.993   4.528 -0.2526  0.1172  0.3196
   68CHL1   H20 6189   1.585   0.936   4.533 -0.9110  1.1484 -0.0993
   68CHL1   C21 6190   1.668   1.140   4.492  0.4170  0.1282 -0.0882
   68CHL1  H21A 6191   1.612   1.185   4.576  0.6975 -1.2534  0.8842
   68CHL1  H21B 6192   1.611   1.156   4.398 -1.1430 -2.0112  0.4133
   68CHL1  H21C 6193   1.770   1.184   4.488  1.4797 -2.1937 -3.7178
   68CHL1   C22 6194   1.735   0.974   4.670 -0.3004 -0.7685  0.3968
   68CHL1  H22A 6195   1.662   1.023   4.738  1.6487  0.7429  1.5050
   68CHL1  H22B 6196   1.729   0.867   4.703 -1.2673 -1.0020 -0.5024
   68CHL1   C23 6197   1.869   1.041   4.695  0.4862 -0.0276  0.1230
   68CHL1  H23A 6198   1.942   1.005   4.620 -0.9316 -1.5828 -0.5795
   68CHL1  H23B 6199   1.848   1.149   4.680  0.2630  0.0390  0.8828
   68CHL1   C24 6200   1.922   1.015   4.835  0.1027 -0.4435 -0.1850
   68CHL1  H24A 6201   1.844   1.013   4.913  1.2829 -0.3925  1.0254
   68CHL1  H24B 6202   1.985   0.924   4.846  1.4647  0.2894 -1.4543
   68CHL1   C25 6203   2.017   1.126   4.890 -0.2249 -0.0494 -1.1214
   68CHL1   H25 6204   1.962   1.222   4.884 -0.6467 -0.2998 -1.3341
   68CHL1   C26 6205   2.051   1.099   5.041 -0.0004 -0.5263  0.6515
   68CHL1  H26A 6206   2.116   1.009   5.042  0.1125 -0.5865 -2.5158
   68CHL1  H26B 6207   2.106   1.186   5.083  1.7810 -1.6976  0.8573
   68CHL1  H26C 6208   1.962   1.069   5.102  0.8868 -1.3014  1.6045
   68CHL1   C27 6209   2.140   1.145   4.808 -0.1273  0.1072  0.2185
   68CHL1  H27A 6210   2.211   1.214   4.858  1.1188  0.3728 -1.7816
   68CHL1  H27B 6211   2.190   1.045   4.808  1.5611  0.9048 -0.3913
   68CHL1  H27C 6212   2.117   1.173   4.703  0.4283  1.8410  0.5347
   69CHL1    C3 6213   0.962   4.853   3.294  0.3914  0.0997  0.9803
   69CHL1    H3 6214   0.877   4.805   3.348 -0.1141  0.5922  0.6374
   69CHL1    O3 6215   0.912   4.861   3.160  0.0589  0.0773  0.0704
   69CHL1   H3' 6216   0.981   4.915   3.121 -0.4820  1.8670  1.4324
   69CHL1    C4 6217   0.988   4.991   3.351  0.6034 -0.4089 -0.6425
   69CHL1   H4A 6218   1.068   5.046   3.297 -2.4274  1.5024 -3.4829
   69CHL1   H4B 6219   0.898   5.054   3.335  1.1507  1.4089  2.5570
   69CHL1    C5 6220   1.019   4.974   3.499  0.2049 -0.6023  0.5665
   69CHL1    C6 6221   0.939   5.030   3.588 -0.0881 -0.0613 -0.4647
   69CHL1    H6 6222   0.851   5.084   3.549 -0.7616 -0.0906  0.9652
   69CHL1    C7 6223   0.952   5.020   3.733  0.0426 -0.8852 -0.0238
   69CHL1   H7A 6224   0.961   5.122   3.774  1.2233 -0.9396 -0.1068
   69CHL1   H7B 6225   0.866   4.966   3.778 -1.8287  2.3804  0.5774
   69CHL1    C8 6226   1.084   4.952   3.770  0.0391  0.4960 -0.2967
   69CHL1    H8 6227   1.160   5.032   3.756 -0.4769  1.5937  2.3515
   69CHL1   C14 6228   1.075   4.916   3.912 -0.5135  0.4003  0.0146
   69CHL1   H14 6229   0.991   4.844   3.920 -0.9822  0.8998 -0.3720
   69CHL1   C15 6230   1.046   5.034   4.002 -0.1360  0.1909 -0.0990
   69CHL1  H15A 6231   1.110   5.115   3.959 -0.6399  0.9798  0.6139
   69CHL1  H15B 6232   0.940   5.067   4.003 -0.8949 -2.1288  0.5200
   69CHL1   C16 6233   1.087   4.980   4.134 -0.3164 -0.4590 -0.3044
   69CHL1  H16A 6234   1.151   5.059   4.178 -1.9165  0.7923 -0.1219
   69CHL1  H16B 6235   1.003   4.949   4.200 -0.9598  0.0758 -0.8559
   69CHL1   C17 6236   1.176   4.852   4.113  0.1151 -0.4242  0.2660
   69CHL1   H17 6237   1.106   4.767   4.127 -1.3262  0.7341  0.3245
   69CHL1   C13 6238   1.206   4.853   3.963 -0.2978 -0.0327  0.0739
   69CHL1   C18 6239   1.334   4.952   3.948 -0.2245 -0.3453  0.0477
   69CHL1  H18A 6240   1.327   5.044   4.009 -0.7582 -0.8662  0.7848
   69CHL1  H18B 6241   1.423   4.902   3.991  0.6495  2.7922  2.2653
   69CHL1  H18C 6242   1.355   4.989   3.845 -0.3651  0.6370  0.3627
   69CHL1   C12 6243   1.223   4.721   3.883 -0.2885 -0.1126 -0.1165
   69CHL1  H12A 6244   1.317   4.677   3.924 -0.3088  1.6522  2.0633
   69CHL1  H12B 6245   1.127   4.674   3.912 -1.6975  2.1858 -0.7885
   69CHL1   C11 6246   1.235   4.763   3.734 -0.2633 -0.2551 -0.1520
   69CHL1  H11A 6247   1.332   4.814   3.718 -0.3685  0.8027  2.1918
   69CHL1  H11B 6248   1.245   4.665   3.682  1.7353  0.5350 -1.3672
   69CHL1    C9 6249   1.117   4.836   3.675  0.0028 -0.4239 -0.3165
   69CHL1    H9 6250   1.025   4.773   3.673 -1.7901  1.9498  1.2046
   69CHL1   C10 6251   1.134   4.879   3.529  0.0025  0.5868  0.9103
   69CHL1   C19 6252   1.267   4.958   3.512  0.5884 -0.0938 -0.7955
   69CHL1  H19A 6253   1.276   5.047   3.578 -0.5427 -1.7429  1.7322
   69CHL1  H19B 6254   1.356   4.895   3.529  1.7992  1.0017 -2.7101
   69CHL1  H19C 6255   1.266   4.999   3.408 -0.4004  1.9803 -0.0348
   69CHL1    C1 6256   1.135   4.747   3.439 -0.4020  1.1372 -0.0260
   69CHL1   H1A 6257   1.235   4.703   3.460 -1.0437  0.0941  0.9906
   69CHL1   H1B 6258   1.051   4.689   3.484  0.3049 -0.6827 -0.9560
   69CHL1    C2 6259   1.093   4.772   3.295 -0.3632 -0.4212 -0.3450
   69CHL1   H2A 6260   1.077   4.679   3.237 -2.2014 -1.3582  1.5265
   69CHL1   H2B 6261   1.165   4.838   3.243 -0.9049 -0.8356 -1.6495
   69CHL1   C20 6262   1.287   4.833   4.219 -0.2438 -0.6380 -0.0888
   69CHL1   H20 6263   1.365   4.911   4.209  0.5490 -1.1011  1.9059
   69CHL1   C21 6264   1.362   4.695   4.195  0.9110 -0.0085  0.3225
   69CHL1  H21A 6265   1.407   4.705   4.095  1.5336 -2.5122  0.2857
   69CHL1  H21B 6266   1.297   4.605   4.196  2.3089 -1.0823 -1.0203
   69CHL1  H21C 6267   1.446   4.693   4.268  2.1349  1.7639 -0.9445
   69CHL1   C22 6268   1.241   4.861   4.367 -0.0857  0.5213 -0.1017
   69CHL1  H22A 6269   1.185   4.957   4.377 -0.3916  0.4483 -1.0410
   69CHL1  H22B 6270   1.171   4.780   4.396 -2.3052  2.3156 -0.1109
   69CHL1   C23 6271   1.360   4.858   4.464  0.0528 -0.1959 -0.0107
   69CHL1  H23A 6272   1.404   4.757   4.455  1.0416  0.2344 -0.1440
   69CHL1  H23B 6273   1.447   4.923   4.438 -0.7786  0.7107 -0.6218
   69CHL1   C24 6274   1.314   4.870   4.616 -0.0122  0.2429  0.3804
   69CHL1  H24A 6275   1.274   4.973   4.631  1.2786  0.7225  0.5836
   69CHL1  H24B 6276   1.231   4.799   4.636 -0.6877  0.9114 -0.0014
   69CHL1   C25 6277   1.428   4.853   4.721 -0.1862  0.0046  0.2323
   69CHL1   H25 6278   1.515   4.920   4.698  0.1006 -0.5884 -0.4712
   69CHL1   C26 6279   1.384   4.882   4.861  0.1955 -0.4372  0.0808
   69CHL1  H26A 6280   1.309   4.807   4.893  2.8473 -1.6736  4.2965
   69CHL1  H26B 6281   1.460   4.870   4.942 -1.4927 -1.5143  1.5807
   69CHL1  H26C 6282   1.346   4.986   4.867  2.4614  0.6893 -2.6528
   69CHL1   C27 6283   1.478   4.711   4.710 -0.3298  0.0982  0.0500
   69CHL1  H27A 6284   1.557   4.695   4.786  0.5612 -1.7416 -1.1817
   69CHL1  H27B 6285   1.411   4.623   4.724  2.5065 -2.1030  0.6496
   69CHL1  H27C 6286   1.536   4.685   4.619 -0.3607  0.1229  0.0232
   70CHL1    C3 6287   0.809   0.287   3.216  0.8777  0.3272  0.8040
   70CHL1    H3 6288   0.857   0.192   3.184  0.4562  0.0808  0.9043
   70CHL1    O3 6289   0.743   0.351   3.103  0.0416 -0.7124 -0.0683
   70CHL1   H3' 6290   0.697   0.426   3.143 -3.1159 -1.0867 -2.6114
   70CHL1    C4 6291   0.701   0.257   3.324 -0.1514 -0.1736  1.0550
   70CHL1   H4A 6292   0.659   0.357   3.346  0.2884  0.2456  0.0537
   70CHL1   H4B 6293   0.622   0.202   3.267 -1.2985  1.2973  1.1695
   70CHL1    C5 6294   0.756   0.200   3.454  0.1166  0.6073  0.8389
   70CHL1    C6 6295   0.695   0.088   3.506 -0.1267  0.5521  0.5092
   70CHL1    H6 6296   0.610   0.039   3.456  1.0077 -0.8011 -0.1577
   70CHL1    C7 6297   0.738   0.023   3.630  0.7481 -0.6398 -0.1964
   70CHL1   H7A 6298   0.645  -0.007   3.683  0.1988  1.5303  0.1543
   70CHL1   H7B 6299   0.810  -0.056   3.601  1.3306  0.5648 -2.2537
   70CHL1    C8 6300   0.804   0.130   3.715 -1.0652  0.6949  0.2266
   70CHL1    H8 6301   0.738   0.217   3.734 -2.9499 -0.2723 -1.4375
   70CHL1   C14 6302   0.859   0.063   3.841  0.1853  0.4580 -1.1722
   70CHL1   H14 6303   0.920  -0.025   3.809 -2.0178 -1.0597 -1.4455
   70CHL1   C15 6304   0.752  -0.000   3.940  0.4582  0.2804 -0.0017
   70CHL1  H15A 6305   0.661   0.062   3.924 -0.8595 -1.8280 -1.2699
   70CHL1  H15B 6306   0.732  -0.103   3.902  0.4203 -0.0857  0.9774
   70CHL1   C16 6307   0.811  -0.007   4.078  0.0985  0.2714  0.3525
   70CHL1  H16A 6308   0.751   0.055   4.148 -1.4736 -0.0323 -0.6802
   70CHL1  H16B 6309   0.819  -0.113   4.111  0.6426  0.0335 -0.5118
   70CHL1   C17 6310   0.961   0.059   4.058  1.1290  0.7644 -0.0016
   70CHL1   H17 6311   1.029  -0.021   4.022 -0.4327  0.1811 -1.8439
   70CHL1   C13 6312   0.945   0.150   3.934 -0.4978 -0.7710 -0.7783
   70CHL1   C18 6313   0.871   0.285   3.964  0.1187  0.2899  0.1790
   70CHL1  H18A 6314   0.776   0.268   4.019  0.5521 -1.4084  0.4451
   70CHL1  H18B 6315   0.928   0.352   4.033 -1.1054  0.2935  1.2179
   70CHL1  H18C 6316   0.843   0.349   3.878  0.2053  2.7158  1.8267
   70CHL1   C12 6317   1.071   0.187   3.844  0.2864  0.3870 -0.2435
   70CHL1  H12A 6318   1.151   0.244   3.897  0.3234  1.2454 -1.2041
   70CHL1  H12B 6319   1.117   0.087   3.826 -1.7016 -0.5731 -0.2980
   70CHL1   C11 6320   1.033   0.258   3.717 -0.3493 -0.6109  0.0750
   70CHL1  H11A 6321   0.988   0.355   3.746  1.0531  0.1428 -0.1754
   70CHL1  H11B 6322   1.130   0.276   3.666  0.7610 -2.9813  1.2143
   70CHL1    C9 6323   0.922   0.187   3.637  0.6790 -0.4401  0.0233
   70CHL1    H9 6324   0.976   0.099   3.597  1.4142  0.4587 -0.9923
   70CHL1   C10 6325   0.877   0.270   3.512  0.5229  0.4668 -0.3021
   70CHL1   C19 6326   0.831   0.402   3.557  0.1997 -0.3961 -0.1368
   70CHL1  H19A 6327   0.800   0.473   3.477 -0.3340 -0.4035  0.0572
   70CHL1  H19B 6328   0.754   0.408   3.638 -0.9412  2.7543 -1.3035
   70CHL1  H19C 6329   0.908   0.464   3.608 -1.1972  0.6967  0.7415
   70CHL1    C1 6330   0.981   0.303   3.403 -0.4455  0.1170  0.0554
   70CHL1   H1A 6331   1.067   0.358   3.447  0.3691  0.3000 -1.6854
   70CHL1   H1B 6332   1.018   0.202   3.374 -0.7229  0.2718 -0.8815
   70CHL1    C2 6333   0.923   0.369   3.271 -0.2769 -0.1704  0.2460
   70CHL1   H2A 6334   0.996   0.367   3.187 -0.7972 -0.6538 -0.2003
   70CHL1   H2B 6335   0.880   0.467   3.298  1.9064  0.7241  0.7044
   70CHL1   C20 6336   1.005   0.122   4.186 -0.2523  0.4999  0.2359
   70CHL1   H20 6337   0.943   0.212   4.209  1.6054  1.8776  0.1213
   70CHL1   C21 6338   1.151   0.184   4.175 -0.2464 -0.2448  0.0195
   70CHL1  H21A 6339   1.142   0.280   4.119 -2.2538 -1.3998 -1.8138
   70CHL1  H21B 6340   1.215   0.113   4.118 -0.2634  1.4238 -2.2620
   70CHL1  H21C 6341   1.198   0.208   4.273 -2.4411 -0.5120  1.2020
   70CHL1   C22 6342   1.010   0.027   4.312  0.0208  0.1879  0.1296
   70CHL1  H22A 6343   0.920  -0.038   4.310 -0.8101  1.3062  0.3457
   70CHL1  H22B 6344   1.103  -0.032   4.299 -0.1515  0.3681 -2.6198
   70CHL1   C23 6345   1.012   0.102   4.445 -0.1422  0.0038  0.1946
   70CHL1  H23A 6346   1.033   0.027   4.525  0.9428 -1.0285 -1.0222
   70CHL1  H23B 6347   1.081   0.189   4.455 -0.2982 -0.0641  2.3362
   70CHL1   C24 6348   0.874   0.172   4.467  0.0587  0.5956  0.8406
   70CHL1  H24A 6349   0.844   0.223   4.373 -1.1627  2.8792  2.3750
   70CHL1  H24B 6350   0.801   0.096   4.502 -0.5090  1.6779  2.0885
   70CHL1   C25 6351   0.871   0.280   4.573  0.0209 -0.9493 -0.1122
   70CHL1   H25 6352   0.948   0.355   4.544 -1.4338  1.2112  1.2846
   70CHL1   C26 6353   0.735   0.345   4.579  0.1244  0.4536  0.1131
   70CHL1  H26A 6354   0.651   0.279   4.611  1.2607  0.3316  3.1755
   70CHL1  H26B 6355   0.748   0.425   4.656  3.8816 -1.3029  1.5202
   70CHL1  H26C 6356   0.704   0.384   4.479  2.3154  0.7653 -0.4883
   70CHL1   C27 6357   0.900   0.226   4.705  0.1753 -0.0896  0.0442
   70CHL1  H27A 6358   0.830   0.141   4.720  0.1926 -0.0805  0.1830
   70CHL1  H27B 6359   1.004   0.187   4.709 -0.0068 -0.9341 -2.1536
   70CHL1  H27C 6360   0.882   0.308   4.778  0.5652  1.2773 -1.3514
   71CHL1    C3 6361   0.363   0.748   3.468  0.1128 -0.4251 -0.7633
   71CHL1    H3 6362   0.356   0.859   3.476 -0.9469 -0.5682  0.7794
   71CHL1    O3 6363   0.323   0.727   3.337 -0.0455  0.6139  0.2966
   71CHL1   H3' 6364   0.305   0.632   3.341 -3.1673  1.1265  2.3106
   71CHL1    C4 6365   0.499   0.684   3.498 -0.0420 -0.7580  0.1373
   71CHL1   H4A 6366   0.495   0.573   3.496  0.3236 -0.7838  0.7733
   71CHL1   H4B 6367   0.577   0.714   3.425  0.1623  0.1475  0.7178
   71CHL1    C5 6368   0.538   0.724   3.640  0.7191 -0.7069  0.7008
   71CHL1    C6 6369   0.645   0.802   3.663  0.2440  0.7056  0.7928
   71CHL1    H6 6370   0.720   0.834   3.590 -1.6914 -0.7550 -1.9938
   71CHL1    C7 6371   0.687   0.827   3.799 -0.3541 -0.1263 -0.8780
   71CHL1   H7A 6372   0.797   0.812   3.806 -0.5118 -1.1568 -0.5500
   71CHL1   H7B 6373   0.652   0.928   3.829 -1.5105 -0.5002 -0.9053
   71CHL1    C8 6374   0.620   0.736   3.906  0.1594 -0.3793  0.2038
   71CHL1    H8 6375   0.667   0.635   3.902  1.5852  0.3054 -1.6390
   71CHL1   C14 6376   0.646   0.788   4.043 -0.2642 -0.0518  0.4067
   71CHL1   H14 6377   0.594   0.887   4.049 -0.7454 -0.3772  2.2816
   71CHL1   C15 6378   0.800   0.808   4.077 -0.3773  0.1061  0.7835
   71CHL1  H15A 6379   0.855   0.724   4.030 -0.1681  1.5094 -1.6743
   71CHL1  H15B 6380   0.835   0.907   4.041  0.8873 -0.0040  1.6575
   71CHL1   C16 6381   0.808   0.802   4.232  0.6719  0.2582  0.0445
   71CHL1  H16A 6382   0.835   0.698   4.262 -4.3876 -1.5957 -0.9157
   71CHL1  H16B 6383   0.871   0.875   4.288  2.0155 -0.3739 -0.5869
   71CHL1   C17 6384   0.660   0.797   4.276 -0.4606 -0.2905  0.2813
   71CHL1   H17 6385   0.621   0.901   4.280 -0.5771 -0.3243 -0.0075
   71CHL1   C13 6386   0.590   0.720   4.160 -0.0621 -0.3521  0.5779
   71CHL1   C18 6387   0.630   0.571   4.171 -0.5248  0.1001  0.1688
   71CHL1  H18A 6388   0.634   0.517   4.074  1.9708  0.0737  0.2112
   71CHL1  H18B 6389   0.734   0.549   4.203 -0.3024 -1.3836 -1.4092
   71CHL1  H18C 6390   0.558   0.516   4.236 -0.2318 -0.3662  0.1003
   71CHL1   C12 6391   0.435   0.740   4.135  0.1453 -0.1316 -0.5250
   71CHL1  H12A 6392   0.373   0.700   4.218 -1.9932  1.6051 -1.1650
   71CHL1  H12B 6393   0.406   0.847   4.126 -0.0423  0.0234  1.5162
   71CHL1   C11 6394   0.385   0.681   3.998 -0.4561 -0.0632 -0.3280
   71CHL1  H11A 6395   0.402   0.572   3.994  0.5554  0.0907 -0.6181
   71CHL1  H11B 6396   0.278   0.711   3.993 -0.6373 -0.6375  0.0773
   71CHL1    C9 6397   0.473   0.732   3.878 -0.2513  0.6134 -0.3679
   71CHL1    H9 6398   0.447   0.840   3.880  0.0195  0.6663  1.1058
   71CHL1   C10 6399   0.440   0.673   3.741 -0.2014 -0.5841  0.3194
   71CHL1   C19 6400   0.463   0.519   3.755 -0.0327 -0.6015 -0.9667
   71CHL1  H19A 6401   0.562   0.514   3.805  0.2834  2.6176 -1.0478
   71CHL1  H19B 6402   0.393   0.473   3.828  2.9471 -0.9229  1.9289
   71CHL1  H19C 6403   0.467   0.462   3.660  0.5460 -1.0885 -0.6577
   71CHL1    C1 6404   0.298   0.703   3.703  0.2031  0.0020  0.2655
   71CHL1   H1A 6405   0.238   0.640   3.773 -1.2579  0.1638 -0.8045
   71CHL1   H1B 6406   0.282   0.810   3.730 -0.8907 -0.1406  0.2370
   71CHL1    C2 6407   0.259   0.688   3.557  0.1189 -0.3866 -0.0591
   71CHL1   H2A 6408   0.161   0.736   3.534  0.3750 -0.7982 -2.1951
   71CHL1   H2B 6409   0.263   0.581   3.529  1.0092  0.1200 -2.0664
   71CHL1   C20 6410   0.643   0.740   4.419 -0.4013  0.4016  0.1495
   71CHL1   H20 6411   0.674   0.633   4.418 -2.2670 -0.2219  2.3247
   71CHL1   C21 6412   0.495   0.738   4.452 -0.1546 -0.1320  0.6404
   71CHL1  H21A 6413   0.446   0.652   4.402  1.2577  0.4134 -1.8362
   71CHL1  H21B 6414   0.455   0.834   4.414  2.4131  0.4827 -0.7429
   71CHL1  H21C 6415   0.460   0.726   4.556 -1.3424 -0.8064  0.1751
   71CHL1   C22 6416   0.717   0.832   4.523  0.5645  0.6742  0.1531
   71CHL1  H22A 6417   0.822   0.828   4.489  1.1977  0.9136  1.9581
   71CHL1  H22B 6418   0.663   0.928   4.510 -4.3514 -2.1153 -3.9007
   71CHL1   C23 6419   0.720   0.771   4.667  0.6291 -0.3297  0.1784
   71CHL1  H23A 6420   0.622   0.783   4.717  0.0299  1.1322 -1.2610
   71CHL1  H23B 6421   0.756   0.666   4.667  0.6195 -0.3385  1.2617
   71CHL1   C24 6422   0.821   0.845   4.755 -0.3608 -0.1319 -0.5847
   71CHL1  H24A 6423   0.920   0.838   4.705  0.6515  0.2901  1.2799
   71CHL1  H24B 6424   0.797   0.954   4.757 -0.3153 -0.1272 -0.3154
   71CHL1   C25 6425   0.823   0.810   4.906  0.6135  0.1212 -0.0394
   71CHL1   H25 6426   0.715   0.797   4.930  1.1046 -2.1730  1.1995
   71CHL1   C26 6427   0.884   0.669   4.934 -0.1047 -0.4792 -0.3427
   71CHL1  H26A 6428   0.861   0.632   5.036  1.9015  0.7526  0.6272
   71CHL1  H26B 6429   0.874   0.596   4.851  1.8320  1.2423 -2.2476
   71CHL1  H26C 6430   0.994   0.683   4.937  0.1306 -1.8077 -1.5250
   71CHL1   C27 6431   0.885   0.919   4.995  0.7690  0.0197  0.5896
   71CHL1  H27A 6432   0.995   0.929   4.980  0.4605  2.0020 -0.6940
   71CHL1  H27B 6433   0.837   1.018   4.985  1.7781  0.4369 -0.3960
   71CHL1  H27C 6434   0.859   0.880   5.096  0.8603 -0.6954  0.3397
   72CHL1    C3 6435   6.377   6.009   3.640  0.3967 -0.4130  0.4933
   72CHL1    H3 6436   6.428   6.099   3.600 -0.9691 -0.3063 -1.1097
   72CHL1    O3 6437   6.309   5.944   3.536 -0.4996  0.0739  0.9195
   72CHL1   H3' 6438   6.371   5.889   3.487 -0.5382  0.5381  0.3402
   72CHL1    C4 6439   6.483   5.920   3.708 -0.2490 -0.2758  0.2941
   72CHL1   H4A 6440   6.436   5.830   3.753  1.0024  0.0938  2.5288
   72CHL1   H4B 6441   6.560   5.890   3.635 -1.3981 -1.5652 -0.4277
   72CHL1    C5 6442   6.550   5.992   3.827 -0.5411  0.3211 -0.4916
   72CHL1    C6 6443   6.685   6.009   3.836  0.3547 -0.3159 -0.5376
   72CHL1    H6 6444   6.748   5.977   3.752  0.2999  0.4175 -0.8619
   72CHL1    C7 6445   6.746   6.067   3.955  0.4895 -0.5032 -0.4219
   72CHL1   H7A 6446   6.833   6.006   3.988  0.8022 -0.3649 -0.9782
   72CHL1   H7B 6447   6.795   6.157   3.913  3.2905 -2.1657 -1.0250
   72CHL1    C8 6448   6.660   6.095   4.076  0.3224  0.1203 -0.0386
   72CHL1    H8 6449   6.658   5.999   4.133  1.7608  0.4062  0.5316
   72CHL1   C14 6450   6.708   6.199   4.168  0.0527 -0.0236 -1.3253
   72CHL1   H14 6451   6.687   6.294   4.115 -0.1015  0.4020 -0.5150
   72CHL1   C15 6452   6.860   6.207   4.179 -0.5119 -0.0058  0.1655
   72CHL1  H15A 6453   6.913   6.109   4.192 -1.0686 -0.3468 -0.1072
   72CHL1  H15B 6454   6.910   6.253   4.092  0.4885  1.7844  1.6238
   72CHL1   C16 6455   6.884   6.282   4.313  0.0979  0.3020 -0.3349
   72CHL1  H16A 6456   6.933   6.211   4.383 -1.2689  0.4484  0.7991
   72CHL1  H16B 6457   6.937   6.379   4.300 -0.2254  0.7584  1.5235
   72CHL1   C17 6458   6.740   6.315   4.373  0.2422 -0.0769  0.1986
   72CHL1   H17 6459   6.705   6.412   4.332 -1.0759 -0.1753  1.0230
   72CHL1   C13 6460   6.637   6.216   4.301  0.2341  0.2275 -1.1105
   72CHL1   C18 6461   6.645   6.078   4.383  0.1332  0.0531 -0.2161
   72CHL1  H18A 6462   6.588   6.007   4.319 -1.2838  0.9101  0.0494
   72CHL1  H18B 6463   6.750   6.042   4.384  0.1257  0.0081 -0.6447
   72CHL1  H18C 6464   6.588   6.078   4.478 -0.5243  0.5948 -0.5979
   72CHL1   C12 6465   6.497   6.260   4.272 -0.3709  0.3453  0.1523
   72CHL1  H12A 6466   6.436   6.273   4.364 -2.7146 -0.0590 -1.2682
   72CHL1  H12B 6467   6.494   6.358   4.220  1.5172  0.5118  0.2853
   72CHL1   C11 6468   6.429   6.163   4.168 -0.4783 -0.3900 -0.6096
   72CHL1  H11A 6469   6.426   6.066   4.222 -0.1645 -0.3884 -0.5916
   72CHL1  H11B 6470   6.324   6.184   4.139 -1.4983 -0.9051  2.2653
   72CHL1    C9 6471   6.520   6.141   4.045  0.0118  0.3197  0.9653
   72CHL1    H9 6472   6.528   6.239   3.994  1.6607 -1.0173 -1.5619
   72CHL1   C10 6473   6.449   6.042   3.936 -0.5162 -0.3117  0.4614
   72CHL1   C19 6474   6.401   5.921   4.018  0.5382  0.0801  0.0899
   72CHL1  H19A 6475   6.404   5.828   3.957  0.6697 -0.0287  0.2623
   72CHL1  H19B 6476   6.469   5.895   4.101 -0.1732 -0.0588  0.6443
   72CHL1  H19C 6477   6.301   5.947   4.059  0.0017  1.0012 -1.6544
   72CHL1    C1 6478   6.335   6.116   3.857  0.8163  0.3575  0.5321
   72CHL1   H1A 6479   6.258   6.129   3.936 -0.1923  2.3841 -0.7273
   72CHL1   H1B 6480   6.368   6.214   3.818 -0.7145  1.0491  0.9063
   72CHL1    C2 6481   6.269   6.043   3.745 -0.0581 -0.3089 -0.0220
   72CHL1   H2A 6482   6.186   6.108   3.712  1.4986  1.3556 -0.8313
   72CHL1   H2B 6483   6.216   5.954   3.787  0.2520 -0.3477  0.2964
   72CHL1   C20 6484   6.733   6.337   4.523 -0.0742 -0.3509  0.6835
   72CHL1   H20 6485   6.770   6.242   4.568  2.7492  0.5746  0.5597
   72CHL1   C21 6486   6.595   6.378   4.570 -0.7656 -0.2417  0.4491
   72CHL1  H21A 6487   6.550   6.471   4.531 -1.1221  0.6396  2.7768
   72CHL1  H21B 6488   6.607   6.387   4.680  2.1309  0.5062  0.1565
   72CHL1  H21C 6489   6.524   6.295   4.553  0.6879 -1.5766  0.6899
   72CHL1   C22 6490   6.846   6.440   4.562  0.4642 -0.1651 -0.2706
   72CHL1  H22A 6491   6.947   6.398   4.543 -0.0444 -0.4431 -2.7338
   72CHL1  H22B 6492   6.833   6.542   4.519  0.5380  1.8825  4.0102
   72CHL1   C23 6493   6.842   6.476   4.716  0.1369 -0.5402 -0.1500
   72CHL1  H23A 6494   6.746   6.526   4.744 -0.4506 -1.2432 -0.8493
   72CHL1  H23B 6495   6.853   6.378   4.767  2.8186 -0.5874 -0.6868
   72CHL1   C24 6496   6.960   6.568   4.757 -0.2800  0.0851 -0.1729
   72CHL1  H24A 6497   6.944   6.585   4.866 -3.4777 -1.2410 -0.3039
   72CHL1  H24B 6498   7.047   6.501   4.740 -0.0602  0.1697  0.5838
   72CHL1   C25 6499   6.984   6.710   4.698  0.0907  0.7231 -0.0995
   72CHL1   H25 6500   7.005   6.698   4.589 -1.3118  1.1831 -0.4342
   72CHL1   C26 6501   6.868   6.811   4.706  0.2658  0.0276  0.5281
   72CHL1  H26A 6502   6.849   6.845   4.810 -1.0277 -0.0078  0.3217
   72CHL1  H26B 6503   6.900   6.897   4.644 -0.8044 -0.7692 -1.2241
   72CHL1  H26C 6504   6.776   6.777   4.655 -0.1820 -1.0985  2.0104
   72CHL1   C27 6505   7.103   6.777   4.768 -0.4554 -0.3878  0.0200
   72CHL1  H27A 6506   7.147   6.859   4.707 -1.0502  0.9496  1.3313
   72CHL1  H27B 6507   7.095   6.794   4.877 -1.4556  1.0214 -0.2395
   72CHL1  H27C 6508   7.188   6.706   4.765  0.8556  1.0071  1.9456
   73CHL1    C3 6509   0.322   6.405   3.623  0.1683  0.1764  0.3116
   73CHL1    H3 6510   0.425   6.366   3.605  0.4980  1.5271 -0.9257
   73CHL1    O3 6511   0.253   6.395   3.497  0.2342  0.4126  0.1987
   73CHL1   H3' 6512   0.198   6.472   3.482 -0.9641 -0.6301 -1.0813
   73CHL1    C4 6513   0.265   6.322   3.732  0.5717 -0.3041 -0.0012
   73CHL1   H4A 6514   0.160   6.356   3.740  0.5969 -0.3672  0.6347
   73CHL1   H4B 6515   0.257   6.213   3.709  2.1668 -0.8091  1.5365
   73CHL1    C5 6516   0.327   6.339   3.865 -0.9143 -0.1588 -0.1354
   73CHL1    C6 6517   0.390   6.242   3.930 -0.4092 -1.0289 -0.0907
   73CHL1    H6 6518   0.400   6.140   3.892 -0.3694 -1.2588  0.5179
   73CHL1    C7 6519   0.446   6.255   4.073  0.8481 -0.5679 -0.2120
   73CHL1   H7A 6520   0.409   6.170   4.136 -0.4291  1.3943  1.8357
   73CHL1   H7B 6521   0.555   6.246   4.059  1.0981 -0.7359  1.5355
   73CHL1    C8 6522   0.421   6.386   4.150 -1.1352  0.3459  1.1578
   73CHL1    H8 6523   0.312   6.390   4.170 -1.7522 -0.8493 -1.5087
   73CHL1   C14 6524   0.505   6.409   4.268 -0.1293 -0.2321 -1.1862
   73CHL1   H14 6525   0.610   6.412   4.234  0.2515 -3.3202 -0.4915
   73CHL1   C15 6526   0.504   6.309   4.380 -0.4585 -0.1776  0.5191
   73CHL1  H15A 6527   0.403   6.281   4.417 -0.8752 -0.1907 -0.6093
   73CHL1  H15B 6528   0.566   6.219   4.366  0.6499  0.9593 -2.7045
   73CHL1   C16 6529   0.567   6.386   4.501  0.4378  0.0062  0.6291
   73CHL1  H16A 6530   0.503   6.382   4.591  1.4799  1.3277  1.4755
   73CHL1  H16B 6531   0.662   6.345   4.539 -0.5306 -0.1587  3.0334
   73CHL1   C17 6532   0.577   6.537   4.456 -0.1829  0.0972  0.1531
   73CHL1   H17 6533   0.677   6.551   4.409 -0.6946 -1.6444 -1.6115
   73CHL1   C13 6534   0.477   6.548   4.333  0.5259 -0.2337 -0.8642
   73CHL1   C18 6535   0.328   6.553   4.390 -0.3896  0.5641  0.0222
   73CHL1  H18A 6536   0.324   6.486   4.478  0.1477  0.6355  0.1056
   73CHL1  H18B 6537   0.298   6.653   4.428  1.2735  0.9799  0.3295
   73CHL1  H18C 6538   0.254   6.523   4.313  1.5005  0.6480 -1.9319
   73CHL1   C12 6539   0.517   6.657   4.233  0.2385 -0.1443 -0.1646
   73CHL1  H12A 6540   0.484   6.754   4.276  0.6752 -1.0002  2.2231
   73CHL1  H12B 6541   0.626   6.641   4.218  0.2668  0.5502 -0.7079
   73CHL1   C11 6542   0.428   6.644   4.103 -0.3601  0.7496 -0.3053
   73CHL1  H11A 6543   0.325   6.674   4.132 -0.8263 -0.2405 -0.8989
   73CHL1  H11B 6544   0.458   6.718   4.026 -1.7625  1.0663 -0.5683
   73CHL1    C9 6545   0.428   6.500   4.045 -0.2134  0.8105  0.1831
   73CHL1    H9 6546   0.530   6.502   4.000 -0.1737  1.8238  0.3033
   73CHL1   C10 6547   0.332   6.477   3.918 -0.4034  0.1694 -0.5247
   73CHL1   C19 6548   0.186   6.522   3.957 -0.8111 -0.0649  0.5602
   73CHL1  H19A 6549   0.149   6.458   4.040 -1.9572 -0.0983  0.0352
   73CHL1  H19B 6550   0.181   6.628   3.991  1.1026 -0.5330  2.5154
   73CHL1  H19C 6551   0.113   6.520   3.873 -1.6216  0.1713  1.2499
   73CHL1    C1 6552   0.387   6.574   3.811  0.5647 -0.0315  0.9763
   73CHL1   H1A 6553   0.372   6.683   3.828 -0.6581  0.4041 -2.2348
   73CHL1   H1B 6554   0.493   6.545   3.797  0.3430  0.2501 -1.7960
   73CHL1    C2 6555   0.321   6.550   3.671 -0.4501  1.0807 -0.6731
   73CHL1   H2A 6556   0.341   6.622   3.588  0.7736  0.0925 -1.2701
   73CHL1   H2B 6557   0.213   6.572   3.687 -0.4890  0.1153  0.5614
   73CHL1   C20 6558   0.573   6.631   4.577 -0.4415  0.1392  0.3033
   73CHL1   H20 6559   0.486   6.606   4.641 -0.9257 -0.2485 -0.4999
   73CHL1   C21 6560   0.561   6.776   4.531  0.0618  0.0668 -0.2551
   73CHL1  H21A 6561   0.599   6.845   4.610 -0.8341 -0.3493  0.5595
   73CHL1  H21B 6562   0.455   6.795   4.501  0.3349  3.2467  0.4769
   73CHL1  H21C 6563   0.623   6.795   4.441 -0.0230  2.6499  0.1578
   73CHL1   C22 6564   0.707   6.620   4.666  0.7129 -0.0429 -0.1234
   73CHL1  H22A 6565   0.734   6.513   4.677  3.5701  0.9015  5.1310
   73CHL1  H22B 6566   0.789   6.659   4.601 -1.5805 -1.4597 -4.2993
   73CHL1   C23 6567   0.705   6.684   4.807 -0.0645  0.3515 -0.7622
   73CHL1  H23A 6568   0.709   6.794   4.796 -1.6795  0.3074 -1.9416
   73CHL1  H23B 6569   0.609   6.655   4.855  0.7806 -1.1008  0.1630
   73CHL1   C24 6570   0.821   6.638   4.893  0.4375  0.0403 -0.0401
   73CHL1  H24A 6571   0.788   6.536   4.922 -1.3325 -0.1046 -2.2373
   73CHL1  H24B 6572   0.913   6.620   4.834  0.6478 -0.5859  0.4715
   73CHL1   C25 6573   0.860   6.716   5.014  0.2127  0.4918  1.1166
   73CHL1   H25 6574   0.883   6.819   4.980  1.8972  0.1334  1.0875
   73CHL1   C26 6575   0.745   6.721   5.114 -0.3768 -0.1759  0.4283
   73CHL1  H26A 6576   0.736   6.616   5.151 -0.1297 -1.2558 -2.3467
   73CHL1  H26B 6577   0.772   6.790   5.197 -1.2057 -0.0462  0.5993
   73CHL1  H26C 6578   0.646   6.755   5.079 -0.4542 -0.4981  0.3355
   73CHL1   C27 6579   0.983   6.656   5.087  0.3129  0.4342  0.1747
   73CHL1  H27A 6580   1.010   6.715   5.177  2.2505 -0.5197  0.2602
   73CHL1  H27B 6581   0.973   6.552   5.123 -0.1879  0.9898  1.7226
   73CHL1  H27C 6582   1.072   6.669   5.021 -2.1625 -0.0480 -3.5704
   74CHL1    C3 6583   0.236   0.265   3.550 -0.2142  0.0891  0.4995
   74CHL1    H3 6584   0.303   0.354   3.554  2.2991 -1.6056 -1.3322
   74CHL1    O3 6585   0.218   0.220   3.413 -0.3582  0.5007  0.0679
   74CHL1   H3' 6586   0.136   0.172   3.414 -0.1628  0.1702  0.3600
   74CHL1    C4 6587   0.308   0.147   3.621 -0.6703  0.3377 -0.0073
   74CHL1   H4A 6588   0.240   0.065   3.590  0.3113  0.6609 -3.4660
   74CHL1   H4B 6589   0.409   0.137   3.575  0.0620  0.8342  1.4523
   74CHL1    C5 6590   0.313   0.172   3.765  0.0915  0.1562 -0.5961
   74CHL1    C6 6591   0.427   0.172   3.826 -0.4546 -0.2957 -1.1239
   74CHL1    H6 6592   0.513   0.137   3.767  1.0355  1.8339 -0.3456
   74CHL1    C7 6593   0.434   0.190   3.976 -0.1691 -0.5210 -0.2297
   74CHL1   H7A 6594   0.487   0.104   4.022 -0.5197 -0.3533  0.5021
   74CHL1   H7B 6595   0.486   0.287   3.996  0.6995 -0.7720 -1.1674
   74CHL1    C8 6596   0.302   0.191   4.063  0.1602 -0.2681  0.6761
   74CHL1    H8 6597   0.268   0.087   4.080 -1.3759 -0.4532 -2.7246
   74CHL1   C14 6598   0.319   0.263   4.196 -0.4510 -0.0086  0.5077
   74CHL1   H14 6599   0.336   0.367   4.160 -0.3718  0.1173  0.9035
   74CHL1   C15 6600   0.440   0.235   4.285  0.1024  0.2796  0.2156
   74CHL1  H15A 6601   0.440   0.125   4.297  2.1434  0.4226  2.1918
   74CHL1  H15B 6602   0.540   0.256   4.240 -0.3493 -1.2023 -1.6127
   74CHL1   C16 6603   0.405   0.307   4.415  0.3756 -0.4857 -0.2450
   74CHL1  H16A 6604   0.414   0.240   4.503 -1.7750 -0.9900 -0.3596
   74CHL1  H16B 6605   0.464   0.398   4.439 -1.8795  0.9549  0.1356
   74CHL1   C17 6606   0.251   0.342   4.396  0.0277  0.4015 -0.7761
   74CHL1   H17 6607   0.254   0.449   4.364  2.1054  0.3056 -1.0504
   74CHL1   C13 6608   0.197   0.264   4.279  0.3274 -0.5228 -0.0455
   74CHL1   C18 6609   0.168   0.119   4.331 -0.6380  0.1352 -0.4427
   74CHL1  H18A 6610   0.235   0.095   4.417  0.6126  1.4094 -1.0106
   74CHL1  H18B 6611   0.063   0.128   4.365 -1.1336 -0.4598 -1.7651
   74CHL1  H18C 6612   0.165   0.044   4.250 -2.3372  1.0799 -1.3154
   74CHL1   C12 6613   0.077   0.326   4.202  0.1302  0.4739  0.0822
   74CHL1  H12A 6614  -0.016   0.325   4.263 -0.1960 -0.5956 -0.4029
   74CHL1  H12B 6615   0.097   0.434   4.189  0.6753  0.3053 -0.5457
   74CHL1   C11 6616   0.062   0.262   4.058 -0.0406  0.4002 -0.3771
   74CHL1  H11A 6617   0.031   0.159   4.084 -0.9970  1.1115  1.5065
   74CHL1  H11B 6618  -0.018   0.311   3.998 -1.2318 -2.7335 -1.5563
   74CHL1    C9 6619   0.190   0.254   3.980  0.7850  0.0776 -0.1999
   74CHL1    H9 6620   0.226   0.359   3.977  1.0577  0.0202  0.8686
   74CHL1   C10 6621   0.179   0.208   3.831 -1.0777 -0.6120 -0.6581
   74CHL1   C19 6622   0.087   0.087   3.835 -0.3862 -0.6702 -0.0996
   74CHL1  H19A 6623   0.060   0.045   3.736  1.7386  0.2233 -1.1485
   74CHL1  H19B 6624   0.144   0.012   3.893  1.0766  0.7949  0.4564
   74CHL1  H19C 6625  -0.014   0.098   3.880 -0.4437 -5.7707  1.5375
   74CHL1    C1 6626   0.110   0.323   3.755  0.4689  0.0206  0.4095
   74CHL1   H1A 6627   0.008   0.338   3.797  0.8844 -1.3327  2.0250
   74CHL1   H1B 6628   0.172   0.414   3.773  0.8887 -0.1018 -0.3591
   74CHL1    C2 6629   0.092   0.300   3.608 -0.1809  0.1661  1.0236
   74CHL1   H2A 6630   0.036   0.380   3.555 -0.3966 -1.5597 -1.5163
   74CHL1   H2B 6631   0.041   0.203   3.590  0.1252  0.1084  0.4356
   74CHL1   C20 6632   0.176   0.341   4.534  0.5768  1.1847 -0.0039
   74CHL1   H20 6633   0.187   0.236   4.569 -1.5415  0.0874 -2.3304
   74CHL1   C21 6634   0.023   0.373   4.513 -0.0214  0.2018  0.2075
   74CHL1  H21A 6635  -0.036   0.281   4.493 -1.8488  1.5168 -0.8203
   74CHL1  H21B 6636   0.006   0.456   4.441 -0.9769  0.2198  0.4438
   74CHL1  H21C 6637  -0.028   0.397   4.608  0.4637 -0.7499  0.7235
   74CHL1   C22 6638   0.240   0.437   4.631 -0.1668 -0.9561 -0.0666
   74CHL1  H22A 6639   0.320   0.500   4.587 -0.3224  0.7042  1.8554
   74CHL1  H22B 6640   0.173   0.515   4.674  0.8330  0.2138 -0.5811
   74CHL1   C23 6641   0.305   0.372   4.755  0.6454 -0.4982  0.8559
   74CHL1  H23A 6642   0.228   0.320   4.817 -1.5323 -0.5145 -1.6688
   74CHL1  H23B 6643   0.380   0.302   4.713 -0.4032 -0.0561 -1.9691
   74CHL1   C24 6644   0.371   0.481   4.840  0.1371  0.2909  0.2882
   74CHL1  H24A 6645   0.431   0.549   4.776 -0.5622 -0.6975 -1.4890
   74CHL1  H24B 6646   0.287   0.542   4.880 -0.1257  0.3694 -0.3809
   74CHL1   C25 6647   0.456   0.429   4.956 -0.7509  0.6753 -0.2144
   74CHL1   H25 6648   0.393   0.367   5.024 -0.9778  0.4388 -0.6346
   74CHL1   C26 6649   0.585   0.358   4.916  0.4518  0.2101  0.9987
   74CHL1  H26A 6650   0.631   0.293   4.993  0.2896 -3.5199 -1.7654
   74CHL1  H26B 6651   0.549   0.298   4.829 -1.8061 -0.1384  2.1071
   74CHL1  H26C 6652   0.656   0.427   4.865  0.1804 -0.6055 -0.5703
   74CHL1   C27 6653   0.496   0.546   5.048  0.4426 -0.2465  0.6389
   74CHL1  H27A 6654   0.560   0.516   5.135  0.9911 -1.9934 -0.3176
   74CHL1  H27B 6655   0.560   0.622   4.998  0.8993  2.0487  4.3300
   74CHL1  H27C 6656   0.410   0.599   5.095  0.3197  0.2397 -0.1236
   75CHL1    C3 6657   0.338   4.929   3.344 -0.3034 -0.1840  0.2783
   75CHL1    H3 6658   0.248   4.990   3.368 -0.5004  0.8867 -2.7294
   75CHL1    O3 6659   0.340   4.930   3.208 -0.5776  0.0308  0.1152
   75CHL1   H3' 6660   0.430   4.903   3.187  0.2657  2.7795 -0.1516
   75CHL1    C4 6661   0.463   4.997   3.398  0.0149 -0.3596  0.8788
   75CHL1   H4A 6662   0.553   4.961   3.344  0.2069  0.4258  0.6555
   75CHL1   H4B 6663   0.463   5.104   3.368  1.5915 -0.5366  0.1029
   75CHL1    C5 6664   0.491   4.983   3.545  0.9156  0.1503 -0.3079
   75CHL1    C6 6665   0.516   5.098   3.615 -0.1751  0.5431 -0.2194
   75CHL1    H6 6666   0.503   5.196   3.567 -0.2393 -0.2259 -1.8275
   75CHL1    C7 6667   0.528   5.090   3.767  0.4476 -1.1507 -1.1767
   75CHL1   H7A 6668   0.618   5.151   3.792 -2.3962  2.3045  1.7513
   75CHL1   H7B 6669   0.446   5.139   3.823  1.7741  0.8475 -0.8889
   75CHL1    C8 6670   0.542   4.947   3.830 -0.4142  0.0666 -0.9809
   75CHL1    H8 6671   0.645   4.909   3.815 -0.4312 -1.8217  2.6176
   75CHL1   C14 6672   0.507   4.954   3.975 -0.3562 -0.1322 -0.0553
   75CHL1   H14 6673   0.397   4.972   3.977 -0.7922 -2.1563 -1.9184
   75CHL1   C15 6674   0.566   5.069   4.059 -0.1274  0.5098  0.3167
   75CHL1  H15A 6675   0.672   5.084   4.031  0.3383 -1.0770  1.1130
   75CHL1  H15B 6676   0.515   5.168   4.053  2.0632  1.6659 -0.1813
   75CHL1   C16 6677   0.575   5.014   4.196  0.2394 -0.3193  0.1695
   75CHL1  H16A 6678   0.676   5.018   4.242  0.3248 -0.0392 -0.0421
   75CHL1  H16B 6679   0.509   5.076   4.260  0.2254 -0.7626  0.5887
   75CHL1   C17 6680   0.508   4.879   4.196  0.4345  0.3699 -0.2188
   75CHL1   H17 6681   0.398   4.890   4.199  0.4475  0.5839 -0.4927
   75CHL1   C13 6682   0.532   4.827   4.051 -0.4215 -0.5548 -0.1017
   75CHL1   C18 6683   0.677   4.786   4.035  1.2024  0.2836 -0.7795
   75CHL1  H18A 6684   0.676   4.680   4.067  0.0437  0.2287 -0.9518
   75CHL1  H18B 6685   0.725   4.781   3.936  0.0833 -2.4485 -1.2744
   75CHL1  H18C 6686   0.737   4.852   4.101  0.0538 -0.0551  0.6643
   75CHL1   C12 6687   0.449   4.717   3.991  0.2152  0.6056 -0.9699
   75CHL1  H12A 6688   0.484   4.621   4.033  2.9923  0.6470 -2.9230
   75CHL1  H12B 6689   0.344   4.729   4.025 -0.5360 -2.5031 -1.8729
   75CHL1   C11 6690   0.468   4.708   3.835 -0.2277  0.3317  0.4420
   75CHL1  H11A 6691   0.568   4.666   3.812  0.4415  0.8335  2.2737
   75CHL1  H11B 6692   0.398   4.630   3.796  1.0331 -0.8356  0.4388
   75CHL1    C9 6693   0.454   4.845   3.761 -0.5172  0.3299 -0.4298
   75CHL1    H9 6694   0.353   4.887   3.780 -0.1814  1.1819 -0.4910
   75CHL1   C10 6695   0.468   4.836   3.606  0.1762 -0.2397 -0.2292
   75CHL1   C19 6696   0.589   4.751   3.564 -0.4159  0.1093  1.5204
   75CHL1  H19A 6697   0.682   4.776   3.620  1.4854 -0.8220 -1.0026
   75CHL1  H19B 6698   0.567   4.643   3.566  2.9296 -0.7496 -0.6328
   75CHL1  H19C 6699   0.625   4.775   3.462 -2.2639  0.6805  0.9640
   75CHL1    C1 6700   0.334   4.792   3.559 -0.1375  0.5374  0.3326
   75CHL1   H1A 6701   0.329   4.683   3.583  0.0103  0.4040 -0.2235
   75CHL1   H1B 6702   0.249   4.842   3.610 -0.5360  1.6441 -1.3435
   75CHL1    C2 6703   0.319   4.793   3.403  0.3291  0.2609  0.7536
   75CHL1   H2A 6704   0.222   4.745   3.379  0.5009  0.0927  0.3856
   75CHL1   H2B 6705   0.388   4.722   3.352 -0.2398 -0.1059  0.4859
   75CHL1   C20 6706   0.541   4.798   4.325  0.5250 -0.7054  0.4254
   75CHL1   H20 6707   0.649   4.772   4.322  0.5271 -0.6750  0.2566
   75CHL1   C21 6708   0.464   4.659   4.319 -0.3994  0.1742  0.8781
   75CHL1  H21A 6709   0.368   4.681   4.266  0.3132 -0.1565 -0.6121
   75CHL1  H21B 6710   0.443   4.630   4.424  3.6806 -0.9601  1.5132
   75CHL1  H21C 6711   0.529   4.583   4.272 -1.1308 -1.8967  3.0381
   75CHL1   C22 6712   0.519   4.872   4.454  0.0711 -0.1628  0.4202
   75CHL1  H22A 6713   0.546   4.979   4.448 -0.5127 -0.0150  0.3263
   75CHL1  H22B 6714   0.412   4.883   4.482  0.4313  0.9470  1.4155
   75CHL1   C23 6715   0.602   4.815   4.571  0.2387  0.3750  0.4430
   75CHL1  H23A 6716   0.534   4.734   4.606 -0.9025 -1.2040 -4.5964
   75CHL1  H23B 6717   0.695   4.764   4.536 -0.0005 -0.4891  1.0346
   75CHL1   C24 6718   0.630   4.923   4.685 -0.3670 -0.4850 -0.0101
   75CHL1  H24A 6719   0.675   4.874   4.774 -2.3493  1.9672  2.5305
   75CHL1  H24B 6720   0.709   4.982   4.636 -0.6449 -0.4561 -0.4241
   75CHL1   C25 6721   0.518   5.014   4.730 -1.0562 -0.8160  0.4440
   75CHL1   H25 6722   0.481   5.061   4.636 -0.9830 -3.0986 -0.8164
   75CHL1   C26 6723   0.413   4.936   4.808 -0.6691  0.0271 -1.0681
   75CHL1  H26A 6724   0.375   4.851   4.747  0.9864  0.1986 -2.4049
   75CHL1  H26B 6725   0.463   4.897   4.899 -2.5303  1.2665  0.5847
   75CHL1  H26C 6726   0.326   5.000   4.836  0.4332  0.5093  1.6563
   75CHL1   C27 6727   0.578   5.127   4.811  0.7301  0.3335 -0.2808
   75CHL1  H27A 6728   0.645   5.200   4.761  0.4667 -0.8189 -2.4171
   75CHL1  H27B 6729   0.497   5.195   4.846 -0.2567 -0.5509 -0.7795
   75CHL1  H27C 6730   0.608   5.090   4.911 -1.1718 -1.1906 -0.2069
   76CHL1    C3 6731   5.437   6.085   3.448 -0.6545 -0.4435 -0.6217
   76CHL1    H3 6732   5.349   6.018   3.437 -1.1446  0.2015 -0.6772
   76CHL1    O3 6733   5.515   6.088   3.324  0.3740 -0.1660  0.2129
   76CHL1   H3' 6734   5.606   6.079   3.356  0.1393  0.0760  0.9803
   76CHL1    C4 6735   5.377   6.221   3.480  0.0684 -0.4264  0.2077
   76CHL1   H4A 6736   5.461   6.290   3.500 -2.0453  2.4788 -0.3466
   76CHL1   H4B 6737   5.318   6.262   3.396  0.0855 -0.5768  0.1212
   76CHL1    C5 6738   5.298   6.230   3.609 -0.2656 -0.5189  0.5623
   76CHL1    C6 6739   5.172   6.265   3.604 -0.6531 -0.0499 -0.0512
   76CHL1    H6 6740   5.129   6.306   3.511 -1.7325  3.0429  1.6517
   76CHL1    C7 6741   5.089   6.273   3.724 -0.5294  0.1212  0.0128
   76CHL1   H7A 6742   5.021   6.361   3.731  1.8313  1.8776  3.8684
   76CHL1   H7B 6743   5.023   6.184   3.720 -1.9835  1.1867 -1.3769
   76CHL1    C8 6744   5.168   6.268   3.854 -0.0644 -0.7147  0.1061
   76CHL1    H8 6745   5.212   6.369   3.871  2.0170 -1.8077  1.7724
   76CHL1   C14 6746   5.063   6.241   3.967 -0.3383 -0.2049 -0.4343
   76CHL1   H14 6747   5.015   6.142   3.949  0.5257 -0.7909  0.3724
   76CHL1   C15 6748   4.943   6.327   4.004  0.3061  0.5207 -0.1260
   76CHL1  H15A 6749   4.986   6.429   3.995  1.7556 -0.1771 -1.4682
   76CHL1  H15B 6750   4.864   6.314   3.927 -0.3489  0.3840  0.5511
   76CHL1   C16 6751   4.900   6.292   4.144 -0.0884  0.1152 -0.3418
   76CHL1  H16A 6752   4.900   6.393   4.192  0.8476  0.6770 -1.4625
   76CHL1  H16B 6753   4.796   6.254   4.155 -1.4897  3.6478  0.0634
   76CHL1   C17 6754   5.010   6.201   4.203 -0.6787  0.2277  0.6150
   76CHL1   H17 6755   4.976   6.099   4.177  1.4149 -0.9830  2.2888
   76CHL1   C13 6756   5.136   6.227   4.106  1.1848  0.2670 -0.0256
   76CHL1   C18 6757   5.197   6.360   4.161  0.6666  0.2132  1.4192
   76CHL1  H18A 6758   5.118   6.439   4.164  0.4678  0.3223 -2.2045
   76CHL1  H18B 6759   5.243   6.350   4.262  3.6156  0.8051  0.2303
   76CHL1  H18C 6760   5.271   6.398   4.087 -0.1793  0.3557  0.6249
   76CHL1   C12 6761   5.233   6.111   4.104  0.4298 -0.5717  0.3264
   76CHL1  H12A 6762   5.306   6.110   4.187  1.2278 -2.4466 -0.3361
   76CHL1  H12B 6763   5.186   6.011   4.102  1.5540 -1.1180  0.6032
   76CHL1   C11 6764   5.336   6.122   3.985 -0.2077  0.0256 -0.5728
   76CHL1  H11A 6765   5.412   6.198   4.014  0.8414 -1.2611  0.1137
   76CHL1  H11B 6766   5.385   6.024   3.971 -0.6724 -0.1881 -0.7390
   76CHL1    C9 6767   5.267   6.156   3.851 -0.6156  0.0571  0.0472
   76CHL1    H9 6768   5.206   6.065   3.834 -1.8184  0.3895  2.1823
   76CHL1   C10 6769   5.369   6.174   3.739 -0.4898  0.2997  0.2415
   76CHL1   C19 6770   5.477   6.276   3.772  0.4701  0.5885 -0.1333
   76CHL1  H19A 6771   5.538   6.308   3.685  0.1007  1.3316 -0.1257
   76CHL1  H19B 6772   5.430   6.370   3.808  0.3116 -0.2247  1.9453
   76CHL1  H19C 6773   5.556   6.247   3.845  0.0687  1.5805  0.7254
   76CHL1    C1 6774   5.439   6.036   3.697  0.3268 -0.0049 -0.2358
   76CHL1   H1A 6775   5.486   5.996   3.790  1.7424  1.8019 -0.0995
   76CHL1   H1B 6776   5.354   5.970   3.670 -0.1850  0.4492  0.2401
   76CHL1    C2 6777   5.526   6.043   3.569  0.4542  0.5342  0.1393
   76CHL1   H2A 6778   5.570   5.941   3.562  1.0768  0.6909  1.4079
   76CHL1   H2B 6779   5.616   6.106   3.581  0.9113  0.2811 -1.7321
   76CHL1   C20 6780   5.017   6.209   4.355 -0.0500  0.3550 -0.3094
   76CHL1   H20 6781   5.023   6.317   4.380  0.0165  0.4036 -0.5323
   76CHL1   C21 6782   5.139   6.134   4.419  0.7965  0.6512 -0.3378
   76CHL1  H21A 6783   5.136   6.028   4.386  1.4912  0.7870 -0.8559
   76CHL1  H21B 6784   5.122   6.145   4.528 -2.3476  1.0000 -0.7597
   76CHL1  H21C 6785   5.235   6.184   4.393  1.0480  0.0524 -0.5694
   76CHL1   C22 6786   4.885   6.155   4.422 -0.2097 -0.0681  0.0247
   76CHL1  H22A 6787   4.794   6.192   4.369 -0.4565 -0.3363  0.2574
   76CHL1  H22B 6788   4.894   6.045   4.408 -1.0535  0.1499 -3.1251
   76CHL1   C23 6789   4.874   6.197   4.567  1.1174 -0.5236  0.4251
   76CHL1  H23A 6790   4.938   6.139   4.637  0.2641 -1.6758  0.2742
   76CHL1  H23B 6791   4.910   6.302   4.567  1.5054 -0.6532  0.5567
   76CHL1   C24 6792   4.730   6.181   4.617  1.1875  0.3986  0.0398
   76CHL1  H24A 6793   4.712   6.235   4.712  0.9164  0.4425 -0.0353
   76CHL1  H24B 6794   4.654   6.227   4.550  1.2268  0.1369 -0.1868
   76CHL1   C25 6795   4.690   6.035   4.651 -0.2264  0.1380  0.0044
   76CHL1   H25 6796   4.744   5.971   4.578 -2.2376  1.1269 -2.5094
   76CHL1   C26 6797   4.735   5.995   4.789  0.1632 -0.8877 -0.8520
   76CHL1  H26A 6798   4.698   5.895   4.820 -1.6062  0.5288  2.0903
   76CHL1  H26B 6799   4.843   6.009   4.811 -0.2733  0.2690  0.7758
   76CHL1  H26C 6800   4.681   6.062   4.860  0.9365 -0.1670 -0.9170
   76CHL1   C27 6801   4.540   6.015   4.639  0.2033  0.2814 -0.2811
   76CHL1  H27A 6802   4.491   6.067   4.724  0.5619 -1.5589  1.1261
   76CHL1  H27B 6803   4.499   6.045   4.540  0.1263 -1.6752 -0.8935
   76CHL1  H27C 6804   4.515   5.907   4.648  0.7275  0.1947  0.1724
   77SOPE     N 6805   1.884   6.345   7.397  0.0957  0.3559  0.5890
   77SOPE   HN1 6806   1.817   6.271   7.426  1.7699 -1.3728  0.2712
   77SOPE   HN2 6807   1.975   6.294   7.403 -1.4295 -2.9676 -1.0880
   77SOPE   HN3 6808   1.886   6.422   7.466  2.1844  0.1367  0.8329
   77SOPE   C12 6809   1.864   6.392   7.258 -0.1927  0.3666  0.4416
   77SOPE  H12A 6810   1.940   6.471   7.238 -1.4386  1.8021  1.1545
   77SOPE  H12B 6811   1.759   6.428   7.254 -0.2795  0.5523  2.8741
   77SOPE   C11 6812   1.879   6.274   7.161 -0.6710 -0.5469  0.1392
   77SOPE  H11A 6813   1.979   6.229   7.176  0.7417  2.3451  0.0852
   77SOPE  H11B 6814   1.869   6.308   7.055 -0.7425  1.1209  0.6507
   77SOPE     P 6815   1.770   6.037   7.149  0.0146  0.1373 -0.0282
   77SOPE   O13 6816   1.721   5.958   7.259 -0.5180 -0.2882 -0.2085
   77SOPE   O14 6817   1.902   6.002   7.094 -0.4082  0.0109 -0.0445
   77SOPE   O12 6818   1.768   6.188   7.189 -0.0218  0.1405 -0.1672
   77SOPE   O11 6819   1.666   6.022   7.032 -0.3725  0.4434 -0.2866
   77SOPE    C1 6820   1.633   6.129   6.943  0.4927  0.4142  1.2371
   77SOPE    HA 6821   1.693   6.220   6.962 -0.9395  1.2672  1.7963
   77SOPE    HB 6822   1.527   6.157   6.961 -0.0230 -1.1990  0.9331
   77SOPE    C2 6823   1.654   6.092   6.796 -0.0118  0.6370  0.7620
   77SOPE    HS 6824   1.624   6.180   6.736 -0.4774  0.6055  0.9482
   77SOPE   O21 6825   1.585   5.972   6.751  0.3043  0.3340  0.7730
   77SOPE   C21 6826   1.460   5.956   6.784  0.6066  0.1706  0.6934
   77SOPE   O22 6827   1.387   6.037   6.836  0.2605  0.2102  0.7710
   77SOPE   C22 6828   1.410   5.822   6.737  0.2286 -0.0754  0.5549
   77SOPE   H2R 6829   1.308   5.824   6.694  0.7684  2.2677 -0.8465
   77SOPE   H2S 6830   1.406   5.762   6.830 -2.3699  2.2622  2.0986
   77SOPE    C3 6831   1.805   6.067   6.771 -0.2242 -0.9751 -0.7162
   77SOPE    HX 6832   1.854   5.983   6.825  0.0660  0.4094  1.2388
   77SOPE    HY 6833   1.865   6.156   6.798  0.5217 -1.1778 -1.6469
   77SOPE   O31 6834   1.817   6.043   6.624  0.1107  0.3158 -0.1276
   77SOPE   C31 6835   1.818   6.154   6.544 -0.4136 -0.6460 -1.0490
   77SOPE   O32 6836   1.833   6.270   6.583  0.3401 -0.4803 -0.0555
   77SOPE   C32 6837   1.810   6.111   6.395  0.5838 -0.0889 -0.0555
   77SOPE   H2X 6838   1.764   6.010   6.400  0.2756  0.0815  0.6205
   77SOPE   H2Y 6839   1.910   6.093   6.350  1.0580 -0.2863  1.0454
   77SOPE   C23 6840   1.503   5.736   6.639 -0.2535 -0.0992 -0.6144
   77SOPE   H3R 6841   1.460   5.635   6.625 -0.9020  0.0448  0.2420
   77SOPE   H3S 6842   1.599   5.723   6.693 -0.5970  0.2759  0.1026
   77SOPE   C24 6843   1.530   5.794   6.500  0.5297 -0.1582  0.1813
   77SOPE   H4R 6844   1.571   5.895   6.519 -1.8345  1.2203 -1.6193
   77SOPE   H4S 6845   1.613   5.742   6.447  0.0327 -0.3383 -0.4217
   77SOPE   C25 6846   1.401   5.792   6.407  0.4516  0.1671 -0.4531
   77SOPE   H5R 6847   1.363   5.689   6.420  0.9453  0.1676  1.3760
   77SOPE   H5S 6848   1.333   5.867   6.454 -1.1778 -0.9084 -1.0152
   77SOPE   C26 6849   1.441   5.828   6.265  0.1442  0.4286 -0.5040
   77SOPE   H6R 6850   1.491   5.927   6.270 -0.0672  0.5058  0.1407
   77SOPE   H6S 6851   1.515   5.757   6.222  0.7277 -1.4126  3.1419
   77SOPE   C27 6852   1.321   5.844   6.176 -0.2685 -0.0331 -0.4043
   77SOPE   H7R 6853   1.276   5.744   6.159 -0.8008  0.3128 -1.0705
   77SOPE   H7S 6854   1.254   5.922   6.218  0.0708  0.0234  0.0428
   77SOPE   C28 6855   1.350   5.898   6.036 -0.3801 -0.6345  0.6029
   77SOPE   H8R 6856   1.252   5.923   5.989  0.9563 -1.0615 -2.6158
   77SOPE   H8S 6857   1.411   5.990   6.041 -0.6481 -0.5053  1.7465
   77SOPE   C29 6858   1.431   5.798   5.952  0.7282  0.1504 -0.2242
   77SOPE   H91 6859   1.403   5.692   5.955 -2.8796  0.9515 -0.9861
   77SOPE  C210 6860   1.534   5.820   5.871  0.1361  0.2067  0.0521
   77SOPE  H101 6861   1.584   5.733   5.826  0.5494  0.7683 -0.6108
   77SOPE  C211 6862   1.600   5.952   5.832  0.1302 -0.0392  0.1706
   77SOPE  H11R 6863   1.705   5.916   5.821 -0.7381 -2.5675 -0.5317
   77SOPE  H11S 6864   1.582   6.027   5.912 -0.7189 -0.6297  0.5406
   77SOPE  C212 6865   1.554   6.007   5.701 -0.2191 -0.7846  0.1544
   77SOPE  H12R 6866   1.565   5.925   5.626  2.0152  0.7196 -1.2558
   77SOPE  H12S 6867   1.628   6.082   5.667  2.2486 -3.4191 -0.7084
   77SOPE  C213 6868   1.410   6.062   5.693  0.0955  0.2263 -0.1620
   77SOPE  H13R 6869   1.392   6.138   5.772  1.1591  3.3100 -2.6893
   77SOPE  H13S 6870   1.350   5.970   5.713 -0.0819  0.1255 -1.1347
   77SOPE  C214 6871   1.368   6.112   5.556  0.2909 -0.0159 -0.3722
   77SOPE  H14R 6872   1.259   6.131   5.559  0.3362  0.1491  0.9837
   77SOPE  H14S 6873   1.397   6.033   5.483 -1.7355  0.9413 -2.3209
   77SOPE  C215 6874   1.455   6.235   5.519 -1.3125 -0.3783 -0.4321
   77SOPE  H15R 6875   1.556   6.213   5.480 -1.2260  1.1967 -1.1750
   77SOPE  H15S 6876   1.466   6.301   5.608  2.3573 -0.8948 -0.3597
   77SOPE  C216 6877   1.384   6.320   5.407 -0.2579  0.4045 -0.3584
   77SOPE  H16R 6878   1.284   6.337   5.451  1.5871  1.0088  4.0483
   77SOPE  H16S 6879   1.372   6.264   5.312 -0.7861  2.5567 -1.6268
   77SOPE  C217 6880   1.468   6.435   5.352 -0.3455 -0.6588 -0.5660
   77SOPE  H17R 6881   1.560   6.388   5.312 -0.5935 -1.1100 -0.6118
   77SOPE  H17S 6882   1.513   6.497   5.433 -0.7263  0.0208 -0.8653
   77SOPE  C218 6883   1.402   6.536   5.264 -0.4958 -0.3952 -0.0816
   77SOPE  H18R 6884   1.340   6.494   5.182 -0.8358  0.2897 -0.1905
   77SOPE  H18S 6885   1.468   6.614   5.220 -0.7539  1.3208  2.3875
   77SOPE  H18T 6886   1.334   6.603   5.322  2.3302  0.1218  2.8708
   77SOPE   C33 6887   1.729   6.212   6.301  0.3140 -0.0921  0.3578
   77SOPE   H3X 6888   1.736   6.180   6.195 -2.9716  0.8881 -0.2588
   77SOPE   H3Y 6889   1.770   6.315   6.306 -1.2026  0.5136  0.8004
   77SOPE   C34 6890   1.581   6.220   6.330 -0.1640 -0.4865 -0.0113
   77SOPE   H4X 6891   1.555   6.296   6.407 -2.3253 -0.3067 -0.8429
   77SOPE   H4Y 6892   1.562   6.116   6.366  0.5028 -0.7458 -0.3808
   77SOPE   C35 6893   1.499   6.253   6.202 -0.2482  0.1223  0.1644
   77SOPE   H5X 6894   1.524   6.178   6.124  2.2885 -2.8150  3.4851
   77SOPE   H5Y 6895   1.527   6.354   6.165 -1.8381 -0.2655 -2.3429
   77SOPE   C36 6896   1.351   6.241   6.231  0.2924 -0.5208  0.2519
   77SOPE   H6X 6897   1.322   6.304   6.317  2.4592  2.4335 -0.9810
   77SOPE   H6Y 6898   1.325   6.136   6.255 -1.6864 -0.4203 -1.2429
   77SOPE   C37 6899   1.274   6.285   6.103  0.0236 -0.0923  0.1907
   77SOPE   H7X 6900   1.282   6.212   6.019 -1.2978 -1.0320  0.8363
   77SOPE   H7Y 6901   1.331   6.376   6.078  0.1942 -0.7849 -2.1316
   77SOPE   C38 6902   1.135   6.332   6.114 -0.0639 -0.1682 -0.7640
   77SOPE   H8X 6903   1.121   6.397   6.203 -0.9443 -0.2842 -0.8055
   77SOPE   H8Y 6904   1.079   6.237   6.130 -0.2969  0.1067  0.1239
   77SOPE   C39 6905   1.066   6.396   5.986 -0.2224  0.4386  0.5163
   77SOPE   H9X 6906   1.114   6.492   5.957 -1.5597  0.8186 -0.5099
   77SOPE   H9Y 6907   0.965   6.421   6.024 -1.4433 -2.5355 -0.4496
   77SOPE  C310 6908   1.041   6.299   5.870  0.1766  0.4104  0.2748
   77SOPE  H10X 6909   0.998   6.205   5.910  0.3531  1.1704  2.3999
   77SOPE  H10Y 6910   1.134   6.265   5.818  0.6796  0.9565  0.7902
   77SOPE  C311 6911   0.957   6.367   5.763  0.0883 -0.0053  0.2527
   77SOPE  H11X 6912   1.016   6.446   5.713 -0.5809  0.6911  0.5625
   77SOPE  H11Y 6913   0.869   6.413   5.812 -1.9172 -1.8978 -1.3304
   77SOPE  C312 6914   0.913   6.256   5.667 -0.0748  0.7119  0.4721
   77SOPE  H12X 6915   0.840   6.191   5.720 -0.6884 -0.2717 -1.4937
   77SOPE  H12Y 6916   0.996   6.189   5.638 -0.2041  0.4298  0.7518
   77SOPE  C313 6917   0.844   6.310   5.540 -0.1290 -0.6069 -0.0612
   77SOPE  H13X 6918   0.750   6.361   5.570  0.1398 -0.3875  0.4125
   77SOPE  H13Y 6919   0.801   6.221   5.489  0.2807  0.1098 -1.7463
   77SOPE  C314 6920   0.925   6.393   5.438 -0.0908  0.1834 -0.0800
   77SOPE  H14X 6921   0.993   6.462   5.492  0.5560 -0.1404 -0.4697
   77SOPE  H14Y 6922   0.860   6.463   5.381 -1.0089 -0.2887  0.3612
   77SOPE  C315 6923   0.995   6.290   5.354 -0.2099 -0.3725  0.2706
   77SOPE  H15X 6924   1.035   6.212   5.421 -0.6600  0.4051  1.4722
   77SOPE  H15Y 6925   1.082   6.329   5.297 -0.7412 -0.3703 -0.5676
   77SOPE  C316 6926   0.900   6.219   5.248 -0.4207 -0.1960  0.0427
   77SOPE  H16X 6927   0.854   6.292   5.177  0.3258  0.0238 -0.2301
   77SOPE  H16Y 6928   0.824   6.157   5.300 -0.3790 -0.1385  0.1702
   77SOPE  C317 6929   0.988   6.124   5.172  1.3517  0.0438  0.3064
   77SOPE  H17X 6930   1.037   6.049   5.237 -1.8576 -1.7963  0.7939
   77SOPE  H17Y 6931   1.069   6.174   5.115 -0.2790  0.0015 -2.1832
   77SOPE  C318 6932   0.910   6.052   5.060  0.6628  0.3183  0.3240
   77SOPE  H18X 6933   0.823   5.994   5.097  0.7228 -0.3994 -0.6100
   77SOPE  H18Y 6934   0.975   5.972   5.017  2.2476  0.9712  1.4113
   77SOPE  H18Z 6935   0.873   6.115   4.977  0.8909  0.1477  0.0889
   78SOPE     N 6936   5.368   5.535   7.258 -0.0758 -0.0649 -0.2348
   78SOPE   HN1 6937   5.350   5.433   7.267 -3.9414  0.5290  0.9259
   78SOPE   HN2 6938   5.281   5.591   7.266 -1.0591 -1.7429  2.0856
   78SOPE   HN3 6939   5.405   5.567   7.166 -0.1873  3.3695  0.7648
   78SOPE   C12 6940   5.462   5.588   7.363  0.7480 -0.1441  0.3664
   78SOPE  H12A 6941   5.510   5.501   7.412  2.4655  1.2025  1.1694
   78SOPE  H12B 6942   5.410   5.652   7.438  2.8372  0.7035  1.1697
   78SOPE   C11 6943   5.570   5.673   7.302 -0.4877 -0.1825  0.2475
   78SOPE  H11A 6944   5.657   5.674   7.372 -0.0458 -0.8155 -0.2853
   78SOPE  H11B 6945   5.525   5.773   7.285  0.1277  0.0503 -0.0264
   78SOPE     P 6946   5.760   5.593   7.130  0.6467 -0.3623  0.0742
   78SOPE   O13 6947   5.773   5.444   7.114  0.2517 -0.4705  0.9975
   78SOPE   O14 6948   5.850   5.656   7.233  0.0649  0.6971  0.0296
   78SOPE   O12 6949   5.608   5.616   7.175  0.2825  0.3972  0.2609
   78SOPE   O11 6950   5.768   5.676   6.993 -0.2336  0.5271 -0.3258
   78SOPE    C1 6951   5.665   5.659   6.901  0.2034 -0.5155  0.4453
   78SOPE    HA 6952   5.576   5.717   6.934 -1.1979 -2.5649  0.4345
   78SOPE    HB 6953   5.625   5.556   6.893 -1.5879  0.2247 -1.0259
   78SOPE    C2 6954   5.701   5.697   6.752 -0.5470  0.9155 -0.3813
   78SOPE    HS 6955   5.644   5.624   6.690  1.2163 -1.0594  0.2059
   78SOPE   O21 6956   5.841   5.691   6.730 -0.1600 -0.0009 -0.5812
   78SOPE   C21 6957   5.889   5.562   6.738  0.1392 -0.5000  0.6067
   78SOPE   O22 6958   5.818   5.465   6.754 -0.1505  0.1117 -0.4635
   78SOPE   C22 6959   6.043   5.566   6.730  0.1181  0.7109 -0.2456
   78SOPE   H2R 6960   6.082   5.529   6.828  2.8725 -0.1653 -1.5637
   78SOPE   H2S 6961   6.076   5.670   6.710  1.0852  0.1185 -1.8674
   78SOPE    C3 6962   5.655   5.840   6.714 -0.7833 -0.0926  0.2042
   78SOPE    HX 6963   5.706   5.908   6.786  0.8012 -1.8727  0.8530
   78SOPE    HY 6964   5.545   5.849   6.728 -1.3000  0.7626 -3.4891
   78SOPE   O31 6965   5.698   5.881   6.581 -0.2243  0.0916  0.3582
   78SOPE   C31 6966   5.694   6.009   6.557  0.1372  0.1285 -0.1642
   78SOPE   O32 6967   5.656   6.092   6.638 -0.1108  0.2472 -0.3365
   78SOPE   C32 6968   5.757   6.049   6.425  0.9670  0.6405  0.4917
   78SOPE   H2X 6969   5.868   6.047   6.425  0.9753  0.0416 -0.7854
   78SOPE   H2Y 6970   5.724   6.153   6.403  1.3865  0.3240 -1.9127
   78SOPE   C23 6971   6.103   5.466   6.626 -0.6266  0.2895 -0.1046
   78SOPE   H3R 6972   6.076   5.362   6.654 -1.2015  0.6986  0.9254
   78SOPE   H3S 6973   6.214   5.475   6.626 -0.6019  0.1291  1.0216
   78SOPE   C24 6974   6.054   5.492   6.478 -0.2798  0.3492 -0.1110
   78SOPE   H4R 6975   6.113   5.433   6.404  0.0549 -0.5329  0.8323
   78SOPE   H4S 6976   5.954   5.446   6.459 -0.2958  1.4220 -3.1562
   78SOPE   C25 6977   6.067   5.636   6.436 -0.4443 -0.3292 -0.3556
   78SOPE   H5R 6978   5.998   5.699   6.496  1.5219  1.2327  0.3892
   78SOPE   H5S 6979   6.166   5.683   6.455 -1.1278  0.7972  0.5447
   78SOPE   C26 6980   6.020   5.653   6.287 -0.9508  0.2775  0.3935
   78SOPE   H6R 6981   5.932   5.594   6.253 -0.3343  0.5965 -1.9430
   78SOPE   H6S 6982   5.999   5.759   6.262 -1.0537 -0.0195 -0.8705
   78SOPE   C27 6983   6.136   5.614   6.188  0.9638 -0.2853 -0.3571
   78SOPE   H7R 6984   6.228   5.668   6.216  1.0277 -0.2495 -0.6384
   78SOPE   H7S 6985   6.163   5.506   6.199 -0.3912 -0.7635 -1.3933
   78SOPE   C28 6986   6.093   5.618   6.038 -0.3276  0.0376  0.2228
   78SOPE   H8R 6987   6.169   5.556   5.987  1.3676  0.1545  2.4632
   78SOPE   H8S 6988   6.001   5.557   6.032  0.6256 -1.4377  0.1378
   78SOPE   C29 6989   6.090   5.752   5.976  1.4347  0.4879  0.5948
   78SOPE   H91 6990   6.181   5.803   5.942 -0.3251  1.4740 -3.1772
   78SOPE  C210 6991   5.977   5.832   5.959 -0.1304  1.0258  0.9593
   78SOPE  H101 6992   5.993   5.935   5.924  3.9217  0.5309  0.8739
   78SOPE  C211 6993   5.841   5.797   6.009 -0.5382 -0.3589  0.1177
   78SOPE  H11R 6994   5.802   5.884   6.068 -0.2428 -0.7476  0.9001
   78SOPE  H11S 6995   5.834   5.708   6.074  0.7989 -1.1502 -0.7729
   78SOPE  C212 6996   5.759   5.738   5.889 -0.9895 -0.2906 -0.6978
   78SOPE  H12R 6997   5.661   5.708   5.931 -0.4450 -1.5609 -0.2991
   78SOPE  H12S 6998   5.810   5.653   5.840  1.0884  1.0603 -0.9925
   78SOPE  C213 6999   5.731   5.840   5.780  0.7903  0.3628 -0.3906
   78SOPE  H13R 7000   5.819   5.884   5.728  1.3391  0.0652  0.2732
   78SOPE  H13S 7001   5.680   5.920   5.837  0.4810 -0.8057  1.0208
   78SOPE  C214 7002   5.624   5.790   5.674 -0.5540 -0.7583 -0.5103
   78SOPE  H14R 7003   5.574   5.878   5.628  1.6907  1.6059  1.2896
   78SOPE  H14S 7004   5.553   5.722   5.726  1.3226 -3.8337 -1.6651
   78SOPE  C215 7005   5.695   5.703   5.568  0.6877  0.0631 -0.2368
   78SOPE  H15R 7006   5.625   5.641   5.507  1.1800 -0.8670  0.1160
   78SOPE  H15S 7007   5.762   5.632   5.620 -1.3261 -0.2617  2.0622
   78SOPE  C216 7008   5.785   5.777   5.468 -0.6851 -0.0061 -0.1765
   78SOPE  H16R 7009   5.857   5.707   5.422 -1.6050 -1.4683  0.5158
   78SOPE  H16S 7010   5.858   5.845   5.517 -1.0190  0.1003  0.1817
   78SOPE  C217 7011   5.707   5.858   5.360 -0.6454 -0.1760  0.2703
   78SOPE  H17R 7012   5.693   5.964   5.390  0.1573 -0.0673  0.2983
   78SOPE  H17S 7013   5.607   5.811   5.358  0.6876 -3.2706  0.3483
   78SOPE  C218 7014   5.769   5.846   5.219 -0.2923  0.8661 -0.4413
   78SOPE  H18R 7015   5.876   5.872   5.212  0.0729 -0.2448  0.6344
   78SOPE  H18S 7016   5.707   5.905   5.148 -2.5699 -0.2424  0.4967
   78SOPE  H18T 7017   5.762   5.740   5.185 -1.3446  0.4166  1.0570
   78SOPE   C33 7018   5.698   5.958   6.309  0.3637  0.4546 -0.2326
   78SOPE   H3X 7019   5.730   5.852   6.312  1.4261  0.7403 -1.0085
   78SOPE   H3Y 7020   5.738   5.999   6.214  0.6760 -0.3989 -0.4756
   78SOPE   C34 7021   5.544   5.984   6.294 -0.5718  0.2605 -0.4357
   78SOPE   H4X 7022   5.516   6.088   6.321 -0.3068  0.4122 -0.7382
   78SOPE   H4Y 7023   5.478   5.910   6.345  0.0225  1.3928  2.1273
   78SOPE   C35 7024   5.501   5.972   6.149  0.1181 -0.3117  0.6648
   78SOPE   H5X 7025   5.508   5.867   6.114  0.9907  0.1074 -0.4778
   78SOPE   H5Y 7026   5.563   6.022   6.072  0.4882  1.6770  2.1468
   78SOPE   C36 7027   5.367   6.028   6.119 -0.7259 -0.0376 -0.3567
   78SOPE   H6X 7028   5.355   6.134   6.149 -3.5455 -0.6099  0.8859
   78SOPE   H6Y 7029   5.292   5.971   6.178 -0.9593 -0.2751 -0.8727
   78SOPE   C37 7030   5.337   6.015   5.971 -0.0745 -0.6930  0.6377
   78SOPE   H7X 7031   5.323   5.916   5.922  0.6342 -0.0049 -1.0245
   78SOPE   H7Y 7032   5.429   6.048   5.918  1.0275 -2.8701  1.0727
   78SOPE   C38 7033   5.211   6.100   5.926 -0.4597  0.6277 -0.0433
   78SOPE   H8X 7034   5.208   6.193   5.987 -0.1818  0.6174 -0.0107
   78SOPE   H8Y 7035   5.128   6.029   5.943  0.8985 -0.5671  2.0821
   78SOPE   C39 7036   5.187   6.148   5.780  0.1570 -0.1940 -0.1135
   78SOPE   H9X 7037   5.123   6.238   5.790  0.3961 -0.0061 -0.2706
   78SOPE   H9Y 7038   5.121   6.077   5.724  0.5275  2.0732 -3.7462
   78SOPE  C310 7039   5.318   6.173   5.703  0.4550 -0.3453  0.0710
   78SOPE  H10X 7040   5.396   6.095   5.703  0.1457 -0.6598  0.3119
   78SOPE  H10Y 7041   5.375   6.259   5.745  1.7686  0.4959 -3.1234
   78SOPE  C311 7042   5.295   6.198   5.557 -0.6091  0.1140  0.0645
   78SOPE  H11X 7043   5.249   6.295   5.529 -0.1102 -0.6681 -4.1138
   78SOPE  H11Y 7044   5.221   6.121   5.526 -0.5007  0.5010 -1.2148
   78SOPE  C312 7045   5.421   6.183   5.468 -0.4568  0.8346 -0.2727
   78SOPE  H12X 7046   5.473   6.086   5.482 -0.2129  1.1436  1.1193
   78SOPE  H12Y 7047   5.500   6.257   5.493 -1.4653  1.2527  1.9402
   78SOPE  C313 7048   5.386   6.181   5.321 -1.0089  0.0843  0.0236
   78SOPE  H13X 7049   5.325   6.273   5.310 -1.3364 -0.2459 -1.0250
   78SOPE  H13Y 7050   5.340   6.090   5.279  0.1663 -0.7251  0.4289
   78SOPE  C314 7051   5.516   6.208   5.232 -0.0185  0.2415 -0.0935
   78SOPE  H14X 7052   5.565   6.108   5.233 -0.7985 -0.1479  0.2994
   78SOPE  H14Y 7053   5.576   6.292   5.272  1.6972 -0.6012 -0.7839
   78SOPE  C315 7054   5.482   6.239   5.080 -0.1872  0.4765 -0.4084
   78SOPE  H15X 7055   5.573   6.265   5.022 -1.1165  0.8586 -1.7231
   78SOPE  H15Y 7056   5.416   6.329   5.080 -1.7035 -0.5938  0.1952
   78SOPE  C316 7057   5.398   6.125   5.014  0.1413 -0.0748  0.4236
   78SOPE  H16X 7058   5.296   6.132   5.058  0.7660  0.5164  1.8560
   78SOPE  H16Y 7059   5.445   6.026   5.033 -0.8559 -0.9256 -1.2870
   78SOPE  C317 7060   5.393   6.147   4.867 -0.3614 -0.3555 -0.3324
   78SOPE  H17X 7061   5.497   6.146   4.826 -0.0905  0.1841  0.3133
   78SOPE  H17Y 7062   5.353   6.246   4.834  0.0388 -0.1408 -0.1780
   78SOPE  C318 7063   5.313   6.044   4.789 -0.5110  0.7488  0.1939
   78SOPE  H18X 7064   5.363   5.946   4.806 -0.1214  0.7166 -1.0025
   78SOPE  H18Y 7065   5.305   6.064   4.680  0.2448 -1.2093 -0.2610
   78SOPE  H18Z 7066   5.210   6.026   4.826  0.0468 -3.3551  0.1456
   79SOPE     N 7067   0.685   2.556   7.830 -0.1402 -0.0691  0.4482
   79SOPE   HN1 7068   0.612   2.598   7.769 -0.7325  1.4920  2.1365
   79SOPE   HN2 7069   0.675   2.453   7.830  1.1819 -0.2075  0.8073
   79SOPE   HN3 7070   0.665   2.598   7.923  0.8222  2.6992 -0.4823
   79SOPE   C12 7071   0.821   2.604   7.795 -0.1729  0.9178  0.3125
   79SOPE  H12A 7072   0.878   2.584   7.889  0.4569 -1.3168 -0.4785
   79SOPE  H12B 7073   0.815   2.715   7.790 -3.1572  0.7826 -1.9235
   79SOPE   C11 7074   0.876   2.522   7.667 -0.0994  0.8679  0.4517
   79SOPE  H11A 7075   0.932   2.432   7.701 -1.8623  0.4828  2.5198
   79SOPE  H11B 7076   0.953   2.585   7.617 -0.9132  1.3071 -0.2751
   79SOPE     P 7077   0.731   2.357   7.512  0.0371 -0.1020 -0.1261
   79SOPE   O13 7078   0.591   2.365   7.473 -0.0800  0.5465 -0.0678
   79SOPE   O14 7079   0.766   2.275   7.628  0.6271 -0.1897 -0.2506
   79SOPE   O12 7080   0.767   2.501   7.570  0.3564 -0.0923  0.1872
   79SOPE   O11 7081   0.825   2.332   7.397 -0.1198 -0.3141  0.3101
   79SOPE    C1 7082   0.840   2.439   7.290 -0.2935 -0.4307 -0.6258
   79SOPE    HA 7083   0.915   2.516   7.320 -0.1369 -0.8204  0.0000
   79SOPE    HB 7084   0.747   2.496   7.270  1.2829  2.4663 -0.2864
   79SOPE    C2 7085   0.879   2.372   7.153  0.0087  0.1794 -0.3526
   79SOPE    HS 7086   0.984   2.341   7.173  0.0030  0.4464  0.1005
   79SOPE   O21 7087   0.869   2.465   7.040 -0.0900  0.1646 -0.1855
   79SOPE   C21 7088   0.963   2.557   7.034  0.3318 -0.3520 -0.1704
   79SOPE   O22 7089   1.050   2.575   7.115  0.2533 -0.5574  0.1966
   79SOPE   C22 7090   0.932   2.651   6.913  0.4100 -0.1589 -0.0900
   79SOPE   H2R 7091   0.930   2.756   6.949 -0.2136 -0.2483  0.1584
   79SOPE   H2S 7092   0.840   2.610   6.866  1.1504 -3.2408  0.8893
   79SOPE    C3 7093   0.800   2.245   7.124 -0.1801 -0.3003  0.3367
   79SOPE    HX 7094   0.695   2.276   7.143  0.0236  2.1187 -1.9152
   79SOPE    HY 7095   0.823   2.179   7.210 -5.4584 -1.3309  1.3401
   79SOPE   O31 7096   0.824   2.186   6.998  0.1951 -0.0022  0.2204
   79SOPE   C31 7097   0.737   2.225   6.902  0.2038  0.3029  0.2720
   79SOPE   O32 7098   0.636   2.292   6.913 -0.1268  1.1878  0.0434
   79SOPE   C32 7099   0.797   2.184   6.769 -0.2619  0.4820  0.0106
   79SOPE   H2X 7100   0.835   2.081   6.780 -0.7227  0.3488  0.4318
   79SOPE   H2Y 7101   0.874   2.256   6.735  0.1519  0.0296 -0.0137
   79SOPE   C23 7102   1.044   2.641   6.809 -0.3648 -0.2828 -0.4984
   79SOPE   H3R 7103   1.140   2.635   6.864  0.0468 -1.2564 -1.2879
   79SOPE   H3S 7104   1.060   2.732   6.747  1.2721 -1.4219 -1.8520
   79SOPE   C24 7105   1.026   2.526   6.713  0.1006  0.1617 -0.6911
   79SOPE   H4R 7106   1.047   2.431   6.768 -1.2625  0.7586  0.9259
   79SOPE   H4S 7107   0.918   2.518   6.688 -0.3465  3.4170 -0.1459
   79SOPE   C25 7108   1.122   2.533   6.595 -0.0135 -0.3761 -0.1344
   79SOPE   H5R 7109   1.090   2.625   6.542  0.5206 -0.0394  0.1197
   79SOPE   H5S 7110   1.229   2.545   6.622  0.3597 -1.6749 -0.9606
   79SOPE   C26 7111   1.110   2.409   6.503  0.7274  0.5536  0.4201
   79SOPE   H6R 7112   1.198   2.392   6.436 -0.6757  0.8496 -1.5888
   79SOPE   H6S 7113   1.105   2.323   6.573  4.0107  0.5471  0.7964
   79SOPE   C27 7114   0.982   2.425   6.423  0.2199  0.3547  0.1977
   79SOPE   H7R 7115   0.898   2.378   6.478 -0.8630  0.3176 -1.4335
   79SOPE   H7S 7116   0.954   2.528   6.391 -2.1017 -0.2295  0.1544
   79SOPE   C28 7117   0.988   2.336   6.293  0.1169 -0.4450  0.1218
   79SOPE   H8R 7118   1.084   2.355   6.240  0.9438  0.3123  1.8080
   79SOPE   H8S 7119   0.998   2.234   6.336  1.7617 -0.2754  0.2212
   79SOPE   C29 7120   0.861   2.359   6.208  0.5041  0.0797 -0.3782
   79SOPE   H91 7121   0.773   2.373   6.272  1.7757  1.4033  1.1572
   79SOPE  C210 7122   0.851   2.401   6.079 -0.1387  0.1103 -0.2509
   79SOPE  H101 7123   0.752   2.426   6.037 -1.0627  0.5906  2.0480
   79SOPE  C211 7124   0.967   2.395   5.979 -0.0126  0.5475 -0.0903
   79SOPE  H11R 7125   1.001   2.290   5.968  1.2260  0.8814  0.4225
   79SOPE  H11S 7126   1.051   2.457   6.018  1.7099 -1.2506 -0.7943
   79SOPE  C212 7127   0.919   2.420   5.829  0.1016 -0.1308 -0.2312
   79SOPE  H12R 7128   1.004   2.427   5.759 -0.5959  3.1507 -0.9248
   79SOPE  H12S 7129   0.850   2.507   5.829  0.2389  0.0011  0.9820
   79SOPE  C213 7130   0.832   2.302   5.785 -0.3165 -0.4570  0.9361
   79SOPE  H13R 7131   0.732   2.297   5.834 -0.7367 -0.9309  0.0504
   79SOPE  H13S 7132   0.891   2.210   5.806  1.1580  0.0822 -0.7073
   79SOPE  C214 7133   0.813   2.308   5.633 -0.4048  0.2766 -0.0359
   79SOPE  H14R 7134   0.912   2.301   5.583 -0.6983 -0.5675 -0.5080
   79SOPE  H14S 7135   0.779   2.410   5.602 -2.0181  0.2547  1.4991
   79SOPE  C215 7136   0.716   2.196   5.592  0.3109  0.0415  0.0618
   79SOPE  H15R 7137   0.613   2.224   5.621 -0.6831 -1.3851 -1.8825
   79SOPE  H15S 7138   0.749   2.107   5.649  0.3850  1.1691  1.8625
   79SOPE  C216 7139   0.717   2.156   5.446 -0.9141  0.4073 -0.2680
   79SOPE  H16R 7140   0.673   2.055   5.432  1.4751 -0.8351  0.5583
   79SOPE  H16S 7141   0.822   2.145   5.409 -0.9496 -0.6287 -0.0894
   79SOPE  C217 7142   0.648   2.257   5.361  0.4686 -0.1111 -0.3510
   79SOPE  H17R 7143   0.682   2.356   5.397  0.5590 -0.5984  0.9683
   79SOPE  H17S 7144   0.538   2.241   5.374  0.2266  1.6830  0.0995
   79SOPE  C218 7145   0.686   2.249   5.212 -0.1629  0.8055  0.6110
   79SOPE  H18R 7146   0.796   2.250   5.196 -0.4258  3.1455 -1.7792
   79SOPE  H18S 7147   0.636   2.323   5.146  1.9700  0.0183 -2.0470
   79SOPE  H18T 7148   0.655   2.145   5.187  0.0733  0.4146  1.8753
   79SOPE   C33 7149   0.699   2.189   6.649  0.4050 -0.2730  0.0263
   79SOPE   H3X 7150   0.712   2.287   6.598 -1.0598 -1.6923 -3.3767
   79SOPE   H3Y 7151   0.597   2.165   6.686  0.8083 -2.7684 -0.3400
   79SOPE   C34 7152   0.731   2.079   6.536 -0.3533  0.4707  0.1291
   79SOPE   H4X 7153   0.703   1.978   6.572 -0.3167  0.3584 -0.1486
   79SOPE   H4Y 7154   0.839   2.085   6.508 -0.2582 -1.0917  0.0696
   79SOPE   C35 7155   0.639   2.104   6.413 -0.1375  0.0816 -0.6101
   79SOPE   H5X 7156   0.651   2.204   6.367 -2.5962  0.5463 -0.3876
   79SOPE   H5Y 7157   0.532   2.096   6.443  0.1726 -0.3691  0.4249
   79SOPE   C36 7158   0.667   2.000   6.303  0.4354 -0.3492 -0.2445
   79SOPE   H6X 7159   0.654   1.896   6.340  0.8231 -0.4783 -0.4678
   79SOPE   H6Y 7160   0.773   2.000   6.271  0.1463 -0.6715 -1.2260
   79SOPE   C37 7161   0.590   2.019   6.178  0.3904 -0.0575 -0.1111
   79SOPE   H7X 7162   0.611   2.127   6.158 -1.3880  0.0838 -1.4723
   79SOPE   H7Y 7163   0.480   2.010   6.191  0.0095  0.0122 -2.6618
   79SOPE   C38 7164   0.639   1.947   6.053  0.1352 -0.1022  0.1404
   79SOPE   H8X 7165   0.652   1.838   6.074  0.8303  0.1923  1.3392
   79SOPE   H8Y 7166   0.740   1.984   6.026  1.0042 -2.7627 -0.5739
   79SOPE   C39 7167   0.543   1.979   5.938  0.1776  0.2645 -0.5905
   79SOPE   H9X 7168   0.556   2.082   5.897  0.9901  0.5783  0.4286
   79SOPE   H9Y 7169   0.437   1.970   5.967  0.0637 -0.0491 -1.0935
   79SOPE  C310 7170   0.570   1.875   5.835 -0.3576 -0.9246 -0.1784
   79SOPE  H10X 7171   0.527   1.782   5.879 -1.5803 -0.6949 -0.8445
   79SOPE  H10Y 7172   0.680   1.877   5.822 -0.4623  0.0252 -1.0378
   79SOPE  C311 7173   0.506   1.891   5.700 -0.8208  0.2822  0.2258
   79SOPE  H11X 7174   0.531   1.801   5.640  1.0762  1.1581 -0.3515
   79SOPE  H11Y 7175   0.554   1.971   5.639 -2.5898 -1.0837 -3.2333
   79SOPE  C312 7176   0.351   1.889   5.708  0.0235 -0.2872 -0.2190
   79SOPE  H12X 7177   0.320   1.975   5.771 -0.3302 -1.8888  1.8694
   79SOPE  H12Y 7178   0.306   1.801   5.758 -2.0013  1.2694  0.8298
   79SOPE  C313 7179   0.279   1.902   5.573  0.5345  0.3043  0.1182
   79SOPE  H13X 7180   0.172   1.883   5.598  0.4554  0.8636  0.2373
   79SOPE  H13Y 7181   0.332   1.824   5.515  0.1002  0.1079 -0.0228
   79SOPE  C314 7182   0.301   2.035   5.497 -0.5480  0.2777 -0.1235
   79SOPE  H14X 7183   0.407   2.065   5.510 -0.3762 -1.1809  2.8191
   79SOPE  H14Y 7184   0.240   2.110   5.551 -3.3857 -2.2087  0.4216
   79SOPE  C315 7185   0.256   2.020   5.354  0.0784 -0.3275  0.6613
   79SOPE  H15X 7186   0.148   2.044   5.346  0.4414  1.0970 -0.6119
   79SOPE  H15Y 7187   0.270   1.923   5.303  0.5363 -0.4330  0.9809
   79SOPE  C316 7188   0.334   2.127   5.271 -0.4672  0.0032  0.0373
   79SOPE  H16X 7189   0.439   2.093   5.278 -0.0091  1.1412 -0.8430
   79SOPE  H16Y 7190   0.307   2.225   5.317 -2.8698 -1.4566  1.9553
   79SOPE  C317 7191   0.303   2.123   5.123  0.2786 -0.2574  1.2049
   79SOPE  H17X 7192   0.202   2.170   5.115 -0.2768 -0.7883  4.0486
   79SOPE  H17Y 7193   0.314   2.023   5.075  0.7939  0.4407 -0.1710
   79SOPE  C318 7194   0.398   2.209   5.039 -0.1321  0.4657 -0.2470
   79SOPE  H18X 7195   0.501   2.167   5.032  0.2756  1.0044  1.6697
   79SOPE  H18Y 7196   0.396   2.316   5.072 -1.9037  0.4125 -0.0909
   79SOPE  H18Z 7197   0.360   2.221   4.936  0.8006 -1.0554 -0.7930
   80SOPE     N 7198   6.164   4.691   7.365  0.5730  0.2939 -0.2466
   80SOPE   HN1 7199   6.084   4.716   7.426  0.9100  0.4612  0.1310
   80SOPE   HN2 7200   6.209   4.608   7.409 -1.9069 -0.4206  1.1066
   80SOPE   HN3 7201   6.214   4.781   7.378 -0.2331  0.5209  1.4786
   80SOPE   C12 7202   6.116   4.657   7.228  0.0434 -0.4380  0.2952
   80SOPE  H12A 7203   6.184   4.712   7.159 -2.0951  1.9543 -0.0957
   80SOPE  H12B 7204   6.012   4.697   7.220 -0.3472 -1.5205 -0.1369
   80SOPE   C11 7205   6.097   4.508   7.199 -0.6393  0.5026 -0.6121
   80SOPE  H11A 7206   6.191   4.459   7.164 -0.1085  0.8466  0.3053
   80SOPE  H11B 7207   6.027   4.497   7.113 -0.6780  3.8519 -1.1490
   80SOPE     P 7208   5.886   4.428   7.337  0.1697 -0.0919  0.2406
   80SOPE   O13 7209   5.818   4.552   7.309  0.2603 -0.6434 -0.6706
   80SOPE   O14 7210   5.848   4.373   7.469  0.1545  0.5318  0.5472
   80SOPE   O12 7211   6.042   4.445   7.318  0.0702  0.2938  0.8554
   80SOPE   O11 7212   5.849   4.314   7.228  0.1004 -0.5901  0.0590
   80SOPE    C1 7213   5.709   4.306   7.187 -0.5144  0.1138 -0.8552
   80SOPE    HA 7214   5.641   4.376   7.241 -0.2630 -0.1813 -0.1434
   80SOPE    HB 7215   5.672   4.204   7.209  0.1811 -0.1697 -0.9851
   80SOPE    C2 7216   5.678   4.354   7.038  0.3045 -0.7453 -0.3132
   80SOPE    HS 7217   5.574   4.326   7.010 -0.2386  1.3246 -0.5545
   80SOPE   O21 7218   5.769   4.295   6.947 -0.7326  0.0268 -0.0322
   80SOPE   C21 7219   5.760   4.166   6.914 -0.0993 -0.5350 -0.4454
   80SOPE   O22 7220   5.671   4.091   6.950  0.4009  0.0192  0.4869
   80SOPE   C22 7221   5.879   4.134   6.827 -0.0601  0.2118  0.1838
   80SOPE   H2R 7222   5.959   4.099   6.896 -1.1829 -0.5456  1.1444
   80SOPE   H2S 7223   5.914   4.234   6.793  1.1487 -0.5105 -0.8278
   80SOPE    C3 7224   5.678   4.506   7.018  0.1835  0.0008 -0.0535
   80SOPE    HX 7225   5.775   4.546   7.053 -0.3190  0.7401  0.5431
   80SOPE    HY 7226   5.603   4.562   7.080  0.3613  0.1832 -0.0005
   80SOPE   O31 7227   5.647   4.554   6.882 -0.2551 -0.1965  0.2098
   80SOPE   C31 7228   5.748   4.569   6.800  0.0059  0.2248  0.3552
   80SOPE   O32 7229   5.868   4.576   6.835  0.1072  0.1117 -0.0146
   80SOPE   C32 7230   5.713   4.563   6.649  0.2691  0.1565 -0.4155
   80SOPE   H2X 7231   5.607   4.594   6.642  0.5658  1.0986 -0.8991
   80SOPE   H2Y 7232   5.728   4.455   6.627 -0.3864 -0.8085  3.1426
   80SOPE   C23 7233   5.853   4.021   6.729 -0.6992  0.0418 -0.9436
   80SOPE   H3R 7234   5.818   4.071   6.636  1.5600 -0.3501 -2.0732
   80SOPE   H3S 7235   5.779   3.950   6.771 -0.7224  1.8454  2.4308
   80SOPE   C24 7236   5.976   3.932   6.696 -0.4591 -0.1029  0.2207
   80SOPE   H4R 7237   6.069   3.993   6.697 -0.1313 -0.5805  2.1112
   80SOPE   H4S 7238   5.989   3.859   6.778 -2.4365  2.0276  2.6133
   80SOPE   C25 7239   5.968   3.874   6.555 -0.8621 -0.0175 -0.7570
   80SOPE   H5R 7240   5.862   3.869   6.519 -1.4672 -1.4559  1.0821
   80SOPE   H5S 7241   6.007   3.951   6.485 -2.1300 -0.0146 -1.4975
   80SOPE   C26 7242   6.052   3.747   6.533 -0.8740  0.0226 -0.0404
   80SOPE   H6R 7243   6.078   3.727   6.427  0.5922  1.2765  0.0401
   80SOPE   H6S 7244   6.157   3.762   6.566 -0.3369 -0.8134 -1.3126
   80SOPE   C27 7245   6.009   3.621   6.609 -0.0472 -0.5158 -0.5199
   80SOPE   H7R 7246   6.098   3.580   6.662 -0.1863 -0.0382  0.0928
   80SOPE   H7S 7247   5.927   3.647   6.679  1.2951 -1.5654  1.5491
   80SOPE   C28 7248   5.945   3.513   6.525  0.0434  0.2972  0.1421
   80SOPE   H8R 7249   5.895   3.446   6.598  0.8250  1.2478  1.6086
   80SOPE   H8S 7250   5.860   3.554   6.467  0.1208  0.3412  0.0587
   80SOPE   C29 7251   6.044   3.437   6.437 -0.2424 -0.7253 -0.3877
   80SOPE   H91 7252   6.131   3.401   6.494 -0.3601 -0.5823 -0.1091
   80SOPE  C210 7253   6.031   3.420   6.302 -0.6116 -0.6397 -0.3717
   80SOPE  H101 7254   6.116   3.373   6.251  0.8248  0.9167  0.4931
   80SOPE  C211 7255   5.930   3.468   6.203  0.0435  0.3956 -0.6199
   80SOPE  H11R 7256   5.845   3.515   6.257 -0.2099  0.2908 -0.9220
   80SOPE  H11S 7257   5.887   3.377   6.157 -0.6992  0.1264  0.5717
   80SOPE  C212 7258   5.987   3.546   6.087  0.3278 -0.3909 -0.2084
   80SOPE  H12R 7259   5.892   3.548   6.029 -0.4517  1.6680  1.0184
   80SOPE  H12S 7260   6.070   3.490   6.040  2.4035  1.1913  1.4094
   80SOPE  C213 7261   6.014   3.693   6.102 -0.2372 -0.2784 -0.1617
   80SOPE  H13R 7262   6.124   3.710   6.113 -0.3732 -0.5587  2.0579
   80SOPE  H13S 7263   5.971   3.729   6.198 -0.4255  1.8564 -0.9920
   80SOPE  C214 7264   5.972   3.773   5.975  0.2806  0.4672 -0.0947
   80SOPE  H14R 7265   6.021   3.873   5.973  1.9144 -0.1689  2.3633
   80SOPE  H14S 7266   5.862   3.788   5.971  0.4006  1.2950 -0.4726
   80SOPE  C215 7267   6.018   3.707   5.840  0.2683 -1.2309 -0.7670
   80SOPE  H15R 7268   5.973   3.605   5.835  0.3686 -1.4783  1.8529
   80SOPE  H15S 7269   6.129   3.706   5.848  0.2217  0.8071  0.9273
   80SOPE  C216 7270   5.980   3.807   5.729 -0.4047  0.1818 -0.1159
   80SOPE  H16R 7271   6.034   3.902   5.749  2.4133 -1.3799  0.2898
   80SOPE  H16S 7272   5.871   3.824   5.739 -0.4399  0.0027 -0.1746
   80SOPE  C217 7273   6.006   3.753   5.584 -0.2518  0.0341  0.1426
   80SOPE  H17R 7274   5.965   3.836   5.523 -0.9415 -1.3648 -1.3555
   80SOPE  H17S 7275   5.938   3.668   5.562  0.0264 -0.3926  0.9068
   80SOPE  C218 7276   6.142   3.714   5.544 -0.4124 -0.4629  1.2313
   80SOPE  H18R 7277   6.173   3.637   5.617  0.0011 -0.8149  0.6940
   80SOPE  H18S 7278   6.210   3.802   5.535 -0.7795 -0.3864 -1.8846
   80SOPE  H18T 7279   6.136   3.663   5.445  1.6142  1.3565  0.0636
   80SOPE   C33 7280   5.796   4.653   6.549 -0.2744  0.1389 -0.4476
   80SOPE   H3X 7281   5.904   4.645   6.569 -0.2057  0.7013 -0.5741
   80SOPE   H3Y 7282   5.761   4.758   6.564  2.0234  1.3735 -2.9251
   80SOPE   C34 7283   5.785   4.609   6.400 -1.0564 -0.0691 -0.3194
   80SOPE   H4X 7284   5.676   4.626   6.384 -0.8591 -0.0493 -1.7814
   80SOPE   H4Y 7285   5.825   4.508   6.380  1.9558  1.0337 -0.3960
   80SOPE   C35 7286   5.855   4.715   6.307  0.3194 -0.0172 -0.1271
   80SOPE   H5X 7287   5.966   4.719   6.320  0.1978  0.7895  0.8209
   80SOPE   H5Y 7288   5.813   4.817   6.324  0.7342  0.0159  0.8265
   80SOPE   C36 7289   5.830   4.674   6.162  0.5734 -0.6358 -0.2904
   80SOPE   H6X 7290   5.722   4.695   6.149  0.7301  0.2957 -0.1532
   80SOPE   H6Y 7291   5.859   4.567   6.161 -1.0410 -1.1181  0.8482
   80SOPE   C37 7292   5.903   4.759   6.052  0.2322  0.1258 -0.0285
   80SOPE   H7X 7293   6.011   4.766   6.077  0.3132 -3.8270  1.4067
   80SOPE   H7Y 7294   5.852   4.857   6.040  0.2474  0.0337 -0.9553
   80SOPE   C38 7295   5.882   4.690   5.912 -0.1466  1.1124 -0.3001
   80SOPE   H8X 7296   5.774   4.666   5.898  0.2016 -0.7192 -0.0453
   80SOPE   H8Y 7297   5.927   4.589   5.907 -0.4933  0.9555 -0.3146
   80SOPE   C39 7298   5.936   4.764   5.794 -0.5977  0.1634 -0.0485
   80SOPE   H9X 7299   5.926   4.702   5.703 -0.2399  0.6685 -0.4372
   80SOPE   H9Y 7300   6.044   4.782   5.817 -1.1906  2.4582  1.3085
   80SOPE  C310 7301   5.878   4.901   5.766  0.4167  0.2888  1.1472
   80SOPE  H10X 7302   5.954   4.957   5.707  0.6235 -0.5911  0.5659
   80SOPE  H10Y 7303   5.855   4.956   5.860  1.1293 -0.1141  1.5663
   80SOPE  C311 7304   5.745   4.895   5.687 -0.4336  0.4835 -0.4386
   80SOPE  H11X 7305   5.710   5.000   5.685  0.7943  0.9283  0.5035
   80SOPE  H11Y 7306   5.664   4.839   5.738  0.5764 -2.2761 -1.6127
   80SOPE  C312 7307   5.765   4.836   5.544  1.2289  0.6590  0.2222
   80SOPE  H12X 7308   5.777   4.726   5.552  0.9023  0.6942  1.3539
   80SOPE  H12Y 7309   5.854   4.887   5.501  1.8006  0.0356  0.6474
   80SOPE  C313 7310   5.636   4.861   5.458 -1.0458 -1.2212  0.2019
   80SOPE  H13X 7311   5.615   4.970   5.446  2.7711 -0.6664 -4.9633
   80SOPE  H13Y 7312   5.559   4.822   5.527 -0.1659 -1.0042  1.3569
   80SOPE  C314 7313   5.624   4.795   5.321 -0.2603 -0.5589  0.4838
   80SOPE  H14X 7314   5.518   4.776   5.293  0.1440 -0.5093 -1.1674
   80SOPE  H14Y 7315   5.679   4.698   5.327  0.5385 -0.2940 -1.5622
   80SOPE  C315 7316   5.680   4.884   5.209 -0.1410 -0.0570  0.4328
   80SOPE  H15X 7317   5.788   4.891   5.231  0.4803 -2.1370 -1.6181
   80SOPE  H15Y 7318   5.640   4.985   5.231  0.0738 -0.0373  0.7409
   80SOPE  C316 7319   5.648   4.828   5.068  0.3179  0.1279 -0.9334
   80SOPE  H16X 7320   5.664   4.719   5.081  0.2588  0.3516  1.3545
   80SOPE  H16Y 7321   5.719   4.868   4.992 -0.1366 -0.8677 -1.9146
   80SOPE  C317 7322   5.508   4.870   5.013 -0.3763  0.5675  0.7981
   80SOPE  H17X 7323   5.501   4.978   4.990  0.8423 -0.0233 -2.9846
   80SOPE  H17Y 7324   5.434   4.845   5.092  0.2935 -0.7823  1.0305
   80SOPE  C318 7325   5.459   4.804   4.878 -0.6402 -0.2612 -0.6666
   80SOPE  H18X 7326   5.472   4.694   4.887 -0.2086 -0.0383  1.9928
   80SOPE  H18Y 7327   5.529   4.835   4.797 -2.0953  1.6727 -1.2685
   80SOPE  H18Z 7328   5.351   4.805   4.850 -0.4647  1.0875 -1.3511
   81SOPE     N 7329   2.245   5.113   7.192  0.0663  0.5787  0.1496
   81SOPE   HN1 7330   2.281   5.023   7.155 -0.6236 -0.7168  2.3981
   81SOPE   HN2 7331   2.157   5.087   7.243 -0.3665  0.1492 -0.8007
   81SOPE   HN3 7332   2.229   5.168   7.105  1.5127 -0.3130 -0.7106
   81SOPE   C12 7333   2.362   5.168   7.275  0.5262  0.1999 -0.0829
   81SOPE  H12A 7334   2.449   5.191   7.210 -1.1087  2.3912 -1.6413
   81SOPE  H12B 7335   2.390   5.091   7.350  0.3624  1.7082  1.5930
   81SOPE   C11 7336   2.334   5.305   7.354 -0.0122  0.4212  0.2033
   81SOPE  H11A 7337   2.427   5.328   7.410  0.6018 -1.8171  0.1953
   81SOPE  H11B 7338   2.261   5.273   7.431  1.6640 -1.5371  1.0849
   81SOPE     P 7339   2.278   5.553   7.322 -0.1820  0.5368  0.0326
   81SOPE   O13 7340   2.399   5.623   7.275 -0.2143  0.2772 -0.1602
   81SOPE   O14 7341   2.248   5.551   7.470 -0.6442  0.3356 -0.1547
   81SOPE   O12 7342   2.293   5.403   7.258  0.2947 -0.5030 -0.0481
   81SOPE   O11 7343   2.155   5.617   7.256  0.1639  0.5503  0.1735
   81SOPE    C1 7344   2.040   5.529   7.224 -0.2214 -0.1582  0.8954
   81SOPE    HA 7345   1.952   5.573   7.275 -0.5638  0.0921  0.1037
   81SOPE    HB 7346   2.042   5.422   7.252  1.0140 -1.2125 -2.6452
   81SOPE    C2 7347   2.011   5.516   7.065  0.3175 -0.3754 -0.3868
   81SOPE    HS 7348   1.958   5.423   7.036  0.9927 -0.5901 -0.9458
   81SOPE   O21 7349   2.132   5.533   6.989  0.2365  0.5616  0.0262
   81SOPE   C21 7350   2.211   5.426   6.983 -0.2497 -0.0155 -0.2005
   81SOPE   O22 7351   2.178   5.308   6.999  0.3735 -0.3430 -0.2160
   81SOPE   C22 7352   2.349   5.474   6.932  0.3468  0.7482  0.0062
   81SOPE   H2R 7353   2.405   5.380   6.914 -3.4919 -1.7772  0.0618
   81SOPE   H2S 7354   2.396   5.535   7.012 -0.2311 -0.0735  0.9982
   81SOPE    C3 7355   1.917   5.636   7.021  0.2339 -0.1476  0.4366
   81SOPE    HX 7356   1.963   5.735   7.040  1.6807 -0.1788 -2.3976
   81SOPE    HY 7357   1.819   5.627   7.073 -1.0334  0.1021 -1.7948
   81SOPE   O31 7358   1.883   5.628   6.881 -0.3312 -0.3478 -0.4370
   81SOPE   C31 7359   1.959   5.699   6.793  0.3489 -0.2861  0.2995
   81SOPE   O32 7360   2.057   5.766   6.819  0.6941  0.3203  0.1208
   81SOPE   C32 7361   1.900   5.671   6.653  0.7408  0.2360  0.1601
   81SOPE   H2X 7362   1.803   5.725   6.650  0.8625  0.3966 -2.4898
   81SOPE   H2Y 7363   1.880   5.562   6.650 -0.3775  0.3753  1.3958
   81SOPE   C23 7364   2.343   5.536   6.791 -0.0442 -0.6541 -0.0475
   81SOPE   H3R 7365   2.287   5.631   6.807  1.7019  0.5035 -0.4665
   81SOPE   H3S 7366   2.297   5.461   6.724 -0.1391 -0.4704 -0.1898
   81SOPE   C24 7367   2.480   5.585   6.735 -0.0183 -0.2294  0.2358
   81SOPE   H4R 7368   2.508   5.661   6.811 -1.8675  1.0300 -0.2910
   81SOPE   H4S 7369   2.551   5.500   6.744  1.3138  0.8890  0.6968
   81SOPE   C25 7370   2.452   5.640   6.593 -0.5451  0.1977 -0.0602
   81SOPE   H5R 7371   2.351   5.686   6.590 -1.6287 -2.0388  0.2069
   81SOPE   H5S 7372   2.532   5.716   6.578 -0.0423 -0.5394 -1.2917
   81SOPE   C26 7373   2.462   5.524   6.483 -0.4854  0.5018 -0.3978
   81SOPE   H6R 7374   2.561   5.475   6.480 -0.8249 -0.2077 -0.2423
   81SOPE   H6S 7375   2.391   5.440   6.504  0.1601  0.5216  2.2792
   81SOPE   C27 7376   2.449   5.577   6.334  0.1647  0.2933 -0.0277
   81SOPE   H7R 7377   2.351   5.627   6.321 -0.8793 -1.5004  0.5002
   81SOPE   H7S 7378   2.541   5.634   6.313  0.8176  0.2053  2.3495
   81SOPE   C28 7379   2.438   5.459   6.231 -0.5924 -0.1405 -1.0688
   81SOPE   H8R 7380   2.538   5.411   6.222 -1.7442 -2.8512 -0.2152
   81SOPE   H8S 7381   2.358   5.392   6.269 -0.2308 -0.5396 -1.0061
   81SOPE   C29 7382   2.399   5.505   6.095 -0.4047 -0.4305 -0.6363
   81SOPE   H91 7383   2.442   5.600   6.058  2.1199 -0.4183  1.9966
   81SOPE  C210 7384   2.346   5.438   5.998 -0.2325 -0.2376  1.0378
   81SOPE  H101 7385   2.315   5.478   5.900 -0.0816 -2.0046  0.2205
   81SOPE  C211 7386   2.299   5.295   5.999 -0.0547 -0.0680 -0.7657
   81SOPE  H11R 7387   2.200   5.289   6.049 -0.5851 -1.3488 -1.8819
   81SOPE  H11S 7388   2.360   5.243   6.076 -1.0689  2.1380  1.6669
   81SOPE  C212 7389   2.312   5.223   5.858 -0.4424 -0.8736 -0.1069
   81SOPE  H12R 7390   2.292   5.114   5.858  0.3969 -1.0276 -0.2499
   81SOPE  H12S 7391   2.419   5.220   5.829 -0.8380 -1.6954 -1.5515
   81SOPE  C213 7392   2.201   5.275   5.761 -0.5815 -0.1053  1.0381
   81SOPE  H13R 7393   2.211   5.385   5.767 -1.2658  0.0752 -0.5779
   81SOPE  H13S 7394   2.111   5.227   5.805  0.4956 -0.9369  2.4552
   81SOPE  C214 7395   2.223   5.223   5.616  0.4824 -0.2077 -0.1470
   81SOPE  H14R 7396   2.199   5.115   5.627  0.6627 -0.4156 -1.6405
   81SOPE  H14S 7397   2.329   5.214   5.584 -0.1865 -0.8130 -2.3313
   81SOPE  C215 7398   2.140   5.309   5.521  0.0403 -0.4400  0.8044
   81SOPE  H15R 7399   2.160   5.418   5.533  0.8851 -0.5887  0.7871
   81SOPE  H15S 7400   2.043   5.280   5.566  0.2614 -1.4037  0.6908
   81SOPE  C216 7401   2.154   5.264   5.374  0.3599  0.8507 -0.4443
   81SOPE  H16R 7402   2.151   5.153   5.371 -0.1926  0.8400  0.4254
   81SOPE  H16S 7403   2.252   5.295   5.330  0.4892  0.8846 -0.1315
   81SOPE  C217 7404   2.047   5.322   5.280 -0.1085 -0.3293 -0.7119
   81SOPE  H17R 7405   2.067   5.429   5.260 -0.8931 -0.3214 -1.5190
   81SOPE  H17S 7406   1.948   5.310   5.330 -0.0711 -1.8361 -0.9610
   81SOPE  C218 7407   2.042   5.250   5.148 -0.3193  0.3816 -0.4060
   81SOPE  H18R 7408   1.953   5.188   5.126  0.7129 -1.4517  0.3453
   81SOPE  H18S 7409   2.121   5.172   5.148  0.7993  1.4879 -1.0224
   81SOPE  H18T 7410   2.063   5.305   5.054 -0.0242  0.5227 -0.2608
   81SOPE   C33 7411   1.989   5.709   6.536  0.7153 -0.4072 -0.4404
   81SOPE   H3X 7412   2.067   5.635   6.509 -0.1631 -0.6179 -2.6406
   81SOPE   H3Y 7413   2.040   5.807   6.553  0.9533 -0.8536  1.6568
   81SOPE   C34 7414   1.912   5.711   6.394 -0.6985  0.3989  0.3092
   81SOPE   H4X 7415   1.819   5.770   6.406  0.2349  1.8380  0.7310
   81SOPE   H4Y 7416   1.894   5.607   6.360  1.0252  0.8434 -2.2668
   81SOPE   C35 7417   2.003   5.761   6.283 -0.2314  0.5524  0.3441
   81SOPE   H5X 7418   2.082   5.685   6.268 -0.5081  0.1957  0.6994
   81SOPE   H5Y 7419   2.060   5.855   6.306  3.0106 -1.3284  0.6441
   81SOPE   C36 7420   1.937   5.779   6.150 -0.1277  0.2131 -0.0624
   81SOPE   H6X 7421   1.923   5.886   6.127  1.1351 -0.1395 -2.9011
   81SOPE   H6Y 7422   1.836   5.732   6.151  0.2268 -0.5697  0.3349
   81SOPE   C37 7423   2.018   5.736   6.028  0.0968  0.8194 -0.0374
   81SOPE   H7X 7424   2.034   5.626   6.025 -3.6091  0.1718 -0.4642
   81SOPE   H7Y 7425   2.112   5.796   6.036 -1.1355  2.9257 -0.5999
   81SOPE   C38 7426   1.961   5.771   5.890  0.1459 -0.4003 -0.1855
   81SOPE   H8X 7427   1.963   5.882   5.877 -0.1519 -0.1453  1.6384
   81SOPE   H8Y 7428   1.851   5.758   5.894 -0.1909  1.5245 -1.3828
   81SOPE   C39 7429   2.058   5.706   5.788  0.6895 -0.0380 -0.3487
   81SOPE   H9X 7430   2.048   5.597   5.810  1.7965 -0.2854 -1.0220
   81SOPE   H9Y 7431   2.156   5.747   5.818 -0.0355  0.7808  1.0208
   81SOPE  C310 7432   2.013   5.735   5.648  0.0015  0.0827 -0.0815
   81SOPE  H10X 7433   2.076   5.692   5.567 -0.7602 -1.4692  0.1183
   81SOPE  H10Y 7434   2.004   5.844   5.631  0.2225  0.2950  1.1003
   81SOPE  C311 7435   1.875   5.680   5.600  0.1588  0.0069  0.0532
   81SOPE  H11X 7436   1.803   5.731   5.667  0.1997  2.2591 -1.5167
   81SOPE  H11Y 7437   1.857   5.574   5.631 -2.9786  0.5738  0.5090
   81SOPE  C312 7438   1.866   5.684   5.442 -0.2576 -0.5372  0.3969
   81SOPE  H12X 7439   1.958   5.661   5.384  1.5120  1.7369  2.0811
   81SOPE  H12Y 7440   1.836   5.785   5.407  0.2432  0.0711  1.6237
   81SOPE  C313 7441   1.749   5.586   5.408 -0.7216 -0.0808  0.1442
   81SOPE  H13X 7442   1.760   5.485   5.453 -0.5954 -0.0699  0.1396
   81SOPE  H13Y 7443   1.748   5.563   5.299 -1.6157  0.1630  0.0943
   81SOPE  C314 7444   1.616   5.644   5.457  0.4868 -0.4752 -0.1532
   81SOPE  H14X 7445   1.610   5.751   5.425  0.0034 -0.0436  1.2882
   81SOPE  H14Y 7446   1.618   5.648   5.568 -0.4948  0.4518 -0.1553
   81SOPE  C315 7447   1.496   5.558   5.415  0.3711 -0.1889  0.2487
   81SOPE  H15X 7448   1.509   5.467   5.477 -2.7959  1.4415  3.6160
   81SOPE  H15Y 7449   1.499   5.531   5.307 -1.1666 -1.7564  0.5473
   81SOPE  C316 7450   1.357   5.617   5.444  0.0241 -0.0406 -0.2203
   81SOPE  H16X 7451   1.287   5.559   5.381 -0.9460  1.4070 -0.5284
   81SOPE  H16Y 7452   1.356   5.720   5.403 -0.7022  0.5126  1.1123
   81SOPE  C317 7453   1.317   5.626   5.591  0.5887 -0.4791  0.4591
   81SOPE  H17X 7454   1.405   5.664   5.648  0.5720 -0.2432  0.3300
   81SOPE  H17Y 7455   1.315   5.526   5.639 -1.1250 -0.1453  1.1460
   81SOPE  C318 7456   1.186   5.707   5.617  0.7286 -0.4687  0.3620
   81SOPE  H18X 7457   1.172   5.785   5.539 -1.1793 -1.2362 -0.1130
   81SOPE  H18Y 7458   1.198   5.766   5.711 -0.3197  2.3426 -1.1312
   81SOPE  H18Z 7459   1.092   5.650   5.628 -0.1661  1.1767  1.9222
   82SOPE     N 7460   6.667   0.853   7.401 -0.1147  0.8446  0.4258
   82SOPE   HN1 7461   6.716   0.762   7.409 -1.4636  0.2222  2.1742
   82SOPE   HN2 7462   6.643   0.891   7.494 -1.3930  1.3948 -0.1026
   82SOPE   HN3 7463   6.574   0.838   7.358  0.8494 -0.5835 -1.3209
   82SOPE   C12 7464   6.749   0.951   7.325 -0.3256 -0.2174  0.0231
   82SOPE  H12A 7465   6.682   1.035   7.295  0.0973  0.4142  0.7969
   82SOPE  H12B 7466   6.785   0.914   7.227  3.6288 -0.6187  1.4455
   82SOPE   C11 7467   6.867   1.005   7.417 -0.6188 -0.3756 -0.3233
   82SOPE  H11A 7468   6.809   1.058   7.495 -0.0066  0.1129 -0.1910
   82SOPE  H11B 7469   6.925   1.087   7.368 -0.8859  1.0182  1.5711
   82SOPE     P 7470   7.060   0.839   7.399 -0.0936  0.0485  0.3529
   82SOPE   O13 7471   7.111   0.714   7.461  0.0534  0.5905  0.3267
   82SOPE   O14 7472   7.159   0.946   7.369  0.3217 -0.1167 -0.5375
   82SOPE   O12 7473   6.944   0.901   7.478  0.4231 -0.5638  0.2629
   82SOPE   O11 7474   6.990   0.810   7.259  0.1074  0.7213 -0.6159
   82SOPE    C1 7475   7.066   0.821   7.137 -0.5233 -0.5249  0.0283
   82SOPE    HA 7476   7.123   0.725   7.132 -0.2007 -0.3605  0.5224
   82SOPE    HB 7477   7.142   0.902   7.133 -2.1573  1.0548  0.0684
   82SOPE    C2 7478   6.980   0.814   7.009 -0.1141 -0.8672  0.0256
   82SOPE    HS 7479   7.043   0.799   6.919  0.6674 -0.3466  0.4794
   82SOPE   O21 7480   6.893   0.926   6.996 -0.5467  0.4822 -0.4431
   82SOPE   C21 7481   6.948   1.040   6.971  1.1151 -0.6890  0.2502
   82SOPE   O22 7482   7.059   1.053   6.926  0.4724  0.1264 -0.1519
   82SOPE   C22 7483   6.846   1.149   7.001  0.1590  0.4570  0.0374
   82SOPE   H2R 7484   6.889   1.234   7.059 -1.3685  0.1618  1.6956
   82SOPE   H2S 7485   6.772   1.114   7.075 -0.8817  0.9493 -0.7471
   82SOPE    C3 7486   6.891   0.690   6.995 -0.3596 -0.1480 -0.3143
   82SOPE    HX 7487   6.833   0.700   6.900 -1.0985  4.1022  0.3878
   82SOPE    HY 7488   6.818   0.688   7.079  0.1488  2.4178  0.2893
   82SOPE   O31 7489   6.983   0.576   6.991 -0.0322 -0.1774  0.4250
   82SOPE   C31 7490   6.953   0.476   7.075  0.7051 -0.0251  0.0288
   82SOPE   O32 7491   6.860   0.469   7.156 -0.9097 -0.2538 -0.1119
   82SOPE   C32 7492   7.046   0.355   7.041 -0.6404  0.0429 -0.0401
   82SOPE   H2X 7493   7.099   0.328   7.135 -2.3766 -0.6590  0.7754
   82SOPE   H2Y 7494   7.122   0.384   6.966 -0.9366 -1.3154 -0.9103
   82SOPE   C23 7495   6.774   1.202   6.876 -0.1296 -0.5271  1.1524
   82SOPE   H3R 7496   6.841   1.230   6.791 -1.8783 -1.5260 -0.6434
   82SOPE   H3S 7497   6.707   1.285   6.907 -1.2202 -1.0982  0.4086
   82SOPE   C24 7498   6.678   1.100   6.815  0.8054  0.2378 -0.2366
   82SOPE   H4R 7499   6.736   1.013   6.777 -0.0930 -0.0568 -0.9614
   82SOPE   H4S 7500   6.621   1.046   6.894 -0.6503  0.8864 -0.8165
   82SOPE   C25 7501   6.575   1.152   6.712  0.4136 -0.2416 -0.2789
   82SOPE   H5R 7502   6.511   1.227   6.764 -0.4579 -1.0038 -0.2021
   82SOPE   H5S 7503   6.619   1.194   6.619  0.3450 -0.6097 -0.4793
   82SOPE   C26 7504   6.473   1.043   6.655 -0.4389 -1.3218 -0.4153
   82SOPE   H6R 7505   6.537   0.961   6.616  1.0470 -0.1723 -0.4948
   82SOPE   H6S 7506   6.421   1.000   6.743  0.5066  1.3220  1.5678
   82SOPE   C27 7507   6.396   1.091   6.529  0.2505 -0.4807 -0.1565
   82SOPE   H7R 7508   6.349   1.190   6.547  1.1263  0.4542 -2.6194
   82SOPE   H7S 7509   6.468   1.103   6.445  0.4438  1.0339  0.1999
   82SOPE   C28 7510   6.270   1.005   6.495 -0.4530 -0.4672  0.9312
   82SOPE   H8R 7511   6.234   1.049   6.399  1.4233  0.3540  0.5506
   82SOPE   H8S 7512   6.315   0.909   6.463 -0.0762  0.3093 -1.0522
   82SOPE   C29 7513   6.157   0.995   6.602  0.0516 -0.1465  0.7739
   82SOPE   H91 7514   6.194   0.972   6.703 -0.2873  0.2192  0.9821
   82SOPE  C210 7515   6.026   1.009   6.589  0.3949 -0.0988 -0.1838
   82SOPE  H101 7516   5.953   1.007   6.671 -0.7366  0.6365 -1.1313
   82SOPE  C211 7517   5.961   1.038   6.456  0.3196 -0.2738  0.0503
   82SOPE  H11R 7518   5.892   0.951   6.447  2.9873 -2.6627  1.2621
   82SOPE  H11S 7519   6.027   1.048   6.368  0.1633  2.0696  0.1361
   82SOPE  C212 7520   5.879   1.168   6.465 -0.1116 -0.0155  0.1809
   82SOPE  H12R 7521   5.947   1.254   6.483  1.0713 -1.1276  1.1992
   82SOPE  H12S 7522   5.809   1.166   6.551 -1.6571 -0.9757 -1.0385
   82SOPE  C213 7523   5.806   1.205   6.331  0.9856 -0.2862 -0.1627
   82SOPE  H13R 7524   5.878   1.207   6.246  0.1569  2.1710 -0.8972
   82SOPE  H13S 7525   5.762   1.307   6.331  1.4703 -0.0103  2.3440
   82SOPE  C214 7526   5.696   1.104   6.298  0.1373  0.1809  0.4592
   82SOPE  H14R 7527   5.608   1.099   6.365  0.2614 -0.1373  0.5990
   82SOPE  H14S 7528   5.738   1.002   6.311  0.2534  0.0426 -0.8419
   82SOPE  C215 7529   5.645   1.106   6.145  0.4412  0.3155 -0.3051
   82SOPE  H15R 7530   5.579   1.020   6.121 -0.1556 -0.3110  3.0323
   82SOPE  H15S 7531   5.732   1.103   6.076  0.5565 -0.3470 -0.1359
   82SOPE  C216 7532   5.573   1.231   6.097  0.3020 -0.1740 -0.3024
   82SOPE  H16R 7533   5.616   1.318   6.152 -0.4044 -0.1651  0.2524
   82SOPE  H16S 7534   5.469   1.229   6.136  0.6330 -0.8837  0.5672
   82SOPE  C217 7535   5.582   1.255   5.948  0.0213 -0.2199  0.0682
   82SOPE  H17R 7536   5.537   1.172   5.890  0.6307 -1.9974  2.0444
   82SOPE  H17S 7537   5.689   1.270   5.921  0.3603  2.0783  2.2073
   82SOPE  C218 7538   5.522   1.391   5.911 -0.3731 -0.4602 -0.6470
   82SOPE  H18R 7539   5.562   1.477   5.968 -0.8914  0.2081 -1.2836
   82SOPE  H18S 7540   5.414   1.369   5.923 -0.7163  1.6315  0.4513
   82SOPE  H18T 7541   5.530   1.413   5.802  0.2199 -0.6036 -0.6389
   82SOPE   C33 7542   6.972   0.231   6.990  0.6607  0.0769  0.0142
   82SOPE   H3X 7543   6.896   0.209   7.068  1.4626  0.4691  0.9228
   82SOPE   H3Y 7544   7.043   0.147   6.971  0.8881  0.2794 -0.0337
   82SOPE   C34 7545   6.918   0.258   6.850 -0.5361  0.0127  0.0186
   82SOPE   H4X 7546   6.985   0.310   6.778 -0.6163 -0.3249 -0.3007
   82SOPE   H4Y 7547   6.827   0.320   6.865  0.6950  2.6739 -2.5460
   82SOPE   C35 7548   6.885   0.124   6.773  0.3911  0.0605  0.1376
   82SOPE   H5X 7549   6.811   0.064   6.830 -0.1928 -0.5178 -1.1765
   82SOPE   H5Y 7550   6.980   0.072   6.750  0.8145  1.5405 -1.6617
   82SOPE   C36 7551   6.812   0.156   6.635 -1.0766 -0.4601 -0.1361
   82SOPE   H6X 7552   6.711   0.191   6.667  0.1383  1.7952  1.5856
   82SOPE   H6Y 7553   6.802   0.065   6.573 -3.7699  0.0106 -0.5297
   82SOPE   C37 7554   6.886   0.266   6.559 -0.4394  0.8972 -0.1045
   82SOPE   H7X 7555   6.991   0.234   6.542 -0.3938  0.6926  0.5367
   82SOPE   H7Y 7556   6.905   0.361   6.612  4.1985  1.2133 -1.9200
   82SOPE   C38 7557   6.817   0.301   6.424 -0.8072  0.1023 -0.2637
   82SOPE   H8X 7558   6.804   0.411   6.421 -1.1042  0.4656  5.1246
   82SOPE   H8Y 7559   6.713   0.261   6.428 -1.3667  1.6015  1.6216
   82SOPE   C39 7560   6.888   0.245   6.299  0.3022 -0.5206 -0.1099
   82SOPE   H9X 7561   6.896   0.134   6.300 -4.1541 -1.0263  0.2392
   82SOPE   H9Y 7562   6.982   0.304   6.302  0.2361 -0.4252  0.0946
   82SOPE  C310 7563   6.805   0.284   6.180  0.7698  0.0086 -0.2832
   82SOPE  H10X 7564   6.780   0.392   6.192 -0.2280 -0.3562  1.0968
   82SOPE  H10Y 7565   6.713   0.222   6.182  0.5209  0.3860  0.3398
   82SOPE  C311 7566   6.880   0.267   6.050 -0.0974 -0.1008  0.3820
   82SOPE  H11X 7567   6.897   0.160   6.024 -2.5380 -0.5632  0.4752
   82SOPE  H11Y 7568   6.979   0.318   6.046  0.2246 -0.5883  1.6353
   82SOPE  C312 7569   6.826   0.355   5.934  0.2301 -0.1906  0.2824
   82SOPE  H12X 7570   6.843   0.463   5.956 -1.9037  0.2193  0.1602
   82SOPE  H12Y 7571   6.716   0.350   5.919  0.2902  0.3603 -0.4060
   82SOPE  C313 7572   6.880   0.307   5.793  0.7211  0.1500 -0.0177
   82SOPE  H13X 7573   6.806   0.230   5.761 -0.0311  0.5130  0.8166
   82SOPE  H13Y 7574   6.978   0.256   5.807 -0.6897 -3.5921 -2.0644
   82SOPE  C314 7575   6.889   0.421   5.687 -0.0087  0.2480 -0.1334
   82SOPE  H14X 7576   6.973   0.489   5.714 -2.3807  2.6421  1.7867
   82SOPE  H14Y 7577   6.797   0.481   5.701 -0.6669 -0.5084 -1.1551
   82SOPE  C315 7578   6.893   0.380   5.545 -0.4589 -0.3044  0.7773
   82SOPE  H15X 7579   6.806   0.316   5.518  0.5667 -1.7904  0.8986
   82SOPE  H15Y 7580   6.984   0.316   5.538 -0.3902 -0.0431 -2.2146
   82SOPE  C316 7581   6.891   0.506   5.446  0.2242  0.0697 -0.5379
   82SOPE  H16X 7582   6.989   0.554   5.466  0.3491 -1.1706  2.3895
   82SOPE  H16Y 7583   6.815   0.581   5.480 -0.2139 -0.1556 -1.0098
   82SOPE  C317 7584   6.878   0.468   5.291  0.4479 -0.4472 -0.4105
   82SOPE  H17X 7585   6.864   0.563   5.234 -0.8167 -0.2295  0.2405
   82SOPE  H17Y 7586   6.787   0.407   5.277 -0.3209  1.2034 -3.8382
   82SOPE  C318 7587   7.004   0.395   5.249 -0.0568  0.1615  0.5028
   82SOPE  H18X 7588   7.018   0.302   5.307  1.5025  0.8652  1.3005
   82SOPE  H18Y 7589   7.094   0.458   5.264  0.6789 -0.2041 -1.9377
   82SOPE  H18Z 7590   6.999   0.364   5.143  0.8296 -0.9341  0.7694
   83SOPE     N 7591   6.207   6.255   3.080 -0.0677  0.2216  0.8068
   83SOPE   HN1 7592   6.251   6.219   3.168 -0.4244  2.2427  1.8793
   83SOPE   HN2 7593   6.106   6.231   3.068  0.2538  0.3017 -3.5595
   83SOPE   HN3 7594   6.251   6.191   3.011 -0.7498 -2.2252  2.5111
   83SOPE   C12 7595   6.238   6.402   3.068 -0.0513  0.1199 -0.2473
   83SOPE  H12A 7596   6.212   6.463   3.157 -0.4896  1.0509 -1.0016
   83SOPE  H12B 7597   6.187   6.447   2.981  0.4380  2.5027  0.6390
   83SOPE   C11 7598   6.392   6.426   3.047  0.3534 -0.5728  0.1938
   83SOPE  H11A 7599   6.437   6.379   3.137 -1.0446 -0.8673  0.7677
   83SOPE  H11B 7600   6.405   6.536   3.039  1.9115 -0.7870 -0.6316
   83SOPE     P 7601   6.592   6.365   2.898 -0.5366  0.2257 -0.4980
   83SOPE   O13 7602   6.647   6.504   2.920  0.2099 -0.3293  0.1423
   83SOPE   O14 7603   6.609   6.309   2.759 -0.2151  0.2735  0.0319
   83SOPE   O12 7604   6.438   6.363   2.926  0.2305  0.0682  0.5004
   83SOPE   O11 7605   6.650   6.267   3.010 -0.5290 -0.4129  0.3686
   83SOPE    C1 7606   6.634   6.121   3.001  0.2121 -0.3960 -0.0082
   83SOPE    HA 7607   6.626   6.074   2.901  0.6993 -1.5492  0.4768
   83SOPE    HB 7608   6.532   6.097   3.037 -0.4410 -1.5646 -2.4508
   83SOPE    C2 7609   6.729   6.043   3.099  0.4571 -0.1330  0.2494
   83SOPE    HS 7610   6.663   5.960   3.134 -0.6118  0.7057  0.2620
   83SOPE   O21 7611   6.778   6.123   3.208 -0.0866  0.0274  0.1485
   83SOPE   C21 7612   6.682   6.168   3.280  0.1016 -0.7111  0.3180
   83SOPE   O22 7613   6.572   6.115   3.285  0.5264  0.0352  0.2441
   83SOPE   C22 7614   6.741   6.284   3.372  0.3444  0.5456 -0.3325
   83SOPE   H2R 7615   6.687   6.370   3.326 -2.4598  0.4145  2.3933
   83SOPE   H2S 7616   6.852   6.285   3.371  0.3931 -0.7465  1.0064
   83SOPE    C3 7617   6.839   5.969   3.026  0.4397  0.3528 -0.3597
   83SOPE    HX 7618   6.914   6.050   3.012  0.7179 -0.1638 -2.0996
   83SOPE    HY 7619   6.805   5.939   2.925  0.4891  0.4159 -0.3957
   83SOPE   O31 7620   6.883   5.860   3.107 -1.0828  0.0372 -0.0127
   83SOPE   C31 7621   7.002   5.810   3.055 -0.5416 -0.0404 -0.4639
   83SOPE   O32 7622   7.055   5.856   2.954 -0.0185 -0.0981 -0.1096
   83SOPE   C32 7623   7.053   5.698   3.157  0.0166  0.3605  0.1759
   83SOPE   H2X 7624   7.017   5.723   3.259  1.0698  0.7835  0.4571
   83SOPE   H2Y 7625   7.164   5.703   3.151 -0.0098 -0.4242 -2.6571
   83SOPE   C23 7626   6.687   6.275   3.517 -0.7257  1.1879  0.0770
   83SOPE   H3R 7627   6.740   6.195   3.573  1.3325  2.3599 -0.1026
   83SOPE   H3S 7628   6.580   6.258   3.494 -0.6320 -0.5383  0.8019
   83SOPE   C24 7629   6.709   6.407   3.591  0.0212  0.0335  0.0551
   83SOPE   H4R 7630   6.817   6.432   3.599  0.9552 -3.5608  0.5807
   83SOPE   H4S 7631   6.670   6.493   3.533  0.1108  0.7370  1.0046
   83SOPE   C25 7632   6.640   6.398   3.730 -0.2219 -0.1708 -0.4956
   83SOPE   H5R 7633   6.534   6.367   3.718 -0.2444  0.1443 -1.1817
   83SOPE   H5S 7634   6.696   6.325   3.792  1.0920  2.0477  1.1019
   83SOPE   C26 7635   6.647   6.532   3.807  0.0065 -0.1062  0.8252
   83SOPE   H6R 7636   6.752   6.566   3.811 -0.7794  2.7195 -0.3460
   83SOPE   H6S 7637   6.593   6.602   3.740  1.1224 -0.7450 -0.7817
   83SOPE   C27 7638   6.592   6.526   3.949 -0.1931 -0.2598  0.2058
   83SOPE   H7R 7639   6.502   6.461   3.945 -0.2977 -0.0676 -0.8017
   83SOPE   H7S 7640   6.652   6.468   4.022 -0.7306  0.9994  1.7073
   83SOPE   C28 7641   6.562   6.662   4.013  0.4445 -0.0923 -0.5739
   83SOPE   H8R 7642   6.507   6.733   3.947  3.4069  1.1450 -1.8746
   83SOPE   H8S 7643   6.490   6.641   4.096 -0.4138 -0.3381 -1.3549
   83SOPE   C29 7644   6.685   6.733   4.056  0.0256 -0.1783 -0.0154
   83SOPE   H91 7645   6.751   6.765   3.975  0.4567  0.2285  0.4937
   83SOPE  C210 7646   6.724   6.747   4.183 -0.1061 -0.2154  0.8391
   83SOPE  H101 7647   6.809   6.810   4.214 -1.4482  2.6199 -0.8918
   83SOPE  C211 7648   6.654   6.680   4.302 -0.7474 -0.2279 -0.1474
   83SOPE  H11R 7649   6.717   6.602   4.349 -1.1494 -1.5760 -1.7503
   83SOPE  H11S 7650   6.559   6.626   4.280  0.0693 -1.8909  0.2527
   83SOPE  C212 7651   6.615   6.794   4.402 -0.0652  0.0915 -0.3019
   83SOPE  H12R 7652   6.698   6.867   4.411 -0.3333  0.4231 -0.4898
   83SOPE  H12S 7653   6.593   6.740   4.496 -0.3155  0.2747 -0.2569
   83SOPE  C213 7654   6.491   6.886   4.373  0.9940 -0.7211  0.1657
   83SOPE  H13R 7655   6.506   6.940   4.276  0.8625 -0.4719  0.2820
   83SOPE  H13S 7656   6.493   6.956   4.459  2.0312 -2.0434  1.2551
   83SOPE  C214 7657   6.361   6.805   4.348 -0.0970  0.7612  0.3262
   83SOPE  H14R 7658   6.373   6.747   4.254 -0.8785  1.8356 -0.4514
   83SOPE  H14S 7659   6.274   6.872   4.336  0.1390  1.4203  2.0558
   83SOPE  C215 7660   6.321   6.708   4.464  0.5523 -0.2983 -0.0322
   83SOPE  H15R 7661   6.280   6.766   4.549  0.8892  0.1836 -0.1920
   83SOPE  H15S 7662   6.409   6.644   4.490 -0.5765 -1.9134 -0.0198
   83SOPE  C216 7663   6.205   6.609   4.434 -0.2404  0.6066  0.7900
   83SOPE  H16R 7664   6.248   6.526   4.375  0.8175 -0.3162  2.7640
   83SOPE  H16S 7665   6.110   6.642   4.387 -1.1508  1.6507  3.1784
   83SOPE  C217 7666   6.154   6.535   4.560 -0.4130  0.0232  0.4196
   83SOPE  H17R 7667   6.070   6.467   4.532 -1.0072 -0.1039  2.3199
   83SOPE  H17S 7668   6.108   6.614   4.622  0.0486 -0.8240  1.8966
   83SOPE  C218 7669   6.252   6.449   4.640 -0.7317 -0.4228 -0.0835
   83SOPE  H18R 7670   6.191   6.430   4.731  0.6827  0.0757  0.9980
   83SOPE  H18S 7671   6.345   6.501   4.671 -1.0527  0.6859 -0.8794
   83SOPE  H18T 7672   6.276   6.353   4.590 -0.2560  0.3067 -1.3097
   83SOPE   C33 7673   7.021   5.556   3.098 -0.3014  0.1324 -0.4382
   83SOPE   H3X 7674   7.061   5.557   2.995  0.9796  1.4936  0.0375
   83SOPE   H3Y 7675   6.911   5.552   3.086 -0.3369  1.0782 -0.4923
   83SOPE   C34 7676   7.066   5.436   3.180  0.3235  0.2671  1.3542
   83SOPE   H4X 7677   7.176   5.421   3.186  0.4059  0.8112  1.2436
   83SOPE   H4Y 7678   7.036   5.344   3.124  0.5542  0.0234  1.6327
   83SOPE   C35 7679   6.999   5.427   3.316 -0.3399  0.1552  0.3900
   83SOPE   H5X 7680   6.890   5.442   3.308 -0.5037 -0.1963  1.8044
   83SOPE   H5Y 7681   7.039   5.509   3.379  0.7676 -1.6556  2.1707
   83SOPE   C36 7682   7.042   5.295   3.365 -0.4851 -0.1083 -0.3918
   83SOPE   H6X 7683   7.152   5.284   3.378 -0.3354  1.7886  0.1822
   83SOPE   H6Y 7684   7.001   5.222   3.291  0.0914 -1.7640  0.8487
   83SOPE   C37 7685   6.976   5.255   3.501  0.1423  0.3647 -0.2535
   83SOPE   H7X 7686   6.983   5.144   3.504  0.5011  0.3830 -0.3101
   83SOPE   H7Y 7687   6.867   5.275   3.508  0.3726  1.6414  0.0012
   83SOPE   C38 7688   7.045   5.322   3.622 -0.5338  0.3353  0.2832
   83SOPE   H8X 7689   7.020   5.429   3.638  0.0699  0.9408 -2.3291
   83SOPE   H8Y 7690   7.155   5.328   3.608 -0.4201 -2.1779 -0.4541
   83SOPE   C39 7691   7.003   5.258   3.759 -0.6692  0.1466 -0.0969
   83SOPE   H9X 7692   7.038   5.153   3.760 -3.1750 -0.7591 -0.8282
   83SOPE   H9Y 7693   6.892   5.251   3.758 -0.6146 -1.0823 -1.6984
   83SOPE  C310 7694   7.057   5.331   3.886  0.0984  0.0826  1.0130
   83SOPE  H10X 7695   7.042   5.439   3.864 -1.3368 -0.2887 -0.0285
   83SOPE  H10Y 7696   7.167   5.316   3.883 -0.2040 -2.2879 -0.1642
   83SOPE  C311 7697   7.019   5.265   4.014  0.0466 -0.0680 -0.3540
   83SOPE  H11X 7698   7.052   5.159   4.005 -0.1875 -0.1319 -0.4708
   83SOPE  H11Y 7699   6.909   5.266   4.028  0.2273  1.3986  1.1818
   83SOPE  C312 7700   7.098   5.336   4.133  0.8807  0.6325 -0.0515
   83SOPE  H12X 7701   7.087   5.445   4.116 -1.1718  0.2149 -1.8893
   83SOPE  H12Y 7702   7.205   5.305   4.136  0.6028 -0.2691  1.2011
   83SOPE  C313 7703   7.041   5.293   4.266 -0.1521  0.1110  0.3819
   83SOPE  H13X 7704   7.055   5.183   4.264  1.3527  0.2920 -1.2805
   83SOPE  H13Y 7705   6.935   5.326   4.273  0.0121  0.6145  0.5599
   83SOPE  C314 7706   7.102   5.351   4.393 -0.4257 -0.2138 -0.4022
   83SOPE  H14X 7707   7.084   5.459   4.372  1.5627 -0.1229 -1.9720
   83SOPE  H14Y 7708   7.210   5.340   4.415  0.1653  3.1895 -1.0159
   83SOPE  C315 7709   7.026   5.305   4.520  0.4480  0.2759 -0.5137
   83SOPE  H15X 7710   7.056   5.200   4.542 -0.7727  0.5797  3.3327
   83SOPE  H15Y 7711   6.919   5.323   4.496  0.4325 -0.6689 -1.2380
   83SOPE  C316 7712   7.066   5.382   4.646  0.9557 -0.5027  0.8023
   83SOPE  H16X 7713   7.021   5.483   4.639 -0.6624 -1.2293  0.1323
   83SOPE  H16Y 7714   7.175   5.387   4.662  1.2763 -1.2799 -0.9067
   83SOPE  C317 7715   7.006   5.313   4.769 -0.5218  0.0967 -0.7037
   83SOPE  H17X 7716   7.056   5.214   4.780  0.4152  0.6900  0.6803
   83SOPE  H17Y 7717   6.903   5.283   4.740 -0.7218  0.8327 -0.7569
   83SOPE  C318 7718   7.011   5.399   4.901 -0.0602  0.1273  1.1160
   83SOPE  H18X 7719   6.978   5.344   4.991 -2.5163  0.2134  0.3595
   83SOPE  H18Y 7720   6.947   5.489   4.885 -1.0406 -0.5471  1.1805
   83SOPE  H18Z 7721   7.114   5.438   4.914  1.2562 -3.0768  0.9800
   84SOPE     N 7722   5.605   2.706   7.687  0.4232 -0.4060 -0.1130
   84SOPE   HN1 7723   5.540   2.699   7.768  0.7891 -0.4600  0.1802
   84SOPE   HN2 7724   5.694   2.754   7.709  0.6968 -1.2714  0.7078
   84SOPE   HN3 7725   5.556   2.760   7.613 -0.8280  0.8130  1.5330
   84SOPE   C12 7726   5.618   2.561   7.646  0.3549 -0.1168  0.0100
   84SOPE  H12A 7727   5.518   2.515   7.665  0.0610 -0.1849 -1.5714
   84SOPE  H12B 7728   5.691   2.517   7.717  0.0024  0.2044  0.5768
   84SOPE   C11 7729   5.652   2.547   7.499  0.2982 -0.1612 -0.6460
   84SOPE  H11A 7730   5.644   2.439   7.476  1.4725  0.0745 -2.3327
   84SOPE  H11B 7731   5.755   2.574   7.468  0.6714 -0.5120  0.2457
   84SOPE     P 7732   5.437   2.583   7.348 -0.4895  0.0916  0.0046
   84SOPE   O13 7733   5.420   2.683   7.239  0.0692  0.0378  0.3399
   84SOPE   O14 7734   5.332   2.559   7.444 -0.3302 -0.7382 -0.6493
   84SOPE   O12 7735   5.563   2.628   7.424 -0.7676 -0.2383  0.3997
   84SOPE   O11 7736   5.481   2.443   7.284 -0.4948 -0.5937 -0.0856
   84SOPE    C1 7737   5.598   2.418   7.208  0.0869  0.7459  0.0678
   84SOPE    HA 7738   5.627   2.318   7.244 -5.2405 -1.2183 -0.2091
   84SOPE    HB 7739   5.664   2.506   7.221 -0.3842  1.1325 -0.1173
   84SOPE    C2 7740   5.564   2.406   7.053 -0.4956  0.2084 -0.3313
   84SOPE    HS 7741   5.643   2.337   7.016  2.4100  2.5920  1.0060
   84SOPE   O21 7742   5.579   2.534   6.987  0.1679  0.5080 -0.3441
   84SOPE   C21 7743   5.622   2.538   6.867  0.0241  0.8409  0.0852
   84SOPE   O22 7744   5.676   2.445   6.809 -0.2873 -0.1301  0.5720
   84SOPE   C22 7745   5.622   2.687   6.814 -0.3502  0.1818 -0.1023
   84SOPE   H2R 7746   5.644   2.760   6.895  0.0800 -0.2343  0.1665
   84SOPE   H2S 7747   5.519   2.701   6.776 -0.1411 -0.8000 -1.1021
   84SOPE    C3 7748   5.424   2.345   7.025 -0.4488 -0.7386 -1.0905
   84SOPE    HX 7749   5.358   2.416   7.079 -0.9197 -0.5143 -1.9580
   84SOPE    HY 7750   5.427   2.255   7.091  1.2493  0.6871  0.9394
   84SOPE   O31 7751   5.385   2.309   6.889  0.3192  0.3923  0.2667
   84SOPE   C31 7752   5.306   2.388   6.822 -0.1091 -0.1536  0.2859
   84SOPE   O32 7753   5.254   2.489   6.862  0.3753  0.2927 -1.4243
   84SOPE   C32 7754   5.291   2.333   6.679 -0.0728 -0.5073 -0.2225
   84SOPE   H2X 7755   5.258   2.415   6.612  2.8652 -0.3059 -1.5810
   84SOPE   H2Y 7756   5.202   2.268   6.690 -0.7849  0.2170 -1.4591
   84SOPE   C23 7757   5.726   2.721   6.701  0.1283  0.0960  0.0487
   84SOPE   H3R 7758   5.811   2.651   6.719 -0.1610  0.0830  1.5312
   84SOPE   H3S 7759   5.759   2.826   6.714  1.2372  0.0443 -2.0103
   84SOPE   C24 7760   5.668   2.711   6.558  1.1998 -0.0439 -0.5013
   84SOPE   H4R 7761   5.565   2.751   6.561  1.2934  0.2117 -0.6379
   84SOPE   H4S 7762   5.731   2.773   6.489  1.4684  2.3509  1.7157
   84SOPE   C25 7763   5.673   2.571   6.496  0.5672  0.9090 -0.1963
   84SOPE   H5R 7764   5.756   2.516   6.543 -0.1110  1.9499  2.4031
   84SOPE   H5S 7765   5.578   2.517   6.515  0.4890  1.4689  1.0890
   84SOPE   C26 7766   5.708   2.578   6.345  0.5345 -0.0690  0.2032
   84SOPE   H6R 7767   5.798   2.639   6.321  2.6113 -2.7323  0.7714
   84SOPE   H6S 7768   5.718   2.473   6.312 -1.3632  0.0621 -0.9520
   84SOPE   C27 7769   5.593   2.650   6.268  0.5809 -0.6427  0.0536
   84SOPE   H7R 7770   5.502   2.587   6.260 -1.0359  1.4741  0.6549
   84SOPE   H7S 7771   5.567   2.737   6.333  1.4792  0.5092 -1.0797
   84SOPE   C28 7772   5.626   2.683   6.122 -0.1484  0.4653  0.2795
   84SOPE   H8R 7773   5.539   2.726   6.069 -0.4428 -2.4326 -1.8657
   84SOPE   H8S 7774   5.697   2.767   6.134  1.9425 -1.0227 -0.8722
   84SOPE   C29 7775   5.689   2.570   6.040 -0.4966 -0.1494  0.1052
   84SOPE   H91 7776   5.659   2.468   6.069 -0.4395 -0.1399  0.1988
   84SOPE  C210 7777   5.798   2.583   5.953 -0.0725 -0.7362  0.3488
   84SOPE  H101 7778   5.834   2.495   5.899 -2.7120 -1.2701 -0.6892
   84SOPE  C211 7779   5.868   2.709   5.910  0.1414  0.1445 -0.4475
   84SOPE  H11R 7780   5.977   2.696   5.930  1.0702  2.3676 -3.3479
   84SOPE  H11S 7781   5.834   2.795   5.971  1.4746 -0.3711  1.1189
   84SOPE  C212 7782   5.852   2.742   5.758 -0.4753  0.5620 -0.9871
   84SOPE  H12R 7783   5.878   2.653   5.698  1.2559  0.7214 -0.5346
   84SOPE  H12S 7784   5.929   2.820   5.737 -0.5688  0.2986 -2.3409
   84SOPE  C213 7785   5.715   2.789   5.722  0.1014 -0.5077 -0.1935
   84SOPE  H13R 7786   5.681   2.866   5.796  2.6163  0.0908  0.4125
   84SOPE  H13S 7787   5.646   2.702   5.731 -0.8840 -0.0153 -2.4186
   84SOPE  C214 7788   5.693   2.854   5.584 -0.3324  0.2873  0.7708
   84SOPE  H14R 7789   5.778   2.922   5.560 -1.6696  1.5734 -0.4568
   84SOPE  H14S 7790   5.601   2.916   5.591  2.1799  4.2211  2.9213
   84SOPE  C215 7791   5.683   2.749   5.461  0.4021 -0.6281 -0.1392
   84SOPE  H15R 7792   5.600   2.679   5.484  0.0632 -0.7952 -1.7701
   84SOPE  H15S 7793   5.783   2.709   5.435  1.0978  0.0168  1.4411
   84SOPE  C216 7794   5.624   2.819   5.334  0.5657  0.1236 -0.8932
   84SOPE  H16R 7795   5.684   2.910   5.310  0.2923  1.0570  1.6524
   84SOPE  H16S 7796   5.525   2.863   5.357 -0.3319 -1.3562 -1.7778
   84SOPE  C217 7797   5.602   2.729   5.211  0.7177  0.4223 -0.2907
   84SOPE  H17R 7798   5.497   2.693   5.201  1.0646 -1.1211  1.1063
   84SOPE  H17S 7799   5.649   2.632   5.239 -1.3449 -0.7457 -0.6952
   84SOPE  C218 7800   5.669   2.780   5.088  0.3570 -0.2031 -0.2047
   84SOPE  H18R 7801   5.779   2.775   5.100  0.6228 -0.5341 -2.4340
   84SOPE  H18S 7802   5.635   2.882   5.061  1.9984  0.9132  1.7068
   84SOPE  H18T 7803   5.646   2.713   5.002  1.4175  0.0156 -0.6770
   84SOPE   C33 7804   5.415   2.275   6.614 -0.0104  0.0743  0.5974
   84SOPE   H3X 7805   5.468   2.199   6.675 -0.3841 -0.6213  0.0724
   84SOPE   H3Y 7806   5.493   2.354   6.600  0.2395  0.1851  2.4317
   84SOPE   C34 7807   5.392   2.219   6.468  0.8197  0.3989  0.2685
   84SOPE   H4X 7808   5.335   2.124   6.474  1.0825  0.1445 -0.8948
   84SOPE   H4Y 7809   5.488   2.191   6.419 -0.5577 -2.7875 -0.8974
   84SOPE   C35 7810   5.324   2.318   6.374 -0.1379 -0.5941  0.0065
   84SOPE   H5X 7811   5.402   2.396   6.361  0.1293 -0.6485  1.2071
   84SOPE   H5Y 7812   5.233   2.365   6.418  1.4178  0.4578  2.3013
   84SOPE   C36 7813   5.291   2.261   6.235  0.1284 -0.4603  0.2999
   84SOPE   H6X 7814   5.185   2.229   6.242  0.1561 -0.5987  0.0845
   84SOPE   H6Y 7815   5.352   2.176   6.198  2.2909  1.0895  0.0889
   84SOPE   C37 7816   5.293   2.368   6.117 -0.4364 -0.0349 -0.6209
   84SOPE   H7X 7817   5.392   2.417   6.127 -0.6042 -0.0884  2.3463
   84SOPE   H7Y 7818   5.212   2.440   6.141 -0.4329 -0.6038  1.3115
   84SOPE   C38 7819   5.287   2.309   5.979  0.2512  0.4990 -0.3040
   84SOPE   H8X 7820   5.183   2.274   5.963  0.2059  1.1568 -1.5402
   84SOPE   H8Y 7821   5.341   2.212   5.966 -0.8468 -0.3310  1.0193
   84SOPE   C39 7822   5.316   2.409   5.869  0.6465  0.1905  0.9131
   84SOPE   H9X 7823   5.417   2.453   5.886  0.1657  0.9154  2.0835
   84SOPE   H9Y 7824   5.247   2.497   5.872  1.7772  1.2438 -1.5066
   84SOPE  C310 7825   5.304   2.344   5.729 -0.3246  0.2789  0.4313
   84SOPE  H10X 7826   5.198   2.324   5.703 -0.9835  0.8561  2.4538
   84SOPE  H10Y 7827   5.364   2.252   5.744  0.7683  1.2234  2.2171
   84SOPE  C311 7828   5.362   2.420   5.611 -1.0930 -0.4156 -1.0428
   84SOPE  H11X 7829   5.469   2.445   5.632 -1.3377 -1.3443  1.8594
   84SOPE  H11Y 7830   5.303   2.514   5.610 -1.4433 -0.6274 -0.5917
   84SOPE  C312 7831   5.357   2.353   5.475 -0.5791  0.1381  0.0497
   84SOPE  H12X 7832   5.252   2.340   5.443 -0.7187  0.2572  0.4579
   84SOPE  H12Y 7833   5.419   2.262   5.487  1.2983  1.5907  2.1438
   84SOPE  C313 7834   5.429   2.435   5.365 -0.4560 -0.2506 -0.0896
   84SOPE  H13X 7835   5.537   2.434   5.390 -0.6799  3.2392  1.5146
   84SOPE  H13Y 7836   5.400   2.542   5.370  1.4955  0.3792 -1.4353
   84SOPE  C314 7837   5.426   2.365   5.224  0.3368  0.3673  0.4036
   84SOPE  H14X 7838   5.461   2.260   5.214  0.4889  0.6612 -3.2038
   84SOPE  H14Y 7839   5.506   2.415   5.166  0.9261 -1.9211 -0.8772
   84SOPE  C315 7840   5.292   2.375   5.138 -0.2029 -0.0766 -0.9437
   84SOPE  H15X 7841   5.241   2.472   5.162 -0.1282 -0.6234  1.7491
   84SOPE  H15Y 7842   5.229   2.291   5.173 -1.2936  0.5888 -1.2530
   84SOPE  C316 7843   5.321   2.366   4.984  0.6295  0.2740  0.4118
   84SOPE  H16X 7844   5.390   2.444   4.943  1.8062 -1.4017 -0.9610
   84SOPE  H16Y 7845   5.229   2.382   4.924  0.0780 -1.2179  0.8124
   84SOPE  C317 7846   5.386   2.227   4.935 -0.7323  0.1981  0.2974
   84SOPE  H17X 7847   5.317   2.147   4.969 -1.5747  2.0160  3.1988
   84SOPE  H17Y 7848   5.478   2.205   4.993 -0.1422  2.1749  0.1771
   84SOPE  C318 7849   5.417   2.230   4.787  0.1579  0.6445 -0.0162
   84SOPE  H18X 7850   5.467   2.137   4.752  3.1656  1.6566  1.2582
   84SOPE  H18Y 7851   5.481   2.317   4.759  1.7341  0.2133  2.0239
   84SOPE  H18Z 7852   5.319   2.251   4.738 -0.2666  0.4765  0.7448
   85SOPE     N 7853   4.439   2.821   2.751 -0.1212 -0.1250  0.0198
   85SOPE   HN1 7854   4.351   2.870   2.777  0.0425  0.1922 -0.0181
   85SOPE   HN2 7855   4.420   2.743   2.686 -0.2964 -0.3428  0.3314
   85SOPE   HN3 7856   4.485   2.786   2.838  0.7700 -0.0013 -0.3873
   85SOPE   C12 7857   4.526   2.931   2.687  0.4361  0.1735 -0.2998
   85SOPE  H12A 7858   4.631   2.901   2.705  0.7585  0.2726 -1.8542
   85SOPE  H12B 7859   4.507   3.027   2.739  1.0597  1.4964 -2.3737
   85SOPE   C11 7860   4.498   2.938   2.528 -0.6807  0.1264  0.1448
   85SOPE  H11A 7861   4.563   2.859   2.485 -0.8871  0.3923 -0.6704
   85SOPE  H11B 7862   4.545   3.031   2.489 -2.3337  2.8950  4.0932
   85SOPE     P 7863   4.267   3.039   2.465 -0.4045 -0.0529 -0.0188
   85SOPE   O13 7864   4.128   2.998   2.486  0.4222  0.5003  0.0781
   85SOPE   O14 7865   4.296   3.104   2.334 -0.0581 -0.2304 -1.0116
   85SOPE   O12 7866   4.361   2.921   2.492 -0.1782 -0.3806 -0.0881
   85SOPE   O11 7867   4.298   3.137   2.583  0.0023  0.4003  0.2429
   85SOPE    C1 7868   4.385   3.248   2.584  0.9231 -0.1912 -0.1019
   85SOPE    HA 7869   4.362   3.313   2.497  1.1236  0.0875  0.0489
   85SOPE    HB 7870   4.493   3.226   2.565  0.3903 -1.1865 -2.4242
   85SOPE    C2 7871   4.373   3.330   2.713 -0.2292  0.3722 -0.3400
   85SOPE    HS 7872   4.396   3.437   2.690  0.6475  0.3244  0.3061
   85SOPE   O21 7873   4.457   3.280   2.831  0.2738  0.6691  0.0460
   85SOPE   C21 7874   4.570   3.334   2.845 -0.2963  0.5079 -0.0818
   85SOPE   O22 7875   4.588   3.444   2.797  0.2302  0.1484  0.1375
   85SOPE   C22 7876   4.670   3.256   2.924  0.2506  0.4696 -0.7565
   85SOPE   H2R 7877   4.750   3.242   2.848  0.0173 -1.3650 -0.6930
   85SOPE   H2S 7878   4.624   3.163   2.963 -0.0422  0.2505 -1.6135
   85SOPE    C3 7879   4.230   3.328   2.773 -0.4297 -0.3058  0.2339
   85SOPE    HX 7880   4.203   3.221   2.782  2.2857 -1.1189 -0.4376
   85SOPE    HY 7881   4.158   3.364   2.696 -1.5859  1.0585  1.8876
   85SOPE   O31 7882   4.211   3.412   2.892  0.2717 -0.6716 -0.0105
   85SOPE   C31 7883   4.235   3.541   2.891 -0.2587 -0.0088  0.6722
   85SOPE   O32 7884   4.260   3.609   2.790 -0.2267 -0.4036 -0.2342
   85SOPE   C32 7885   4.235   3.598   3.035 -0.0166  0.2114  0.2339
   85SOPE   H2X 7886   4.127   3.607   3.057 -0.0635  2.0945 -0.5944
   85SOPE   H2Y 7887   4.270   3.701   3.011  0.0550  0.0573 -0.3541
   85SOPE   C23 7888   4.730   3.337   3.049 -0.5287  0.4513  0.1462
   85SOPE   H3R 7889   4.774   3.433   3.015  0.3270  0.0866  0.1981
   85SOPE   H3S 7890   4.826   3.288   3.074 -0.5609  0.2258 -0.1612
   85SOPE   C24 7891   4.641   3.334   3.170  0.0887  0.4537  0.5067
   85SOPE   H4R 7892   4.539   3.359   3.133 -0.3199  2.5691  2.7176
   85SOPE   H4S 7893   4.652   3.228   3.201 -0.1396 -0.2589 -1.6784
   85SOPE   C25 7894   4.695   3.426   3.273 -0.2279 -0.4004  0.3136
   85SOPE   H5R 7895   4.797   3.391   3.300  0.1172  1.2826  1.3174
   85SOPE   H5S 7896   4.698   3.530   3.235 -0.4336  0.2405  1.9532
   85SOPE   C26 7897   4.604   3.422   3.401  0.6169 -0.2618  0.5968
   85SOPE   H6R 7898   4.494   3.408   3.390  0.2597  0.9410  2.2755
   85SOPE   H6S 7899   4.624   3.334   3.465  0.5125 -0.9244 -0.2517
   85SOPE   C27 7900   4.614   3.564   3.470 -0.0113  0.2647 -0.1943
   85SOPE   H7R 7901   4.719   3.598   3.477 -0.1246  0.2734  3.3606
   85SOPE   H7S 7902   4.560   3.636   3.404 -1.2639 -0.5829 -0.1232
   85SOPE   C28 7903   4.550   3.559   3.611 -0.3391 -0.2506  0.1250
   85SOPE   H8R 7904   4.523   3.665   3.631 -1.3827 -0.7245  1.4605
   85SOPE   H8S 7905   4.454   3.510   3.584  0.2426 -0.5166 -1.5803
   85SOPE   C29 7906   4.627   3.493   3.720 -0.6455 -0.4047  0.3555
   85SOPE   H91 7907   4.688   3.407   3.690  0.1525  0.4295 -0.4666
   85SOPE  C210 7908   4.639   3.532   3.850 -0.0549 -0.3480  0.3780
   85SOPE  H101 7909   4.712   3.485   3.918  1.0648  2.3175  1.1688
   85SOPE  C211 7910   4.568   3.648   3.911  0.4772 -0.0430  1.2009
   85SOPE  H11R 7911   4.510   3.709   3.838 -0.0199 -0.0028  1.6256
   85SOPE  H11S 7912   4.639   3.717   3.961  1.6183  0.6169 -1.1627
   85SOPE  C212 7913   4.467   3.598   4.012  0.0337  0.0369  0.8821
   85SOPE  H12R 7914   4.403   3.520   3.964  0.4346 -0.3909  1.0316
   85SOPE  H12S 7915   4.396   3.683   4.023  1.1863  0.7323  3.4949
   85SOPE  C213 7916   4.519   3.545   4.144  0.9270 -0.0245  0.2481
   85SOPE  H13R 7917   4.591   3.463   4.120 -0.2125 -0.5802 -1.4172
   85SOPE  H13S 7918   4.436   3.502   4.203  1.0912  0.7073  1.0350
   85SOPE  C214 7919   4.589   3.642   4.243  1.1029  0.1807 -0.1337
   85SOPE  H14R 7920   4.512   3.721   4.247 -0.6448 -1.2934 -2.1877
   85SOPE  H14S 7921   4.683   3.687   4.204  0.6976  0.9332 -0.2452
   85SOPE  C215 7922   4.601   3.590   4.382 -0.0898  0.4587  0.0721
   85SOPE  H15R 7923   4.686   3.519   4.384 -0.9313 -0.5979 -0.1915
   85SOPE  H15S 7924   4.506   3.541   4.413 -0.0788  0.5389  0.2357
   85SOPE  C216 7925   4.634   3.707   4.475 -0.1276  0.1762  0.0626
   85SOPE  H16R 7926   4.546   3.773   4.491 -0.0535  0.2443  0.1945
   85SOPE  H16S 7927   4.702   3.774   4.417 -0.4812  0.2311 -0.2940
   85SOPE  C217 7928   4.703   3.656   4.603 -0.0403  0.4524  0.0796
   85SOPE  H17R 7929   4.780   3.577   4.593 -0.5509  0.1953 -2.6389
   85SOPE  H17S 7930   4.621   3.622   4.670 -0.7606  0.7360 -0.6359
   85SOPE  C218 7931   4.787   3.776   4.656 -0.0148 -0.8445 -0.4358
   85SOPE  H18R 7932   4.866   3.794   4.581  2.4607 -0.2622  2.1215
   85SOPE  H18S 7933   4.836   3.755   4.754  0.7209  0.4166 -0.5102
   85SOPE  H18T 7934   4.732   3.869   4.681  0.3007 -0.6839 -0.3343
   85SOPE   C33 7935   4.309   3.523   3.142 -0.1282  0.5271  0.2956
   85SOPE   H3X 7936   4.413   3.561   3.148  0.4804 -0.9381 -0.4574
   85SOPE   H3Y 7937   4.312   3.413   3.129 -1.0663  0.3955  1.0407
   85SOPE   C34 7938   4.246   3.544   3.284 -0.0456  0.4730  0.2863
   85SOPE   H4X 7939   4.244   3.655   3.290 -0.2044  0.4658  0.3925
   85SOPE   H4Y 7940   4.316   3.504   3.361 -1.9173  0.4530  2.0569
   85SOPE   C35 7941   4.103   3.479   3.307  0.4316 -0.2685 -0.0339
   85SOPE   H5X 7942   4.102   3.370   3.285  1.4757 -0.4549  0.7869
   85SOPE   H5Y 7943   4.048   3.524   3.222  3.0100  1.4693 -0.9133
   85SOPE   C36 7944   4.034   3.515   3.448  0.4037 -0.2015 -0.4226
   85SOPE   H6X 7945   3.932   3.472   3.456 -0.6708  1.9688 -1.6200
   85SOPE   H6Y 7946   4.028   3.626   3.449 -2.2032 -0.2364  2.7834
   85SOPE   C37 7947   4.116   3.465   3.567  0.7367 -0.0622  0.0181
   85SOPE   H7X 7948   4.219   3.508   3.567  1.7258 -2.2532  1.0013
   85SOPE   H7Y 7949   4.129   3.355   3.564 -0.5960 -0.3634  2.4404
   85SOPE   C38 7950   4.059   3.510   3.701 -0.2748 -0.2322 -0.5527
   85SOPE   H8X 7951   3.957   3.466   3.705 -0.6289  0.5752 -0.3243
   85SOPE   H8Y 7952   4.047   3.620   3.694  2.0441  0.0581 -0.8587
   85SOPE   C39 7953   4.136   3.474   3.823  0.5350  0.1414  0.4647
   85SOPE   H9X 7954   4.226   3.539   3.821  0.8183 -0.2516 -1.6677
   85SOPE   H9Y 7955   4.168   3.368   3.826  2.0196  0.5847  2.7010
   85SOPE  C310 7956   4.053   3.489   3.954 -0.0792 -0.3141 -0.5590
   85SOPE  H10X 7957   4.119   3.458   4.039 -0.4405  2.1146  0.7051
   85SOPE  H10Y 7958   3.962   3.426   3.949  0.1914 -0.8030  0.3805
   85SOPE  C311 7959   4.028   3.638   3.987 -0.0874 -0.0894 -0.9615
   85SOPE  H11X 7960   3.983   3.682   3.896  2.8832 -0.8281 -2.9552
   85SOPE  H11Y 7961   4.125   3.690   4.005 -0.1548 -0.1369 -0.4392
   85SOPE  C312 7962   3.954   3.657   4.116  0.3480  0.6353 -0.7516
   85SOPE  H12X 7963   3.946   3.767   4.129  0.3543  0.6557 -0.9265
   85SOPE  H12Y 7964   4.002   3.615   4.207  0.1481 -0.0449 -0.9526
   85SOPE  C313 7965   3.815   3.592   4.125 -0.0565  0.1038 -0.2656
   85SOPE  H13X 7966   3.810   3.481   4.129  0.5458  0.1036  0.6839
   85SOPE  H13Y 7967   3.750   3.624   4.041 -2.3989 -0.2792  1.3259
   85SOPE  C314 7968   3.741   3.654   4.245 -0.0207 -0.5218 -0.0994
   85SOPE  H14X 7969   3.750   3.765   4.252  1.2999 -0.5930 -0.3527
   85SOPE  H14Y 7970   3.791   3.620   4.339 -0.9262 -1.6884 -0.0196
   85SOPE  C315 7971   3.595   3.595   4.255 -0.4890 -0.5243  0.4702
   85SOPE  H15X 7972   3.604   3.484   4.255 -0.2325 -0.5099  1.4075
   85SOPE  H15Y 7973   3.533   3.635   4.172 -0.2207 -3.3908 -1.2675
   85SOPE  C316 7974   3.520   3.626   4.385  0.6733 -0.7144 -0.2665
   85SOPE  H16X 7975   3.560   3.576   4.475 -0.8218  1.8117  1.9573
   85SOPE  H16Y 7976   3.418   3.584   4.371  1.4033 -2.0203 -2.0253
   85SOPE  C317 7977   3.525   3.776   4.413 -0.7152  0.0896  0.8810
   85SOPE  H17X 7978   3.493   3.833   4.324  1.2249  0.7745  0.5744
   85SOPE  H17Y 7979   3.633   3.799   4.423 -0.3908 -1.0515  0.1689
   85SOPE  C318 7980   3.447   3.822   4.537 -0.2986  0.3530 -0.7660
   85SOPE  H18X 7981   3.466   3.929   4.561  1.4248 -0.3888  1.5477
   85SOPE  H18Y 7982   3.473   3.756   4.622  2.5911  0.5889 -1.3578
   85SOPE  H18Z 7983   3.339   3.806   4.516 -0.7511  2.7230 -0.5052
   86SOPE     N 7984   5.091   1.764   2.637 -0.4608 -0.6709  0.3916
   86SOPE   HN1 7985   5.028   1.806   2.565  1.6416  0.1372 -1.0847
   86SOPE   HN2 7986   5.066   1.793   2.734  0.6500 -0.2675  0.5688
   86SOPE   HN3 7987   5.184   1.805   2.619 -1.4836  0.6855 -2.3267
   86SOPE   C12 7988   5.089   1.617   2.617 -0.0027 -0.3461  0.2633
   86SOPE  H12A 7989   5.138   1.582   2.524 -1.3834  0.2235 -0.7134
   86SOPE  H12B 7990   4.985   1.580   2.615  0.6764 -2.3602  0.3917
   86SOPE   C11 7991   5.154   1.545   2.741  0.2582  0.5357 -0.2566
   86SOPE  H11A 7992   5.154   1.437   2.717 -1.8516  0.9988 -2.8108
   86SOPE  H11B 7993   5.081   1.566   2.822  2.5481  0.2566  2.0229
   86SOPE     P 7994   5.419   1.533   2.755  0.0205  0.0208  0.1334
   86SOPE   O13 7995   5.524   1.630   2.800  0.0106  0.4823 -0.3458
   86SOPE   O14 7996   5.437   1.480   2.615  0.4196  0.3551  0.1207
   86SOPE   O12 7997   5.281   1.601   2.777 -0.0383 -0.4755 -0.0023
   86SOPE   O11 7998   5.419   1.412   2.859 -0.0130  0.0306 -0.2418
   86SOPE    C1 7999   5.522   1.383   2.947 -0.4036  0.0264 -0.0406
   86SOPE    HA 8000   5.619   1.413   2.902 -1.5476  1.1814 -1.8652
   86SOPE    HB 8001   5.526   1.275   2.970 -1.4127  0.0390  0.2488
   86SOPE    C2 8002   5.499   1.450   3.085  0.3411  0.6600  0.4786
   86SOPE    HS 8003   5.484   1.558   3.066 -4.2170  0.0196 -0.6555
   86SOPE   O21 8004   5.601   1.418   3.178 -0.2435  0.4661 -0.2525
   86SOPE   C21 8005   5.626   1.515   3.274  0.9031  0.1589 -0.0630
   86SOPE   O22 8006   5.575   1.624   3.273  0.4025 -0.0867 -0.2402
   86SOPE   C22 8007   5.715   1.458   3.386 -0.2212 -0.0056 -0.1784
   86SOPE   H2R 8008   5.812   1.431   3.339 -0.7431  0.4003 -1.5678
   86SOPE   H2S 8009   5.661   1.374   3.435 -0.3761 -0.3243 -0.8823
   86SOPE    C3 8010   5.364   1.400   3.144 -0.1048  0.2530  0.2748
   86SOPE    HX 8011   5.383   1.295   3.175 -1.2502 -0.8979 -2.6255
   86SOPE    HY 8012   5.300   1.394   3.054  0.0059 -0.7496  0.2497
   86SOPE   O31 8013   5.302   1.490   3.231  0.0017 -0.3264  0.1118
   86SOPE   C31 8014   5.236   1.440   3.334  0.3541 -0.0465  0.3295
   86SOPE   O32 8015   5.217   1.320   3.348  0.1234 -0.3041 -0.2568
   86SOPE   C32 8016   5.181   1.548   3.429  0.0921 -0.8507 -0.1752
   86SOPE   H2X 8017   5.072   1.563   3.419  0.3455  2.3664  0.6357
   86SOPE   H2Y 8018   5.227   1.642   3.392 -0.9743 -0.6758 -1.1037
   86SOPE   C23 8019   5.724   1.566   3.502  0.5043  0.0961 -0.7328
   86SOPE   H3R 8020   5.630   1.575   3.560  0.8712 -2.5659  0.4069
   86SOPE   H3S 8021   5.765   1.659   3.456  0.0159  0.6206 -0.1275
   86SOPE   C24 8022   5.816   1.532   3.624  0.8316  0.1657  0.1872
   86SOPE   H4R 8023   5.795   1.432   3.668 -1.4688  1.4574  2.2623
   86SOPE   H4S 8024   5.922   1.539   3.592  0.8225  1.6635  0.4160
   86SOPE   C25 8025   5.789   1.627   3.744 -0.0753 -0.6208  0.3343
   86SOPE   H5R 8026   5.812   1.730   3.712 -2.2898 -0.0999  0.2984
   86SOPE   H5S 8027   5.683   1.622   3.774 -0.2924 -1.4501 -0.4969
   86SOPE   C26 8028   5.869   1.584   3.871  0.4702  0.0074  0.0742
   86SOPE   H6R 8029   5.828   1.487   3.906  1.8316 -0.4207  0.5393
   86SOPE   H6S 8030   5.973   1.571   3.833 -0.0069 -1.4479 -0.8084
   86SOPE   C27 8031   5.881   1.694   3.981 -0.0001  0.6965 -0.6260
   86SOPE   H7R 8032   5.914   1.793   3.944  1.4415  0.5221  0.1462
   86SOPE   H7S 8033   5.776   1.715   4.012 -0.1681 -0.2897 -0.5033
   86SOPE   C28 8034   5.953   1.657   4.113 -0.0827  0.0515  0.2526
   86SOPE   H8R 8035   5.932   1.553   4.146  2.4933 -0.0651  1.8073
   86SOPE   H8S 8036   6.063   1.657   4.102 -0.0686 -1.7280  0.1094
   86SOPE   C29 8037   5.923   1.761   4.218 -0.7512  0.7478  0.5681
   86SOPE   H91 8038   5.932   1.860   4.172  0.5501  0.7112  0.6982
   86SOPE  C210 8039   5.908   1.749   4.350 -0.0099  0.0464  0.4103
   86SOPE  H101 8040   5.913   1.845   4.404 -0.5500  0.2336  0.1312
   86SOPE  C211 8041   5.910   1.612   4.427  0.1545  0.9985 -0.1447
   86SOPE  H11R 8042   6.000   1.554   4.396 -0.4673  0.0282 -0.1670
   86SOPE  H11S 8043   5.829   1.549   4.383  1.6999 -0.5902 -0.8273
   86SOPE  C212 8044   5.901   1.630   4.583 -0.4305 -0.2253  0.0653
   86SOPE  H12R 8045   5.900   1.526   4.621 -0.2970 -1.8068 -3.8169
   86SOPE  H12S 8046   5.803   1.675   4.611 -0.6380  1.2728 -2.7001
   86SOPE  C213 8047   6.015   1.721   4.641  0.0606 -0.4002  0.3565
   86SOPE  H13R 8048   6.035   1.819   4.593 -0.5935 -0.2269  0.4255
   86SOPE  H13S 8049   6.111   1.668   4.625  0.2728  0.4520 -1.4609
   86SOPE  C214 8050   5.992   1.748   4.791  0.0062  0.4486  0.5591
   86SOPE  H14R 8051   6.096   1.741   4.830  1.2914 -0.2446 -2.6109
   86SOPE  H14S 8052   5.934   1.665   4.836 -0.1240  0.4781  0.4468
   86SOPE  C215 8053   5.914   1.875   4.830  0.0910  0.3791  0.5676
   86SOPE  H15R 8054   5.916   1.884   4.941 -1.2443 -2.1581  0.8793
   86SOPE  H15S 8055   5.806   1.862   4.807  0.6063 -0.2016 -1.7114
   86SOPE  C216 8056   5.959   2.007   4.776  0.0107  0.3065 -0.6645
   86SOPE  H16R 8057   5.941   2.013   4.666 -1.3182 -1.1615 -0.5543
   86SOPE  H16S 8058   6.069   2.004   4.785 -0.1359 -0.5770  1.0876
   86SOPE  C217 8059   5.895   2.143   4.834 -0.6496 -0.0523 -0.6096
   86SOPE  H17R 8060   5.785   2.130   4.827 -0.9773  1.8933  0.4351
   86SOPE  H17S 8061   5.924   2.227   4.767  0.6774  0.4185  0.5202
   86SOPE  C218 8062   5.923   2.177   4.983 -0.2457  0.0753  0.0109
   86SOPE  H18R 8063   5.888   2.086   5.036  2.5332 -0.8663  0.4159
   86SOPE  H18S 8064   5.863   2.265   5.014  2.4686  1.8290  0.6496
   86SOPE  H18T 8065   6.030   2.190   5.008 -0.1316 -1.0245  0.1366
   86SOPE   C33 8066   5.219   1.532   3.576 -0.5514  0.0438 -0.9813
   86SOPE   H3X 8067   5.175   1.439   3.619  1.3257 -1.1918 -1.6490
   86SOPE   H3Y 8068   5.179   1.613   3.640 -2.7247 -2.5503  1.1872
   86SOPE   C34 8069   5.370   1.513   3.603 -0.7582  0.3875  0.2872
   86SOPE   H4X 8070   5.425   1.609   3.591 -0.6732  0.0929 -2.1397
   86SOPE   H4Y 8071   5.402   1.436   3.529 -1.5912 -0.4859  0.8097
   86SOPE   C35 8072   5.392   1.444   3.735 -0.5743  0.3713  0.1983
   86SOPE   H5X 8073   5.496   1.407   3.736 -1.0612 -1.0539  0.1801
   86SOPE   H5Y 8074   5.333   1.350   3.746  1.5572 -0.7765  3.3731
   86SOPE   C36 8075   5.363   1.537   3.855 -0.2559 -0.2483 -0.0941
   86SOPE   H6X 8076   5.252   1.546   3.852 -0.6058 -3.0835  1.1471
   86SOPE   H6Y 8077   5.411   1.632   3.821 -2.6850  1.1771  0.2136
   86SOPE   C37 8078   5.405   1.481   3.990 -0.0098 -0.6988  0.2217
   86SOPE   H7X 8079   5.502   1.430   3.976 -0.4513 -0.7497 -3.4190
   86SOPE   H7Y 8080   5.329   1.416   4.039  1.8260 -3.9480 -0.9703
   86SOPE   C38 8081   5.434   1.593   4.092  0.6056 -0.7213  0.0609
   86SOPE   H8X 8082   5.354   1.670   4.093  1.8388  0.6433 -1.2396
   86SOPE   H8Y 8083   5.530   1.641   4.062 -0.2240  0.4671 -0.7771
   86SOPE   C39 8084   5.449   1.524   4.228 -0.2296 -0.4881  0.5342
   86SOPE   H9X 8085   5.538   1.458   4.238  0.9720  1.0014 -0.0518
   86SOPE   H9Y 8086   5.360   1.457   4.238  1.2142 -2.4974  0.4932
   86SOPE  C310 8087   5.478   1.621   4.340  0.4050 -0.8212 -0.2392
   86SOPE  H10X 8088   5.389   1.687   4.351 -0.2621 -1.5919 -0.8286
   86SOPE  H10Y 8089   5.567   1.686   4.328 -1.2994  1.5804 -0.5704
   86SOPE  C311 8090   5.485   1.546   4.471 -0.1578 -0.1779 -0.2745
   86SOPE  H11X 8091   5.571   1.476   4.463  1.2292  0.8428  3.5666
   86SOPE  H11Y 8092   5.389   1.492   4.485 -0.4728  0.6581  0.9229
   86SOPE  C312 8093   5.483   1.635   4.598  0.1251  0.3134  0.6950
   86SOPE  H12X 8094   5.532   1.730   4.568 -3.7688  2.4392  0.4558
   86SOPE  H12Y 8095   5.546   1.585   4.675  1.6406 -0.3426 -0.9095
   86SOPE  C313 8096   5.337   1.667   4.637 -0.0189  0.0727  0.1347
   86SOPE  H13X 8097   5.285   1.573   4.665 -2.0372  1.0371 -0.2060
   86SOPE  H13Y 8098   5.275   1.706   4.554 -0.8703 -2.5015 -0.5229
   86SOPE  C314 8099   5.323   1.769   4.748 -0.2924 -0.6463 -1.1960
   86SOPE  H14X 8100   5.385   1.854   4.712 -2.8047  1.0240 -1.8268
   86SOPE  H14Y 8101   5.377   1.739   4.840 -1.5029  0.3783 -0.1140
   86SOPE  C315 8102   5.171   1.812   4.760  0.8678 -0.3272  0.0628
   86SOPE  H15X 8103   5.115   1.734   4.816  1.3302 -2.1740 -1.9089
   86SOPE  H15Y 8104   5.120   1.828   4.662  0.8820 -1.8692 -0.2112
   86SOPE  C316 8105   5.156   1.949   4.840 -0.5779  0.1211  0.0131
   86SOPE  H16X 8106   5.205   2.032   4.784  0.6737 -0.6100  0.0044
   86SOPE  H16Y 8107   5.221   1.934   4.929  0.6715  0.0521 -0.8804
   86SOPE  C317 8108   5.015   1.985   4.880 -0.5109  0.0930  0.0646
   86SOPE  H17X 8109   4.964   1.908   4.942 -2.7117 -0.1029 -1.8689
   86SOPE  H17Y 8110   4.944   1.994   4.795 -0.5329 -0.4244  0.0278
   86SOPE  C318 8111   5.012   2.116   4.963 -0.2092 -0.8166 -0.5373
   86SOPE  H18X 8112   5.025   2.202   4.893  0.4540 -1.7604 -1.5948
   86SOPE  H18Y 8113   5.100   2.136   5.029 -1.1191  1.3689  0.1343
   86SOPE  H18Z 8114   4.922   2.127   5.026  0.9283  1.1414  0.8697
   87SOPE     N 8115   5.934   0.012   2.858 -0.4950  0.1761 -0.1327
   87SOPE   HN1 8116   5.833   0.004   2.879  0.0581 -1.7574  2.1317
   87SOPE   HN2 8117   5.955   0.104   2.815  1.0905 -0.2872 -0.4229
   87SOPE   HN3 8118   5.943  -0.067   2.790  4.7823 -2.1644  2.6409
   87SOPE   C12 8119   6.019  -0.032   2.981  0.2706 -0.1483  0.1254
   87SOPE  H12A 8120   5.975  -0.127   3.020  3.4135 -1.2522  1.3124
   87SOPE  H12B 8121   6.018   0.052   3.053  0.8224  0.3704 -0.4578
   87SOPE   C11 8122   6.159  -0.046   2.927 -0.1796  0.1824  0.0871
   87SOPE  H11A 8123   6.197   0.049   2.884  0.1448 -0.5378 -1.2878
   87SOPE  H11B 8124   6.153  -0.116   2.840  0.0011  0.7882 -0.4197
   87SOPE     P 8125   6.319  -0.005   3.130 -0.0461 -0.6702  0.4497
   87SOPE   O13 8126   6.288   0.141   3.107  0.5815  0.0692  0.3290
   87SOPE   O14 8127   6.457  -0.046   3.141 -0.3139 -0.3600 -0.4169
   87SOPE   O12 8128   6.247  -0.099   3.030  0.5792 -0.3405  0.6721
   87SOPE   O11 8129   6.244  -0.039   3.262  0.0005 -0.3592 -0.1844
   87SOPE    C1 8130   6.159   0.046   3.345 -0.0704 -0.8622  0.2789
   87SOPE    HA 8131   6.073   0.083   3.287 -0.4463  0.0332  1.3877
   87SOPE    HB 8132   6.215   0.125   3.400  0.7834 -1.3698  0.1786
   87SOPE    C2 8133   6.102  -0.029   3.466 -0.2443  0.4115 -0.2054
   87SOPE    HS 8134   6.047   0.051   3.521 -1.6744 -0.7418  0.0982
   87SOPE   O21 8135   6.202  -0.079   3.556 -0.1775 -0.4333 -0.6153
   87SOPE   C21 8136   6.164  -0.110   3.684 -0.1791  0.6652 -0.2588
   87SOPE   O22 8137   6.070  -0.060   3.746  0.3981  0.1316  0.0833
   87SOPE   C22 8138   6.247  -0.227   3.737 -0.6994 -0.5784  0.1588
   87SOPE   H2R 8139   6.352  -0.191   3.747 -0.7808 -0.6703  1.6271
   87SOPE   H2S 8140   6.249  -0.309   3.663  1.5828 -1.0571  0.6570
   87SOPE    C3 8141   6.003  -0.136   3.417 -0.0451 -0.2869  0.0526
   87SOPE    HX 8142   6.060  -0.213   3.361 -2.6956 -1.0109 -1.8353
   87SOPE    HY 8143   5.932  -0.104   3.338  0.6947  1.8551  0.1771
   87SOPE   O31 8144   5.935  -0.199   3.526  0.6491 -0.3481  0.7054
   87SOPE   C31 8145   5.832  -0.121   3.575 -0.0224 -0.0163 -0.4065
   87SOPE   O32 8146   5.808  -0.009   3.537 -0.1820 -0.6779 -0.4475
   87SOPE   C32 8147   5.759  -0.196   3.684  0.8811 -0.1424  0.7030
   87SOPE   H2X 8148   5.829  -0.219   3.767 -0.1385 -0.0665  1.6051
   87SOPE   H2Y 8149   5.724  -0.299   3.661 -0.9997  0.2342  1.7238
   87SOPE   C23 8150   6.204  -0.265   3.877  0.2022  0.4138 -0.0804
   87SOPE   H3R 8151   6.194  -0.179   3.947 -1.0786 -0.7404  1.1983
   87SOPE   H3S 8152   6.285  -0.324   3.926  1.2715  1.1073 -0.9508
   87SOPE   C24 8153   6.085  -0.362   3.875  0.4016  0.4000 -0.2666
   87SOPE   H4R 8154   6.016  -0.319   3.799 -1.5990 -1.0349  0.6449
   87SOPE   H4S 8155   6.116  -0.461   3.833 -0.1844  0.2030 -0.2465
   87SOPE   C25 8156   6.015  -0.374   4.011  0.1495 -0.2947 -0.8107
   87SOPE   H5R 8157   6.008  -0.271   4.052  1.8013 -0.3847 -0.2322
   87SOPE   H5S 8158   5.916  -0.425   4.010 -0.6013  1.0213  0.7409
   87SOPE   C26 8159   6.090  -0.462   4.118 -0.4642 -0.5465  0.0053
   87SOPE   H6R 8160   6.116  -0.561   4.073 -1.1077 -0.3152 -0.9128
   87SOPE   H6S 8161   6.179  -0.410   4.159 -1.3499 -0.3965  1.8270
   87SOPE   C27 8162   6.010  -0.493   4.251  0.1577  0.6534  0.6834
   87SOPE   H7R 8163   5.977  -0.403   4.307  2.0019  2.5510 -1.0602
   87SOPE   H7S 8164   5.918  -0.551   4.227  0.1769  0.1860  1.6836
   87SOPE   C28 8165   6.080  -0.583   4.359  0.2774 -0.9046 -0.6193
   87SOPE   H8R 8166   6.167  -0.537   4.409 -0.2932  0.0264 -0.4590
   87SOPE   H8S 8167   6.002  -0.587   4.438  1.0684  1.2770  0.3233
   87SOPE   C29 8168   6.100  -0.722   4.304  0.5437 -0.6193  0.2893
   87SOPE   H91 8169   6.030  -0.742   4.223 -0.4505 -0.2810  1.0429
   87SOPE  C210 8170   6.178  -0.824   4.350  0.2209  0.8458 -0.4101
   87SOPE  H101 8171   6.165  -0.925   4.307  1.8520 -0.2239  1.4309
   87SOPE  C211 8172   6.265  -0.817   4.471  0.9434  0.0041  0.1101
   87SOPE  H11R 8173   6.324  -0.723   4.472 -1.5679  1.6954  0.3413
   87SOPE  H11S 8174   6.337  -0.902   4.469 -0.3181 -1.1327  1.1088
   87SOPE  C212 8175   6.175  -0.819   4.599  0.0222  0.3982  0.6692
   87SOPE  H12R 8176   6.102  -0.902   4.583  1.5616 -0.7890 -0.4008
   87SOPE  H12S 8177   6.116  -0.733   4.638 -1.1133  0.4811 -1.1285
   87SOPE  C213 8178   6.252  -0.885   4.715 -0.3521 -0.1472  0.4364
   87SOPE  H13R 8179   6.329  -0.816   4.754  0.2704 -0.6188  0.0615
   87SOPE  H13S 8180   6.311  -0.965   4.665 -0.4327 -0.3077  0.5996
   87SOPE  C214 8181   6.172  -0.931   4.836  0.5546  0.0016  0.2599
   87SOPE  H14R 8182   6.090  -0.989   4.789  2.4426 -1.0600 -1.9240
   87SOPE  H14S 8183   6.127  -0.841   4.883  1.0046 -0.3158  1.3347
   87SOPE  C215 8184   6.244  -1.018   4.932  0.0185  0.6012 -0.9441
   87SOPE  H15R 8185   6.328  -0.966   4.982 -1.6993  0.0637  2.7982
   87SOPE  H15S 8186   6.291  -1.103   4.878  1.7996  0.2200  1.0870
   87SOPE  C216 8187   6.156  -1.081   5.052 -0.3341 -0.3922 -0.2453
   87SOPE  H16R 8188   6.055  -1.106   5.015 -1.3615 -0.7138  2.5215
   87SOPE  H16S 8189   6.153  -1.006   5.134  0.9072 -0.4669 -0.1139
   87SOPE  C217 8190   6.222  -1.209   5.116  0.1851  0.9082  0.6143
   87SOPE  H17R 8191   6.330  -1.192   5.136  0.7670  0.7385 -2.0132
   87SOPE  H17S 8192   6.218  -1.282   5.032 -2.1200  1.4087  0.2282
   87SOPE  C218 8193   6.170  -1.269   5.249 -0.1182  0.1461  0.8938
   87SOPE  H18R 8194   6.064  -1.238   5.259 -0.3598 -0.2044 -0.3649
   87SOPE  H18S 8195   6.233  -1.233   5.334  3.3284  1.0915 -1.7813
   87SOPE  H18T 8196   6.169  -1.380   5.245  0.0747  0.1415  0.9586
   87SOPE   C33 8197   5.635  -0.125   3.738 -0.0188  0.1170  0.3375
   87SOPE   H3X 8198   5.554  -0.133   3.662 -0.5734  0.3014  0.8972
   87SOPE   H3Y 8199   5.653  -0.017   3.758 -3.3780  0.5052  1.9298
   87SOPE   C34 8200   5.568  -0.185   3.870  0.0084 -0.8118  0.8061
   87SOPE   H4X 8201   5.561  -0.294   3.854  1.4852 -0.5012 -2.9702
   87SOPE   H4Y 8202   5.467  -0.143   3.892 -0.1065 -2.1156  2.9660
   87SOPE   C35 8203   5.655  -0.161   3.992  0.2887  0.3050 -0.0287
   87SOPE   H5X 8204   5.658  -0.051   4.012 -2.0884  0.1522  1.5967
   87SOPE   H5Y 8205   5.756  -0.192   3.957  0.4585  0.6182  0.1810
   87SOPE   C36 8206   5.610  -0.235   4.124  0.1943  0.3270  0.1112
   87SOPE   H6X 8207   5.505  -0.203   4.144  0.5090  1.4647 -0.0232
   87SOPE   H6Y 8208   5.674  -0.199   4.207  1.3192  1.8380 -1.3420
   87SOPE   C37 8209   5.626  -0.387   4.121  0.5696  0.0522  0.2952
   87SOPE   H7X 8210   5.736  -0.401   4.112  0.5329  0.4638 -0.9373
   87SOPE   H7Y 8211   5.581  -0.434   4.031  0.4987 -2.0099  1.3287
   87SOPE   C38 8212   5.561  -0.463   4.243  0.4993 -0.4080 -0.9383
   87SOPE   H8X 8213   5.555  -0.571   4.220 -4.1104 -0.1226 -2.0498
   87SOPE   H8Y 8214   5.461  -0.419   4.267 -1.3137 -3.4559 -2.3818
   87SOPE   C39 8215   5.644  -0.438   4.373 -0.2371 -0.4118  0.6509
   87SOPE   H9X 8216   5.661  -0.329   4.388  0.5559 -0.6686  1.8312
   87SOPE   H9Y 8217   5.747  -0.477   4.360 -0.5230 -0.6647 -1.0209
   87SOPE  C310 8218   5.582  -0.483   4.502 -0.4368 -0.1705 -0.2695
   87SOPE  H10X 8219   5.510  -0.566   4.484 -1.4186  0.4306  0.7665
   87SOPE  H10Y 8220   5.515  -0.406   4.544  1.8266  1.6290  0.2502
   87SOPE  C311 8221   5.681  -0.515   4.609  0.0581  0.4972  0.7700
   87SOPE  H11X 8222   5.731  -0.610   4.581  0.0804 -0.0112  2.4437
   87SOPE  H11Y 8223   5.616  -0.538   4.696 -2.1792  0.9423 -0.7029
   87SOPE  C312 8224   5.790  -0.408   4.630  0.1273 -0.0048 -0.4093
   87SOPE  H12X 8225   5.753  -0.307   4.605  1.2445  0.9719  1.6453
   87SOPE  H12Y 8226   5.875  -0.427   4.560 -0.6488  1.1470 -1.7014
   87SOPE  C313 8227   5.837  -0.393   4.777  0.0684  0.4082 -0.5066
   87SOPE  H13X 8228   5.771  -0.329   4.839 -0.7467 -0.8195 -0.0849
   87SOPE  H13Y 8229   5.930  -0.332   4.782 -0.1199  0.7008 -0.5494
   87SOPE  C314 8230   5.864  -0.524   4.855  0.0423 -0.3670  0.6675
   87SOPE  H14X 8231   5.940  -0.585   4.803 -0.0525 -1.1780  1.4581
   87SOPE  H14Y 8232   5.766  -0.575   4.868 -0.3222  0.6509  2.3040
   87SOPE  C315 8233   5.910  -0.504   5.003 -0.4790 -0.1681 -0.8550
   87SOPE  H15X 8234   5.862  -0.411   5.039 -1.6240  0.5154 -3.9128
   87SOPE  H15Y 8235   6.019  -0.479   5.009 -0.4376 -0.6253  1.6624
   87SOPE  C316 8236   5.874  -0.630   5.086 -0.4592  0.1309  0.0666
   87SOPE  H16X 8237   5.952  -0.706   5.062  0.2397 -0.0027  2.5258
   87SOPE  H16Y 8238   5.775  -0.674   5.065 -1.3666  1.0566  2.1299
   87SOPE  C317 8239   5.884  -0.608   5.238  0.5763 -0.5320  0.0629
   87SOPE  H17X 8240   5.857  -0.704   5.286  2.0047 -0.7833  0.4230
   87SOPE  H17Y 8241   5.801  -0.545   5.274  0.6562 -0.1018 -0.4847
   87SOPE  C318 8242   6.024  -0.556   5.277 -0.4033 -0.5726  0.0809
   87SOPE  H18X 8243   6.036  -0.452   5.239  0.2608 -0.9572 -0.7831
   87SOPE  H18Y 8244   6.092  -0.626   5.224 -2.1840 -2.4069  0.1010
   87SOPE  H18Z 8245   6.032  -0.562   5.388 -0.6154  0.0761  0.1350
   88SOPE     N 8246   0.725   1.558   2.542  0.2374 -0.1355  0.5219
   88SOPE   HN1 8247   0.675   1.603   2.463 -0.7058 -0.8637  0.6985
   88SOPE   HN2 8248   0.821   1.597   2.531  0.2925  0.0697  1.5890
   88SOPE   HN3 8249   0.729   1.455   2.534 -1.2073 -0.2593  1.1598
   88SOPE   C12 8250   0.652   1.592   2.662 -0.2125  0.2522 -0.1419
   88SOPE  H12A 8251   0.568   1.519   2.668 -1.1942  1.4036  0.5300
   88SOPE  H12B 8252   0.600   1.687   2.639  0.0264  0.1600 -1.1048
   88SOPE   C11 8253   0.746   1.608   2.778  0.3054 -0.1178  0.4717
   88SOPE  H11A 8254   0.702   1.647   2.873 -0.7379  0.7795 -0.3572
   88SOPE  H11B 8255   0.824   1.683   2.752  1.3435 -1.6656 -1.0523
   88SOPE     P 8256   0.938   1.452   2.867  0.0088  0.5114 -0.2247
   88SOPE   O13 8257   1.050   1.523   2.802  0.4551 -0.1437  0.1257
   88SOPE   O14 8258   0.953   1.306   2.887 -0.3670 -0.0650 -0.4890
   88SOPE   O12 8259   0.802   1.476   2.795  0.1902 -0.2120 -0.8587
   88SOPE   O11 8260   0.916   1.524   3.010  0.0723  0.3451 -0.1272
   88SOPE    C1 8261   0.819   1.468   3.109 -0.1588  0.1440 -0.0591
   88SOPE    HA 8262   0.786   1.364   3.087  0.0041  0.3634 -1.3941
   88SOPE    HB 8263   0.730   1.534   3.114 -1.5854 -1.7180  0.6374
   88SOPE    C2 8264   0.895   1.463   3.252 -0.4228 -0.0585  0.1376
   88SOPE    HS 8265   0.826   1.410   3.321  0.5747 -1.4869  0.0871
   88SOPE   O21 8266   0.931   1.592   3.293  0.5974  0.6771 -0.3604
   88SOPE   C21 8267   0.833   1.664   3.349  0.0109 -0.1510 -0.4832
   88SOPE   O22 8268   0.717   1.629   3.366 -0.0520 -0.4035 -0.6609
   88SOPE   C22 8269   0.895   1.787   3.415 -0.6667  0.2059 -0.6405
   88SOPE   H2R 8270   0.898   1.874   3.346 -0.0349  0.0177 -0.8538
   88SOPE   H2S 8271   1.000   1.756   3.432 -0.9163 -0.1352  0.3621
   88SOPE    C3 8272   1.010   1.361   3.250 -0.1191 -0.2798 -0.5040
   88SOPE    HX 8273   1.080   1.388   3.168  1.2973 -3.4003 -0.4733
   88SOPE    HY 8274   0.981   1.258   3.222  1.9344 -1.2096  0.5989
   88SOPE   O31 8275   1.091   1.370   3.370  0.8783 -0.9141 -0.3365
   88SOPE   C31 8276   1.056   1.278   3.454 -0.3421 -0.3823 -1.2308
   88SOPE   O32 8277   0.978   1.188   3.436  0.8377  0.5360  0.2224
   88SOPE   C32 8278   1.124   1.302   3.593  0.0041  0.6071 -0.1910
   88SOPE   H2X 8279   1.064   1.380   3.647 -0.7707 -0.3810  0.4120
   88SOPE   H2Y 8280   1.229   1.337   3.586 -0.0010  0.9152  1.0055
   88SOPE   C23 8281   0.814   1.832   3.547 -0.0935 -0.0333  0.1774
   88SOPE   H3R 8282   0.709   1.857   3.521 -0.1974  2.5932  2.6824
   88SOPE   H3S 8283   0.866   1.924   3.582 -0.4353  0.2846 -0.1491
   88SOPE   C24 8284   0.809   1.717   3.650 -0.0890  0.3702  0.8633
   88SOPE   H4R 8285   0.729   1.761   3.715  0.8526  2.4014  0.7235
   88SOPE   H4S 8286   0.778   1.618   3.612 -0.1896  1.1536 -1.2038
   88SOPE   C25 8287   0.939   1.707   3.731 -0.8531  0.4617 -0.1246
   88SOPE   H5R 8288   1.018   1.667   3.664  1.5080  0.8659  2.2172
   88SOPE   H5S 8289   0.975   1.808   3.760  1.5679 -0.4188  0.1694
   88SOPE   C26 8290   0.929   1.618   3.856  1.1852  0.0216  0.1421
   88SOPE   H6R 8291   0.852   1.664   3.921  1.2105  0.7148 -0.3167
   88SOPE   H6S 8292   0.898   1.514   3.829  1.3453  0.1923 -0.7287
   88SOPE   C27 8293   1.055   1.603   3.941 -0.5586 -0.4341 -0.0148
   88SOPE   H7R 8294   1.148   1.559   3.900  0.5733 -0.7345  2.7069
   88SOPE   H7S 8295   1.080   1.702   3.983  0.5838 -0.3734 -0.8091
   88SOPE   C28 8296   1.025   1.527   4.072  0.2843  0.3042 -0.1572
   88SOPE   H8R 8297   0.937   1.581   4.114 -0.7594 -1.6544  0.2875
   88SOPE   H8S 8298   0.988   1.426   4.044  2.0857 -1.0806  2.0679
   88SOPE   C29 8299   1.133   1.478   4.167 -0.5010 -0.0342  0.0300
   88SOPE   H91 8300   1.197   1.402   4.122  0.6696  1.1041 -0.3015
   88SOPE  C210 8301   1.150   1.530   4.288 -0.2646 -0.5748  0.0471
   88SOPE  H101 8302   1.206   1.469   4.361  0.8718  0.3622  0.0003
   88SOPE  C211 8303   1.063   1.633   4.361 -0.4729  0.2015 -0.2800
   88SOPE  H11R 8304   0.959   1.637   4.322 -0.4873 -0.1440 -0.2739
   88SOPE  H11S 8305   1.111   1.733   4.350 -0.5163  0.2180 -0.3227
   88SOPE  C212 8306   1.051   1.609   4.517 -0.1487 -0.0088  0.6277
   88SOPE  H12R 8307   1.158   1.616   4.544  0.3609  2.7243 -1.6788
   88SOPE  H12S 8308   1.015   1.507   4.544  0.0569 -0.3628 -0.3759
   88SOPE  C213 8309   0.960   1.697   4.601 -0.2949  0.2293 -0.5552
   88SOPE  H13R 8310   0.858   1.693   4.557 -0.3751  0.9300 -0.4374
   88SOPE  H13S 8311   0.981   1.804   4.579  1.4233 -0.4209 -2.3552
   88SOPE  C214 8312   0.955   1.660   4.749 -0.2279  0.0342  0.3444
   88SOPE  H14R 8313   1.057   1.662   4.792 -1.8954 -1.6870  5.0027
   88SOPE  H14S 8314   0.921   1.554   4.752 -0.7031  0.0856 -1.5289
   88SOPE  C215 8315   0.865   1.747   4.838 -0.8417 -0.2706 -0.1601
   88SOPE  H15R 8316   0.760   1.751   4.803 -0.3850  0.6973 -1.5066
   88SOPE  H15S 8317   0.898   1.853   4.832 -1.1899 -0.2488 -2.4029
   88SOPE  C216 8318   0.878   1.699   4.981 -0.6709 -0.5895 -0.8033
   88SOPE  H16R 8319   0.954   1.618   4.996 -0.9274 -1.3134 -3.1249
   88SOPE  H16S 8320   0.782   1.670   5.029 -0.2932  1.0207  1.0465
   88SOPE  C217 8321   0.918   1.820   5.076 -0.1154  0.2200 -0.6035
   88SOPE  H17R 8322   1.019   1.841   5.036 -0.7795  2.9147 -1.0385
   88SOPE  H17S 8323   0.920   1.781   5.180 -1.3700  2.0978  0.1720
   88SOPE  C218 8324   0.827   1.946   5.069 -0.4635  0.1226  0.2040
   88SOPE  H18R 8325   0.813   1.989   4.968  0.1142 -1.4767 -0.5873
   88SOPE  H18S 8326   0.853   2.029   5.138 -2.9456 -0.0756  1.4924
   88SOPE  H18T 8327   0.730   1.904   5.105 -0.1589 -2.5891 -1.7967
   88SOPE   C33 8328   1.116   1.174   3.682  0.1359 -0.1324 -0.0850
   88SOPE   H3X 8329   1.193   1.103   3.645 -0.2336 -1.4746  1.5856
   88SOPE   H3Y 8330   1.017   1.125   3.671 -0.3601  1.0106 -0.8642
   88SOPE   C34 8331   1.144   1.200   3.827 -0.2549 -0.6295 -0.4990
   88SOPE   H4X 8332   1.047   1.248   3.852 -0.6048 -0.1422 -2.5947
   88SOPE   H4Y 8333   1.227   1.271   3.847  0.3666 -1.4721 -0.0560
   88SOPE   C35 8334   1.152   1.076   3.915  0.3766 -0.4183 -0.0040
   88SOPE   H5X 8335   1.251   1.026   3.906  0.0790 -1.1099  0.4900
   88SOPE   H5Y 8336   1.066   1.011   3.886 -2.8355  3.4667 -0.0923
   88SOPE   C36 8337   1.143   1.132   4.060 -0.2099  0.0413  0.5588
   88SOPE   H6X 8338   1.047   1.184   4.082 -0.2933 -0.3927  1.2398
   88SOPE   H6Y 8339   1.234   1.191   4.082  0.4059 -0.4093 -0.6920
   88SOPE   C37 8340   1.160   1.018   4.158  0.3707  0.6664  0.1500
   88SOPE   H7X 8341   1.235   0.941   4.130  0.1213 -0.0625  1.3849
   88SOPE   H7Y 8342   1.067   0.958   4.152  1.1074 -0.4055 -1.0136
   88SOPE   C38 8343   1.181   1.068   4.305  0.5362 -0.2419 -1.0458
   88SOPE   H8X 8344   1.085   1.118   4.331 -0.4331 -1.8427 -1.3671
   88SOPE   H8Y 8345   1.265   1.139   4.293 -0.0375  0.7253  0.4117
   88SOPE   C39 8346   1.212   0.976   4.426 -0.6723 -0.1589  0.5950
   88SOPE   H9X 8347   1.276   0.891   4.395 -0.0390  0.6960 -0.5077
   88SOPE   H9Y 8348   1.122   0.923   4.466 -0.9252  0.4672  0.8649
   88SOPE  C310 8349   1.299   1.042   4.537 -0.2846 -0.0509 -0.2956
   88SOPE  H10X 8350   1.374   1.093   4.472 -0.6728  0.6076 -0.2452
   88SOPE  H10Y 8351   1.348   0.965   4.599 -1.2691 -0.8936 -0.5389
   88SOPE  C311 8352   1.220   1.137   4.621 -0.3952  0.2134  0.1545
   88SOPE  H11X 8353   1.148   1.077   4.682 -0.0022 -0.2248  0.1874
   88SOPE  H11Y 8354   1.161   1.198   4.549 -1.1982  0.7657  1.2371
   88SOPE  C312 8355   1.304   1.233   4.702  0.3870 -0.2113 -0.2603
   88SOPE  H12X 8356   1.390   1.178   4.747 -0.7608  0.3725  2.9082
   88SOPE  H12Y 8357   1.245   1.278   4.785  1.4142 -2.0284  1.5575
   88SOPE  C313 8358   1.338   1.352   4.611 -0.1501  0.0147  0.0286
   88SOPE  H13X 8359   1.270   1.358   4.523  1.4733 -1.4818 -1.4340
   88SOPE  H13Y 8360   1.421   1.300   4.557 -0.5990  1.9791 -2.7909
   88SOPE  C314 8361   1.390   1.480   4.670  0.0299  0.8607  0.1271
   88SOPE  H14X 8362   1.313   1.519   4.741 -1.1426 -4.0709  2.0072
   88SOPE  H14Y 8363   1.401   1.543   4.579  0.9013 -0.9689 -1.0740
   88SOPE  C315 8364   1.520   1.464   4.747  0.2210  0.4443 -0.3317
   88SOPE  H15X 8365   1.561   1.567   4.752 -1.1605  0.9676  1.3995
   88SOPE  H15Y 8366   1.594   1.400   4.694 -0.3684 -1.4804  1.0710
   88SOPE  C316 8367   1.510   1.413   4.887  0.5152  0.0721 -0.0914
   88SOPE  H16X 8368   1.462   1.314   4.895  3.2296 -1.3529 -0.4166
   88SOPE  H16Y 8369   1.444   1.482   4.944 -0.4636  0.1325 -1.2483
   88SOPE  C317 8370   1.645   1.414   4.957 -0.3960  0.3343 -0.5515
   88SOPE  H17X 8371   1.690   1.516   4.964  1.5374 -0.3929 -1.5675
   88SOPE  H17Y 8372   1.715   1.347   4.903 -0.7601 -2.8811  2.5634
   88SOPE  C318 8373   1.629   1.365   5.095 -0.1444 -0.2143 -0.3990
   88SOPE  H18X 8374   1.703   1.293   5.136 -0.4832  0.8103  2.2466
   88SOPE  H18Y 8375   1.536   1.306   5.109 -0.6459  0.3119 -1.4012
   88SOPE  H18Z 8376   1.613   1.450   5.165 -2.2515 -1.1722  0.3803
   89SAPC     N 8377   1.414   3.651   6.828 -0.2490  0.8308 -0.1753
   89SAPC   C12 8378   1.527   3.737   6.785 -0.4890 -0.2251  0.2893
   89SAPC  H12A 8379   1.614   3.703   6.839  0.2200  1.7124  0.4735
   89SAPC  H12B 8380   1.505   3.836   6.822 -0.4384 -0.8055  1.9275
   89SAPC   C13 8381   1.433   3.606   6.971  0.4193  0.9067 -0.9885
   89SAPC  H13A 8382   1.523   3.546   6.976 -0.1333 -0.0591 -2.3026
   89SAPC  H13B 8383   1.448   3.693   7.034 -1.8718 -1.0583  2.6488
   89SAPC  H13C 8384   1.352   3.549   7.014  0.4392  1.5414 -0.0644
   89SAPC   C14 8385   1.291   3.723   6.819  0.3699  0.1413  0.2447
   89SAPC  H14A 8386   1.294   3.806   6.888  2.0597  0.6799 -0.4133
   89SAPC  H14B 8387   1.278   3.763   6.720 -0.9797  0.8082  0.6723
   89SAPC  H14C 8388   1.202   3.667   6.840  1.3650 -3.4628 -3.7692
   89SAPC   C15 8389   1.399   3.524   6.749 -0.3914  0.0659  0.2686
   89SAPC  H15A 8390   1.378   3.545   6.645  1.3461 -0.7763 -0.2764
   89SAPC  H15B 8391   1.488   3.463   6.753 -0.5930 -0.2445  0.0228
   89SAPC  H15C 8392   1.311   3.469   6.778 -1.2686  0.7692 -0.9488
   89SAPC   C11 8393   1.578   3.752   6.635  0.8744  0.6350 -0.2720
   89SAPC  H11A 8394   1.613   3.653   6.598  1.2360  0.3599  0.7683
   89SAPC  H11B 8395   1.665   3.821   6.637  0.9853  0.6234  3.6900
   89SAPC     P 8396   1.423   3.930   6.514 -0.1505  0.3147 -0.0968
   89SAPC   O13 8397   1.294   3.922   6.438 -0.1770  0.0571  0.0373
   89SAPC   O14 8398   1.441   4.024   6.616 -0.2241 -0.7262 -0.2170
   89SAPC   O12 8399   1.465   3.784   6.549  0.2480 -0.2173 -0.2013
   89SAPC   O11 8400   1.526   3.962   6.404 -0.2872  0.7745 -0.5359
   89SAPC    C1 8401   1.587   3.864   6.314  1.4087 -0.0357  0.1329
   89SAPC    HA 8402   1.693   3.896   6.311  0.8449  2.5008  2.6662
   89SAPC    HB 8403   1.593   3.763   6.359  1.0773  0.0924  0.4740
   89SAPC    C2 8404   1.524   3.857   6.171  0.5541  0.2079  0.5098
   89SAPC    HS 8405   1.434   3.793   6.178 -0.7906  2.1243  1.7944
   89SAPC   O21 8406   1.623   3.804   6.081 -0.4021  0.1262  0.5325
   89SAPC   C21 8407   1.633   3.672   6.095  0.2723 -0.4169  0.4299
   89SAPC   O22 8408   1.563   3.605   6.167  0.2122 -0.4982 -0.1012
   89SAPC   C22 8409   1.721   3.610   5.996 -0.0256  0.4255  0.3774
   89SAPC   H2R 8410   1.789   3.688   5.956 -0.6487  1.3108  1.0134
   89SAPC   H2S 8411   1.794   3.542   6.045  1.3566 -1.4052 -3.7327
   89SAPC    C3 8412   1.479   3.997   6.124 -0.9785  0.0288  0.3014
   89SAPC    HX 8413   1.563   4.068   6.140 -0.8832 -0.0962  0.3563
   89SAPC    HY 8414   1.395   4.035   6.186  0.7287  1.9658  1.5859
   89SAPC   O31 8415   1.447   4.008   5.986 -0.2056 -0.0719  0.2139
   89SAPC   C31 8416   1.352   3.921   5.952  0.6260  0.1746  0.1032
   89SAPC   O32 8417   1.274   3.856   6.021  0.2507 -0.1321 -0.5370
   89SAPC   C32 8418   1.322   3.931   5.806 -0.9448  0.0410 -0.2682
   89SAPC   H2X 8419   1.412   3.987   5.774 -0.1962  0.0669  1.7477
   89SAPC   H2Y 8420   1.234   3.990   5.772 -0.8112  0.4860  0.1523
   89SAPC   C23 8421   1.645   3.538   5.877  0.4161 -0.3327  0.3473
   89SAPC   H3R 8422   1.627   3.620   5.804 -0.9694 -0.4893  0.4830
   89SAPC   H3S 8423   1.556   3.482   5.913 -0.5075  0.3930 -0.7301
   89SAPC   C24 8424   1.745   3.448   5.794 -0.1366  0.0540  0.2752
   89SAPC   H4R 8425   1.769   3.377   5.876 -1.1305  1.1447  1.5643
   89SAPC   H4S 8426   1.834   3.510   5.770  1.0229 -2.3918 -2.3468
   89SAPC   C25 8427   1.693   3.368   5.670 -0.3127  1.2544  0.4760
   89SAPC   H5R 8428   1.613   3.294   5.684 -1.1906  1.7423 -1.5366
   89SAPC   C26 8429   1.742   3.390   5.546  0.1007  0.5127 -0.4816
   89SAPC   H6R 8430   1.685   3.333   5.471  0.9498 -1.4860  0.3119
   89SAPC   C27 8431   1.840   3.485   5.487 -0.1791  0.1964  0.5450
   89SAPC   H7R 8432   1.866   3.568   5.556  1.5735  0.1214  0.0299
   89SAPC   H7S 8433   1.800   3.523   5.391 -0.6934 -2.9957 -0.6564
   89SAPC   C28 8434   1.976   3.426   5.457 -0.4201 -0.0993  0.1106
   89SAPC   H8R 8435   2.026   3.391   5.548 -0.3479 -1.6133 -0.4849
   89SAPC   C29 8436   2.023   3.396   5.339 -0.8701 -0.4947 -0.2056
   89SAPC   H9R 8437   2.120   3.345   5.332 -0.6077  0.1600 -1.6464
   89SAPC  C210 8438   1.962   3.436   5.209  0.6036 -0.3235  0.5422
   89SAPC  H10R 8439   1.852   3.433   5.223  0.1834 -0.7720 -2.2549
   89SAPC  H10S 8440   1.979   3.356   5.134 -0.3972 -0.3420  0.3234
   89SAPC  C211 8441   2.011   3.574   5.161  0.0868 -0.0399 -0.6548
   89SAPC  H11R 8442   1.996   3.659   5.229  1.6684  1.6970 -2.3743
   89SAPC  C212 8443   2.079   3.599   5.049 -0.4029 -0.1219  0.8240
   89SAPC  H12R 8444   2.104   3.702   5.022  1.7378 -1.2988 -2.4001
   89SAPC  C213 8445   2.132   3.488   4.955 -0.0153 -0.2816 -0.0670
   89SAPC  H13R 8446   2.144   3.385   4.996  3.2359  0.9880  2.5799
   89SAPC  H13S 8447   2.238   3.516   4.939 -0.1844 -0.4726 -1.6791
   89SAPC  C214 8448   2.053   3.471   4.832  0.5956 -0.2410  0.9405
   89SAPC  H14R 8449   1.962   3.409   4.845 -0.3851  1.3195  1.8581
   89SAPC  C215 8450   2.085   3.523   4.709 -0.1676  0.1017 -0.9296
   89SAPC  H15R 8451   2.018   3.492   4.628 -2.8533  0.2136  1.1168
   89SAPC  C216 8452   2.198   3.607   4.661 -0.1646 -0.5424  0.1451
   89SAPC  H16R 8453   2.178   3.625   4.553 -0.2505 -0.5077  0.1660
   89SAPC  H16S 8454   2.290   3.546   4.661 -2.1581 -3.8917  2.1021
   89SAPC  C217 8455   2.210   3.742   4.735  0.2041 -0.3831  0.1699
   89SAPC  H17R 8456   2.279   3.816   4.691 -1.0576  1.4965  1.1856
   89SAPC  H17S 8457   2.251   3.697   4.828 -1.7546 -2.0709  0.2816
   89SAPC  C218 8458   2.075   3.827   4.733 -0.1051  0.7381 -0.0114
   89SAPC  H18R 8459   1.987   3.774   4.777  0.8974 -0.4216  0.6495
   89SAPC  H18S 8460   2.051   3.823   4.624 -0.2811  2.3511 -0.0477
   89SAPC  C219 8461   2.087   3.982   4.750  0.5173  0.2961  0.3192
   89SAPC  H19R 8462   1.993   4.030   4.716 -0.5612 -1.5761  0.5141
   89SAPC  H19S 8463   2.184   4.007   4.701  1.8344 -2.7620  1.1353
   89SAPC  C220 8464   2.126   4.017   4.892 -0.0978 -0.1064  0.4716
   89SAPC  H20R 8465   2.213   3.953   4.918  0.0283  0.3556  1.2074
   89SAPC  H20S 8466   2.038   3.995   4.956 -0.2319  0.4955  0.4986
   89SAPC  H20T 8467   2.140   4.126   4.907 -1.8135  0.5796 -2.2268
   89SAPC   C33 8468   1.332   3.799   5.731  0.5001  0.4358  0.0461
   89SAPC   H3X 8469   1.238   3.741   5.740  1.3641 -0.7175  2.8335
   89SAPC   H3Y 8470   1.406   3.736   5.785 -1.7468 -0.8016  1.8688
   89SAPC   C34 8471   1.375   3.822   5.592 -0.2786  0.3247  0.3429
   89SAPC   H4X 8472   1.472   3.876   5.592 -0.5185  0.7622  0.3366
   89SAPC   H4Y 8473   1.307   3.896   5.544 -1.1288 -0.6860 -0.0760
   89SAPC   C35 8474   1.366   3.688   5.520 -0.4484 -0.1377  0.4612
   89SAPC   H5X 8475   1.271   3.637   5.546 -0.4205 -1.0048 -1.0113
   89SAPC   H5Y 8476   1.455   3.642   5.570  0.1263  1.8886  1.4156
   89SAPC   C36 8477   1.399   3.699   5.377  0.5332  0.5685  0.0175
   89SAPC   H6X 8478   1.490   3.759   5.357  1.5692 -1.2011 -0.7994
   89SAPC   H6Y 8479   1.312   3.749   5.329 -1.1565 -1.5818  0.6538
   89SAPC   C37 8480   1.413   3.563   5.319 -0.1918  0.0019  0.1124
   89SAPC   H7X 8481   1.327   3.493   5.321  0.5854 -1.0085 -0.5888
   89SAPC   H7Y 8482   1.493   3.507   5.372 -0.9908 -1.7649 -0.4818
   89SAPC   C38 8483   1.447   3.558   5.165  0.1499 -0.1995 -0.0277
   89SAPC   H8X 8484   1.431   3.451   5.139 -0.1825 -0.2788  0.4877
   89SAPC   H8Y 8485   1.555   3.586   5.162  0.2909 -0.6249  0.7096
   89SAPC   C39 8486   1.364   3.655   5.079 -0.8964 -0.2278 -0.0558
   89SAPC   H9X 8487   1.373   3.631   4.971  0.5268  0.0702 -0.0139
   89SAPC   H9Y 8488   1.396   3.761   5.088 -1.6693  0.4172 -3.4255
   89SAPC  C310 8489   1.209   3.633   5.094 -0.2018 -0.0444 -0.5720
   89SAPC  H10X 8490   1.161   3.695   5.015  0.8942 -1.0384 -2.0627
   89SAPC  H10Y 8491   1.178   3.674   5.193  1.5185  2.7575 -1.0734
   89SAPC  C311 8492   1.169   3.489   5.066  0.4772 -0.2749  0.5159
   89SAPC  H11X 8493   1.228   3.418   5.127  0.6343 -0.1763  0.4791
   89SAPC  H11Y 8494   1.197   3.469   4.960 -0.0400 -0.7958  0.4723
   89SAPC  C312 8495   1.014   3.461   5.084 -0.5174  0.2350  0.3730
   89SAPC  H12X 8496   0.997   3.437   5.191 -1.9015 -0.5426  0.0028
   89SAPC  H12Y 8497   0.996   3.361   5.038  3.1039  0.0628 -0.9751
   89SAPC  C313 8498   0.924   3.573   5.025 -0.0191  0.3900  0.0742
   89SAPC  H13X 8499   0.967   3.590   4.924 -1.0647  0.7463 -0.3299
   89SAPC  H13Y 8500   0.941   3.658   5.093 -0.5213 -0.2464  1.0192
   89SAPC  C314 8501   0.778   3.536   5.032 -0.0569 -0.7486 -0.4283
   89SAPC  H14X 8502   0.727   3.631   5.005 -0.0693 -0.2359  1.3276
   89SAPC  H14Y 8503   0.754   3.491   5.130  1.1947 -2.2647 -0.7683
   89SAPC  C315 8504   0.740   3.448   4.915 -0.5493 -0.1416  0.0571
   89SAPC  H15X 8505   0.783   3.347   4.933 -0.4621 -0.1223 -0.0408
   89SAPC  H15Y 8506   0.797   3.487   4.828  0.4735  0.2027  0.8587
   89SAPC  C316 8507   0.591   3.441   4.900 -0.0602  0.4504  0.6757
   89SAPC  H16X 8508   0.551   3.544   4.915 -0.1422  0.2933  1.5725
   89SAPC  H16Y 8509   0.567   3.373   4.984  0.6780  0.8490  1.2135
   89SAPC  C317 8510   0.534   3.376   4.774  0.1989  0.1625 -0.3101
   89SAPC  H17X 8511   0.557   3.454   4.698 -2.3979 -0.4093 -1.7705
   89SAPC  H17Y 8512   0.424   3.363   4.779  0.2180  0.4551  2.0805
   89SAPC  C318 8513   0.590   3.244   4.712  0.0496  0.4005 -0.0989
   89SAPC  H18X 8514   0.701   3.244   4.705 -0.0562 -1.1308 -3.5049
   89SAPC  H18Y 8515   0.558   3.240   4.606  0.8327 -0.1303 -0.3172
   89SAPC  H18Z 8516   0.558   3.159   4.777  0.1236  1.2609  1.1081
   90SAPC     N 8517   0.958   6.489   7.726  0.5353  0.0663 -0.6665
   90SAPC   C12 8518   1.061   6.500   7.616  0.0923  0.3072 -0.3766
   90SAPC  H12A 8519   1.024   6.445   7.531 -0.7630  3.0444 -1.8907
   90SAPC  H12B 8520   1.140   6.436   7.654 -2.1051 -2.1307  0.3670
   90SAPC   C13 8521   0.825   6.536   7.680 -0.8136  0.0984  0.0777
   90SAPC  H13A 8522   0.788   6.470   7.603  1.5550 -1.8388  0.4761
   90SAPC  H13B 8523   0.756   6.547   7.762  0.2086  0.6945  0.8961
   90SAPC  H13C 8524   0.835   6.633   7.634 -0.7278 -0.4337 -1.0501
   90SAPC   C14 8525   0.946   6.347   7.774 -0.5122  0.5544  0.2820
   90SAPC  H14A 8526   0.913   6.277   7.698  0.0751  0.2285  0.3216
   90SAPC  H14B 8527   1.042   6.318   7.813 -0.3425  0.6498 -0.0666
   90SAPC  H14C 8528   0.863   6.342   7.844 -2.4451 -0.9608 -1.9516
   90SAPC   C15 8529   0.989   6.576   7.837  0.6428 -0.1035 -0.2222
   90SAPC  H15A 8530   0.900   6.570   7.898 -0.2959  0.5461 -1.4822
   90SAPC  H15B 8531   1.076   6.545   7.892  0.3406  0.1584  0.4111
   90SAPC  H15C 8532   1.019   6.677   7.814  1.4136  0.3343  2.3822
   90SAPC   C11 8533   1.100   6.635   7.573 -0.3434 -0.0357  0.0724
   90SAPC  H11A 8534   1.151   6.700   7.647  1.4558  0.5432 -1.5779
   90SAPC  H11B 8535   1.002   6.674   7.538  0.3007  1.9609  0.3304
   90SAPC     P 8536   1.166   6.718   7.344 -0.2620 -0.0841  0.4642
   90SAPC   O13 8537   1.133   6.848   7.402 -0.1840  0.2040  0.5134
   90SAPC   O14 8538   1.284   6.718   7.253  0.1223  0.4672 -0.6298
   90SAPC   O12 8539   1.190   6.614   7.460 -0.5185  0.1021  0.1650
   90SAPC   O11 8540   1.039   6.656   7.275  1.0980 -0.4952  0.1309
   90SAPC    C1 8541   1.018   6.519   7.233  0.0257 -0.6492 -0.3938
   90SAPC    HA 8542   1.099   6.450   7.267 -0.2399  0.1955  2.1900
   90SAPC    HB 8543   0.927   6.481   7.284 -1.8879  2.2435 -1.3853
   90SAPC    C2 8544   0.987   6.495   7.086 -0.1908 -0.5915  1.1327
   90SAPC    HS 8545   0.966   6.386   7.077 -2.8617 -0.0734  0.1843
   90SAPC   O21 8546   1.091   6.549   7.000  0.1533 -0.6249  0.1282
   90SAPC   C21 8547   1.197   6.468   6.976 -0.2308 -0.7597  0.5153
   90SAPC   O22 8548   1.201   6.349   7.004  0.4419  0.0321  0.2574
   90SAPC   C22 8549   1.314   6.550   6.922  0.3373 -0.5760  0.8522
   90SAPC   H2R 8550   1.272   6.617   6.845 -2.1685 -0.5593  2.1433
   90SAPC   H2S 8551   1.351   6.623   6.997 -0.3245  1.7663 -1.0105
   90SAPC    C3 8552   0.854   6.568   7.040 -0.6142  0.3120  0.2195
   90SAPC    HX 8553   0.862   6.676   7.064 -0.4736  0.3431  0.0324
   90SAPC    HY 8554   0.760   6.536   7.092  0.0694 -0.4719  1.0113
   90SAPC   O31 8555   0.838   6.571   6.897  0.0713 -0.3062 -0.0492
   90SAPC   C31 8556   0.794   6.461   6.843  0.5781 -0.1225  0.2770
   90SAPC   O32 8557   0.772   6.359   6.906  0.3507  0.1539 -0.7751
   90SAPC   C32 8558   0.779   6.483   6.696  0.5065 -0.4160  0.2211
   90SAPC   H2X 8559   0.884   6.504   6.665  0.3433  2.5777  1.3539
   90SAPC   H2Y 8560   0.720   6.575   6.677 -0.4767 -1.2105 -0.7077
   90SAPC   C23 8561   1.429   6.455   6.871  0.1357  0.1119  0.4789
   90SAPC   H3R 8562   1.424   6.353   6.915  2.6906 -0.1582  0.2945
   90SAPC   H3S 8563   1.527   6.495   6.906  0.3228 -1.2739  1.6320
   90SAPC   C24 8564   1.429   6.433   6.714  0.4823  0.6381  0.6353
   90SAPC   H4R 8565   1.519   6.374   6.686 -0.3343 -1.6939  2.5371
   90SAPC   H4S 8566   1.444   6.536   6.674  0.1489  0.7053  0.6787
   90SAPC   C25 8567   1.294   6.379   6.667  0.3154 -0.4123 -0.3703
   90SAPC   H5R 8568   1.271   6.274   6.690 -0.0282 -0.4007 -0.6472
   90SAPC   C26 8569   1.203   6.436   6.588  0.1582 -0.0318  0.4561
   90SAPC   H6R 8570   1.112   6.377   6.568 -0.7949  1.1407  1.1932
   90SAPC   C27 8571   1.210   6.569   6.521 -0.3650 -0.0630 -0.5162
   90SAPC   H7R 8572   1.186   6.561   6.412 -0.6491  0.5670 -0.5069
   90SAPC   H7S 8573   1.316   6.603   6.518  0.1666 -1.2124  2.3220
   90SAPC   C28 8574   1.138   6.672   6.601  0.6078 -0.9243 -0.1105
   90SAPC   H8R 8575   1.144   6.665   6.710 -1.9947  1.0105  0.2690
   90SAPC   C29 8576   1.049   6.761   6.557  0.4737  0.3711  0.6925
   90SAPC   H9R 8577   1.027   6.841   6.629  0.0479  1.8961 -1.0318
   90SAPC  C210 8578   1.011   6.785   6.410  0.5160 -0.3967 -0.2291
   90SAPC  H10R 8579   1.100   6.767   6.346  0.2249 -0.0439 -0.7429
   90SAPC  H10S 8580   0.982   6.892   6.399  2.0982  0.4678  2.7399
   90SAPC  C211 8581   0.897   6.689   6.365  0.5337 -0.3822 -0.0438
   90SAPC  H11R 8582   0.866   6.623   6.448 -0.2713  0.5997  0.4644
   90SAPC  C212 8583   0.854   6.663   6.241  0.1417  0.0600 -0.7269
   90SAPC  H12R 8584   0.769   6.595   6.226 -0.5968  0.5767  0.8781
   90SAPC  C213 8585   0.906   6.734   6.124 -1.1984 -0.3745 -0.0902
   90SAPC  H13R 8586   0.887   6.664   6.040  0.4927 -0.5961 -0.3231
   90SAPC  H13S 8587   1.016   6.752   6.121 -1.4417  2.4402  2.9424
   90SAPC  C214 8588   0.834   6.857   6.101  0.4162  0.2951  0.3805
   90SAPC  H14R 8589   0.815   6.917   6.191  0.3419  0.9396 -0.0542
   90SAPC  C215 8590   0.812   6.911   5.978  0.2351 -0.2202 -0.1494
   90SAPC  H15R 8591   0.769   7.012   5.972  1.1899  0.1641 -0.6905
   90SAPC  C216 8592   0.848   6.852   5.841 -0.7188 -0.7042  0.1888
   90SAPC  H16R 8593   0.915   6.764   5.857 -1.9472 -1.4825  1.2861
   90SAPC  H16S 8594   0.907   6.933   5.793 -2.2162 -1.7057 -3.7402
   90SAPC  C217 8595   0.717   6.829   5.773  0.2811  0.3466 -0.5528
   90SAPC  H17R 8596   0.664   6.926   5.764 -1.0967 -0.2754  0.5789
   90SAPC  H17S 8597   0.639   6.768   5.824 -1.0222  1.3365 -1.3080
   90SAPC  C218 8598   0.740   6.759   5.638  0.2549  0.2259 -0.1092
   90SAPC  H18R 8599   0.635   6.730   5.614 -0.5099  3.4715 -1.1491
   90SAPC  H18S 8600   0.817   6.680   5.653  0.0425 -0.2010 -1.1605
   90SAPC  C219 8601   0.780   6.857   5.517  0.4054  0.6073 -0.3334
   90SAPC  H19R 8602   0.743   6.956   5.552 -1.3697 -0.5827  1.4405
   90SAPC  H19S 8603   0.725   6.840   5.422  0.4695  0.3572 -0.3272
   90SAPC  C220 8604   0.931   6.872   5.485 -0.0214 -0.4512  0.5471
   90SAPC  H20R 8605   0.970   6.772   5.454 -0.6107 -1.2479  2.2741
   90SAPC  H20S 8606   0.991   6.911   5.570  1.2744 -0.4692 -0.3270
   90SAPC  H20T 8607   0.943   6.947   5.403 -0.1347 -0.9144  0.0990
   90SAPC   C33 8608   0.714   6.364   6.628  0.0258  0.1172  0.9165
   90SAPC   H3X 8609   0.612   6.347   6.669 -0.6392  3.1424  0.7958
   90SAPC   H3Y 8610   0.783   6.278   6.634  1.0430  0.8659  0.1785
   90SAPC   C34 8611   0.702   6.398   6.474  0.1834  0.3662  0.1708
   90SAPC   H4X 8612   0.793   6.370   6.418  1.1674 -1.5959  2.5757
   90SAPC   H4Y 8613   0.669   6.503   6.456  1.2548  0.5107 -1.0945
   90SAPC   C35 8614   0.588   6.318   6.399 -0.8842  0.3374 -0.0704
   90SAPC   H5X 8615   0.484   6.329   6.435 -0.7802  0.3474  0.2304
   90SAPC   H5Y 8616   0.614   6.211   6.416  2.2518  0.9368 -0.4477
   90SAPC   C36 8617   0.615   6.341   6.253 -0.4161 -0.3786 -0.3931
   90SAPC   H6X 8618   0.714   6.298   6.228  0.0231  1.6262 -2.3829
   90SAPC   H6Y 8619   0.628   6.447   6.222 -0.3523 -0.0262  0.7780
   90SAPC   C37 8620   0.519   6.266   6.158 -1.2144  0.6612 -0.4817
   90SAPC   H7X 8621   0.415   6.306   6.164 -1.3679  0.1058  0.7900
   90SAPC   H7Y 8622   0.504   6.156   6.169  0.2895 -0.0523 -4.0327
   90SAPC   C38 8623   0.568   6.277   6.013 -0.1176 -0.9221 -0.3502
   90SAPC   H8X 8624   0.653   6.207   6.000 -0.9865 -2.5815  2.1272
   90SAPC   H8Y 8625   0.598   6.381   5.987 -0.2846 -1.2146 -1.8451
   90SAPC   C39 8626   0.458   6.241   5.909 -0.0728  0.2298 -0.1387
   90SAPC   H9X 8627   0.371   6.309   5.924  1.4840  2.4737 -0.7076
   90SAPC   H9Y 8628   0.418   6.138   5.922 -0.8972  0.6492  0.7630
   90SAPC  C310 8629   0.507   6.262   5.767  0.2296  0.4769  0.1235
   90SAPC  H10X 8630   0.550   6.166   5.732 -1.8370  0.0384 -1.3880
   90SAPC  H10Y 8631   0.578   6.343   5.739 -0.2304  0.1282 -2.2493
   90SAPC  C311 8632   0.385   6.302   5.681  0.2501 -0.3677 -0.6697
   90SAPC  H11X 8633   0.362   6.403   5.722  1.5160  0.5354 -2.0722
   90SAPC  H11Y 8634   0.297   6.235   5.690  1.6028 -1.8226  3.6778
   90SAPC  C312 8635   0.409   6.335   5.539 -0.0309 -0.5201  0.2577
   90SAPC  H12X 8636   0.472   6.427   5.537  0.2922 -0.7558 -0.9369
   90SAPC  H12Y 8637   0.312   6.357   5.489  1.0459  4.2258 -0.2094
   90SAPC  C313 8638   0.463   6.217   5.455 -0.2369  0.0847 -0.2259
   90SAPC  H13X 8639   0.404   6.125   5.475  1.0314 -0.5895  0.6207
   90SAPC  H13Y 8640   0.569   6.199   5.484  0.3799  0.7168 -1.9887
   90SAPC  C314 8641   0.445   6.250   5.306  0.3463  0.2439 -0.4654
   90SAPC  H14X 8642   0.341   6.275   5.277  0.0140 -0.0317  0.4747
   90SAPC  H14Y 8643   0.462   6.156   5.249  0.2866 -0.0236 -0.0421
   90SAPC  C315 8644   0.554   6.352   5.245 -0.4978 -0.1858 -0.0343
   90SAPC  H15X 8645   0.655   6.317   5.273 -0.6925 -0.6558  0.0918
   90SAPC  H15Y 8646   0.538   6.453   5.289 -0.2414 -0.4616  0.7026
   90SAPC  C316 8647   0.536   6.377   5.097  0.4886 -0.4201 -0.0915
   90SAPC  H16X 8648   0.601   6.463   5.069  0.0060  0.0509  0.2153
   90SAPC  H16Y 8649   0.436   6.415   5.068  1.6159  1.7891 -1.4079
   90SAPC  C317 8650   0.584   6.257   5.009  0.8206 -0.5322 -0.6686
   90SAPC  H17X 8651   0.504   6.184   5.033 -1.6841  2.9141  2.5516
   90SAPC  H17Y 8652   0.681   6.210   5.039 -0.5300 -2.3200  1.1724
   90SAPC  C318 8653   0.585   6.278   4.853 -0.2456 -0.1806 -0.4482
   90SAPC  H18X 8654   0.585   6.177   4.809  1.3565 -0.8376  0.9325
   90SAPC  H18Y 8655   0.677   6.335   4.829 -1.7113  2.6871  0.2812
   90SAPC  H18Z 8656   0.492   6.327   4.818  0.8342  0.9727 -1.8277
   91SAPC     N 8657   3.438   0.380   7.494 -0.6453  0.4175  0.4660
   91SAPC   C12 8658   3.580   0.354   7.529 -0.3754 -0.7412  0.2840
   91SAPC  H12A 8659   3.584   0.273   7.600 -0.4814 -0.5986  0.4525
   91SAPC  H12B 8660   3.624   0.441   7.575  1.1537 -0.4619 -1.5560
   91SAPC   C13 8661   3.425   0.497   7.399 -0.8418  0.1861  0.5392
   91SAPC  H13A 8662   3.481   0.481   7.308 -0.8144 -0.3145  0.6402
   91SAPC  H13B 8663   3.325   0.509   7.360 -0.8907 -2.5984 -0.4571
   91SAPC  H13C 8664   3.448   0.592   7.445 -3.4313  1.4049 -0.4808
   91SAPC   C14 8665   3.392   0.254   7.437  0.2947  0.1309 -0.0070
   91SAPC  H14A 8666   3.306   0.265   7.372  0.9695 -0.6713 -1.0667
   91SAPC  H14B 8667   3.455   0.221   7.357 -0.2811 -0.0501 -0.3927
   91SAPC  H14C 8668   3.374   0.183   7.516 -0.7431 -0.2645 -0.5801
   91SAPC   C15 8669   3.360   0.413   7.612  0.3830  0.1255 -0.0904
   91SAPC  H15A 8670   3.377   0.512   7.651 -1.5977  0.0622  1.0713
   91SAPC  H15B 8671   3.256   0.407   7.585  1.0426 -0.3366 -2.8788
   91SAPC  H15C 8672   3.372   0.341   7.691 -2.3945 -0.0884  0.2119
   91SAPC   C11 8673   3.679   0.315   7.414  0.3828 -1.0159  0.0371
   91SAPC  H11A 8674   3.647   0.219   7.369 -2.9250 -0.3586  0.7082
   91SAPC  H11B 8675   3.773   0.287   7.465 -0.2702  0.1664  1.9660
   91SAPC     P 8676   3.809   0.540   7.362  0.6109  0.0624  0.3555
   91SAPC   O13 8677   3.776   0.617   7.485 -0.0331 -0.0244 -0.3970
   91SAPC   O14 8678   3.944   0.480   7.361 -0.2394 -0.4139 -0.1702
   91SAPC   O12 8679   3.703   0.428   7.327 -0.4565 -0.0457  0.1844
   91SAPC   O11 8680   3.793   0.637   7.240  0.5764 -0.5194 -0.0980
   91SAPC    C1 8681   3.802   0.578   7.111  0.1517  0.4268  0.7946
   91SAPC    HA 8682   3.902   0.530   7.096 -0.8784 -1.9862  1.1431
   91SAPC    HB 8683   3.722   0.502   7.094  1.1942 -0.5979  0.2970
   91SAPC    C2 8684   3.794   0.678   6.992  0.5222  0.1019  1.0874
   91SAPC    HS 8685   3.701   0.733   7.017  0.5776 -1.1930  4.6173
   91SAPC   O21 8686   3.769   0.614   6.867 -0.1607  0.2881  0.4107
   91SAPC   C21 8687   3.668   0.646   6.797  0.1531 -0.6524  0.5139
   91SAPC   O22 8688   3.577   0.723   6.818  0.1556 -0.3892  0.4726
   91SAPC   C22 8689   3.686   0.580   6.662  0.5831 -0.5005 -0.4754
   91SAPC   H2R 8690   3.785   0.601   6.616  0.8843 -0.4334  0.2053
   91SAPC   H2S 8691   3.681   0.470   6.675  2.0708 -0.4658  0.6854
   91SAPC    C3 8692   3.906   0.781   6.979 -0.4767  0.2919  0.2206
   91SAPC    HX 8693   4.000   0.725   6.958 -1.8751 -2.2646  0.3206
   91SAPC    HY 8694   3.931   0.828   7.077  1.8689 -0.2253 -0.0712
   91SAPC   O31 8695   3.869   0.871   6.874  0.5906 -0.3792  0.0189
   91SAPC   C31 8696   3.801   0.985   6.907  0.4545 -0.2316  0.5170
   91SAPC   O32 8697   3.752   1.010   7.017  0.5751 -0.3739 -0.1226
   91SAPC   C32 8698   3.810   1.088   6.792  0.2151  0.0170  0.6394
   91SAPC   H2X 8699   3.897   1.057   6.731  0.9080  1.0829  1.0571
   91SAPC   H2Y 8700   3.846   1.181   6.842  0.6108  0.2866 -0.1384
   91SAPC   C23 8701   3.583   0.617   6.546  0.4910  0.6832 -0.7932
   91SAPC   H3R 8702   3.573   0.726   6.530 -0.6495  0.7770  0.3161
   91SAPC   H3S 8703   3.482   0.594   6.586  1.1266 -1.2314 -0.1540
   91SAPC   C24 8704   3.602   0.537   6.419 -0.1392  0.2989  0.1658
   91SAPC   H4R 8705   3.518   0.580   6.361 -1.4920 -0.0538  1.7596
   91SAPC   H4S 8706   3.573   0.431   6.441 -2.9519  1.0040  0.2007
   91SAPC   C25 8707   3.719   0.530   6.330  0.5826 -0.8986  0.2340
   91SAPC   H5R 8708   3.803   0.467   6.360 -1.4096 -2.6810  2.4352
   91SAPC   C26 8709   3.747   0.613   6.222 -0.1528  0.7796 -0.6518
   91SAPC   H6R 8710   3.843   0.591   6.172 -1.1173 -0.1744 -2.1583
   91SAPC   C27 8711   3.660   0.727   6.174 -0.1711 -0.2644  0.4265
   91SAPC   H7R 8712   3.649   0.814   6.242 -1.6155  0.2788 -0.4518
   91SAPC   H7S 8713   3.556   0.690   6.160  0.1691 -0.8754 -0.5489
   91SAPC   C28 8714   3.692   0.780   6.033  0.1758 -0.5080 -0.1206
   91SAPC   H8R 8715   3.755   0.870   6.042  1.0884 -0.9402 -1.8039
   91SAPC   C29 8716   3.664   0.736   5.912 -0.4743  0.0794  0.3653
   91SAPC   H9R 8717   3.703   0.787   5.823 -0.5550 -1.6028 -0.6781
   91SAPC  C210 8718   3.598   0.600   5.891 -0.0189  0.2431  1.0168
   91SAPC  H10R 8719   3.529   0.602   5.804  1.3710 -2.9964 -0.3416
   91SAPC  H10S 8720   3.533   0.576   5.978  0.6790  1.2292  1.8263
   91SAPC  C211 8721   3.708   0.493   5.867 -0.0966  0.2615  0.6269
   91SAPC  H11R 8722   3.770   0.456   5.950  1.3121  0.5737 -0.2513
   91SAPC  C212 8723   3.750   0.457   5.744 -0.1619 -0.6462 -0.4575
   91SAPC  H12R 8724   3.833   0.385   5.736  0.4937  0.1991 -1.4452
   91SAPC  C213 8725   3.699   0.518   5.618 -0.2465  0.7709 -0.3023
   91SAPC  H13R 8726   3.612   0.587   5.629 -0.4127  0.4785  0.2585
   91SAPC  H13S 8727   3.647   0.445   5.553 -1.6410  1.7459 -0.3466
   91SAPC  C214 8728   3.803   0.596   5.544 -0.1842  0.1081 -0.1169
   91SAPC  H14R 8729   3.875   0.647   5.610  0.6078  0.2953 -1.0918
   91SAPC  C215 8730   3.820   0.600   5.411  0.2622  0.0663 -0.4303
   91SAPC  H15R 8731   3.894   0.668   5.365 -0.4164  1.1691  0.0671
   91SAPC  C216 8732   3.742   0.533   5.311  0.0402  0.5338  0.2686
   91SAPC  H16R 8733   3.638   0.521   5.351  0.3014 -0.5040  0.6634
   91SAPC  H16S 8734   3.786   0.435   5.285  1.8649  1.8441 -1.8370
   91SAPC  C217 8735   3.730   0.614   5.182  0.2786 -0.1142  0.7403
   91SAPC  H17R 8736   3.720   0.724   5.193 -0.1172  0.0212 -0.8447
   91SAPC  H17S 8737   3.635   0.585   5.133  0.4715 -1.1889  0.9719
   91SAPC  C218 8738   3.840   0.574   5.092 -0.4164  0.3109  0.1718
   91SAPC  H18R 8739   3.847   0.463   5.088  1.3569  0.4306 -0.8227
   91SAPC  H18S 8740   3.934   0.604   5.143 -0.6916  1.3724  0.0886
   91SAPC  C219 8741   3.838   0.639   4.955 -0.2435 -0.3401 -0.4534
   91SAPC  H19R 8742   3.885   0.739   4.971  1.0794 -0.6636 -2.0751
   91SAPC  H19S 8743   3.736   0.657   4.915  0.3997  0.7376 -1.7120
   91SAPC  C220 8744   3.919   0.565   4.843  0.0929  0.1206 -0.4312
   91SAPC  H20R 8745   3.949   0.644   4.771  0.1809  0.2490 -0.2556
   91SAPC  H20S 8746   3.845   0.500   4.791  2.5827 -1.0681 -2.7345
   91SAPC  H20T 8747   3.992   0.493   4.886 -0.0441  0.3271  0.1490
   91SAPC   C33 8748   3.679   1.104   6.706 -0.1099 -0.5046 -0.9516
   91SAPC   H3X 8749   3.705   1.186   6.637  1.3213 -0.2692 -0.1587
   91SAPC   H3Y 8750   3.599   1.131   6.778  2.1804  1.4954  1.0127
   91SAPC   C34 8751   3.648   0.986   6.609 -0.6994  0.1590  0.3872
   91SAPC   H4X 8752   3.541   0.982   6.579 -0.3685 -2.0677 -0.6424
   91SAPC   H4Y 8753   3.658   0.887   6.658 -0.6796  0.3259  0.7205
   91SAPC   C35 8754   3.746   0.985   6.493  0.2779 -0.2155  0.3595
   91SAPC   H5X 8755   3.741   0.880   6.456 -0.3553 -0.4352  1.0385
   91SAPC   H5Y 8756   3.851   1.014   6.514  0.6490 -1.5415  0.4333
   91SAPC   C36 8757   3.697   1.074   6.372 -0.0993 -0.8018 -0.0145
   91SAPC   H6X 8758   3.686   1.174   6.419 -0.8911 -1.8531  2.1774
   91SAPC   H6Y 8759   3.601   1.032   6.333 -0.4462  0.6363 -0.7637
   91SAPC   C37 8760   3.803   1.085   6.267  0.3439 -0.0414 -0.4782
   91SAPC   H7X 8761   3.851   0.986   6.253 -2.2804 -1.5482  0.3968
   91SAPC   H7Y 8762   3.887   1.153   6.292  1.0540 -0.6860 -1.0712
   91SAPC   C38 8763   3.744   1.131   6.136 -0.0542 -0.3605 -0.4730
   91SAPC   H8X 8764   3.690   1.228   6.138 -0.3613 -0.4864  2.5218
   91SAPC   H8Y 8765   3.661   1.062   6.113  1.2510 -1.4084 -2.2292
   91SAPC   C39 8766   3.838   1.133   6.019 -0.5876 -0.9764  0.1246
   91SAPC   H9X 8767   3.918   1.057   6.023  1.6477  1.2562  1.1998
   91SAPC   H9Y 8768   3.889   1.232   6.017 -1.2873 -0.4722  2.9433
   91SAPC  C310 8769   3.761   1.116   5.881 -0.6363 -0.1273  0.4443
   91SAPC  H10X 8770   3.671   1.181   5.874 -0.2446  0.6118  1.8705
   91SAPC  H10Y 8771   3.727   1.012   5.861  0.2514 -0.0776 -1.5911
   91SAPC  C311 8772   3.845   1.137   5.759 -0.2684 -0.0234 -0.3735
   91SAPC  H11X 8773   3.934   1.071   5.772 -0.0052  0.5783  1.0374
   91SAPC  H11Y 8774   3.882   1.241   5.746  1.6276 -0.4633  1.0308
   91SAPC  C312 8775   3.777   1.093   5.633  0.7966  0.1954  0.7920
   91SAPC  H12X 8776   3.694   1.165   5.615  0.4386 -0.7062 -1.5812
   91SAPC  H12Y 8777   3.727   0.994   5.649 -0.9521  1.2357  2.1546
   91SAPC  C313 8778   3.869   1.094   5.506 -0.7751 -0.5514 -0.4430
   91SAPC  H13X 8779   3.964   1.037   5.518 -1.3027 -1.7628 -1.7390
   91SAPC  H13Y 8780   3.896   1.201   5.494 -0.8567  0.2469  4.3661
   91SAPC  C314 8781   3.797   1.051   5.380 -0.7898 -0.3375  0.8134
   91SAPC  H14X 8782   3.720   1.129   5.360  0.2849  0.6024  0.2411
   91SAPC  H14Y 8783   3.759   0.950   5.407  0.1145 -1.0470 -0.4799
   91SAPC  C315 8784   3.881   1.032   5.258 -0.1334 -0.0762  0.2747
   91SAPC  H15X 8785   3.829   0.984   5.172 -0.0046 -2.4485  1.4223
   91SAPC  H15Y 8786   3.965   0.967   5.291  1.2842  1.5222 -0.0510
   91SAPC  C316 8787   3.954   1.159   5.205  0.8700 -0.2634  0.5032
   91SAPC  H16X 8788   4.000   1.219   5.286 -0.6551  2.7920 -0.7018
   91SAPC  H16Y 8789   3.869   1.219   5.164  0.1627 -0.6330  1.4038
   91SAPC  C317 8790   4.076   1.144   5.108  0.2316  1.5045  0.8231
   91SAPC  H17X 8791   4.041   1.061   5.044  0.4618  1.1718  1.1226
   91SAPC  H17Y 8792   4.165   1.111   5.166  0.8928  1.1471 -0.3647
   91SAPC  C318 8793   4.102   1.271   5.022  0.4926 -0.9452 -0.4578
   91SAPC  H18X 8794   4.088   1.371   5.068  0.7230 -0.4383 -1.4573
   91SAPC  H18Y 8795   4.024   1.282   4.944 -0.1252  2.0490  0.4730
   91SAPC  H18Z 8796   4.204   1.272   4.979  0.0063  0.0401 -1.6511
   92SAPC     N 8797   3.756   3.609   7.474  0.0073 -1.0472  0.6241
   92SAPC   C12 8798   3.772   3.631   7.314 -0.1458 -0.1344 -0.5652
   92SAPC  H12A 8799   3.679   3.593   7.275 -0.5424  0.4115 -0.1803
   92SAPC  H12B 8800   3.850   3.564   7.282  1.4750  1.3052  0.1660
   92SAPC   C13 8801   3.733   3.462   7.507 -0.4960 -0.1312  0.1067
   92SAPC  H13A 8802   3.814   3.405   7.463  0.6069 -1.1323  3.2083
   92SAPC  H13B 8803   3.733   3.456   7.614 -1.5689 -0.8475  0.0776
   92SAPC  H13C 8804   3.637   3.428   7.473 -0.6029  2.3420 -2.5074
   92SAPC   C14 8805   3.891   3.648   7.532  0.3986 -0.2194  0.1201
   92SAPC  H14A 8806   3.963   3.593   7.473 -0.2054  0.7416 -1.6156
   92SAPC  H14B 8807   3.910   3.753   7.517 -0.6029 -0.0044  0.3047
   92SAPC  H14C 8808   3.910   3.626   7.635 -0.5273 -0.5121  0.2392
   92SAPC   C15 8809   3.654   3.695   7.536 -0.0034 -0.3649 -0.3818
   92SAPC  H15A 8810   3.672   3.796   7.502 -0.0747 -1.0513 -2.5949
   92SAPC  H15B 8811   3.554   3.664   7.507 -0.3842  0.0903  0.4097
   92SAPC  H15C 8812   3.653   3.689   7.644  1.2918  0.1263 -0.3349
   92SAPC   C11 8813   3.807   3.771   7.260  0.3021  0.1127  0.1200
   92SAPC  H11A 8814   3.762   3.771   7.158  2.1452  0.1137 -0.7287
   92SAPC  H11B 8815   3.915   3.773   7.236 -0.0080  0.6827 -1.3628
   92SAPC     P 8816   3.671   3.989   7.275  0.3102 -0.1455  0.2281
   92SAPC   O13 8817   3.532   3.934   7.259  0.0813 -0.5945  0.0016
   92SAPC   O14 8818   3.689   4.107   7.358  0.3997 -0.1239  0.3643
   92SAPC   O12 8819   3.769   3.885   7.339  0.6398  0.0577 -0.3012
   92SAPC   O11 8820   3.741   4.013   7.128 -0.1710  0.5546 -0.6744
   92SAPC    C1 8821   3.861   4.092   7.121  0.4427  0.1696  0.7948
   92SAPC    HA 8822   3.852   4.184   7.183  1.4952 -0.4714  1.9447
   92SAPC    HB 8823   3.954   4.034   7.139  1.7117  1.7265 -0.3916
   92SAPC    C2 8824   3.864   4.160   6.983 -0.4855  0.1618  0.4303
   92SAPC    HS 8825   3.762   4.201   6.970 -2.3557 -3.4281  2.1888
   92SAPC   O21 8826   3.895   4.062   6.880  0.2718 -0.0710 -0.5683
   92SAPC   C21 8827   3.823   4.066   6.773  0.1087  0.7576 -0.1623
   92SAPC   O22 8828   3.742   4.152   6.752 -0.1860 -0.1501  0.0065
   92SAPC   C22 8829   3.854   3.960   6.672 -0.1617 -0.0886 -0.1667
   92SAPC   H2R 8830   3.962   3.959   6.646  0.0135 -3.6048  0.2003
   92SAPC   H2S 8831   3.840   3.863   6.723  0.8835  0.6381  1.6259
   92SAPC    C3 8832   3.969   4.279   6.979  0.1623 -0.2542 -0.3108
   92SAPC    HX 8833   4.066   4.225   6.977 -0.2750 -1.0397 -0.3893
   92SAPC    HY 8834   3.959   4.345   7.068 -1.0529  1.8768 -1.9291
   92SAPC   O31 8835   3.937   4.363   6.870 -0.0093 -0.5219  0.0036
   92SAPC   C31 8836   4.042   4.382   6.783  0.2372  0.0064 -0.8869
   92SAPC   O32 8837   4.146   4.325   6.796 -0.3377  0.5627  0.0795
   92SAPC   C32 8838   3.995   4.485   6.688 -0.6995 -0.8026 -0.3034
   92SAPC   H2X 8839   4.056   4.576   6.708 -0.9050 -0.8645  0.6590
   92SAPC   H2Y 8840   3.891   4.509   6.718 -0.6269  0.0830 -0.7381
   92SAPC   C23 8841   3.761   3.977   6.551 -0.1365 -0.2940 -0.3524
   92SAPC   H3R 8842   3.787   4.070   6.496  0.1656 -0.7403 -0.9722
   92SAPC   H3S 8843   3.654   3.974   6.579  0.2516 -0.7731  1.1670
   92SAPC   C24 8844   3.774   3.864   6.453 -0.9158  0.1426  0.4713
   92SAPC   H4R 8845   3.683   3.866   6.390 -0.1780  1.3906 -0.6135
   92SAPC   H4S 8846   3.767   3.768   6.508  0.0766 -1.2535 -1.7523
   92SAPC   C25 8847   3.906   3.868   6.380  0.6219  0.6308  0.4571
   92SAPC   H5R 8848   3.989   3.819   6.433 -1.2254 -2.1849  0.9864
   92SAPC   C26 8849   3.916   3.920   6.260  0.2750 -0.0052  0.2775
   92SAPC   H6R 8850   4.012   3.898   6.212 -0.6373 -2.6298 -0.4866
   92SAPC   C27 8851   3.808   3.991   6.183  0.0584 -1.0505 -0.0911
   92SAPC   H7R 8852   3.856   4.085   6.150  0.5719 -1.2157  0.1832
   92SAPC   H7S 8853   3.715   4.016   6.238 -0.0998  0.1155 -0.8492
   92SAPC   C28 8854   3.764   3.900   6.077 -1.2642  0.5402  0.1778
   92SAPC   H8R 8855   3.756   3.799   6.121 -0.3993  0.3507 -0.0732
   92SAPC   C29 8856   3.735   3.926   5.947 -0.5063  0.8710  0.6751
   92SAPC   H9R 8857   3.700   3.846   5.881 -3.0632  1.3815  1.2807
   92SAPC  C210 8858   3.731   4.057   5.870  1.0735  0.9002 -0.3277
   92SAPC  H10R 8859   3.743   4.146   5.935 -0.8825  1.3136 -0.4699
   92SAPC  H10S 8860   3.628   4.085   5.838  0.5117 -0.4382  0.2263
   92SAPC  C211 8861   3.833   4.047   5.761  0.5609 -0.2914 -0.0203
   92SAPC  H11R 8862   3.936   4.018   5.787 -0.0126 -2.5538 -0.0637
   92SAPC  C212 8863   3.813   4.079   5.633  0.3488  0.7471 -0.2036
   92SAPC  H12R 8864   3.890   4.063   5.556  0.5585 -0.3809  0.2325
   92SAPC  C213 8865   3.683   4.135   5.573  0.0123 -0.2360  1.0660
   92SAPC  H13R 8866   3.704   4.232   5.524 -0.1798 -0.9452 -0.5179
   92SAPC  H13S 8867   3.609   4.158   5.653 -1.9117  0.4342 -0.8002
   92SAPC  C214 8868   3.619   4.040   5.470 -0.0463 -0.4244 -0.2411
   92SAPC  H14R 8869   3.598   3.938   5.506 -2.1359 -0.1445 -0.5508
   92SAPC  C215 8870   3.607   4.056   5.334 -0.1671  0.8142 -0.0665
   92SAPC  H15R 8871   3.572   3.961   5.291  0.2880 -0.9636  3.1670
   92SAPC  C216 8872   3.632   4.175   5.251 -0.1623  0.2810  0.8797
   92SAPC  H16R 8873   3.661   4.268   5.305 -2.1720  0.6461  1.4123
   92SAPC  H16S 8874   3.534   4.199   5.203 -0.4888  1.7991  2.1815
   92SAPC  C217 8875   3.732   4.161   5.132  0.3164 -0.2121  0.1851
   92SAPC  H17R 8876   3.711   4.253   5.074 -1.5727 -0.5612  0.2679
   92SAPC  H17S 8877   3.703   4.073   5.070 -0.6620  1.3767 -1.6999
   92SAPC  C218 8878   3.881   4.164   5.170  0.0494  0.0531 -0.0938
   92SAPC  H18R 8879   3.901   4.200   5.273  0.9417 -1.0722  0.1476
   92SAPC  H18S 8880   3.936   4.231   5.100  1.7640 -0.7891  0.3768
   92SAPC  C219 8881   3.951   4.024   5.155  0.2148 -0.3140  0.0753
   92SAPC  H19R 8882   3.939   3.993   5.049 -0.1615 -0.0829  0.0497
   92SAPC  H19S 8883   3.904   3.942   5.213  0.0387 -0.7080 -0.6039
   92SAPC  C220 8884   4.082   4.045   5.207 -0.4791  0.5558 -0.3354
   92SAPC  H20R 8885   4.132   4.130   5.156 -0.2084  0.2368 -0.6034
   92SAPC  H20S 8886   4.143   3.953   5.194 -1.6773 -0.6670  2.0956
   92SAPC  H20T 8887   4.082   4.078   5.313  1.0838  0.6741 -0.3437
   92SAPC   C33 8888   3.987   4.436   6.548 -0.2776 -0.1364 -0.1585
   92SAPC   H3X 8889   4.080   4.384   6.518 -0.1654  1.1739 -2.2643
   92SAPC   H3Y 8890   3.990   4.529   6.487 -0.6648  0.5360  0.8117
   92SAPC   C34 8891   3.855   4.365   6.516 -0.2739 -0.0343  0.3544
   92SAPC   H4X 8892   3.768   4.434   6.523 -2.2192 -2.3430  0.1874
   92SAPC   H4Y 8893   3.842   4.282   6.589  0.1421 -0.7647 -0.3854
   92SAPC   C35 8894   3.849   4.318   6.368  0.5276  0.4377  0.6183
   92SAPC   H5X 8895   3.793   4.222   6.361  1.9060 -0.8118  4.2110
   92SAPC   H5Y 8896   3.956   4.300   6.345  0.1487  0.5128 -1.4001
   92SAPC   C36 8897   3.786   4.424   6.278 -0.3796 -0.1508  0.0978
   92SAPC   H6X 8898   3.842   4.520   6.279 -1.1247  0.2918 -0.0143
   92SAPC   H6Y 8899   3.680   4.437   6.310 -0.5353  0.1359 -0.5269
   92SAPC   C37 8900   3.785   4.380   6.131 -0.5562  0.2533 -0.4129
   92SAPC   H7X 8901   3.702   4.308   6.119 -1.2150  1.0631 -0.7764
   92SAPC   H7Y 8902   3.879   4.324   6.109 -0.0532 -0.0770  2.1880
   92SAPC   C38 8903   3.746   4.490   6.039  0.5382  0.0996  0.3818
   92SAPC   H8X 8904   3.825   4.566   6.020  0.2627  0.2693 -0.1023
   92SAPC   H8Y 8905   3.659   4.536   6.089  0.6699 -0.3157  1.0067
   92SAPC   C39 8906   3.704   4.430   5.900 -0.3874 -0.2399 -0.6488
   92SAPC   H9X 8907   3.624   4.355   5.916  0.1534 -0.7222 -0.1600
   92SAPC   H9Y 8908   3.787   4.373   5.852  0.0820 -0.9029  0.9101
   92SAPC  C310 8909   3.640   4.542   5.816 -0.1277  0.0883 -0.2491
   92SAPC  H10X 8910   3.697   4.637   5.815  1.0676 -0.6104 -0.4021
   92SAPC  H10Y 8911   3.540   4.564   5.858  0.7187  1.1973  1.3001
   92SAPC  C311 8912   3.637   4.495   5.668 -0.5567  0.2345  0.5442
   92SAPC  H11X 8913   3.566   4.409   5.668 -0.2285 -0.0435  0.1077
   92SAPC  H11Y 8914   3.739   4.459   5.643 -0.2224  1.8542 -0.5083
   92SAPC  C312 8915   3.601   4.613   5.574  0.3965  0.2716  0.2986
   92SAPC  H12X 8916   3.668   4.700   5.593 -1.3052  1.4895  0.9889
   92SAPC  H12Y 8917   3.495   4.639   5.596 -0.7073 -2.0553 -1.7348
   92SAPC  C313 8918   3.610   4.591   5.419 -0.3263 -0.1798  0.1902
   92SAPC  H13X 8919   3.617   4.696   5.382 -1.9181  1.1820  3.3680
   92SAPC  H13Y 8920   3.512   4.547   5.391 -0.8068  1.2933 -0.5439
   92SAPC  C314 8921   3.739   4.513   5.374  0.0110  0.3254 -0.6367
   92SAPC  H14X 8922   3.744   4.412   5.421  3.7633  1.0752  0.9538
   92SAPC  H14Y 8923   3.827   4.561   5.424 -0.5605  1.4275 -0.6585
   92SAPC  C315 8924   3.765   4.492   5.221  0.1029  0.2578 -0.0126
   92SAPC  H15X 8925   3.678   4.436   5.179 -0.2716 -0.5917  1.7648
   92SAPC  H15Y 8926   3.856   4.434   5.196 -0.3009  0.3903 -1.9464
   92SAPC  C316 8927   3.786   4.628   5.143 -0.4338  0.7210  0.0646
   92SAPC  H16X 8928   3.822   4.704   5.216  0.1236  1.6856 -1.1810
   92SAPC  H16Y 8929   3.690   4.668   5.106 -0.9434  0.1279  0.7280
   92SAPC  C317 8930   3.897   4.624   5.041  0.1389  0.2155  1.1218
   92SAPC  H17X 8931   3.867   4.570   4.948 -0.1925 -0.7197  1.7512
   92SAPC  H17Y 8932   3.979   4.566   5.090  1.2484 -0.9699 -1.8574
   92SAPC  C318 8933   3.958   4.765   4.996 -0.1628  0.0037 -0.2936
   92SAPC  H18X 8934   4.049   4.751   4.934  0.3906  2.4571 -0.1392
   92SAPC  H18Y 8935   3.987   4.819   5.089  1.0517 -1.7955  0.4336
   92SAPC  H18Z 8936   3.874   4.811   4.939  0.1483  2.1675  0.8592
   93SAPC     N 8937   4.017   5.734   7.277  0.2206 -0.0232  0.3564
   93SAPC   C12 8938   4.016   5.763   7.130 -0.2128  0.6033  0.3174
   93SAPC  H12A 8939   3.911   5.770   7.109 -0.0980 -1.5915 -1.3221
   93SAPC  H12B 8940   4.051   5.675   7.078 -2.4015  0.4704 -1.0354
   93SAPC   C13 8941   3.941   5.610   7.301 -0.7992 -1.2486 -0.9711
   93SAPC  H13A 8942   3.949   5.562   7.398 -1.3343  1.5269  0.5462
   93SAPC  H13B 8943   3.836   5.630   7.286 -0.9167  1.2361  2.2018
   93SAPC  H13C 8944   3.977   5.542   7.225  2.9722 -0.0453 -0.4289
   93SAPC   C14 8945   4.151   5.704   7.327 -0.5147 -0.1266  0.3567
   93SAPC  H14A 8946   4.154   5.698   7.434 -0.4080 -4.0705  0.2974
   93SAPC  H14B 8947   4.195   5.609   7.300  0.5106  0.5933 -0.6311
   93SAPC  H14C 8948   4.213   5.787   7.295 -1.0087  0.8204  1.7735
   93SAPC   C15 8949   3.964   5.848   7.357 -0.8370 -0.2059 -0.1371
   93SAPC  H15A 8950   3.867   5.872   7.317  0.0763  2.5377 -0.9704
   93SAPC  H15B 8951   3.954   5.834   7.464  1.7355  0.8939  0.3255
   93SAPC  H15C 8952   4.023   5.938   7.344  0.4087 -1.2865 -2.6347
   93SAPC   C11 8953   4.095   5.886   7.071 -0.0841  0.2805 -0.2596
   93SAPC  H11A 8954   4.056   5.980   7.116  0.9014 -0.6370  2.8097
   93SAPC  H11B 8955   4.078   5.896   6.962 -0.3448  1.4970 -0.1231
   93SAPC     P 8956   4.348   5.830   7.014  0.1394 -0.2310 -0.1701
   93SAPC   O13 8957   4.480   5.841   7.080  0.6999 -0.1131  0.2616
   93SAPC   O14 8958   4.314   5.696   6.963  0.0777 -0.4606  0.7332
   93SAPC   O12 8959   4.235   5.878   7.113  1.0970  0.1936  0.0506
   93SAPC   O11 8960   4.343   5.925   6.898 -0.1466  0.1357  0.0991
   93SAPC    C1 8961   4.314   6.065   6.926  0.3896 -1.1401  0.2939
   93SAPC    HA 8962   4.214   6.092   6.967  1.8751  4.8301  0.9261
   93SAPC    HB 8963   4.385   6.116   6.995 -0.1657  4.2675 -2.6034
   93SAPC    C2 8964   4.322   6.150   6.790 -0.5556  0.7398 -0.3691
   93SAPC    HS 8965   4.292   6.254   6.813  0.5299  0.6679  1.6265
   93SAPC   O21 8966   4.244   6.088   6.689 -0.2477  0.5728 -0.3976
   93SAPC   C21 8967   4.113   6.104   6.700  0.1972  0.3856  0.7495
   93SAPC   O22 8968   4.054   6.162   6.786 -0.2752  0.0667  0.0261
   93SAPC   C22 8969   4.048   6.048   6.567  0.1774  0.0182 -0.1535
   93SAPC   H2R 8970   4.131   6.045   6.492 -0.3880  0.5703 -0.8243
   93SAPC   H2S 8971   4.023   5.942   6.586  0.6291  0.2729  2.1894
   93SAPC    C3 8972   4.468   6.158   6.733  0.6138 -0.1787 -0.0113
   93SAPC    HX 8973   4.499   6.054   6.708 -0.4640 -0.0218 -2.2966
   93SAPC    HY 8974   4.541   6.196   6.808  0.3729  0.6250 -0.1720
   93SAPC   O31 8975   4.478   6.240   6.621  0.1077  0.2530  0.2102
   93SAPC   C31 8976   4.470   6.179   6.498 -0.1022 -0.0821  0.2610
   93SAPC   O32 8977   4.453   6.061   6.483 -0.0731  0.4702 -0.5893
   93SAPC   C32 8978   4.495   6.281   6.386  0.0989 -0.4001 -0.1048
   93SAPC   H2X 8979   4.594   6.330   6.394 -0.6902  1.1705  0.4906
   93SAPC   H2Y 8980   4.418   6.360   6.399  1.1972  1.1141 -2.2531
   93SAPC   C23 8981   3.932   6.140   6.512 -0.2237  0.1975 -0.0339
   93SAPC   H3R 8982   3.987   6.231   6.481  2.5026 -0.9587  1.0648
   93SAPC   H3S 8983   3.861   6.163   6.594 -0.8596  2.7547 -1.2236
   93SAPC   C24 8984   3.863   6.085   6.386 -0.3463  0.1460 -0.1475
   93SAPC   H4R 8985   3.834   5.980   6.411  3.3910 -0.7311  1.2400
   93SAPC   H4S 8986   3.943   6.075   6.310  0.5334 -1.9725  0.9675
   93SAPC   C25 8987   3.753   6.180   6.333 -0.6609 -0.1247  0.1547
   93SAPC   H5R 8988   3.749   6.284   6.371  1.0833 -0.6087  1.8164
   93SAPC   C26 8989   3.641   6.133   6.266 -0.2846 -0.6422  0.1774
   93SAPC   H6R 8990   3.581   6.206   6.210  0.4680 -0.5639 -0.5475
   93SAPC   C27 8991   3.637   5.992   6.218 -0.7291  0.2238 -0.0046
   93SAPC   H7R 8992   3.626   5.917   6.299  0.5158 -1.2413 -1.1489
   93SAPC   H7S 8993   3.740   5.971   6.185 -0.6691  1.7072 -0.8752
   93SAPC   C28 8994   3.532   5.960   6.127  0.4411 -0.0362 -0.1183
   93SAPC   H8R 8995   3.442   5.915   6.171 -1.0745  2.0129 -0.9534
   93SAPC   C29 8996   3.535   5.992   5.992 -0.0903  0.8605  0.2405
   93SAPC   H9R 8997   3.452   5.958   5.928  1.5769 -0.1813 -1.4668
   93SAPC  C210 8998   3.648   6.051   5.909 -0.0291 -0.0460  0.0957
   93SAPC  H10R 8999   3.642   5.993   5.814 -0.5998 -1.7426  1.1133
   93SAPC  H10S 9000   3.748   6.028   5.950  0.5999  0.9164 -0.8449
   93SAPC  C211 9001   3.630   6.199   5.896 -0.5133  0.3925 -0.1623
   93SAPC  H11R 9002   3.587   6.246   5.986 -1.1923  0.8063 -0.6861
   93SAPC  C212 9003   3.647   6.271   5.785  0.5320  0.0894 -0.1851
   93SAPC  H12R 9004   3.636   6.380   5.795  2.3848  0.3439 -0.7056
   93SAPC  C213 9005   3.702   6.223   5.654  0.7241  0.2429  0.3023
   93SAPC  H13R 9006   3.617   6.197   5.587  0.3873  0.7550  0.5244
   93SAPC  H13S 9007   3.753   6.125   5.669 -0.6924 -0.3771  1.2642
   93SAPC  C214 9008   3.796   6.310   5.584  0.0947  0.4598 -0.1285
   93SAPC  H14R 9009   3.880   6.346   5.645  0.9098  0.9912 -1.5077
   93SAPC  C215 9010   3.816   6.354   5.457  0.2966 -0.3643  0.6144
   93SAPC  H15R 9011   3.911   6.405   5.437  0.0291 -0.3166 -0.5964
   93SAPC  C216 9012   3.715   6.348   5.341 -1.0260  0.0544  1.1855
   93SAPC  H16R 9013   3.615   6.378   5.377 -0.9543  1.4624  0.3175
   93SAPC  H16S 9014   3.699   6.246   5.300 -2.4627 -0.0090  1.8472
   93SAPC  C217 9015   3.755   6.445   5.231 -0.0376  0.1784  0.3727
   93SAPC  H17R 9016   3.859   6.420   5.201 -1.2099 -1.2512 -3.0532
   93SAPC  H17S 9017   3.749   6.553   5.258 -2.4408 -0.1570  1.4847
   93SAPC  C218 9018   3.687   6.432   5.093  0.4406  0.3150 -0.0372
   93SAPC  H18R 9019   3.587   6.479   5.107  0.9735  1.1517  1.1882
   93SAPC  H18S 9020   3.661   6.325   5.084 -4.0374  0.6571  4.4875
   93SAPC  C219 9021   3.774   6.506   4.989 -0.7861 -0.0568 -0.2006
   93SAPC  H19R 9022   3.739   6.491   4.885 -1.3161  0.3553 -0.0820
   93SAPC  H19S 9023   3.879   6.471   5.003 -0.6456  1.0291  1.8524
   93SAPC  C220 9024   3.774   6.656   5.021 -0.1977 -0.3704  0.2022
   93SAPC  H20R 9025   3.816   6.694   5.116  0.4209  0.8319 -0.5266
   93SAPC  H20S 9026   3.671   6.698   5.027 -0.3443 -0.5753 -0.6162
   93SAPC  H20T 9027   3.831   6.706   4.939  1.8718 -1.8543  0.6623
   93SAPC   C33 9028   4.472   6.213   6.256  0.2181  0.7457  0.0462
   93SAPC   H3X 9029   4.534   6.121   6.246 -0.8912 -0.1429  1.0902
   93SAPC   H3Y 9030   4.501   6.282   6.174  2.8050  0.0667  0.2933
   93SAPC   C34 9031   4.323   6.172   6.238  0.4802 -0.1181 -0.0140
   93SAPC   H4X 9032   4.264   6.237   6.306  1.2464 -0.2382  0.7798
   93SAPC   H4Y 9033   4.303   6.071   6.280  0.0698 -0.8140 -1.7765
   93SAPC   C35 9034   4.277   6.182   6.095 -0.6100 -0.9847  0.0688
   93SAPC   H5X 9035   4.340   6.131   6.018  1.4245 -0.3923  1.2797
   93SAPC   H5Y 9036   4.282   6.286   6.055  0.1389 -0.6917  0.8910
   93SAPC   C36 9037   4.127   6.146   6.076 -0.0143  0.3904 -0.2461
   93SAPC   H6X 9038   4.054   6.212   6.127 -0.6368  1.2272 -2.1347
   93SAPC   H6Y 9039   4.113   6.045   6.119 -0.0900  1.2311  1.8099
   93SAPC   C37 9040   4.080   6.143   5.931  0.3297  0.8833 -0.3069
   93SAPC   H7X 9041   4.047   6.246   5.908  1.4591  1.4049  0.3342
   93SAPC   H7Y 9042   3.990   6.078   5.936  1.1913 -0.3651 -0.4422
   93SAPC   C38 9043   4.178   6.088   5.816  0.5159 -0.4471  0.6524
   93SAPC   H8X 9044   4.201   5.983   5.844  1.2470 -0.1089  1.3960
   93SAPC   H8Y 9045   4.274   6.144   5.817  0.0638  0.3509  0.3747
   93SAPC   C39 9046   4.117   6.095   5.675 -0.0337 -0.0003  0.1844
   93SAPC   H9X 9047   4.196   6.065   5.603 -0.9597 -1.3879 -0.2957
   93SAPC   H9Y 9048   4.088   6.198   5.646  2.8286  0.1776 -2.6098
   93SAPC  C310 9049   4.003   5.985   5.664 -0.1459 -0.3369  0.4682
   93SAPC  H10X 9050   3.931   6.011   5.745 -0.3070 -1.5065  0.7205
   93SAPC  H10Y 9051   4.038   5.884   5.694 -2.2274 -1.5849 -1.0356
   93SAPC  C311 9052   3.938   5.975   5.524 -0.4168 -0.4311  0.0029
   93SAPC  H11X 9053   3.934   6.079   5.484  0.2478 -0.9573 -1.5118
   93SAPC  H11Y 9054   3.837   5.934   5.546 -0.3492  0.3062  1.9539
   93SAPC  C312 9055   4.023   5.893   5.417  0.4463  1.0149 -0.3739
   93SAPC  H12X 9056   4.032   5.784   5.439  0.5952  0.9955 -0.5304
   93SAPC  H12Y 9057   4.128   5.928   5.423  0.6563  0.2645  0.6526
   93SAPC  C313 9058   3.978   5.911   5.269  0.6295 -0.3713  0.3415
   93SAPC  H13X 9059   3.945   6.015   5.247 -1.8761 -0.9089  1.1978
   93SAPC  H13Y 9060   3.890   5.847   5.248  0.1970  0.6981 -1.3159
   93SAPC  C314 9061   4.089   5.882   5.167 -0.4174  0.1247  0.1553
   93SAPC  H14X 9062   4.125   5.779   5.190 -0.4103 -0.0494 -0.6381
   93SAPC  H14Y 9063   4.174   5.953   5.173  0.5172 -0.8775 -0.7741
   93SAPC  C315 9064   4.044   5.863   5.011  0.7295  0.5442  0.0772
   93SAPC  H15X 9065   4.015   5.953   4.953  0.8716 -0.8573 -2.3104
   93SAPC  H15Y 9066   3.947   5.809   5.006  1.0330  0.0536 -0.6115
   93SAPC  C316 9067   4.157   5.785   4.945 -0.3500 -0.3934 -0.2295
   93SAPC  H16X 9068   4.196   5.703   5.009  0.7929  0.1938 -0.1478
   93SAPC  H16Y 9069   4.243   5.853   4.924 -0.7575 -0.0493 -0.8432
   93SAPC  C317 9070   4.109   5.720   4.810  0.0337  0.1888  0.3207
   93SAPC  H17X 9071   4.064   5.788   4.734 -0.1805  1.4792  1.5461
   93SAPC  H17Y 9072   4.034   5.641   4.830  0.7315 -1.0751 -1.7922
   93SAPC  C318 9073   4.218   5.661   4.729  0.6884 -0.1822 -0.1754
   93SAPC  H18X 9074   4.287   5.745   4.705  0.7848 -0.2874 -0.2659
   93SAPC  H18Y 9075   4.190   5.612   4.633  1.2792  0.5595 -0.7388
   93SAPC  H18Z 9076   4.276   5.590   4.790  0.7177 -0.4503 -0.5140
   94SAPC     N 9077   5.652   6.132   7.057  1.1738  0.0137 -0.0998
   94SAPC   C12 9078   5.505   6.152   7.093 -0.2588 -0.1389 -0.1263
   94SAPC  H12A 9079   5.492   6.259   7.107 -0.1935 -0.3296  1.7572
   94SAPC  H12B 9080   5.488   6.104   7.188 -0.5988 -4.0250 -1.9782
   94SAPC   C13 9081   5.673   5.984   7.049  0.0670  0.1713  0.5442
   94SAPC  H13A 9082   5.759   5.960   6.988  1.5323  1.0011  2.2059
   94SAPC  H13B 9083   5.686   5.932   7.143 -0.0631 -0.8141  0.0351
   94SAPC  H13C 9084   5.579   5.946   7.012 -1.0162  2.0136  1.2959
   94SAPC   C14 9085   5.679   6.195   6.927  0.0036 -0.3193 -0.5511
   94SAPC  H14A 9086   5.784   6.175   6.909  0.3072 -1.8967  2.4012
   94SAPC  H14B 9087   5.621   6.161   6.842 -2.0644  1.6373 -0.0223
   94SAPC  H14C 9088   5.667   6.302   6.933  2.4019 -0.0760  2.4686
   94SAPC   C15 9089   5.732   6.194   7.165  0.0054 -0.4616  0.0910
   94SAPC  H15A 9090   5.832   6.153   7.159 -0.5356 -1.6669 -0.9583
   94SAPC  H15B 9091   5.717   6.301   7.170  0.1581 -0.3577 -1.3697
   94SAPC  H15C 9092   5.700   6.149   7.258 -0.3932 -3.4141 -1.3815
   94SAPC   C11 9093   5.392   6.098   6.999 -0.2595 -0.7314 -0.0472
   94SAPC  H11A 9094   5.416   6.135   6.897  2.4748  1.5045  1.2538
   94SAPC  H11B 9095   5.296   6.147   7.027 -2.1336 -3.6726 -0.8387
   94SAPC     P 9096   5.296   5.870   7.094 -0.0989  0.0174  0.0206
   94SAPC   O13 9097   5.328   5.727   7.070 -0.2553 -0.0481  0.0188
   94SAPC   O14 9098   5.301   5.917   7.236 -0.5325  0.6217 -0.1587
   94SAPC   O12 9099   5.386   5.954   6.998 -0.0657  0.1675 -0.3399
   94SAPC   O11 9100   5.154   5.911   7.046 -0.2421  0.0192 -0.1038
   94SAPC    C1 9101   5.078   5.818   6.968  0.2392 -0.5207 -0.0673
   94SAPC    HA 9102   5.074   5.718   7.016 -0.5949 -0.9173 -0.9440
   94SAPC    HB 9103   4.976   5.859   6.957  0.5968  0.8695  1.3948
   94SAPC    C2 9104   5.133   5.799   6.824 -0.4858  0.1904  0.0678
   94SAPC    HS 9105   5.223   5.736   6.839 -0.4769  0.3347  0.6436
   94SAPC   O21 9106   5.153   5.934   6.769 -0.6284  0.5159 -0.5479
   94SAPC   C21 9107   5.247   5.956   6.679  0.4897 -0.3639  0.4139
   94SAPC   O22 9108   5.328   5.877   6.632  0.6289 -0.1690  0.0404
   94SAPC   C22 9109   5.227   6.102   6.646 -0.3302 -0.0742 -0.1786
   94SAPC   H2R 9110   5.125   6.125   6.683 -1.0710 -1.8881 -0.9645
   94SAPC   H2S 9111   5.297   6.158   6.712  0.5692 -0.1595 -1.0325
   94SAPC    C3 9112   5.046   5.713   6.727 -0.6576  0.0125  0.5492
   94SAPC    HX 9113   5.027   5.622   6.787 -0.3742 -1.7557 -1.8639
   94SAPC    HY 9114   5.113   5.681   6.644  1.2860  0.2528  1.9631
   94SAPC   O31 9115   4.932   5.791   6.688  0.4307  0.4682 -0.1276
   94SAPC   C31 9116   4.862   5.720   6.605 -0.0799 -0.4332 -0.7755
   94SAPC   O32 9117   4.880   5.601   6.595  0.1025  0.3199  0.7327
   94SAPC   C32 9118   4.769   5.804   6.523  0.1852  0.3053 -0.4283
   94SAPC   H2X 9119   4.832   5.874   6.464 -0.3130  1.3366  0.2377
   94SAPC   H2Y 9120   4.703   5.875   6.577  1.0730  0.2269  0.8063
   94SAPC   C23 9121   5.242   6.102   6.491 -0.1310 -0.2697  0.5144
   94SAPC   H3R 9122   5.341   6.060   6.463  0.2070  0.0683  1.1934
   94SAPC   H3S 9123   5.254   6.207   6.457  2.1603 -1.1186 -1.6195
   94SAPC   C24 9124   5.125   6.036   6.410 -0.0729 -0.9169  0.4347
   94SAPC   H4R 9125   5.133   5.927   6.433 -0.2538 -0.6621  1.8285
   94SAPC   H4S 9126   5.151   6.047   6.303  1.9844 -0.5084  0.9154
   94SAPC   C25 9127   4.987   6.083   6.434  0.0525 -0.0654  0.2870
   94SAPC   H5R 9128   4.954   6.084   6.539  0.5057 -0.5570  0.4372
   94SAPC   C26 9129   4.908   6.145   6.336 -0.0244 -0.3547 -0.1650
   94SAPC   H6R 9130   4.808   6.179   6.370 -0.6134 -2.7164  0.6733
   94SAPC   C27 9131   4.927   6.150   6.193 -0.2688  0.5631  0.4481
   94SAPC   H7R 9132   4.876   6.057   6.160  0.7650 -0.0253  0.4625
   94SAPC   H7S 9133   5.034   6.143   6.164 -0.4698 -0.4238 -0.0894
   94SAPC   C28 9134   4.863   6.269   6.126 -0.0438 -0.0512 -0.7724
   94SAPC   H8R 9135   4.831   6.349   6.194 -1.6758 -2.4731  1.5070
   94SAPC   C29 9136   4.808   6.279   6.000  0.5234 -0.2868  0.0510
   94SAPC   H9R 9137   4.742   6.362   5.970  0.6991  0.1735  0.9028
   94SAPC  C210 9138   4.835   6.184   5.883 -0.3775  0.1308  0.7035
   94SAPC  H10R 9139   4.918   6.115   5.910  0.9715  1.5491  0.3559
   94SAPC  H10S 9140   4.874   6.243   5.798  0.9870  0.4577  1.5132
   94SAPC  C211 9141   4.708   6.108   5.856  0.1722 -1.3039  0.5737
   94SAPC  H11R 9142   4.690   6.012   5.906 -0.2726 -1.5989 -0.1417
   94SAPC  C212 9143   4.602   6.157   5.788 -0.3981  0.2390  0.7394
   94SAPC  H12R 9144   4.510   6.100   5.771 -0.9239  1.5180 -1.0249
   94SAPC  C213 9145   4.592   6.293   5.719 -0.2254  0.4263 -0.0035
   94SAPC  H13R 9146   4.549   6.295   5.617 -0.0856 -0.4142 -0.0848
   94SAPC  H13S 9147   4.693   6.335   5.700  0.7104 -2.0818 -0.9777
   94SAPC  C214 9148   4.517   6.391   5.801  0.1305  0.0036 -0.4710
   94SAPC  H14R 9149   4.543   6.397   5.908 -1.2135  1.9426 -0.1910
   94SAPC  C215 9150   4.397   6.445   5.779  0.1693  0.1868  0.3996
   94SAPC  H15R 9151   4.364   6.513   5.859  1.3651  0.7961  0.3933
   94SAPC  C216 9152   4.314   6.443   5.650  0.0202 -0.2200 -0.6703
   94SAPC  H16R 9153   4.218   6.389   5.662  1.6976 -3.0771  1.1526
   94SAPC  H16S 9154   4.363   6.375   5.577  0.4861 -0.8337  0.2000
   94SAPC  C217 9155   4.302   6.592   5.598 -0.9251  0.4031 -0.2440
   94SAPC  H17R 9156   4.403   6.626   5.566 -0.8608 -1.0638 -1.7335
   94SAPC  H17S 9157   4.271   6.656   5.683  1.6185 -1.8642  2.6400
   94SAPC  C218 9158   4.202   6.594   5.483 -0.2030 -0.9763  1.3301
   94SAPC  H18R 9159   4.174   6.701   5.471  0.3273 -0.7401  2.0832
   94SAPC  H18S 9160   4.110   6.536   5.504 -1.5036  0.1129 -0.9940
   94SAPC  C219 9161   4.253   6.553   5.343 -0.3389  0.1638 -0.3011
   94SAPC  H19R 9162   4.257   6.442   5.349 -2.9402  0.0572  1.1995
   94SAPC  H19S 9163   4.356   6.593   5.349 -0.1178 -0.3841 -0.3376
   94SAPC  C220 9164   4.178   6.600   5.218 -0.0418 -0.1400  0.4605
   94SAPC  H20R 9165   4.209   6.566   5.116  0.0427  0.9827  0.1040
   94SAPC  H20S 9166   4.179   6.711   5.217 -1.9731 -0.0556  2.2681
   94SAPC  H20T 9167   4.070   6.575   5.228  0.0377 -0.5006  0.4612
   94SAPC   C33 9168   4.669   5.727   6.428  0.5739  0.5810 -0.3188
   94SAPC   H3X 9169   4.578   5.705   6.489 -1.6533 -0.3651 -3.7163
   94SAPC   H3Y 9170   4.723   5.633   6.402  0.2581 -0.1524  1.5061
   94SAPC   C34 9171   4.614   5.800   6.294 -0.4096  0.2487 -0.4663
   94SAPC   H4X 9172   4.679   5.889   6.281  2.9947 -1.7510  1.2553
   94SAPC   H4Y 9173   4.512   5.831   6.324 -1.6046 -3.3037 -0.3928
   94SAPC   C35 9174   4.593   5.715   6.168  0.1501 -0.2890  0.0678
   94SAPC   H5X 9175   4.562   5.609   6.184  0.0843 -0.3156 -0.2281
   94SAPC   H5Y 9176   4.691   5.704   6.117  1.3915  2.5826  1.5930
   94SAPC   C36 9177   4.500   5.779   6.066  0.9512 -0.4081  0.1838
   94SAPC   H6X 9178   4.530   5.884   6.047 -0.2654 -0.4233 -2.2381
   94SAPC   H6Y 9179   4.398   5.781   6.109  1.4819  1.3862  1.4640
   94SAPC   C37 9180   4.507   5.725   5.919  0.9247  0.1899  0.4042
   94SAPC   H7X 9181   4.471   5.620   5.912 -0.1530  0.5232  0.8226
   94SAPC   H7Y 9182   4.609   5.721   5.876  1.2903 -0.3171  1.2895
   94SAPC   C38 9183   4.415   5.795   5.818  0.4951 -0.7963 -0.1835
   94SAPC   H8X 9184   4.418   5.903   5.843 -1.4660 -0.3920 -1.4736
   94SAPC   H8Y 9185   4.312   5.754   5.827  0.0137  0.7679  2.7610
   94SAPC   C39 9186   4.452   5.766   5.675 -0.2538 -0.1846  0.6010
   94SAPC   H9X 9187   4.436   5.659   5.649  2.2958 -0.6348  0.6166
   94SAPC   H9Y 9188   4.559   5.790   5.655  0.0458 -0.0177  2.2768
   94SAPC  C310 9189   4.372   5.836   5.562 -0.3572 -0.2656  1.2677
   94SAPC  H10X 9190   4.419   5.932   5.529 -0.4404 -0.3426  0.9146
   94SAPC  H10Y 9191   4.268   5.854   5.595 -0.7557  0.7575 -0.4260
   94SAPC  C311 9192   4.361   5.751   5.433 -0.4255 -0.8521  0.2985
   94SAPC  H11X 9193   4.293   5.800   5.360  0.3130  0.6811  0.5867
   94SAPC  H11Y 9194   4.318   5.650   5.448 -0.1168 -1.3866 -2.0905
   94SAPC  C312 9195   4.504   5.730   5.367  0.2002  0.0256  0.3140
   94SAPC  H12X 9196   4.555   5.653   5.429 -1.0732  0.1004  1.5027
   94SAPC  H12Y 9197   4.560   5.826   5.369  0.9429 -0.3733 -0.4657
   94SAPC  C313 9198   4.489   5.686   5.223 -0.4105  0.1443  0.5436
   94SAPC  H13X 9199   4.477   5.780   5.164  0.3884  1.2463  2.0853
   94SAPC  H13Y 9200   4.403   5.616   5.217  1.3780 -2.1263 -0.4002
   94SAPC  C314 9201   4.605   5.604   5.174  0.4299  0.0060 -0.9704
   94SAPC  H14X 9202   4.619   5.507   5.226  0.0403  1.2222  1.5403
   94SAPC  H14Y 9203   4.700   5.656   5.197 -0.0944 -0.3752  2.5906
   94SAPC  C315 9204   4.589   5.574   5.024  0.5362 -0.9896 -0.4622
   94SAPC  H15X 9205   4.564   5.665   4.965 -0.5579 -1.1955 -0.3216
   94SAPC  H15Y 9206   4.501   5.509   5.006 -2.1319  1.2656  3.0462
   94SAPC  C316 9207   4.716   5.513   4.955  0.1614 -0.1626 -0.6279
   94SAPC  H16X 9208   4.749   5.425   5.014 -1.2736 -0.7176 -0.6011
   94SAPC  H16Y 9209   4.788   5.597   4.942  0.5844 -0.4078  0.0743
   94SAPC  C317 9210   4.680   5.463   4.817  0.5294 -1.1624 -0.9282
   94SAPC  H17X 9211   4.607   5.380   4.829 -0.4672 -0.2284 -0.3590
   94SAPC  H17Y 9212   4.765   5.427   4.755  1.2325  0.3156 -0.8844
   94SAPC  C318 9213   4.611   5.560   4.718  0.2065 -0.0294  0.2010
   94SAPC  H18X 9214   4.508   5.585   4.751  0.4989  0.6214  0.6322
   94SAPC  H18Y 9215   4.596   5.508   4.621  0.3404 -1.7765  1.0575
   94SAPC  H18Z 9216   4.658   5.660   4.710 -0.5390  0.4428  1.4109
   95SAPC     N 9217   3.376   0.533   2.718  0.5676 -0.1546 -0.0585
   95SAPC   C12 9218   3.431   0.456   2.837  0.8155 -0.2039 -0.6484
   95SAPC  H12A 9219   3.504   0.514   2.891 -0.3673  0.0294  0.7832
   95SAPC  H12B 9220   3.497   0.379   2.800 -0.2219 -1.9401  0.9184
   95SAPC   C13 9221   3.288   0.453   2.634 -0.1747 -0.1485 -0.0592
   95SAPC  H13A 9222   3.272   0.508   2.543  0.0449 -0.3948 -0.2472
   95SAPC  H13B 9223   3.335   0.363   2.597 -2.7606 -1.8300  0.5310
   95SAPC  H13C 9224   3.196   0.426   2.684 -0.4754 -0.2484 -0.6663
   95SAPC   C14 9225   3.299   0.658   2.766 -0.1238  0.5139 -0.4971
   95SAPC  H14A 9226   3.269   0.719   2.683 -1.5308  0.2507 -0.2098
   95SAPC  H14B 9227   3.207   0.632   2.817  0.0629 -0.6669 -0.7264
   95SAPC  H14C 9228   3.352   0.723   2.834  0.2712  1.8588 -2.0416
   95SAPC   C15 9229   3.493   0.570   2.632 -0.2371 -1.0236 -0.9857
   95SAPC  H15A 9230   3.554   0.482   2.618  0.8699 -0.0695 -2.4763
   95SAPC  H15B 9231   3.459   0.612   2.538  0.3298  2.3921  0.1764
   95SAPC  H15C 9232   3.550   0.653   2.672 -1.1209 -1.4679  1.3594
   95SAPC   C11 9233   3.334   0.383   2.934  0.2657 -0.2840  0.0752
   95SAPC  H11A 9234   3.259   0.456   2.972 -1.2520 -1.1690 -1.0734
   95SAPC  H11B 9235   3.378   0.351   3.031  0.5842  0.3075  0.1315
   95SAPC     P 9236   3.358   0.142   2.849  0.1829 -0.0890  0.1639
   95SAPC   O13 9237   3.283   0.053   2.754  0.0449  0.1424  0.0517
   95SAPC   O14 9238   3.500   0.171   2.828 -0.1144  0.4456  0.1575
   95SAPC   O12 9239   3.271   0.273   2.870 -0.3187 -0.4362 -0.8229
   95SAPC   O11 9240   3.337   0.083   2.996 -0.2025  0.2912 -0.2302
   95SAPC    C1 9241   3.207   0.105   3.061 -0.1226  0.8863 -0.4855
   95SAPC    HA 9242   3.221   0.182   3.141  0.6149  0.7374 -0.4695
   95SAPC    HB 9243   3.122   0.132   2.995 -2.0987 -1.1667  1.0487
   95SAPC    C2 9244   3.163  -0.030   3.124  0.3165  0.5670  0.1373
   95SAPC    HS 9245   3.078  -0.005   3.191  0.7209  0.7459  0.5865
   95SAPC   O21 9246   3.265  -0.093   3.200  0.3532  0.8369  0.3190
   95SAPC   C21 9247   3.297  -0.025   3.311  0.0374 -0.8024  0.1706
   95SAPC   O22 9248   3.236   0.074   3.349 -0.4070  0.1829  0.0249
   95SAPC   C22 9249   3.415  -0.083   3.384 -1.1363 -0.6258  0.4252
   95SAPC   H2R 9250   3.508  -0.076   3.324  0.5943  1.0924  3.0496
   95SAPC   H2S 9251   3.445  -0.027   3.476  1.3659 -0.3463 -0.4765
   95SAPC    C3 9252   3.107  -0.131   3.020  0.1123  0.0087 -0.5463
   95SAPC    HX 9253   3.173  -0.152   2.933  0.3941  1.2375 -0.6485
   95SAPC    HY 9254   3.027  -0.076   2.965 -0.8048 -0.1925  0.5550
   95SAPC   O31 9255   3.052  -0.247   3.086 -0.1601  0.2524  0.0934
   95SAPC   C31 9256   2.927  -0.254   3.135  0.6917 -0.4825  0.2943
   95SAPC   O32 9257   2.842  -0.167   3.125  0.4147  0.2687  0.8409
   95SAPC   C32 9258   2.902  -0.389   3.203  0.3270  0.2654 -0.4679
   95SAPC   H2X 9259   2.975  -0.457   3.154  1.2826  1.2862 -0.4906
   95SAPC   H2Y 9260   2.799  -0.427   3.182 -0.2176 -0.1325  2.4428
   95SAPC   C23 9261   3.395  -0.236   3.424 -0.5356 -0.5604  0.4367
   95SAPC   H3R 9262   3.496  -0.282   3.413  0.5520  1.6037  0.7877
   95SAPC   H3S 9263   3.328  -0.282   3.348 -1.3938 -1.0834  1.4960
   95SAPC   C24 9264   3.356  -0.254   3.568 -0.4094  0.1815  0.1399
   95SAPC   H4R 9265   3.434  -0.200   3.625 -1.3108  0.0625  1.5638
   95SAPC   H4S 9266   3.353  -0.364   3.582  0.0634 -0.0339 -1.2811
   95SAPC   C25 9267   3.219  -0.197   3.614 -0.1112  0.4714 -0.3423
   95SAPC   H5R 9268   3.150  -0.190   3.528 -0.6962 -0.2283  0.0612
   95SAPC   C26 9269   3.190  -0.170   3.742  0.0269 -0.1431 -0.1288
   95SAPC   H6R 9270   3.087  -0.136   3.759  0.7009  2.2483 -0.4702
   95SAPC   C27 9271   3.285  -0.180   3.860 -0.6374  0.1346 -0.7445
   95SAPC   H7R 9272   3.262  -0.088   3.917  2.0885 -0.5306  1.6672
   95SAPC   H7S 9273   3.391  -0.167   3.830 -0.7110 -2.8573 -2.6847
   95SAPC   C28 9274   3.282  -0.301   3.951 -0.0983  0.5209 -0.8823
   95SAPC   H8R 9275   3.335  -0.393   3.922  0.5118  1.2495 -2.1431
   95SAPC   C29 9276   3.220  -0.313   4.069 -0.4285 -0.3151 -0.3835
   95SAPC   H9R 9277   3.217  -0.404   4.131 -3.5962  0.7374  1.2777
   95SAPC  C210 9278   3.136  -0.206   4.133 -0.0944  0.1989 -0.1672
   95SAPC  H10R 9279   3.144  -0.108   4.080  1.0698 -0.3154 -0.9728
   95SAPC  H10S 9280   3.157  -0.184   4.240 -1.5498  0.6035  0.0688
   95SAPC  C211 9281   2.994  -0.246   4.107  1.1588  0.6491 -0.0828
   95SAPC  H11R 9282   2.972  -0.245   4.000 -0.2982  1.4089  0.1973
   95SAPC  C212 9283   2.901  -0.289   4.196  0.0308  0.2944 -0.1241
   95SAPC  H12R 9284   2.808  -0.320   4.147  1.6489  0.6846 -3.8221
   95SAPC  C213 9285   2.924  -0.305   4.345 -0.2307  0.6194  0.5911
   95SAPC  H13R 9286   2.824  -0.287   4.390  0.1918  2.1654  0.9599
   95SAPC  H13S 9287   2.976  -0.217   4.389 -2.1220  1.8590  0.4556
   95SAPC  C214 9288   2.987  -0.431   4.389  0.0180  0.5854  0.5982
   95SAPC  H14R 9289   3.089  -0.445   4.351 -1.0645 -0.0953 -2.2944
   95SAPC  C215 9290   2.925  -0.521   4.473 -0.8186  0.0743  0.1292
   95SAPC  H15R 9291   2.987  -0.602   4.514  0.7976  0.0765 -2.1149
   95SAPC  C216 9292   2.783  -0.502   4.529  0.0710 -0.2773 -0.0874
   95SAPC  H16R 9293   2.729  -0.599   4.521 -0.2431  0.0266 -2.1550
   95SAPC  H16S 9294   2.729  -0.423   4.473 -0.9257 -0.2384  0.9014
   95SAPC  C217 9295   2.777  -0.453   4.675 -0.3037  0.1946 -0.2330
   95SAPC  H17R 9296   2.854  -0.507   4.733  1.4989  2.1542 -0.6519
   95SAPC  H17S 9297   2.676  -0.477   4.714 -0.1452 -0.2568 -0.1043
   95SAPC  C218 9298   2.813  -0.302   4.685 -0.1428 -0.1952 -0.3068
   95SAPC  H18R 9299   2.745  -0.237   4.626  0.4967  0.5980 -0.1906
   95SAPC  H18S 9300   2.917  -0.289   4.646 -0.3694  1.0404 -0.5223
   95SAPC  C219 9301   2.804  -0.250   4.829  0.2843 -0.2339  0.5275
   95SAPC  H19R 9302   2.820  -0.141   4.822  1.3275 -0.2791  1.8445
   95SAPC  H19S 9303   2.868  -0.300   4.905 -1.8352 -0.8264  2.0222
   95SAPC  C220 9304   2.661  -0.262   4.896  0.0118  0.4243 -0.1239
   95SAPC  H20R 9305   2.584  -0.222   4.825 -0.3304  1.2192  0.6705
   95SAPC  H20S 9306   2.659  -0.204   4.991 -0.1922 -0.4636  0.4213
   95SAPC  H20T 9307   2.628  -0.365   4.919 -1.5970  0.7275 -0.8740
   95SAPC   C33 9308   2.917  -0.379   3.357 -0.4742 -0.2926 -0.7752
   95SAPC   H3X 9309   3.009  -0.324   3.389 -1.0593 -0.7953  2.0812
   95SAPC   H3Y 9310   2.937  -0.483   3.392  1.1376 -0.9994 -3.5036
   95SAPC   C34 9311   2.794  -0.329   3.427  0.3507 -0.5244  0.6120
   95SAPC   H4X 9312   2.707  -0.395   3.408 -0.6746  1.2624 -1.5001
   95SAPC   H4Y 9313   2.767  -0.230   3.382  0.0365  0.2869  2.4828
   95SAPC   C35 9314   2.804  -0.319   3.575  0.2405  0.7179 -0.4984
   95SAPC   H5X 9315   2.707  -0.284   3.616  0.3529 -1.0544  1.4195
   95SAPC   H5Y 9316   2.883  -0.250   3.613 -0.3932  0.1679  1.9754
   95SAPC   C36 9317   2.832  -0.450   3.648  0.0705 -0.0763  0.5889
   95SAPC   H6X 9318   2.941  -0.464   3.628  0.7761 -0.6897  4.1187
   95SAPC   H6Y 9319   2.773  -0.531   3.601  1.7142 -1.9849  1.6552
   95SAPC   C37 9320   2.813  -0.456   3.800  0.7715 -0.2540  0.4737
   95SAPC   H7X 9321   2.712  -0.425   3.832  0.7303  1.7698 -1.4336
   95SAPC   H7Y 9322   2.888  -0.386   3.841  0.3722  1.2148 -1.2000
   95SAPC   C38 9323   2.822  -0.598   3.853  0.8022 -0.3917  0.2894
   95SAPC   H8X 9324   2.895  -0.650   3.787  1.1878  1.1658 -0.5547
   95SAPC   H8Y 9325   2.730  -0.658   3.838  1.3492 -1.6446  1.6656
   95SAPC   C39 9326   2.858  -0.603   4.003  0.1075 -0.0330 -0.6782
   95SAPC   H9X 9327   2.779  -0.550   4.060  1.5501 -0.7820  2.2217
   95SAPC   H9Y 9328   2.949  -0.540   4.017 -0.7181  1.4776 -1.7832
   95SAPC  C310 9329   2.889  -0.739   4.063 -0.0516  0.1459 -0.4093
   95SAPC  H10X 9330   2.947  -0.717   4.155 -1.5473  2.9035 -0.0094
   95SAPC  H10Y 9331   2.956  -0.798   3.997  1.6168  0.7969  0.6351
   95SAPC  C311 9332   2.772  -0.828   4.101  0.4259 -0.0081 -0.2269
   95SAPC  H11X 9333   2.726  -0.853   4.003  1.2153  1.0289 -0.8941
   95SAPC  H11Y 9334   2.699  -0.777   4.166  1.7381  3.3680 -1.1816
   95SAPC  C312 9335   2.821  -0.948   4.187 -0.0732  0.0601  0.3327
   95SAPC  H12X 9336   2.902  -1.003   4.134  0.9669  0.9122  1.0102
   95SAPC  H12Y 9337   2.742  -1.025   4.202 -1.0564  1.0651  0.4482
   95SAPC  C313 9338   2.866  -0.906   4.325  0.3843  0.6770 -0.8037
   95SAPC  H13X 9339   2.777  -0.850   4.360  0.4351  1.1830 -1.4530
   95SAPC  H13Y 9340   2.957  -0.842   4.322 -0.4905  1.9710 -0.7920
   95SAPC  C314 9341   2.890  -1.030   4.411 -0.6278  0.5137 -0.3740
   95SAPC  H14X 9342   2.963  -1.096   4.359  0.0266 -0.0948  1.2533
   95SAPC  H14Y 9343   2.803  -1.091   4.443  1.7359 -2.0569  1.6654
   95SAPC  C315 9344   2.940  -0.990   4.550  0.9787  0.0930  0.0791
   95SAPC  H15X 9345   2.862  -0.931   4.602 -0.1262 -1.2585 -0.0073
   95SAPC  H15Y 9346   3.037  -0.936   4.544  0.4929  1.0459  0.5939
   95SAPC  C316 9347   2.969  -1.117   4.632  0.1725 -0.4450  0.1572
   95SAPC  H16X 9348   3.072  -1.150   4.606  1.2165  1.0348  2.1153
   95SAPC  H16Y 9349   2.898  -1.192   4.590 -0.3707 -0.1530  0.5318
   95SAPC  C317 9350   2.961  -1.089   4.784 -0.1088 -0.3571  0.7130
   95SAPC  H17X 9351   2.968  -1.195   4.816  0.9349 -0.3373  0.5812
   95SAPC  H17Y 9352   2.858  -1.055   4.809 -0.1164  0.4081 -0.3357
   95SAPC  C318 9353   3.064  -0.994   4.843 -0.2508  0.1044 -0.2668
   95SAPC  H18X 9354   3.170  -1.022   4.827  0.0972 -0.5361  2.6259
   95SAPC  H18Y 9355   3.058  -0.996   4.953 -2.2861  2.1681 -0.2701
   95SAPC  H18Z 9356   3.056  -0.889   4.807  1.3271 -0.0972 -1.3548
   96SAPC     N 9357   3.296   3.943   2.607  0.0681  0.4134 -0.2463
   96SAPC   C12 9358   3.411   3.845   2.619 -0.0605  0.3905  0.0832
   96SAPC  H12A 9359   3.369   3.752   2.652 -0.7188  0.6734  0.0573
   96SAPC  H12B 9360   3.477   3.896   2.688  0.6478  0.3978 -0.5927
   96SAPC   C13 9361   3.340   4.078   2.561 -0.4324  0.4476 -0.1001
   96SAPC  H13A 9362   3.374   4.086   2.459 -1.2834 -0.1293 -0.4382
   96SAPC  H13B 9363   3.255   4.145   2.561  0.3744  1.6198  2.5533
   96SAPC  H13C 9364   3.410   4.127   2.627 -0.2324  0.5194 -0.3672
   96SAPC   C14 9365   3.195   3.899   2.516 -0.1107  0.2317  0.0949
   96SAPC  H14A 9366   3.109   3.964   2.517  0.3960  0.9395 -0.9389
   96SAPC  H14B 9367   3.224   3.910   2.413 -0.9054  1.0189 -0.0625
   96SAPC  H14C 9368   3.169   3.797   2.539 -0.5722  0.4028  0.3648
   96SAPC   C15 9369   3.232   3.955   2.743 -0.8117  0.0315  0.0072
   96SAPC  H15A 9370   3.191   3.858   2.768  0.6920 -0.0123  2.5981
   96SAPC  H15B 9371   3.311   3.978   2.813  4.1862 -0.3030 -4.8472
   96SAPC  H15C 9372   3.163   4.038   2.743 -1.8039 -0.7295  1.8925
   96SAPC   C11 9373   3.502   3.816   2.493  0.4431 -0.0941 -0.4377
   96SAPC  H11A 9374   3.531   3.912   2.445  0.0099  0.7463  0.9603
   96SAPC  H11B 9375   3.452   3.754   2.415 -1.0431 -0.1552  0.5384
   96SAPC     P 9376   3.743   3.705   2.472  0.1278  0.3620 -0.0360
   96SAPC   O13 9377   3.729   3.562   2.432  0.1666  0.0710  0.5190
   96SAPC   O14 9378   3.770   3.797   2.365 -0.8086  0.4990  0.3500
   96SAPC   O12 9379   3.614   3.753   2.550 -0.0843 -0.2002  0.1297
   96SAPC   O11 9380   3.851   3.706   2.585  0.0278 -0.0854  0.4571
   96SAPC    C1 9381   3.910   3.821   2.635  0.1647 -0.2656 -0.1181
   96SAPC    HA 9382   3.960   3.867   2.546  0.8507  0.1379  0.4607
   96SAPC    HB 9383   3.843   3.906   2.660  0.9648 -0.2325  2.1900
   96SAPC    C2 9384   3.989   3.797   2.764 -1.3734  0.3703 -1.0782
   96SAPC    HS 9385   4.074   3.733   2.732 -1.3355  0.4195 -1.0762
   96SAPC   O21 9386   3.900   3.735   2.866  0.0007 -0.1425  0.5931
   96SAPC   C21 9387   3.890   3.605   2.854  0.0361 -0.0008  0.2867
   96SAPC   O22 9388   3.959   3.534   2.789 -0.0897  0.5310 -0.3693
   96SAPC   C22 9389   3.808   3.559   2.983 -0.8593 -0.1819  0.6788
   96SAPC   H2R 9390   3.884   3.550   3.064 -1.7862 -1.2811  1.4598
   96SAPC   H2S 9391   3.743   3.643   3.014 -0.1101  0.8604 -0.4798
   96SAPC    C3 9392   4.040   3.930   2.825 -0.4295  0.0673 -0.3795
   96SAPC    HX 9393   3.949   3.991   2.840 -0.5631 -0.3330  0.5254
   96SAPC    HY 9394   4.100   3.981   2.748 -1.0302  2.4582  0.6619
   96SAPC   O31 9395   4.117   3.907   2.947 -0.3737 -0.3087 -0.1788
   96SAPC   C31 9396   4.157   4.017   3.016 -0.0801  0.6074 -0.2184
   96SAPC   O32 9397   4.143   4.133   2.976 -0.5023  0.7456  0.7275
   96SAPC   C32 9398   4.225   3.969   3.151  0.5286  0.3287 -0.0569
   96SAPC   H2X 9399   4.328   3.938   3.123 -0.2076 -0.1714 -2.4839
   96SAPC   H2Y 9400   4.164   3.880   3.178 -1.3220  1.3011 -0.8464
   96SAPC   C23 9401   3.730   3.437   2.948 -0.5772 -0.5115 -0.0760
   96SAPC   H3R 9402   3.791   3.355   2.903  0.3603  0.2048 -0.1375
   96SAPC   H3S 9403   3.657   3.456   2.866  0.4462 -0.4485 -0.9874
   96SAPC   C24 9404   3.656   3.368   3.067  0.0586 -0.3436  0.2514
   96SAPC   H4R 9405   3.731   3.351   3.147 -0.3113 -1.4284  0.3861
   96SAPC   H4S 9406   3.607   3.277   3.026  1.1540 -0.9836  0.3282
   96SAPC   C25 9407   3.537   3.440   3.121  0.3195 -0.2622  0.3793
   96SAPC   H5R 9408   3.483   3.513   3.058 -2.0517  0.0860  2.6650
   96SAPC   C26 9409   3.507   3.442   3.249 -0.8237  0.4674  0.1179
   96SAPC   H6R 9410   3.409   3.485   3.273 -1.0670 -0.3008  0.5395
   96SAPC   C27 9411   3.581   3.383   3.367 -0.2306  0.5320 -0.6134
   96SAPC   H7R 9412   3.690   3.391   3.347 -0.4651 -0.5049 -2.5304
   96SAPC   H7S 9413   3.551   3.277   3.383  0.7434  0.2804 -0.3633
   96SAPC   C28 9414   3.554   3.452   3.493  1.2993 -0.1522 -0.6524
   96SAPC   H8R 9415   3.571   3.560   3.486 -2.9787  0.6168 -2.0471
   96SAPC   C29 9416   3.514   3.402   3.614  0.1801  0.1796 -0.2687
   96SAPC   H9R 9417   3.498   3.478   3.693 -1.8565 -1.2570  0.7992
   96SAPC  C210 9418   3.502   3.249   3.646  0.4279  0.6809  0.0486
   96SAPC  H10R 9419   3.596   3.193   3.629  0.7810  1.1090  0.5524
   96SAPC  H10S 9420   3.420   3.214   3.579  0.7149 -0.4430  0.2710
   96SAPC  C211 9421   3.460   3.224   3.795  0.4330  0.2437  0.6383
   96SAPC  H11R 9422   3.356   3.190   3.803  0.2896  0.8756  1.6441
   96SAPC  C212 9423   3.543   3.251   3.902  0.1271 -0.2571 -0.2927
   96SAPC  H12R 9424   3.523   3.206   4.000 -0.1411  0.0133 -0.2227
   96SAPC  C213 9425   3.687   3.309   3.896 -0.0860 -0.5141 -0.3565
   96SAPC  H13R 9426   3.697   3.371   3.987  1.8447 -0.6724 -0.4123
   96SAPC  H13S 9427   3.695   3.372   3.804  1.7304 -2.6838 -1.8183
   96SAPC  C214 9428   3.791   3.206   3.899 -0.4164  0.4688 -0.4258
   96SAPC  H14R 9429   3.806   3.155   3.802  2.0032 -1.0182  0.6043
   96SAPC  C215 9430   3.876   3.166   3.997  0.6792  0.3055 -0.1459
   96SAPC  H15R 9431   3.941   3.080   3.974 -1.1189 -0.5470 -2.3856
   96SAPC  C216 9432   3.867   3.205   4.143  0.1558 -0.0087  0.2247
   96SAPC  H16R 9433   3.822   3.121   4.202  1.4837  0.6380  2.2690
   96SAPC  H16S 9434   3.793   3.287   4.154 -0.2145 -0.2021 -0.7560
   96SAPC  C217 9435   4.008   3.228   4.212 -0.1661  0.3866  0.3657
   96SAPC  H17R 9436   4.071   3.287   4.142 -0.4606  1.4452  0.9614
   96SAPC  H17S 9437   4.056   3.129   4.228  0.7909  0.5310 -1.3322
   96SAPC  C218 9438   3.999   3.300   4.350  0.3402 -0.6055  0.5561
   96SAPC  H18R 9439   3.932   3.245   4.420  0.1755 -1.5996 -0.3647
   96SAPC  H18S 9440   3.965   3.402   4.323  0.3651 -0.7938 -0.1930
   96SAPC  C219 9441   4.135   3.325   4.419  0.5450  0.3910  0.5005
   96SAPC  H19R 9442   4.194   3.237   4.453  1.0167  0.7160  0.5418
   96SAPC  H19S 9443   4.121   3.380   4.514  2.5547  0.7165  0.6643
   96SAPC  C220 9444   4.225   3.425   4.344 -0.2165  1.1466 -0.1677
   96SAPC  H20R 9445   4.247   3.380   4.245 -0.7746 -1.3324  0.7501
   96SAPC  H20S 9446   4.324   3.426   4.395 -1.1957 -0.6565  1.9268
   96SAPC  H20T 9447   4.173   3.523   4.340  0.3154  1.4776  0.7331
   96SAPC   C33 9448   4.236   4.068   3.271  0.1196  0.0750  0.1920
   96SAPC   H3X 9449   4.138   4.114   3.297  0.6679  1.3736  0.0308
   96SAPC   H3Y 9450   4.308   4.148   3.243 -0.7428  1.1100  0.8608
   96SAPC   C34 9451   4.283   3.983   3.399 -0.5283  0.1412  0.5206
   96SAPC   H4X 9452   4.381   3.948   3.361 -0.0410  1.4752  0.4893
   96SAPC   H4Y 9453   4.207   3.903   3.411  0.4316 -0.5620  2.3377
   96SAPC   C35 9454   4.295   4.069   3.522 -0.0327 -0.4809  0.3491
   96SAPC   H5X 9455   4.204   4.133   3.526  0.8650  1.4687 -4.2154
   96SAPC   H5Y 9456   4.379   4.142   3.513  0.1462 -0.9490 -2.8900
   96SAPC   C36 9457   4.310   3.983   3.645 -0.0725  0.2763  1.1133
   96SAPC   H6X 9458   4.404   3.925   3.634 -0.2245  0.3277 -0.8181
   96SAPC   H6Y 9459   4.219   3.919   3.639 -0.3584  0.8207 -0.9120
   96SAPC   C37 9460   4.306   4.063   3.776  0.5625 -0.3308  0.3179
   96SAPC   H7X 9461   4.203   4.104   3.791  1.1954  1.4655  0.0790
   96SAPC   H7Y 9462   4.381   4.144   3.789  1.5968 -1.1788 -0.2716
   96SAPC   C38 9463   4.321   3.964   3.890  0.3620 -0.6050  0.0921
   96SAPC   H8X 9464   4.426   3.940   3.917 -0.2100 -1.6324  1.5930
   96SAPC   H8Y 9465   4.263   3.874   3.861 -0.1043 -0.7272  1.3272
   96SAPC   C39 9466   4.254   4.015   4.016  0.2256  0.0806  0.3416
   96SAPC   H9X 9467   4.143   4.014   4.009  0.1002 -0.1969  1.9581
   96SAPC   H9Y 9468   4.283   4.120   4.039  0.2386  0.4897 -1.3900
   96SAPC  C310 9469   4.280   3.930   4.135 -0.3634  0.6193 -0.2065
   96SAPC  H10X 9470   4.380   3.884   4.128 -1.4907 -1.7934 -2.4498
   96SAPC  H10Y 9471   4.197   3.857   4.148 -1.3790  1.6198 -0.8508
   96SAPC  C311 9472   4.282   4.006   4.269 -0.6046 -0.6373 -0.2454
   96SAPC  H11X 9473   4.181   4.050   4.281 -0.2193  0.3940 -0.7094
   96SAPC  H11Y 9474   4.342   4.099   4.262 -1.4535 -0.0706 -0.2017
   96SAPC  C312 9475   4.309   3.929   4.391  0.3589  0.2978  0.6294
   96SAPC  H12X 9476   4.418   3.911   4.403  1.0975  3.6885 -0.0659
   96SAPC  H12Y 9477   4.253   3.833   4.397  0.5204  0.2591  1.6716
   96SAPC  C313 9478   4.257   4.013   4.511 -1.1290 -0.1567  0.0169
   96SAPC  H13X 9479   4.147   4.032   4.504 -1.0076  0.1006 -1.7881
   96SAPC  H13Y 9480   4.310   4.110   4.512  0.8837 -1.2029 -0.4348
   96SAPC  C314 9481   4.289   3.948   4.651 -0.5199  0.1056 -0.1003
   96SAPC  H14X 9482   4.399   3.963   4.662 -0.1384 -0.0298 -2.9512
   96SAPC  H14Y 9483   4.279   3.839   4.669  0.6692  0.0980  0.6689
   96SAPC  C315 9484   4.227   4.023   4.773  0.5956 -0.5295 -0.1920
   96SAPC  H15X 9485   4.258   3.973   4.867 -2.9830 -0.9551  0.9242
   96SAPC  H15Y 9486   4.119   3.999   4.759 -0.2991  2.2018  1.3207
   96SAPC  C316 9487   4.255   4.174   4.769 -0.1590  0.4814 -0.3277
   96SAPC  H16X 9488   4.194   4.221   4.688 -2.0738 -1.6947 -0.2477
   96SAPC  H16Y 9489   4.361   4.206   4.760 -0.6687  2.8146  1.1545
   96SAPC  C317 9490   4.205   4.222   4.912 -0.0298 -0.1981  0.1945
   96SAPC  H17X 9491   4.280   4.181   4.984 -0.0840 -0.4642  0.1019
   96SAPC  H17Y 9492   4.109   4.174   4.940 -0.6601  0.9877  0.0821
   96SAPC  C318 9493   4.193   4.373   4.929 -0.1379 -0.4346  0.0356
   96SAPC  H18X 9494   4.151   4.408   5.025 -0.1025  2.6477 -0.9797
   96SAPC  H18Y 9495   4.120   4.411   4.854 -1.5322  2.4484  2.6667
   96SAPC  H18Z 9496   4.292   4.418   4.905 -0.9909  0.9553 -1.0002
   97SAPC     N 9497   1.265   6.575   2.742 -0.6521 -0.2448 -0.1053
   97SAPC   C12 9498   1.183   6.601   2.611 -0.4545  0.1899  0.4070
   97SAPC  H12A 9499   1.210   6.519   2.545 -0.7632 -0.3511  0.9434
   97SAPC  H12B 9500   1.209   6.698   2.571  0.5618 -0.0028  0.5486
   97SAPC   C13 9501   1.407   6.562   2.716  0.2264  0.3008 -0.2945
   97SAPC  H13A 9502   1.435   6.480   2.651 -2.1016 -0.2950 -0.6117
   97SAPC  H13B 9503   1.450   6.646   2.663 -1.4180  0.5013 -1.3681
   97SAPC  H13C 9504   1.457   6.555   2.812 -0.9918  1.6627  0.4648
   97SAPC   C14 9505   1.256   6.692   2.834 -0.1733  0.2835  0.4798
   97SAPC  H14A 9506   1.271   6.782   2.776 -0.4466  2.5383  3.6826
   97SAPC  H14B 9507   1.154   6.708   2.864  0.3040  1.3666  1.6050
   97SAPC  H14C 9508   1.311   6.682   2.926  1.0890  0.7412 -0.1941
   97SAPC   C15 9509   1.219   6.456   2.819 -0.1199  0.0886  0.5071
   97SAPC  H15A 9510   1.261   6.455   2.919 -0.4865 -0.4400  0.6595
   97SAPC  H15B 9511   1.111   6.455   2.823 -0.2445  1.6612 -1.0412
   97SAPC  H15C 9512   1.250   6.368   2.766  0.2960  0.7186 -0.3184
   97SAPC   C11 9513   1.028   6.620   2.605  0.3496 -0.1139 -0.7253
   97SAPC  H11A 9514   0.979   6.521   2.618 -0.3360  0.4663  1.7399
   97SAPC  H11B 9515   1.004   6.651   2.501  0.0480 -0.7984 -0.8656
   97SAPC     P 9516   0.872   6.687   2.803 -0.2416 -0.3407 -0.3283
   97SAPC   O13 9517   0.868   6.794   2.905 -0.4221 -0.1538  0.0291
   97SAPC   O14 9518   0.749   6.658   2.725  0.0152  0.6159  0.2911
   97SAPC   O12 9519   0.981   6.729   2.694  0.1904  0.2652 -0.0275
   97SAPC   O11 9520   0.931   6.558   2.881  0.7884 -0.1872 -0.1042
   97SAPC    C1 9521   0.838   6.478   2.951 -0.2474  0.7807  0.2310
   97SAPC    HA 9522   0.769   6.532   3.019 -4.0893 -2.0625 -1.0445
   97SAPC    HB 9523   0.772   6.421   2.882  0.5591  0.0365  0.0593
   97SAPC    C2 9524   0.904   6.374   3.037  0.8523 -0.0829 -0.8693
   97SAPC    HS 9525   0.962   6.309   2.969  0.9217 -1.2095  0.2358
   97SAPC   O21 9526   0.805   6.307   3.116 -0.3214 -0.5990  0.2657
   97SAPC   C21 9527   0.832   6.176   3.139  0.0805  0.4232 -0.1662
   97SAPC   O22 9528   0.924   6.115   3.096 -0.1480 -0.2325  0.5973
   97SAPC   C22 9529   0.725   6.130   3.235  0.0208 -0.2359 -0.3615
   97SAPC   H2R 9530   0.691   6.215   3.297  0.0821 -0.1918 -0.3894
   97SAPC   H2S 9531   0.646   6.076   3.177  2.9137  0.1697 -5.2316
   97SAPC    C3 9532   1.003   6.447   3.142 -0.0905 -0.2259  0.7364
   97SAPC    HX 9533   0.937   6.515   3.200 -1.0636 -0.6464  0.1414
   97SAPC    HY 9534   1.069   6.522   3.095  0.5502  0.1124  2.1139
   97SAPC   O31 9535   1.068   6.359   3.236 -0.5428 -0.3907  0.0303
   97SAPC   C31 9536   1.181   6.305   3.186  0.6166 -0.2291  0.6420
   97SAPC   O32 9537   1.220   6.322   3.071  0.0363 -0.2811  0.5577
   97SAPC   C32 9538   1.263   6.234   3.290 -0.7568 -0.4839 -0.7739
   97SAPC   H2X 9539   1.367   6.272   3.288 -0.8024 -0.3459 -0.5639
   97SAPC   H2Y 9540   1.259   6.125   3.267  1.3442 -1.2355  1.9095
   97SAPC   C23 9541   0.774   6.031   3.338  0.3591  0.0523  0.2983
   97SAPC   H3R 9542   0.859   6.081   3.389  0.5485 -0.1251  0.1594
   97SAPC   H3S 9543   0.805   5.937   3.286  2.5807  1.1161 -0.4650
   97SAPC   C24 9544   0.662   5.985   3.427 -0.6952  0.9162  0.5310
   97SAPC   H4R 9545   0.698   5.903   3.493  2.1962  1.0682 -0.7059
   97SAPC   H4S 9546   0.583   5.942   3.361 -0.0967  1.5700 -0.6365
   97SAPC   C25 9547   0.598   6.080   3.524 -0.0731  0.3641  0.2838
   97SAPC   H5R 9548   0.563   6.171   3.472  1.5516  1.5270  1.1007
   97SAPC   C26 9549   0.580   6.077   3.656  0.2337 -0.3615 -0.1205
   97SAPC   H6R 9550   0.538   6.168   3.701  0.3008  0.5212 -1.7752
   97SAPC   C27 9551   0.612   5.968   3.749  0.3588  0.3482  0.4314
   97SAPC   H7R 9552   0.605   5.873   3.692  0.4563  0.3064  0.4866
   97SAPC   H7S 9553   0.523   5.957   3.815 -0.2910  3.8014  0.3004
   97SAPC   C28 9554   0.745   5.991   3.824  0.3282  0.6658 -0.1916
   97SAPC   H8R 9555   0.834   6.028   3.770  0.5107  0.5449  0.0227
   97SAPC   C29 9556   0.752   5.971   3.958 -0.0615 -0.9320  1.4485
   97SAPC   H9R 9557   0.853   5.977   4.002  0.8102 -0.6734 -0.4747
   97SAPC  C210 9558   0.638   5.929   4.055  0.1637 -0.9890  0.4111
   97SAPC  H10R 9559   0.539   5.940   4.005  0.4199  0.1368  0.1369
   97SAPC  H10S 9560   0.649   6.014   4.124  0.4227 -1.1652  0.5885
   97SAPC  C211 9561   0.644   5.798   4.128  0.1483 -0.4610  0.0584
   97SAPC  H11R 9562   0.673   5.713   4.064  0.4747 -0.3666  0.0803
   97SAPC  C212 9563   0.636   5.772   4.261 -0.1254 -0.8821 -0.3991
   97SAPC  H12R 9564   0.648   5.669   4.298  0.7752 -0.2835  1.0534
   97SAPC  C213 9565   0.627   5.876   4.372  1.2463 -0.6850 -0.1250
   97SAPC  H13R 9566   0.572   5.835   4.459  0.8694 -1.1197 -0.5639
   97SAPC  H13S 9567   0.572   5.965   4.334  1.7378 -0.2395  0.1734
   97SAPC  C214 9568   0.761   5.925   4.414 -0.2093  0.6206 -0.2432
   97SAPC  H14R 9569   0.798   6.009   4.354  0.6482 -0.6367 -1.5368
   97SAPC  C215 9570   0.831   5.880   4.521 -0.5455  0.2904 -0.0411
   97SAPC  H15R 9571   0.934   5.915   4.536  0.7504 -3.6483  1.4027
   97SAPC  C216 9572   0.790   5.779   4.623  0.3390 -0.2832  0.2835
   97SAPC  H16R 9573   0.858   5.691   4.620 -0.7068 -1.1192  0.5321
   97SAPC  H16S 9574   0.699   5.727   4.586  0.7350 -0.7381 -0.0687
   97SAPC  C217 9575   0.768   5.824   4.771 -0.6230 -0.3333 -0.2476
   97SAPC  H17R 9576   0.668   5.873   4.776 -1.0937 -1.3730  1.0271
   97SAPC  H17S 9577   0.854   5.891   4.792  1.3686 -3.0194  0.7622
   97SAPC  C218 9578   0.772   5.703   4.871 -0.2560 -0.4766  0.2966
   97SAPC  H18R 9579   0.780   5.729   4.979 -3.8142 -1.3608  0.8822
   97SAPC  H18S 9580   0.863   5.644   4.847 -0.0808  0.1803 -0.7047
   97SAPC  C219 9581   0.653   5.617   4.858  0.4272  0.0051 -0.3429
   97SAPC  H19R 9582   0.642   5.563   4.762 -0.9094 -2.8975  1.2994
   97SAPC  H19S 9583   0.573   5.693   4.870  0.2990 -0.2747  0.6765
   97SAPC  C220 9584   0.634   5.507   4.961  0.0133 -0.4323  0.5195
   97SAPC  H20R 9585   0.656   5.546   5.062  1.1139  0.3989 -0.0298
   97SAPC  H20S 9586   0.698   5.420   4.934 -1.1937 -1.0549 -0.4640
   97SAPC  H20T 9587   0.527   5.476   4.955 -0.5745  1.6445 -0.8989
   97SAPC   C33 9588   1.189   6.242   3.434  0.0601  0.4408  0.9161
   97SAPC   H3X 9589   1.084   6.208   3.443 -0.4125  1.8156  0.9179
   97SAPC   H3Y 9590   1.196   6.351   3.457 -0.1900  0.5317  0.5765
   97SAPC   C34 9591   1.277   6.167   3.540 -0.0572  0.6416  0.3649
   97SAPC   H4X 9592   1.384   6.177   3.510 -0.2145  0.4208 -0.2887
   97SAPC   H4Y 9593   1.255   6.058   3.549  1.3699  0.0570 -2.2258
   97SAPC   C35 9594   1.251   6.210   3.680  0.1135 -0.4056  0.6905
   97SAPC   H5X 9595   1.142   6.201   3.701  0.1007 -2.4223 -0.0116
   97SAPC   H5Y 9596   1.266   6.319   3.691 -1.9848 -0.0645  0.5090
   97SAPC   C36 9597   1.326   6.140   3.786 -0.6217 -0.2067 -0.5430
   97SAPC   H6X 9598   1.434   6.151   3.764 -0.1941  0.7474  1.7301
   97SAPC   H6Y 9599   1.304   6.032   3.796  0.0872 -0.3477 -0.4989
   97SAPC   C37 9600   1.299   6.208   3.923  0.7181 -0.6236 -0.0910
   97SAPC   H7X 9601   1.192   6.182   3.941  0.7774 -0.4327  0.5680
   97SAPC   H7Y 9602   1.306   6.319   3.919  0.3309 -0.5427  1.0302
   97SAPC   C38 9603   1.393   6.149   4.029 -0.5586  0.1026 -1.0281
   97SAPC   H8X 9604   1.497   6.175   4.001 -0.4192  0.5602 -0.1317
   97SAPC   H8Y 9605   1.381   6.039   4.024 -0.9545  0.0746  0.1327
   97SAPC   C39 9606   1.357   6.186   4.178  0.3066 -0.1722  0.7052
   97SAPC   H9X 9607   1.251   6.152   4.179  1.0255 -2.7017 -0.7820
   97SAPC   H9Y 9608   1.367   6.296   4.188 -1.7081  0.0097  1.0453
   97SAPC  C310 9609   1.449   6.125   4.281  0.6475 -0.1950 -0.3627
   97SAPC  H10X 9610   1.550   6.166   4.261  0.5750  0.4941  0.6079
   97SAPC  H10Y 9611   1.451   6.014   4.275  1.0068 -0.1162 -2.6845
   97SAPC  C311 9612   1.394   6.161   4.420  0.4165 -0.0740 -0.6160
   97SAPC  H11X 9613   1.286   6.137   4.433  0.3925 -0.0822 -0.8346
   97SAPC  H11Y 9614   1.398   6.271   4.431 -0.3354 -0.0270 -0.7679
   97SAPC  C312 9615   1.472   6.095   4.535 -0.4755 -0.3700 -0.0188
   97SAPC  H12X 9616   1.577   6.127   4.525 -0.2484 -1.3356 -0.9654
   97SAPC  H12Y 9617   1.462   5.984   4.528 -0.2835 -0.2936 -1.9281
   97SAPC  C313 9618   1.437   6.143   4.678  0.8703 -0.1093  0.6979
   97SAPC  H13X 9619   1.329   6.139   4.702  0.4220  0.3283 -1.1388
   97SAPC  H13Y 9620   1.469   6.249   4.689 -0.3755  0.2519  1.0521
   97SAPC  C314 9621   1.509   6.068   4.781  0.6506 -0.2490 -0.1272
   97SAPC  H14X 9622   1.613   6.070   4.744  0.9336  2.7068  0.5429
   97SAPC  H14Y 9623   1.468   5.965   4.774 -0.3055  0.1916 -1.4102
   97SAPC  C315 9624   1.478   6.121   4.923 -0.1144  0.0045 -0.0825
   97SAPC  H15X 9625   1.376   6.163   4.935 -0.2536 -0.0786 -0.9004
   97SAPC  H15Y 9626   1.535   6.217   4.928 -0.8512  0.5937 -2.0386
   97SAPC  C316 9627   1.520   6.029   5.031 -0.2338  0.5548 -0.6322
   97SAPC  H16X 9628   1.600   5.963   4.992  0.0906  1.7697 -2.1371
   97SAPC  H16Y 9629   1.435   5.960   5.052  1.2055 -0.8535  0.8468
   97SAPC  C317 9630   1.579   6.092   5.161 -0.0096  0.2246  0.6215
   97SAPC  H17X 9631   1.522   6.178   5.201 -2.0707 -1.6328  1.8427
   97SAPC  H17Y 9632   1.676   6.137   5.131 -0.6715  1.2143 -0.1016
   97SAPC  C318 9633   1.606   5.992   5.273 -0.1912  1.0498  0.5090
   97SAPC  H18X 9634   1.514   5.968   5.330  0.0005 -1.1059  0.0016
   97SAPC  H18Y 9635   1.674   6.041   5.346  2.0698  1.0656 -1.4801
   97SAPC  H18Z 9636   1.661   5.910   5.222  1.4489  1.6392  1.2484
   98SAPC     N 9637   5.967   3.501   2.268  0.1402  0.0284 -0.0307
   98SAPC   C12 9638   5.922   3.627   2.343 -0.5754  0.6264 -0.1441
   98SAPC  H12A 9639   5.960   3.712   2.288 -2.8152  0.0581 -2.8288
   98SAPC  H12B 9640   5.968   3.627   2.440  0.4589  0.8084 -0.6160
   98SAPC   C13 9641   5.911   3.370   2.324 -0.5065 -0.4742 -0.1259
   98SAPC  H13A 9642   5.905   3.386   2.431  1.3446  1.2455 -0.2032
   98SAPC  H13B 9643   5.817   3.338   2.283  0.0810 -1.2991 -0.8647
   98SAPC  H13C 9644   5.979   3.288   2.306  1.4250  1.2756 -1.3722
   98SAPC   C14 9645   5.925   3.508   2.126 -0.3825  0.0731 -0.7413
   98SAPC  H14A 9646   5.967   3.434   2.059 -2.0977 -0.2510 -1.5194
   98SAPC  H14B 9647   5.818   3.492   2.116 -0.3996  0.4503 -1.1670
   98SAPC  H14C 9648   5.940   3.596   2.066 -0.9881 -0.8751 -2.3556
   98SAPC   C15 9649   6.122   3.503   2.269  0.8807 -0.5041  0.4738
   98SAPC  H15A 9650   6.140   3.509   2.375 -2.8079 -0.6712  1.2501
   98SAPC  H15B 9651   6.163   3.409   2.234 -0.2811 -0.4633 -1.0919
   98SAPC  H15C 9652   6.151   3.586   2.207 -1.9399  0.6809  0.6163
   98SAPC   C11 9653   5.776   3.660   2.357  0.2868  0.0444  0.0351
   98SAPC  H11A 9654   5.724   3.663   2.259 -0.4434 -0.0283  0.4095
   98SAPC  H11B 9655   5.770   3.763   2.400 -0.8045 -0.6674  1.7133
   98SAPC     P 9656   5.699   3.574   2.599 -0.1588  0.1340  0.2412
   98SAPC   O13 9657   5.591   3.675   2.622 -0.5388 -0.0933 -0.3234
   98SAPC   O14 9658   5.670   3.438   2.650 -0.1195 -0.1484 -0.5448
   98SAPC   O12 9659   5.716   3.558   2.446  0.2793 -0.5529  0.1821
   98SAPC   O11 9660   5.839   3.631   2.643 -0.1798 -0.4073 -0.4639
   98SAPC    C1 9661   5.943   3.546   2.692 -0.0077 -0.3661  0.3844
   98SAPC    HA 9662   5.947   3.454   2.630  0.7601  0.2617 -0.5315
   98SAPC    HB 9663   6.038   3.594   2.659 -1.1591  2.0504  0.3809
   98SAPC    C2 9664   5.941   3.523   2.847 -0.1226  0.3266 -0.4695
   98SAPC    HS 9665   6.039   3.475   2.868 -1.0126 -0.5782  2.0583
   98SAPC   O21 9666   5.839   3.434   2.891  0.9102 -0.1148 -0.2706
   98SAPC   C21 9667   5.842   3.309   2.865 -0.1281 -0.5684 -0.0138
   98SAPC   O22 9668   5.938   3.252   2.810  1.0097  0.0482  0.7010
   98SAPC   C22 9669   5.729   3.240   2.935  0.4124 -0.4147 -0.0766
   98SAPC   H2R 9670   5.628   3.275   2.903  0.3500 -1.3693 -0.9651
   98SAPC   H2S 9671   5.733   3.135   2.897 -1.5288 -0.2843 -0.7590
   98SAPC    C3 9672   5.934   3.660   2.906  0.3528  0.1942 -0.4167
   98SAPC    HX 9673   5.827   3.689   2.919  0.3707 -0.6707  2.6602
   98SAPC    HY 9674   5.983   3.739   2.847 -1.7099  1.7271 -0.1914
   98SAPC   O31 9675   5.976   3.655   3.044 -0.3110 -1.0546 -0.5926
   98SAPC   C31 9676   6.105   3.656   3.065  1.0493  0.0096  0.1798
   98SAPC   O32 9677   6.191   3.664   2.982 -0.4610  0.3905  0.3092
   98SAPC   C32 9678   6.134   3.638   3.214 -0.3467 -0.7682 -0.0874
   98SAPC   H2X 9679   6.099   3.724   3.274  0.1540 -0.6684  0.0646
   98SAPC   H2Y 9680   6.245   3.646   3.221 -0.3732 -1.5475  1.7975
   98SAPC   C23 9681   5.762   3.217   3.079  0.6283  0.2083 -0.5020
   98SAPC   H3R 9682   5.719   3.286   3.154 -0.5482 -1.2117  0.1836
   98SAPC   H3S 9683   5.870   3.210   3.101  0.7035 -3.0176 -1.4382
   98SAPC   C24 9684   5.703   3.079   3.128 -0.2914 -0.6564  1.0052
   98SAPC   H4R 9685   5.756   3.057   3.223  2.4066 -1.7227 -0.6475
   98SAPC   H4S 9686   5.763   3.014   3.061  0.9750  0.4377  1.0315
   98SAPC   C25 9687   5.555   3.060   3.140 -0.3450  0.4867  0.0484
   98SAPC   H5R 9688   5.510   3.042   3.041 -2.1530  0.1111  0.8868
   98SAPC   C26 9689   5.482   3.062   3.252 -0.2161 -0.4504  0.0431
   98SAPC   H6R 9690   5.376   3.035   3.254 -0.6194  0.9506 -1.0045
   98SAPC   C27 9691   5.542   3.079   3.391 -0.0449 -0.5901  0.3662
   98SAPC   H7R 9692   5.636   3.139   3.387 -0.2841 -0.2720 -0.6868
   98SAPC   H7S 9693   5.565   2.984   3.444  1.0857 -0.4069  0.2317
   98SAPC   C28 9694   5.442   3.154   3.480 -0.0807 -0.2090 -0.1627
   98SAPC   H8R 9695   5.444   3.264   3.479 -0.2870 -0.2023  0.0554
   98SAPC   C29 9696   5.345   3.090   3.550 -0.1664 -0.8165  0.2736
   98SAPC   H9R 9697   5.285   3.150   3.619  1.1888  0.4231  0.4273
   98SAPC  C210 9698   5.324   2.937   3.561  0.3585  0.2720 -0.3401
   98SAPC  H10R 9699   5.324   2.913   3.669  3.6133  1.7211  0.1004
   98SAPC  H10S 9700   5.408   2.878   3.517  0.6183  0.6095 -0.2962
   98SAPC  C211 9701   5.204   2.891   3.494  0.4151 -0.1796  0.1102
   98SAPC  H11R 9702   5.166   2.963   3.420  2.2068 -0.1651 -0.8473
   98SAPC  C212 9703   5.160   2.764   3.488 -0.6834  0.0231  1.1887
   98SAPC  H12R 9704   5.071   2.740   3.427 -0.1545 -1.6236  1.0023
   98SAPC  C213 9705   5.203   2.636   3.566  0.2000  0.3525  0.2935
   98SAPC  H13R 9706   5.109   2.587   3.599 -0.7871  0.3401 -2.3053
   98SAPC  H13S 9707   5.260   2.667   3.656  2.6063 -2.9128  0.0755
   98SAPC  C214 9708   5.298   2.553   3.479  0.2687 -0.5717  0.5008
   98SAPC  H14R 9709   5.386   2.608   3.443 -0.0831 -0.8233 -0.7954
   98SAPC  C215 9710   5.293   2.419   3.459  0.7774  0.3253  0.1790
   98SAPC  H15R 9711   5.365   2.379   3.387  0.0512 -0.0182 -0.3598
   98SAPC  C216 9712   5.187   2.326   3.512 -0.7640  0.7308 -0.0660
   98SAPC  H16R 9713   5.096   2.382   3.545 -1.2773 -0.6684  0.9943
   98SAPC  H16S 9714   5.223   2.258   3.592 -1.7139  0.8500  0.4795
   98SAPC  C217 9715   5.136   2.235   3.392  0.7342  0.2044 -0.6440
   98SAPC  H17R 9716   5.217   2.180   3.339  0.0124 -1.9884  0.4310
   98SAPC  H17S 9717   5.088   2.296   3.311  1.5337 -0.1327 -1.3902
   98SAPC  C218 9718   5.044   2.118   3.436  0.6167 -0.3702  0.6329
   98SAPC  H18R 9719   5.010   2.061   3.347  1.0182  0.3207  0.0130
   98SAPC  H18S 9720   4.955   2.171   3.477 -2.0719 -2.0106 -2.6044
   98SAPC  C219 9721   5.096   2.013   3.524  0.2652 -0.0029  0.0803
   98SAPC  H19R 9722   5.019   1.936   3.546  1.5174 -1.0108  1.1304
   98SAPC  H19S 9723   5.114   2.052   3.627  1.4680  1.3258 -0.6018
   98SAPC  C220 9724   5.233   1.949   3.477 -0.1775 -0.1579  0.8431
   98SAPC  H20R 9725   5.316   2.019   3.500  1.1607 -0.9679 -1.2255
   98SAPC  H20S 9726   5.229   1.935   3.367 -0.8715  1.6654  0.5880
   98SAPC  H20T 9727   5.254   1.849   3.519 -2.3867 -1.2065 -0.3604
   98SAPC   C33 9728   6.102   3.506   3.292 -0.5533 -0.2487  0.7194
   98SAPC   H3X 9729   6.149   3.426   3.230  1.2454  2.1328 -1.1799
   98SAPC   H3Y 9730   5.992   3.492   3.304 -0.5972 -0.3231  0.2445
   98SAPC   C34 9731   6.176   3.505   3.430 -0.5811  0.1808  0.5562
   98SAPC   H4X 9732   6.286   3.511   3.420 -0.6023 -1.6452 -1.2496
   98SAPC   H4Y 9733   6.162   3.411   3.486 -0.1186  0.7225  1.6021
   98SAPC   C35 9734   6.128   3.616   3.521  0.3086  0.3070 -0.2715
   98SAPC   H5X 9735   6.016   3.615   3.517  0.0791  4.0501  1.2330
   98SAPC   H5Y 9736   6.163   3.711   3.477  0.3987  0.5626  0.3398
   98SAPC   C36 9737   6.186   3.611   3.663 -0.6437  0.2123  0.0931
   98SAPC   H6X 9738   6.296   3.596   3.661 -0.8414 -1.1968 -1.1149
   98SAPC   H6Y 9739   6.159   3.510   3.701  1.6762 -1.4936 -2.4314
   98SAPC   C37 9740   6.139   3.725   3.755 -0.6151 -0.3428  0.7359
   98SAPC   H7X 9741   6.028   3.722   3.757 -0.6673  1.0635  0.8295
   98SAPC   H7Y 9742   6.170   3.823   3.712 -1.4937 -0.2802  0.2279
   98SAPC   C38 9743   6.183   3.709   3.901 -0.1630  0.3241 -0.0654
   98SAPC   H8X 9744   6.293   3.723   3.896 -0.2311  0.8707 -0.1069
   98SAPC   H8Y 9745   6.150   3.610   3.938  0.2993  0.5575  1.0153
   98SAPC   C39 9746   6.110   3.812   3.983 -0.0170  0.7141  0.8055
   98SAPC   H9X 9747   6.003   3.787   3.964  0.8680 -2.1344 -1.0366
   98SAPC   H9Y 9748   6.116   3.910   3.931 -2.6837  0.0429 -0.9994
   98SAPC  C310 9749   6.130   3.811   4.136 -0.1428 -0.2166  0.3034
   98SAPC  H10X 9750   6.088   3.910   4.164  0.0280  0.2661 -1.0663
   98SAPC  H10Y 9751   6.240   3.817   4.151  0.0755  1.4572 -1.5362
   98SAPC  C311 9752   6.068   3.697   4.209  0.3546  0.5265  0.2632
   98SAPC  H11X 9753   6.084   3.600   4.158  0.9064  0.9339 -0.3570
   98SAPC  H11Y 9754   5.958   3.709   4.200  0.4964  1.3227 -0.5231
   98SAPC  C312 9755   6.107   3.681   4.353 -0.3273  1.0974  0.2729
   98SAPC  H12X 9756   6.217   3.680   4.368 -0.0848 -0.5925 -1.2667
   98SAPC  H12Y 9757   6.070   3.579   4.378  0.8704  0.0690 -1.8472
   98SAPC  C313 9758   6.045   3.777   4.450 -0.2893 -0.5437 -0.2314
   98SAPC  H13X 9759   5.946   3.733   4.475  0.1147 -0.1103  2.3785
   98SAPC  H13Y 9760   6.040   3.883   4.419 -2.4658 -0.0248  1.6237
   98SAPC  C314 9761   6.125   3.783   4.586 -0.1630  0.4162  0.5408
   98SAPC  H14X 9762   6.234   3.777   4.566 -0.2382  2.6232 -0.9120
   98SAPC  H14Y 9763   6.091   3.695   4.645  0.3562 -0.5459 -0.5548
   98SAPC  C315 9764   6.102   3.902   4.676  0.1030 -0.1576  0.9250
   98SAPC  H15X 9765   5.997   3.937   4.667  0.6497  1.0169 -2.1674
   98SAPC  H15Y 9766   6.170   3.985   4.649 -1.2310  0.5424 -0.4954
   98SAPC  C316 9767   6.132   3.865   4.828 -0.3048  0.4226 -0.3383
   98SAPC  H16X 9768   6.125   3.966   4.873  0.8750 -0.2203  1.3715
   98SAPC  H16Y 9769   6.235   3.824   4.840  0.5751  1.9472 -2.0754
   98SAPC  C317 9770   6.035   3.768   4.900 -0.2983 -0.6221 -0.2748
   98SAPC  H17X 9771   6.057   3.663   4.872  0.2902  0.0268 -2.4318
   98SAPC  H17Y 9772   5.931   3.795   4.872  0.4084 -1.2289 -3.9902
   98SAPC  C318 9773   6.056   3.762   5.051 -0.5223 -0.2261 -0.3200
   98SAPC  H18X 9774   6.166   3.746   5.059 -0.5285 -0.2144 -0.2002
   98SAPC  H18Y 9775   5.987   3.689   5.100  0.2015 -1.2968 -0.8520
   98SAPC  H18Z 9776   6.053   3.862   5.099  0.9563 -0.2176 -0.1927
   99SAPC     N 9777   4.691   6.586   2.649  0.3884 -0.5643  0.1863
   99SAPC   C12 9778   4.580   6.488   2.682  0.4383  0.1803 -1.0449
   99SAPC  H12A 9779   4.599   6.400   2.621  0.0994  0.7687 -2.0258
   99SAPC  H12B 9780   4.483   6.517   2.646  1.0000 -0.1294 -2.9405
   99SAPC   C13 9781   4.676   6.730   2.699  0.2533  0.1401  0.5838
   99SAPC  H13A 9782   4.758   6.791   2.664  0.4128 -0.9675 -1.1225
   99SAPC  H13B 9783   4.578   6.766   2.668  0.1361 -1.0632 -0.5548
   99SAPC  H13C 9784   4.667   6.739   2.806  0.3677 -1.1219  0.7084
   99SAPC   C14 9785   4.820   6.535   2.696  1.0515  0.4580 -1.1484
   99SAPC  H14A 9786   4.898   6.603   2.664  2.1673 -0.1918  0.0716
   99SAPC  H14B 9787   4.825   6.549   2.803 -2.9355  0.6503 -0.8427
   99SAPC  H14C 9788   4.848   6.435   2.667  2.5266  0.2512  0.7718
   99SAPC   C15 9789   4.689   6.603   2.495  0.1112 -0.2591 -0.1852
   99SAPC  H15A 9790   4.706   6.507   2.449 -2.0699 -0.2115 -1.2412
   99SAPC  H15B 9791   4.596   6.629   2.447 -1.0501 -2.1486  0.8846
   99SAPC  H15C 9792   4.762   6.674   2.459 -0.4651 -0.1241 -1.1096
   99SAPC   C11 9793   4.579   6.421   2.825  0.6671  0.4855 -0.3583
   99SAPC  H11A 9794   4.595   6.501   2.900  1.3702  0.5758 -0.6020
   99SAPC  H11B 9795   4.662   6.347   2.827 -1.1521 -1.6642  1.7348
   99SAPC     P 9796   4.349   6.394   2.962 -0.0374 -0.2571  0.3489
   99SAPC   O13 9797   4.291   6.525   2.942 -0.1010 -0.5435 -0.0530
   99SAPC   O14 9798   4.258   6.281   2.969  0.2112 -0.3604 -0.8838
   99SAPC   O12 9799   4.454   6.355   2.847 -0.0443 -0.0132  0.1539
   99SAPC   O11 9800   4.436   6.407   3.092 -0.4139 -0.3079  0.3014
   99SAPC    C1 9801   4.527   6.309   3.136 -0.7454  0.2385 -0.0104
   99SAPC    HA 9802   4.472   6.213   3.122 -2.0183  1.0633 -0.9114
   99SAPC    HB 9803   4.618   6.314   3.073 -1.0677  0.7279 -0.4516
   99SAPC    C2 9804   4.564   6.340   3.282  0.4657  0.0038 -0.4026
   99SAPC    HS 9805   4.619   6.436   3.275  1.2843 -0.5567 -2.1552
   99SAPC   O21 9806   4.641   6.229   3.336 -0.3696  0.3222 -0.3881
   99SAPC   C21 9807   4.730   6.264   3.425  0.6583  0.7211  0.4936
   99SAPC   O22 9808   4.743   6.375   3.463  0.3429 -0.4494 -0.3274
   99SAPC   C22 9809   4.802   6.133   3.473 -0.0322  0.3964  0.3948
   99SAPC   H2R 9810   4.772   6.047   3.408 -0.0166  0.5198  0.2251
   99SAPC   H2S 9811   4.908   6.155   3.449 -0.2262  1.8826  0.8429
   99SAPC    C3 9812   4.436   6.356   3.369  0.0391 -0.5639 -0.3900
   99SAPC    HX 9813   4.384   6.259   3.381  0.2777 -0.6069  0.3194
   99SAPC    HY 9814   4.373   6.428   3.313  0.4047 -0.4141 -0.6141
   99SAPC   O31 9815   4.459   6.406   3.504  0.3261 -0.2129 -0.0701
   99SAPC   C31 9816   4.455   6.533   3.529 -0.0492  0.0350 -0.3064
   99SAPC   O32 9817   4.466   6.621   3.444 -0.0175 -0.0324  0.4147
   99SAPC   C32 9818   4.427   6.558   3.678 -0.6466  0.1492  0.8989
   99SAPC   H2X 9819   4.483   6.490   3.746  0.7032 -0.4318 -0.7021
   99SAPC   H2Y 9820   4.325   6.518   3.699 -0.3307 -0.8671  0.5637
   99SAPC   C23 9821   4.752   6.093   3.618 -0.8212 -0.0625  0.3691
   99SAPC   H3R 9822   4.749   6.186   3.679 -0.0003 -1.2087  2.2285
   99SAPC   H3S 9823   4.828   6.029   3.665  0.0106 -0.2649 -1.1750
   99SAPC   C24 9824   4.615   6.022   3.610  0.2931  0.3516 -0.1739
   99SAPC   H4R 9825   4.631   5.931   3.549  0.0355  1.1379 -1.4719
   99SAPC   H4S 9826   4.535   6.077   3.555  0.8271  0.9429 -0.3698
   99SAPC   C25 9827   4.565   5.983   3.750 -0.7222 -0.6039  0.2991
   99SAPC   H5R 9828   4.552   5.875   3.766 -1.1386 -0.7639 -1.0101
   99SAPC   C26 9829   4.517   6.075   3.840 -0.0763 -0.6529  0.0540
   99SAPC   H6R 9830   4.471   6.041   3.934 -1.9439  2.1747  0.2783
   99SAPC   C27 9831   4.502   6.224   3.820 -0.0288  0.4499  0.4120
   99SAPC   H7R 9832   4.394   6.249   3.817 -0.4472 -0.8710  2.2915
   99SAPC   H7S 9833   4.554   6.244   3.724 -0.2718 -2.5974 -0.4416
   99SAPC   C28 9834   4.560   6.307   3.928 -0.4224 -0.0093  0.3634
   99SAPC   H8R 9835   4.663   6.342   3.907 -0.7298  0.5130 -0.2966
   99SAPC   C29 9836   4.502   6.340   4.044  0.2887 -1.0937 -0.8687
   99SAPC   H9R 9837   4.564   6.386   4.122  0.4000  0.7753 -1.9897
   99SAPC  C210 9838   4.362   6.301   4.095  0.2142 -0.1929  0.1978
   99SAPC  H10R 9839   4.372   6.263   4.199  0.2425 -0.4636  0.0976
   99SAPC  H10S 9840   4.315   6.230   4.023 -1.3907  1.4735 -0.4791
   99SAPC  C211 9841   4.260   6.416   4.087 -0.4357  0.6854 -0.0072
   99SAPC  H11R 9842   4.232   6.439   3.983 -1.0835 -1.5010 -0.3575
   99SAPC  C212 9843   4.205   6.487   4.187  0.5283 -0.3625 -0.3952
   99SAPC  H12R 9844   4.131   6.564   4.161 -0.3065 -1.6695 -2.0285
   99SAPC  C213 9845   4.229   6.458   4.337  0.2654  0.2967 -0.2769
   99SAPC  H13R 9846   4.313   6.525   4.367  0.5396 -0.3858  0.5242
   99SAPC  H13S 9847   4.267   6.354   4.347  1.7383  0.7842 -0.5077
   99SAPC  C214 9848   4.101   6.473   4.422 -0.1891  0.0558 -0.5673
   99SAPC  H14R 9849   4.014   6.416   4.384  0.8996  0.4421 -4.0607
   99SAPC  C215 9850   4.093   6.550   4.525 -0.1928  0.2118  0.2934
   99SAPC  H15R 9851   3.996   6.576   4.572  0.0684 -1.4342  1.8614
   99SAPC  C216 9852   4.211   6.623   4.586 -0.0631  0.3538  0.0105
   99SAPC  H16R 9853   4.287   6.555   4.630 -1.5123  0.2062  2.4809
   99SAPC  H16S 9854   4.182   6.664   4.685  0.6050 -0.2972  0.4830
   99SAPC  C217 9855   4.260   6.754   4.519  0.5062 -0.1768  0.4843
   99SAPC  H17R 9856   4.319   6.724   4.430  1.0689  0.2661  0.7018
   99SAPC  H17S 9857   4.327   6.806   4.591  0.1704  0.3218  0.4472
   99SAPC  C218 9858   4.156   6.867   4.482 -0.1757 -0.0116 -0.6280
   99SAPC  H18R 9859   4.105   6.898   4.575 -0.0974 -0.9016 -0.2808
   99SAPC  H18S 9860   4.079   6.839   4.407 -2.6827  0.1578  1.7435
   99SAPC  C219 9861   4.229   6.987   4.418 -0.1669 -0.2204 -0.2851
   99SAPC  H19R 9862   4.323   6.996   4.476 -0.1748  1.4185 -0.4858
   99SAPC  H19S 9863   4.168   7.075   4.450  0.2166  0.6968 -2.0064
   99SAPC  C220 9864   4.252   6.983   4.271 -0.2801  0.3742 -0.3063
   99SAPC  H20R 9865   4.316   6.898   4.237 -2.4318 -1.6557  0.4707
   99SAPC  H20S 9866   4.285   7.077   4.222 -1.0077 -0.9628 -3.6443
   99SAPC  H20T 9867   4.151   6.974   4.226 -0.6137  0.7904  0.3602
   99SAPC   C33 9868   4.451   6.705   3.717 -0.5098  0.0750 -0.1806
   99SAPC   H3X 9869   4.372   6.764   3.667 -1.3221 -1.1014 -0.3053
   99SAPC   H3Y 9870   4.548   6.742   3.677  0.0370 -2.1366 -1.0328
   99SAPC   C34 9871   4.436   6.726   3.871  0.8223 -0.7927  0.8678
   99SAPC   H4X 9872   4.353   6.667   3.916  2.2750 -2.7940  1.0938
   99SAPC   H4Y 9873   4.425   6.836   3.868 -0.2430 -0.8687 -2.9146
   99SAPC   C35 9874   4.560   6.694   3.954 -0.4414  0.0769  1.2642
   99SAPC   H5X 9875   4.636   6.768   3.922 -0.4880  1.1670  3.5355
   99SAPC   H5Y 9876   4.584   6.589   3.924  2.1692  0.2581  2.5050
   99SAPC   C36 9877   4.546   6.706   4.108 -0.0313  0.2575  0.0206
   99SAPC   H6X 9878   4.467   6.634   4.139  0.8939  0.3454  2.8655
   99SAPC   H6Y 9879   4.509   6.808   4.133 -1.6718  0.0145 -1.2244
   99SAPC   C37 9880   4.677   6.668   4.182  0.0121 -1.2032 -0.3598
   99SAPC   H7X 9881   4.763   6.727   4.147  0.4872 -1.4556  0.3479
   99SAPC   H7Y 9882   4.704   6.565   4.151  1.3501  0.1012 -3.9296
   99SAPC   C38 9883   4.671   6.684   4.334 -0.2665 -0.1660 -0.0086
   99SAPC   H8X 9884   4.569   6.658   4.367 -0.7965  0.3668 -1.1544
   99SAPC   H8Y 9885   4.688   6.794   4.338  1.5991 -0.4541  0.8684
   99SAPC   C39 9886   4.792   6.619   4.402 -0.0143 -0.2117 -0.2222
   99SAPC   H9X 9887   4.889   6.640   4.352  1.2847 -2.7965  1.0207
   99SAPC   H9Y 9888   4.786   6.509   4.395 -2.3854 -0.2911  1.8088
   99SAPC  C310 9889   4.800   6.660   4.550  0.2830  0.9820  0.8038
   99SAPC  H10X 9890   4.826   6.767   4.564  1.4807  0.6485  1.2142
   99SAPC  H10Y 9891   4.892   6.615   4.593  1.0502  2.0434  0.3288
   99SAPC  C311 9892   4.683   6.623   4.632 -0.9218  0.1415 -0.1728
   99SAPC  H11X 9893   4.670   6.513   4.631  0.7066 -0.0989 -2.6050
   99SAPC  H11Y 9894   4.590   6.668   4.591  1.0560  1.7304 -3.2836
   99SAPC  C312 9895   4.695   6.672   4.784 -0.1830 -0.3401  0.4201
   99SAPC  H12X 9896   4.695   6.783   4.796 -3.4633 -0.2440  0.4195
   99SAPC  H12Y 9897   4.798   6.641   4.809 -0.1092 -0.2047  0.2917
   99SAPC  C313 9898   4.603   6.612   4.891 -0.5332  0.4304  0.6765
   99SAPC  H13X 9899   4.501   6.646   4.866 -0.7334 -1.1830 -0.9053
   99SAPC  H13Y 9900   4.636   6.651   4.990  0.1473  0.0442  0.6142
   99SAPC  C314 9901   4.620   6.461   4.891 -0.0727 -0.4727  0.2046
   99SAPC  H14X 9902   4.724   6.434   4.916 -0.4963 -2.3825  0.0324
   99SAPC  H14Y 9903   4.595   6.426   4.789  2.7771  0.6768 -0.9943
   99SAPC  C315 9904   4.526   6.397   4.993 -0.2434  0.1889 -0.0588
   99SAPC  H15X 9905   4.426   6.439   4.966 -0.2246  1.3827  1.5772
   99SAPC  H15Y 9906   4.546   6.437   5.095  1.0122  0.7772 -0.5182
   99SAPC  C316 9907   4.524   6.244   4.995 -0.6401 -0.3510 -0.4842
   99SAPC  H16X 9908   4.631   6.215   5.005 -0.6978 -0.4909 -0.2716
   99SAPC  H16Y 9909   4.489   6.207   4.896  1.4686 -1.8632 -0.7371
   99SAPC  C317 9910   4.448   6.189   5.119 -0.2546  0.2625  0.4765
   99SAPC  H17X 9911   4.346   6.233   5.120 -1.5889 -2.5755 -0.6679
   99SAPC  H17Y 9912   4.492   6.220   5.216 -1.3565  0.3825  0.9538
   99SAPC  C318 9913   4.445   6.041   5.114  0.3853 -0.2855  0.2628
   99SAPC  H18X 9914   4.551   6.016   5.089  1.4325  3.3106  0.5367
   99SAPC  H18Y 9915   4.367   6.011   5.041  1.0268  1.4389 -1.2121
   99SAPC  H18Z 9916   4.423   5.996   5.213 -0.3133  0.0033  0.2420
  100SAPC     N 9917   3.463   5.892   2.686 -0.0631  0.0869  0.3084
  100SAPC   C12 9918   3.578   5.796   2.706  0.0763 -0.4395  0.4682
  100SAPC  H12A 9919   3.627   5.813   2.800  1.5923 -2.7003  0.1592
  100SAPC  H12B 9920   3.646   5.812   2.624 -0.4989 -1.8821 -0.3379
  100SAPC   C13 9921   3.360   5.874   2.790 -0.1676  0.3059  0.3534
  100SAPC  H13A 9922   3.395   5.921   2.880 -1.0681  0.4290  0.6560
  100SAPC  H13B 9923   3.259   5.910   2.774  0.2956  1.4389 -0.0617
  100SAPC  H13C 9924   3.347   5.768   2.810 -2.7538  0.6900  1.1783
  100SAPC   C14 9925   3.523   6.030   2.693  1.0430  0.2418 -0.3559
  100SAPC  H14A 9926   3.440   6.098   2.707  0.1544 -0.1821 -2.8509
  100SAPC  H14B 9927   3.579   6.048   2.783 -2.7312 -2.4647  2.8865
  100SAPC  H14C 9928   3.575   6.048   2.600 -2.2447 -0.4013 -2.5300
  100SAPC   C15 9929   3.406   5.883   2.542 -0.3795 -0.9030  0.2684
  100SAPC  H15A 9930   3.315   5.941   2.539  0.5782  0.6751  0.3850
  100SAPC  H15B 9931   3.472   5.927   2.468 -1.6156  1.6239  0.5594
  100SAPC  H15C 9932   3.381   5.779   2.526  2.3295 -1.8039  1.2590
  100SAPC   C11 9933   3.547   5.643   2.702  0.0571  0.1917 -0.4438
  100SAPC  H11A 9934   3.646   5.593   2.706 -0.2919 -0.4803  0.0006
  100SAPC  H11B 9935   3.493   5.614   2.609 -0.8125 -2.3404  0.7559
  100SAPC     P 9936   3.389   5.479   2.813 -0.1466 -0.2466  0.2071
  100SAPC   O13 9937   3.273   5.505   2.725  0.1855  0.5403  0.1095
  100SAPC   O14 9938   3.473   5.359   2.775 -0.9717 -0.8786  0.3723
  100SAPC   O12 9939   3.475   5.615   2.824 -0.0137  0.0265  0.2548
  100SAPC   O11 9940   3.341   5.459   2.965 -0.1597 -0.0160 -0.4828
  100SAPC    C1 9941   3.253   5.551   3.026  0.0305 -0.0903  0.5222
  100SAPC    HA 9942   3.242   5.643   2.964 -1.0998 -0.5519  0.0125
  100SAPC    HB 9943   3.151   5.507   3.036 -0.9245  1.8039 -0.2104
  100SAPC    C2 9944   3.293   5.575   3.174  0.5373 -0.3923  0.3273
  100SAPC    HS 9945   3.225   5.656   3.207 -0.5597 -1.0957 -0.1818
  100SAPC   O21 9946   3.428   5.625   3.185  0.5156 -0.5241 -0.3224
  100SAPC   C21 9947   3.451   5.750   3.133  0.0914  0.2728  0.1515
  100SAPC   O22 9948   3.374   5.830   3.090  0.0464 -0.4497  0.3918
  100SAPC   C22 9949   3.601   5.777   3.153  0.7992  0.4142 -0.0361
  100SAPC   H2R 9950   3.633   5.684   3.204  1.2362  1.6172  1.9717
  100SAPC   H2S 9951   3.641   5.794   3.051  0.3159  2.8209  0.1330
  100SAPC    C3 9952   3.293   5.459   3.261  0.0212  0.0093 -0.3728
  100SAPC    HX 9953   3.344   5.370   3.216 -0.3437 -0.3348 -0.1134
  100SAPC    HY 9954   3.186   5.429   3.263 -0.2581  1.0157  0.7955
  100SAPC   O31 9955   3.341   5.481   3.398 -0.0232 -0.6992  0.9506
  100SAPC   C31 9956   3.270   5.555   3.478 -0.6990 -0.4351 -0.4212
  100SAPC   O32 9957   3.174   5.626   3.453 -0.1147  0.4559  0.4039
  100SAPC   C32 9958   3.343   5.556   3.613  0.0199 -0.0638  0.1291
  100SAPC   H2X 9959   3.445   5.593   3.593  0.9415 -1.0945  2.5289
  100SAPC   H2Y 9960   3.351   5.456   3.662 -2.9878 -0.1427  0.6875
  100SAPC   C23 9961   3.632   5.904   3.235  0.0352 -0.1626 -0.1685
  100SAPC   H3R 9962   3.593   6.001   3.196 -3.9902 -0.6049  2.1498
  100SAPC   H3S 9963   3.743   5.906   3.235  0.0583 -1.0351 -0.6856
  100SAPC   C24 9964   3.587   5.894   3.391  0.4131 -0.3821  0.5697
  100SAPC   H4R 9965   3.652   5.817   3.438  1.9685 -0.1567 -1.1271
  100SAPC   H4S 9966   3.481   5.858   3.394  0.3555 -0.3672 -0.8014
  100SAPC   C25 9967   3.598   6.033   3.461 -0.9876 -0.3517 -0.5146
  100SAPC   H5R 9968   3.582   6.119   3.396 -2.0297  1.4473  1.9532
  100SAPC   C26 9969   3.638   6.045   3.593  0.6759  0.9446  0.0984
  100SAPC   H6R 9970   3.640   6.147   3.637 -1.0560  0.7050  0.8100
  100SAPC   C27 9971   3.682   5.937   3.695  0.4495 -0.6432  0.0653
  100SAPC   H7R 9972   3.755   5.981   3.766 -0.5654  0.4535  0.4785
  100SAPC   H7S 9973   3.739   5.852   3.653 -0.1705 -0.4497 -1.2027
  100SAPC   C28 9974   3.564   5.880   3.767  0.1721  0.1555  0.5360
  100SAPC   H8R 9975   3.485   5.841   3.701 -0.0678 -0.0889  0.9605
  100SAPC   C29 9976   3.534   5.875   3.903  0.0537  0.0157  0.2890
  100SAPC   H9R 9977   3.433   5.844   3.934 -0.0748 -1.6250 -1.5495
  100SAPC  C210 9978   3.622   5.941   4.008  0.4587 -0.4032 -0.0551
  100SAPC  H10R 9979   3.648   6.040   3.964  0.0672  1.2397  3.0850
  100SAPC  H10S 9980   3.708   5.873   4.025 -0.2195 -1.4593 -0.7552
  100SAPC  C211 9981   3.561   5.977   4.141  0.0446  0.1406 -0.1017
  100SAPC  H11R 9982   3.592   5.916   4.228 -1.6556 -1.4505 -0.5409
  100SAPC  C212 9983   3.473   6.075   4.160  0.4178 -0.1883  0.3481
  100SAPC  H12R 9984   3.432   6.086   4.261 -1.2453  1.5968 -0.4500
  100SAPC  C213 9985   3.418   6.172   4.055 -0.0256  0.6057  0.0583
  100SAPC  H13R 9986   3.487   6.180   3.968  0.2070 -0.1841  0.1550
  100SAPC  H13S 9987   3.404   6.271   4.102  1.1509  0.6762  0.2867
  100SAPC  C214 9988   3.282   6.125   4.002 -0.2973  0.2129 -0.0694
  100SAPC  H14R 9989   3.232   6.063   4.077 -1.2527  1.5756  0.4736
  100SAPC  C215 9990   3.220   6.145   3.891  0.3214  0.0344  0.0280
  100SAPC  H15R 9991   3.121   6.102   3.871  1.1102 -1.1349 -1.5803
  100SAPC  C216 9992   3.273   6.231   3.776  0.0091  0.7352  0.2608
  100SAPC  H16R 9993   3.371   6.275   3.801  2.4180 -2.7221 -2.0726
  100SAPC  H16S 9994   3.192   6.300   3.744  0.2569  0.3820 -1.2153
  100SAPC  C217 9995   3.302   6.145   3.656 -0.2213 -0.4784  1.3086
  100SAPC  H17R 9996   3.351   6.052   3.688  1.3473 -0.8319 -1.7353
  100SAPC  H17S 9997   3.356   6.201   3.576 -0.7899  0.0199  1.2664
  100SAPC  C218 9998   3.168   6.106   3.588 -0.5687 -0.2194  0.1873
  100SAPC  H18R 9999   3.114   6.201   3.570 -0.5095 -0.0380  0.9442
  100SAPC  H18S10000   3.099   6.050   3.655 -1.3552  0.1346 -0.3104
  100SAPC  C21910001   3.186   6.020   3.461  0.5436  0.0435 -0.2430
  100SAPC  H19R10002   3.097   5.964   3.428  0.8254 -2.0116  2.1505
  100SAPC  H19S10003   3.267   5.946   3.478  0.2431 -0.5253 -1.2320
  100SAPC  C22010004   3.215   6.119   3.339  0.0737  0.6884 -0.1892
  100SAPC  H20R10005   3.133   6.193   3.326  2.2660  3.6096  1.4186
  100SAPC  H20S10006   3.238   6.067   3.244  1.6963 -0.1276  0.6244
  100SAPC  H20T10007   3.306   6.179   3.361 -0.3012  1.0313  0.4691
  100SAPC   C3310008   3.278   5.645   3.720 -0.1517  0.2660  0.2038
  100SAPC   H3X10009   3.243   5.747   3.693 -1.4390  0.2701  1.7619
  100SAPC   H3Y10010   3.351   5.672   3.799 -0.4625  2.8962 -0.3134
  100SAPC   C3410011   3.162   5.567   3.786 -0.0958 -0.0482  0.1644
  100SAPC   H4X10012   3.201   5.463   3.800  0.7252  0.2033 -0.1937
  100SAPC   H4Y10013   3.076   5.562   3.717  0.0391  1.0492 -0.1004
  100SAPC   C3510014   3.111   5.628   3.926 -0.5206 -0.1524 -0.1853
  100SAPC   H5X10015   3.020   5.578   3.967  0.3026 -2.2850 -0.8500
  100SAPC   H5Y10016   3.083   5.732   3.899  1.1971  0.7468  1.2651
  100SAPC   C3610017   3.225   5.635   4.026  1.0120  0.1897  0.7216
  100SAPC   H6X10018   3.306   5.698   3.983  1.6478 -1.0900 -0.0469
  100SAPC   H6Y10019   3.271   5.534   4.036 -0.5468 -0.6183  0.0750
  100SAPC   C3710020   3.189   5.697   4.166 -0.4693  0.0105  0.3961
  100SAPC   H7X10021   3.114   5.636   4.220  0.5026 -0.9159  0.7425
  100SAPC   H7Y10022   3.125   5.787   4.158 -1.7310 -0.7601  1.5166
  100SAPC   C3810023   3.313   5.736   4.246  0.2483 -0.1248 -0.3820
  100SAPC   H8X10024   3.360   5.824   4.197  1.5759  0.0485  1.1087
  100SAPC   H8Y10025   3.389   5.655   4.243  0.3414 -0.0706  0.4048
  100SAPC   C3910026   3.283   5.804   4.378 -0.3643  0.6726  0.3987
  100SAPC   H9X10027   3.224   5.742   4.450 -0.4969  0.1589 -0.1429
  100SAPC   H9Y10028   3.231   5.901   4.371  0.7636  1.4085  1.7422
  100SAPC  C31010029   3.414   5.829   4.450 -0.0219  0.2879 -0.7321
  100SAPC  H10X10030   3.471   5.904   4.391 -2.1240  1.3794 -1.4819
  100SAPC  H10Y10031   3.469   5.733   4.456 -1.3003 -0.5738 -1.9830
  100SAPC  C31110032   3.385   5.900   4.590 -0.1931 -0.4116 -0.5759
  100SAPC  H11X10033   3.305   5.846   4.645  0.0070  0.5539  0.7453
  100SAPC  H11Y10034   3.362   6.009   4.584  1.4946  0.2549  2.6734
  100SAPC  C31210035   3.508   5.895   4.685 -0.0799  0.1942 -0.2107
  100SAPC  H12X10036   3.470   5.934   4.781 -0.1869  3.0240 -1.3260
  100SAPC  H12Y10037   3.580   5.973   4.653 -1.3663  1.2780 -0.5283
  100SAPC  C31310038   3.589   5.770   4.705 -0.0929  0.7185 -0.2507
  100SAPC  H13X10039   3.655   5.774   4.794 -0.2800 -0.7067 -0.0303
  100SAPC  H13Y10040   3.651   5.743   4.617 -1.0984  0.0912 -0.7869
  100SAPC  C31410041   3.492   5.648   4.733 -0.5996 -0.1139  0.0418
  100SAPC  H14X10042   3.413   5.636   4.656 -1.5310 -1.5232  1.1692
  100SAPC  H14Y10043   3.445   5.671   4.831  1.5937  0.8497  0.9425
  100SAPC  C31510044   3.580   5.521   4.763  0.3573  0.3769 -0.4536
  100SAPC  H15X10045   3.655   5.555   4.837 -0.2140  1.6411 -0.4386
  100SAPC  H15Y10046   3.639   5.475   4.680  0.0281 -0.8193 -0.0453
  100SAPC  C31610047   3.507   5.400   4.818  0.6515  0.0668  0.0443
  100SAPC  H16X10048   3.452   5.357   4.732  0.1162 -0.0409  0.4312
  100SAPC  H16Y10049   3.421   5.426   4.883  0.6677  1.9187 -0.6164
  100SAPC  C31710050   3.584   5.291   4.880 -0.0065 -0.0496 -0.0672
  100SAPC  H17X10051   3.665   5.319   4.950  0.8756  0.3612 -1.2179
  100SAPC  H17Y10052   3.637   5.248   4.792 -1.1516  1.1920 -1.4250
  100SAPC  C31810053   3.484   5.177   4.922  0.4730  0.0207  0.1099
  100SAPC  H18X10054   3.539   5.085   4.950 -0.0654 -0.5125 -0.5346
  100SAPC  H18Y10055   3.417   5.137   4.843  0.6226  1.1130 -0.5863
  100SAPC  H18Z10056   3.419   5.218   5.002  0.6855 -4.3589  2.8528
  101OSM      N10057   0.808   3.592   7.229  0.0807 -0.1048 -0.5713
  101OSM    C1510058   0.876   3.458   7.232  0.0909  0.2054 -0.3069
  101OSM   H15A10059   0.863   3.392   7.317  0.2328  0.4434 -0.0990
  101OSM   H15B10060   0.981   3.463   7.206  0.2333 -1.6590 -0.2546
  101OSM   H15C10061   0.840   3.393   7.153 -1.7454 -1.9148  2.1079
  101OSM    C1410062   0.661   3.583   7.266  0.1293 -0.1156 -0.1442
  101OSM   H14A10063   0.614   3.680   7.272 -4.0706 -1.9455  0.0311
  101OSM   H14B10064   0.656   3.531   7.360 -1.0038 -3.5783 -1.9567
  101OSM   H14C10065   0.598   3.527   7.199 -1.9492  1.3902  0.4592
  101OSM    C1310066   0.890   3.662   7.334 -0.2558  0.4513  0.5899
  101OSM   H13A10067   0.832   3.751   7.356 -2.1967 -0.3302 -1.0306
  101OSM   H13B10068   0.989   3.691   7.304 -1.3833  1.6407 -2.3675
  101OSM   H13C10069   0.907   3.604   7.424  1.0997 -1.3170 -0.7491
  101OSM    C1210070   0.815   3.659   7.093  0.5183 -0.2795  0.1371
  101OSM   H12A10071   0.916   3.683   7.063 -0.0133  0.1131 -1.3899
  101OSM   H12B10072   0.771   3.757   7.102  3.7081  1.2601  0.5431
  101OSM    C1110073   0.755   3.577   6.977  0.4762 -0.0484 -0.2623
  101OSM   H11A10074   0.762   3.634   6.883  0.9314  0.4525  0.0694
  101OSM   H11B10075   0.644   3.571   6.984  0.4358  0.6197 -0.2771
  101OSM      P10076   0.934   3.424   6.867 -0.1602 -0.1245  0.5700
  101OSM    O1310077   1.052   3.488   6.930  0.1294  0.6095  0.2878
  101OSM    O1410078   0.943   3.282   6.822 -0.1502  0.3452 -0.0375
  101OSM    O1110079   0.893   3.507   6.740  0.2309 -0.3623  0.3290
  101OSM    O1210080   0.806   3.445   6.960 -0.1758  0.2408 -0.3187
  101OSM    C1S10081   0.984   3.515   6.630  0.0108  0.5082  1.0359
  101OSM    H1S10082   0.986   3.417   6.579  2.9172  1.8780 -1.8026
  101OSM    H1T10083   1.090   3.540   6.652  1.1650 -1.9682 -1.2271
  101OSM     NF10084   0.980   3.587   6.386  0.3212 -0.0047  0.1348
  101OSM    HNF10085   1.062   3.638   6.359  1.0118 -0.3571  1.4775
  101OSM    C2S10086   0.937   3.620   6.526  0.0612 -0.6263  1.2077
  101OSM    H2S10087   0.826   3.611   6.526  0.0208 -0.4874 -0.8721
  101OSM    C3S10088   0.969   3.757   6.575  0.1953  0.1449 -0.3139
  101OSM    H3S10089   1.077   3.779   6.568 -0.3334  3.6561  0.5897
  101OSM     O310090   0.918   3.787   6.705 -0.6433 -0.3228  0.5563
  101OSM    HO310091   0.861   3.711   6.723 -3.4207  1.3398 -0.5316
  101OSM    C4S10092   0.896   3.853   6.480 -0.1386  0.1401 -0.7446
  101OSM    H4S10093   0.797   3.821   6.444 -0.1328  2.0774 -2.6945
  101OSM    C5S10094   0.939   3.974   6.444  0.2577  0.8228 -0.1503
  101OSM    H5S10095   1.039   4.003   6.478  0.7192 -1.0243  0.1624
  101OSM    C6S10096   0.862   4.069   6.368  0.6304  0.2775 -0.1931
  101OSM    H6S10097   0.930   4.146   6.325 -0.1804  0.1701 -1.7240
  101OSM    H6T10098   0.813   4.133   6.444  0.7321 -0.7714  0.7709
  101OSM    C7S10099   0.779   4.017   6.250  1.1007  0.9090 -0.5108
  101OSM    H7S10100   0.728   4.099   6.195  1.2610  0.9348 -0.6190
  101OSM    H7T10101   0.696   3.955   6.290 -0.0305  0.5974 -3.1784
  101OSM    C8S10102   0.866   3.930   6.153 -1.3560  0.0827 -0.3403
  101OSM    H8S10103   0.900   3.834   6.199 -2.8026  0.8064  2.5047
  101OSM    H8T10104   0.959   3.989   6.137 -1.1920  1.1846  3.4678
  101OSM    C9S10105   0.831   3.904   6.011  0.9146 -0.4475 -0.2926
  101OSM    H9S10106   0.918   3.869   5.952  0.3041 -2.2491 -0.1913
  101OSM    H9T10107   0.802   4.002   5.969  2.0446  0.3277  0.6684
  101OSM   C10S10108   0.723   3.791   6.001 -0.7315  0.3717  0.3122
  101OSM   H10S10109   0.643   3.789   6.078 -0.7134  0.4348  0.3331
  101OSM   H10T10110   0.773   3.693   6.009 -1.4553 -0.0690 -0.3511
  101OSM   C11S10111   0.653   3.786   5.863 -0.2090 -0.3585  0.0258
  101OSM   H11S10112   0.723   3.820   5.784  1.7663  1.5431  2.4084
  101OSM   H11T10113   0.571   3.861   5.867  0.5411  0.4719  0.1466
  101OSM   C12S10114   0.588   3.645   5.827 -0.1304 -0.2863 -0.5280
  101OSM   H12S10115   0.536   3.620   5.923  1.2013 -0.9554  0.0466
  101OSM   H12T10116   0.671   3.571   5.817 -0.4945 -1.1695  2.0656
  101OSM   C13S10117   0.489   3.656   5.711  0.1112 -0.1993  0.4390
  101OSM   H13S10118   0.411   3.733   5.730  1.2348  1.5268 -1.5050
  101OSM   H13T10119   0.447   3.554   5.704  0.9486 -0.7171  2.3619
  101OSM   C14S10120   0.546   3.684   5.571  0.6644  0.0358  0.5410
  101OSM   H14S10121   0.637   3.623   5.556  1.0665  1.0307 -1.3970
  101OSM   H14T10122   0.584   3.788   5.562  1.4038 -0.3138 -0.4844
  101OSM   C15S10123   0.448   3.671   5.448 -0.0214  0.3986 -0.5000
  101OSM   H15S10124   0.359   3.732   5.475 -0.6214  0.1925 -1.9298
  101OSM   H15T10125   0.414   3.566   5.446  1.2619 -0.0383 -0.6431
  101OSM   C16S10126   0.506   3.706   5.310  0.2471  0.0152 -0.7037
  101OSM   H16S10127   0.606   3.659   5.310  0.3340 -0.0750  2.8672
  101OSM   H16T10128   0.518   3.816   5.323 -2.3176  0.2101  0.7661
  101OSM   C17S10129   0.404   3.674   5.196 -0.7273 -0.2048  0.3908
  101OSM   H17S10130   0.460   3.722   5.112 -1.5543  1.4235  0.7369
  101OSM   H17T10131   0.313   3.730   5.225 -0.4643 -0.3500  1.5246
  101OSM   C18S10132   0.375   3.533   5.166 -0.1992  0.6563  0.0093
  101OSM   H18S10133   0.350   3.514   5.059 -0.8520 -0.0233  0.2844
  101OSM   H18T10134   0.298   3.506   5.240  1.5481 -0.0069  1.6636
  101OSM   H18U10135   0.468   3.476   5.185 -0.2734  0.5452  0.0374
  101OSM    C1F10136   0.945   3.469   6.332 -0.3198  0.3651 -0.1427
  101OSM     OF10137   0.863   3.391   6.387 -0.7137  0.0014 -0.0806
  101OSM    C2F10138   1.030   3.434   6.216 -0.6334 -0.7742  0.1653
  101OSM    H2F10139   1.013   3.328   6.190  0.4716 -0.5218 -1.7839
  101OSM    H2G10140   1.135   3.446   6.250 -1.2926  2.8316  1.4200
  101OSM    C3F10141   0.983   3.511   6.097 -0.2416 -0.3179  0.7887
  101OSM    H3F10142   0.945   3.610   6.129 -0.5728 -0.4605  0.8352
  101OSM    H3G10143   0.889   3.474   6.050  0.4211  1.4710 -2.2603
  101OSM    C4F10144   1.099   3.543   5.995  0.0774  0.6506 -0.2695
  101OSM    H4F10145   1.199   3.559   6.039  0.9290 -0.3888 -1.7399
  101OSM    H4G10146   1.060   3.626   5.931  0.2922  1.6534  0.8730
  101OSM    C5F10147   1.124   3.414   5.910  0.2086 -0.6483 -0.0882
  101OSM    H5F10148   1.033   3.379   5.856 -0.2154  0.0127  0.1843
  101OSM    H5G10149   1.163   3.329   5.970 -1.5220 -2.8807 -1.8995
  101OSM    C6F10150   1.229   3.451   5.801 -0.2958 -0.5330  0.9946
  101OSM    H6F10151   1.287   3.532   5.850  0.7989 -1.6311  1.5602
  101OSM    H6G10152   1.191   3.501   5.709  1.4880  1.1714  1.1284
  101OSM    C7F10153   1.323   3.337   5.756 -0.0470 -0.6736  0.3969
  101OSM    H7F10154   1.384   3.307   5.843  0.3536  1.3865  0.8769
  101OSM    H7G10155   1.386   3.371   5.671 -0.3325 -0.8876  0.0960
  101OSM    C8F10156   1.244   3.215   5.703 -0.9755 -0.4680  0.0015
  101OSM    H8F10157   1.204   3.175   5.798 -1.2032  3.3015  1.6817
  101OSM    H8G10158   1.320   3.149   5.657 -0.3354 -0.7814  1.4462
  101OSM    C9F10159   1.139   3.249   5.607  0.4775 -0.0030  0.3698
  101OSM    H9F10160   1.048   3.294   5.649 -1.6894 -1.3263 -2.5682
  101OSM   C10F10161   1.130   3.203   5.479  0.3400 -0.1814 -0.3831
  101OSM   H10F10162   1.044   3.242   5.422  0.2029  2.6733  1.5377
  101OSM   C11F10163   1.235   3.131   5.398  0.1436 -0.3961  0.7299
  101OSM   H11F10164   1.249   3.031   5.445  2.1549 -1.0462 -1.0735
  101OSM   H11G10165   1.331   3.185   5.410  0.5452 -1.2769  1.6173
  101OSM   C12F10166   1.207   3.110   5.248  0.2039  0.1012  0.0378
  101OSM   H12F10167   1.296   3.084   5.186  0.5058  1.0830  0.0300
  101OSM   H12G10168   1.160   3.201   5.204 -0.8694 -1.3145 -1.9025
  101OSM   C13F10169   1.127   2.978   5.219  0.7069 -0.6145  0.3407
  101OSM   H13F10170   1.028   2.999   5.264  0.2103 -0.5522 -0.7685
  101OSM   H13G10171   1.178   2.896   5.275 -0.3618 -0.5884  1.4151
  101OSM   C14F10172   1.134   2.939   5.070 -0.1471 -0.0687 -0.4872
  101OSM   H14F10173   1.101   2.833   5.060  0.7879 -0.4065 -0.0666
  101OSM   H14G10174   1.242   2.937   5.043  0.2335 -2.4538  0.8721
  101OSM   C15F10175   1.052   3.036   4.999  0.8635 -0.0340  0.4411
  101OSM   H15F10176   1.112   3.129   4.992 -0.5041  0.8453 -0.0607
  101OSM   H15G10177   0.959   3.049   5.059  0.5207 -2.6652  0.6174
  101OSM   C16F10178   1.015   2.992   4.856  0.2968 -0.8390 -0.1982
  101OSM   H16F10179   0.934   2.917   4.847  0.8507 -1.3938 -0.6788
  101OSM   H16G10180   1.101   2.941   4.807 -1.6107 -4.6425  0.0517
  101OSM   C17F10181   0.970   3.113   4.775 -0.2495 -0.1311 -0.4381
  101OSM   H17F10182   1.044   3.194   4.791 -0.3300 -0.7124  4.7531
  101OSM   H17G10183   0.873   3.156   4.807  0.3968  0.3382  0.9673
  101OSM   C18F10184   0.953   3.081   4.630  0.0545  0.1324 -0.2418
  101OSM   H18F10185   1.045   3.034   4.591 -0.2770  0.2296 -1.1724
  101OSM   H18G10186   0.945   3.177   4.574  1.2054  0.4409  0.0973
  101OSM   H18H10187   0.874   3.013   4.592 -0.4015  1.2029 -1.3213
  102OSM      N10188   1.764   2.772   7.213 -0.2495 -0.5398 -0.1052
  102OSM    C1510189   1.646   2.736   7.294 -0.3442 -0.7195 -0.2957
  102OSM   H15A10190   1.587   2.658   7.246 -0.3469 -0.6970 -0.3291
  102OSM   H15B10191   1.577   2.817   7.313  2.4378  1.8852 -0.6078
  102OSM   H15C10192   1.680   2.711   7.393 -0.7845  0.0083  0.0500
  102OSM    C1410193   1.855   2.871   7.289  0.1065 -0.1083  0.3562
  102OSM   H14A10194   1.932   2.905   7.221  0.5283  1.1471  1.4158
  102OSM   H14B10195   1.888   2.817   7.377 -1.2497 -3.1176 -0.8607
  102OSM   H14C10196   1.797   2.959   7.312  1.5638  0.9674  0.0907
  102OSM    C1310197   1.838   2.649   7.184 -0.6951 -0.0873 -0.4219
  102OSM   H13A10198   1.766   2.578   7.145 -1.1868  0.1096  0.1299
  102OSM   H13B10199   1.885   2.611   7.273 -0.3317 -1.9864 -1.3732
  102OSM   H13C10200   1.927   2.666   7.125  0.4606 -0.6114  1.0980
  102OSM    C1210201   1.717   2.834   7.084 -0.6540  0.4635  0.0977
  102OSM   H12A10202   1.655   2.917   7.112  0.4682  1.4732 -0.2966
  102OSM   H12B10203   1.669   2.755   7.028 -0.7997  0.6205  0.0012
  102OSM    C1110204   1.827   2.896   6.992 -0.0325 -0.8328 -0.0116
  102OSM   H11A10205   1.870   2.801   6.954  1.3497 -0.5092  0.6803
  102OSM   H11B10206   1.898   2.962   7.046 -0.6785  0.1018 -0.2701
  102OSM      P10207   1.701   3.101   6.924  0.0692  0.1104  0.2737
  102OSM    O1310208   1.617   3.087   7.046  0.1325 -0.6389 -0.0755
  102OSM    O1410209   1.806   3.207   6.928  0.6907 -0.1468  0.4099
  102OSM    O1110210   1.599   3.124   6.805  0.2740  0.4070  0.2847
  102OSM    O1210211   1.765   2.964   6.881 -0.0869  0.1591  0.1649
  102OSM    C1S10212   1.646   3.151   6.673 -0.7312 -0.0518 -0.1341
  102OSM    H1S10213   1.732   3.088   6.643 -0.8130 -0.1070 -0.2530
  102OSM    H1T10214   1.671   3.259   6.658  1.6228 -0.6990 -1.3315
  102OSM     NF10215   1.582   3.150   6.425 -0.2370  0.7943  0.2011
  102OSM    HNF10216   1.537   3.219   6.368 -1.1750  0.0962  0.0726
  102OSM    C2S10217   1.535   3.122   6.565  0.1510 -0.6213  0.0143
  102OSM    H2S10218   1.521   3.012   6.573 -1.4773 -0.4760 -0.5348
  102OSM    C3S10219   1.397   3.192   6.597  0.4988 -0.6227  0.5244
  102OSM    H3S10220   1.414   3.299   6.575 -0.7718 -0.1879  1.5317
  102OSM     O310221   1.360   3.187   6.733 -0.2832 -0.0807 -0.0612
  102OSM    HO310222   1.445   3.180   6.777  0.2363 -1.0367 -1.1734
  102OSM    C4S10223   1.290   3.137   6.503 -0.4920  0.3403 -0.3543
  102OSM    H4S10224   1.277   3.203   6.416 -0.4293  0.4696 -0.2658
  102OSM    C5S10225   1.215   3.020   6.513 -0.8069  0.4949  0.5597
  102OSM    H5S10226   1.226   2.943   6.591  0.6383  0.3048  0.2022
  102OSM    C6S10227   1.121   2.989   6.403 -0.2425  0.8313  0.2593
  102OSM    H6S10228   1.028   3.050   6.405 -0.7441  0.1549 -0.9857
  102OSM    H6T10229   1.081   2.886   6.416 -0.3728  0.7830 -0.4576
  102OSM    C7S10230   1.205   2.983   6.266  0.3338 -0.4278  0.1354
  102OSM    H7S10231   1.310   2.948   6.275  0.2026 -1.5333 -2.1452
  102OSM    H7T10232   1.227   3.086   6.228  3.9527 -1.0377  0.2230
  102OSM    C8S10233   1.151   2.898   6.150 -0.3348 -0.2967 -0.1616
  102OSM    H8S10234   1.050   2.931   6.118  0.2594  1.4932 -0.3218
  102OSM    H8T10235   1.146   2.789   6.172 -0.8558 -0.7965 -2.4696
  102OSM    C9S10236   1.242   2.907   6.027 -0.8067  0.5503  0.1092
  102OSM    H9S10237   1.343   2.866   6.050 -0.3077  1.4893 -0.3269
  102OSM    H9T10238   1.258   3.008   5.984  0.2081  1.0398  1.5448
  102OSM   C10S10239   1.192   2.800   5.925 -0.0505  0.9545 -0.5685
  102OSM   H10S10240   1.084   2.812   5.902  0.4249 -0.4404 -4.1416
  102OSM   H10T10241   1.191   2.694   5.960 -0.1773  0.6615 -1.4510
  102OSM   C11S10242   1.289   2.799   5.809 -0.1782 -0.3571 -0.1917
  102OSM   H11S10243   1.393   2.766   5.831 -0.3902 -1.8650 -1.2778
  102OSM   H11T10244   1.287   2.904   5.774  1.7686  0.0625  0.7912
  102OSM   C12S10245   1.251   2.723   5.682 -0.1555  0.6852  0.2434
  102OSM   H12S10246   1.271   2.615   5.697  0.2632  0.8409  0.7971
  102OSM   H12T10247   1.308   2.758   5.593  0.9996 -1.0070  0.2780
  102OSM   C13S10248   1.098   2.735   5.640 -0.2728  0.2457  0.0823
  102OSM   H13S10249   1.072   2.842   5.623 -2.6883 -0.3927 -0.5652
  102OSM   H13T10250   1.022   2.698   5.711 -0.0362  0.2100  0.3191
  102OSM   C14S10251   1.077   2.654   5.512 -0.4005 -0.0309  0.2152
  102OSM   H14S10252   1.093   2.544   5.518  0.5209  0.0017 -1.2265
  102OSM   H14T10253   1.146   2.696   5.435 -1.4523 -0.2332 -0.8787
  102OSM   C15S10254   0.938   2.674   5.453  0.2993 -0.1628 -0.1853
  102OSM   H15S10255   0.906   2.780   5.451  0.3250 -0.1643 -1.5321
  102OSM   H15T10256   0.874   2.609   5.517  3.8924 -1.2699  2.5713
  102OSM   C16S10257   0.917   2.606   5.317 -1.0747 -0.0188  0.0028
  102OSM   H16S10258   0.935   2.498   5.337  2.9917  0.6661  0.8901
  102OSM   H16T10259   1.005   2.638   5.259  0.6757  1.2411  3.1043
  102OSM   C17S10260   0.785   2.628   5.232  0.0654 -0.5337 -0.9875
  102OSM   H17S10261   0.705   2.593   5.300 -0.3021 -0.9097 -1.6082
  102OSM   H17T10262   0.786   2.556   5.148 -2.1481  0.2100 -1.7228
  102OSM   C18S10263   0.757   2.762   5.168  0.1726 -0.2496 -0.4792
  102OSM   H18S10264   0.734   2.840   5.244 -0.5416 -0.2553 -0.6897
  102OSM   H18T10265   0.673   2.762   5.095  0.7560  0.9099 -1.1833
  102OSM   H18U10266   0.849   2.799   5.118 -0.3273  1.2356 -0.3399
  102OSM    C1F10267   1.675   3.084   6.360  0.1353 -0.1942  0.1612
  102OSM     OF10268   1.743   3.000   6.416 -0.0560  0.4901 -0.1996
  102OSM    C2F10269   1.689   3.109   6.213  0.0309 -0.4104  0.6653
  102OSM    H2F10270   1.780   3.172   6.198  0.9555 -1.6069  1.0685
  102OSM    H2G10271   1.597   3.156   6.173  0.0988 -0.4604  0.4506
  102OSM    C3F10272   1.711   2.991   6.121  0.0438  0.7072  0.0369
  102OSM    H3F10273   1.648   2.904   6.149 -0.3776  0.5071 -1.4641
  102OSM    H3G10274   1.820   2.967   6.112  0.3900  2.7314 -2.3680
  102OSM    C4F10275   1.674   3.048   5.981  0.6308  0.6964  0.0637
  102OSM    H4F10276   1.731   3.143   5.975  1.9240 -0.0222  0.4350
  102OSM    H4G10277   1.566   3.073   5.976  0.0411 -1.3475  1.3569
  102OSM    C5F10278   1.697   2.939   5.874  0.6752  0.2583 -0.4571
  102OSM    H5F10279   1.653   2.841   5.900 -1.2556  0.8387 -1.3408
  102OSM    H5G10280   1.808   2.935   5.870  0.7780  1.8664 -0.1364
  102OSM    C6F10281   1.646   2.979   5.740 -0.5397 -1.0668  0.1968
  102OSM    H6F10282   1.717   3.054   5.697 -0.9838 -0.9362 -0.3165
  102OSM    H6G10283   1.542   3.017   5.745 -0.6019 -1.1768 -0.2743
  102OSM    C7F10284   1.665   2.863   5.638  0.0739 -0.3593  0.2342
  102OSM    H7F10285   1.626   2.768   5.679  0.7751 -1.3497 -1.2764
  102OSM    H7G10286   1.774   2.856   5.616 -0.1832  0.4216 -1.5133
  102OSM    C8F10287   1.585   2.883   5.505  0.1882 -0.1926 -0.1582
  102OSM    H8F10288   1.617   2.979   5.459  1.1717 -0.5490 -0.2505
  102OSM    H8G10289   1.478   2.895   5.533 -0.1536 -3.4352  0.3993
  102OSM    C9F10290   1.608   2.774   5.410  0.2164 -0.2944  0.5843
  102OSM    H9F10291   1.609   2.679   5.465  1.9072  0.9040  2.7303
  102OSM   C10F10292   1.649   2.772   5.278  0.7810  0.0992 -0.1938
  102OSM   H10F10293   1.669   2.682   5.218  1.2028  0.1350 -0.1099
  102OSM   C11F10294   1.671   2.899   5.196  0.3027 -0.6850  0.5909
  102OSM   H11F10295   1.608   2.985   5.228  1.2321 -0.2174  1.2023
  102OSM   H11G10296   1.646   2.888   5.088 -2.0872  0.2084  0.9924
  102OSM   C12F10297   1.822   2.940   5.203  0.3231 -0.0388  0.2192
  102OSM   H12F10298   1.896   2.862   5.179 -0.5982 -0.5433 -1.0744
  102OSM   H12G10299   1.843   2.965   5.309 -0.2520  0.6539  0.1777
  102OSM   C13F10300   1.863   3.061   5.116  0.2146  0.2366 -0.2606
  102OSM   H13F10301   1.959   3.094   5.162  0.4919 -2.7491  1.5475
  102OSM   H13G10302   1.788   3.142   5.125 -1.0021 -0.8949  0.0742
  102OSM   C14F10303   1.883   3.012   4.970 -0.4987  0.3960 -0.2539
  102OSM   H14F10304   1.781   2.999   4.928 -1.3886  1.4720  1.4887
  102OSM   H14G10305   1.933   2.914   4.957 -1.8739 -0.3856  0.0881
  102OSM   C15F10306   1.977   3.111   4.895 -0.3211  0.3287 -0.1050
  102OSM   H15F10307   2.059   3.135   4.966  0.8345 -1.4600 -0.7905
  102OSM   H15G10308   1.906   3.191   4.864 -0.6968  0.2845  0.6204
  102OSM   C16F10309   2.039   3.059   4.764 -0.3248  0.2875 -0.9274
  102OSM   H16F10310   2.084   3.143   4.708  3.0469 -0.5221  0.3292
  102OSM   H16G10311   1.962   3.006   4.702  0.0254 -0.5238 -0.6881
  102OSM   C17F10312   2.158   2.971   4.790 -0.5094 -0.0361  0.0729
  102OSM   H17F10313   2.135   2.900   4.872 -1.7515 -0.6007 -0.7450
  102OSM   H17G10314   2.239   3.036   4.831  1.4471 -0.7512 -2.4369
  102OSM   C18F10315   2.204   2.887   4.671 -0.4776 -0.3475  0.2644
  102OSM   H18F10316   2.225   2.945   4.579  1.9401  0.1055  1.0445
  102OSM   H18G10317   2.131   2.810   4.638 -1.2050 -0.7627  2.6552
  102OSM   H18H10318   2.289   2.826   4.708 -1.8009 -1.2272  2.0727
  103OSM      N10319   1.457   5.082   7.405  0.1155  0.8131  0.1518
  103OSM    C1510320   1.339   4.990   7.432 -0.6482 -0.0191 -0.1355
  103OSM   H15A10321   1.251   5.051   7.418 -0.4719  1.0701  2.8625
  103OSM   H15B10322   1.343   4.937   7.526 -3.2120  0.2244  0.1649
  103OSM   H15C10323   1.342   4.915   7.354 -2.4186  0.2212 -0.4736
  103OSM    C1410324   1.441   5.205   7.488 -0.0004  0.4053 -0.3651
  103OSM   H14A10325   1.338   5.238   7.481 -0.6701 -1.7208 -1.1962
  103OSM   H14B10326   1.503   5.283   7.447  0.5583  0.6742  0.9362
  103OSM   H14C10327   1.450   5.179   7.593 -0.7555 -1.4668 -0.7283
  103OSM    C1310328   1.579   5.008   7.429  0.3496  0.0094  0.2615
  103OSM   H13A10329   1.661   5.076   7.449  0.6135 -0.4448  0.7741
  103OSM   H13B10330   1.597   4.937   7.349 -1.6958 -3.2582  2.4694
  103OSM   H13C10331   1.571   4.954   7.522  0.5855 -1.6802 -0.6553
  103OSM    C1210332   1.458   5.120   7.257  0.2197 -0.0206  0.2492
  103OSM   H12A10333   1.537   5.191   7.239 -0.7227  1.4753  1.6674
  103OSM   H12B10334   1.367   5.168   7.224  1.0857  2.1992  0.8908
  103OSM    C1110335   1.478   4.999   7.156 -0.2533  0.4693  0.6274
  103OSM   H11A10336   1.575   4.948   7.176  1.2050  1.4030 -3.2624
  103OSM   H11B10337   1.493   5.046   7.056  1.6907 -0.9237  0.2225
  103OSM      P10338   1.248   4.933   7.052  0.2373  0.2001 -0.3970
  103OSM    O1310339   1.162   4.815   7.066  0.3102 -0.1339  0.1546
  103OSM    O1410340   1.181   5.054   7.103  0.1071  0.2230  0.2923
  103OSM    O1110341   1.299   4.952   6.900 -0.2116  0.0563  0.1560
  103OSM    O1210342   1.374   4.900   7.145 -0.5162 -0.0270 -0.1709
  103OSM    C1S10343   1.410   4.873   6.851 -0.1858  0.0878 -0.1101
  103OSM    H1S10344   1.398   4.767   6.882  0.4369  0.0126 -0.1087
  103OSM    H1T10345   1.508   4.916   6.880 -0.6599  1.4687 -0.4587
  103OSM     NF10346   1.499   4.767   6.638 -0.2547 -0.5427 -0.8143
  103OSM    HNF10347   1.570   4.800   6.576  1.3766 -0.9089  0.7565
  103OSM    C2S10348   1.414   4.871   6.691 -0.4472 -0.2928 -0.0973
  103OSM    H2S10349   1.311   4.854   6.653 -1.0505 -0.1271  1.4079
  103OSM    C3S10350   1.458   5.009   6.638  0.6239  0.2416 -0.6637
  103OSM    H3S10351   1.557   5.025   6.684  0.9806  1.1811 -1.7142
  103OSM     O310352   1.372   5.121   6.669 -0.4416 -0.0568 -0.2468
  103OSM    HO310353   1.333   5.104   6.755  3.2500  1.0479  1.8573
  103OSM    C4S10354   1.474   5.001   6.491  0.9906 -0.0746 -0.2227
  103OSM    H4S10355   1.568   4.948   6.471  2.2455  2.0137 -0.0482
  103OSM    C5S10356   1.399   5.052   6.384 -0.7575  0.0624 -0.2327
  103OSM    H5S10357   1.322   5.130   6.395 -0.6468  0.2816 -0.9320
  103OSM    C6S10358   1.428   5.045   6.235 -0.8232 -0.5320 -0.9056
  103OSM    H6S10359   1.428   5.153   6.208  0.5870  0.0705  1.2900
  103OSM    H6T10360   1.346   4.993   6.182 -1.3999 -0.5430 -0.0182
  103OSM    C7S10361   1.566   4.999   6.195 -0.5707  0.7361  0.8541
  103OSM    H7S10362   1.645   5.052   6.252 -0.6146  1.6032  0.1174
  103OSM    H7T10363   1.573   5.020   6.086 -1.0912 -1.7504  0.2611
  103OSM    C8S10364   1.575   4.846   6.198  0.4369  0.5751 -0.1165
  103OSM    H8S10365   1.572   4.802   6.300  0.5838  1.0822  0.1091
  103OSM    H8T10366   1.675   4.824   6.153  0.6591 -0.9177  0.9985
  103OSM    C9S10367   1.488   4.764   6.099  0.3524  0.4302  0.0066
  103OSM    H9S10368   1.378   4.779   6.112  0.2033 -1.4055  1.2116
  103OSM    H9T10369   1.486   4.661   6.139  1.4767  0.2501 -0.3752
  103OSM   C10S10370   1.525   4.759   5.951 -0.0293 -0.3068 -0.0223
  103OSM   H10S10371   1.629   4.726   5.932 -0.0031 -0.2034 -0.0592
  103OSM   H10T10372   1.516   4.860   5.905  1.3510 -0.6204 -1.0323
  103OSM   C11S10373   1.430   4.678   5.865  0.3453 -0.4141  0.3314
  103OSM   H11S10374   1.327   4.707   5.894  0.6318  0.1739  0.8055
  103OSM   H11T10375   1.451   4.571   5.886  1.6687  0.0407  1.5339
  103OSM   C12S10376   1.451   4.707   5.716 -0.3943 -0.0226 -0.2879
  103OSM   H12S10377   1.556   4.714   5.678 -0.1589 -1.5655  0.0398
  103OSM   H12T10378   1.399   4.804   5.700 -3.9278 -1.7735 -0.4436
  103OSM   C13S10379   1.391   4.600   5.629 -0.5735 -1.2690 -0.5962
  103OSM   H13S10380   1.288   4.581   5.666 -0.1634  0.1465  1.4607
  103OSM   H13T10381   1.451   4.507   5.641 -0.5795 -1.0778  1.3026
  103OSM   C14S10382   1.383   4.642   5.482 -0.1263 -0.1713 -0.5754
  103OSM   H14S10383   1.488   4.644   5.447 -0.3147 -2.2682 -1.4144
  103OSM   H14T10384   1.335   4.742   5.483  1.5461  0.7362  2.8963
  103OSM   C15S10385   1.299   4.560   5.389  1.4644 -0.9260  0.0027
  103OSM   H15S10386   1.198   4.553   5.434  1.0704  1.4745 -0.3615
  103OSM   H15T10387   1.337   4.457   5.377 -0.3425 -1.6217 -0.0824
  103OSM   C16S10388   1.283   4.636   5.250  0.1733 -0.0625 -0.0886
  103OSM   H16S10389   1.383   4.681   5.232 -0.1550 -0.0135 -1.9142
  103OSM   H16T10390   1.209   4.718   5.266 -1.1117 -1.0687 -0.6749
  103OSM   C17S10391   1.248   4.532   5.140  0.4280  0.3403 -0.3737
  103OSM   H17S10392   1.166   4.465   5.174 -0.9994  2.0816 -0.2393
  103OSM   H17T10393   1.331   4.465   5.109 -1.2346 -1.7351 -0.5462
  103OSM   C18S10394   1.186   4.589   5.021  0.2494 -0.4865  0.7757
  103OSM   H18S10395   1.265   4.656   4.982  0.8500 -1.4365  0.3308
  103OSM   H18T10396   1.097   4.653   5.038  0.5415 -0.8013  4.2124
  103OSM   H18U10397   1.176   4.513   4.940  0.5817 -1.2600  1.4418
  103OSM    C1F10398   1.474   4.634   6.660  0.2652 -0.0175 -0.1183
  103OSM     OF10399   1.373   4.593   6.719  0.4202 -0.6359 -0.4156
  103OSM    C2F10400   1.576   4.545   6.602  0.0941  0.7126  0.5724
  103OSM    H2F10401   1.658   4.517   6.672  1.7545 -0.0819 -1.5598
  103OSM    H2G10402   1.631   4.602   6.524  0.7067 -1.0465 -0.3366
  103OSM    C3F10403   1.519   4.408   6.530 -0.8722 -0.0139  0.1202
  103OSM    H3F10404   1.479   4.331   6.599 -0.8125 -0.9273 -0.8507
  103OSM    H3G10405   1.601   4.352   6.480 -0.3125  2.3561 -1.7822
  103OSM    C4F10406   1.418   4.436   6.417  0.4078  0.1056 -0.5356
  103OSM    H4F10407   1.463   4.497   6.335  0.2327 -0.7608 -1.2948
  103OSM    H4G10408   1.339   4.498   6.464  0.9687  1.1106 -0.8883
  103OSM    C5F10409   1.340   4.311   6.348 -0.0114 -0.0195 -0.0684
  103OSM    H5F10410   1.280   4.269   6.432  0.9400  0.7655  1.0434
  103OSM    H5G10411   1.414   4.232   6.321  1.0826  1.2964 -1.1069
  103OSM    C6F10412   1.247   4.348   6.235  0.1147 -0.1197  0.7191
  103OSM    H6F10413   1.183   4.436   6.256  2.0402  1.6797 -0.6235
  103OSM    H6G10414   1.185   4.259   6.209  0.0617  0.4056 -1.0420
  103OSM    C7F10415   1.315   4.386   6.101  0.1637 -0.0209 -0.2507
  103OSM    H7F10416   1.401   4.318   6.081 -0.6302 -1.3373  0.6371
  103OSM    H7G10417   1.356   4.489   6.106 -1.7060  0.7261  0.7221
  103OSM    C8F10418   1.218   4.397   5.981 -0.4040 -0.5043 -0.0998
  103OSM    H8F10419   1.274   4.439   5.895  1.4550 -1.0259  0.7883
  103OSM    H8G10420   1.137   4.468   6.007  0.3792 -0.1561  1.5541
  103OSM    C9F10421   1.148   4.265   5.945 -0.5037  0.0934 -0.6745
  103OSM    H9F10422   1.126   4.201   6.032  0.5696  1.7303  0.8849
  103OSM   C10F10423   1.114   4.225   5.820  0.2021 -0.0048  0.7396
  103OSM   H10F10424   1.063   4.128   5.810  1.0709 -0.5992  1.7946
  103OSM   C11F10425   1.130   4.294   5.686 -0.1132 -0.0642  0.1280
  103OSM   H11F10426   1.213   4.368   5.685  0.9686 -1.1033  2.9634
  103OSM   H11G10427   1.039   4.352   5.662  0.5693  1.0321  0.1302
  103OSM   C12F10428   1.164   4.210   5.563 -0.3864 -0.3531  0.0159
  103OSM   H12F10429   1.251   4.143   5.580  0.0715 -0.2246 -1.5960
  103OSM   H12G10430   1.194   4.286   5.488 -1.4784  2.9882  2.7245
  103OSM   C13F10431   1.049   4.123   5.506 -1.0315 -0.8682  0.4024
  103OSM   H13F10432   0.963   4.191   5.486 -1.0625 -0.9235  0.3447
  103OSM   H13G10433   1.019   4.066   5.597 -1.3530 -0.4550  0.5599
  103OSM   C14F10434   1.086   4.021   5.394 -0.1151 -0.1254 -0.3029
  103OSM   H14F10435   1.175   3.963   5.427  1.2339  1.4977 -0.9223
  103OSM   H14G10436   1.115   4.081   5.306 -2.4566 -1.6840 -2.2468
  103OSM   C15F10437   0.970   3.920   5.358  0.2354 -0.0489  0.2541
  103OSM   H15F10438   0.993   3.891   5.253  0.8210  0.6723  0.1752
  103OSM   H15G10439   0.885   3.991   5.362  0.3250  0.1587 -1.0316
  103OSM   C16F10440   0.971   3.798   5.447 -0.3440  0.3694 -0.7498
  103OSM   H16F10441   0.924   3.844   5.537 -0.5123 -2.7867  0.9318
  103OSM   H16G10442   1.075   3.766   5.472 -0.6421  0.5460  0.8014
  103OSM   C17F10443   0.898   3.671   5.396 -0.0718  0.4259 -0.2171
  103OSM   H17F10444   0.916   3.676   5.286  1.4809  2.2413  0.0689
  103OSM   H17G10445   0.794   3.696   5.424  0.2047  1.4965 -0.0931
  103OSM   C18F10446   0.945   3.544   5.463  1.5502  0.2013 -0.0088
  103OSM   H18F10447   0.905   3.452   5.416  1.8242 -0.3164  0.7587
  103OSM   H18G10448   0.900   3.550   5.564  1.5846  0.9349 -0.0335
  103OSM   H18H10449   1.056   3.540   5.464  1.5342 -0.6199 -0.4561
  104OSM      N10450   1.347   5.914   7.276  0.0021  0.2972  0.5317
  104OSM    C1510451   1.379   5.986   7.409 -0.0825  0.2717  0.5177
  104OSM   H15A10452   1.366   5.915   7.489  1.2053  1.7743  2.1527
  104OSM   H15B10453   1.316   6.074   7.413  0.8456  1.0544 -1.0720
  104OSM   H15C10454   1.483   6.011   7.424  0.5780 -2.6297  1.4188
  104OSM    C1410455   1.212   5.851   7.278  0.0699 -0.2862 -0.2968
  104OSM   H14A10456   1.180   5.820   7.179 -0.1053 -2.0896  0.2887
  104OSM   H14B10457   1.132   5.913   7.315  0.1656 -0.4921  0.2689
  104OSM   H14C10458   1.222   5.763   7.340  2.8453  1.8093  2.4995
  104OSM    C1310459   1.361   6.014   7.174  0.0590 -0.0978  0.2977
  104OSM   H13A10460   1.344   5.988   7.071  1.2694  0.1934  0.0102
  104OSM   H13B10461   1.458   6.061   7.181  0.0638  0.0295 -0.5280
  104OSM   H13C10462   1.290   6.092   7.197 -0.0328 -0.4545  1.2414
  104OSM    C1210463   1.450   5.810   7.254 -0.6266  0.2210 -0.2781
  104OSM   H12A10464   1.457   5.755   7.346  1.6514 -2.6022 -1.9451
  104OSM   H12B10465   1.552   5.847   7.248 -0.3530 -0.7157 -2.1772
  104OSM    C1110466   1.449   5.703   7.141 -0.1997 -0.1186  0.8039
  104OSM   H11A10467   1.546   5.649   7.139 -0.6645 -0.9547  0.2234
  104OSM   H11B10468   1.442   5.757   7.044  3.3464 -1.6402 -0.4396
  104OSM      P10469   1.371   5.484   7.254  0.4141 -0.2333 -0.1206
  104OSM    O1310470   1.488   5.506   7.338 -0.2731  0.6088 -0.0575
  104OSM    O1410471   1.254   5.442   7.325  0.3173 -0.4137 -0.1094
  104OSM    O1110472   1.414   5.377   7.145 -0.1019  0.5435 -0.4927
  104OSM    O1210473   1.344   5.611   7.166 -0.3286  0.3362  0.3178
  104OSM    C1S10474   1.336   5.356   7.023  0.3880  0.1177 -0.7878
  104OSM    H1S10475   1.235   5.400   7.027 -0.1548 -0.9467 -1.9652
  104OSM    H1T10476   1.322   5.247   7.003 -0.9587 -0.1287  1.2696
  104OSM     NF10477   1.325   5.395   6.784 -0.5248 -0.0235  0.4836
  104OSM    HNF10478   1.357   5.320   6.727 -1.1274  0.1440 -0.0916
  104OSM    C2S10479   1.414   5.403   6.900  0.3410 -0.1529  0.0944
  104OSM    H2S10480   1.436   5.511   6.912  0.4338 -0.0757 -0.6782
  104OSM    C3S10481   1.542   5.323   6.888  0.2772 -0.3730 -0.8388
  104OSM    H3S10482   1.512   5.217   6.877  1.1803 -0.6322 -0.9416
  104OSM     O310483   1.628   5.341   7.000  0.0205 -0.4884 -0.0139
  104OSM    HO310484   1.573   5.378   7.070 -0.8908 -0.2332 -0.8510
  104OSM    C4S10485   1.616   5.376   6.770 -0.0047 -0.2895 -0.1369
  104OSM    H4S10486   1.655   5.475   6.799 -0.0582 -0.3151  0.0263
  104OSM    C5S10487   1.639   5.331   6.647  0.3342 -1.2330  0.7163
  104OSM    H5S10488   1.595   5.234   6.619 -0.8773 -0.4415 -0.2344
  104OSM    C6S10489   1.713   5.400   6.537  0.1602  0.1935 -0.1429
  104OSM    H6S10490   1.820   5.374   6.549 -0.0471 -0.6545 -0.0682
  104OSM    H6T10491   1.696   5.509   6.530 -1.3971 -0.1243 -2.4506
  104OSM    C7S10492   1.679   5.332   6.400 -0.2073  0.6844 -0.0660
  104OSM    H7S10493   1.570   5.326   6.378 -0.5268  2.2638  0.8954
  104OSM    H7T10494   1.702   5.224   6.409 -2.3379  0.2007  0.1818
  104OSM    C8S10495   1.737   5.397   6.278  0.4425 -0.0281 -0.2692
  104OSM    H8S10496   1.844   5.418   6.301 -0.2993  2.3527  1.3939
  104OSM    H8T10497   1.700   5.502   6.278 -0.0595 -0.1825 -1.2783
  104OSM    C9S10498   1.714   5.334   6.141 -0.0952 -0.0143  0.1387
  104OSM    H9S10499   1.612   5.327   6.098  0.0347 -1.4514  0.0195
  104OSM    H9T10500   1.740   5.226   6.152 -0.4360 -0.2727 -1.3710
  104OSM   C10S10501   1.808   5.399   6.041  0.2903 -0.2604 -0.2582
  104OSM   H10S10502   1.898   5.422   6.102 -0.1307  0.0783  0.2396
  104OSM   H10T10503   1.770   5.502   6.027  0.1180 -0.3662 -0.5765
  104OSM   C11S10504   1.818   5.320   5.907  0.5371  0.2688  0.8603
  104OSM   H11S10505   1.860   5.217   5.915  2.1365  0.7382 -0.7531
  104OSM   H11T10506   1.889   5.372   5.839 -0.5797  1.9371  0.9069
  104OSM   C12S10507   1.696   5.316   5.817 -0.4465  0.1845 -0.4519
  104OSM   H12S10508   1.649   5.413   5.789  1.4199  0.6597 -2.1515
  104OSM   H12T10509   1.615   5.256   5.865  0.4880  0.4828  1.6358
  104OSM   C13S10510   1.720   5.241   5.680 -0.2657  0.6905  0.6045
  104OSM   H13S10511   1.796   5.302   5.627  0.8677 -0.7703  0.4821
  104OSM   H13T10512   1.628   5.251   5.619  0.2445  0.9200 -0.1387
  104OSM   C14S10513   1.763   5.094   5.694 -0.1982 -0.3079  0.6240
  104OSM   H14S10514   1.676   5.040   5.736 -1.5629 -0.1110 -1.8164
  104OSM   H14T10515   1.855   5.078   5.754  0.5758 -1.2446 -0.7574
  104OSM   C15S10516   1.803   5.031   5.562  0.3049  0.4656  0.4608
  104OSM   H15S10517   1.836   4.929   5.593 -1.3157  0.5242  2.6276
  104OSM   H15T10518   1.885   5.092   5.518 -0.6351  1.5280  0.1663
  104OSM   C16S10519   1.685   5.024   5.462 -0.5627 -0.5833  0.3133
  104OSM   H16S10520   1.666   5.122   5.414  0.2622 -1.0348 -0.9840
  104OSM   H16T10521   1.601   4.975   5.516  1.3774 -3.7563  0.6833
  104OSM   C17S10522   1.702   4.922   5.348 -0.3954 -0.1850 -0.3562
  104OSM   H17S10523   1.710   4.815   5.376  0.7559 -0.1582 -0.5043
  104OSM   H17T10524   1.804   4.943   5.307 -0.1294 -0.5004  0.1348
  104OSM   C18S10525   1.602   4.927   5.234  0.4447 -0.5891 -0.0465
  104OSM   H18S10526   1.625   4.845   5.162 -0.3939 -0.0231 -0.9992
  104OSM   H18T10527   1.610   5.027   5.186 -1.4584 -0.1880  0.3965
  104OSM   H18U10528   1.497   4.922   5.271  0.9295  1.0795  1.7207
  104OSM    C1F10529   1.208   5.451   6.756 -0.2511 -0.3407 -0.3311
  104OSM     OF10530   1.162   5.528   6.838  0.1547 -0.0383  0.0622
  104OSM    C2F10531   1.140   5.413   6.631 -0.0037 -0.6476 -0.6105
  104OSM    H2F10532   1.037   5.454   6.625  0.4891  0.6546 -0.5120
  104OSM    H2G10533   1.136   5.302   6.626  1.6197 -0.7577 -0.0704
  104OSM    C3F10534   1.204   5.478   6.513 -0.8613  0.8543 -0.2363
  104OSM    H3F10535   1.315   5.473   6.511 -0.8748 -0.5669  0.9780
  104OSM    H3G10536   1.177   5.585   6.498 -0.2351  0.6269 -4.0914
  104OSM    C4F10537   1.160   5.407   6.388  0.2812  0.4020 -0.1007
  104OSM    H4F10538   1.048   5.407   6.383  0.1538 -2.7098  0.7296
  104OSM    H4G10539   1.180   5.299   6.403  0.0629  0.3753 -0.0004
  104OSM    C5F10540   1.219   5.459   6.257  0.1113 -0.3507 -0.0394
  104OSM    H5F10541   1.328   5.460   6.279 -0.3145  1.2033  2.3860
  104OSM    H5G10542   1.197   5.566   6.243  4.3922  0.8109  0.5396
  104OSM    C6F10543   1.172   5.390   6.128  0.7908  0.0435  0.4721
  104OSM    H6F10544   1.062   5.408   6.123  0.7111 -0.6510 -0.5634
  104OSM    H6G10545   1.174   5.279   6.132 -1.8925 -0.1928 -1.6689
  104OSM    C7F10546   1.241   5.443   6.005  0.0426  0.5186  0.6578
  104OSM    H7F10547   1.344   5.474   6.033  0.5437  0.5273 -1.1058
  104OSM    H7G10548   1.189   5.539   5.983  0.5929  0.7695  0.4100
  104OSM    C8F10549   1.233   5.342   5.883 -1.1534  0.2680  0.3698
  104OSM    H8F10550   1.265   5.411   5.802 -1.3993 -0.2354 -0.1666
  104OSM    H8G10551   1.125   5.316   5.877 -1.3925  0.5416  2.7900
  104OSM    C9F10552   1.325   5.220   5.885 -0.5171 -0.3583  0.5974
  104OSM    H9F10553   1.402   5.213   5.963  1.6893 -0.6189 -1.4837
  104OSM   C10F10554   1.339   5.138   5.782 -1.5046 -0.0597  0.6485
  104OSM   H10F10555   1.409   5.054   5.799 -1.7025 -0.1789  0.8886
  104OSM   C11F10556   1.260   5.129   5.655 -0.2068 -1.0514  0.1739
  104OSM   H11F10557   1.162   5.181   5.659 -1.2321 -2.3982 -3.6391
  104OSM   H11G10558   1.238   5.022   5.639 -1.8176 -0.9003  1.1380
  104OSM   C12F10559   1.350   5.185   5.542  0.3509 -0.7195 -0.0320
  104OSM   H12F10560   1.446   5.129   5.539  2.7322  2.9637  1.1901
  104OSM   H12G10561   1.387   5.286   5.569  0.7720 -0.6015 -0.9806
  104OSM   C13F10562   1.278   5.180   5.406  0.5269  0.0479  0.5670
  104OSM   H13F10563   1.351   5.231   5.339 -0.9216  1.0773 -0.2950
  104OSM   H13G10564   1.189   5.245   5.414 -0.5530 -1.5037  1.5468
  104OSM   C14F10565   1.246   5.039   5.355 -0.1288  0.5836 -0.5189
  104OSM   H14F10566   1.151   4.999   5.395 -1.8576 -0.1399 -4.7566
  104OSM   H14G10567   1.331   4.974   5.385 -0.5500 -0.0137 -0.6135
  104OSM   C15F10568   1.223   5.019   5.205 -0.0816  0.4528 -0.0823
  104OSM   H15F10569   1.254   4.916   5.176 -2.5030 -0.4099  0.1395
  104OSM   H15G10570   1.284   5.096   5.153  0.2718  1.9789  2.4160
  104OSM   C16F10571   1.080   5.052   5.175 -0.2951 -0.2200  0.2419
  104OSM   H16F10572   1.060   5.160   5.192  1.4155  0.8889 -3.6440
  104OSM   H16G10573   1.006   4.987   5.227 -1.8160 -0.0958 -1.6555
  104OSM   C17F10574   1.037   5.023   5.032  0.4485 -0.0105 -0.4658
  104OSM   H17F10575   1.052   4.915   5.008 -1.4160 -0.2494 -0.7725
  104OSM   H17G10576   1.100   5.082   4.962 -0.2940  0.6445 -0.5906
  104OSM   C18F10577   0.893   5.050   4.992  1.0991 -0.6096 -0.2259
  104OSM   H18F10578   0.861   4.985   4.907 -1.7539 -0.7138  0.8354
  104OSM   H18G10579   0.877   5.155   4.961  0.4846 -0.5968  0.1140
  104OSM   H18H10580   0.828   5.026   5.079  0.7788  3.3652  0.8007
  105OSM      N10581   3.089   3.465   7.401 -0.1457 -0.2898  0.1191
  105OSM    C1510582   3.129   3.601   7.465 -0.8065  0.1623 -0.2475
  105OSM   H15A10583   3.207   3.649   7.407  0.5571  1.7711  2.7303
  105OSM   H15B10584   3.184   3.587   7.556 -0.1107  0.9603 -0.5404
  105OSM   H15C10585   3.050   3.671   7.489  0.9852  1.6954  1.5316
  105OSM    C1410586   3.214   3.381   7.405  0.2528  0.4609 -0.3123
  105OSM   H14A10587   3.287   3.433   7.344 -0.4759  2.5238  0.5040
  105OSM   H14B10588   3.199   3.280   7.371  0.6492  0.1964  0.2686
  105OSM   H14C10589   3.266   3.367   7.499 -0.3104 -2.7915 -0.3755
  105OSM    C1310590   2.977   3.409   7.485 -0.1337  0.5175 -0.4123
  105OSM   H13A10591   2.899   3.483   7.493  0.0891  0.6671  0.4453
  105OSM   H13B10592   3.022   3.392   7.581  1.8088 -2.3306 -1.6929
  105OSM   H13C10593   2.941   3.314   7.448  1.6046 -1.3203  2.2385
  105OSM    C1210594   3.040   3.494   7.260 -0.2544 -0.0374 -0.3134
  105OSM   H12A10595   2.959   3.565   7.256  0.8096  1.1346 -1.8839
  105OSM   H12B10596   2.993   3.403   7.224 -0.0756 -0.3827  0.3235
  105OSM    C1110597   3.148   3.525   7.149  0.5242 -0.1053 -0.9698
  105OSM   H11A10598   3.205   3.613   7.185  0.1242 -0.6745  1.2246
  105OSM   H11B10599   3.101   3.549   7.052 -1.2068 -0.9018 -0.3686
  105OSM      P10600   3.194   3.281   7.075 -0.2452  0.2547  0.0432
  105OSM    O1310601   3.314   3.196   7.079  0.6535 -0.2211  0.4383
  105OSM    O1410602   3.074   3.236   7.142  0.6046  0.0836 -0.6315
  105OSM    O1110603   3.161   3.310   6.917  0.4047  0.5485 -0.1260
  105OSM    O1210604   3.238   3.417   7.139  0.7001 -0.4971  0.1246
  105OSM    C1S10605   3.260   3.387   6.850  0.4024 -0.3422 -0.5332
  105OSM    H1S10606   3.357   3.333   6.860  1.2331  1.3166  0.8551
  105OSM    H1T10607   3.262   3.492   6.884 -1.1641 -0.1711 -0.9015
  105OSM     NF10608   3.364   3.444   6.633  0.1193  0.1946  0.0867
  105OSM    HNF10609   3.358   3.536   6.592  2.4834  1.7011  2.8100
  105OSM    C2S10610   3.238   3.389   6.696 -0.3236  0.1437 -0.1805
  105OSM    H2S10611   3.219   3.284   6.667  0.6963  0.1367 -0.8774
  105OSM    C3S10612   3.113   3.462   6.663  0.5957  0.6990  0.5161
  105OSM    H3S10613   3.113   3.570   6.688  1.7315  0.8377 -0.0360
  105OSM     O310614   2.989   3.419   6.729  0.1940  0.2232 -0.4089
  105OSM    HO310615   3.025   3.360   6.796  0.1297 -0.3038 -0.8342
  105OSM    C4S10616   3.088   3.455   6.512 -0.0423  0.1918  0.3709
  105OSM    H4S10617   3.122   3.546   6.460  0.8534 -0.8390 -0.9255
  105OSM    C5S10618   3.025   3.357   6.444 -0.3325  0.9667 -0.2344
  105OSM    H5S10619   2.992   3.267   6.498  0.3383  1.1522  0.4970
  105OSM    C6S10620   3.002   3.360   6.294  0.3056 -0.3601  0.1030
  105OSM    H6S10621   2.935   3.444   6.265  3.0403  2.1478  0.6304
  105OSM    H6T10622   2.956   3.260   6.281  0.5303 -0.5534  0.7676
  105OSM    C7S10623   3.136   3.373   6.211 -0.0288  0.3854 -0.1449
  105OSM    H7S10624   3.192   3.277   6.212  2.0576  1.5299 -0.7322
  105OSM    H7T10625   3.201   3.446   6.263  1.4330 -1.0069  0.0562
  105OSM    C8S10626   3.111   3.406   6.065  0.6146  0.3278  0.4543
  105OSM    H8S10627   3.198   3.437   6.004  0.2316  0.0924 -0.2168
  105OSM    H8T10628   3.035   3.487   6.057 -0.7326 -0.8423  0.9647
  105OSM    C9S10629   3.040   3.293   5.987  0.3581  0.8612 -0.1101
  105OSM    H9S10630   2.957   3.258   6.052  1.4995  1.1089  1.5703
  105OSM    H9T10631   3.112   3.210   5.970  0.7625  1.4521 -1.4376
  105OSM   C10S10632   2.981   3.335   5.853  0.4268  0.0819  0.5560
  105OSM   H10S10633   2.901   3.405   5.887  1.7607  2.0379 -0.1653
  105OSM   H10T10634   2.937   3.245   5.805  0.3942  0.0283  0.6854
  105OSM   C11S10635   3.078   3.412   5.760  0.0648 -0.3834 -0.2825
  105OSM   H11S10636   3.153   3.332   5.742  1.0719  0.7231 -1.1492
  105OSM   H11T10637   3.125   3.500   5.808 -0.0619 -1.3204  1.6599
  105OSM   C12S10638   3.006   3.461   5.634  0.5751 -0.0618 -0.1274
  105OSM   H12S10639   3.071   3.533   5.580 -0.2894 -0.6412 -1.9986
  105OSM   H12T10640   2.918   3.523   5.664 -0.0382 -1.1491  0.3651
  105OSM   C13S10641   2.958   3.345   5.545 -0.4067 -0.3388 -0.4701
  105OSM   H13S10642   2.898   3.280   5.612 -1.9605  1.4039 -0.0597
  105OSM   H13T10643   3.047   3.301   5.497  1.0366  0.6987  1.1384
  105OSM   C14S10644   2.863   3.390   5.435 -0.4907 -0.7281  0.4699
  105OSM   H14S10645   2.802   3.476   5.469 -0.1261 -0.3453  0.1725
  105OSM   H14T10646   2.790   3.307   5.418  0.4762 -1.1093 -2.2432
  105OSM   C15S10647   2.945   3.412   5.308 -0.5339  0.1133  0.3893
  105OSM   H15S10648   2.978   3.317   5.261  0.6524  0.4530  0.4879
  105OSM   H15T10649   3.029   3.477   5.342 -2.0946  0.9757  2.8445
  105OSM   C16S10650   2.865   3.489   5.205 -0.1858 -0.3235 -0.3747
  105OSM   H16S10651   2.828   3.586   5.243 -2.8349 -1.2098 -0.4334
  105OSM   H16T10652   2.771   3.429   5.198  0.9636 -2.1564 -0.8427
  105OSM   C17S10653   2.946   3.506   5.079  1.0012  0.3688 -0.1681
  105OSM   H17S10654   2.955   3.416   5.014  0.0817 -0.9216  1.4241
  105OSM   H17T10655   3.052   3.524   5.107  1.3980 -1.5780 -0.2945
  105OSM   C18S10656   2.892   3.609   4.978  0.1208  0.0642 -0.1668
  105OSM   H18S10657   2.824   3.569   4.901  3.3537 -1.6896 -2.3450
  105OSM   H18T10658   2.973   3.639   4.908  1.0673 -1.4280  0.2487
  105OSM   H18U10659   2.843   3.691   5.036 -2.5913  1.2694 -3.8006
  105OSM    C1F10660   3.475   3.375   6.624  0.3421  0.7818  0.2284
  105OSM     OF10661   3.482   3.264   6.678 -1.0800 -0.3301  0.5676
  105OSM    C2F10662   3.598   3.420   6.542 -0.0982  0.1970  0.1072
  105OSM    H2F10663   3.642   3.333   6.489  0.4403  1.1076 -0.9637
  105OSM    H2G10664   3.665   3.453   6.625  0.9306 -2.0268  0.2371
  105OSM    C3F10665   3.587   3.535   6.442 -0.1940 -0.5365  0.2248
  105OSM    H3F10666   3.691   3.551   6.407 -0.7999 -2.9008 -3.1135
  105OSM    H3G10667   3.549   3.624   6.497 -1.8258 -0.0463 -1.5953
  105OSM    C4F10668   3.498   3.504   6.316 -0.4965  0.9989 -0.3755
  105OSM    H4F10669   3.392   3.475   6.333  0.1967 -1.3146  0.4262
  105OSM    H4G10670   3.542   3.415   6.265 -1.9866 -0.6813  1.1491
  105OSM    C5F10671   3.487   3.636   6.231 -0.0769  0.1952 -1.0251
  105OSM    H5F10672   3.589   3.677   6.211  0.2503 -1.0089 -1.9381
  105OSM    H5G10673   3.442   3.716   6.294  1.5925  0.3784 -0.0012
  105OSM    C6F10674   3.388   3.615   6.119  0.1096 -0.0623  0.8822
  105OSM    H6F10675   3.282   3.612   6.151 -0.4094  0.8326 -0.6447
  105OSM    H6G10676   3.419   3.517   6.075  0.9577  0.3438  0.5532
  105OSM    C7F10677   3.397   3.711   5.999  0.4779  0.0367 -0.5249
  105OSM    H7F10678   3.502   3.701   5.966  0.9727 -0.8369  1.1685
  105OSM    H7G10679   3.389   3.816   6.033  1.7148  0.7248 -2.2645
  105OSM    C8F10680   3.308   3.681   5.877  0.5034 -0.5925 -0.4583
  105OSM    H8F10681   3.203   3.691   5.914  1.7080  0.9633  2.9854
  105OSM    H8G10682   3.330   3.576   5.850 -1.6436 -1.6140  1.3807
  105OSM    C9F10683   3.325   3.793   5.780 -1.3484 -0.1134  0.4746
  105OSM    H9F10684   3.308   3.896   5.816 -0.7628  0.6332 -1.2966
  105OSM   C10F10685   3.364   3.778   5.652  0.2025  0.7567  0.3882
  105OSM   H10F10686   3.362   3.855   5.573 -1.5444 -0.0298 -0.3833
  105OSM   C11F10687   3.413   3.651   5.580  0.2620  0.4110 -0.5077
  105OSM   H11F10688   3.423   3.559   5.641 -0.7320  0.0642 -0.8485
  105OSM   H11G10689   3.519   3.673   5.552  1.2659 -2.1878  0.9178
  105OSM   C12F10690   3.325   3.616   5.456  0.2825 -0.1202 -0.2968
  105OSM   H12F10691   3.215   3.620   5.474  0.3907  0.2883  0.3131
  105OSM   H12G10692   3.336   3.510   5.425  2.7663  0.7329 -2.7539
  105OSM   C13F10693   3.350   3.713   5.337 -0.1002  0.6919 -0.1823
  105OSM   H13F10694   3.404   3.804   5.373 -1.4439  0.8194  1.6870
  105OSM   H13G10695   3.252   3.744   5.297 -1.9799 -1.3083  2.4673
  105OSM   C14F10696   3.427   3.629   5.229  0.1212  0.1090  0.2992
  105OSM   H14F10697   3.351   3.556   5.193 -0.9617  0.9264  0.8647
  105OSM   H14G10698   3.506   3.561   5.268 -1.3024 -1.8113 -0.0319
  105OSM   C15F10699   3.483   3.716   5.108  0.5260 -0.4005  0.3360
  105OSM   H15F10700   3.534   3.652   5.033  0.3285  0.9347 -0.9955
  105OSM   H15G10701   3.549   3.787   5.161  0.6021 -2.1863  2.8185
  105OSM   C16F10702   3.382   3.812   5.039 -0.0753 -0.6461 -0.2411
  105OSM   H16F10703   3.439   3.866   4.961 -0.8982  0.0503 -0.3692
  105OSM   H16G10704   3.334   3.879   5.113  0.4368  0.8786 -1.2478
  105OSM   C17F10705   3.275   3.732   4.967 -0.4778  0.8856  0.5579
  105OSM   H17F10706   3.201   3.680   5.031 -0.2099 -0.2411 -0.0253
  105OSM   H17G10707   3.335   3.661   4.906  0.4108  1.9951  0.1001
  105OSM   C18F10708   3.198   3.820   4.872 -0.1150 -0.0906  1.0270
  105OSM   H18F10709   3.126   3.893   4.913 -0.5333 -0.1503  0.4191
  105OSM   H18G10710   3.132   3.754   4.811  1.0910 -0.1377 -0.2962
  105OSM   H18H10711   3.273   3.868   4.806 -0.1015  2.2060  2.6271
  106OSM      N10712   6.745   1.870   7.312 -0.5091 -0.7146 -0.1433
  106OSM    C1510713   6.891   1.893   7.327 -0.5309 -0.0280 -0.0176
  106OSM   H15A10714   6.934   1.907   7.228  2.9774 -0.9899  1.2174
  106OSM   H15B10715   6.945   1.810   7.369  0.5023  1.2845  1.3627
  106OSM   H15C10716   6.913   1.986   7.378 -0.6657  0.8109 -1.4142
  106OSM    C1410717   6.713   1.732   7.265  0.2021  0.0588  0.4686
  106OSM   H14A10718   6.746   1.714   7.164 -3.8514 -3.1532 -0.5334
  106OSM   H14B10719   6.606   1.720   7.262  0.1165 -0.3174  2.8938
  106OSM   H14C10720   6.764   1.660   7.327  1.0125  0.0791 -0.1598
  106OSM    C1310721   6.686   1.879   7.449  0.1791 -0.6632  1.3903
  106OSM   H13A10722   6.701   1.981   7.480 -0.3616 -0.4874  1.0773
  106OSM   H13B10723   6.726   1.809   7.522 -1.2001 -3.3988 -0.2993
  106OSM   H13C10724   6.579   1.864   7.445  0.1262 -0.0869 -2.1251
  106OSM    C1210725   6.697   1.977   7.216  0.1079 -0.4637  0.2131
  106OSM   H12A10726   6.591   1.962   7.202 -0.1654  0.5737  1.0689
  106OSM   H12B10727   6.748   1.963   7.122 -1.4866  1.0273 -0.9422
  106OSM    C1110728   6.703   2.120   7.262 -0.2800 -0.3412  0.6988
  106OSM   H11A10729   6.648   2.122   7.358 -2.0066 -1.1070 -0.2107
  106OSM   H11B10730   6.654   2.188   7.189  1.7499  1.6902  1.1226
  106OSM      P10731   6.868   2.305   7.320 -0.1682 -0.1546  0.1260
  106OSM    O1310732   6.791   2.330   7.445 -0.6514 -0.6024  0.2501
  106OSM    O1410733   7.012   2.343   7.327 -0.4892  0.1371 -0.3949
  106OSM    O1110734   6.793   2.385   7.204 -0.3841 -0.7726  0.1189
  106OSM    O1210735   6.841   2.158   7.272 -0.2709  0.2099 -0.0599
  106OSM    C1S10736   6.804   2.362   7.067 -0.0216 -0.6195  0.0534
  106OSM    H1S10737   6.725   2.291   7.033  0.9679 -1.3137 -0.8394
  106OSM    H1T10738   6.900   2.312   7.043  0.2659  0.4427 -1.1222
  106OSM     NF10739   6.784   2.458   6.831  0.7048  0.0030 -0.1305
  106OSM    HNF10740   6.871   2.449   6.784  0.4542 -1.2312 -0.4013
  106OSM    C2S10741   6.797   2.489   6.975  0.1526  0.3120 -0.2889
  106OSM    H2S10742   6.710   2.555   6.994 -0.6841 -0.3024 -1.7542
  106OSM    C3S10743   6.929   2.573   7.015 -0.4376 -0.1796 -0.3572
  106OSM    H3S10744   7.013   2.500   7.014  0.7501  0.8776  3.7689
  106OSM     O310745   6.929   2.629   7.150  0.2344  0.6436  0.3496
  106OSM    HO310746   6.860   2.580   7.195 -0.2105 -1.9080 -2.7346
  106OSM    C4S10747   6.966   2.695   6.932  0.5771  0.1554  0.3109
  106OSM    H4S10748   6.898   2.780   6.941 -1.3625 -1.1274 -1.3247
  106OSM    C5S10749   7.067   2.701   6.843  1.3493  0.1622 -0.0358
  106OSM    H5S10750   7.140   2.618   6.834  1.5141  0.2768  0.2384
  106OSM    C6S10751   7.084   2.828   6.759  0.4664 -0.1579  0.7415
  106OSM    H6S10752   7.108   2.795   6.655  0.8233 -1.5867  1.2594
  106OSM    H6T10753   7.163   2.893   6.803 -1.1355  0.3454  3.0121
  106OSM    C7S10754   6.956   2.914   6.735 -0.2859  0.2270 -0.8096
  106OSM    H7S10755   6.926   2.960   6.832 -0.2639 -0.4610 -0.4746
  106OSM    H7T10756   6.877   2.843   6.703 -0.4283 -0.0678  0.1924
  106OSM    C8S10757   6.980   3.012   6.623 -0.4941 -0.2622  0.3018
  106OSM    H8S10758   7.065   3.080   6.645 -3.1051  3.3660  0.1210
  106OSM    H8T10759   6.896   3.084   6.620 -0.3257 -0.0713  0.1248
  106OSM    C9S10760   6.996   2.951   6.484 -0.4568  0.1477  0.0331
  106OSM    H9S10761   6.920   2.875   6.456 -0.2570  0.4565 -1.4270
  106OSM    H9T10762   7.101   2.920   6.471  0.7330  3.2632  1.2223
  106OSM   C10S10763   6.979   3.068   6.376 -0.0007 -0.3379 -0.4370
  106OSM   H10S10764   7.051   3.149   6.400  1.0545 -1.4832  0.3528
  106OSM   H10T10765   6.874   3.101   6.390 -0.0965  0.2593 -2.2923
  106OSM   C11S10766   7.001   3.026   6.238  0.2413 -0.4833 -0.1478
  106OSM   H11S10767   6.917   2.957   6.214  0.7738 -1.1046 -0.2626
  106OSM   H11T10768   7.099   2.975   6.223  1.2636  1.3162  0.0952
  106OSM   C12S10769   6.987   3.137   6.133 -0.1485 -0.1945  0.2822
  106OSM   H12S10770   7.075   3.205   6.128 -0.0792 -0.3508 -1.7258
  106OSM   H12T10771   6.895   3.196   6.152  1.8106  3.0898  0.4241
  106OSM   C13S10772   6.969   3.080   5.994 -0.3638 -0.2855  0.1921
  106OSM   H13S10773   6.881   3.013   5.982 -0.9513  0.6598 -1.0368
  106OSM   H13T10774   7.054   3.011   5.973 -1.1157 -0.8208 -1.3007
  106OSM   C14S10775   6.976   3.194   5.886  0.2369  0.3469 -0.6417
  106OSM   H14S10776   7.081   3.227   5.889  0.9291 -1.7230 -0.5844
  106OSM   H14T10777   6.913   3.280   5.918 -0.0612 -0.3208  0.6314
  106OSM   C15S10778   6.957   3.138   5.748 -0.0244 -0.0148 -0.0053
  106OSM   H15S10779   6.854   3.101   5.727 -0.2249  1.2425 -1.4619
  106OSM   H15T10780   7.024   3.050   5.735  1.5648  1.3588 -1.6515
  106OSM   C16S10781   6.979   3.250   5.648 -0.3133  0.0485 -0.5946
  106OSM   H16S10782   7.086   3.279   5.656 -0.3636  0.0449  0.1027
  106OSM   H16T10783   6.921   3.332   5.696 -1.1957  0.3080 -2.0201
  106OSM   C17S10784   6.945   3.206   5.507 -0.6995 -0.4906  0.1195
  106OSM   H17S10785   6.839   3.171   5.511 -0.7377 -0.5113 -0.8712
  106OSM   H17T10786   7.014   3.129   5.467  0.0856  1.2157 -2.0058
  106OSM   C18S10787   6.948   3.320   5.412 -0.0467 -0.0466 -0.8529
  106OSM   H18S10788   7.046   3.355   5.373 -0.0893  0.6186 -0.3683
  106OSM   H18T10789   6.907   3.413   5.456  0.3917  0.1401 -0.8260
  106OSM   H18U10790   6.898   3.299   5.315  2.1334  2.3000 -2.6536
  106OSM    C1F10791   6.669   2.416   6.777 -0.1862 -0.2342 -0.4130
  106OSM     OF10792   6.574   2.380   6.847 -0.6094  0.4872  0.2909
  106OSM    C2F10793   6.658   2.403   6.630  0.2309 -0.0712  0.7281
  106OSM    H2F10794   6.685   2.303   6.591 -0.7750  0.2128 -0.7660
  106OSM    H2G10795   6.735   2.457   6.571 -1.7843 -0.2826 -2.3026
  106OSM    C3F10796   6.520   2.437   6.576  0.1066  0.3925  0.4520
  106OSM    H3F10797   6.491   2.544   6.569  3.5699  1.3929 -2.7018
  106OSM    H3G10798   6.448   2.390   6.645  0.2338 -1.1244 -0.3993
  106OSM    C4F10799   6.505   2.362   6.440  0.8174  0.3970  0.6709
  106OSM    H4F10800   6.410   2.399   6.396  2.1818  0.7925 -2.1590
  106OSM    H4G10801   6.505   2.258   6.480 -0.4728  0.5117  1.0077
  106OSM    C5F10802   6.611   2.380   6.333 -0.1077 -0.2035  0.4392
  106OSM    H5F10803   6.707   2.343   6.374  1.7260  2.7969 -0.7800
  106OSM    H5G10804   6.632   2.488   6.319 -2.7789  0.4191  0.5326
  106OSM    C6F10805   6.590   2.301   6.206 -0.3581 -0.3893  0.3543
  106OSM    H6F10806   6.495   2.344   6.168  0.1528 -0.4389 -1.0085
  106OSM    H6G10807   6.564   2.194   6.218 -3.1835 -0.1962 -2.5896
  106OSM    C7F10808   6.697   2.318   6.093  1.0300 -0.4653  0.6935
  106OSM    H7F10809   6.772   2.236   6.103  0.9836 -0.4699  1.0199
  106OSM    H7G10810   6.755   2.413   6.096 -0.2513  0.4645 -1.6634
  106OSM    C8F10811   6.636   2.315   5.949 -0.0763  0.1828 -0.9810
  106OSM    H8F10812   6.713   2.358   5.882 -1.3717  2.9215 -0.8550
  106OSM    H8G10813   6.565   2.400   5.959  1.6610  1.6016 -0.2319
  106OSM    C9F10814   6.580   2.176   5.910 -0.8720 -0.2289 -0.1904
  106OSM    H9F10815   6.487   2.145   5.961 -1.3195 -1.5277 -1.7458
  106OSM   C10F10816   6.638   2.090   5.827 -0.2969 -0.3843  0.1725
  106OSM   H10F10817   6.589   1.994   5.807  0.1637 -0.5237 -0.3230
  106OSM   C11F10818   6.760   2.105   5.742 -0.1652 -0.0759  0.0843
  106OSM   H11F10819   6.833   2.029   5.776 -1.0166 -1.2280 -0.5914
  106OSM   H11G10820   6.805   2.203   5.767  2.2835 -0.9810 -0.5189
  106OSM   C12F10821   6.746   2.085   5.596 -0.2104 -0.6442 -0.3342
  106OSM   H12F10822   6.711   1.982   5.572 -0.7510 -0.2843 -1.1479
  106OSM   H12G10823   6.846   2.092   5.549  0.0261  2.6144  0.4310
  106OSM   C13F10824   6.651   2.178   5.524  0.1298 -0.0765 -0.0433
  106OSM   H13F10825   6.548   2.179   5.567  0.9470 -2.8076  2.2638
  106OSM   H13G10826   6.640   2.131   5.424 -0.0463  0.0546 -0.0863
  106OSM   C14F10827   6.695   2.323   5.521  0.2082  0.0855  0.6148
  106OSM   H14F10828   6.805   2.325   5.504  0.6254 -0.1301  2.9415
  106OSM   H14G10829   6.679   2.360   5.624  2.2742  1.2151  0.5791
  106OSM   C15F10830   6.622   2.414   5.415  0.6471 -0.3737 -0.0213
  106OSM   H15F10831   6.511   2.407   5.426  0.5240 -3.2156 -2.1797
  106OSM   H15G10832   6.640   2.397   5.307 -1.7009  1.9443 -0.8749
  106OSM   C16F10833   6.646   2.565   5.453  0.8118  0.0905  0.5284
  106OSM   H16F10834   6.752   2.589   5.432  0.7540 -0.6494 -0.6232
  106OSM   H16G10835   6.632   2.577   5.563  1.4821  2.3873  0.4231
  106OSM   C17F10836   6.569   2.652   5.351  0.0693 -0.2043 -0.1531
  106OSM   H17F10837   6.463   2.620   5.361 -0.2776  1.0654  0.4183
  106OSM   H17G10838   6.601   2.617   5.250 -2.2248  0.0344 -1.0316
  106OSM   C18F10839   6.572   2.805   5.359 -0.0339  0.5485 -0.1024
  106OSM   H18F10840   6.560   2.833   5.466 -1.4195  1.4179 -0.4652
  106OSM   H18G10841   6.479   2.845   5.313 -1.1474 -1.4585  0.2317
  106OSM   H18H10842   6.654   2.853   5.303 -0.2601 -1.3525 -2.2002
  107OSM      N10843   1.559   0.124   7.312  0.1286  0.6845  0.0285
  107OSM    C1510844   1.459   0.216   7.379 -0.9249  0.0663  0.5608
  107OSM   H15A10845   1.362   0.171   7.365 -1.2229  0.4438  1.3641
  107OSM   H15B10846   1.453   0.318   7.343  2.0115  0.6125  1.3873
  107OSM   H15C10847   1.494   0.224   7.480 -0.1690 -0.3828  0.3443
  107OSM    C1410848   1.689   0.189   7.336 -0.0289 -0.2296 -0.1810
  107OSM   H14A10849   1.767   0.144   7.277 -2.1450 -2.6551 -1.3060
  107OSM   H14B10850   1.713   0.186   7.441 -0.6649  0.8705  0.0090
  107OSM   H14C10851   1.673   0.291   7.305  1.3363 -0.4476 -1.6775
  107OSM    C1310852   1.556  -0.010   7.374  0.1457  0.0832 -0.6210
  107OSM   H13A10853   1.579  -0.019   7.479 -2.3669  1.9152  0.1800
  107OSM   H13B10854   1.625  -0.070   7.317  0.5783  0.9273 -1.0071
  107OSM   H13C10855   1.455  -0.048   7.367  0.3253 -0.6176  0.3919
  107OSM    C1210856   1.519   0.115   7.168 -0.3374 -0.3330 -0.7610
  107OSM   H12A10857   1.480   0.212   7.139 -1.3915 -0.2897  0.7050
  107OSM   H12B10858   1.431   0.054   7.155  0.0325 -1.1387  0.3857
  107OSM    C1110859   1.628   0.066   7.069  0.4811  0.1869  0.0855
  107OSM   H11A10860   1.703   0.148   7.062  1.7586 -0.8943  0.5369
  107OSM   H11B10861   1.578   0.053   6.971 -1.6858  1.8133  0.9057
  107OSM      P10862   1.849  -0.087   7.086 -0.1806  0.0964 -0.0077
  107OSM    O1310863   1.896   0.003   6.981  0.4114  0.4510 -0.1871
  107OSM    O1410864   1.921  -0.087   7.215  0.5470 -0.1611 -0.3708
  107OSM    O1110865   1.845  -0.232   7.032  0.2340 -0.2989 -0.2045
  107OSM    O1210866   1.689  -0.063   7.103 -0.0381 -0.5185  0.4283
  107OSM    C1S10867   1.798  -0.266   6.900  0.5995 -0.0737 -0.1645
  107OSM    H1S10868   1.717  -0.196   6.871 -0.1369 -1.3826 -1.3396
  107OSM    H1T10869   1.741  -0.361   6.891 -0.9999  0.6762  1.4829
  107OSM     NF10870   1.856  -0.272   6.657 -0.6695  0.3518 -0.0352
  107OSM    HNF10871   1.862  -0.367   6.627  0.7030  0.2411  0.5445
  107OSM    C2S10872   1.911  -0.256   6.791 -0.0447 -0.0395  0.5578
  107OSM    H2S10873   1.963  -0.159   6.811  3.1575 -1.9660  2.5529
  107OSM    C3S10874   2.026  -0.351   6.824  0.1508  0.5256  1.0830
  107OSM    H3S10875   1.984  -0.453   6.820 -0.9282  0.9885 -0.0670
  107OSM     O310876   2.087  -0.326   6.951 -0.6023 -0.0662 -0.3779
  107OSM    HO310877   2.016  -0.297   7.008  1.2886  2.1856  1.0306
  107OSM    C4S10878   2.143  -0.327   6.721 -0.6076 -0.7764  0.3888
  107OSM    H4S10879   2.199  -0.234   6.738 -1.2667 -0.4322  0.7048
  107OSM    C5S10880   2.163  -0.400   6.613  0.2470 -0.8710  0.4309
  107OSM    H5S10881   2.079  -0.467   6.593 -1.0519  0.7928  0.1007
  107OSM    C6S10882   2.271  -0.375   6.516 -0.0146  0.1121  1.0888
  107OSM    H6S10883   2.321  -0.470   6.487  0.0823  0.5474 -0.2183
  107OSM    H6T10884   2.352  -0.312   6.559  1.1194 -0.3435 -0.3028
  107OSM    C7S10885   2.228  -0.301   6.388  0.5361  0.1392 -0.1746
  107OSM    H7S10886   2.310  -0.289   6.314  1.8844 -0.1836  1.2197
  107OSM    H7T10887   2.173  -0.209   6.418 -3.4480 -2.3916  1.0657
  107OSM    C8S10888   2.124  -0.382   6.310  0.6462  0.0484  0.0546
  107OSM    H8S10889   2.034  -0.401   6.373  0.9342 -0.2154  0.3973
  107OSM    H8T10890   2.166  -0.483   6.288 -0.3541 -0.8106  1.8287
  107OSM    C9S10891   2.080  -0.319   6.173  0.5838 -0.2330  0.2761
  107OSM    H9S10892   2.024  -0.227   6.200  3.0762  1.0666  1.3700
  107OSM    H9T10893   2.012  -0.394   6.127  1.2410 -1.0688  0.6352
  107OSM   C10S10894   2.185  -0.285   6.061  0.2674  0.0048 -0.6964
  107OSM   H10S10895   2.249  -0.200   6.093 -3.4308  2.7617 -0.0334
  107OSM   H10T10896   2.134  -0.259   5.967 -2.6427 -2.3500  0.0998
  107OSM   C11S10897   2.262  -0.412   6.016 -0.6029 -0.4655  0.0865
  107OSM   H11S10898   2.203  -0.488   5.960 -2.0045  1.0467 -0.5929
  107OSM   H11T10899   2.294  -0.450   6.115 -0.4700  1.9363  1.0287
  107OSM   C12S10900   2.391  -0.378   5.940 -0.0439  0.3022  0.0311
  107OSM   H12S10901   2.440  -0.471   5.903  0.4784  0.5459  0.1029
  107OSM   H12T10902   2.461  -0.333   6.013 -0.7037 -1.7464  2.0450
  107OSM   C13S10903   2.369  -0.294   5.809 -0.0742 -0.1808 -0.6996
  107OSM   H13S10904   2.471  -0.261   5.781  0.2556 -0.5588  0.0295
  107OSM   H13T10905   2.322  -0.201   5.847  0.8338  0.1949 -0.4767
  107OSM   C14S10906   2.308  -0.373   5.704  0.2468  0.8914  0.5654
  107OSM   H14S10907   2.198  -0.361   5.716 -0.2475 -3.5518  2.5695
  107OSM   H14T10908   2.329  -0.482   5.708 -1.1810  0.6078  1.1873
  107OSM   C15S10909   2.366  -0.330   5.568  0.6521 -0.0081  0.5847
  107OSM   H15S10910   2.319  -0.403   5.499 -2.1703 -0.6510  2.9585
  107OSM   H15T10911   2.475  -0.312   5.571  1.0960 -2.3263  0.1241
  107OSM   C16S10912   2.309  -0.193   5.518  0.6602  0.1815  0.4303
  107OSM   H16S10913   2.342  -0.114   5.589  2.1018  1.2689 -1.3452
  107OSM   H16T10914   2.199  -0.203   5.526  0.6918  0.0875  0.7545
  107OSM   C17S10915   2.346  -0.160   5.368  0.0599  0.5560 -0.2376
  107OSM   H17S10916   2.277  -0.074   5.350  0.7086  1.5910  1.9253
  107OSM   H17T10917   2.317  -0.245   5.303  1.2041  1.8490 -2.5877
  107OSM   C18S10918   2.486  -0.125   5.335  0.1991 -0.1175  0.8958
  107OSM   H18S10919   2.556  -0.189   5.392  0.5799  0.5985  1.2550
  107OSM   H18T10920   2.499  -0.027   5.387 -0.3436  0.3957  0.0853
  107OSM   H18U10921   2.509  -0.118   5.226  0.6798  0.4305  1.0238
  107OSM    C1F10922   1.772  -0.189   6.592 -1.0966  0.2484 -0.4212
  107OSM     OF10923   1.755  -0.081   6.645 -0.3652  0.0573  0.1046
  107OSM    C2F10924   1.695  -0.246   6.478  0.0041 -0.5986  0.5069
  107OSM    H2F10925   1.650  -0.343   6.507  0.2986 -0.3774  1.7654
  107OSM    H2G10926   1.771  -0.261   6.398 -2.6296  1.0869 -2.4880
  107OSM    C3F10927   1.587  -0.139   6.426 -0.2630  0.1234 -0.4215
  107OSM    H3F10928   1.635  -0.040   6.410  0.4952  0.1280  1.5675
  107OSM    H3G10929   1.511  -0.140   6.507  0.0844  0.8568 -0.0807
  107OSM    C4F10930   1.516  -0.192   6.300  0.2242 -1.0984 -0.2750
  107OSM    H4F10931   1.413  -0.149   6.302  0.2053 -1.1340  1.6443
  107OSM    H4G10932   1.501  -0.300   6.321 -0.6215 -0.6513  1.6131
  107OSM    C5F10933   1.590  -0.193   6.165  0.2081  0.3638 -0.5421
  107OSM    H5F10934   1.544  -0.273   6.103 -0.3786  0.2294  0.0576
  107OSM    H5G10935   1.699  -0.209   6.180  0.3649  1.6465 -0.2059
  107OSM    C6F10936   1.579  -0.070   6.086  0.5492 -0.2777  0.0876
  107OSM    H6F10937   1.650  -0.085   6.002  0.7406  0.0821  0.1839
  107OSM    H6G10938   1.620   0.017   6.142  1.2213  0.0367 -0.8575
  107OSM    C7F10939   1.435  -0.039   6.048  0.2855 -0.1657  0.5846
  107OSM    H7F10940   1.446   0.056   5.992 -0.9183 -1.0793 -1.2785
  107OSM    H7G10941   1.374  -0.008   6.136  0.7388 -0.6346  1.0743
  107OSM    C8F10942   1.361  -0.140   5.966 -0.3759  0.0455 -0.2892
  107OSM    H8F10943   1.324  -0.220   6.033 -0.4338  0.8956  0.7126
  107OSM    H8G10944   1.425  -0.186   5.887  0.1176 -1.8980  1.1780
  107OSM    C9F10945   1.236  -0.076   5.904 -0.2387 -0.2508 -0.2570
  107OSM    H9F10946   1.183  -0.009   5.973 -1.1445 -1.7783  0.6080
  107OSM   C10F10947   1.194  -0.085   5.774 -0.2466  0.8515  0.1345
  107OSM   H10F10948   1.095  -0.045   5.745 -1.4360 -0.6918  1.8570
  107OSM   C11F10949   1.258  -0.174   5.666 -0.4185 -0.3433  0.0036
  107OSM   H11F10950   1.187  -0.200   5.584  1.7487 -0.3206 -1.9896
  107OSM   H11G10951   1.301  -0.265   5.712  2.0564  1.5886  1.7799
  107OSM   C12F10952   1.387  -0.109   5.594  0.4332 -0.6151  0.0936
  107OSM   H12F10953   1.440  -0.192   5.541  1.6625  0.6764 -0.7705
  107OSM   H12G10954   1.455  -0.069   5.672  2.4167 -0.8542 -1.4146
  107OSM   C13F10955   1.344   0.002   5.488  0.3724 -0.0271  0.1066
  107OSM   H13F10956   1.277   0.073   5.541 -0.3195 -0.2245 -0.4859
  107OSM   H13G10957   1.270  -0.045   5.420 -0.7109  0.2711  1.0448
  107OSM   C14F10958   1.458   0.087   5.425 -1.1089 -0.4346  0.3011
  107OSM   H14F10959   1.527   0.018   5.372 -1.8890 -2.3064  1.6352
  107OSM   H14G10960   1.520   0.136   5.503 -1.3098  2.3418 -1.1501
  107OSM   C15F10961   1.406   0.189   5.323 -0.4122  0.1335 -0.6060
  107OSM   H15F10962   1.490   0.253   5.288  0.3397 -0.4407  0.0995
  107OSM   H15G10963   1.333   0.262   5.365 -0.1633  0.6898 -1.1294
  107OSM   C16F10964   1.342   0.119   5.200 -0.4464 -0.8063 -0.1182
  107OSM   H16F10965   1.265   0.044   5.229 -2.3022  1.6500  1.7659
  107OSM   H16G10966   1.416   0.060   5.141 -0.5451 -0.3336 -0.7322
  107OSM   C17F10967   1.271   0.234   5.119  0.0406  0.1045  0.0308
  107OSM   H17F10968   1.352   0.308   5.101 -1.4531  1.8496  0.2208
  107OSM   H17G10969   1.190   0.273   5.184  1.4386  2.2175  0.6173
  107OSM   C18F10970   1.223   0.195   4.977 -0.3345 -0.3939  0.8225
  107OSM   H18F10971   1.298   0.147   4.911 -2.4169 -0.2846 -1.8185
  107OSM   H18G10972   1.195   0.286   4.919 -1.0517  0.5118  2.5183
  107OSM   H18H10973   1.136   0.126   4.975  0.4411 -1.3664 -0.5581
  108OSM      N10974   4.166   0.719   7.600 -0.4057  0.7352  0.1460
  108OSM    C1510975   4.251   0.823   7.666  0.0245  0.4293  0.9280
  108OSM   H15A10976   4.354   0.792   7.672 -0.4523 -1.3350  0.6004
  108OSM   H15B10977   4.211   0.852   7.762 -0.9115  3.6532 -0.2677
  108OSM   H15C10978   4.250   0.913   7.606  0.5408 -0.4999 -0.5115
  108OSM    C1410979   4.163   0.595   7.673 -0.3685 -0.1890  0.0979
  108OSM   H14A10980   4.108   0.610   7.765 -0.1310  2.5982 -0.1435
  108OSM   H14B10981   4.261   0.557   7.697 -0.2343 -1.0203 -1.5831
  108OSM   H14C10982   4.107   0.519   7.619 -1.4837  0.5761  0.1515
  108OSM    C1310983   4.024   0.771   7.595  0.0072  0.2820  0.2805
  108OSM   H13A10984   4.027   0.878   7.586  1.4628  0.4546  2.2121
  108OSM   H13B10985   3.976   0.738   7.687 -0.6416 -1.9052 -0.7654
  108OSM   H13C10986   3.958   0.739   7.516  0.4687  0.9905 -0.3970
  108OSM    C1210987   4.224   0.693   7.457  0.1373 -0.3211 -0.2182
  108OSM   H12A10988   4.169   0.610   7.413 -0.2857  0.1461 -0.5836
  108OSM   H12B10989   4.324   0.654   7.466  0.3882 -0.3128 -2.4685
  108OSM    C1110990   4.213   0.802   7.347  0.9331  0.4193 -0.6734
  108OSM   H11A10991   4.104   0.824   7.340  0.4473 -1.5789  0.0344
  108OSM   H11B10992   4.247   0.746   7.257 -0.5820  0.4990 -1.3310
  108OSM      P10993   4.258   1.046   7.295 -0.0238  0.1861 -0.4612
  108OSM    O1310994   4.128   1.092   7.358 -0.1911 -0.5721  0.0968
  108OSM    O1410995   4.368   1.147   7.302 -0.5647  0.1271  0.1570
  108OSM    O1110996   4.239   1.010   7.139 -0.2143  0.4570  0.0135
  108OSM    O1210997   4.301   0.913   7.365  0.6224 -0.0273 -0.0201
  108OSM    C1S10998   4.352   0.955   7.069  0.2482  0.1303 -0.6534
  108OSM    H1S10999   4.358   0.849   7.103  1.1080  0.9901  2.1449
  108OSM    H1T11000   4.445   0.996   7.114 -0.5220  2.6346 -1.2137
  108OSM     NF11001   4.492   0.935   6.861 -0.4772 -0.5501 -0.2282
  108OSM    HNF11002   4.536   1.018   6.830  0.1632 -0.5757  0.5979
  108OSM    C2S11003   4.353   0.949   6.911 -0.2461  0.1287  0.1853
  108OSM    H2S11004   4.316   0.854   6.868  2.8741 -0.3167 -1.8220
  108OSM    C3S11005   4.277   1.071   6.853 -0.3971  0.4640 -0.0092
  108OSM    H3S11006   4.337   1.158   6.886  2.3233 -1.4418  0.4022
  108OSM     O311007   4.142   1.078   6.897 -0.1229 -0.0591  0.6024
  108OSM    HO311008   4.149   1.053   6.990  1.0216  1.7242  1.0572
  108OSM    C4S11009   4.287   1.081   6.697  0.4307 -0.3008  0.4044
  108OSM    H4S11010   4.209   1.022   6.646 -0.8575 -0.1855  2.1166
  108OSM    C5S11011   4.361   1.150   6.616 -0.4156 -0.0200  0.5598
  108OSM    H5S11012   4.439   1.214   6.661  0.1997 -0.4839  0.1697
  108OSM    C6S11013   4.352   1.146   6.464 -0.4588 -0.0442  0.3311
  108OSM    H6S11014   4.322   1.246   6.426  1.1194  0.1032 -0.5785
  108OSM    H6T11015   4.278   1.071   6.429  2.7993 -3.1193 -0.5402
  108OSM    C7S11016   4.480   1.084   6.397 -0.4782 -0.2121 -0.0479
  108OSM    H7S11017   4.562   1.128   6.457  0.0340 -0.6010 -0.4619
  108OSM    H7T11018   4.492   1.111   6.290 -0.6810 -1.7782 -0.4910
  108OSM    C8S11019   4.483   0.933   6.407  0.2551 -0.5553  0.2138
  108OSM    H8S11020   4.392   0.889   6.360  1.3005  0.2960 -2.8451
  108OSM    H8T11021   4.484   0.910   6.515 -2.6874  1.8831  0.9105
  108OSM    C9S11022   4.604   0.862   6.339  0.3891 -0.5444 -0.3964
  108OSM    H9S11023   4.620   0.761   6.383  0.0279 -1.0425 -1.3773
  108OSM    H9T11024   4.694   0.920   6.368  1.2023 -1.4693 -0.9816
  108OSM   C10S11025   4.594   0.861   6.181 -0.4546  0.4653 -1.5953
  108OSM   H10S11026   4.702   0.858   6.155  0.3413  0.5233  1.3649
  108OSM   H10T11027   4.556   0.963   6.157 -2.4291 -0.0677 -0.8986
  108OSM   C11S11028   4.537   0.736   6.118  0.1239 -0.3628  1.0725
  108OSM   H11S11029   4.436   0.722   6.163  0.2263 -1.2125  1.0546
  108OSM   H11T11030   4.604   0.652   6.146  0.6477 -1.0895 -2.0136
  108OSM   C12S11031   4.539   0.733   5.968  0.0547 -0.2815  0.3574
  108OSM   H12S11032   4.625   0.781   5.916 -1.2917  0.9523 -0.8423
  108OSM   H12T11033   4.454   0.795   5.931  1.9879  1.7756 -0.9466
  108OSM   C13S11034   4.497   0.594   5.909  0.6176 -0.2656 -0.6520
  108OSM   H13S11035   4.396   0.583   5.952  0.6270 -1.1540 -0.8423
  108OSM   H13T11036   4.573   0.519   5.941 -1.1295 -2.1491 -0.7697
  108OSM   C14S11037   4.498   0.587   5.754 -0.2170  1.1710 -0.0093
  108OSM   H14S11038   4.447   0.678   5.716 -0.0398  2.3077  2.3065
  108OSM   H14T11039   4.441   0.504   5.708  1.6772 -0.2348  0.0699
  108OSM   C15S11040   4.645   0.591   5.685 -0.0198  0.5490 -0.6034
  108OSM   H15S11041   4.692   0.491   5.699 -1.1291  0.3680  2.6201
  108OSM   H15T11042   4.712   0.660   5.740 -0.0473 -0.9701  1.4504
  108OSM   C16S11043   4.631   0.610   5.538  0.2294 -0.3095  0.1908
  108OSM   H16S11044   4.562   0.693   5.510  0.1108 -0.4423  0.0899
  108OSM   H16T11045   4.592   0.518   5.489  2.0031 -0.7997 -0.3998
  108OSM   C17S11046   4.753   0.659   5.472 -0.0678 -0.6736  0.9521
  108OSM   H17S11047   4.835   0.587   5.491  0.3080  0.5634  5.1260
  108OSM   H17T11048   4.793   0.750   5.521  2.1892  0.8329 -3.1998
  108OSM   C18S11049   4.740   0.696   5.324 -0.5385 -0.4602  0.3358
  108OSM   H18S11050   4.711   0.802   5.309  1.4645  0.1336  0.4327
  108OSM   H18T11051   4.672   0.626   5.270 -0.3600  1.0591 -2.0012
  108OSM   H18U11052   4.836   0.699   5.269 -0.7552  1.5945 -0.0100
  108OSM    C1F11053   4.561   0.820   6.889 -0.1582 -0.1812 -0.3642
  108OSM     OF11054   4.513   0.719   6.930  0.5027 -0.2766 -0.4179
  108OSM    C2F11055   4.708   0.820   6.866 -0.3814 -0.0162 -0.2236
  108OSM    H2F11056   4.760   0.751   6.935  0.0089  2.0769  1.6866
  108OSM    H2G11057   4.744   0.925   6.865 -0.3702  0.0381  1.9133
  108OSM    C3F11058   4.726   0.779   6.718 -0.1025  0.1457  0.4176
  108OSM    H3F11059   4.676   0.851   6.650  1.1438  0.1943 -0.4938
  108OSM    H3G11060   4.680   0.680   6.699 -1.2655  0.8573 -0.5923
  108OSM    C4F11061   4.881   0.770   6.693  0.4959  0.4440  0.0204
  108OSM    H4F11062   4.920   0.695   6.765 -0.9093 -1.0873 -0.7455
  108OSM    H4G11063   4.929   0.868   6.712  1.7194 -0.2144  0.4293
  108OSM    C5F11064   4.893   0.726   6.550 -0.7373 -0.5458  0.4146
  108OSM    H5F11065   4.987   0.765   6.506  0.8355 -0.8179  3.2732
  108OSM    H5G11066   4.813   0.774   6.490 -2.2668  0.9047  3.3900
  108OSM    C6F11067   4.895   0.582   6.522 -0.1529 -0.1660  0.3460
  108OSM    H6F11068   4.800   0.539   6.562 -0.9507  0.4363 -0.8431
  108OSM    H6G11069   4.988   0.542   6.566 -0.5912 -2.2248 -0.4734
  108OSM    C7F11070   4.888   0.554   6.369 -0.0135 -0.5826 -0.4220
  108OSM    H7F11071   4.979   0.594   6.318 -0.4518  2.7711  1.1431
  108OSM    H7G11072   4.803   0.619   6.338  0.4602  0.1744 -0.1804
  108OSM    C8F11073   4.862   0.415   6.334 -0.4757  0.7279 -0.0700
  108OSM    H8F11074   4.820   0.359   6.419 -1.1956  1.8072  0.3000
  108OSM    H8G11075   4.957   0.357   6.333 -1.4534 -1.0917  2.6590
  108OSM    C9F11076   4.774   0.406   6.214  0.1406 -0.4919 -0.3952
  108OSM    H9F11077   4.792   0.481   6.136 -0.9064 -0.9817 -1.1388
  108OSM   C10F11078   4.657   0.338   6.208 -0.0152 -0.5388 -0.9161
  108OSM   H10F11079   4.600   0.340   6.114 -0.3469  0.2278 -0.7109
  108OSM   C11F11080   4.582   0.271   6.324  0.0787 -0.5702  0.4261
  108OSM   H11F11081   4.624   0.296   6.424  1.0757  3.3267 -0.8090
  108OSM   H11G11082   4.604   0.163   6.313 -1.2593 -0.9311  1.0574
  108OSM   C12F11083   4.428   0.299   6.320 -0.7071  0.1806  0.4143
  108OSM   H12F11084   4.359   0.234   6.378 -3.0279  2.4904  0.4315
  108OSM   H12G11085   4.390   0.280   6.217 -1.4857 -2.8572  1.1550
  108OSM   C13F11086   4.396   0.439   6.356  0.4518 -0.1990  0.3317
  108OSM   H13F11087   4.296   0.454   6.311  0.2722 -2.3443 -0.1173
  108OSM   H13G11088   4.462   0.513   6.307 -0.2729  0.8677  0.9438
  108OSM   C14F11089   4.379   0.475   6.508  0.1729 -0.3689  0.4049
  108OSM   H14F11090   4.467   0.444   6.569  0.0411  0.7979  1.2167
  108OSM   H14G11091   4.302   0.410   6.556 -1.1367  0.8414 -0.0081
  108OSM   C15F11092   4.332   0.621   6.520  0.0190  0.4232 -0.4877
  108OSM   H15F11093   4.223   0.629   6.500  0.0734  0.4935 -0.7554
  108OSM   H15G11094   4.392   0.685   6.452 -1.0095  0.6874 -1.1666
  108OSM   C16F11095   4.342   0.678   6.664  0.2203 -0.3980  0.2579
  108OSM   H16F11096   4.289   0.776   6.660 -1.0908 -1.1000 -0.0144
  108OSM   H16G11097   4.448   0.700   6.690  0.0986  0.6922 -0.1248
  108OSM   C17F11098   4.279   0.593   6.776 -0.4960 -0.1285 -0.0692
  108OSM   H17F11099   4.302   0.643   6.873 -0.2251 -1.7646  0.7489
  108OSM   H17G11100   4.334   0.497   6.780  0.1215  0.2052 -0.3754
  108OSM   C18F11101   4.128   0.565   6.762 -0.6104 -0.3716 -0.4366
  108OSM   H18F11102   4.110   0.477   6.696 -0.1564 -0.0480 -1.0024
  108OSM   H18G11103   4.078   0.657   6.724  1.2997  0.0678 -2.0423
  108OSM   H18H11104   4.091   0.539   6.863  1.0694 -1.8467 -0.1417
  109OSM      N11105   0.476   2.837   7.319  0.0522 -0.0917  0.1394
  109OSM    C1511106   0.534   2.925   7.212 -0.2065  1.4802 -0.1421
  109OSM   H15A11107   0.488   2.906   7.116 -1.7876  1.5739  0.5763
  109OSM   H15B11108   0.642   2.916   7.210 -0.1856  1.8233 -0.8863
  109OSM   H15C11109   0.518   3.027   7.244 -0.5772  1.9163 -1.6329
  109OSM    C1411110   0.557   2.710   7.316 -0.1849  0.4137  0.0149
  109OSM   H14A11111   0.659   2.712   7.352 -0.2370 -4.2188  1.0654
  109OSM   H14B11112   0.552   2.677   7.214  0.0349  0.3784  0.0171
  109OSM   H14C11113   0.511   2.634   7.378  3.0125 -0.3302  1.6849
  109OSM    C1311114   0.501   2.901   7.446 -0.2421  0.1500 -0.4189
  109OSM   H13A11115   0.445   2.991   7.466 -1.0916  0.0047 -2.0493
  109OSM   H13B11116   0.604   2.933   7.447 -0.3152  0.4465  1.1382
  109OSM   H13C11117   0.484   2.831   7.527 -1.2726 -0.2215 -0.9468
  109OSM    C1211118   0.329   2.800   7.294 -0.0357 -0.1017 -0.3281
  109OSM   H12A11119   0.307   2.735   7.378 -1.1529  1.5493  0.7094
  109OSM   H12B11120   0.311   2.733   7.211 -1.7448  0.3219 -0.3275
  109OSM    C1111121   0.230   2.919   7.280  0.1501  0.2369  0.0583
  109OSM   H11A11122   0.129   2.873   7.271  0.0342  0.0204  2.0210
  109OSM   H11B11123   0.252   2.967   7.182 -1.1975 -1.0777 -0.9408
  109OSM      P11124   0.123   3.018   7.496 -0.0707  0.6168  0.0881
  109OSM    O1311125   0.108   2.887   7.565  0.4201 -0.5744 -0.0282
  109OSM    O1411126   0.138   3.137   7.578 -0.0393 -0.0539 -0.4073
  109OSM    O1111127   0.001   3.041   7.404  0.5472 -0.1166 -0.0054
  109OSM    O1211128   0.234   3.017   7.385 -0.1966  0.4930 -0.4332
  109OSM    C1S11129  -0.019   3.142   7.304 -0.1296 -0.0749 -0.2369
  109OSM    H1S11130   0.076   3.185   7.265 -0.3781 -0.2324 -1.0185
  109OSM    H1T11131  -0.070   3.227   7.354  2.5696  0.6323  1.5222
  109OSM     NF11132  -0.081   3.200   7.073  0.1465  0.5213 -0.9476
  109OSM    HNF11133  -0.171   3.236   7.050 -1.0418 -0.9546  1.0316
  109OSM    C2S11134  -0.086   3.095   7.181  0.6774  0.1502  0.8046
  109OSM    H2S11135  -0.029   3.017   7.125 -0.0378  2.2300 -3.1647
  109OSM    C3S11136  -0.234   3.045   7.212  1.0073 -0.4662  0.3954
  109OSM    H3S11137  -0.294   3.127   7.257 -1.9294 -3.0008  1.4573
  109OSM     O311138  -0.230   2.947   7.314 -0.2628 -0.3965  0.0517
  109OSM    HO311139  -0.142   2.931   7.348 -0.3774 -2.5139 -0.5288
  109OSM    C4S11140  -0.297   3.002   7.086  0.2846 -0.0140  0.9708
  109OSM    H4S11141  -0.366   3.075   7.040  0.8191  0.6686  1.2386
  109OSM    C5S11142  -0.289   2.881   7.030 -0.1049 -0.6383 -0.5911
  109OSM    H5S11143  -0.238   2.794   7.075 -0.8712 -2.5188 -3.1445
  109OSM    C6S11144  -0.360   2.824   6.911  0.4440 -0.0186  0.0598
  109OSM    H6S11145  -0.435   2.898   6.876 -0.1480 -1.8437 -2.8640
  109OSM    H6T11146  -0.413   2.727   6.923 -2.5118  1.6790  1.9636
  109OSM    C7S11147  -0.268   2.804   6.794  0.1509  0.3613  0.3573
  109OSM    H7S11148  -0.219   2.704   6.796 -2.4311 -0.9672  0.8708
  109OSM    H7T11149  -0.202   2.893   6.784 -1.8785  1.8874  0.1036
  109OSM    C8S11150  -0.343   2.808   6.657  0.4040  0.2532 -0.1778
  109OSM    H8S11151  -0.399   2.904   6.652 -1.1567 -0.6607 -0.6109
  109OSM    H8T11152  -0.413   2.724   6.644  1.1783 -0.7062  1.4598
  109OSM    C9S11153  -0.233   2.792   6.546  0.6364 -0.7251 -0.1648
  109OSM    H9S11154  -0.170   2.703   6.569 -0.3560 -1.5422 -0.5566
  109OSM    H9T11155  -0.156   2.871   6.563 -0.3980  0.0381  1.1191
  109OSM   C10S11156  -0.287   2.794   6.406  0.1151 -0.3719 -0.0664
  109OSM   H10S11157  -0.354   2.881   6.390 -0.5298 -0.7289  0.5939
  109OSM   H10T11158  -0.344   2.700   6.391  0.6180 -0.6214 -0.4391
  109OSM   C11S11159  -0.178   2.791   6.296  0.0635 -0.5350 -0.3346
  109OSM   H11S11160  -0.109   2.720   6.347 -0.0493  0.1452  0.8129
  109OSM   H11T11161  -0.131   2.890   6.274  2.3920 -1.1283  1.5055
  109OSM   C12S11162  -0.227   2.740   6.161  0.1867  0.0616 -0.1991
  109OSM   H12S11163  -0.295   2.653   6.169 -0.3219  0.5996  1.8525
  109OSM   H12T11164  -0.139   2.716   6.097 -1.7682 -3.5507 -1.8363
  109OSM   C13S11165  -0.297   2.850   6.078 -0.5233  0.2901 -0.5753
  109OSM   H13S11166  -0.224   2.929   6.052 -1.3262  1.7091  1.2733
  109OSM   H13T11167  -0.376   2.882   6.149 -0.0406  0.0259  0.0928
  109OSM   C14S11168  -0.366   2.788   5.956 -0.0865 -0.4876  1.1062
  109OSM   H14S11169  -0.457   2.737   5.996 -2.4013  0.0048 -2.9629
  109OSM   H14T11170  -0.303   2.714   5.902 -0.2444  0.4672 -0.4482
  109OSM   C15S11171  -0.404   2.898   5.857 -0.5765  0.0429  0.4106
  109OSM   H15S11172  -0.321   2.944   5.801 -1.9478  0.6888 -1.1841
  109OSM   H15T11173  -0.455   2.972   5.922 -2.8156 -0.6476 -0.4528
  109OSM   C16S11174  -0.497   2.842   5.748  0.0755 -0.2432 -0.1553
  109OSM   H16S11175  -0.585   2.795   5.796  1.2725 -1.0419  1.3687
  109OSM   H16T11176  -0.446   2.749   5.714 -1.4288 -0.6817 -1.3501
  109OSM   C17S11177  -0.538   2.934   5.633 -0.9050 -0.2174  0.2473
  109OSM   H17S11178  -0.445   2.980   5.595 -1.0857 -0.2867 -0.2923
  109OSM   H17T11179  -0.598   3.022   5.667 -0.0733  0.7665 -0.7732
  109OSM   C18S11180  -0.618   2.878   5.522  0.3493  0.0052  0.6121
  109OSM   H18S11181  -0.571   2.793   5.467  1.1351  0.6759  0.2203
  109OSM   H18T11182  -0.652   2.960   5.457 -1.2055  1.3260  2.9465
  109OSM   H18U11183  -0.708   2.829   5.564  0.4534 -0.2383  0.5540
  109OSM    C1F11184   0.025   3.240   7.005 -0.7833 -0.1301 -0.1274
  109OSM     OF11185   0.138   3.202   7.033  0.2167 -0.3048 -0.3797
  109OSM    C2F11186   0.002   3.326   6.885 -0.4922 -0.4504  0.3894
  109OSM    H2F11187  -0.099   3.369   6.895  0.4225  1.4926  1.8415
  109OSM    H2G11188   0.001   3.267   6.790 -2.4546  0.9978 -0.5461
  109OSM    C3F11189   0.098   3.446   6.854 -0.0159  0.5260  0.3056
  109OSM    H3F11190   0.204   3.414   6.849 -0.7253 -2.0831  0.3400
  109OSM    H3G11191   0.094   3.534   6.922 -3.2407  0.5942  0.1922
  109OSM    C4F11192   0.061   3.516   6.728  0.5163 -0.8060 -0.1330
  109OSM    H4F11193   0.024   3.444   6.652  0.4562 -0.1644 -0.7233
  109OSM    H4G11194   0.157   3.553   6.685  0.1951 -2.0206 -2.0062
  109OSM    C5F11195  -0.037   3.635   6.741 -0.4490  0.1614 -0.5808
  109OSM    H5F11196  -0.016   3.721   6.809 -3.6752 -0.1209  0.9571
  109OSM    H5G11197  -0.138   3.606   6.777 -1.0990  2.9480  0.0912
  109OSM    C6F11198  -0.070   3.694   6.600 -0.0201  0.0164 -0.4410
  109OSM    H6F11199  -0.105   3.612   6.534  0.8630  0.4471 -1.4738
  109OSM    H6G11200   0.018   3.738   6.547  0.3894  1.3274  1.2312
  109OSM    C7F11201  -0.170   3.810   6.600  0.0080  0.3770 -0.0837
  109OSM    H7F11202  -0.153   3.876   6.688  2.5622 -0.5618  0.2120
  109OSM    H7G11203  -0.271   3.769   6.623  0.1050 -0.0463 -0.4033
  109OSM    C8F11204  -0.176   3.904   6.473  0.3038 -0.2940 -0.3695
  109OSM    H8F11205  -0.221   3.842   6.392  0.8665 -0.7548 -0.3379
  109OSM    H8G11206  -0.069   3.923   6.448  0.4103  0.2380  0.4666
  109OSM    C9F11207  -0.256   4.032   6.503 -0.3725 -0.3172 -0.0080
  109OSM    H9F11208  -0.203   4.110   6.560 -1.5351  0.5741 -0.1145
  109OSM   C10F11209  -0.378   4.066   6.463  0.1876  0.2398  0.6274
  109OSM   H10F11210  -0.407   4.171   6.477 -1.1455 -0.0285  0.1079
  109OSM   C11F11211  -0.484   3.970   6.405  0.0833 -0.1097 -0.1682
  109OSM   H11F11212  -0.551   3.953   6.491  0.9441 -1.8026  0.2124
  109OSM   H11G11213  -0.458   3.863   6.392  0.5454  0.0705 -0.8462
  109OSM   C12F11214  -0.552   4.018   6.280  0.2342  0.2076  0.8933
  109OSM   H12F11215  -0.622   4.102   6.300 -1.5348 -1.2575  1.0764
  109OSM   H12G11216  -0.615   3.938   6.236  2.2088 -0.0885 -1.6785
  109OSM   C13F11217  -0.452   4.027   6.160  0.3326 -0.2908 -0.0253
  109OSM   H13F11218  -0.400   3.929   6.167  2.7245  1.0075  2.6294
  109OSM   H13G11219  -0.374   4.105   6.174 -2.2507  2.2835  1.0460
  109OSM   C14F11220  -0.509   4.027   6.013  1.0168 -0.0745 -0.2994
  109OSM   H14F11221  -0.542   4.131   5.993  0.5063 -0.1342  0.2005
  109OSM   H14G11222  -0.586   3.949   5.995  1.9009 -0.8204 -0.9555
  109OSM   C15F11223  -0.403   3.999   5.919  0.5324 -0.2236  0.4630
  109OSM   H15F11224  -0.347   3.904   5.935 -0.9456 -1.0091  1.1610
  109OSM   H15G11225  -0.323   4.074   5.935  1.8180 -1.3883 -0.2618
  109OSM   C16F11226  -0.448   4.005   5.770  0.3531 -0.3078 -0.6582
  109OSM   H16F11227  -0.539   3.940   5.766  1.0339 -1.2423 -1.8014
  109OSM   H16G11228  -0.368   3.970   5.701 -1.2726 -1.7145 -1.9363
  109OSM   C17F11229  -0.493   4.147   5.723 -0.4069 -0.1446  0.3991
  109OSM   H17F11230  -0.430   4.232   5.758 -1.4815  0.7246  0.2498
  109OSM   H17G11231  -0.592   4.162   5.771 -0.4767  0.7398 -0.0155
  109OSM   C18F11232  -0.510   4.154   5.572  0.9003 -0.4487 -0.7315
  109OSM   H18F11233  -0.584   4.078   5.541  2.2802 -2.4112  0.5564
  109OSM   H18G11234  -0.411   4.147   5.522  2.2955  4.4423  0.6972
  109OSM   H18H11235  -0.548   4.255   5.547  0.5174 -0.2159  0.6791
  110OSM      N11236   3.217   5.510   7.471 -0.2774  0.1588 -0.3146
  110OSM    C1511237   3.343   5.486   7.549  0.1577  0.5392 -0.4387
  110OSM   H15A11238   3.328   5.484   7.656  2.8145  0.7293  0.0045
  110OSM   H15B11239   3.415   5.565   7.533  0.5118  0.4816  0.7148
  110OSM   H15C11240   3.388   5.394   7.515  0.7568  0.5989  0.1700
  110OSM    C1411241   3.111   5.409   7.519  0.9759 -0.2040 -0.4400
  110OSM   H14A11242   3.031   5.412   7.447  1.0191  0.3535 -0.4665
  110OSM   H14B11243   3.066   5.435   7.613 -0.2585  1.9388 -1.5499
  110OSM   H14C11244   3.155   5.310   7.521 -0.0349 -0.6802 -0.9169
  110OSM    C1311245   3.168   5.648   7.487 -0.8338  0.2648  0.0537
  110OSM   H13A11246   3.068   5.667   7.452 -0.8539  1.2689  0.6230
  110OSM   H13B11247   3.235   5.727   7.455  0.8769 -1.5652 -1.1342
  110OSM   H13C11248   3.155   5.666   7.593 -0.8404 -0.1141  0.1201
  110OSM    C1211249   3.244   5.489   7.326 -0.1477  0.0390 -0.1253
  110OSM   H12A11250   3.290   5.392   7.314 -0.0622  0.1085 -0.3556
  110OSM   H12B11251   3.325   5.556   7.302 -0.0819 -0.2416 -0.7122
  110OSM    C1111252   3.137   5.495   7.222  0.1341  0.3724  0.6528
  110OSM   H11A11253   3.182   5.463   7.126 -1.7158  4.6064 -1.8822
  110OSM   H11B11254   3.105   5.600   7.209 -2.4150 -0.0900  2.4023
  110OSM      P11255   3.025   5.260   7.210  0.0832 -0.0767  0.0510
  110OSM    O1311256   2.983   5.178   7.324 -0.1464 -0.4783  0.2960
  110OSM    O1411257   2.946   5.255   7.090  0.5347 -0.5049 -0.2996
  110OSM    O1111258   3.176   5.222   7.175  0.3101 -0.2271 -0.1027
  110OSM    O1211259   3.020   5.413   7.247  0.3577 -0.0311 -0.1244
  110OSM    C1S11260   3.193   5.083   7.142  0.0374 -0.8090 -0.1900
  110OSM    H1S11261   3.128   5.009   7.194 -1.0405 -0.6667 -1.3003
  110OSM    H1T11262   3.297   5.055   7.171 -1.1291 -1.8027  3.5690
  110OSM     NF11263   3.212   4.917   6.965 -0.0449  0.2784  0.1669
  110OSM    HNF11264   3.309   4.894   6.951  0.2218 -0.7272  3.1451
  110OSM    C2S11265   3.189   5.055   6.985  0.1132  0.1217  0.4974
  110OSM    H2S11266   3.082   5.080   6.964  0.1112 -1.3478 -1.5475
  110OSM    C3S11267   3.279   5.151   6.899  0.3814 -0.2982  0.3067
  110OSM    H3S11268   3.385   5.142   6.929 -0.0924  0.5435  2.4309
  110OSM     O311269   3.243   5.285   6.902 -0.0555  0.1142 -0.5183
  110OSM    HO311270   3.193   5.293   6.983 -1.6559  2.3888 -1.6009
  110OSM    C4S11271   3.276   5.102   6.756 -0.3787  0.0868  0.2973
  110OSM    H4S11272   3.364   5.039   6.733 -1.0650 -0.9508  0.4677
  110OSM    C5S11273   3.179   5.118   6.653 -0.2858  0.0060 -0.3506
  110OSM    H5S11274   3.091   5.177   6.682 -1.2579 -0.6526 -1.8435
  110OSM    C6S11275   3.186   5.045   6.521  0.2896 -0.1232 -0.3657
  110OSM    H6S11276   3.098   4.981   6.501 -0.6061  1.2194 -0.8968
  110OSM    H6T11277   3.266   4.968   6.521  0.7090  0.2939  0.7999
  110OSM    C7S11278   3.211   5.153   6.415  0.0194  0.5035  0.8024
  110OSM    H7S11279   3.316   5.190   6.417 -0.5499  2.2097  0.8595
  110OSM    H7T11280   3.130   5.227   6.431 -0.6002 -0.6599  3.5274
  110OSM    C8S11281   3.183   5.098   6.268 -0.3283 -0.4004 -0.4404
  110OSM    H8S11282   3.078   5.060   6.259  0.4504 -2.9415  0.2613
  110OSM    H8T11283   3.258   5.017   6.255  0.4646  0.5672 -2.1288
  110OSM    C9S11284   3.192   5.208   6.162  0.1733  0.1253  0.2888
  110OSM    H9S11285   3.299   5.236   6.154  0.2950 -0.7962 -2.2032
  110OSM    H9T11286   3.137   5.299   6.196  1.0950  1.6020 -1.8980
  110OSM   C10S11287   3.137   5.165   6.025 -0.2855  0.1069 -0.1022
  110OSM   H10S11288   3.027   5.167   6.034 -0.5706 -2.0860 -2.2040
  110OSM   H10T11289   3.166   5.059   6.008  0.4847  0.1885  0.6364
  110OSM   C11S11290   3.193   5.244   5.905  0.0613 -0.6253 -0.7234
  110OSM   H11S11291   3.297   5.212   5.883  0.2223 -1.9086  1.5664
  110OSM   H11T11292   3.196   5.352   5.932  0.8346 -1.2716  2.1390
  110OSM   C12S11293   3.113   5.228   5.775  0.2992  0.6931 -0.6880
  110OSM   H12S11294   3.007   5.243   5.806  0.0729 -0.8372 -0.6498
  110OSM   H12T11295   3.120   5.120   5.751 -0.5413  0.5034 -0.1443
  110OSM   C13S11296   3.160   5.322   5.661  0.5331  0.3229 -0.1449
  110OSM   H13S11297   3.267   5.307   5.637 -0.1460 -1.3148 -2.4216
  110OSM   H13T11298   3.132   5.426   5.691 -1.5451 -0.3618  0.4917
  110OSM   C14S11299   3.082   5.298   5.529  0.0508  0.3239 -0.5603
  110OSM   H14S11300   2.975   5.277   5.553  0.8093 -2.2688  1.0731
  110OSM   H14T11301   3.124   5.208   5.479 -0.2774 -0.4514  0.5034
  110OSM   C15S11302   3.086   5.415   5.431 -0.5537 -0.3535 -0.0227
  110OSM   H15S11303   3.022   5.495   5.475  0.3317 -0.1821  1.0215
  110OSM   H15T11304   3.031   5.387   5.339  0.0376 -0.9013 -0.2183
  110OSM   C16S11305   3.231   5.471   5.397  0.5858  0.9398 -0.2573
  110OSM   H16S11306   3.276   5.527   5.482  1.9716 -2.0584  1.1423
  110OSM   H16T11307   3.206   5.551   5.325 -2.5945 -0.2539 -0.6818
  110OSM   C17S11308   3.324   5.352   5.355  0.0173 -0.1870  0.0848
  110OSM   H17S11309   3.287   5.307   5.260  2.2571  1.0415 -1.4556
  110OSM   H17T11310   3.318   5.270   5.430 -1.5773 -1.8796 -1.7533
  110OSM   C18S11311   3.458   5.408   5.342 -0.0456  0.0340 -0.1168
  110OSM   H18S11312   3.521   5.330   5.294 -1.8036 -2.1219  0.9380
  110OSM   H18T11313   3.506   5.433   5.439 -0.2624  0.6883 -0.1751
  110OSM   H18U11314   3.453   5.496   5.275  0.0677 -0.3411 -0.6226
  110OSM    C1F11315   3.119   4.824   6.984 -0.1001 -0.8078 -0.1796
  110OSM     OF11316   3.003   4.857   6.989  0.1089  0.0044  0.5409
  110OSM    C2F11317   3.168   4.686   7.022  0.5135  0.1926 -0.5192
  110OSM    H2F11318   3.160   4.677   7.132 -1.1963  0.1394 -0.6166
  110OSM    H2G11319   3.274   4.670   6.993  0.8882 -1.2238  1.4102
  110OSM    C3F11320   3.082   4.570   6.960 -0.6566  0.0015  0.1850
  110OSM    H3F11321   2.981   4.575   7.006 -0.3282 -0.7834  1.0381
  110OSM    H3G11322   3.132   4.478   6.998  0.2852  0.8370  0.9982
  110OSM    C4F11323   3.081   4.576   6.811  0.0841  0.5987  0.4358
  110OSM    H4F11324   3.187   4.590   6.780  0.7642  0.6444  2.6665
  110OSM    H4G11325   3.015   4.663   6.788 -1.8790 -0.5352  1.5580
  110OSM    C5F11326   3.032   4.438   6.750  0.2015  0.2276  0.1795
  110OSM    H5F11327   2.949   4.393   6.809  0.3590 -0.6110 -0.2209
  110OSM    H5G11328   3.101   4.356   6.783  1.3280  0.5671 -1.2400
  110OSM    C6F11329   3.017   4.435   6.599 -0.0330 -1.0219  0.5180
  110OSM    H6F11330   3.117   4.444   6.552 -1.0373 -1.8937 -1.9600
  110OSM    H6G11331   2.966   4.531   6.578  0.0618 -0.8029  1.2523
  110OSM    C7F11332   2.936   4.316   6.545 -0.3293  0.1521  0.4745
  110OSM    H7F11333   2.833   4.337   6.582 -0.0005  0.1499  1.4341
  110OSM    H7G11334   2.969   4.221   6.593 -0.8414 -0.3852 -0.2212
  110OSM    C8F11335   2.911   4.309   6.396 -0.5325  0.0623 -0.6483
  110OSM    H8F11336   2.853   4.400   6.372 -0.2228  0.5459  0.3813
  110OSM    H8G11337   2.857   4.216   6.368  0.7501 -0.8177 -0.2880
  110OSM    C9F11338   3.043   4.310   6.321  0.1010  0.7664  0.1108
  110OSM    H9F11339   3.126   4.261   6.373 -1.0206  0.2674  1.4995
  110OSM   C10F11340   3.054   4.339   6.193  0.0206  0.1292 -0.7294
  110OSM   H10F11341   3.155   4.346   6.149  0.4299  0.0183  0.1767
  110OSM   C11F11342   2.947   4.393   6.102  0.6048  0.7671  0.2521
  110OSM   H11F11343   2.988   4.454   6.018  0.3790  2.4737  1.3291
  110OSM   H11G11344   2.881   4.456   6.166 -2.7210 -1.8188 -0.3281
  110OSM   C12F11345   2.846   4.286   6.048  0.2683  0.4662  0.8033
  110OSM   H12F11346   2.777   4.261   6.131 -2.9594  0.5473 -1.6593
  110OSM   H12G11347   2.900   4.200   6.002 -0.3370  0.6830 -0.3731
  110OSM   C13F11348   2.751   4.329   5.944 -0.0937 -0.7565  0.3255
  110OSM   H13F11349   2.699   4.421   5.978  0.2512  0.5290 -2.4162
  110OSM   H13G11350   2.673   4.251   5.931 -0.4256 -0.5728  1.1398
  110OSM   C14F11351   2.813   4.354   5.797  0.4377  0.1551  0.6172
  110OSM   H14F11352   2.860   4.259   5.765 -0.6711 -0.2468  0.1258
  110OSM   H14G11353   2.888   4.436   5.800 -0.7377  1.2450  1.3244
  110OSM   C15F11354   2.712   4.366   5.692  0.7029 -0.2860  0.6243
  110OSM   H15F11355   2.649   4.458   5.701  0.3931 -0.4919  0.5929
  110OSM   H15G11356   2.643   4.280   5.702  0.4081 -0.1585 -0.2024
  110OSM   C16F11357   2.763   4.360   5.539 -0.9154 -0.4005 -0.4317
  110OSM   H16F11358   2.817   4.263   5.531 -1.2845 -0.5986 -0.5158
  110OSM   H16G11359   2.818   4.454   5.514 -2.5902  0.6444 -0.3343
  110OSM   C17F11360   2.655   4.352   5.430  0.6850 -0.3815 -1.0993
  110OSM   H17F11361   2.569   4.414   5.464  0.8226  0.9146 -2.9651
  110OSM   H17G11362   2.621   4.247   5.435  1.6400 -0.6664  0.1618
  110OSM   C18F11363   2.688   4.392   5.290  0.1244  0.6750  0.0174
  110OSM   H18F11364   2.767   4.335   5.237 -0.6317  1.1381 -1.6598
  110OSM   H18G11365   2.713   4.499   5.282 -0.0516  0.5877 -2.6645
  110OSM   H18H11366   2.598   4.378   5.226 -0.0184  0.2462  0.3050
  111OSM      N11367   5.882   3.192   7.545 -0.5483 -0.0657 -0.0226
  111OSM    C1511368   5.943   3.247   7.669 -0.7591 -0.2730  0.4287
  111OSM   H15A11369   5.874   3.299   7.734 -0.1026 -0.0826  0.9775
  111OSM   H15B11370   6.022   3.318   7.651 -1.9662  0.8137 -0.8082
  111OSM   H15C11371   5.993   3.163   7.714 -1.7714 -0.6849  0.8074
  111OSM    C1411372   5.983   3.119   7.470  0.7741 -0.4974  0.3406
  111OSM   H14A11373   6.059   3.081   7.538  0.1642 -1.4763  0.4986
  111OSM   H14B11374   6.028   3.186   7.398  1.0388 -1.6371 -0.5865
  111OSM   H14C11375   5.953   3.032   7.414  3.9863 -1.9541  0.6400
  111OSM    C1311376   5.776   3.096   7.589 -0.0352  0.1143 -0.1034
  111OSM   H13A11377   5.814   3.037   7.671 -2.6380  1.0178  1.8725
  111OSM   H13B11378   5.746   3.025   7.513 -1.7712  0.4214  0.2637
  111OSM   H13C11379   5.684   3.132   7.632 -1.2119 -3.1622  0.3668
  111OSM    C1211380   5.818   3.297   7.451 -0.0500  0.4912  0.4092
  111OSM   H12A11381   5.725   3.329   7.495 -1.9020 -0.1584 -2.7329
  111OSM   H12B11382   5.780   3.243   7.366  0.8177  0.6142 -0.0758
  111OSM    C1111383   5.907   3.404   7.386 -0.7696 -0.0913  0.4316
  111OSM   H11A11384   5.961   3.458   7.467  0.6072  0.1359 -0.6161
  111OSM   H11B11385   5.845   3.483   7.339 -0.8360 -0.5124 -0.2000
  111OSM      P11386   6.107   3.422   7.215  0.3813  0.2989  0.0961
  111OSM    O1311387   6.075   3.565   7.231  0.4994 -0.0534 -0.5361
  111OSM    O1411388   6.234   3.373   7.260 -0.1204 -0.5268 -0.1714
  111OSM    O1111389   6.084   3.374   7.066  0.2000  0.4328 -0.0545
  111OSM    O1211390   5.991   3.344   7.287 -0.1884 -0.1653 -0.0781
  111OSM    C1S11391   5.982   3.263   7.045  0.2017 -0.7001  0.2817
  111OSM    H1S11392   5.882   3.307   7.063  0.0698 -0.2889 -1.3353
  111OSM    H1T11393   5.989   3.177   7.115  1.0620 -1.5180 -0.7762
  111OSM     NF11394   5.848   3.150   6.853 -0.9169 -0.3885  0.0361
  111OSM    HNF11395   5.848   3.051   6.869  0.1409 -0.5605 -0.8664
  111OSM    C2S11396   5.975   3.216   6.891  0.0684  0.0225 -0.2935
  111OSM    H2S11397   5.977   3.311   6.833  3.8042 -0.4095 -1.1539
  111OSM    C3S11398   6.101   3.127   6.866 -0.2259 -0.1837  0.1881
  111OSM    H3S11399   6.097   3.034   6.927 -0.9692 -0.3752 -0.1512
  111OSM     O311400   6.228   3.193   6.887 -0.3186 -0.8875  0.0766
  111OSM    HO311401   6.208   3.276   6.931  0.9062 -0.9578  0.7974
  111OSM    C4S11402   6.111   3.085   6.723  0.1345 -0.4277 -0.0461
  111OSM    H4S11403   6.135   3.159   6.645 -2.5171 -0.1803 -0.7558
  111OSM    C5S11404   6.091   2.960   6.686 -0.0640  0.7513  0.4517
  111OSM    H5S11405   6.070   2.884   6.762  0.8662 -0.5057 -0.4968
  111OSM    C6S11406   6.111   2.911   6.544 -0.2181  0.0972  0.7371
  111OSM    H6S11407   6.047   2.822   6.530 -0.7992  0.8894 -2.5830
  111OSM    H6T11408   6.217   2.878   6.542 -0.6542 -1.3775  1.0151
  111OSM    C7S11409   6.076   3.014   6.440 -0.3170  0.3126  0.4247
  111OSM    H7S11410   6.150   3.096   6.433  1.7758 -1.6123 -2.7303
  111OSM    H7T11411   5.978   3.057   6.471 -0.7708  0.6398 -1.3686
  111OSM    C8S11412   6.058   2.948   6.296  0.5165 -0.7881 -0.7233
  111OSM    H8S11413   5.975   2.874   6.299  0.0611 -0.2661 -0.1789
  111OSM    H8T11414   6.151   2.900   6.260  0.6150 -0.5454 -0.7948
  111OSM    C9S11415   6.015   3.061   6.205 -0.7792  0.1294  0.0422
  111OSM    H9S11416   6.075   3.153   6.224  0.0999 -0.2892 -0.6408
  111OSM    H9T11417   5.913   3.080   6.243 -0.2713 -1.0018  2.1141
  111OSM   C10S11418   5.991   3.021   6.060 -0.7890  0.1011 -0.4934
  111OSM   H10S11419   5.904   2.952   6.057 -0.2181 -0.7607  1.4099
  111OSM   H10T11420   6.067   2.951   6.017 -2.8063 -2.5931  0.0652
  111OSM   C11S11421   5.956   3.143   5.970 -0.5228 -0.2979 -0.0492
  111OSM   H11S11422   6.040   3.212   5.993 -0.6823 -0.3075  0.5757
  111OSM   H11T11423   5.866   3.201   6.000  0.1007 -0.2668  1.9065
  111OSM   C12S11424   5.947   3.113   5.824 -0.1851  0.8327 -1.2547
  111OSM   H12S11425   5.863   3.044   5.803 -0.2952  0.8454 -0.8725
  111OSM   H12T11426   6.042   3.066   5.790  2.9035  1.8158  4.5984
  111OSM   C13S11427   5.920   3.247   5.741  0.3663  0.2559 -0.5110
  111OSM   H13S11428   6.012   3.310   5.743  0.9658 -0.4639  3.5396
  111OSM   H13T11429   5.835   3.306   5.781  2.4283  0.4502  4.3481
  111OSM   C14S11430   5.899   3.209   5.592 -0.8854  0.5876 -0.9654
  111OSM   H14S11431   5.814   3.141   5.572  0.2396 -0.4816 -2.2325
  111OSM   H14T11432   5.987   3.153   5.553  1.5425  4.1655 -1.1128
  111OSM   C15S11433   5.889   3.331   5.504  0.7530  0.1988  0.3215
  111OSM   H15S11434   5.969   3.402   5.537  1.1295  0.5164 -1.1805
  111OSM   H15T11435   5.795   3.388   5.519  0.4442  0.9606 -3.3711
  111OSM   C16S11436   5.884   3.309   5.350  0.4921  0.3878 -0.2231
  111OSM   H16S11437   5.793   3.246   5.341  0.2696  0.6919 -0.0960
  111OSM   H16T11438   5.971   3.257   5.303  3.8719  5.1263  0.0977
  111OSM   C17S11439   5.858   3.438   5.270  0.0495 -0.2691 -0.3129
  111OSM   H17S11440   5.938   3.508   5.302  0.3314 -0.6094 -0.2651
  111OSM   H17T11441   5.766   3.483   5.315 -1.1774 -1.0370 -1.9467
  111OSM   C18S11442   5.841   3.415   5.120 -0.8903  0.2431 -0.2965
  111OSM   H18S11443   5.895   3.328   5.077 -0.0548 -0.9199  2.8169
  111OSM   H18T11444   5.869   3.507   5.065  2.4897 -0.2536  0.3608
  111OSM   H18U11445   5.733   3.398   5.099 -1.0199 -2.6692  2.0397
  111OSM    C1F11446   5.733   3.209   6.849 -0.2403 -0.3552 -0.1679
  111OSM     OF11447   5.725   3.331   6.843 -0.2911  0.3766  0.1406
  111OSM    C2F11448   5.609   3.128   6.854  0.9879  0.0584 -0.1363
  111OSM    H2F11449   5.559   3.152   6.950  0.8212  2.6080 -0.7764
  111OSM    H2G11450   5.640   3.021   6.863  0.5654  0.0704  1.8765
  111OSM    C3F11451   5.521   3.148   6.732 -0.9983 -0.1954 -0.6982
  111OSM    H3F11452   5.501   3.257   6.726 -0.9936 -0.2545 -1.9157
  111OSM    H3G11453   5.426   3.091   6.743 -1.8571  0.9211 -2.0643
  111OSM    C4F11454   5.589   3.107   6.595  0.1968 -0.2328 -0.5530
  111OSM    H4F11455   5.627   3.003   6.604  3.5688  1.0389  1.7449
  111OSM    H4G11456   5.669   3.178   6.566  1.2422 -1.8275 -1.7529
  111OSM    C5F11457   5.484   3.112   6.481 -0.0292  1.0036  0.6597
  111OSM    H5F11458   5.427   3.206   6.500 -1.4957  0.0411  1.2005
  111OSM    H5G11459   5.400   3.041   6.493 -2.5150  3.4527 -0.9428
  111OSM    C6F11460   5.541   3.110   6.342  0.2224 -0.8514 -0.0365
  111OSM    H6F11461   5.611   3.025   6.332  0.7641 -0.3368 -0.6950
  111OSM    H6G11462   5.603   3.201   6.324  0.8423 -1.0070  1.1904
  111OSM    C7F11463   5.451   3.087   6.215  0.3396 -0.1056 -0.5866
  111OSM    H7F11464   5.402   3.186   6.205 -0.9566 -0.5633  0.8402
  111OSM    H7G11465   5.371   3.011   6.212 -0.4720  0.6925  0.2913
  111OSM    C8F11466   5.542   3.067   6.089  0.7913  0.4227  0.2433
  111OSM    H8F11467   5.472   3.036   6.009  0.9905  0.9136 -0.1208
  111OSM    H8G11468   5.602   2.975   6.107 -1.8462 -1.2098  1.2477
  111OSM    C9F11469   5.618   3.189   6.046  0.6723  0.1937  0.4608
  111OSM    H9F11470   5.703   3.221   6.107 -1.3541  0.7629  3.1793
  111OSM   C10F11471   5.594   3.255   5.931 -0.1304 -0.0267  0.6552
  111OSM   H10F11472   5.670   3.329   5.900 -1.7299  1.1934 -0.5548
  111OSM   C11F11473   5.478   3.248   5.833 -0.5572  0.0134  0.1907
  111OSM   H11F11474   5.451   3.352   5.805  1.1904 -0.0047 -1.7971
  111OSM   H11G11475   5.387   3.188   5.856 -0.7978 -0.5272 -1.9455
  111OSM   C12F11476   5.515   3.190   5.697  0.1848  0.1901  0.4294
  111OSM   H12F11477   5.485   3.083   5.695 -0.0659  0.2566  0.5205
  111OSM   H12G11478   5.625   3.198   5.684 -0.1109  1.4311 -1.7930
  111OSM   C13F11479   5.459   3.265   5.570 -0.4061 -0.0771 -0.0756
  111OSM   H13F11480   5.493   3.370   5.566 -0.0507 -0.0103  2.4834
  111OSM   H13G11481   5.348   3.268   5.563 -0.3168  0.2718 -1.6782
  111OSM   C14F11482   5.505   3.196   5.442  0.1305 -0.2340  0.2666
  111OSM   H14F11483   5.452   3.098   5.447 -1.7025  0.7229  0.6272
  111OSM   H14G11484   5.615   3.182   5.437 -0.1549 -2.7011 -0.8066
  111OSM   C15F11485   5.452   3.275   5.322 -0.5202 -0.6794  0.9889
  111OSM   H15F11486   5.479   3.383   5.319  0.1668 -0.8650 -0.7615
  111OSM   H15G11487   5.341   3.267   5.322 -0.4769 -1.5418 -0.1504
  111OSM   C16F11488   5.485   3.211   5.178  0.6124  0.1148 -0.6879
  111OSM   H16F11489   5.478   3.101   5.190  3.3177 -0.0451  0.0987
  111OSM   H16G11490   5.592   3.227   5.153  0.7416  0.2420 -0.0885
  111OSM   C17F11491   5.389   3.260   5.069  0.2619  0.7285 -0.1369
  111OSM   H17F11492   5.287   3.220   5.089  0.8720 -0.2188  1.1646
  111OSM   H17G11493   5.427   3.213   4.976 -0.2452  1.7468 -0.8874
  111OSM   C18F11494   5.393   3.410   5.045  0.5849 -0.4747 -0.4358
  111OSM   H18F11495   5.359   3.466   5.135  0.2612 -0.1368 -0.7685
  111OSM   H18G11496   5.329   3.431   4.957 -0.9796 -3.6650 -0.2122
  111OSM   H18H11497   5.497   3.442   5.025  0.6010  1.0115  1.6970
  112OSM      N11498   1.541   0.698   7.645 -0.4959  0.4853 -0.1452
  112OSM    C1511499   1.681   0.704   7.609 -0.4237 -0.3892  0.2763
  112OSM   H15A11500   1.702   0.805   7.577 -1.3524 -0.6013 -1.0807
  112OSM   H15B11501   1.694   0.642   7.522 -0.4388  0.9323 -0.7039
  112OSM   H15C11502   1.748   0.663   7.684 -1.2944 -1.1060  0.6871
  112OSM    C1411503   1.513   0.561   7.696 -0.0677 -0.3494 -0.6165
  112OSM   H14A11504   1.563   0.549   7.790  1.0210  2.0018 -0.8181
  112OSM   H14B11505   1.539   0.485   7.624  0.2938 -1.3779  0.5599
  112OSM   H14C11506   1.408   0.558   7.724 -0.3949 -2.4658 -1.8691
  112OSM    C1311507   1.529   0.798   7.752 -1.0348 -0.2471  0.2626
  112OSM   H13A11508   1.624   0.783   7.801 -1.3215 -2.7938  0.1359
  112OSM   H13B11509   1.447   0.790   7.822 -0.3593 -4.4447  0.8304
  112OSM   H13C11510   1.540   0.899   7.715  2.4378 -1.2729 -2.0401
  112OSM    C1211511   1.447   0.730   7.531  0.2345 -0.2962  0.0466
  112OSM   H12A11512   1.484   0.822   7.487 -1.7008  0.6123  0.2187
  112OSM   H12B11513   1.349   0.743   7.574  1.5567  0.1604  3.2152
  112OSM    C1111514   1.441   0.617   7.419  0.5376  0.2528 -0.2075
  112OSM   H11A11515   1.391   0.665   7.332 -0.3480 -0.4059 -0.0650
  112OSM   H11B11516   1.372   0.541   7.461 -0.5711  1.3772  0.0581
  112OSM      P11517   1.614   0.548   7.240 -0.2300 -0.0223  0.4524
  112OSM    O1311518   1.733   0.465   7.234 -0.1445  0.3054 -0.0367
  112OSM    O1411519   1.501   0.510   7.149  0.2859  0.5414  0.0281
  112OSM    O1111520   1.654   0.706   7.216 -0.1165  0.4019  0.0194
  112OSM    O1211521   1.568   0.552   7.390  0.4645  0.3893 -0.7278
  112OSM    C1S11522   1.735   0.751   7.108  0.3732 -0.2089  0.1844
  112OSM    H1S11523   1.828   0.694   7.088  0.8270  0.9887 -1.3315
  112OSM    H1T11524   1.769   0.852   7.142 -0.3264 -0.0110  0.3024
  112OSM     NF11525   1.752   0.825   6.871 -0.0531 -0.6345  0.1695
  112OSM    HNF11526   1.741   0.916   6.833  0.3349  0.2768  2.0994
  112OSM    C2S11527   1.659   0.787   6.974 -0.1956 -0.0882 -0.6092
  112OSM    H2S11528   1.613   0.689   6.949 -0.6240 -0.1663  0.4558
  112OSM    C3S11529   1.541   0.879   6.999  0.2331 -0.2381 -0.0493
  112OSM    H3S11530   1.589   0.976   7.025 -1.3774  0.7795 -0.7493
  112OSM     O311531   1.459   0.843   7.112  0.2085  0.6065  0.0562
  112OSM    HO311532   1.514   0.807   7.182 -0.6450  1.8271  1.4344
  112OSM    C4S11533   1.453   0.917   6.864  0.1277  0.2491 -0.9739
  112OSM    H4S11534   1.474   1.013   6.815  1.3150  1.1374  1.1384
  112OSM    C5S11535   1.353   0.842   6.804  0.1968  0.3617 -0.1479
  112OSM    H5S11536   1.316   0.754   6.858  1.9878  0.4855  1.3711
  112OSM    C6S11537   1.277   0.897   6.680 -0.3560  0.0076 -0.4050
  112OSM    H6S11538   1.238   0.998   6.705  2.3419  1.2125 -0.7110
  112OSM    H6T11539   1.187   0.834   6.668 -0.5313 -0.5105  2.7274
  112OSM    C7S11540   1.360   0.908   6.551 -0.1813 -0.4379 -0.9551
  112OSM    H7S11541   1.418   0.816   6.528  2.6342  1.0775 -0.4977
  112OSM    H7T11542   1.438   0.987   6.568  0.0737 -0.6421 -1.1697
  112OSM    C8S11543   1.288   0.940   6.418  0.1223 -0.2922  0.1098
  112OSM    H8S11544   1.230   1.033   6.436  2.2811  1.0754  0.3230
  112OSM    H8T11545   1.229   0.850   6.391  0.9112 -0.7328 -0.1780
  112OSM    C9S11546   1.379   0.974   6.300 -0.2436 -0.0351 -0.1275
  112OSM    H9S11547   1.477   0.922   6.309  1.5570  3.3753  2.5911
  112OSM    H9T11548   1.402   1.082   6.308 -0.5147 -0.0076  0.3155
  112OSM   C10S11549   1.319   0.946   6.158 -0.4073 -0.3566  0.0973
  112OSM   H10S11550   1.246   0.862   6.157  0.1654 -0.8655  0.2503
  112OSM   H10T11551   1.407   0.925   6.093 -2.0810  1.3607 -2.9163
  112OSM   C11S11552   1.251   1.068   6.098 -0.4517 -0.2263  0.0354
  112OSM   H11S11553   1.318   1.155   6.086 -1.5162  0.4569 -1.1567
  112OSM   H11T11554   1.178   1.098   6.176 -0.3920 -1.8048  0.7333
  112OSM   C12S11555   1.198   1.045   5.954 -0.4282 -0.2414  0.4759
  112OSM   H12S11556   1.124   1.124   5.931  2.0714  1.8906 -0.7219
  112OSM   H12T11557   1.142   0.949   5.945  0.3023 -0.7177  0.9508
  112OSM   C13S11558   1.313   1.037   5.850 -0.2817  0.5054 -0.6294
  112OSM   H13S11559   1.393   0.975   5.895  0.3040  2.3769  1.0649
  112OSM   H13T11560   1.376   1.128   5.862 -1.3562  1.1369  0.4223
  112OSM   C14S11561   1.269   0.998   5.704  0.1001  0.2065  0.1517
  112OSM   H14S11562   1.354   1.009   5.634 -1.2610 -1.3245 -1.8559
  112OSM   H14T11563   1.192   1.071   5.670  0.2205  0.3459  0.1786
  112OSM   C15S11564   1.216   0.856   5.679 -0.3781 -0.2037 -0.4341
  112OSM   H15S11565   1.128   0.842   5.746  0.2074  1.8904  0.8615
  112OSM   H15T11566   1.298   0.791   5.717 -0.2638  0.1406 -0.0903
  112OSM   C16S11567   1.161   0.836   5.535 -0.1186 -0.7965  0.7135
  112OSM   H16S11568   1.145   0.728   5.518 -0.3079 -0.7266  0.4269
  112OSM   H16T11569   1.243   0.853   5.462 -0.7239 -4.5647 -1.0668
  112OSM   C17S11570   1.035   0.917   5.500  0.9551 -0.6568 -0.4556
  112OSM   H17S11571   1.037   1.024   5.531  0.3565 -0.8226  0.2081
  112OSM   H17T11572   0.952   0.878   5.564  0.7434 -0.4120 -0.5781
  112OSM   C18S11573   0.993   0.913   5.353 -0.7390  0.0060  0.5325
  112OSM   H18S11574   0.906   0.975   5.323  0.2524  0.0853 -2.5352
  112OSM   H18T11575   0.950   0.812   5.336 -3.3894  1.1380 -0.1898
  112OSM   H18U11576   1.073   0.934   5.279 -2.2316 -1.3083 -1.6076
  112OSM    C1F11577   1.862   0.765   6.833  0.0889 -0.5062 -0.8699
  112OSM     OF11578   1.886   0.645   6.858  0.4289  0.1507  0.3448
  112OSM    C2F11579   1.966   0.858   6.769  0.6528  0.4102 -0.8879
  112OSM    H2F11580   2.056   0.868   6.833  0.8727  0.9587 -1.2764
  112OSM    H2G11581   1.921   0.959   6.767  0.5436  0.3540 -1.8812
  112OSM    C3F11582   2.018   0.812   6.633 -0.1438 -0.1712  0.7227
  112OSM    H3F11583   1.936   0.835   6.561 -0.4070 -0.2046  1.0058
  112OSM    H3G11584   2.050   0.706   6.626 -2.0180 -0.6696 -4.0007
  112OSM    C4F11585   2.142   0.900   6.593 -0.5222 -0.0056 -0.0598
  112OSM    H4F11586   2.198   0.890   6.689 -1.9504 -1.9523  0.6448
  112OSM    H4G11587   2.106   1.004   6.578 -1.1145 -0.2452 -0.3603
  112OSM    C5F11588   2.230   0.847   6.477 -0.0076 -0.3752 -0.0524
  112OSM    H5F11589   2.269   0.748   6.510 -2.3965 -0.5786  2.4957
  112OSM    H5G11590   2.315   0.918   6.464 -0.2151 -0.3251 -1.1748
  112OSM    C6F11591   2.167   0.810   6.346 -0.1466  0.2660  0.0840
  112OSM    H6F11592   2.111   0.898   6.308 -1.4169 -0.7496 -0.4885
  112OSM    H6G11593   2.091   0.729   6.358  1.0924 -1.1032 -0.8727
  112OSM    C7F11594   2.259   0.749   6.233 -0.0567  0.1071 -0.3107
  112OSM    H7F11595   2.327   0.671   6.274  1.3226  1.1553 -0.5198
  112OSM    H7G11596   2.327   0.827   6.192  0.5415  0.0418  0.5363
  112OSM    C8F11597   2.173   0.701   6.115 -0.3796 -0.0607 -0.3959
  112OSM    H8F11598   2.108   0.621   6.156 -0.9723 -0.0892 -1.3765
  112OSM    H8G11599   2.248   0.657   6.046 -1.1310 -1.3640 -0.4147
  112OSM    C9F11600   2.091   0.807   6.046  0.2719 -0.1068 -0.4449
  112OSM    H9F11601   2.004   0.847   6.101 -0.3800 -2.2162  0.1556
  112OSM   C10F11602   2.112   0.846   5.916  0.2289  0.1333  0.1028
  112OSM   H10F11603   2.039   0.919   5.877 -1.5305 -0.1278  2.6780
  112OSM   C11F11604   2.221   0.798   5.822  0.0661 -0.2621  0.1629
  112OSM   H11F11605   2.293   0.730   5.872  0.7491  0.8372  0.7224
  112OSM   H11G11606   2.282   0.882   5.781  1.2038 -1.2115 -0.1261
  112OSM   C12F11607   2.152   0.726   5.704 -0.5181 -0.5537 -0.1924
  112OSM   H12F11608   2.238   0.720   5.634  0.2975 -0.4036  0.7779
  112OSM   H12G11609   2.072   0.787   5.656 -1.4819 -2.2992 -0.8733
  112OSM   C13F11610   2.097   0.582   5.731 -1.2510 -0.4389  0.0703
  112OSM   H13F11611   2.037   0.568   5.824 -1.0650  1.7064  0.5650
  112OSM   H13G11612   2.190   0.526   5.755 -1.2794 -1.4247 -1.9913
  112OSM   C14F11613   2.032   0.525   5.611 -0.8403  0.4277 -0.4171
  112OSM   H14F11614   2.090   0.532   5.517 -2.3615 -0.4233 -1.4510
  112OSM   H14G11615   1.941   0.585   5.594  0.4821  2.4480 -0.6655
  112OSM   C15F11616   1.995   0.383   5.629 -0.4149  0.8189  0.3215
  112OSM   H15F11617   1.909   0.371   5.699 -2.0497  3.5660 -1.0689
  112OSM   H15G11618   2.087   0.323   5.647  0.8355  2.8457  1.0478
  112OSM   C16F11619   1.953   0.324   5.493  0.1477 -0.0870  0.3940
  112OSM   H16F11620   2.047   0.311   5.435  0.4872 -2.2821  1.3482
  112OSM   H16G11621   1.889   0.391   5.431 -0.7555 -0.6372  0.7219
  112OSM   C17F11622   1.890   0.185   5.497  0.5202 -0.0799  0.3726
  112OSM   H17F11623   1.795   0.200   5.553  0.4307  1.3257 -0.1334
  112OSM   H17G11624   1.955   0.124   5.563 -0.8642 -1.1435  0.8297
  112OSM   C18F11625   1.877   0.110   5.361 -0.4474 -0.2231  0.1029
  112OSM   H18F11626   1.769   0.091   5.345 -0.2102 -0.0680 -1.8937
  112OSM   H18G11627   1.938   0.016   5.365  1.2579  0.8703  2.5754
  112OSM   H18H11628   1.911   0.168   5.273 -1.0605 -0.4927 -0.3164
  113OSM      N11629   6.315   2.708   7.423  0.0281  0.4742 -0.0755
  113OSM    C1511630   6.431   2.773   7.491 -0.3490  0.0805  0.0422
  113OSM   H15A11631   6.459   2.859   7.432 -4.0888  1.5254  0.1379
  113OSM   H15B11632   6.520   2.711   7.491  2.2524  3.4205  2.2070
  113OSM   H15C11633   6.417   2.797   7.595  2.5761 -0.1619  0.5979
  113OSM    C1411634   6.201   2.800   7.428 -1.0478 -0.1651 -0.3953
  113OSM   H14A11635   6.175   2.831   7.528  0.1624 -2.0779  0.5795
  113OSM   H14B11636   6.119   2.742   7.386 -0.0863 -4.3803  2.9316
  113OSM   H14C11637   6.220   2.880   7.358 -0.7483 -1.8375 -2.3193
  113OSM    C1311638   6.349   2.681   7.276  0.1772  0.5041  0.0996
  113OSM   H13A11639   6.424   2.604   7.268  0.7225  1.2138 -2.4913
  113OSM   H13B11640   6.398   2.766   7.230  1.6907 -0.1464  0.4806
  113OSM   H13C11641   6.261   2.655   7.219  1.5854  0.8749 -2.4344
  113OSM    C1211642   6.276   2.581   7.491  0.1129 -0.1583  0.0471
  113OSM   H12A11643   6.235   2.611   7.586 -2.2286  2.4813 -1.6208
  113OSM   H12B11644   6.369   2.532   7.516  1.5832  1.8656 -1.2075
  113OSM    C1111645   6.190   2.479   7.421 -0.4354  0.2155 -0.1106
  113OSM   H11A11646   6.175   2.394   7.491 -0.4128  0.4338  0.1609
  113OSM   H11B11647   6.250   2.435   7.338 -0.0854  1.5844 -0.6032
  113OSM      P11648   5.992   2.532   7.234 -0.8719 -0.0329 -0.0218
  113OSM    O1311649   5.913   2.408   7.208  0.1210 -0.2569 -0.0759
  113OSM    O1411650   5.915   2.660   7.241 -0.5071  0.0113 -0.0464
  113OSM    O1111651   6.112   2.538   7.137 -0.5153 -0.1947  0.3189
  113OSM    O1211652   6.068   2.524   7.371  0.5116 -0.4896 -0.1022
  113OSM    C1S11653   6.157   2.424   7.059  0.1520  0.2916 -0.4483
  113OSM    H1S11654   6.146   2.322   7.103  2.6650 -0.0588 -0.4793
  113OSM    H1T11655   6.265   2.446   7.062  0.3204 -0.1702  4.5744
  113OSM     NF11656   6.166   2.320   6.837 -0.3191 -0.1068 -1.1321
  113OSM    HNF11657   6.230   2.356   6.770 -1.4282  0.6784 -1.7999
  113OSM    C2S11658   6.101   2.424   6.915  0.3825  0.1974 -0.7204
  113OSM    H2S11659   5.992   2.406   6.925  0.3418 -0.6272 -2.3923
  113OSM    C3S11660   6.111   2.558   6.847 -0.6281 -0.0234  0.7127
  113OSM    H3S11661   6.218   2.589   6.854 -0.2249 -0.9585 -0.8440
  113OSM     O311662   6.028   2.656   6.905  0.2767 -0.3769 -0.0466
  113OSM    HO311663   6.008   2.620   6.991  1.7386 -0.2951  0.3610
  113OSM    C4S11664   6.080   2.546   6.701  0.1071  0.0476  0.2080
  113OSM    H4S11665   5.972   2.528   6.696 -0.1938  1.9131 -0.7461
  113OSM    C5S11666   6.162   2.538   6.591  0.1099 -0.3738 -0.5433
  113OSM    H5S11667   6.267   2.558   6.613 -0.5831  0.8118  2.1003
  113OSM    C6S11668   6.133   2.529   6.443 -0.1767 -0.0102  0.3714
  113OSM    H6S11669   6.027   2.559   6.431 -0.1735 -0.1084  0.0693
  113OSM    H6T11670   6.131   2.424   6.405  0.9373  0.5573 -1.3983
  113OSM    C7S11671   6.218   2.612   6.357 -0.0216  0.4476  0.6261
  113OSM    H7S11672   6.324   2.579   6.357  0.4420  1.7971 -1.2005
  113OSM    H7T11673   6.231   2.716   6.393 -1.4837  0.8823  0.0069
  113OSM    C8S11674   6.164   2.604   6.217 -0.5414  0.4018 -0.4114
  113OSM    H8S11675   6.200   2.698   6.170  0.4853  1.6803  2.6183
  113OSM    H8T11676   6.053   2.610   6.215 -0.7448 -1.5377  1.1740
  113OSM    C9S11677   6.214   2.477   6.142  0.3359  0.0270  0.3933
  113OSM    H9S11678   6.149   2.396   6.181 -0.0196  0.0682 -0.0884
  113OSM    H9T11679   6.317   2.445   6.168  1.2802  2.3851 -0.2082
  113OSM   C10S11680   6.207   2.496   5.990 -0.6898  0.1281  0.2091
  113OSM   H10S11681   6.273   2.581   5.964  0.6913 -0.7598  0.7080
  113OSM   H10T11682   6.106   2.522   5.952 -0.1881  0.7049 -0.7714
  113OSM   C11S11683   6.264   2.371   5.919 -0.6625 -0.0089 -0.3565
  113OSM   H11S11684   6.192   2.288   5.937 -1.8324  0.9792 -0.3091
  113OSM   H11T11685   6.350   2.334   5.979 -2.8616 -1.4607  2.1532
  113OSM   C12S11686   6.310   2.408   5.781  0.8642 -0.2869  0.3018
  113OSM   H12S11687   6.349   2.321   5.723  1.7950  0.6290 -0.4967
  113OSM   H12T11688   6.395   2.480   5.792  0.2393  0.5610 -0.3131
  113OSM   C13S11689   6.201   2.482   5.702  0.3530  0.0136  0.2723
  113OSM   H13S11690   6.181   2.585   5.739 -1.0458 -0.1108 -0.0519
  113OSM   H13T11691   6.110   2.419   5.713 -0.0930  0.2178 -1.7974
  113OSM   C14S11692   6.235   2.482   5.562  0.0217  0.8877 -0.5488
  113OSM   H14S11693   6.284   2.389   5.526  0.6501  0.3611  1.5097
  113OSM   H14T11694   6.324   2.547   5.548 -0.4215  1.4306 -0.8932
  113OSM   C15S11695   6.105   2.505   5.483 -0.4640  0.2981  0.0747
  113OSM   H15S11696   6.071   2.607   5.512  1.5926  0.8587  0.6838
  113OSM   H15T11697   6.027   2.432   5.513 -0.4647 -0.2188 -1.1106
  113OSM   C16S11698   6.130   2.500   5.334  0.1512 -0.5228 -0.4246
  113OSM   H16S11699   6.171   2.403   5.297 -0.4354 -0.5956 -0.9017
  113OSM   H16T11700   6.203   2.582   5.318  0.5478 -0.4089  1.6691
  113OSM   C17S11701   6.002   2.525   5.245  0.0102 -0.8714  0.3082
  113OSM   H17S11702   5.967   2.628   5.264 -0.8130 -1.4741  2.3715
  113OSM   H17T11703   5.923   2.459   5.286 -1.5128 -0.2796 -1.5586
  113OSM   C18S11704   6.016   2.499   5.096 -0.4651 -0.7316  0.5872
  113OSM   H18S11705   6.103   2.552   5.051 -1.6198  0.1854 -0.6729
  113OSM   H18T11706   5.925   2.532   5.042  0.1380  0.7141  0.4007
  113OSM   H18U11707   6.036   2.391   5.077  1.0721 -0.2161 -1.0393
  113OSM    C1F11708   6.151   2.192   6.864  0.1441  0.0117  0.0386
  113OSM     OF11709   6.056   2.158   6.934 -0.3047 -0.4705  0.4132
  113OSM    C2F11710   6.255   2.096   6.813 -0.5766  0.1942 -0.0182
  113OSM    H2F11711   6.267   2.028   6.899  2.3603  3.3696  2.3806
  113OSM    H2G11712   6.346   2.157   6.793 -0.5699 -0.5296 -2.5267
  113OSM    C3F11713   6.224   2.015   6.682 -0.4422  0.2477  0.5365
  113OSM    H3F11714   6.131   1.955   6.685 -0.5341  0.0181 -2.6977
  113OSM    H3G11715   6.307   1.945   6.656 -1.0848  0.0279 -1.0434
  113OSM    C4F11716   6.219   2.100   6.551  0.2179  0.2648 -0.1832
  113OSM    H4F11717   6.293   2.183   6.558 -0.2645  0.8789 -1.7365
  113OSM    H4G11718   6.120   2.150   6.551  0.3578  0.5614  1.0195
  113OSM    C5F11719   6.257   2.024   6.422 -0.0428 -0.4443 -0.2682
  113OSM    H5F11720   6.175   1.950   6.413 -1.4170  0.9408  0.3384
  113OSM    H5G11721   6.355   1.974   6.438 -0.4919 -0.6743  2.2706
  113OSM    C6F11722   6.271   2.128   6.304 -0.8067 -0.1554  0.5419
  113OSM    H6F11723   6.343   2.207   6.336  1.0337 -0.8512 -1.6309
  113OSM    H6G11724   6.173   2.176   6.287 -1.2328 -1.3181 -0.3854
  113OSM    C7F11725   6.319   2.072   6.167  0.4735 -0.1903  0.2638
  113OSM    H7F11726   6.415   2.023   6.196 -1.3485 -2.3429  3.2153
  113OSM    H7G11727   6.330   2.151   6.090  1.1498  0.8489  1.3960
  113OSM    C8F11728   6.245   1.948   6.111 -0.2081 -0.5894  0.3318
  113OSM    H8F11729   6.139   1.964   6.083 -0.4861 -3.0926 -0.2994
  113OSM    H8G11730   6.243   1.869   6.189  0.9713 -1.6416 -0.6460
  113OSM    C9F11731   6.305   1.889   5.986 -0.4884  0.4401 -0.3972
  113OSM    H9F11732   6.393   1.827   6.004 -1.8436 -1.2405  0.7980
  113OSM   C10F11733   6.263   1.911   5.860 -0.5281 -0.1509  0.4696
  113OSM   H10F11734   6.318   1.853   5.784 -1.8665 -1.3117  0.3712
  113OSM   C11F11735   6.154   2.013   5.820  0.6314  0.5964 -0.2609
  113OSM   H11F11736   6.192   2.114   5.845 -0.3196  0.6172  1.2700
  113OSM   H11G11737   6.055   2.000   5.870  0.1697 -1.6126 -1.5794
  113OSM   C12F11738   6.113   2.008   5.676 -0.2078  0.0463  0.1103
  113OSM   H12F11739   6.024   2.070   5.653 -0.2033 -0.3523 -1.0796
  113OSM   H12G11740   6.088   1.902   5.653  1.3173 -0.4173  0.4285
  113OSM   C13F11741   6.229   2.048   5.587 -0.1441  0.2165 -0.1941
  113OSM   H13F11742   6.324   2.005   5.627  0.5874  0.8048 -1.2640
  113OSM   H13G11743   6.238   2.158   5.597 -0.8164  0.2147  0.5992
  113OSM   C14F11744   6.205   2.009   5.440  0.6640  0.8657  0.2161
  113OSM   H14F11745   6.103   2.045   5.413  0.5563  0.9070  0.6572
  113OSM   H14G11746   6.219   1.900   5.429 -0.7996  0.7886 -1.2225
  113OSM   C15F11747   6.302   2.067   5.340 -0.3519  0.1918 -0.8465
  113OSM   H15F11748   6.407   2.034   5.356 -0.9151 -0.9696  0.7305
  113OSM   H15G11749   6.311   2.177   5.333  3.7482  0.1390  1.0529
  113OSM   C16F11750   6.265   2.012   5.199  0.0454  0.1249  0.2879
  113OSM   H16F11751   6.340   2.050   5.126 -2.0770  1.2545 -1.4018
  113OSM   H16G11752   6.170   2.055   5.162  0.6297 -0.2369 -1.7853
  113OSM   C17F11753   6.269   1.858   5.187 -0.2719 -0.3728 -0.1232
  113OSM   H17F11754   6.181   1.815   5.239 -1.1722 -0.1318 -1.4057
  113OSM   H17G11755   6.353   1.820   5.249 -0.7262  0.7252  1.2183
  113OSM   C18F11756   6.279   1.831   5.037 -0.4420 -0.6842 -0.9521
  113OSM   H18F11757   6.281   1.722   5.015  0.5539 -0.5072 -1.8105
  113OSM   H18G11758   6.383   1.866   5.018  0.1132 -1.0944  1.1300
  113OSM   H18H11759   6.192   1.879   4.986  1.4296  0.6028 -3.1547
  114OSM      N11760   4.776   1.203   7.179  0.6463  0.4062 -0.1111
  114OSM    C1511761   4.836   1.171   7.318 -0.1679 -0.2604  0.0045
  114OSM   H15A11762   4.754   1.140   7.382  0.3308 -0.6929  0.4344
  114OSM   H15B11763   4.881   1.258   7.363  0.9810  0.2334 -1.9586
  114OSM   H15C11764   4.908   1.092   7.308 -1.2887 -1.8247  2.9704
  114OSM    C1411765   4.881   1.264   7.098  0.1846  0.1496 -0.1115
  114OSM   H14A11766   4.886   1.368   7.125  0.2869  0.0404  0.3011
  114OSM   H14B11767   4.842   1.259   6.997 -3.4143  1.2432  1.0740
  114OSM   H14C11768   4.981   1.224   7.109  0.2516  0.4391  0.3476
  114OSM    C1311769   4.746   1.069   7.108 -0.2278 -0.1067 -0.6107
  114OSM   H13A11770   4.826   0.998   7.124  0.4538  1.1685  2.2742
  114OSM   H13B11771   4.741   1.082   7.001 -0.9490 -2.0896 -0.8638
  114OSM   H13C11772   4.660   1.024   7.155 -0.7713 -0.1765 -1.6358
  114OSM    C1211773   4.659   1.302   7.182  0.1391 -0.2040 -0.6606
  114OSM   H12A11774   4.572   1.253   7.224  1.8869 -1.5291  1.6828
  114OSM   H12B11775   4.624   1.328   7.083 -0.4474  0.4055 -0.3047
  114OSM    C1111776   4.676   1.438   7.252  0.0648 -0.0392  0.0372
  114OSM   H11A11777   4.676   1.429   7.363  0.1281  0.6094  0.0909
  114OSM   H11B11778   4.583   1.496   7.236  0.5620  0.6954 -0.2439
  114OSM      P11779   4.885   1.599   7.282  0.1019 -0.1363 -0.1678
  114OSM    O1311780   4.804   1.697   7.354 -0.0902  0.6161 -0.6318
  114OSM    O1411781   4.968   1.513   7.365 -0.1845  0.5788  0.3202
  114OSM    O1111782   4.957   1.667   7.168 -0.2678  0.6195  0.4612
  114OSM    O1211783   4.790   1.509   7.198 -0.0146  0.8870 -0.3757
  114OSM    C1S11784   5.022   1.591   7.059  0.6019 -0.1818  0.4444
  114OSM    H1S11785   5.001   1.482   7.059  1.6841 -0.4025  0.8308
  114OSM    H1T11786   5.133   1.586   7.070  0.4224 -1.9293  2.0059
  114OSM     NF11787   5.059   1.565   6.816  0.1303  0.1484  0.1953
  114OSM    HNF11788   5.151   1.582   6.781 -0.0912  0.2102 -0.3551
  114OSM    C2S11789   5.002   1.653   6.919 -0.4078  0.1419 -0.1162
  114OSM    H2S11790   4.891   1.658   6.906 -0.2767  0.0182 -1.4461
  114OSM    C3S11791   5.053   1.799   6.914 -0.1074  0.1936  0.1959
  114OSM    H3S11792   5.164   1.796   6.901 -0.3311  0.4436 -2.2691
  114OSM     O311793   5.027   1.878   7.028  0.5246  0.1637 -0.4430
  114OSM    HO311794   4.981   1.819   7.089 -1.3092  1.1537 -0.8298
  114OSM    C4S11795   4.994   1.879   6.797  0.3438 -0.8273 -1.1107
  114OSM    H4S11796   4.889   1.904   6.815  1.3345  2.1545  1.5082
  114OSM    C5S11797   5.058   1.936   6.694 -0.2201  0.0442 -0.5941
  114OSM    H5S11798   5.168   1.926   6.695 -0.0925  1.2461  0.0883
  114OSM    C6S11799   5.011   2.024   6.587  0.4352 -0.3645  0.3618
  114OSM    H6S11800   5.065   2.121   6.587 -0.7507  0.3170  0.0160
  114OSM    H6T11801   4.903   2.050   6.599  0.8536  2.1595 -0.8200
  114OSM    C7S11802   5.026   1.959   6.442 -0.8413  0.0401  0.1222
  114OSM    H7S11803   4.977   1.859   6.436 -0.5289 -0.0768 -0.6517
  114OSM    H7T11804   5.134   1.943   6.423 -1.2089 -0.7075 -1.5625
  114OSM    C8S11805   4.968   2.056   6.337  0.3763  0.2508  0.1239
  114OSM    H8S11806   5.013   2.154   6.363 -0.1758  0.3207  0.8571
  114OSM    H8T11807   4.857   2.055   6.348  0.3940 -1.3657  0.4713
  114OSM    C9S11808   4.999   2.002   6.196  0.2878  0.1414 -0.1031
  114OSM    H9S11809   5.105   1.967   6.200  0.8439  1.7811  1.2768
  114OSM    H9T11810   4.985   2.078   6.116  1.1336  0.9515  0.4811
  114OSM   C10S11811   4.912   1.876   6.168 -0.2780  0.2779 -0.1239
  114OSM   H10S11812   4.803   1.900   6.167 -0.8712 -2.1166  0.1910
  114OSM   H10T11813   4.939   1.801   6.246 -0.2792  0.0903 -0.3025
  114OSM   C11S11814   4.951   1.809   6.032 -0.3270 -0.5398 -0.0296
  114OSM   H11S11815   4.937   1.699   6.045  0.7396 -0.7506 -0.5867
  114OSM   H11T11816   5.059   1.830   6.020 -0.5888  0.1725 -1.2523
  114OSM   C12S11817   4.867   1.868   5.925 -0.1167  0.4750 -0.2504
  114OSM   H12S11818   4.841   1.973   5.949  1.8473  0.8829  0.2278
  114OSM   H12T11819   4.773   1.809   5.917 -0.7270  1.2158  1.0912
  114OSM   C13S11820   4.944   1.876   5.789 -0.1906 -0.5093 -0.1383
  114OSM   H13S11821   4.984   1.780   5.750  1.0907  0.7280 -2.0779
  114OSM   H13T11822   5.034   1.939   5.808  0.1920 -0.7523 -1.0863
  114OSM   C14S11823   4.863   1.939   5.672 -0.0086 -0.3337 -0.7200
  114OSM   H14S11824   4.814   2.035   5.696  0.8337 -0.6265  2.8277
  114OSM   H14T11825   4.779   1.868   5.659 -2.2967  1.9373  0.9165
  114OSM   C15S11826   4.946   1.944   5.539 -0.7812  0.0216  0.1773
  114OSM   H15S11827   4.896   1.889   5.456 -0.9332 -0.5295  0.6257
  114OSM   H15T11828   5.038   1.888   5.564 -1.5446 -0.8641  1.0443
  114OSM   C16S11829   4.982   2.076   5.474 -0.5319 -0.3255  0.0864
  114OSM   H16S11830   5.053   2.124   5.545 -1.5231  2.5871 -0.7178
  114OSM   H16T11831   4.889   2.137   5.465  0.3141  1.0413  0.2871
  114OSM   C17S11832   5.041   2.069   5.335 -1.1157  0.0878  0.7884
  114OSM   H17S11833   5.061   2.172   5.297 -0.6782 -1.2075 -2.9047
  114OSM   H17T11834   4.967   2.020   5.269 -0.1047 -0.6597  0.1760
  114OSM   C18S11835   5.174   1.991   5.329 -0.3588  0.4184 -0.6423
  114OSM   H18S11836   5.203   1.986   5.222  1.4930 -0.0325 -0.1705
  114OSM   H18T11837   5.154   1.885   5.355 -0.0092  0.4629 -0.1833
  114OSM   H18U11838   5.260   2.036   5.383  0.8889 -0.9118 -1.4467
  114OSM    C1F11839   5.000   1.454   6.778  0.5103 -0.2887 -0.3959
  114OSM     OF11840   4.885   1.430   6.818 -0.3026  0.4373 -0.1088
  114OSM    C2F11841   5.075   1.346   6.699 -0.5423 -0.3560 -0.4621
  114OSM    H2F11842   5.184   1.356   6.717 -0.7344  2.2806 -0.3743
  114OSM    H2G11843   5.053   1.375   6.594  0.8691  1.5772 -0.2837
  114OSM    C3F11844   5.028   1.201   6.730  0.3270  0.4578  0.4809
  114OSM    H3F11845   4.923   1.191   6.695  0.0086 -0.5729  1.6617
  114OSM    H3G11846   5.034   1.178   6.839  0.9238  1.9991  0.8070
  114OSM    C4F11847   5.097   1.093   6.654  0.4911  0.9369 -0.0858
  114OSM    H4F11848   5.106   1.005   6.722 -0.9173  1.5156  0.9160
  114OSM    H4G11849   5.202   1.129   6.660  0.5863  0.8582 -1.1465
  114OSM    C5F11850   5.067   1.086   6.505  0.2769  0.9345  0.3777
  114OSM    H5F11851   5.069   1.181   6.447 -0.6239  1.1725  0.7220
  114OSM    H5G11852   4.965   1.043   6.497  1.6921 -2.3315 -4.6273
  114OSM    C6F11853   5.169   1.004   6.420 -0.7896 -0.1802  0.3044
  114OSM    H6F11854   5.162   0.896   6.442  0.3306 -0.2378  0.4461
  114OSM    H6G11855   5.271   1.029   6.454 -1.6025  0.1244  2.6704
  114OSM    C7F11856   5.161   1.018   6.264 -0.3055 -0.2220 -1.0944
  114OSM    H7F11857   5.154   1.128   6.245 -1.1153  0.4653  2.3430
  114OSM    H7G11858   5.073   0.969   6.219 -1.1868  0.2824  0.0177
  114OSM    C8F11859   5.295   0.976   6.196 -0.4798  0.2502 -0.2108
  114OSM    H8F11860   5.380   1.008   6.259 -0.8684  1.8553 -0.4661
  114OSM    H8G11861   5.303   1.025   6.097  3.0322 -1.9292 -1.1999
  114OSM    C9F11862   5.298   0.823   6.182 -0.0464 -0.3137  0.0243
  114OSM    H9F11863   5.251   0.763   6.261  0.1247  1.0038  1.1530
  114OSM   C10F11864   5.351   0.751   6.080  0.1298  0.0837 -0.1004
  114OSM   H10F11865   5.352   0.641   6.086  5.1830 -0.1568 -0.9946
  114OSM   C11F11866   5.424   0.802   5.954 -0.1293  0.1251  0.6819
  114OSM   H11F11867   5.435   0.911   5.971 -3.9745  0.5540  1.3808
  114OSM   H11G11868   5.369   0.793   5.858  1.6718 -2.2239 -0.2434
  114OSM   C12F11869   5.571   0.749   5.949 -0.3274 -0.3949 -0.1954
  114OSM   H12F11870   5.585   0.639   5.938  1.7782 -0.1381 -0.6086
  114OSM   H12G11871   5.629   0.769   6.042 -0.5324 -1.4871  0.1860
  114OSM   C13F11872   5.645   0.810   5.827 -0.0493  0.3124 -0.2036
  114OSM   H13F11873   5.754   0.793   5.843 -0.2190 -0.7678 -0.0974
  114OSM   H13G11874   5.629   0.920   5.828 -1.3110  0.1498  1.5567
  114OSM   C14F11875   5.613   0.741   5.694 -0.0123 -0.2018  0.4423
  114OSM   H14F11876   5.517   0.781   5.653 -0.9953  0.3291  3.0605
  114OSM   H14G11877   5.595   0.635   5.720  1.9493 -0.5957  0.3471
  114OSM   C15F11878   5.718   0.753   5.587 -0.8192  0.3651  0.3472
  114OSM   H15F11879   5.814   0.713   5.625 -1.0977 -0.8893 -0.2181
  114OSM   H15G11880   5.732   0.863   5.571 -0.2841  0.3233  0.5146
  114OSM   C16F11881   5.688   0.685   5.453  0.7269 -0.3984  1.1471
  114OSM   H16F11882   5.583   0.710   5.425  0.0920 -2.0007  1.9754
  114OSM   H16G11883   5.685   0.575   5.473 -2.3180 -0.7564 -0.5734
  114OSM   C17F11884   5.792   0.703   5.343  0.2043  0.3707  0.1778
  114OSM   H17F11885   5.788   0.806   5.302 -1.4028  0.9799  1.7461
  114OSM   H17G11886   5.780   0.628   5.262  0.9711  0.3413  0.0795
  114OSM   C18F11887   5.934   0.681   5.397  0.6038 -0.8188  0.4725
  114OSM   H18F11888   6.009   0.690   5.315  0.2735 -1.0457  0.1400
  114OSM   H18G11889   5.950   0.584   5.449  1.2684 -0.8528  0.2288
  114OSM   H18H11890   5.965   0.765   5.463 -0.2485 -0.7718  0.8127
  115OSM      N11891   2.262   3.342   7.407  0.6871  0.7556  0.2964
  115OSM    C1511892   2.116   3.324   7.449 -0.0168 -0.2319  0.0139
  115OSM   H15A11893   2.082   3.222   7.448 -3.8077  0.8708 -0.2346
  115OSM   H15B11894   2.054   3.370   7.374  0.4760  0.1983 -0.1410
  115OSM   H15C11895   2.103   3.365   7.548 -0.6551  0.3053 -0.2876
  115OSM    C1411896   2.294   3.489   7.423 -0.0958  0.2267 -0.3590
  115OSM   H14A11897   2.226   3.559   7.377 -1.1159 -1.8052 -2.0958
  115OSM   H14B11898   2.391   3.519   7.386  0.0912  0.1983  0.0973
  115OSM   H14C11899   2.284   3.510   7.529  0.1699 -2.5481  0.2882
  115OSM    C1311900   2.340   3.257   7.501 -0.1087 -0.2937 -0.0754
  115OSM   H13A11901   2.313   3.153   7.506  1.7548 -0.7674  1.7858
  115OSM   H13B11902   2.356   3.309   7.595 -0.5612  1.5887 -0.9788
  115OSM   H13C11903   2.439   3.243   7.460 -0.5788  0.5855 -1.5845
  115OSM    C1211904   2.274   3.304   7.262  0.2133  0.9110  0.0395
  115OSM   H12A11905   2.199   3.355   7.203  0.6136  1.3426 -0.1076
  115OSM   H12B11906   2.253   3.199   7.254 -1.5724  1.3617 -2.3454
  115OSM    C1111907   2.411   3.325   7.191  0.9200  0.1907  0.5268
  115OSM   H11A11908   2.427   3.434   7.175 -1.1014  0.2495 -1.8217
  115OSM   H11B11909   2.404   3.288   7.086 -1.8355  1.8852 -0.0044
  115OSM      P11910   2.646   3.344   7.299 -0.2370 -0.1831 -0.0168
  115OSM    O1311911   2.613   3.431   7.412 -0.1439  0.0519 -0.2901
  115OSM    O1411912   2.759   3.251   7.310 -0.0077  0.5528 -0.2477
  115OSM    O1111913   2.675   3.443   7.180  0.4284  0.3005  0.1028
  115OSM    O1211914   2.521   3.261   7.253  0.2863 -0.1952 -0.2296
  115OSM    C1S11915   2.685   3.402   7.038  0.0593  0.6137 -0.1004
  115OSM    H1S11916   2.606   3.327   7.018  1.5762 -1.1690  0.2320
  115OSM    H1T11917   2.780   3.345   7.029 -1.7228 -3.2182  2.5482
  115OSM     NF11918   2.706   3.443   6.799  0.5012  0.1346 -0.4180
  115OSM    HNF11919   2.797   3.444   6.758  0.0619  1.1095 -1.4244
  115OSM    C2S11920   2.688   3.510   6.923  0.4770  0.0084 -0.6813
  115OSM    H2S11921   2.585   3.552   6.929  0.4783 -0.0999  0.2368
  115OSM    C3S11922   2.787   3.620   6.974  0.1120 -0.2510  0.5917
  115OSM    H3S11923   2.890   3.579   6.971  0.9379  1.7727 -1.4315
  115OSM     O311924   2.765   3.664   7.108 -0.3058  0.0830 -0.1230
  115OSM    HO311925   2.725   3.586   7.146  0.2052 -0.2652 -0.3028
  115OSM    C4S11926   2.781   3.737   6.881 -0.2380  0.4118 -0.4628
  115OSM    H4S11927   2.686   3.790   6.865 -0.3700 -0.2696 -2.2307
  115OSM    C5S11928   2.884   3.773   6.801 -0.0365  0.8651  0.3684
  115OSM    H5S11929   2.973   3.710   6.816 -0.8002 -0.2155  0.4814
  115OSM    C6S11930   2.887   3.875   6.692 -0.5300 -0.5147 -0.4525
  115OSM    H6S11931   2.943   3.963   6.731 -1.4792 -0.4591  0.8532
  115OSM    H6T11932   2.783   3.911   6.679 -0.0010  1.4830  0.3595
  115OSM    C7S11933   2.932   3.808   6.563 -0.1324 -0.1656 -0.2619
  115OSM    H7S11934   2.885   3.707   6.566 -2.2888  0.7795 -0.1962
  115OSM    H7T11935   3.042   3.796   6.571 -0.1066  1.1183  2.4147
  115OSM    C8S11936   2.909   3.894   6.434  0.0707  0.8108 -0.5661
  115OSM    H8S11937   2.941   3.998   6.455 -0.1767  0.8876 -0.5660
  115OSM    H8T11938   2.799   3.896   6.418 -0.4449 -0.1876  2.2447
  115OSM    C9S11939   2.976   3.841   6.307  0.2367 -0.2147  0.4703
  115OSM    H9S11940   2.938   3.736   6.309 -1.2981  0.3312  0.8771
  115OSM    H9T11941   3.086   3.830   6.323  0.0073 -2.2377  1.0102
  115OSM   C10S11942   2.940   3.920   6.184  0.7554 -0.2110  0.3699
  115OSM   H10S11943   3.020   3.997   6.179  0.5854 -0.0973 -1.7023
  115OSM   H10T11944   2.838   3.963   6.193 -0.2131 -2.0650 -0.9870
  115OSM   C11S11945   2.946   3.833   6.054  0.3073 -0.6294 -0.2931
  115OSM   H11S11946   2.864   3.761   6.075  1.3681 -2.3175 -1.6809
  115OSM   H11T11947   3.041   3.776   6.051  0.2797 -0.7393  0.5244
  115OSM   C12S11948   2.902   3.897   5.921 -0.1123 -0.2189  0.0462
  115OSM   H12S11949   2.975   3.970   5.880 -0.7984  0.5706  0.2209
  115OSM   H12T11950   2.818   3.961   5.955 -1.1354 -1.9558  0.9094
  115OSM   C13S11951   2.858   3.795   5.817 -0.1382 -0.1707  0.0174
  115OSM   H13S11952   2.789   3.720   5.863 -4.0303  2.7441 -0.5530
  115OSM   H13T11953   2.947   3.736   5.786 -0.4417  0.0405 -1.3104
  115OSM   C14S11954   2.787   3.869   5.698 -0.3229  0.7277 -0.2216
  115OSM   H14S11955   2.849   3.960   5.680  0.1599  0.6820  1.0944
  115OSM   H14T11956   2.687   3.909   5.726 -1.2049 -0.5671 -1.4084
  115OSM   C15S11957   2.758   3.788   5.571 -0.2794 -0.0807 -0.2703
  115OSM   H15S11958   2.651   3.757   5.574  0.5212 -3.3758  3.6460
  115OSM   H15T11959   2.800   3.686   5.586 -0.1334 -0.2463 -1.6864
  115OSM   C16S11960   2.805   3.849   5.441  0.2029  0.2476  0.6987
  115OSM   H16S11961   2.795   3.766   5.368  1.2524 -1.5377  2.4632
  115OSM   H16T11962   2.912   3.878   5.438  0.3546 -0.3708  0.0482
  115OSM   C17S11963   2.727   3.971   5.387  0.1424  0.0703 -0.0242
  115OSM   H17S11964   2.709   4.047   5.467  2.9133 -0.9953  1.7631
  115OSM   H17T11965   2.622   3.939   5.372 -0.3143  0.8866  1.2431
  115OSM   C18S11966   2.794   4.034   5.263 -0.0697 -0.3063  1.1710
  115OSM   H18S11967   2.876   4.105   5.287  1.3899 -1.1699 -0.9384
  115OSM   H18T11968   2.715   4.086   5.203  1.4202  0.1367 -0.4963
  115OSM   H18U11969   2.835   3.960   5.190 -1.8091 -0.4186  0.2355
  115OSM    C1F11970   2.610   3.362   6.752 -0.5559 -0.1668  0.3932
  115OSM     OF11971   2.503   3.344   6.815 -0.1006  0.8874  0.4081
  115OSM    C2F11972   2.629   3.305   6.621  0.0031  0.3685 -0.2309
  115OSM    H2F11973   2.699   3.219   6.619 -0.5589 -0.1115  0.2703
  115OSM    H2G11974   2.680   3.373   6.550 -0.2546  0.8286  0.0166
  115OSM    C3F11975   2.493   3.284   6.547  0.5710 -0.4920  0.7255
  115OSM    H3F11976   2.432   3.372   6.516  1.2083 -0.4711 -0.5480
  115OSM    H3G11977   2.413   3.231   6.602 -1.7184  1.0286 -0.9677
  115OSM    C4F11978   2.510   3.221   6.407  0.6575  0.3816  0.0980
  115OSM    H4F11979   2.609   3.256   6.371  0.3775  1.5713  0.4532
  115OSM    H4G11980   2.430   3.263   6.343  1.7333  1.3802 -0.6479
  115OSM    C5F11981   2.486   3.072   6.417  0.0243  0.4662  0.4018
  115OSM    H5F11982   2.385   3.043   6.452  0.8809 -1.0353  1.8377
  115OSM    H5G11983   2.559   3.040   6.495 -0.3632 -1.2883  0.0892
  115OSM    C6F11984   2.523   2.986   6.296 -0.0654  0.1439  0.6569
  115OSM    H6F11985   2.507   2.882   6.333 -2.9066 -0.2783 -1.4064
  115OSM    H6G11986   2.631   3.005   6.282  0.5661 -1.5266  2.6740
  115OSM    C7F11987   2.431   3.020   6.185  0.4349 -0.3333 -0.0714
  115OSM    H7F11988   2.422   3.131   6.172  2.3955 -0.1319  0.0843
  115OSM    H7G11989   2.327   2.986   6.203  0.1238  0.1181 -0.9197
  115OSM    C8F11990   2.475   2.951   6.055  0.2294 -0.3862  0.1674
  115OSM    H8F11991   2.408   2.994   5.978  1.2293  0.6679 -0.1447
  115OSM    H8G11992   2.466   2.841   6.068 -1.9038 -0.1598  0.8873
  115OSM    C9F11993   2.619   2.993   6.024  0.7700 -0.4975  0.3671
  115OSM    H9F11994   2.703   2.935   6.065  2.4599  0.2021 -1.8706
  115OSM   C10F11995   2.650   3.103   5.949 -0.3540  0.4735 -0.1800
  115OSM   H10F11996   2.758   3.110   5.931 -0.4057  0.8866 -0.3441
  115OSM   C11F11997   2.553   3.208   5.904  0.1627 -0.4385 -0.3972
  115OSM   H11F11998   2.450   3.194   5.944 -0.5983  0.7784 -1.8485
  115OSM   H11G11999   2.544   3.200   5.794  0.1304  0.9192 -0.5116
  115OSM   C12F12000   2.602   3.347   5.936  0.6040  0.5840 -0.7963
  115OSM   H12F12001   2.518   3.411   5.900 -0.8688 -0.2365  1.0199
  115OSM   H12G12002   2.696   3.376   5.885  1.2578 -0.5367 -0.2637
  115OSM   C13F12003   2.610   3.381   6.088 -0.2802 -0.1846  0.2353
  115OSM   H13F12004   2.690   3.323   6.139 -0.3070  0.2194  0.7407
  115OSM   H13G12005   2.510   3.362   6.132 -0.0171  1.3341  1.5631
  115OSM   C14F12006   2.646   3.529   6.109 -0.4259 -0.3021  0.0975
  115OSM   H14F12007   2.576   3.591   6.048 -1.1258 -1.1163  0.0459
  115OSM   H14G12008   2.747   3.540   6.065 -0.9611  0.4142 -0.9892
  115OSM   C15F12009   2.666   3.577   6.255 -0.4003 -0.2712  0.4435
  115OSM   H15F12010   2.736   3.662   6.268 -0.6314  0.0316 -0.2890
  115OSM   H15G12011   2.709   3.489   6.308 -0.0548 -1.2662 -1.4146
  115OSM   C16F12012   2.534   3.612   6.337  0.6090 -0.1208 -0.2531
  115OSM   H16F12013   2.484   3.514   6.350  3.0163 -1.2871  0.7971
  115OSM   H16G12014   2.468   3.673   6.271  0.8826 -0.3896 -0.7814
  115OSM   C17F12015   2.553   3.685   6.477  0.6402 -0.7100  0.7628
  115OSM   H17F12016   2.606   3.777   6.445 -0.6632 -0.3787 -0.5056
  115OSM   H17G12017   2.625   3.623   6.535  2.1944  1.5771  1.4150
  115OSM   C18F12018   2.423   3.713   6.540 -0.5407  0.3886  0.6341
  115OSM   H18F12019   2.430   3.780   6.628 -0.5720 -0.5613  1.3752
  115OSM   H18G12020   2.386   3.618   6.583  1.0333 -1.3453 -1.5686
  115OSM   H18H12021   2.345   3.743   6.467 -1.5600 -0.9592  1.1373
  116OSM      N12022   5.296   1.704   7.461  0.2314 -0.9208 -0.4836
  116OSM    C1512023   5.340   1.836   7.516 -0.1557 -0.5163  0.9679
  116OSM   H15A12024   5.414   1.872   7.446 -1.0321 -0.4730  0.0237
  116OSM   H15B12025   5.378   1.822   7.615 -0.7656  0.4608  1.3600
  116OSM   H15C12026   5.261   1.910   7.512  2.0643  1.9443 -0.8098
  116OSM    C1412027   5.198   1.636   7.547  0.2591  0.1824 -0.0863
  116OSM   H14A12028   5.100   1.681   7.540 -0.2211 -1.0316 -1.6400
  116OSM   H14B12029   5.228   1.620   7.650  1.0597 -0.4236 -0.4084
  116OSM   H14C12030   5.173   1.541   7.503  0.5246  0.2717 -0.4304
  116OSM    C1312031   5.237   1.714   7.330  1.0550  0.0384  0.7361
  116OSM   H13A12032   5.170   1.799   7.327 -0.0793 -0.8625 -1.1594
  116OSM   H13B12033   5.180   1.633   7.287  0.6088  1.2252 -1.0029
  116OSM   H13C12034   5.313   1.731   7.256  1.6178 -0.6893  1.1371
  116OSM    C1212035   5.413   1.610   7.454 -0.2170 -0.3745  0.3944
  116OSM   H12A12036   5.379   1.512   7.424  3.1158 -1.1188 -1.3508
  116OSM   H12B12037   5.451   1.595   7.554 -3.2118 -0.4115  1.6414
  116OSM    C1112038   5.533   1.649   7.366  0.2519 -0.0674  0.2922
  116OSM   H11A12039   5.610   1.571   7.385 -0.6521 -1.1933 -0.5385
  116OSM   H11B12040   5.573   1.749   7.394 -0.5521 -0.2178  2.0924
  116OSM      P12041   5.483   1.526   7.132  0.0049 -0.0383  0.0829
  116OSM    O1312042   5.618   1.458   7.119  0.1611 -0.6696  0.1612
  116OSM    O1412043   5.371   1.438   7.182  0.2641 -0.6489 -0.1641
  116OSM    O1112044   5.437   1.584   6.989  0.6228 -0.2456 -0.4155
  116OSM    O1212045   5.497   1.658   7.224 -0.0668  0.1886 -0.9338
  116OSM    C1S12046   5.457   1.723   6.956  0.8113  0.4997 -0.5514
  116OSM    H1S12047   5.533   1.773   7.020  2.3621 -0.1639 -1.8340
  116OSM    H1T12048   5.358   1.766   6.983  0.9822  0.3335  0.3914
  116OSM     NF12049   5.576   1.862   6.796  0.1646  0.3842  0.1266
  116OSM    HNF12050   5.517   1.942   6.790  1.0353  0.9549 -2.0517
  116OSM    C2S12051   5.512   1.734   6.813  0.3852 -0.3892  0.0157
  116OSM    H2S12052   5.581   1.648   6.801 -0.5693 -1.3431  1.1469
  116OSM    C3S12053   5.397   1.708   6.715 -0.2339 -0.1906 -0.4015
  116OSM    H3S12054   5.313   1.773   6.747  0.4608 -1.2293  4.1355
  116OSM     O312055   5.347   1.578   6.723 -0.2255  0.1517  0.0956
  116OSM    HO312056   5.384   1.547   6.805 -1.1567 -2.3514 -0.3440
  116OSM    C4S12057   5.448   1.728   6.571 -0.1024  0.5407  0.6507
  116OSM    H4S12058   5.535   1.665   6.545 -2.0707 -2.8368  1.6662
  116OSM    C5S12059   5.409   1.820   6.484 -0.4598 -0.0247 -0.8965
  116OSM    H5S12060   5.332   1.896   6.504 -2.1048 -1.0993 -2.7005
  116OSM    C6S12061   5.476   1.837   6.352 -0.0115 -0.2537 -0.5057
  116OSM    H6S12062   5.557   1.766   6.327 -1.2784 -0.6567 -3.8970
  116OSM    H6T12063   5.510   1.943   6.349 -1.9627  0.5709  2.5649
  116OSM    C7S12064   5.376   1.827   6.239 -0.0430 -0.4194  0.6991
  116OSM    H7S12065   5.280   1.879   6.262 -1.2152 -2.1851  0.0214
  116OSM    H7T12066   5.349   1.720   6.225 -0.1450 -0.1972 -1.0035
  116OSM    C8S12067   5.452   1.868   6.110  0.2766 -0.1571 -0.2063
  116OSM    H8S12068   5.540   1.803   6.094 -0.3674 -1.3825  1.0359
  116OSM    H8T12069   5.476   1.976   6.111 -0.4834  0.0159  0.1774
  116OSM    C9S12070   5.363   1.843   5.984 -0.5312 -0.5491  0.1517
  116OSM    H9S12071   5.276   1.912   5.986 -0.3238 -0.2105 -1.1544
  116OSM    H9T12072   5.326   1.738   5.992  0.8387 -0.9815  1.0992
  116OSM   C10S12073   5.440   1.854   5.851  0.1868 -0.4096  0.3866
  116OSM   H10S12074   5.499   1.761   5.841  1.9077  0.4764  1.7334
  116OSM   H10T12075   5.519   1.933   5.857  0.9994 -1.2361  0.8369
  116OSM   C11S12076   5.359   1.887   5.726 -0.5828 -0.3507 -0.2901
  116OSM   H11S12077   5.408   1.970   5.669  2.5593 -2.5347 -1.0461
  116OSM   H11T12078   5.260   1.933   5.747  0.2670  2.9707 -2.6654
  116OSM   C12S12079   5.345   1.771   5.629 -0.1055 -0.5901  0.4636
  116OSM   H12S12080   5.308   1.808   5.531  2.0355 -0.2323 -0.2670
  116OSM   H12T12081   5.267   1.695   5.650 -0.1026 -1.4073 -2.1679
  116OSM   C13S12082   5.470   1.696   5.594 -0.9496 -0.0981 -0.4454
  116OSM   H13S12083   5.497   1.634   5.682  0.2523  0.4698 -0.3987
  116OSM   H13T12084   5.553   1.766   5.573  1.5807 -2.7366  0.2459
  116OSM   C14S12085   5.456   1.594   5.480  0.3699 -0.4200 -0.5495
  116OSM   H14S12086   5.440   1.659   5.391  2.5748  1.4175  0.2992
  116OSM   H14T12087   5.371   1.530   5.511 -0.2250  0.0332 -1.2030
  116OSM   C15S12088   5.580   1.510   5.473  0.5229 -0.1457  0.9135
  116OSM   H15S12089   5.630   1.511   5.573  2.6826 -0.8528 -0.0894
  116OSM   H15T12090   5.653   1.554   5.401 -1.5708 -0.4439 -1.5224
  116OSM   C16S12091   5.548   1.371   5.425 -0.4591  0.6646 -0.0698
  116OSM   H16S12092   5.513   1.364   5.320 -2.3851  1.7594  0.4661
  116OSM   H16T12093   5.461   1.351   5.490  0.1539  1.6623  1.0977
  116OSM   C17S12094   5.659   1.269   5.456  0.6027 -0.2385 -0.6625
  116OSM   H17S12095   5.669   1.257   5.566  0.2265 -1.0717 -0.7103
  116OSM   H17T12096   5.752   1.311   5.412 -0.1783  1.6672 -0.5999
  116OSM   C18S12097   5.642   1.121   5.410  0.4822  0.0942  0.2653
  116OSM   H18S12098   5.551   1.075   5.454  1.5285 -2.8097 -0.3889
  116OSM   H18T12099   5.731   1.059   5.433 -1.1140 -1.7544  1.7561
  116OSM   H18U12100   5.613   1.121   5.302 -1.8108  0.0493  0.8311
  116OSM    C1F12101   5.702   1.882   6.828  0.7986  0.0662 -0.8783
  116OSM     OF12102   5.761   1.783   6.874  0.0610 -0.3925  0.5377
  116OSM    C2F12103   5.764   2.023   6.816 -0.8505  0.0362 -0.0473
  116OSM    H2F12104   5.843   2.021   6.894  1.5320 -0.5521 -2.3809
  116OSM    H2G12105   5.690   2.105   6.828 -0.6077  0.2376  0.0749
  116OSM    C3F12106   5.839   2.046   6.684 -0.5041  0.0325  0.4575
  116OSM    H3F12107   5.912   1.963   6.673  0.1159  0.2976  2.3256
  116OSM    H3G12108   5.903   2.136   6.690 -0.0404 -0.0654 -1.9218
  116OSM    C4F12109   5.753   2.070   6.555  0.2769 -0.6164  0.0804
  116OSM    H4F12110   5.684   2.151   6.588  0.4530  0.9275 -2.9858
  116OSM    H4G12111   5.693   1.981   6.527  1.8801 -1.8894  0.6009
  116OSM    C5F12112   5.835   2.113   6.434 -0.3048 -0.6135 -0.9205
  116OSM    H5F12113   5.943   2.091   6.437 -0.7153 -3.3197 -2.4540
  116OSM    H5G12114   5.825   2.224   6.439  2.3663 -0.3786  1.1235
  116OSM    C6F12115   5.778   2.064   6.304 -0.3300  0.0997 -1.0501
  116OSM    H6F12116   5.677   2.108   6.290 -0.0792  0.4241 -1.9078
  116OSM    H6G12117   5.767   1.953   6.306 -2.0868  0.2584  0.6284
  116OSM    C7F12118   5.866   2.100   6.178 -0.4173  0.2856 -0.0945
  116OSM    H7F12119   5.953   2.031   6.172  0.6644  1.6515 -0.5049
  116OSM    H7G12120   5.901   2.204   6.192  1.8921 -0.6230  1.5301
  116OSM    C8F12121   5.794   2.075   6.047  0.3464 -0.4354 -0.1656
  116OSM    H8F12122   5.763   1.968   6.048  0.4959 -0.5527  2.7301
  116OSM    H8G12123   5.875   2.086   5.972 -0.9380 -0.6064 -1.6173
  116OSM    C9F12124   5.676   2.167   6.018 -0.8827 -0.3755 -0.2234
  116OSM    H9F12125   5.597   2.184   6.093 -0.7208  1.1032 -0.3550
  116OSM   C10F12126   5.658   2.231   5.904 -0.4269  0.4308 -0.2603
  116OSM   H10F12127   5.571   2.298   5.895 -0.3218  0.3313 -2.3867
  116OSM   C11F12128   5.745   2.226   5.779 -0.1793 -0.6897 -0.6226
  116OSM   H11F12129   5.854   2.238   5.798 -0.6436 -0.8826  2.7053
  116OSM   H11G12130   5.709   2.309   5.715 -0.5381 -0.2695  0.1067
  116OSM   C12F12131   5.718   2.102   5.691 -0.2319 -0.7989  0.1623
  116OSM   H12F12132   5.610   2.077   5.701 -1.4560  2.6311 -2.3427
  116OSM   H12G12133   5.777   2.012   5.719 -1.1369 -1.2182  0.7925
  116OSM   C13F12134   5.727   2.132   5.538  0.8049 -0.3720  0.5738
  116OSM   H13F12135   5.829   2.170   5.515 -0.1181  1.0040 -1.5320
  116OSM   H13G12136   5.644   2.205   5.528  0.6979 -0.4305  1.0123
  116OSM   C14F12137   5.702   2.017   5.437 -0.9945 -0.1051 -0.6039
  116OSM   H14F12138   5.598   1.981   5.451 -1.0346  0.4304  0.6089
  116OSM   H14G12139   5.760   1.925   5.462  0.9721  0.7924 -1.6329
  116OSM   C15F12140   5.719   2.054   5.286  0.9298 -0.3174 -0.8812
  116OSM   H15F12141   5.824   2.076   5.258  1.1617 -1.4129 -0.9481
  116OSM   H15G12142   5.658   2.145   5.271  2.6240  1.4558  2.0674
  116OSM   C16F12143   5.655   1.946   5.193 -0.2411 -0.6651  0.4571
  116OSM   H16F12144   5.721   1.857   5.203  0.8634 -0.8847 -5.1819
  116OSM   H16G12145   5.677   1.975   5.088 -1.2788  0.8810  0.6358
  116OSM   C17F12146   5.509   1.911   5.219 -0.2612  0.9354 -0.4475
  116OSM   H17F12147   5.440   1.997   5.228 -1.5618 -0.2135  1.4485
  116OSM   H17G12148   5.508   1.846   5.310  1.3413  0.8538 -0.4626
  116OSM   C18F12149   5.469   1.815   5.105  0.4612 -0.1285  0.7843
  116OSM   H18F12150   5.359   1.827   5.097  0.2885  0.3083  3.0508
  116OSM   H18G12151   5.500   1.709   5.116  1.6368  0.1629  0.3656
  116OSM   H18H12152   5.511   1.850   5.009  2.2324 -1.2720  1.0810
  117OSM      N12153   4.287   3.914   7.366 -0.5867 -0.1727 -1.0742
  117OSM    C1512154   4.163   3.839   7.398  0.1235  0.7599 -0.2782
  117OSM   H15A12155   4.160   3.749   7.339  2.4045  0.5599 -0.1776
  117OSM   H15B12156   4.074   3.894   7.371 -0.0089 -0.2941 -2.1313
  117OSM   H15C12157   4.156   3.810   7.501 -0.0530  0.4014 -0.3922
  117OSM    C1412158   4.404   3.851   7.428 -0.3605  0.3053  0.3712
  117OSM   H14A12159   4.498   3.887   7.389  0.6015 -1.5399  0.9023
  117OSM   H14B12160   4.407   3.748   7.396 -1.7906 -0.0586  1.3320
  117OSM   H14C12161   4.402   3.853   7.536  0.7722 -1.3372  0.4503
  117OSM    C1312162   4.313   3.907   7.219 -0.6554 -0.4709  0.5351
  117OSM   H13A12163   4.330   3.806   7.185 -1.2730 -0.3217 -0.2368
  117OSM   H13B12164   4.401   3.961   7.188 -0.9797  1.9737  3.4266
  117OSM   H13C12165   4.233   3.938   7.153 -1.0131 -0.8209  0.7999
  117OSM    C1212166   4.265   4.057   7.404 -0.4598  0.3278  0.4273
  117OSM   H12A12167   4.358   4.111   7.396  0.9155 -1.9943 -0.2110
  117OSM   H12B12168   4.230   4.062   7.506 -2.2444  0.7630 -0.1789
  117OSM    C1112169   4.157   4.127   7.327  0.2792 -0.4419 -0.6113
  117OSM   H11A12170   4.070   4.062   7.350  0.0800 -0.2412 -0.7929
  117OSM   H11B12171   4.153   4.127   7.216 -0.6955 -0.7526 -0.5917
  117OSM      P12172   4.215   4.376   7.331  0.1681 -0.8589 -0.1091
  117OSM    O1312173   4.121   4.481   7.279  0.0075  0.3834 -0.5714
  117OSM    O1412174   4.301   4.430   7.434 -0.2009 -0.3595 -0.6506
  117OSM    O1112175   4.297   4.328   7.214 -0.1384  0.4924  0.3494
  117OSM    O1212176   4.132   4.256   7.390 -0.0573  1.1121  0.0276
  117OSM    C1S12177   4.304   4.397   7.084 -0.2774 -0.2937  0.4523
  117OSM    H1S12178   4.275   4.504   7.094 -2.4275 -0.4660 -2.5113
  117OSM    H1T12179   4.239   4.345   7.011  1.3446 -0.0493 -1.2290
  117OSM     NF12180   4.445   4.445   6.897 -0.2694 -0.5666 -0.2892
  117OSM    HNF12181   4.450   4.371   6.830  1.4029 -2.2549  1.5498
  117OSM    C2S12182   4.450   4.397   7.035 -0.5637 -0.0454  0.0308
  117OSM    H2S12183   4.501   4.472   7.099 -0.7803  0.2654 -0.1598
  117OSM    C3S12184   4.521   4.266   7.054 -0.2948  0.1152 -1.0523
  117OSM    H3S12185   4.449   4.187   7.022  0.1187 -0.9767  0.5829
  117OSM     O312186   4.541   4.233   7.191  0.0900  0.3451  0.0099
  117OSM    HO312187   4.463   4.277   7.225  0.1042  1.1308 -0.9275
  117OSM    C4S12188   4.652   4.252   6.986  0.9558 -0.4354 -0.6763
  117OSM    H4S12189   4.735   4.293   7.046 -1.6978  0.1535  2.8850
  117OSM    C5S12190   4.681   4.189   6.870  0.2125 -0.3334 -0.0223
  117OSM    H5S12191   4.597   4.142   6.816 -0.7261  1.9549 -0.6641
  117OSM    C6S12192   4.823   4.182   6.816 -0.5315  0.5679  0.4841
  117OSM    H6S12193   4.853   4.076   6.816  0.8280  0.9343  0.5316
  117OSM    H6T12194   4.895   4.240   6.878 -1.0717 -1.6726  3.4436
  117OSM    C7S12195   4.835   4.248   6.674 -0.0121  0.3152  0.0742
  117OSM    H7S12196   4.773   4.340   6.666  0.5886  0.5613 -2.4272
  117OSM    H7T12197   4.796   4.169   6.607  1.6608 -1.5932  1.2556
  117OSM    C8S12198   4.978   4.278   6.638 -0.3824 -0.8249 -0.1215
  117OSM    H8S12199   5.043   4.188   6.645  2.1062  0.7981 -0.7942
  117OSM    H8T12200   5.024   4.354   6.706  0.2797  0.1208 -1.5619
  117OSM    C9S12201   5.004   4.331   6.495  0.5737 -0.0147 -0.2526
  117OSM    H9S12202   5.110   4.364   6.498 -0.2070  2.6548  0.3854
  117OSM    H9T12203   4.949   4.424   6.471  0.2129 -0.3636 -0.7914
  117OSM   C10S12204   4.994   4.222   6.393 -0.2270  0.2081  0.6491
  117OSM   H10S12205   4.894   4.176   6.379  0.5777 -1.6574  0.7301
  117OSM   H10T12206   5.061   4.135   6.413  0.0469  0.2938  0.1164
  117OSM   C11S12207   5.036   4.279   6.254  0.5049  0.1021  0.1718
  117OSM   H11S12208   5.147   4.280   6.243  0.5314 -1.6116 -0.0214
  117OSM   H11T12209   4.990   4.379   6.243  0.3269  0.0657  0.5580
  117OSM   C12S12210   4.999   4.190   6.136  0.2694  0.0174 -0.2492
  117OSM   H12S12211   4.891   4.216   6.125 -0.1030 -1.6847 -1.0150
  117OSM   H12T12212   5.014   4.080   6.143 -0.7278 -0.1835 -0.9802
  117OSM   C13S12213   5.070   4.238   6.008  0.1959 -0.8628 -0.3196
  117OSM   H13S12214   5.178   4.250   6.034 -0.2474 -0.3246  1.4072
  117OSM   H13T12215   5.046   4.342   5.978  0.8862  0.1635  2.3960
  117OSM   C14S12216   5.042   4.151   5.882  0.3377 -0.7970  0.1048
  117OSM   H14S12217   4.934   4.136   5.862  0.3557 -0.4014 -0.3182
  117OSM   H14T12218   5.101   4.059   5.903  2.7044  0.3990 -0.9542
  117OSM   C15S12219   5.114   4.210   5.752 -0.1189  0.1784 -0.6300
  117OSM   H15S12220   5.222   4.217   5.775 -0.1190 -1.1523 -0.1545
  117OSM   H15T12221   5.087   4.312   5.716  3.3663  0.8299 -1.7976
  117OSM   C16S12222   5.098   4.114   5.635  0.9567 -0.7269  0.8396
  117OSM   H16S12223   4.991   4.121   5.606  0.7197 -2.4997  1.1642
  117OSM   H16T12224   5.135   4.012   5.660  0.1962 -1.9792 -2.5459
  117OSM   C17S12225   5.193   4.158   5.525 -0.0361 -0.7167  0.2546
  117OSM   H17S12226   5.289   4.166   5.581  0.0735  2.4378 -0.2096
  117OSM   H17T12227   5.146   4.253   5.491  0.2706 -0.5005  0.4268
  117OSM   C18S12228   5.194   4.061   5.410 -0.4225  0.0680  0.3112
  117OSM   H18S12229   5.095   4.056   5.359 -0.0101  2.7048 -0.9789
  117OSM   H18T12230   5.204   3.959   5.452  1.4884  0.9586  2.1893
  117OSM   H18U12231   5.283   4.075   5.344  1.3859  1.0141  2.7750
  117OSM    C1F12232   4.425   4.569   6.859  0.3192 -0.1892 -0.4353
  117OSM     OF12233   4.400   4.664   6.938 -0.7186 -0.2487 -0.0881
  117OSM    C2F12234   4.423   4.584   6.710  0.0146 -0.0690 -0.0831
  117OSM    H2F12235   4.356   4.505   6.670  0.0763 -1.0156  1.5562
  117OSM    H2G12236   4.526   4.570   6.672  0.4914 -1.6307  1.6059
  117OSM    C3F12237   4.368   4.722   6.681 -0.5294  0.4898  0.5073
  117OSM    H3F12238   4.438   4.795   6.727  1.8470 -0.2934 -1.6205
  117OSM    H3G12239   4.265   4.733   6.721 -0.6880  0.1160  0.2042
  117OSM    C4F12240   4.361   4.757   6.530 -0.4825  0.0609  0.5778
  117OSM    H4F12241   4.454   4.740   6.471 -0.9521 -2.6247  0.4887
  117OSM    H4G12242   4.343   4.866   6.533 -0.1337  0.1513 -0.2141
  117OSM    C5F12243   4.251   4.676   6.458  0.5338 -0.3089  0.4591
  117OSM    H5F12244   4.161   4.717   6.509 -0.9632 -0.4194 -1.9537
  117OSM    H5G12245   4.270   4.568   6.475 -0.9581 -0.4154  1.7109
  117OSM    C6F12246   4.259   4.695   6.303  0.6094  0.0493  0.2265
  117OSM    H6F12247   4.358   4.658   6.268  0.7822 -0.2321  0.9893
  117OSM    H6G12248   4.255   4.804   6.283  0.8344  0.1703  0.8216
  117OSM    C7F12249   4.135   4.634   6.227  0.4612  0.4109 -0.4468
  117OSM    H7F12250   4.043   4.662   6.282 -0.4900 -3.1235  0.0085
  117OSM    H7G12251   4.145   4.526   6.205 -0.7911 -0.2301  1.9254
  117OSM    C8F12252   4.118   4.697   6.081  0.2716  0.1485 -0.3633
  117OSM    H8F12253   4.110   4.807   6.084  1.2726  0.2367 -0.7073
  117OSM    H8G12254   4.014   4.673   6.050 -0.1651 -0.3238  1.3400
  117OSM    C9F12255   4.223   4.640   5.986  0.4119 -0.2860 -0.9105
  117OSM    H9F12256   4.320   4.667   6.028 -1.0402  2.0842  1.1857
  117OSM   C10F12257   4.211   4.560   5.879  0.1785 -0.2808 -0.2718
  117OSM   H10F12258   4.301   4.530   5.822  0.4755 -0.7675  0.4380
  117OSM   C11F12259   4.079   4.530   5.817  0.0700  0.4939  0.1785
  117OSM   H11F12260   4.058   4.584   5.723  0.6867  1.7868  0.7525
  117OSM   H11G12261   3.998   4.546   5.892  1.2114  0.2597  1.5134
  117OSM   C12F12262   4.071   4.380   5.772 -0.0322  0.5078 -0.2335
  117OSM   H12F12263   3.968   4.353   5.739  0.6126 -3.4369  0.5175
  117OSM   H12G12264   4.104   4.306   5.848  1.2921  0.1053 -1.1792
  117OSM   C13F12265   4.147   4.349   5.638 -0.0546  0.1130  0.4895
  117OSM   H13F12266   4.154   4.239   5.646  2.1760  0.2330  0.9784
  117OSM   H13G12267   4.251   4.387   5.628 -0.0470 -0.2417 -0.8897
  117OSM   C14F12268   4.067   4.405   5.520  0.7140  0.5555  0.2826
  117OSM   H14F12269   4.060   4.516   5.512 -0.4842  0.4566 -0.1748
  117OSM   H14G12270   3.965   4.365   5.537  1.2293 -0.3768  1.2511
  117OSM   C15F12271   4.132   4.354   5.387 -0.4530  0.5577 -0.1043
  117OSM   H15F12272   4.059   4.371   5.305 -1.2331  0.0939  0.4790
  117OSM   H15G12273   4.143   4.244   5.402 -0.1426  0.3492 -1.6481
  117OSM   C16F12274   4.264   4.420   5.341 -0.9426  0.0360  0.6343
  117OSM   H16F12275   4.290   4.392   5.237 -0.1624  0.1548  0.7882
  117OSM   H16G12276   4.346   4.387   5.409 -0.2784  2.0219  0.8595
  117OSM   C17F12277   4.248   4.571   5.336  0.0479  0.2477  0.5310
  117OSM   H17F12278   4.245   4.613   5.438  0.0928 -0.4401  0.8166
  117OSM   H17G12279   4.154   4.602   5.286  1.0793  1.7643 -0.5675
  117OSM   C18F12280   4.352   4.635   5.245  0.0989  0.0818 -0.5053
  117OSM   H18F12281   4.452   4.589   5.259  0.6750 -0.0603 -4.1146
  117OSM   H18G12282   4.351   4.745   5.255 -3.3890  0.1427 -0.4019
  117OSM   H18H12283   4.327   4.603   5.142  0.7239 -0.5147 -0.4781
  118OSM      N12284   5.563   3.467   7.141  0.3047  0.0719 -0.1735
  118OSM    C1512285   5.692   3.536   7.111 -0.4209 -0.7527 -0.2100
  118OSM   H15A12286   5.759   3.532   7.195  2.2551 -1.4245 -2.2249
  118OSM   H15B12287   5.664   3.639   7.094 -0.9465 -1.0760 -1.4451
  118OSM   H15C12288   5.745   3.521   7.018 -1.5198  0.9768 -1.1675
  118OSM    C1412289   5.607   3.335   7.190  0.0681 -0.1607 -0.0887
  118OSM   H14A12290   5.666   3.348   7.280 -0.2861 -1.1360  0.2971
  118OSM   H14B12291   5.666   3.283   7.116 -1.6068  0.9686 -2.3726
  118OSM   H14C12292   5.529   3.272   7.230 -1.9495  0.7109 -2.3722
  118OSM    C1312293   5.484   3.533   7.245  1.1579  0.7932  0.2587
  118OSM   H13A12294   5.387   3.488   7.256  0.9307  1.4873  1.2809
  118OSM   H13B12295   5.471   3.638   7.222  2.8074  0.9571 -0.0451
  118OSM   H13C12296   5.524   3.530   7.345 -1.9983  1.1735  1.6265
  118OSM    C1212297   5.482   3.451   7.010  0.4660 -0.2360  0.2257
  118OSM   H12A12298   5.549   3.428   6.929 -0.7315 -2.3894 -0.2168
  118OSM   H12B12299   5.451   3.554   6.995 -0.3722 -0.3156  1.2609
  118OSM    C1112300   5.358   3.354   7.022  0.8882  0.2516 -0.0135
  118OSM   H11A12301   5.397   3.253   7.048  0.7574  0.9318  3.2840
  118OSM   H11B12302   5.319   3.354   6.918  1.8348  2.1800 -0.4130
  118OSM      P12303   5.157   3.509   7.061 -0.2008 -0.2641  0.1756
  118OSM    O1312304   5.065   3.537   7.168 -0.1660 -0.0046 -0.0123
  118OSM    O1412305   5.225   3.624   7.001 -0.2325  0.4418  0.3629
  118OSM    O1112306   5.085   3.424   6.946 -0.3120 -0.0155  0.2459
  118OSM    O1212307   5.255   3.393   7.111  0.1153 -0.2464  0.2066
  118OSM    C1S12308   4.982   3.489   6.865  0.1747  0.5526  0.5168
  118OSM    H1S12309   4.967   3.597   6.887  0.3010  0.6663  0.0497
  118OSM    H1T12310   4.878   3.450   6.864  0.3356  0.1232  0.2610
  118OSM     NF12311   4.915   3.569   6.630  0.0437  0.9648  0.3883
  118OSM    HNF12312   4.885   3.519   6.549 -2.3022  0.6131  1.3650
  118OSM    C2S12313   5.021   3.497   6.710 -0.0409 -0.0042 -0.0243
  118OSM    H2S12314   5.107   3.566   6.700 -1.2240  1.5251 -0.0093
  118OSM    C3S12315   5.062   3.356   6.656 -0.4660  0.1242  0.1026
  118OSM    H3S12316   4.971   3.293   6.666 -0.0811 -0.5828 -0.8046
  118OSM     O312317   5.154   3.282   6.734  0.3190 -0.3485  0.4543
  118OSM    HO312318   5.154   3.336   6.813  0.0666 -1.4224  1.2102
  118OSM    C4S12319   5.112   3.354   6.511 -0.3803  0.4524  0.2624
  118OSM    H4S12320   5.208   3.403   6.485 -0.2960  0.5264  0.7035
  118OSM    C5S12321   5.049   3.286   6.411  0.1742 -0.3454  0.1569
  118OSM    H5S12322   4.958   3.228   6.430 -1.7614  1.9782 -1.3874
  118OSM    C6S12323   5.102   3.296   6.275 -0.6710 -0.1828 -0.2749
  118OSM    H6S12324   5.146   3.195   6.257 -1.0706 -0.4370  0.1638
  118OSM    H6T12325   5.172   3.382   6.265  0.4125 -0.8981  0.9210
  118OSM    C7S12326   5.006   3.316   6.159 -0.0142 -0.6239 -0.3327
  118OSM    H7S12327   4.977   3.423   6.160 -1.7238 -1.0515 -1.1955
  118OSM    H7T12328   4.919   3.247   6.158 -0.8254  0.3786 -1.8624
  118OSM    C8S12329   5.077   3.303   6.017  0.5669  0.0941  0.1902
  118OSM    H8S12330   5.115   3.198   6.011 -0.8748 -0.4941  0.9166
  118OSM    H8T12331   5.159   3.376   6.003  0.7903 -0.1265  0.3408
  118OSM    C9S12332   4.977   3.325   5.907 -0.0492 -0.4511 -0.4884
  118OSM    H9S12333   4.951   3.433   5.913  1.1435 -0.1195 -0.8956
  118OSM    H9T12334   4.888   3.264   5.932  0.2551 -0.1917  1.3241
  118OSM   C10S12335   5.040   3.302   5.768 -0.3045  0.0380  0.2142
  118OSM   H10S12336   5.109   3.217   5.787 -0.9548 -1.2211 -2.5094
  118OSM   H10T12337   5.093   3.395   5.736 -1.3702  0.2095 -1.1718
  118OSM   C11S12338   4.948   3.252   5.661  0.0935 -0.4430  0.0745
  118OSM   H11S12339   4.867   3.328   5.652 -1.0770 -1.6592  0.1422
  118OSM   H11T12340   4.915   3.148   5.682 -0.7208 -0.5523 -1.5828
  118OSM   C12S12341   5.017   3.263   5.528  0.6017  0.0905  0.7894
  118OSM   H12S12342   5.097   3.186   5.528  0.7773  0.1597  3.7368
  118OSM   H12T12343   5.067   3.360   5.508  2.5517 -1.0534 -0.2301
  118OSM   C13S12344   4.917   3.243   5.415 -0.1661  0.2244  0.1557
  118OSM   H13S12345   4.980   3.226   5.325 -1.2636 -4.5697  0.0156
  118OSM   H13T12346   4.850   3.328   5.392 -1.7679 -0.0780  3.2043
  118OSM   C14S12347   4.835   3.115   5.430  0.1970 -0.2208  0.4258
  118OSM   H14S12348   4.788   3.124   5.531 -0.4200  0.8933  0.0602
  118OSM   H14T12349   4.904   3.029   5.438  1.4986  0.6961 -0.6487
  118OSM   C15S12350   4.720   3.109   5.329 -0.2864  0.8603  0.3148
  118OSM   H15S12351   4.683   3.214   5.323  1.3776  1.4436 -0.5083
  118OSM   H15T12352   4.649   3.032   5.365  2.1451 -1.0790  1.2442
  118OSM   C16S12353   4.759   3.055   5.196 -1.0544 -0.2833 -0.2960
  118OSM   H16S12354   4.835   2.975   5.216 -1.4823 -0.4837  0.5573
  118OSM   H16T12355   4.814   3.137   5.145  0.6868 -1.0802  0.2024
  118OSM   C17S12356   4.652   3.011   5.103 -0.5693 -0.5580  0.7538
  118OSM   H17S12357   4.570   3.085   5.091  1.0990  0.9655 -2.9147
  118OSM   H17T12358   4.598   2.929   5.155  1.8804 -0.4754  3.7394
  118OSM   C18S12359   4.689   2.972   4.959  0.4490  0.4148  0.3418
  118OSM   H18S12360   4.704   3.067   4.903 -1.7606 -0.4859 -1.9994
  118OSM   H18T12361   4.598   2.921   4.919  1.0133 -0.0232 -0.4256
  118OSM   H18U12362   4.777   2.904   4.953  1.1549  1.4097 -1.4629
  118OSM    C1F12363   4.871   3.689   6.642 -0.3112  0.6317 -0.8675
  118OSM     OF12364   4.919   3.761   6.724  0.3306 -0.2931 -0.0378
  118OSM    C2F12365   4.781   3.742   6.535 -0.5217 -0.1325  0.7744
  118OSM    H2F12366   4.807   3.849   6.545  0.2880 -0.4507  2.3538
  118OSM    H2G12367   4.676   3.725   6.568 -1.1078  2.5477  0.4954
  118OSM    C3F12368   4.817   3.700   6.384  0.1323  0.8014 -0.1950
  118OSM    H3F12369   4.781   3.598   6.359  0.4108  0.8698 -0.9064
  118OSM    H3G12370   4.928   3.695   6.382  0.1185  0.4320 -0.1432
  118OSM    C4F12371   4.764   3.789   6.268 -0.1329  0.6539 -0.3512
  118OSM    H4F12372   4.805   3.891   6.279  1.9282 -0.2460  1.1690
  118OSM    H4G12373   4.653   3.790   6.265 -0.3095  0.1657  2.5718
  118OSM    C5F12374   4.817   3.718   6.143  0.0415  0.3276  0.4727
  118OSM    H5F12375   4.780   3.613   6.143  2.5100 -0.6200  0.8287
  118OSM    H5G12376   4.928   3.714   6.142  0.0877  1.3952 -1.0805
  118OSM    C6F12377   4.777   3.771   6.001  0.4086  0.2976  0.2804
  118OSM    H6F12378   4.810   3.875   5.979  0.6821  1.2504  4.3813
  118OSM    H6G12379   4.666   3.773   5.996  0.3099  1.0826  1.9069
  118OSM    C7F12380   4.833   3.673   5.902 -0.5409 -0.8989 -0.1379
  118OSM    H7F12381   4.790   3.575   5.934  0.2735 -0.4398  2.5932
  118OSM    H7G12382   4.944   3.667   5.904 -0.4779  0.1109 -0.1233
  118OSM    C8F12383   4.796   3.706   5.761  0.0166  0.4247  0.3120
  118OSM    H8F12384   4.842   3.803   5.734  3.2887 -1.4147 -1.2403
  118OSM    H8G12385   4.686   3.716   5.744  0.2495  0.0197 -1.6660
  118OSM    C9F12386   4.838   3.606   5.660  0.6114 -0.3337  0.7675
  118OSM    H9F12387   4.804   3.506   5.690 -0.6593 -0.1989 -0.1440
  118OSM   C10F12388   4.894   3.623   5.543 -0.0864 -0.3367  0.2722
  118OSM   H10F12389   4.924   3.534   5.486  1.0213  0.7754 -0.9339
  118OSM   C11F12390   4.934   3.745   5.464 -0.5561 -0.2794 -0.7365
  118OSM   H11F12391   5.041   3.771   5.481 -0.8483  0.2101  0.4921
  118OSM   H11G12392   4.892   3.837   5.510  0.9072 -0.0276  0.1682
  118OSM   C12F12393   4.906   3.729   5.310 -0.6565 -0.0012  0.1504
  118OSM   H12F12394   4.906   3.832   5.268 -0.1604 -0.1324 -0.1708
  118OSM   H12G12395   4.809   3.677   5.293 -0.7072  0.2038 -0.1792
  118OSM   C13F12396   5.016   3.644   5.239  0.1959  0.3644 -0.6896
  118OSM   H13F12397   5.018   3.547   5.293 -1.0274  2.4482  3.4994
  118OSM   H13G12398   5.114   3.695   5.248 -0.9286  2.6535 -0.7304
  118OSM   C14F12399   5.002   3.599   5.094  0.0664  0.2450  0.4116
  118OSM   H14F12400   5.105   3.598   5.051 -0.0627  1.2087  0.0440
  118OSM   H14G12401   4.943   3.678   5.043  1.3725 -0.4301 -2.3135
  118OSM   C15F12402   4.933   3.465   5.080  0.0737 -0.1205 -0.4923
  118OSM   H15F12403   4.839   3.473   5.140  0.4648 -1.6266  0.3833
  118OSM   H15G12404   4.997   3.393   5.136  0.6280  0.8989  0.2012
  118OSM   C16F12405   4.910   3.420   4.935 -0.2216 -0.2076  0.2847
  118OSM   H16F12406   4.903   3.515   4.877 -1.4810 -0.0421  0.6778
  118OSM   H16G12407   4.816   3.363   4.922  0.2690 -0.9137 -0.1843
  118OSM   C17F12408   5.022   3.324   4.875 -0.0047 -0.1835 -0.0857
  118OSM   H17F12409   5.122   3.369   4.895 -0.3153  1.2141 -1.4795
  118OSM   H17G12410   5.009   3.315   4.765  3.0440  3.2257 -0.9540
  118OSM   C18F12411   5.014   3.184   4.931 -0.2346  0.8781  0.6464
  118OSM   H18F12412   5.098   3.131   4.881 -0.2324  2.4005 -1.0686
  118OSM   H18G12413   4.922   3.131   4.899 -0.6229  1.5857  0.5741
  118OSM   H18H12414   5.044   3.174   5.037  0.6216  1.4237  0.4666
  119OSM      N12415   6.184   0.850   7.817 -0.2665 -1.1256 -0.3193
  119OSM    C1512416   6.088   0.745   7.785  0.4795  0.4826 -0.4537
  119OSM   H15A12417   6.129   0.668   7.722 -2.3251  0.2006 -2.1023
  119OSM   H15B12418   6.000   0.776   7.729  0.8859 -1.2413 -2.1442
  119OSM   H15C12419   6.049   0.697   7.873 -1.5424 -0.8718 -1.9981
  119OSM    C1412420   6.121   0.971   7.889 -0.0412 -0.1062 -0.1708
  119OSM   H14A12421   6.073   0.934   7.979  2.3377 -3.0258  0.0542
  119OSM   H14B12422   6.040   1.007   7.828  1.7305  2.4180 -1.1863
  119OSM   H14C12423   6.187   1.055   7.903 -2.0610  1.3577  1.3127
  119OSM    C1312424   6.271   0.793   7.928  0.2736  0.4003  0.2617
  119OSM   H13A12425   6.334   0.720   7.881 -1.1937 -1.5114  1.1304
  119OSM   H13B12426   6.212   0.753   8.009 -0.0253  2.0099  0.8881
  119OSM   H13C12427   6.337   0.863   7.977 -1.3755  2.0784  0.2228
  119OSM    C1212428   6.272   0.892   7.695  0.3332  0.0593 -0.9133
  119OSM   H12A12429   6.315   0.799   7.660 -2.2966 -1.4694 -0.3498
  119OSM   H12B12430   6.340   0.969   7.727 -0.2818  1.1979 -2.2411
  119OSM    C1112431   6.191   0.962   7.584 -0.1383  0.2475  0.0849
  119OSM   H11A12432   6.149   1.060   7.616 -0.3742 -0.1790  1.1210
  119OSM   H11B12433   6.108   0.891   7.563 -0.6186  0.1078  2.2295
  119OSM      P12434   6.308   0.841   7.397 -0.5853 -0.2660  0.0723
  119OSM    O1312435   6.420   0.864   7.300  0.1513  0.1659 -0.4744
  119OSM    O1412436   6.324   0.726   7.490 -0.1653  0.0398  0.1189
  119OSM    O1112437   6.179   0.816   7.315  0.5241 -0.3898  0.6724
  119OSM    O1212438   6.273   0.977   7.470 -0.1980  0.2757 -0.2544
  119OSM    C1S12439   6.121   0.919   7.234 -0.1409  0.1020 -0.7715
  119OSM    H1S12440   6.168   1.019   7.236  0.1832 -0.0378 -1.3397
  119OSM    H1T12441   6.013   0.932   7.257  0.0766  0.8434 -0.1207
  119OSM     NF12442   6.083   0.969   7.002 -0.1117  0.1462  0.8001
  119OSM    HNF12443   5.992   0.965   6.961  0.6299  1.3637 -1.1486
  119OSM    C2S12444   6.132   0.865   7.090  0.3240  0.7361 -0.0956
  119OSM    H2S12445   6.240   0.847   7.069  0.0957  0.1975 -0.7916
  119OSM    C3S12446   6.059   0.731   7.066 -0.0717 -0.1588 -0.6744
  119OSM    H3S12447   5.950   0.751   7.073  0.3061  1.7349  0.3538
  119OSM     O312448   6.109   0.622   7.142  0.1413  0.0104  0.1398
  119OSM    HO312449   6.166   0.662   7.208  0.4253 -0.1020 -0.0352
  119OSM    C4S12450   6.086   0.686   6.919 -0.3752 -0.9729 -0.2473
  119OSM    H4S12451   6.193   0.667   6.901 -0.8044 -2.3741 -1.4849
  119OSM    C5S12452   5.993   0.664   6.826 -0.1004  1.1545 -0.0488
  119OSM    H5S12453   5.887   0.681   6.850 -0.1295 -0.7278  1.4594
  119OSM    C6S12454   6.029   0.615   6.689 -0.2832  0.3668  0.5013
  119OSM    H6S12455   6.052   0.697   6.617 -2.0109  0.7462  0.3434
  119OSM    H6T12456   5.934   0.574   6.648 -0.1924 -0.0461  0.6966
  119OSM    C7S12457   6.139   0.504   6.678  0.1998  0.8739 -0.8133
  119OSM    H7S12458   6.126   0.430   6.760  0.1800  2.2760  0.4708
  119OSM    H7T12459   6.226   0.569   6.702 -0.2538  0.1703  3.3792
  119OSM    C8S12460   6.145   0.441   6.540 -0.3233  0.2169 -0.1430
  119OSM    H8S12461   6.188   0.521   6.477 -1.3094  1.7864  1.0809
  119OSM    H8T12462   6.046   0.403   6.506  0.1265 -0.3032 -0.8757
  119OSM    C9S12463   6.230   0.312   6.535 -0.4881 -0.2321  0.3090
  119OSM    H9S12464   6.150   0.242   6.568 -0.8150  0.8906  2.0501
  119OSM    H9T12465   6.323   0.309   6.596  0.0732 -2.8700 -0.5413
  119OSM   C10S12466   6.281   0.277   6.400  0.1324  0.3287 -0.1647
  119OSM   H10S12467   6.198   0.276   6.327  2.2022 -0.2842 -2.6809
  119OSM   H10T12468   6.329   0.177   6.390 -2.6074 -1.3461  2.0512
  119OSM   C11S12469   6.367   0.381   6.339 -0.0439 -0.3014 -0.4090
  119OSM   H11S12470   6.456   0.411   6.399 -0.0478 -0.6655 -0.2211
  119OSM   H11T12471   6.307   0.472   6.319 -0.5603 -0.7008 -0.6972
  119OSM   C12S12472   6.423   0.330   6.203 -0.2065 -0.5402 -0.2094
  119OSM   H12S12473   6.461   0.226   6.218 -1.4941 -1.0617 -0.4052
  119OSM   H12T12474   6.505   0.392   6.160 -1.2524  0.1650 -1.2682
  119OSM   C13S12475   6.320   0.323   6.096 -0.8508  0.0364  0.7536
  119OSM   H13S12476   6.259   0.416   6.107  0.2909  0.6361  2.5275
  119OSM   H13T12477   6.250   0.239   6.116  0.5643 -1.1877  0.6436
  119OSM   C14S12478   6.367   0.294   5.949 -0.2893 -1.0428  0.1265
  119OSM   H14S12479   6.412   0.193   5.960 -0.0443 -0.9671 -0.1608
  119OSM   H14T12480   6.441   0.366   5.908 -1.5924  0.8561  0.9799
  119OSM   C15S12481   6.258   0.270   5.855  0.7033 -0.6540  0.2157
  119OSM   H15S12482   6.208   0.171   5.868  1.3021 -0.9828  0.0186
  119OSM   H15T12483   6.281   0.276   5.747  1.2163  1.0491  0.3872
  119OSM   C16S12484   6.132   0.363   5.882 -0.0302  0.1478  0.0840
  119OSM   H16S12485   6.164   0.469   5.876  0.1991  0.2510  2.4059
  119OSM   H16T12486   6.095   0.334   5.982  2.0780 -0.5659  0.7162
  119OSM   C17S12487   6.024   0.335   5.775  0.7514  0.1091  0.2431
  119OSM   H17S12488   5.979   0.235   5.793 -2.4783  1.1718 -1.0652
  119OSM   H17T12489   6.079   0.342   5.679  0.9072 -0.8572  0.2509
  119OSM   C18S12490   5.914   0.445   5.779  0.0290  0.1229  0.4986
  119OSM   H18S12491   5.877   0.448   5.884  1.4780  0.9556  1.0189
  119OSM   H18T12492   5.827   0.430   5.712 -2.4523  0.0573  3.4979
  119OSM   H18U12493   5.959   0.544   5.758 -2.2734  0.9715 -0.7084
  119OSM    C1F12494   6.152   1.078   6.973 -0.2713  0.7427 -0.1197
  119OSM     OF12495   6.274   1.078   6.997 -0.2062 -0.0813 -0.0894
  119OSM    C2F12496   6.080   1.197   6.910 -0.6481  0.1233  0.0437
  119OSM    H2F12497   6.006   1.248   6.975  0.2089 -2.3209  3.2260
  119OSM    H2G12498   6.024   1.147   6.829 -0.8070 -0.6064  0.5898
  119OSM    C3F12499   6.175   1.289   6.843  0.9014  0.1706  0.6870
  119OSM    H3F12500   6.248   1.235   6.780 -1.1902 -4.0876  1.5307
  119OSM    H3G12501   6.233   1.331   6.928 -0.8235  1.0448  1.4782
  119OSM    C4F12502   6.094   1.388   6.750  0.7407 -0.0241 -0.4769
  119OSM    H4F12503   6.058   1.477   6.806  0.9861 -0.9109  1.1325
  119OSM    H4G12504   6.001   1.333   6.724  1.8055 -2.0022 -0.3137
  119OSM    C5F12505   6.171   1.424   6.618 -0.4361 -0.5286 -0.2341
  119OSM    H5F12506   6.202   1.324   6.581 -0.2021 -1.0825  1.3843
  119OSM    H5G12507   6.257   1.489   6.646 -1.9918  1.1183  0.9583
  119OSM    C6F12508   6.093   1.506   6.516  0.5720 -0.0068 -0.5333
  119OSM    H6F12509   5.994   1.456   6.509  0.1645 -0.0003  3.0541
  119OSM    H6G12510   6.145   1.511   6.418  0.9323  1.0507 -0.2975
  119OSM    C7F12511   6.078   1.653   6.560 -0.8715 -0.3049  0.5026
  119OSM    H7F12512   6.186   1.679   6.568 -0.2417 -1.6213 -2.2352
  119OSM    H7G12513   6.032   1.667   6.659  0.7972  2.6466  0.9682
  119OSM    C8F12514   5.996   1.734   6.455 -0.0947 -0.0837  0.0501
  119OSM    H8F12515   6.043   1.744   6.355 -1.1970  2.4241 -0.3129
  119OSM    H8G12516   5.988   1.838   6.494 -0.3156 -0.0163 -0.1713
  119OSM    C9F12517   5.851   1.687   6.445 -0.1950  0.5156  0.8288
  119OSM    H9F12518   5.790   1.701   6.535 -2.6416 -0.9626 -0.5107
  119OSM   C10F12519   5.794   1.631   6.339  0.4673  0.2605 -0.9743
  119OSM   H10F12520   5.689   1.601   6.355  0.4727  0.8979  0.3961
  119OSM   C11F12521   5.854   1.577   6.214 -0.2887 -0.1594  0.0059
  119OSM   H11F12522   5.830   1.468   6.212 -1.2507  0.0422 -1.8052
  119OSM   H11G12523   5.965   1.576   6.224 -0.5055 -1.9025  4.5643
  119OSM   C12F12524   5.802   1.654   6.088  0.6907  0.3746  0.5207
  119OSM   H12F12525   5.820   1.763   6.090  2.5503  0.0899  0.7956
  119OSM   H12G12526   5.691   1.643   6.087  0.8092 -0.9588 -0.4663
  119OSM   C13F12527   5.845   1.589   5.947 -0.0572 -0.0396  0.2778
  119OSM   H13F12528   5.811   1.485   5.928  3.9130 -1.8512  2.0086
  119OSM   H13G12529   5.955   1.582   5.953  0.2829  3.8193  1.4264
  119OSM   C14F12530   5.823   1.682   5.834  0.0384  0.1126  0.7894
  119OSM   H14F12531   5.880   1.774   5.858  0.1789  0.8103 -1.9064
  119OSM   H14G12532   5.719   1.707   5.804 -0.6524  0.2964  3.1320
  119OSM   C15F12533   5.893   1.623   5.702  0.8993  0.2043 -0.0854
  119OSM   H15F12534   5.862   1.693   5.621 -0.7524  1.1062  1.2543
  119OSM   H15G12535   5.850   1.524   5.676 -0.6151  0.4928  1.1865
  119OSM   C16F12536   6.050   1.613   5.700  0.1586 -0.5102 -0.2772
  119OSM   H16F12537   6.088   1.528   5.761  1.8836 -0.2913 -0.9931
  119OSM   H16G12538   6.099   1.709   5.729  0.5280 -1.1422  1.2871
  119OSM   C17F12539   6.102   1.590   5.561  0.0836  1.0221  0.2918
  119OSM   H17F12540   6.076   1.676   5.496  1.1074  0.8231 -0.3993
  119OSM   H17G12541   6.059   1.493   5.530  1.9371  0.6733 -1.3822
  119OSM   C18F12542   6.253   1.579   5.562  0.1477  0.5332  0.1582
  119OSM   H18F12543   6.287   1.511   5.643  0.1262  0.2567 -0.0634
  119OSM   H18G12544   6.304   1.676   5.580  2.4889 -0.8884  1.6528
  119OSM   H18H12545   6.304   1.550   5.467  2.3106  1.3524  1.0103
  120OSM      N12546   3.848   4.430   7.549 -0.3892 -0.3056 -0.3357
  120OSM    C1512547   3.964   4.446   7.642  0.8341 -0.6916  0.4249
  120OSM   H15A12548   4.047   4.384   7.611  2.6877  1.8003  0.0862
  120OSM   H15B12549   3.947   4.416   7.744 -1.5947 -1.5434 -0.1737
  120OSM   H15C12550   3.993   4.550   7.648 -0.6242 -0.1776 -1.0064
  120OSM    C1412551   3.855   4.283   7.521 -1.0384 -0.4630 -0.3741
  120OSM   H14A12552   3.795   4.254   7.435  1.7054  0.5753 -2.8011
  120OSM   H14B12553   3.815   4.219   7.599 -0.7132  0.3073  0.4321
  120OSM   H14C12554   3.958   4.259   7.497 -0.3738  1.8374  0.0119
  120OSM    C1312555   3.717   4.450   7.616 -0.3678 -0.5363 -0.0812
  120OSM   H13A12556   3.712   4.553   7.647  1.2035 -0.0364 -1.3428
  120OSM   H13B12557   3.718   4.402   7.712  0.5943 -0.7057 -0.1695
  120OSM   H13C12558   3.629   4.429   7.557  0.3166 -1.2730 -0.8834
  120OSM    C1212559   3.867   4.516   7.428  0.0356  0.1670  0.2123
  120OSM   H12A12560   3.962   4.503   7.379  0.4884 -0.7252  1.2817
  120OSM   H12B12561   3.867   4.617   7.467  1.6089  0.1033  0.4476
  120OSM    C1112562   3.767   4.492   7.312 -0.1404  0.2662 -0.0080
  120OSM   H11A12563   3.778   4.390   7.270 -1.6036  0.6927 -1.5179
  120OSM   H11B12564   3.800   4.552   7.224  2.0255 -1.3006 -0.3361
  120OSM      P12565   3.533   4.599   7.277 -0.4674 -0.5642 -0.1930
  120OSM    O1312566   3.397   4.557   7.318  0.1276 -0.5995  0.3032
  120OSM    O1412567   3.565   4.738   7.303  0.0678  0.0256 -0.0648
  120OSM    O1112568   3.552   4.577   7.124  0.4787 -0.0068  0.4730
  120OSM    O1212569   3.633   4.508   7.347 -0.2632 -0.2095  0.0762
  120OSM    C1S12570   3.543   4.446   7.059 -0.0513  0.1669 -0.4269
  120OSM    H1S12571   3.458   4.396   7.109 -0.4856  0.0366 -1.2827
  120OSM    H1T12572   3.632   4.382   7.079 -2.4392 -3.3750 -0.3014
  120OSM     NF12573   3.500   4.325   6.845  0.3382 -0.1137 -0.2445
  120OSM    HNF12574   3.572   4.275   6.797  0.9224 -1.9911  2.3574
  120OSM    C2S12575   3.513   4.457   6.907  0.2897  0.2720 -0.7041
  120OSM    H2S12576   3.419   4.514   6.893  0.0463 -0.0653 -0.4221
  120OSM    C3S12577   3.625   4.542   6.840 -0.2765 -0.9580  0.0474
  120OSM    H3S12578   3.713   4.476   6.824  0.4142 -0.9552  3.0927
  120OSM     O312579   3.676   4.655   6.915  0.6436 -0.2440 -0.6712
  120OSM    HO312580   3.623   4.662   6.995  0.6079  4.1185 -0.8413
  120OSM    C4S12581   3.575   4.591   6.706  0.5476 -1.2516  0.4417
  120OSM    H4S12582   3.576   4.507   6.635  0.2367 -1.1975  0.3738
  120OSM    C5S12583   3.529   4.710   6.666  0.0305 -1.2213 -0.3607
  120OSM    H5S12584   3.524   4.793   6.739  0.8026 -1.3355 -0.1596
  120OSM    C6S12585   3.471   4.741   6.530  0.2874 -0.0112 -0.0118
  120OSM    H6S12586   3.527   4.822   6.479  2.9088 -1.3579  0.5413
  120OSM    H6T12587   3.365   4.772   6.542 -0.5599 -2.5700 -0.3628
  120OSM    C7S12588   3.488   4.630   6.429  0.6048 -0.2920 -0.0929
  120OSM    H7S12589   3.429   4.541   6.460 -0.0056 -0.0081 -0.4177
  120OSM    H7T12590   3.592   4.598   6.411  0.0756 -0.0010 -4.8092
  120OSM    C8S12591   3.432   4.648   6.289 -0.7716 -0.6563  0.8096
  120OSM    H8S12592   3.450   4.564   6.219 -0.4793 -1.1964  1.5261
  120OSM    H8T12593   3.481   4.735   6.240 -0.5605  0.7164  3.3092
  120OSM    C9S12594   3.277   4.668   6.286 -0.1440  0.6131  0.0170
  120OSM    H9S12595   3.251   4.746   6.360  0.7024  0.1463  0.8259
  120OSM    H9T12596   3.231   4.581   6.337  1.9476 -0.1635  0.6738
  120OSM   C10S12597   3.219   4.673   6.148  0.6017  0.6022 -0.0156
  120OSM   H10S12598   3.123   4.730   6.153 -1.2805 -2.4426  3.2800
  120OSM   H10T12599   3.195   4.570   6.115  1.5211  0.3942 -0.0640
  120OSM   C11S12600   3.296   4.744   6.037 -0.0694  0.0612  0.6328
  120OSM   H11S12601   3.401   4.708   6.031 -0.0382  0.2601 -0.2266
  120OSM   H11T12602   3.309   4.851   6.063  0.5564 -0.1373  1.1763
  120OSM   C12S12603   3.232   4.734   5.903 -0.1102  0.0144  0.7556
  120OSM   H12S12604   3.130   4.778   5.897  0.1246  0.4125 -1.1141
  120OSM   H12T12605   3.217   4.624   5.889 -0.6352  0.0763  0.8019
  120OSM   C13S12606   3.302   4.802   5.781  0.7656 -0.2417 -0.2669
  120OSM   H13S12607   3.407   4.764   5.783  0.4625 -1.1086 -0.4486
  120OSM   H13T12608   3.293   4.912   5.793  3.6017 -0.1213  1.7869
  120OSM   C14S12609   3.243   4.752   5.644 -0.2931  0.0601  0.2644
  120OSM   H14S12610   3.212   4.645   5.647 -2.4329  0.6477  0.7900
  120OSM   H14T12611   3.325   4.772   5.572  0.7762 -0.0131  1.4279
  120OSM   C15S12612   3.118   4.830   5.616  0.0546 -0.1732  0.4222
  120OSM   H15S12613   3.145   4.935   5.642  1.3038 -0.4273  0.2215
  120OSM   H15T12614   3.039   4.801   5.689 -1.5661  0.6201 -0.9739
  120OSM   C16S12615   3.063   4.806   5.476 -1.2156  0.4074  0.2854
  120OSM   H16S12616   2.957   4.836   5.458 -0.8544  0.8693 -1.2214
  120OSM   H16T12617   3.085   4.701   5.448 -2.3459 -0.2170  1.6165
  120OSM   C17S12618   3.150   4.894   5.385  0.5490 -0.6075 -0.3023
  120OSM   H17S12619   3.250   4.847   5.372  0.4720 -0.8245 -0.1226
  120OSM   H17T12620   3.162   4.997   5.425 -0.3232  0.2372 -2.1004
  120OSM   C18S12621   3.084   4.921   5.248  0.4023 -0.0647  0.2343
  120OSM   H18S12622   3.130   5.013   5.205 -0.9381  1.4478  1.8607
  120OSM   H18T12623   2.976   4.943   5.259  0.6665  0.5970  1.7219
  120OSM   H18U12624   3.099   4.833   5.182 -0.8897  0.8685 -1.4152
  120OSM    C1F12625   3.391   4.258   6.884  0.7851  0.7520  0.8512
  120OSM     OF12626   3.305   4.310   6.952 -0.2245 -0.9631 -0.1692
  120OSM    C2F12627   3.374   4.114   6.840 -0.2896  0.4873 -0.1095
  120OSM    H2F12628   3.371   4.058   6.936 -1.0249 -1.0699 -1.0056
  120OSM    H2G12629   3.464   4.088   6.779 -0.0368  0.1830  0.3858
  120OSM    C3F12630   3.244   4.086   6.763 -0.2764 -0.1067  0.5696
  120OSM    H3F12631   3.159   4.141   6.810 -0.2954  1.2735 -1.0016
  120OSM    H3G12632   3.220   3.980   6.787  1.3684 -0.3090  1.4728
  120OSM    C4F12633   3.264   4.119   6.612  0.5947  0.1072 -0.6688
  120OSM    H4F12634   3.273   4.230   6.604 -0.4384  0.1329 -1.8035
  120OSM    H4G12635   3.170   4.083   6.564 -0.0948 -1.2673  1.5500
  120OSM    C5F12636   3.388   4.070   6.548 -0.2279  1.5238  0.3566
  120OSM    H5F12637   3.404   3.974   6.601  0.7268  1.7975  0.5847
  120OSM    H5G12638   3.472   4.138   6.572  0.0847  0.9832  0.7991
  120OSM    C6F12639   3.374   4.044   6.398 -0.0774  0.1023  0.1337
  120OSM    H6F12640   3.267   4.020   6.380  0.1960  0.0773 -1.6671
  120OSM    H6G12641   3.445   3.967   6.362  0.8053  0.4660  1.0672
  120OSM    C7F12642   3.409   4.160   6.312 -0.1780 -0.6474  0.9229
  120OSM    H7F12643   3.514   4.183   6.340 -0.7317  1.8354  1.2141
  120OSM    H7G12644   3.353   4.254   6.332 -0.8965 -0.5865 -1.1595
  120OSM    C8F12645   3.416   4.118   6.157 -0.7254 -0.2921  0.0310
  120OSM    H8F12646   3.491   4.037   6.138 -0.2406  0.0136  0.5956
  120OSM    H8G12647   3.458   4.211   6.114  2.4629 -0.7801  1.7642
  120OSM    C9F12648   3.290   4.071   6.097 -0.0817  0.1965  0.3390
  120OSM    H9F12649   3.239   3.995   6.158  1.3772  0.0846  1.4566
  120OSM   C10F12650   3.236   4.122   5.984 -0.3306 -0.2840  0.2373
  120OSM   H10F12651   3.150   4.068   5.940  0.3105 -1.9165  0.9029
  120OSM   C11F12652   3.288   4.234   5.894  0.5028 -0.5094  0.1585
  120OSM   H11F12653   3.392   4.261   5.923 -0.3313  3.4200  0.0882
  120OSM   H11G12654   3.230   4.327   5.912 -0.4577 -0.4084 -2.8173
  120OSM   C12F12655   3.285   4.197   5.750 -0.7049 -0.1957 -0.0982
  120OSM   H12F12656   3.349   4.107   5.734 -1.4063 -0.4146 -1.9843
  120OSM   H12G12657   3.345   4.277   5.701 -1.9792  1.3525  0.7988
  120OSM   C13F12658   3.157   4.193   5.675  0.6974 -1.0131  0.2766
  120OSM   H13F12659   3.093   4.275   5.713 -1.1815 -1.2802 -2.0965
  120OSM   H13G12660   3.107   4.098   5.704 -0.5137 -0.8987 -1.2921
  120OSM   C14F12661   3.161   4.202   5.523  0.7677 -0.0633  0.1698
  120OSM   H14F12662   3.073   4.155   5.474 -2.1513  3.4106  1.5651
  120OSM   H14G12663   3.257   4.156   5.491  0.7590 -0.4632  0.7066
  120OSM   C15F12664   3.165   4.345   5.472  0.0839  0.0625 -0.0631
  120OSM   H15F12665   3.250   4.393   5.526  0.7403 -0.6129 -0.4717
  120OSM   H15G12666   3.075   4.409   5.477 -0.3768 -0.2792 -2.4603
  120OSM   C16F12667   3.225   4.351   5.330  0.4273  0.1061 -0.3818
  120OSM   H16F12668   3.325   4.302   5.332 -0.9242 -2.8453  0.3779
  120OSM   H16G12669   3.225   4.459   5.305  0.2191 -0.0041 -0.8639
  120OSM   C17F12670   3.139   4.282   5.224  0.8719  0.2752 -0.2127
  120OSM   H17F12671   3.037   4.328   5.223  0.2753 -0.9057  1.4003
  120OSM   H17G12672   3.117   4.182   5.268  0.8195  0.0228 -0.8011
  120OSM   C18F12673   3.198   4.264   5.085 -0.1571 -0.1848 -0.0980
  120OSM   H18F12674   3.309   4.272   5.091  0.0046 -1.1457 -1.4733
  120OSM   H18G12675   3.160   4.357   5.037  0.8944  0.8618  1.0001
  120OSM   H18H12676   3.167   4.172   5.033  0.4739 -0.9929  0.9135
  121OSM      N12677   4.889   3.193   7.204  0.6296  0.3965 -0.1050
  121OSM    C1512678   4.902   3.241   7.348  0.5204 -0.8859  0.6551
  121OSM   H15A12679   4.953   3.336   7.349 -1.0631  0.0014  1.0416
  121OSM   H15B12680   4.953   3.171   7.411  2.7358  0.7518  0.7770
  121OSM   H15C12681   4.802   3.261   7.384 -0.9498 -0.5056 -3.1233
  121OSM    C1412682   5.032   3.157   7.163 -0.6556  0.3676  0.1093
  121OSM   H14A12683   5.037   3.117   7.063 -0.2131  0.4648  0.0928
  121OSM   H14B12684   5.079   3.089   7.233  0.4722  0.0745 -0.8900
  121OSM   H14C12685   5.102   3.238   7.166  1.1731 -1.1308 -0.1925
  121OSM    C1312686   4.805   3.066   7.214 -0.7644 -0.6737 -0.4636
  121OSM   H13A12687   4.813   3.016   7.119  1.2562 -0.3002 -0.5514
  121OSM   H13B12688   4.707   3.084   7.254 -0.7716 -0.6907 -0.4739
  121OSM   H13C12689   4.855   3.003   7.287 -1.8902 -0.3428  0.6294
  121OSM    C1212690   4.848   3.289   7.098 -0.3943 -0.3301  0.2478
  121OSM   H12A12691   4.878   3.250   7.002 -0.6525 -2.0746  0.8462
  121OSM   H12B12692   4.900   3.380   7.127 -1.4863  0.1356  0.8299
  121OSM    C1112693   4.706   3.346   7.082 -0.1250  0.6097  0.2312
  121OSM   H11A12694   4.703   3.392   6.982  0.8351  1.2750  0.4959
  121OSM   H11B12695   4.690   3.419   7.164 -0.9813 -1.9603  2.5180
  121OSM      P12696   4.561   3.172   6.962 -0.0264  0.1143  0.6029
  121OSM    O1312697   4.497   3.043   6.996 -0.1511 -0.4604 -0.2890
  121OSM    O1412698   4.468   3.270   6.892  0.5069  0.2149  0.6255
  121OSM    O1112699   4.689   3.132   6.878 -1.1163 -0.0826 -0.3507
  121OSM    O1212700   4.603   3.245   7.097  0.2905 -0.4664  0.4693
  121OSM    C1S12701   4.667   3.072   6.741 -0.1788 -0.3861 -0.3955
  121OSM    H1S12702   4.623   3.145   6.669  1.5963  1.9626  0.7455
  121OSM    H1T12703   4.591   2.993   6.758 -0.0151  0.2883  5.3660
  121OSM     NF12704   4.763   2.951   6.556  0.3113  0.0340 -0.1171
  121OSM    HNF12705   4.767   2.851   6.553 -1.2274 -0.0304 -1.8856
  121OSM    C2S12706   4.795   3.011   6.683  0.2032 -0.5490  0.3385
  121OSM    H2S12707   4.864   3.096   6.660  0.9974 -1.0547  0.7992
  121OSM    C3S12708   4.875   2.929   6.785 -0.0358 -0.5047 -0.4007
  121OSM    H3S12709   4.811   2.843   6.815  0.0530 -0.4610 -0.0876
  121OSM     O312710   4.897   2.975   6.916 -0.4300  0.1576  0.3460
  121OSM    HO312711   4.847   3.057   6.914  0.4395  0.6905  0.1880
  121OSM    C4S12712   5.010   2.900   6.731  0.6419  0.2592  0.2605
  121OSM    H4S12713   5.068   2.993   6.722 -1.8208  1.7911 -0.5717
  121OSM    C5S12714   5.069   2.783   6.697  0.0712 -0.3166  0.3065
  121OSM    H5S12715   5.011   2.689   6.699 -1.4475  0.5353 -1.1763
  121OSM    C6S12716   5.219   2.762   6.666  0.9077  0.1004  0.7580
  121OSM    H6S12717   5.269   2.702   6.745 -0.0027  0.7253  1.8367
  121OSM    H6T12718   5.276   2.856   6.648 -0.3499  0.8612  0.6400
  121OSM    C7S12719   5.235   2.695   6.526 -0.0930 -0.5010  0.0607
  121OSM    H7S12720   5.190   2.595   6.512  0.4036 -0.6593 -0.4495
  121OSM    H7T12721   5.344   2.678   6.516  0.0719  0.0051  0.9130
  121OSM    C8S12722   5.178   2.782   6.414  0.1569 -0.3556 -0.4713
  121OSM    H8S12723   5.213   2.885   6.436 -1.0905 -0.1256  0.5473
  121OSM    H8T12724   5.068   2.783   6.426  0.2749 -2.6043  1.6599
  121OSM    C9S12725   5.217   2.743   6.275  0.3925 -0.5642  0.5909
  121OSM    H9S12726   5.197   2.636   6.249  0.7068 -0.1021 -1.8170
  121OSM    H9T12727   5.324   2.759   6.250 -0.1104  1.4539 -0.5246
  121OSM   C10S12728   5.126   2.822   6.173 -0.2119  0.1925 -0.3013
  121OSM   H10S12729   5.133   2.932   6.178 -2.5976  0.4282 -1.0242
  121OSM   H10T12730   5.020   2.806   6.204 -0.1844  1.9558  0.8554
  121OSM   C11S12731   5.149   2.792   6.021  0.6091 -0.1235  0.3591
  121OSM   H11S12732   5.159   2.686   5.988 -0.3626  0.6013 -2.6001
  121OSM   H11T12733   5.249   2.835   5.999  1.1743 -1.6331 -0.1502
  121OSM   C12S12734   5.023   2.840   5.952  0.0819  0.7135 -0.4634
  121OSM   H12S12735   5.003   2.947   5.973 -0.0856  0.7776 -0.9502
  121OSM   H12T12736   4.933   2.798   6.001 -0.4754  0.8563 -1.3507
  121OSM   C13S12737   5.024   2.805   5.803 -0.2307 -0.5334 -1.0752
  121OSM   H13S12738   4.923   2.845   5.780 -0.4161  0.3836  1.0967
  121OSM   H13T12739   5.022   2.694   5.794  1.5962 -0.8321  1.1918
  121OSM   C14S12740   5.120   2.872   5.701  0.0325  0.2819  0.0631
  121OSM   H14S12741   5.224   2.890   5.737 -1.4174  3.6954  3.2418
  121OSM   H14T12742   5.084   2.976   5.683 -2.5932 -0.8009 -1.4457
  121OSM   C15S12743   5.139   2.798   5.564 -0.4052 -0.0408 -0.4378
  121OSM   H15S12744   5.039   2.810   5.517 -0.2208 -0.6263 -0.9853
  121OSM   H15T12745   5.156   2.690   5.580  1.7508  0.3321  0.0493
  121OSM   C16S12746   5.230   2.869   5.462  0.1990 -0.2515  0.1523
  121OSM   H16S12747   5.329   2.817   5.460  0.2646 -0.1154 -1.8395
  121OSM   H16T12748   5.257   2.967   5.508 -3.6369  0.4922  1.1161
  121OSM   C17S12749   5.175   2.902   5.322 -0.8254  0.9282 -0.2763
  121OSM   H17S12750   5.257   2.955   5.270  1.5267 -0.2851  1.9814
  121OSM   H17T12751   5.086   2.967   5.336  0.3847  2.4968  0.4591
  121OSM   C18S12752   5.140   2.772   5.252  0.3791  0.3019  0.0794
  121OSM   H18S12753   5.059   2.719   5.307 -0.3662 -0.4949 -1.7066
  121OSM   H18T12754   5.231   2.708   5.260  1.8349  2.2841  0.1431
  121OSM   H18U12755   5.102   2.779   5.148  2.8569 -1.9845 -1.1098
  121OSM    C1F12756   4.714   3.001   6.446  0.1652  0.2033  0.4590
  121OSM     OF12757   4.717   3.126   6.429  0.2051  0.0081 -1.1074
  121OSM    C2F12758   4.669   2.913   6.339  0.0432  0.4308  0.3499
  121OSM    H2F12759   4.564   2.883   6.358 -0.4294  1.9746  0.3649
  121OSM    H2G12760   4.732   2.823   6.347 -1.2682 -0.4688  0.8583
  121OSM    C3F12761   4.685   2.977   6.203  0.0314 -0.0020 -0.1746
  121OSM    H3F12762   4.788   3.017   6.195 -0.1235  1.0685  2.3655
  121OSM    H3G12763   4.621   3.068   6.200  1.1539  0.9601  2.3123
  121OSM    C4F12764   4.640   2.881   6.092 -0.1620  0.1101 -0.6468
  121OSM    H4F12765   4.534   2.859   6.117  0.0641  1.6618  2.0919
  121OSM    H4G12766   4.696   2.785   6.089 -1.3039 -0.6036 -3.8501
  121OSM    C5F12767   4.646   2.931   5.953  0.4608  0.1543  0.1124
  121OSM    H5F12768   4.749   2.959   5.925 -0.4358  0.7079 -3.0956
  121OSM    H5G12769   4.581   3.020   5.947  1.4502  0.9673  1.1768
  121OSM    C6F12770   4.588   2.837   5.846  0.2015 -0.4114 -0.2240
  121OSM    H6F12771   4.482   2.823   5.874  0.8008  0.5862  2.9104
  121OSM    H6G12772   4.641   2.741   5.825 -0.6500 -1.1842  1.0032
  121OSM    C7F12773   4.601   2.906   5.711 -0.6246 -0.4070  0.3708
  121OSM    H7F12774   4.708   2.914   5.682 -1.2836  0.5118 -2.0639
  121OSM    H7G12775   4.566   3.011   5.711 -0.2945 -0.2965  0.5466
  121OSM    C8F12776   4.536   2.837   5.594  0.6850  0.0114 -0.3923
  121OSM    H8F12777   4.589   2.739   5.594 -0.5860 -0.7288 -1.7423
  121OSM    H8G12778   4.559   2.875   5.492 -0.9504  0.3377 -0.6723
  121OSM    C9F12779   4.389   2.818   5.609  0.6052  0.4785  0.2145
  121OSM    H9F12780   4.346   2.806   5.709  1.1320  3.8141  0.9429
  121OSM   C10F12781   4.302   2.819   5.503 -0.2107  0.4821 -0.2144
  121OSM   H10F12782   4.195   2.806   5.523  0.3469  0.5705  3.5813
  121OSM   C11F12783   4.341   2.830   5.357  0.7525 -0.0978 -0.1347
  121OSM   H11F12784   4.450   2.834   5.336  0.8198  3.2416  0.3746
  121OSM   H11G12785   4.302   2.928   5.323 -2.4401 -0.7939  1.1799
  121OSM   C12F12786   4.289   2.730   5.249  0.4180  0.2122 -0.0180
  121OSM   H12F12787   4.299   2.781   5.150  1.3613  0.8550  0.3916
  121OSM   H12G12788   4.183   2.700   5.257  0.7064 -1.0065 -0.4865
  121OSM   C13F12789   4.364   2.590   5.261 -0.2217  0.9400  0.2273
  121OSM   H13F12790   4.341   2.517   5.341  1.3263 -2.0585 -1.9068
  121OSM   H13G12791   4.473   2.605   5.275  0.0999 -0.9675 -0.0652
  121OSM   C14F12792   4.356   2.511   5.125  0.2336  0.6590  0.2853
  121OSM   H14F12793   4.378   2.577   5.039 -0.7914  0.6766  0.0298
  121OSM   H14G12794   4.257   2.464   5.107  0.5028 -0.1877  0.9383
  121OSM   C15F12795   4.454   2.397   5.117  0.0331  0.2431  0.5568
  121OSM   H15F12796   4.435   2.321   5.196  0.9508  0.4828  1.0188
  121OSM   H15G12797   4.558   2.434   5.127 -0.2326  1.3511 -0.5047
  121OSM   C16F12798   4.459   2.334   4.978 -1.0294 -0.6687  0.2689
  121OSM   H16F12799   4.492   2.412   4.905 -1.2137 -2.4040 -1.7785
  121OSM   H16G12800   4.357   2.302   4.949 -1.0177 -2.5632  2.1268
  121OSM   C17F12801   4.550   2.211   4.964  0.7154  0.4336 -0.1321
  121OSM   H17F12802   4.517   2.152   5.052 -1.3280 -0.8821 -1.6980
  121OSM   H17G12803   4.660   2.228   4.973  0.7469  0.3032 -0.2544
  121OSM   C18F12804   4.513   2.115   4.851 -0.5103 -0.1317  0.1244
  121OSM   H18F12805   4.518   2.149   4.745  0.2158 -1.1079 -0.1695
  121OSM   H18G12806   4.408   2.081   4.863 -0.3111 -0.5780  0.6264
  121OSM   H18H12807   4.577   2.024   4.847  2.0027  1.5806 -0.9911
  122OSM      N12808   5.184   4.385   7.588  0.5667 -0.1110  0.9106
  122OSM    C1512809   5.192   4.528   7.603  0.3900  0.1708 -0.4898
  122OSM   H15A12810   5.160   4.555   7.702 -2.2284 -0.8544 -0.9948
  122OSM   H15B12811   5.124   4.578   7.537  2.2683  0.6851 -2.1469
  122OSM   H15C12812   5.288   4.570   7.577  0.6440 -0.0632  0.0629
  122OSM    C1412813   5.294   4.318   7.647 -0.1480  0.1378 -0.1348
  122OSM   H14A12814   5.389   4.336   7.600  0.1705 -0.8478  0.0926
  122OSM   H14B12815   5.284   4.210   7.644 -0.2513  0.1555 -0.4726
  122OSM   H14C12816   5.303   4.350   7.750  0.0697  2.2210 -0.7687
  122OSM    C1312817   5.056   4.332   7.644  0.1701 -0.3458  0.2048
  122OSM   H13A12818   5.036   4.228   7.621 -0.2924 -0.3051  0.4152
  122OSM   H13B12819   4.973   4.386   7.601 -0.0925 -2.2317 -1.8412
  122OSM   H13C12820   5.050   4.351   7.750  3.2688 -2.1159  0.8309
  122OSM    C1212821   5.178   4.362   7.430 -0.2379 -0.5402 -0.3516
  122OSM   H12A12822   5.159   4.257   7.414 -2.4942 -0.3015  0.4760
  122OSM   H12B12823   5.276   4.388   7.393 -0.5316  0.4318 -0.4674
  122OSM    C1112824   5.081   4.442   7.336  0.5534 -0.3956  0.3227
  122OSM   H11A12825   5.118   4.411   7.236 -1.9695  0.7700 -1.0440
  122OSM   H11B12826   5.105   4.549   7.350  1.9151 -0.2995 -2.1143
  122OSM      P12827   4.845   4.531   7.376  0.3085 -0.3056  0.1759
  122OSM    O1312828   4.706   4.483   7.383 -0.3913  0.1132 -0.9482
  122OSM    O1412829   4.889   4.623   7.484 -0.1832  0.5679 -0.3977
  122OSM    O1112830   4.867   4.606   7.236  0.0176  0.0670  0.1322
  122OSM    O1212831   4.942   4.406   7.357 -0.0288 -0.3529  0.1242
  122OSM    C1S12832   4.765   4.695   7.189 -0.5975  0.5435 -0.0790
  122OSM    H1S12833   4.769   4.794   7.241 -1.0191 -0.2672  1.5481
  122OSM    H1T12834   4.662   4.653   7.196 -0.4252 -0.5487 -2.7955
  122OSM     NF12835   4.675   4.810   6.977 -0.2693  0.0548 -0.3851
  122OSM    HNF12836   4.597   4.760   6.941 -0.1499  0.3143 -1.0327
  122OSM    C2S12837   4.787   4.727   7.033  0.1087 -0.7442 -0.9401
  122OSM    H2S12838   4.878   4.791   7.035  0.4415 -1.2290  0.0130
  122OSM    C3S12839   4.820   4.606   6.945 -0.0878  0.8491  0.1215
  122OSM    H3S12840   4.733   4.538   6.960  1.0731 -0.6678  0.2267
  122OSM     O312841   4.935   4.535   6.992  0.0776 -0.9019 -0.4310
  122OSM    HO312842   4.940   4.571   7.080 -4.1747 -0.8678  0.0035
  122OSM    C4S12843   4.828   4.656   6.801 -1.3298  0.4584 -0.2205
  122OSM    H4S12844   4.745   4.616   6.742 -0.5093 -1.2839 -0.2629
  122OSM    C5S12845   4.943   4.692   6.734 -0.0936  0.7509 -0.0665
  122OSM    H5S12846   5.039   4.675   6.785  0.1427  0.9482 -0.4385
  122OSM    C6S12847   4.949   4.703   6.577  0.5161 -0.1430  0.3298
  122OSM    H6S12848   5.020   4.631   6.532 -1.3463 -1.8858  0.0554
  122OSM    H6T12849   4.974   4.807   6.545 -0.3019 -0.2842 -0.8289
  122OSM    C7S12850   4.823   4.681   6.497  0.5301  0.7385 -0.3263
  122OSM    H7S12851   4.759   4.768   6.524  1.3974  1.2010  0.2473
  122OSM    H7T12852   4.776   4.584   6.525 -2.2474  1.4660 -2.0780
  122OSM    C8S12853   4.845   4.665   6.347 -0.1343  0.0693 -0.0473
  122OSM    H8S12854   4.907   4.573   6.341 -0.0849  0.1911 -3.7481
  122OSM    H8T12855   4.912   4.749   6.318  0.5716 -0.3576  0.3317
  122OSM    C9S12856   4.720   4.642   6.256  0.7960  0.0628 -0.2856
  122OSM    H9S12857   4.649   4.727   6.265  0.8102  0.0991 -0.5148
  122OSM    H9T12858   4.662   4.552   6.287 -2.0434  1.0427 -2.4125
  122OSM   C10S12859   4.760   4.627   6.105  0.0818  0.1590 -0.6089
  122OSM   H10S12860   4.839   4.549   6.104  1.2490  1.2407  1.3721
  122OSM   H10T12861   4.803   4.721   6.063 -0.3316  1.7584  2.2821
  122OSM   C11S12862   4.639   4.589   6.013 -0.4182 -0.4790 -0.7119
  122OSM   H11S12863   4.570   4.675   6.020  1.0119  0.5909  1.5743
  122OSM   H11T12864   4.589   4.498   6.053  0.8049 -0.4482  1.0308
  122OSM   C12S12865   4.674   4.581   5.863  0.5604  0.0356 -0.5904
  122OSM   H12S12866   4.745   4.499   5.842  3.0774  1.7538  0.6675
  122OSM   H12T12867   4.733   4.674   5.851  3.1081 -1.2668  1.0959
  122OSM   C13S12868   4.550   4.564   5.780  0.5361 -0.0625  0.1451
  122OSM   H13S12869   4.478   4.648   5.795  0.7319  0.4997 -1.8834
  122OSM   H13T12870   4.489   4.475   5.806  0.1916 -0.7216 -2.6487
  122OSM   C14S12871   4.582   4.558   5.632 -0.6672 -0.8560  0.5715
  122OSM   H14S12872   4.594   4.663   5.598 -2.7278 -1.3490 -1.9857
  122OSM   H14T12873   4.485   4.527   5.587  0.0023 -0.8548 -0.9173
  122OSM   C15S12874   4.688   4.453   5.595  0.1267  0.3244 -0.0622
  122OSM   H15S12875   4.671   4.355   5.644  0.6625  0.0058 -0.4905
  122OSM   H15T12876   4.785   4.490   5.634  0.5485 -0.1023 -0.6767
  122OSM   C16S12877   4.714   4.429   5.441  1.1558  0.1747  0.2279
  122OSM   H16S12878   4.730   4.527   5.391  2.3165  0.6308  1.4496
  122OSM   H16T12879   4.618   4.385   5.407  0.5243  0.6849  1.3180
  122OSM   C17S12880   4.832   4.341   5.397  0.0111 -0.3566 -1.0041
  122OSM   H17S12881   4.806   4.236   5.422 -0.5518 -0.2794 -1.2537
  122OSM   H17T12882   4.930   4.367   5.444 -1.8813  0.6616  2.7598
  122OSM   C18S12883   4.834   4.345   5.245 -0.1414  0.2550  0.3485
  122OSM   H18S12884   4.856   4.253   5.187  0.0359 -0.0161  0.8317
  122OSM   H18T12885   4.895   4.431   5.211  0.3382 -0.2556 -0.1136
  122OSM   H18U12886   4.733   4.354   5.202 -0.2014  2.3058  0.8431
  122OSM    C1F12887   4.661   4.938   7.017 -0.5271  0.3131 -0.1673
  122OSM     OF12888   4.755   4.995   7.071  0.2705  0.2054 -0.4616
  122OSM    C2F12889   4.520   4.994   7.005 -0.5746 -0.0781 -0.1889
  122OSM    H2F12890   4.496   5.025   7.109  0.5150 -1.0046  0.3463
  122OSM    H2G12891   4.459   4.909   6.969 -1.7228  1.1053 -1.1610
  122OSM    C3F12892   4.519   5.112   6.906  0.3437  0.2294 -0.1066
  122OSM    H3F12893   4.595   5.191   6.922 -1.3406  2.0003 -0.4802
  122OSM    H3G12894   4.421   5.154   6.938 -0.0957 -0.8374  0.0067
  122OSM    C4F12895   4.504   5.095   6.753 -0.3826 -0.0458  0.1079
  122OSM    H4F12896   4.412   5.039   6.727 -0.6094 -0.4776  1.7453
  122OSM    H4G12897   4.593   5.042   6.712  0.8665  1.2070  1.1006
  122OSM    C5F12898   4.492   5.240   6.687 -0.1417 -0.3809  0.6703
  122OSM    H5F12899   4.593   5.286   6.697  0.4723 -1.5093 -0.1613
  122OSM    H5G12900   4.417   5.298   6.746  0.2465 -0.3529  1.1435
  122OSM    C6F12901   4.444   5.244   6.537  0.6240  0.1909 -0.2023
  122OSM    H6F12902   4.345   5.196   6.523  1.3885 -0.9451 -2.1565
  122OSM    H6G12903   4.520   5.190   6.476  2.3247  0.9061  1.1957
  122OSM    C7F12904   4.435   5.386   6.486 -0.3793 -0.1318 -0.6474
  122OSM    H7F12905   4.537   5.425   6.469  0.6336 -3.2847 -2.8036
  122OSM    H7G12906   4.391   5.449   6.566 -0.3309 -0.5276 -0.3065
  122OSM    C8F12907   4.354   5.412   6.359 -0.0989 -0.2988 -0.6041
  122OSM    H8F12908   4.362   5.522   6.344 -2.5701 -0.0988 -0.9465
  122OSM    H8G12909   4.246   5.394   6.376 -0.2362  0.9732  0.0240
  122OSM    C9F12910   4.402   5.334   6.239 -0.6311  0.4400  0.3535
  122OSM    H9F12911   4.507   5.306   6.253 -0.1804  1.4350 -0.8551
  122OSM   C10F12912   4.336   5.287   6.128  0.4912 -0.5032  0.4809
  122OSM   H10F12913   4.393   5.242   6.046  0.5388  0.4831 -0.0507
  122OSM   C11F12914   4.191   5.307   6.097 -0.1987  0.1252  0.2407
  122OSM   H11F12915   4.162   5.409   6.128 -0.9036  0.2834 -0.8604
  122OSM   H11G12916   4.127   5.228   6.143  0.9012 -3.1815 -3.3102
  122OSM   C12F12917   4.156   5.296   5.946 -0.0001 -1.1722  0.4384
  122OSM   H12F12918   4.206   5.383   5.898  1.1900 -0.9590  1.9788
  122OSM   H12G12919   4.049   5.323   5.938  0.2265 -0.8025 -1.8579
  122OSM   C13F12920   4.178   5.157   5.884 -0.3579  0.1513 -0.4934
  122OSM   H13F12921   4.093   5.091   5.912 -0.8502  1.7869  2.2833
  122OSM   H13G12922   4.272   5.114   5.925  0.6766  2.0762 -0.7040
  122OSM   C14F12923   4.179   5.165   5.729  0.0757 -0.4409  0.6896
  122OSM   H14F12924   4.271   5.218   5.699 -0.6388 -0.9651 -2.9146
  122OSM   H14G12925   4.093   5.230   5.701  2.4096  2.5667  0.0107
  122OSM   C15F12926   4.171   5.029   5.664  0.1219 -0.2115  0.1127
  122OSM   H15F12927   4.087   4.972   5.710 -1.3734  1.1895 -0.7499
  122OSM   H15G12928   4.271   4.982   5.668  1.1575  1.8416 -0.1829
  122OSM   C16F12929   4.129   5.041   5.514 -0.2503 -0.3119  0.4676
  122OSM   H16F12930   4.198   5.110   5.461 -1.7130  1.8463  1.2188
  122OSM   H16G12931   4.031   5.094   5.519 -0.3853 -0.5718  0.5792
  122OSM   C17F12932   4.135   4.911   5.436  0.0032 -0.4634  0.2564
  122OSM   H17F12933   4.219   4.852   5.480 -1.3814 -0.5565  3.0297
  122OSM   H17G12934   4.170   4.913   5.331  2.3825 -1.5421  0.9659
  122OSM   C18F12935   4.007   4.825   5.458 -0.0473 -0.5612 -0.3081
  122OSM   H18F12936   4.006   4.738   5.390  1.2079 -0.3205 -0.6607
  122OSM   H18G12937   3.916   4.882   5.427 -1.2727 -2.0392  0.4398
  122OSM   H18H12938   3.993   4.788   5.562  1.5315  0.9193  0.4820
  123OSM      N12939   1.345   3.763   2.345 -0.2800  0.9179  0.7678
  123OSM    C1512940   1.211   3.705   2.383  0.2053 -0.4150 -0.0316
  123OSM   H15A12941   1.206   3.694   2.490  1.4538  1.8715  0.3395
  123OSM   H15B12942   1.191   3.610   2.337  0.5687  0.6004 -2.4667
  123OSM   H15C12943   1.130   3.775   2.367  1.0661  1.3401  2.5513
  123OSM    C1412944   1.458   3.655   2.359 -0.2288 -0.3019  0.1993
  123OSM   H14A12945   1.507   3.654   2.455  0.6010 -0.8793 -0.2195
  123OSM   H14B12946   1.540   3.665   2.290  0.7408 -1.3034  1.1595
  123OSM   H14C12947   1.430   3.552   2.340 -1.6535  0.3921 -1.7010
  123OSM    C1312948   1.325   3.787   2.192 -0.0720  0.1123  0.0235
  123OSM   H13A12949   1.405   3.841   2.145  0.0848 -0.2250 -0.1052
  123OSM   H13B12950   1.236   3.844   2.170 -0.4573 -0.8958 -1.1398
  123OSM   H13C12951   1.302   3.692   2.144 -0.3896  0.7488 -1.1231
  123OSM    C1212952   1.376   3.889   2.427  0.2233 -0.0753 -0.1776
  123OSM   H12A12953   1.288   3.952   2.416 -1.0302 -1.5213  1.0786
  123OSM   H12B12954   1.459   3.941   2.383  0.4539  1.5692  2.0121
  123OSM    C1112955   1.405   3.861   2.577 -0.4308 -0.2485  0.0928
  123OSM   H11A12956   1.461   3.951   2.611  2.9552 -0.5775 -3.8421
  123OSM   H11B12957   1.484   3.784   2.594 -0.0398  0.5481  2.0990
  123OSM      P12958   1.190   3.927   2.716 -0.5315 -0.0474 -0.1050
  123OSM    O1312959   1.153   4.027   2.609  0.5563 -0.2742 -0.5487
  123OSM    O1412960   1.089   3.835   2.778 -0.1838  0.2739  0.0491
  123OSM    O1112961   1.280   3.998   2.830  0.3257 -0.3172  0.2428
  123OSM    O1212962   1.286   3.828   2.643 -0.2700  0.5291  0.0531
  123OSM    C1S12963   1.300   3.943   2.961  0.0656  0.2962 -0.2810
  123OSM    H1S12964   1.231   3.858   2.979 -0.5255  1.0021  0.8594
  123OSM    H1T12965   1.294   4.030   3.029  0.5949  0.2214 -0.1288
  123OSM     NF12966   1.460   3.821   3.104 -0.2253  0.5085  0.1440
  123OSM    HNF12967   1.502   3.882   3.171 -1.8318  2.7448 -0.7474
  123OSM    C2S12968   1.446   3.883   2.976  0.2548  0.0172  0.4217
  123OSM    H2S12969   1.457   3.801   2.902  0.8124 -0.7576  1.3242
  123OSM    C3S12970   1.560   3.990   2.938  0.3406 -0.3173 -0.0777
  123OSM    H3S12971   1.551   4.080   3.002  1.8426  0.2438 -0.6279
  123OSM     O312972   1.553   4.049   2.805 -0.1316  0.3298 -0.3754
  123OSM    HO312973   1.465   4.022   2.777 -0.0335  0.6318 -0.9962
  123OSM    C4S12974   1.699   3.936   2.962 -0.0302 -0.1653  0.1694
  123OSM    H4S12975   1.740   3.857   2.897 -0.4699 -1.1895  1.1089
  123OSM    C5S12976   1.784   3.993   3.045 -1.2908  0.5991  0.2580
  123OSM    H5S12977   1.757   4.090   3.089 -0.5947  1.0976 -0.3782
  123OSM    C6S12978   1.926   3.935   3.071  0.3946 -0.2158 -0.0668
  123OSM    H6S12979   2.004   3.984   3.009 -0.0195 -0.3161 -0.6748
  123OSM    H6T12980   1.922   3.826   3.050  2.5036  0.0607 -2.2503
  123OSM    C7S12981   1.970   3.936   3.215 -0.0916 -0.0148  0.0393
  123OSM    H7S12982   1.882   3.908   3.277 -1.0768  1.2869 -0.7079
  123OSM    H7T12983   1.990   4.042   3.242 -0.9950 -0.2276  1.6464
  123OSM    C8S12984   2.103   3.860   3.236 -0.4054 -0.0907  0.6872
  123OSM    H8S12985   2.167   3.897   3.153  0.0708  0.3196  1.2270
  123OSM    H8T12986   2.078   3.752   3.235 -0.9050  0.0212  0.4250
  123OSM    C9S12987   2.175   3.899   3.367 -0.0206 -0.4070 -0.0053
  123OSM    H9S12988   2.187   4.009   3.356  3.1006 -0.7795 -1.1881
  123OSM    H9T12989   2.276   3.856   3.353 -0.8930 -1.9145 -2.3038
  123OSM   C10S12990   2.115   3.851   3.498  0.2148 -0.1194  0.3790
  123OSM   H10S12991   2.089   3.743   3.490  0.9564 -0.1561 -2.2121
  123OSM   H10T12992   2.026   3.916   3.508  1.2228  1.3781 -0.1670
  123OSM   C11S12993   2.217   3.887   3.609 -0.3758 -0.4543  0.3242
  123OSM   H11S12994   2.265   3.983   3.582 -1.8592  0.6665  1.4896
  123OSM   H11T12995   2.299   3.812   3.613  1.1026  1.0824  0.1918
  123OSM   C12S12996   2.147   3.907   3.749 -0.3759 -0.4331 -0.0231
  123OSM   H12S12997   2.077   3.822   3.766  2.4153 -3.2126 -1.4683
  123OSM   H12T12998   2.085   3.998   3.734  0.3856 -0.2831 -2.6882
  123OSM   C13S12999   2.246   3.908   3.865  0.8203 -0.2132 -0.8681
  123OSM   H13S13000   2.295   4.007   3.874  0.3803 -0.1939  1.9528
  123OSM   H13T13001   2.329   3.835   3.853  1.0903 -0.0586  0.0015
  123OSM   C14S13002   2.169   3.885   4.000  0.4710 -0.2446 -0.4631
  123OSM   H14S13003   2.109   3.792   3.993  1.3476 -0.7220 -2.1843
  123OSM   H14T13004   2.099   3.971   4.010  0.9797  0.6018 -3.2255
  123OSM   C15S13005   2.257   3.871   4.118  0.7371 -0.6681 -0.1641
  123OSM   H15S13006   2.322   3.960   4.129 -1.2242  0.9878 -1.1729
  123OSM   H15T13007   2.314   3.775   4.120  0.3163 -1.0154 -2.1261
  123OSM   C16S13008   2.168   3.891   4.242  0.2788 -0.6647 -0.8682
  123OSM   H16S13009   2.069   3.841   4.239 -0.4264  0.7226 -1.7908
  123OSM   H16T13010   2.153   4.000   4.257  2.1620 -0.4482 -0.3190
  123OSM   C17S13011   2.228   3.835   4.369  0.5625 -0.2061 -0.0915
  123OSM   H17S13012   2.232   3.724   4.361 -0.4022 -0.2087 -0.7428
  123OSM   H17T13013   2.148   3.859   4.444  0.9853 -0.4465  0.4450
  123OSM   C18S13014   2.352   3.900   4.419 -0.0271 -0.1432 -0.0766
  123OSM   H18S13015   2.426   3.897   4.337  0.6792 -0.7354  0.5646
  123OSM   H18T13016   2.396   3.857   4.511  0.3658 -1.3634 -0.8176
  123OSM   H18U13017   2.344   4.009   4.439  2.7062  0.5119 -1.9074
  123OSM    C1F13018   1.400   3.703   3.143 -0.4767 -0.0548  0.2197
  123OSM     OF13019   1.327   3.641   3.069 -0.5378  0.0045 -1.2526
  123OSM    C2F13020   1.433   3.656   3.281  0.2020  0.3846 -0.2458
  123OSM    H2F13021   1.380   3.724   3.351  1.5165  2.1393 -0.8722
  123OSM    H2G13022   1.542   3.674   3.294  0.7010 -1.3216 -1.7819
  123OSM    C3F13023   1.408   3.506   3.297  0.0782  0.2558  0.2915
  123OSM    H3F13024   1.445   3.451   3.207 -1.6116 -0.5548  0.0523
  123OSM    H3G13025   1.299   3.488   3.309 -0.0877  0.6725 -0.5305
  123OSM    C4F13026   1.487   3.436   3.406 -0.4030 -1.2787  0.5667
  123OSM    H4F13027   1.451   3.478   3.502  0.3563  0.1547  0.2381
  123OSM    H4G13028   1.591   3.470   3.389 -1.6288  1.6180 -1.9827
  123OSM    C5F13029   1.471   3.284   3.406  0.0799 -0.1061  0.1222
  123OSM    H5F13030   1.452   3.244   3.304 -0.0007  0.1297  0.0457
  123OSM    H5G13031   1.377   3.272   3.464 -1.2343  3.1804 -1.0761
  123OSM    C6F13032   1.581   3.208   3.479 -0.5561 -0.1323 -0.0180
  123OSM    H6F13033   1.684   3.239   3.451  0.3544  0.2221  3.3200
  123OSM    H6G13034   1.567   3.100   3.461 -2.7367 -0.1379  1.2225
  123OSM    C7F13035   1.573   3.222   3.627  0.3401 -0.5766 -0.3169
  123OSM    H7F13036   1.477   3.169   3.648  0.0998 -0.3390 -0.8057
  123OSM    H7G13037   1.570   3.325   3.668  3.5527 -0.0098 -1.1982
  123OSM    C8F13038   1.690   3.141   3.701 -0.0925 -0.6051 -0.0774
  123OSM    H8F13039   1.777   3.186   3.649  0.2181 -1.5273 -0.3692
  123OSM    H8G13040   1.695   3.036   3.665 -2.4682 -0.9498  0.4565
  123OSM    C9F13041   1.684   3.158   3.852  0.3396 -0.3127 -0.7700
  123OSM    H9F13042   1.648   3.078   3.918  0.9843 -0.5452 -0.6982
  123OSM   C10F13043   1.752   3.251   3.907  0.7867 -0.8697  0.4453
  123OSM   H10F13044   1.748   3.259   4.017 -0.6006  0.5624  0.3310
  123OSM   C11F13045   1.823   3.369   3.838  0.7233  0.3012 -0.3856
  123OSM   H11F13046   1.764   3.398   3.749 -0.3925 -1.3386 -0.2305
  123OSM   H11G13047   1.930   3.347   3.819  0.8838  1.0539 -0.3760
  123OSM   C12F13048   1.826   3.491   3.926 -0.3088 -0.0625  0.4747
  123OSM   H12F13049   1.721   3.515   3.953  0.2076  4.3184 -0.5371
  123OSM   H12G13050   1.863   3.573   3.859 -0.0272  0.2088  0.9552
  123OSM   C13F13051   1.923   3.484   4.051 -0.3233 -0.5614 -0.0664
  123OSM   H13F13052   1.897   3.389   4.102 -1.8484  0.6667  1.5904
  123OSM   H13G13053   1.909   3.571   4.118  0.3792  0.3933 -1.1214
  123OSM   C14F13054   2.073   3.471   4.009 -0.2322  0.3090 -0.1430
  123OSM   H14F13055   2.098   3.557   3.943  0.1513  1.7800  1.8261
  123OSM   H14G13056   2.081   3.380   3.945  0.4272  0.4826 -0.3127
  123OSM   C15F13057   2.170   3.464   4.122 -0.4938  0.8657 -0.4968
  123OSM   H15F13058   2.153   3.546   4.194 -0.8538 -0.2793  0.7524
  123OSM   H15G13059   2.276   3.480   4.092  0.3911  0.1556  1.9809
  123OSM   C16F13060   2.159   3.330   4.204 -0.6674 -0.0202  0.7890
  123OSM   H16F13061   2.180   3.237   4.147  0.5379  1.2087 -0.8886
  123OSM   H16G13062   2.052   3.325   4.235 -1.5672 -0.3139 -2.0367
  123OSM   C17F13063   2.251   3.349   4.326 -0.1491  0.2192 -0.2853
  123OSM   H17F13064   2.210   3.429   4.390  2.6615  0.8626  0.8616
  123OSM   H17G13065   2.356   3.369   4.294 -1.2346  1.3044 -3.6293
  123OSM   C18F13066   2.243   3.216   4.405  0.1739  0.3029 -0.4805
  123OSM   H18F13067   2.315   3.221   4.490  0.8337  3.3443 -1.0580
  123OSM   H18G13068   2.282   3.130   4.347 -2.4832 -0.4441 -1.2659
  123OSM   H18H13069   2.145   3.192   4.451  0.9767 -1.1848  0.5161
  124OSM      N13070   1.830   4.617   2.726 -0.5261  0.0274 -0.0560
  124OSM    C1513071   1.722   4.712   2.684 -0.1622 -0.3298 -0.4753
  124OSM   H15A13072   1.657   4.729   2.768  0.4803 -0.6406  0.1019
  124OSM   H15B13073   1.668   4.670   2.601 -0.1736 -1.0842 -0.0990
  124OSM   H15C13074   1.760   4.810   2.663 -0.5340 -0.6460 -2.8645
  124OSM    C1413075   1.768   4.481   2.729 -0.9445  0.3665  0.4612
  124OSM   H14A13076   1.842   4.408   2.757  1.8980  2.3871 -1.1676
  124OSM   H14B13077   1.738   4.452   2.630  0.9269  1.4684 -0.4988
  124OSM   H14C13078   1.683   4.485   2.795  0.4103 -0.5507  2.3588
  124OSM    C1313079   1.941   4.630   2.615 -0.6089  0.0162  0.2588
  124OSM   H13A13080   2.023   4.563   2.637 -0.6907  0.7175  3.2053
  124OSM   H13B13081   1.989   4.725   2.628 -2.1705  0.7390  1.1060
  124OSM   H13C13082   1.900   4.635   2.515 -0.0698 -0.8629 -0.0158
  124OSM    C1213083   1.887   4.646   2.865 -0.3607  0.2964  0.6368
  124OSM   H12A13084   1.982   4.598   2.884  1.2734  2.0254 -2.3274
  124OSM   H12B13085   1.820   4.618   2.944  1.5764 -1.9206  1.6344
  124OSM    C1113086   1.938   4.794   2.879  0.2996  0.3103 -0.0297
  124OSM   H11A13087   1.954   4.806   2.988 -3.2438  2.4453  0.3933
  124OSM   H11B13088   1.850   4.855   2.852 -1.2445 -1.5749  0.4863
  124OSM      P13089   2.200   4.789   2.858  0.1352 -0.0418 -0.2306
  124OSM    O1313090   2.215   4.643   2.845  0.1125  0.0088  0.1531
  124OSM    O1413091   2.305   4.875   2.798 -0.5071  0.5933  0.6763
  124OSM    O1113092   2.177   4.831   3.007  0.0231  0.4299 -0.4218
  124OSM    O1213093   2.053   4.822   2.793 -0.4185 -0.1117  0.5535
  124OSM    C1S13094   2.158   4.964   3.040  0.6706 -0.3338  0.2464
  124OSM    H1S13095   2.052   4.996   3.032  0.5688 -0.3435  1.4402
  124OSM    H1T13096   2.224   5.028   2.976 -0.9141 -1.0281 -2.2309
  124OSM     NF13097   2.172   5.126   3.222 -0.1982  0.0879 -0.0004
  124OSM    HNF13098   2.238   5.197   3.199 -3.4074  2.3754 -3.3814
  124OSM    C2S13099   2.195   4.986   3.188 -0.1305  1.5017 -0.6405
  124OSM    H2S13100   2.123   4.925   3.247 -0.0308 -0.4690 -2.3998
  124OSM    C3S13101   2.342   4.941   3.212  0.1834 -0.4195  0.2306
  124OSM    H3S13102   2.419   4.996   3.153 -1.3179  0.2147 -1.2337
  124OSM     O313103   2.382   4.813   3.175 -0.0063  0.2475 -0.1898
  124OSM    HO313104   2.316   4.782   3.113  1.3280 -0.4145 -1.3614
  124OSM    C4S13105   2.387   4.966   3.359  0.0764 -0.1468  0.3992
  124OSM    H4S13106   2.332   4.914   3.438  0.0172  1.6215  1.5791
  124OSM    C5S13107   2.466   5.065   3.400  0.8164 -0.0309  0.4273
  124OSM    H5S13108   2.505   5.144   3.334 -1.1856  1.5362  1.0041
  124OSM    C6S13109   2.503   5.089   3.548  0.3106  0.2630 -0.1720
  124OSM    H6S13110   2.469   5.191   3.578  3.3215  1.2478  0.2771
  124OSM    H6T13111   2.611   5.093   3.572  0.1447 -0.5122  0.7696
  124OSM    C7S13112   2.437   4.997   3.650 -0.9499 -0.6894 -0.1950
  124OSM    H7S13113   2.471   4.893   3.633 -0.1913 -0.4424 -0.2243
  124OSM    H7T13114   2.326   4.994   3.639 -1.3068 -1.7773  2.8455
  124OSM    C8S13115   2.475   5.036   3.790 -0.5825  0.6891 -0.7472
  124OSM    H8S13116   2.423   5.130   3.818 -0.2892  0.4545  0.6578
  124OSM    H8T13117   2.582   5.064   3.800 -0.4039 -0.4259  0.6750
  124OSM    C9S13118   2.457   4.925   3.899  0.0340  0.4510 -0.3153
  124OSM    H9S13119   2.514   4.834   3.870 -0.9963  0.7552 -3.8647
  124OSM    H9T13120   2.352   4.890   3.889  0.7482 -1.7338 -0.7310
  124OSM   C10S13121   2.491   4.979   4.041  0.1494  0.4368  0.3573
  124OSM   H10S13122   2.409   5.048   4.068 -0.0015  0.3228  0.1930
  124OSM   H10T13123   2.584   5.040   4.038  0.6734 -0.3773 -0.3854
  124OSM   C11S13124   2.497   4.872   4.147 -0.0996  0.6848 -0.1128
  124OSM   H11S13125   2.566   4.790   4.120 -0.4351 -0.6567  2.7733
  124OSM   H11T13126   2.402   4.814   4.152  2.1338 -3.2693  0.3594
  124OSM   C12S13127   2.512   4.931   4.291 -0.0407 -0.3616 -0.0294
  124OSM   H12S13128   2.436   5.010   4.313  0.4563  0.1091  0.0309
  124OSM   H12T13129   2.607   4.988   4.297 -0.4665  0.4304 -0.4717
  124OSM   C13S13130   2.521   4.816   4.392 -0.2654  0.0319 -0.0809
  124OSM   H13S13131   2.590   4.736   4.358 -1.5052 -2.7318  3.2854
  124OSM   H13T13132   2.423   4.767   4.408  0.7087 -2.2004 -0.6162
  124OSM   C14S13133   2.564   4.856   4.531  0.8132 -0.0745  0.0867
  124OSM   H14S13134   2.662   4.903   4.512  0.2893  0.5175 -1.2871
  124OSM   H14T13135   2.586   4.761   4.584 -1.0151 -0.6783 -0.1550
  124OSM   C15S13136   2.460   4.945   4.598 -0.0509  0.1050 -0.7099
  124OSM   H15S13137   2.365   4.890   4.613 -1.4767  2.1926 -1.5568
  124OSM   H15T13138   2.438   5.029   4.528 -0.2353  0.5987 -0.0676
  124OSM   C16S13139   2.512   4.992   4.736  0.2928  0.8014 -0.6975
  124OSM   H16S13140   2.597   5.062   4.718  0.4934  1.1934  1.4629
  124OSM   H16T13141   2.563   4.903   4.777  0.2180  1.3998  0.7766
  124OSM   C17S13142   2.395   5.036   4.819 -0.2868  0.3832  0.1991
  124OSM   H17S13143   2.330   4.947   4.833 -0.4286  0.0971 -1.9204
  124OSM   H17T13144   2.333   5.108   4.762 -0.4341  0.2535  0.1960
  124OSM   C18S13145   2.430   5.102   4.954  0.0329 -0.1473  0.0090
  124OSM   H18S13146   2.345   5.154   5.003 -0.6548 -1.0784 -0.1530
  124OSM   H18T13147   2.507   5.181   4.940 -0.4614  0.4718  0.7228
  124OSM   H18U13148   2.475   5.026   5.022  0.9595 -0.4884 -0.9584
  124OSM    C1F13149   2.048   5.171   3.227 -0.0501 -0.4551 -0.0299
  124OSM     OF13150   1.953   5.096   3.223 -0.1699 -0.2535 -0.2326
  124OSM    C2F13151   2.033   5.313   3.245  0.2813 -0.0704 -0.3559
  124OSM    H2F13152   1.960   5.350   3.170 -0.0384  1.4727  0.6837
  124OSM    H2G13153   2.130   5.368   3.246  0.4277 -0.3311  0.3582
  124OSM    C3F13154   1.980   5.347   3.387  0.0879  0.5467  0.2025
  124OSM    H3F13155   1.893   5.280   3.399  1.6022 -1.3517  1.2514
  124OSM    H3G13156   1.946   5.453   3.392 -0.7933  0.3150 -0.6741
  124OSM    C4F13157   2.098   5.320   3.486 -0.0838 -0.0413 -0.4513
  124OSM    H4F13158   2.168   5.404   3.470  0.2081  0.3690  2.4056
  124OSM    H4G13159   2.158   5.230   3.458 -1.8855 -0.5701 -2.9021
  124OSM    C5F13160   2.054   5.315   3.633 -0.3109 -0.2285 -0.5445
  124OSM    H5F13161   2.141   5.286   3.696 -0.6337  2.2941  1.2398
  124OSM    H5G13162   1.961   5.254   3.633 -0.8606  0.5733  0.6147
  124OSM    C6F13163   2.007   5.444   3.705 -0.2225 -0.1882 -0.0131
  124OSM    H6F13164   1.942   5.503   3.636  0.7423  0.8799 -0.0238
  124OSM    H6G13165   2.091   5.514   3.721 -2.4178  2.1060  2.3803
  124OSM    C7F13166   1.917   5.449   3.836  0.0965 -0.6361  0.0229
  124OSM    H7F13167   1.813   5.419   3.810 -0.3989  2.9680 -3.2014
  124OSM    H7G13168   1.914   5.554   3.873 -0.7689  0.1089 -2.0200
  124OSM    C8F13169   1.981   5.374   3.952 -0.0646  0.5267 -0.6938
  124OSM    H8F13170   2.088   5.393   3.977 -0.0898 -1.4969  1.2823
  124OSM    H8G13171   1.979   5.263   3.944 -3.3448 -0.0646  4.0358
  124OSM    C9F13172   1.895   5.379   4.076  0.6555 -0.4565 -0.6201
  124OSM    H9F13173   1.799   5.325   4.072 -0.0210  0.6372  0.1259
  124OSM   C10F13174   1.928   5.459   4.181  0.6057  0.8968  0.5031
  124OSM   H10F13175   1.854   5.472   4.261  2.6049 -0.0112  2.5920
  124OSM   C11F13176   2.055   5.536   4.203  0.4196 -0.0984  0.6800
  124OSM   H11F13177   2.024   5.636   4.165  0.7637 -0.6368 -1.1177
  124OSM   H11G13178   2.136   5.513   4.131  1.6052  3.0523  0.8595
  124OSM   C12F13179   2.099   5.524   4.348  0.3244 -0.3724  0.6652
  124OSM   H12F13180   2.012   5.547   4.415 -0.5063 -2.8596  0.5356
  124OSM   H12G13181   2.174   5.604   4.365 -1.1758  1.4405 -0.7037
  124OSM   C13F13182   2.157   5.391   4.377  0.0389 -0.1334 -0.3896
  124OSM   H13F13183   2.236   5.361   4.305  1.2193 -2.4096  1.7072
  124OSM   H13G13184   2.069   5.324   4.375 -1.7043  2.0424 -0.8286
  124OSM   C14F13185   2.215   5.390   4.522 -0.9561  0.3234  0.3657
  124OSM   H14F13186   2.316   5.428   4.495  0.1549 -1.5727  1.5536
  124OSM   H14G13187   2.229   5.285   4.557  3.8052  0.3086 -0.8208
  124OSM   C15F13188   2.151   5.483   4.625 -0.4048  0.1323  0.5476
  124OSM   H15F13189   2.042   5.472   4.612 -0.6032  2.4861 -0.1465
  124OSM   H15G13190   2.171   5.591   4.606  0.4383 -0.1632 -0.3088
  124OSM   C16F13191   2.191   5.465   4.774 -0.2855 -0.2064 -0.3102
  124OSM   H16F13192   2.204   5.357   4.796 -1.2866 -0.2788 -0.0477
  124OSM   H16G13193   2.111   5.504   4.840  0.6394  1.1457  0.0619
  124OSM   C17F13194   2.307   5.558   4.804 -0.1294 -0.1528 -0.0298
  124OSM   H17F13195   2.276   5.653   4.756 -1.7633 -0.1998  0.8676
  124OSM   H17G13196   2.391   5.508   4.751 -2.2287 -3.2810 -0.6600
  124OSM   C18F13197   2.343   5.585   4.948  0.0620 -0.2943  0.2681
  124OSM   H18F13198   2.260   5.619   5.013 -0.0694  2.7658 -1.3331
  124OSM   H18G13199   2.427   5.656   4.958  0.5042 -0.7290 -0.2750
  124OSM   H18H13200   2.387   5.488   4.981 -0.4060 -2.2187 -4.0796
  125OSM      N13201   2.563   1.281   2.386  0.1809  0.2122 -0.0973
  125OSM    C1513202   2.548   1.391   2.286  0.2590 -0.4344 -0.4783
  125OSM   H15A13203   2.456   1.383   2.231 -0.6593  0.7593  0.7933
  125OSM   H15B13204   2.617   1.400   2.204 -1.9161 -0.9912 -2.4766
  125OSM   H15C13205   2.556   1.487   2.335 -3.7032  0.6685 -1.5925
  125OSM    C1413206   2.499   1.161   2.322  0.3236  0.4857 -0.1713
  125OSM   H14A13207   2.490   1.087   2.401  0.6811  0.2890 -0.3106
  125OSM   H14B13208   2.568   1.117   2.251 -1.3222 -0.0316 -1.5113
  125OSM   H14C13209   2.409   1.189   2.270 -0.6493  1.6196  1.9702
  125OSM    C1313210   2.711   1.249   2.402  1.1480  0.0746 -0.2835
  125OSM   H13A13211   2.725   1.162   2.465  1.2103 -0.3931 -0.9340
  125OSM   H13B13212   2.748   1.335   2.456  0.0633  0.2346  0.2372
  125OSM   H13C13213   2.766   1.233   2.311  2.7099 -2.1680  0.9419
  125OSM    C1213214   2.488   1.302   2.518  0.0673  0.2684  0.0146
  125OSM   H12A13215   2.392   1.328   2.478  0.7630 -0.9849 -2.7228
  125OSM   H12B13216   2.535   1.379   2.578  2.1000 -0.3956 -0.6378
  125OSM    C1113217   2.471   1.177   2.620 -0.6133 -0.5374 -0.9362
  125OSM   H11A13218   2.437   1.219   2.717 -0.7053  0.7162 -1.4885
  125OSM   H11B13219   2.574   1.141   2.639 -1.0327 -1.5881 -0.5780
  125OSM      P13220   2.230   1.073   2.584 -0.1577 -0.4072 -0.0522
  125OSM    O1313221   2.180   1.206   2.545 -0.1261 -0.3687  0.0136
  125OSM    O1413222   2.183   0.954   2.509  0.2830 -0.1684  0.3525
  125OSM    O1113223   2.196   1.046   2.732  0.4245 -0.2803 -0.0089
  125OSM    O1213224   2.385   1.071   2.570  0.0164 -0.4214 -0.2139
  125OSM    C1S13225   2.229   0.936   2.813  0.5083 -0.1275  0.3309
  125OSM    H1S13226   2.338   0.912   2.818  0.1675 -1.9952 -0.4268
  125OSM    H1T13227   2.177   0.846   2.774  2.8540 -0.8402 -1.3889
  125OSM     NF13228   2.206   0.824   3.037 -0.0224 -0.7799  0.4192
  125OSM    HNF13229   2.124   0.769   3.050 -0.7755  0.7147  2.4268
  125OSM    C2S13230   2.185   0.954   2.965  0.1242 -0.5743 -0.7853
  125OSM    H2S13231   2.259   1.018   3.019  1.1054 -1.1709 -1.3923
  125OSM    C3S13232   2.041   1.016   2.978 -0.9054 -0.3130 -0.4098
  125OSM    H3S13233   1.975   0.961   2.907  1.1479 -3.1590 -0.2914
  125OSM     O313234   2.041   1.148   2.934  0.4289  0.7277  0.2810
  125OSM    HO313235   2.129   1.163   2.901  0.4249  0.8561  0.3253
  125OSM    C4S13236   1.995   1.002   3.116 -0.9782  0.2490  0.9123
  125OSM    H4S13237   1.957   0.901   3.140 -3.2445  0.6305 -0.7546
  125OSM    C5S13238   1.980   1.102   3.212 -0.4458  0.3522 -0.7547
  125OSM    H5S13239   2.023   1.201   3.191  1.6820 -0.7502 -1.9501
  125OSM    C6S13240   1.930   1.069   3.355  0.8173  0.2951  0.3082
  125OSM    H6S13241   1.865   0.979   3.352  0.5449  0.5012 -1.6494
  125OSM    H6T13242   1.870   1.152   3.398  0.5531  1.5385 -2.2283
  125OSM    C7S13243   2.043   1.036   3.447  0.2173  0.0716  0.0697
  125OSM    H7S13244   2.022   1.045   3.556  0.2818 -1.7253  0.2691
  125OSM    H7T13245   2.139   1.085   3.422 -0.0426  0.6457  0.1769
  125OSM    C8S13246   2.073   0.880   3.426 -0.2555 -0.0304 -0.0983
  125OSM    H8S13247   2.109   0.864   3.322 -1.5989 -0.7394 -0.4923
  125OSM    H8T13248   1.982   0.815   3.427 -1.3754  1.3163 -3.1141
  125OSM    C9S13249   2.174   0.826   3.527 -0.3178 -0.1418 -0.3405
  125OSM    H9S13250   2.272   0.870   3.499  0.2600  0.0225  1.7432
  125OSM    H9T13251   2.181   0.716   3.515 -1.4592 -0.1791 -0.8100
  125OSM   C10S13252   2.153   0.856   3.677 -0.0793  0.0614  0.0963
  125OSM   H10S13253   2.046   0.835   3.698 -0.5099  0.7702 -1.2467
  125OSM   H10T13254   2.178   0.963   3.691  2.6648 -0.6812  1.7260
  125OSM   C11S13255   2.240   0.770   3.760  0.8183 -0.0503 -0.0700
  125OSM   H11S13256   2.348   0.796   3.756  0.2532  2.3493 -2.1408
  125OSM   H11T13257   2.236   0.669   3.713  3.4995  0.1424 -0.8798
  125OSM   C12S13258   2.199   0.761   3.905  0.2009 -0.1367  0.5248
  125OSM   H12S13259   2.276   0.686   3.933 -0.6831 -1.4117 -0.3072
  125OSM   H12T13260   2.100   0.710   3.911  0.2172 -0.4667 -1.2676
  125OSM   C13S13261   2.203   0.907   3.973  0.0383  0.3758 -0.0564
  125OSM   H13S13262   2.110   0.951   3.931 -0.7372 -0.2868  0.9503
  125OSM   H13T13263   2.293   0.959   3.934  0.0296 -1.3543 -2.6650
  125OSM   C14S13264   2.203   0.895   4.122  0.7309  0.1206 -0.0919
  125OSM   H14S13265   2.105   0.848   4.148  0.3049  1.6643  1.2730
  125OSM   H14T13266   2.205   0.991   4.178 -0.8517 -0.6500  1.3677
  125OSM   C15S13267   2.314   0.806   4.192 -0.0000 -0.8292  0.3520
  125OSM   H15S13268   2.390   0.875   4.234 -1.8923  0.0896  2.5123
  125OSM   H15T13269   2.370   0.745   4.119  0.4167 -2.1100  1.6835
  125OSM   C16S13270   2.266   0.727   4.311 -0.8301 -0.2452 -0.5650
  125OSM   H16S13271   2.351   0.685   4.369 -0.8293  1.5187  0.8032
  125OSM   H16T13272   2.197   0.647   4.278  0.4696 -1.1006 -1.2894
  125OSM   C17S13273   2.189   0.813   4.415  0.1660 -0.3168  0.4984
  125OSM   H17S13274   2.109   0.880   4.377 -1.0888 -1.4087  1.1150
  125OSM   H17T13275   2.268   0.884   4.448  0.8377  0.2159 -2.0279
  125OSM   C18S13276   2.146   0.748   4.542  0.0550 -0.4759  0.1548
  125OSM   H18S13277   2.115   0.824   4.616  0.5296 -0.2253  0.0954
  125OSM   H18T13278   2.228   0.694   4.593  1.1715  1.8029  0.9086
  125OSM   H18U13279   2.067   0.672   4.519 -1.6271  1.5444 -1.0861
  125OSM    C1F13280   2.325   0.771   3.065  0.3503 -0.0505 -0.0612
  125OSM     OF13281   2.428   0.831   3.032 -0.2297 -0.4614  0.1395
  125OSM    C2F13282   2.331   0.630   3.106  0.3431  0.2953 -0.1318
  125OSM    H2F13283   2.397   0.577   3.034  0.4707 -0.6342  0.6450
  125OSM    H2G13284   2.230   0.583   3.115 -0.8262  3.0194  2.9111
  125OSM    C3F13285   2.400   0.619   3.243 -0.0813  0.4109 -0.6313
  125OSM    H3F13286   2.361   0.688   3.320 -0.1499 -2.2819  1.9528
  125OSM    H3G13287   2.501   0.667   3.236  0.9740 -1.6805 -0.6286
  125OSM    C4F13288   2.415   0.486   3.314  0.9413 -0.2634 -0.3151
  125OSM    H4F13289   2.472   0.411   3.255 -0.2989 -1.9750  0.6047
  125OSM    H4G13290   2.317   0.438   3.331  0.8641 -0.7819 -1.9792
  125OSM    C5F13291   2.477   0.501   3.459  0.5293 -0.1050  0.2613
  125OSM    H5F13292   2.441   0.587   3.521 -0.7154  0.0467 -0.6416
  125OSM    H5G13293   2.587   0.505   3.450  0.7018 -0.1405  1.9973
  125OSM    C6F13294   2.433   0.375   3.543 -0.1161 -0.3873  0.8151
  125OSM    H6F13295   2.426   0.291   3.471 -0.4919  0.0167  0.3740
  125OSM    H6G13296   2.331   0.383   3.588  0.2584  1.7393  1.4482
  125OSM    C7F13297   2.535   0.335   3.648  0.1379  0.4073 -0.3076
  125OSM    H7F13298   2.635   0.334   3.599  0.2989  1.2845 -0.0241
  125OSM    H7G13299   2.522   0.232   3.687  3.9644 -0.4025 -0.7294
  125OSM    C8F13300   2.553   0.430   3.770 -0.8574  0.1259  0.3477
  125OSM    H8F13301   2.565   0.534   3.734 -0.5041  0.4388  1.3389
  125OSM    H8G13302   2.643   0.403   3.828  0.0874  0.8611 -0.7343
  125OSM    C9F13303   2.437   0.451   3.851  0.3848 -0.2096  0.0010
  125OSM    H9F13304   2.347   0.485   3.798  0.0544 -0.0278  0.6723
  125OSM   C10F13305   2.432   0.435   3.982 -0.5650 -0.3573  0.2499
  125OSM   H10F13306   2.344   0.448   4.047 -1.2239 -1.8735 -0.2908
  125OSM   C11F13307   2.537   0.363   4.069  0.0854  0.3776  0.0365
  125OSM   H11F13308   2.612   0.316   4.002 -1.5180  1.3572 -2.6140
  125OSM   H11G13309   2.486   0.280   4.122  0.5295  0.5485  0.7491
  125OSM   C12F13310   2.598   0.461   4.174  0.5135  0.8791 -0.1592
  125OSM   H12F13311   2.680   0.415   4.233  2.7019  3.5440 -0.9241
  125OSM   H12G13312   2.524   0.495   4.249  0.2949  1.5575 -0.6782
  125OSM   C13F13313   2.662   0.576   4.101 -0.3930  0.7660 -0.0701
  125OSM   H13F13314   2.581   0.641   4.062 -0.7180  1.0334  1.0030
  125OSM   H13G13315   2.718   0.533   4.015 -1.0441 -1.0249  0.3397
  125OSM   C14F13316   2.750   0.661   4.189 -0.6121 -0.4005 -0.2490
  125OSM   H14F13317   2.831   0.715   4.134 -0.4116 -1.4207 -0.9843
  125OSM   H14G13318   2.795   0.596   4.266 -1.1235 -0.6930 -0.1930
  125OSM   C15F13319   2.664   0.768   4.251 -0.5092 -0.0591 -0.5659
  125OSM   H15F13320   2.593   0.709   4.313  0.4722 -1.5856 -0.8278
  125OSM   H15G13321   2.614   0.838   4.181  2.0509 -1.1255 -3.6863
  125OSM   C16F13322   2.755   0.847   4.358  0.6447  0.5239 -0.6174
  125OSM   H16F13323   2.832   0.898   4.295 -0.6073  3.8777  0.3603
  125OSM   H16G13324   2.802   0.768   4.420 -0.0741  1.1241  0.7227
  125OSM   C17F13325   2.690   0.953   4.445  0.2189  0.4383 -0.1424
  125OSM   H17F13326   2.611   0.907   4.508 -1.2354 -0.8183 -2.7200
  125OSM   H17G13327   2.640   1.036   4.390 -0.4881 -0.0869 -0.3024
  125OSM   C18F13328   2.808   1.010   4.536 -0.3751 -0.1014 -0.4639
  125OSM   H18F13329   2.854   0.936   4.606 -0.4244  0.4057  0.1145
  125OSM   H18G13330   2.764   1.090   4.599  0.0119 -0.1386 -0.1411
  125OSM   H18H13331   2.877   1.043   4.455 -1.4561 -0.3348 -1.5077
  126OSM      N13332   0.129   1.956   2.326 -0.0179  0.2854 -0.1493
  126OSM    C1513333   0.219   1.838   2.311  0.4263  1.0708 -0.2668
  126OSM   H15A13334   0.197   1.766   2.389 -1.7168  1.6597 -0.2622
  126OSM   H15B13335   0.322   1.865   2.332 -0.3426  2.5530  1.9664
  126OSM   H15C13336   0.224   1.784   2.217  0.3569  0.9050 -0.1767
  126OSM    C1413337   0.174   2.062   2.235 -0.1754 -0.4341  0.7038
  126OSM   H14A13338   0.271   2.102   2.263  0.6150 -1.9132  0.2202
  126OSM   H14B13339   0.098   2.138   2.231 -1.0652 -1.3565 -0.9336
  126OSM   H14C13340   0.200   2.021   2.139  2.8031 -0.1834  1.2926
  126OSM    C1313341  -0.009   1.921   2.272 -0.9919  0.2337 -0.1086
  126OSM   H13A13342   0.014   1.864   2.184  0.0739  1.6197 -0.7705
  126OSM   H13B13343  -0.063   2.014   2.262  1.4173  1.6336 -1.1876
  126OSM   H13C13344  -0.045   1.850   2.344  0.5988 -0.5190 -0.0097
  126OSM    C1213345   0.115   2.007   2.469 -0.6415  0.0387 -0.0054
  126OSM   H12A13346   0.043   2.086   2.485 -3.2734 -2.3139  0.7371
  126OSM   H12B13347   0.213   2.030   2.507 -0.3376 -0.6891 -0.3369
  126OSM    C1113348   0.083   1.898   2.575  0.1245  1.1465  1.1159
  126OSM   H11A13349   0.009   1.834   2.522  1.7508  1.8886 -2.3303
  126OSM   H11B13350   0.032   1.948   2.659 -0.2945  1.5459  0.6327
  126OSM      P13351   0.325   1.853   2.685 -0.6594 -0.1104 -0.3333
  126OSM    O1313352   0.399   1.728   2.725 -0.1210  0.0411 -0.2535
  126OSM    O1413353   0.387   1.962   2.605  0.2440  0.1548 -0.2392
  126OSM    O1113354   0.261   1.914   2.814  0.6279 -0.0340  0.0514
  126OSM    O1213355   0.192   1.804   2.606 -0.6759 -0.2960  0.7450
  126OSM    C1S13356   0.207   1.849   2.921 -0.4736  0.3614  0.5718
  126OSM    H1S13357   0.296   1.788   2.947 -0.5132 -0.0173 -0.1610
  126OSM    H1T13358   0.133   1.772   2.893  0.6561 -0.9286  0.9930
  126OSM     NF13359   0.096   1.845   3.140  0.0197 -0.2405  0.6005
  126OSM    HNF13360  -0.001   1.831   3.119  0.3962 -3.2496  0.5276
  126OSM    C2S13361   0.159   1.935   3.044 -0.4656  0.1307 -0.7860
  126OSM    H2S13362   0.253   1.976   3.088 -0.5054 -1.2662  0.6654
  126OSM    C3S13363   0.075   2.059   3.000 -0.3425  0.1173  0.5341
  126OSM    H3S13364  -0.015   2.010   2.958  0.9099 -2.9694  1.1327
  126OSM     O313365   0.126   2.138   2.891  0.4860 -0.6886  0.4047
  126OSM    HO313366   0.193   2.078   2.858  1.0344  0.8654 -1.4737
  126OSM    C4S13367   0.033   2.146   3.109  0.9995  0.0309 -0.3407
  126OSM    H4S13368  -0.065   2.129   3.155  1.2474  1.0586  0.6085
  126OSM    C5S13369   0.121   2.231   3.169  0.6942  0.0381  0.5320
  126OSM    H5S13370   0.227   2.244   3.141  0.6884 -0.1743  0.4056
  126OSM    C6S13371   0.082   2.321   3.292 -0.3287  0.0576  0.7739
  126OSM    H6S13372   0.028   2.251   3.360 -1.6287 -0.3207 -0.5849
  126OSM    H6T13373  -0.004   2.387   3.271  0.6942  1.6269  1.3847
  126OSM    C7S13374   0.197   2.392   3.366 -0.2537  0.4750  0.5389
  126OSM    H7S13375   0.230   2.483   3.312 -0.0538  1.7891  2.7253
  126OSM    H7T13376   0.283   2.325   3.383 -0.3513  0.9518  3.5697
  126OSM    C8S13377   0.163   2.440   3.506  0.2327 -0.4941 -0.1825
  126OSM    H8S13378   0.092   2.368   3.553 -0.0676  0.0410  0.2022
  126OSM    H8T13379   0.101   2.531   3.492 -0.9115 -1.1385  0.4664
  126OSM    C9S13380   0.290   2.456   3.586  0.2668  0.6231 -0.4341
  126OSM    H9S13381   0.360   2.529   3.540  0.7909  1.5316  1.6899
  126OSM    H9T13382   0.338   2.357   3.602  0.6318  0.5288 -1.9880
  126OSM   C10S13383   0.267   2.501   3.737  0.1484  0.7561  0.8440
  126OSM   H10S13384   0.363   2.471   3.783  0.6186  3.1151  1.5495
  126OSM   H10T13385   0.196   2.440   3.797  1.1056  1.4172  2.7036
  126OSM   C11S13386   0.227   2.650   3.755 -0.4156 -0.5591  0.5075
  126OSM   H11S13387   0.121   2.674   3.730 -0.8303  0.1509  2.7282
  126OSM   H11T13388   0.300   2.720   3.708 -1.4687  0.7225  0.7336
  126OSM   C12S13389   0.225   2.690   3.909  0.2213  0.0330 -0.2573
  126OSM   H12S13390   0.332   2.673   3.932 -0.1647 -1.3112  0.6854
  126OSM   H12T13391   0.156   2.613   3.950  1.1184 -2.6992 -3.3909
  126OSM   C13S13392   0.179   2.832   3.930  0.7031 -0.3985 -0.0672
  126OSM   H13S13393   0.073   2.848   3.902  0.6162  0.9236  0.9208
  126OSM   H13T13394   0.239   2.890   3.856  3.5246 -0.3615  2.0775
  126OSM   C14S13395   0.189   2.886   4.073  0.8055  0.1995 -0.7680
  126OSM   H14S13396   0.126   2.976   4.085 -0.0825 -0.7293  2.3518
  126OSM   H14T13397   0.291   2.924   4.094  0.2339  2.1415 -1.3302
  126OSM   C15S13398   0.133   2.793   4.187 -0.1398 -0.5019 -0.2404
  126OSM   H15S13399   0.181   2.693   4.179  2.5746  0.8161 -1.6650
  126OSM   H15T13400   0.024   2.774   4.172 -0.7913  3.1864 -1.3882
  126OSM   C16S13401   0.157   2.846   4.330  0.1022 -0.6997  0.3839
  126OSM   H16S13402   0.081   2.924   4.351  0.1948  0.2570 -2.4348
  126OSM   H16T13403   0.256   2.894   4.341  0.6663 -2.2772  3.2214
  126OSM   C17S13404   0.145   2.729   4.420  0.6964 -0.5164 -0.6983
  126OSM   H17S13405   0.206   2.639   4.402  0.9085 -0.2654 -1.2577
  126OSM   H17T13406   0.038   2.699   4.411 -0.0761  1.4936  0.8436
  126OSM   C18S13407   0.156   2.780   4.561  0.1831 -0.3586 -0.4294
  126OSM   H18S13408   0.139   2.697   4.632  1.9842 -0.1099  0.3545
  126OSM   H18T13409   0.081   2.858   4.586  1.8365  1.0658  0.3416
  126OSM   H18U13410   0.250   2.832   4.592 -0.0143 -0.1404 -0.1939
  126OSM    C1F13411   0.166   1.762   3.211 -0.2384 -0.4615 -0.2341
  126OSM     OF13412   0.288   1.775   3.206  0.6015  0.5589 -0.0709
  126OSM    C2F13413   0.092   1.649   3.276  0.8053 -0.2200  0.2013
  126OSM    H2F13414   0.088   1.562   3.206  1.9197 -1.0598  1.1236
  126OSM    H2G13415  -0.010   1.675   3.311  0.9552  1.2627 -0.4252
  126OSM    C3F13416   0.169   1.599   3.400  0.1225 -0.3928 -0.5141
  126OSM    H3F13417   0.277   1.587   3.376  0.5767  1.5594  0.4186
  126OSM    H3G13418   0.107   1.510   3.426  0.4300 -0.4591 -0.0014
  126OSM    C4F13419   0.166   1.692   3.523 -0.3883 -0.4069  0.0663
  126OSM    H4F13420   0.059   1.709   3.549 -0.4631 -1.0304  0.2028
  126OSM    H4G13421   0.208   1.791   3.497 -1.0262 -0.4734 -1.2611
  126OSM    C5F13422   0.257   1.626   3.628  0.5084 -0.0994  0.5123
  126OSM    H5F13423   0.360   1.615   3.587  0.9685  1.8380  1.0494
  126OSM    H5G13424   0.214   1.524   3.634  0.2076 -0.0892 -1.0589
  126OSM    C6F13425   0.270   1.695   3.752 -0.0229 -0.4687 -0.0222
  126OSM    H6F13426   0.171   1.706   3.800  0.9024  0.1999  1.7856
  126OSM    H6G13427   0.314   1.796   3.742 -1.2714  0.0473 -0.4363
  126OSM    C7F13428   0.365   1.612   3.843  0.5309 -0.4508  0.0545
  126OSM    H7F13429   0.467   1.607   3.799  0.6827 -0.5967  0.4103
  126OSM    H7G13430   0.313   1.514   3.835 -0.9792  0.4817 -3.1382
  126OSM    C8F13431   0.376   1.646   3.994 -0.0669  0.6754  0.8489
  126OSM    H8F13432   0.402   1.552   4.047 -2.3889 -1.1261 -0.9631
  126OSM    H8G13433   0.271   1.676   4.011 -0.1206  1.1988 -0.3150
  126OSM    C9F13434   0.464   1.754   4.038 -0.0549  0.9007  0.0661
  126OSM    H9F13435   0.429   1.850   3.997  0.6291  1.1765  0.1116
  126OSM   C10F13436   0.563   1.758   4.125  0.2191 -0.0551 -0.2731
  126OSM   H10F13437   0.612   1.857   4.131 -1.2355  0.6462  0.6875
  126OSM   C11F13438   0.626   1.646   4.205  0.1273 -0.1439  0.5532
  126OSM   H11F13439   0.735   1.664   4.194 -0.0868  0.0467 -1.7710
  126OSM   H11G13440   0.604   1.548   4.156 -0.3763  0.0392  0.4108
  126OSM   C12F13441   0.586   1.659   4.352  0.0571 -0.3068  0.3186
  126OSM   H12F13442   0.597   1.766   4.382  1.4770  0.1771 -1.7110
  126OSM   H12G13443   0.650   1.598   4.420 -1.5370 -0.9555  1.3052
  126OSM   C13F13444   0.450   1.597   4.366  0.5658  0.2603 -0.0094
  126OSM   H13F13445   0.443   1.498   4.316 -0.7359  0.8127 -1.0123
  126OSM   H13G13446   0.380   1.673   4.324  1.9397  2.0819  0.8717
  126OSM   C14F13447   0.429   1.571   4.516 -0.2374 -0.0931 -0.2437
  126OSM   H14F13448   0.523   1.526   4.556  1.7604  1.8356 -2.3810
  126OSM   H14G13449   0.349   1.495   4.522  1.2755 -1.7051  0.5462
  126OSM   C15F13450   0.385   1.695   4.593 -0.0156  0.0762  0.2563
  126OSM   H15F13451   0.438   1.791   4.578 -0.9993  0.5492 -0.3413
  126OSM   H15G13452   0.414   1.676   4.698 -1.1366 -0.7728  0.4400
  126OSM   C16F13453   0.236   1.713   4.606  0.6083  0.7949 -0.2418
  126OSM   H16F13454   0.195   1.612   4.627 -2.4874  1.6527 -1.6320
  126OSM   H16G13455   0.195   1.747   4.508 -0.8574  2.6950  0.9690
  126OSM   C17F13456   0.197   1.817   4.711  0.7387 -0.1131  0.4959
  126OSM   H17F13457   0.220   1.774   4.811 -1.6381  0.0859  1.1942
  126OSM   H17G13458   0.086   1.823   4.714  0.7001 -0.3707  3.9789
  126OSM   C18F13459   0.256   1.957   4.702 -0.3060 -0.7802 -0.4427
  126OSM   H18F13460   0.222   2.010   4.611  1.0585  0.1205 -0.4605
  126OSM   H18G13461   0.367   1.956   4.698 -0.1895 -0.0308  1.3903
  126OSM   H18H13462   0.218   2.018   4.786 -0.9869 -0.1293 -1.2165
  127OSM      N13463   6.798   4.566   2.586  0.3502 -0.0507  0.6766
  127OSM    C1513464   6.669   4.514   2.526  0.3495  0.5534  0.5675
  127OSM   H15A13465   6.585   4.572   2.562  0.6381  2.3132 -1.3793
  127OSM   H15B13466   6.653   4.408   2.529 -0.8492  0.7025 -0.0469
  127OSM   H15C13467   6.678   4.528   2.419 -0.5336 -0.9272  0.2737
  127OSM    C1413468   6.818   4.710   2.562  0.3670  0.1369  0.2482
  127OSM   H14A13469   6.848   4.743   2.464 -2.1239 -0.4687 -0.7891
  127OSM   H14B13470   6.893   4.748   2.630 -0.7004  1.3370  0.7747
  127OSM   H14C13471   6.731   4.768   2.589 -1.2049 -2.4372  1.1465
  127OSM    C1313472   6.786   4.557   2.733 -0.0518 -0.5549 -0.4787
  127OSM   H13A13473   6.879   4.578   2.784 -0.6302 -0.5854  0.6451
  127OSM   H13B13474   6.737   4.471   2.777 -1.8303  1.2743  1.4196
  127OSM   H13C13475   6.707   4.624   2.766  0.1984 -0.7721  0.6187
  127OSM    C1213476   6.909   4.471   2.536  0.5282 -0.2842  0.2767
  127OSM   H12A13477   6.890   4.450   2.432 -0.0572  0.7916  0.1524
  127OSM   H12B13478   6.890   4.372   2.575  1.0241 -0.3454  0.3696
  127OSM    C1113479   7.055   4.518   2.570  1.2226  0.0439 -0.3434
  127OSM   H11A13480   7.067   4.625   2.542 -0.0724  0.2376 -0.2216
  127OSM   H11B13481   7.117   4.458   2.500 -1.3089 -0.9177 -1.9167
  127OSM      P13482   7.207   4.560   2.766 -0.1078  0.3536  0.1408
  127OSM    O1313483   7.320   4.463   2.749  0.4860 -0.4519 -0.0441
  127OSM    O1413484   7.225   4.694   2.712 -0.2047 -0.3926  0.0570
  127OSM    O1113485   7.178   4.581   2.921  0.3010  0.0640  0.6268
  127OSM    O1213486   7.084   4.487   2.709  0.0536 -0.4226 -0.0611
  127OSM    C1S13487   7.133   4.487   3.020  0.4371 -0.0915 -0.1017
  127OSM    H1S13488   7.209   4.423   3.069 -0.1263 -1.2194 -0.6713
  127OSM    H1T13489   7.065   4.411   2.976  0.4499 -0.1675  0.0098
  127OSM     NF13490   7.057   4.463   3.243 -0.9410 -0.6194  0.6109
  127OSM    HNF13491   6.966   4.424   3.251 -1.7382  1.0993  0.4958
  127OSM    C2S13492   7.063   4.561   3.135 -0.4729  0.4190 -0.1939
  127OSM    H2S13493   7.130   4.642   3.171 -0.6398  0.7686 -0.6664
  127OSM    C3S13494   6.922   4.621   3.091 -0.4572 -0.3837 -0.5744
  127OSM    H3S13495   6.865   4.536   3.047 -0.3657  0.2231 -1.9447
  127OSM     O313496   6.934   4.719   2.993 -0.0558  0.5484  0.2378
  127OSM    HO313497   7.029   4.734   2.987  0.0683 -0.2488  0.0232
  127OSM    C4S13498   6.853   4.693   3.211 -0.1918 -1.3203 -0.3233
  127OSM    H4S13499   6.862   4.627   3.299  0.1155 -0.9747 -0.0915
  127OSM    C5S13500   6.805   4.824   3.236 -0.1127 -0.4464 -0.5373
  127OSM    H5S13501   6.812   4.891   3.150 -1.6313  0.8452  0.2895
  127OSM    C6S13502   6.760   4.887   3.372  0.4956  0.3570  0.1364
  127OSM    H6S13503   6.684   4.965   3.351  0.8130  0.0581 -2.5085
  127OSM    H6T13504   6.830   4.947   3.433  1.2091 -1.9231  1.7205
  127OSM    C7S13505   6.711   4.780   3.483 -0.1154 -0.7915  0.6085
  127OSM    H7S13506   6.793   4.706   3.492  0.8563  0.2190  0.2605
  127OSM    H7T13507   6.616   4.735   3.447 -0.8972  0.4619  1.0426
  127OSM    C8S13508   6.674   4.833   3.622 -0.3919  0.6172 -1.0595
  127OSM    H8S13509   6.650   4.742   3.682  3.8168 -0.2302 -0.3519
  127OSM    H8T13510   6.575   4.883   3.626 -1.8960 -2.1700  0.2269
  127OSM    C9S13511   6.780   4.903   3.706 -0.3534 -0.0107  1.2838
  127OSM    H9S13512   6.805   5.002   3.662  0.3020 -0.6030  0.2742
  127OSM    H9T13513   6.884   4.863   3.699  0.1630  1.1054  2.2042
  127OSM   C10S13514   6.731   4.913   3.852 -0.1075  0.5757 -0.1348
  127OSM   H10S13515   6.670   4.824   3.877  2.2074 -1.0619 -0.0869
  127OSM   H10T13516   6.658   4.997   3.858  0.6257  1.5451 -3.1687
  127OSM   C11S13517   6.848   4.923   3.949 -0.3552  0.3542  0.8666
  127OSM   H11S13518   6.903   5.017   3.927  1.0476 -0.8288 -1.0175
  127OSM   H11T13519   6.917   4.838   3.929  1.3201  2.0419 -1.0189
  127OSM   C12S13520   6.796   4.928   4.094  0.6366  0.2664  0.8184
  127OSM   H12S13521   6.731   4.839   4.106  0.9033 -0.1914 -0.8489
  127OSM   H12T13522   6.743   5.026   4.103 -0.8232 -0.3402 -0.7120
  127OSM   C13S13523   6.903   4.921   4.192  0.0126 -0.3019 -0.7058
  127OSM   H13S13524   6.976   5.005   4.187 -1.2205  0.8564  0.1584
  127OSM   H13T13525   6.967   4.831   4.176  0.8697  0.3063 -0.7660
  127OSM   C14S13526   6.843   4.885   4.327  0.0680  0.2601 -1.1711
  127OSM   H14S13527   6.794   4.786   4.316 -1.7214  1.0501 -0.6824
  127OSM   H14T13528   6.760   4.957   4.344 -0.3869  0.5358 -4.0574
  127OSM   C15S13529   6.950   4.890   4.441 -0.2731 -0.1070  0.3999
  127OSM   H15S13530   6.993   4.992   4.438  1.8512 -0.9759 -1.2305
  127OSM   H15T13531   7.026   4.811   4.425 -1.7594 -1.5878  0.3472
  127OSM   C16S13532   6.880   4.867   4.576  0.0186  0.2721  0.4622
  127OSM   H16S13533   6.942   4.789   4.627 -0.7338  0.3624  1.5389
  127OSM   H16T13534   6.779   4.824   4.563 -0.8902  2.5991 -0.6998
  127OSM   C17S13535   6.862   4.988   4.674 -0.2881 -0.3364 -1.1757
  127OSM   H17S13536   6.797   5.062   4.624  0.7137  0.0265 -1.9679
  127OSM   H17T13537   6.961   5.037   4.688 -1.1162  0.8702  0.7571
  127OSM   C18S13538   6.812   4.948   4.816 -0.4397 -0.0814  0.3549
  127OSM   H18S13539   6.883   4.878   4.864 -1.3965  0.0618  2.0611
  127OSM   H18T13540   6.709   4.908   4.804 -0.5308  0.9462 -4.1233
  127OSM   H18U13541   6.811   5.033   4.888  1.0593 -0.2995  0.6536
  127OSM    C1F13542   7.160   4.416   3.319  0.5676 -0.0394  0.1872
  127OSM     OF13543   7.275   4.451   3.287 -0.1052 -0.2139 -0.6114
  127OSM    C2F13544   7.117   4.329   3.433 -0.9295  0.0587  0.3503
  127OSM    H2F13545   7.118   4.226   3.390  1.9512 -0.4283  1.3446
  127OSM    H2G13546   7.014   4.351   3.466 -1.6731 -1.9412 -0.4558
  127OSM    C3F13547   7.233   4.334   3.534 -0.0004  0.2054 -0.5210
  127OSM    H3F13548   7.252   4.440   3.561 -2.3068  0.5401 -0.0231
  127OSM    H3G13549   7.320   4.280   3.490 -1.6946 -1.4489 -2.0339
  127OSM    C4F13550   7.189   4.274   3.666  0.0284 -0.5762  0.0530
  127OSM    H4F13551   7.152   4.169   3.663 -2.0870  0.0241  2.1847
  127OSM    H4G13552   7.101   4.334   3.699  1.3575  2.1370 -1.0690
  127OSM    C5F13553   7.300   4.265   3.766 -0.1986 -0.0590  0.0313
  127OSM    H5F13554   7.353   4.362   3.770  0.8556 -0.6413  0.7716
  127OSM    H5G13555   7.380   4.195   3.733  0.4564  1.0457 -0.7777
  127OSM    C6F13556   7.262   4.250   3.913  0.0037  0.3406  0.3461
  127OSM    H6F13557   7.209   4.152   3.908  0.8307 -0.0674 -1.0688
  127OSM    H6G13558   7.195   4.331   3.949  1.5338  1.4809  0.7172
  127OSM    C7F13559   7.382   4.225   4.011 -0.3653  0.9968 -0.3407
  127OSM    H7F13560   7.435   4.323   4.017  1.0774  0.1819  0.8923
  127OSM    H7G13561   7.452   4.148   3.971 -2.4749 -2.3351  1.8987
  127OSM    C8F13562   7.334   4.173   4.151  0.1894  0.8288 -0.3640
  127OSM    H8F13563   7.277   4.079   4.132  0.7620 -0.1397  2.2697
  127OSM    H8G13564   7.276   4.253   4.201 -0.8084  0.1682 -0.4466
  127OSM    C9F13565   7.452   4.125   4.236 -0.1006 -0.6866 -0.3660
  127OSM    H9F13566   7.535   4.075   4.184 -0.1445  1.0779 -2.2578
  127OSM   C10F13567   7.462   4.155   4.369 -1.2050  0.1521 -0.0473
  127OSM   H10F13568   7.549   4.132   4.432 -0.2495  0.8309 -1.0786
  127OSM   C11F13569   7.347   4.215   4.446 -0.0128  0.4633  0.3875
  127OSM   H11F13570   7.260   4.147   4.449  1.2477 -1.1770  1.3354
  127OSM   H11G13571   7.321   4.318   4.413  0.8794  0.6683  0.2867
  127OSM   C12F13572   7.375   4.232   4.595 -0.0990  0.1284 -0.4700
  127OSM   H12F13573   7.392   4.136   4.649  0.9395  0.5137 -0.0810
  127OSM   H12G13574   7.286   4.265   4.654 -0.0839  0.4110 -0.6053
  127OSM   C13F13575   7.477   4.339   4.630  0.1093 -0.5829 -0.4817
  127OSM   H13F13576   7.444   4.439   4.594 -1.0725  0.6594  3.4820
  127OSM   H13G13577   7.574   4.303   4.592 -0.5656 -0.2822 -2.5963
  127OSM   C14F13578   7.480   4.355   4.787 -0.3765 -0.1429  1.0462
  127OSM   H14F13579   7.483   4.250   4.824 -0.3313 -0.7273 -0.5656
  127OSM   H14G13580   7.389   4.415   4.809  0.0895  1.1950 -0.5088
  127OSM   C15F13581   7.594   4.442   4.848 -0.0153  0.1165 -0.3112
  127OSM   H15F13582   7.683   4.379   4.865  0.0817  0.3850  0.1959
  127OSM   H15G13583   7.556   4.477   4.946  1.3850  1.1669 -0.1113
  127OSM   C16F13584   7.630   4.563   4.762 -0.1533 -0.3618  0.0436
  127OSM   H16F13585   7.539   4.619   4.732  0.3776 -0.3702 -1.7245
  127OSM   H16G13586   7.673   4.523   4.667 -0.2233  0.6638 -0.4333
  127OSM   C17F13587   7.712   4.662   4.837 -0.0616 -0.0559  0.0256
  127OSM   H17F13588   7.777   4.607   4.909  0.2832 -0.4554 -0.5825
  127OSM   H17G13589   7.647   4.725   4.902  0.4577  0.5026  0.0173
  127OSM   C18F13590   7.809   4.745   4.748  0.0664  0.6046 -0.0821
  127OSM   H18F13591   7.886   4.809   4.795 -1.8867  3.0614 -0.0344
  127OSM   H18G13592   7.762   4.819   4.679 -0.8815  0.5880  0.5345
  127OSM   H18H13593   7.871   4.680   4.683  1.3908 -0.6546  2.3174
  128OSM      N13594   0.731   3.242   2.474  0.6528 -0.2630 -0.0085
  128OSM    C1513595   0.593   3.272   2.435 -0.5593 -0.3423 -0.0744
  128OSM   H15A13596   0.524   3.189   2.424 -1.6114  0.6983 -1.6290
  128OSM   H15B13597   0.588   3.327   2.343  2.1267  1.9785  1.0325
  128OSM   H15C13598   0.547   3.341   2.504 -0.8857 -1.2180  0.6074
  128OSM    C1413599   0.810   3.368   2.474  0.4239  0.4135 -0.5210
  128OSM   H14A13600   0.908   3.351   2.516 -0.8749  1.1894  3.2034
  128OSM   H14B13601   0.754   3.449   2.519 -0.0031  0.9862 -2.0356
  128OSM   H14C13602   0.839   3.395   2.374 -0.2800  1.1681 -0.5303
  128OSM    C1313603   0.729   3.171   2.604 -0.1388 -0.7704 -0.2001
  128OSM   H13A13604   0.714   3.243   2.684  0.1430  1.5345 -2.1002
  128OSM   H13B13605   0.822   3.118   2.619 -0.2019 -0.4321  1.5250
  128OSM   H13C13606   0.643   3.106   2.602 -2.3038  1.8071  1.4958
  128OSM    C1213607   0.789   3.155   2.363 -0.0714 -0.1940 -0.4552
  128OSM   H12A13608   0.782   3.205   2.268 -2.6588 -0.3717 -0.4244
  128OSM   H12B13609   0.732   3.064   2.351  0.0341 -0.2115 -0.8581
  128OSM    C1113610   0.937   3.105   2.387 -0.8494 -0.2536  0.1964
  128OSM   H11A13611   1.007   3.191   2.381  0.5921 -1.4467 -0.9957
  128OSM   H11B13612   0.963   3.043   2.298 -0.9774  4.0649 -3.2067
  128OSM      P13613   1.001   2.889   2.522  0.0903  0.3222  0.2072
  128OSM    O1313614   0.873   2.820   2.485  0.1613  0.0925 -0.0978
  128OSM    O1413615   1.114   2.864   2.430  0.0717  0.0176 -0.2562
  128OSM    O1113616   1.045   2.862   2.670 -0.0425 -0.3014  0.2371
  128OSM    O1213617   0.968   3.043   2.515  0.1211  0.0830 -0.5167
  128OSM    C1S13618   1.097   2.964   2.758 -0.0243  0.5309 -0.2382
  128OSM    H1S13619   1.042   3.060   2.752  0.8524  1.0823  0.2346
  128OSM    H1T13620   1.202   2.995   2.736  1.6000 -3.3215  1.2110
  128OSM     NF13621   1.148   3.037   2.989 -0.4000 -0.6994  0.2521
  128OSM    HNF13622   1.246   3.055   2.992 -0.7692  1.5681 -0.1634
  128OSM    C2S13623   1.111   2.921   2.908  0.1191  0.0551 -0.5177
  128OSM    H2S13624   1.009   2.893   2.943  0.6885 -2.0541 -0.4124
  128OSM    C3S13625   1.193   2.782   2.903  0.2783  0.0194 -0.3125
  128OSM    H3S13626   1.289   2.804   2.851  0.9066  0.1454  0.8770
  128OSM     O313627   1.132   2.680   2.822 -0.2885  0.6571  0.2786
  128OSM    HO313628   1.094   2.739   2.756 -0.7369  0.5334  0.4278
  128OSM    C4S13629   1.222   2.728   3.047 -0.2141  0.0776  0.3981
  128OSM    H4S13630   1.139   2.667   3.084  0.6769 -1.7682 -0.5063
  128OSM    C5S13631   1.339   2.745   3.106  0.2819  0.0202 -0.1212
  128OSM    H5S13632   1.420   2.796   3.053  0.2274 -1.8898 -2.1852
  128OSM    C6S13633   1.366   2.697   3.236  0.4283  0.8589  0.4078
  128OSM    H6S13634   1.470   2.659   3.236 -0.0516 -0.6407 -1.5162
  128OSM    H6T13635   1.301   2.614   3.271  1.3798 -0.9117 -1.7784
  128OSM    C7S13636   1.366   2.809   3.338  0.1902 -0.3406  0.0587
  128OSM    H7S13637   1.263   2.841   3.367 -0.2269 -0.9509 -0.7046
  128OSM    H7T13638   1.414   2.900   3.297 -0.0314 -0.5466 -0.6617
  128OSM    C8S13639   1.460   2.755   3.449 -0.8931 -0.2634  0.0315
  128OSM    H8S13640   1.568   2.748   3.423 -0.9820 -3.8262  0.2009
  128OSM    H8T13641   1.434   2.653   3.484  0.7508 -0.2533  1.4342
  128OSM    C9S13642   1.417   2.835   3.573 -0.3235 -0.0611 -0.1663
  128OSM    H9S13643   1.311   2.810   3.594 -0.7514  1.7916  0.0529
  128OSM    H9T13644   1.426   2.943   3.547  0.3814  0.7192  2.8846
  128OSM   C10S13645   1.507   2.798   3.695  0.0342  0.0596  0.1308
  128OSM   H10S13646   1.603   2.853   3.686 -0.9885  2.1095  1.0978
  128OSM   H10T13647   1.538   2.691   3.695 -0.8774 -0.2613 -2.1262
  128OSM   C11S13648   1.455   2.829   3.836 -0.0730 -0.0625  0.1336
  128OSM   H11S13649   1.361   2.770   3.845  0.5668 -1.4021 -1.4514
  128OSM   H11T13650   1.431   2.937   3.828  2.0342  0.4006 -0.6591
  128OSM   C12S13651   1.541   2.791   3.957 -0.2569  0.4060 -0.4857
  128OSM   H12S13652   1.632   2.853   3.974  3.7644 -5.2094  1.4888
  128OSM   H12T13653   1.593   2.695   3.937 -0.0390  0.0080  1.7459
  128OSM   C13S13654   1.461   2.786   4.084  0.4545  0.1249  0.2388
  128OSM   H13S13655   1.416   2.690   4.117 -0.9118  0.1068 -1.5338
  128OSM   H13T13656   1.378   2.859   4.085  0.1927 -0.1610 -0.2154
  128OSM   C14S13657   1.576   2.822   4.197  0.4416  0.0712  0.2429
  128OSM   H14S13658   1.633   2.915   4.174 -0.9731  1.4009  1.8807
  128OSM   H14T13659   1.649   2.738   4.197  0.2151 -0.1289  1.0010
  128OSM   C15S13660   1.507   2.833   4.335  0.2747 -0.0967 -0.8842
  128OSM   H15S13661   1.431   2.752   4.341  0.4978 -0.3052 -0.8956
  128OSM   H15T13662   1.451   2.929   4.332  0.5096  0.0863  0.2011
  128OSM   C16S13663   1.601   2.834   4.458  0.4106  0.0494 -0.3230
  128OSM   H16S13664   1.689   2.901   4.444 -0.2930  2.0578  3.4630
  128OSM   H16T13665   1.646   2.733   4.468 -1.5295 -1.0350 -1.7764
  128OSM   C17S13666   1.532   2.883   4.589 -0.8184 -0.2418  0.4270
  128OSM   H17S13667   1.452   2.806   4.594  1.3634 -2.6224  1.3046
  128OSM   H17T13668   1.485   2.982   4.571  1.7540  0.8179 -0.9966
  128OSM   C18S13669   1.624   2.883   4.702 -0.1368  0.1829  0.3311
  128OSM   H18S13670   1.690   2.795   4.693 -1.1513 -0.3886 -2.6667
  128OSM   H18T13671   1.565   2.883   4.796 -0.2562 -2.3078  0.3077
  128OSM   H18U13672   1.686   2.975   4.699 -0.3195  0.2925 -0.1963
  128OSM    C1F13673   1.061   3.134   3.024 -0.3470 -0.7756 -0.1142
  128OSM     OF13674   0.937   3.130   2.999 -0.3820 -0.7028 -0.6641
  128OSM    C2F13675   1.126   3.258   3.087 -0.0217 -0.4633 -0.1826
  128OSM    H2F13676   1.137   3.337   3.009  0.4167 -0.4895 -0.1471
  128OSM    H2G13677   1.222   3.229   3.134 -0.5525 -2.3390 -0.1848
  128OSM    C3F13678   1.032   3.330   3.189  0.0027  0.9322 -0.4232
  128OSM    H3F13679   0.944   3.382   3.146 -1.6502 -0.6584  0.8709
  128OSM    H3G13680   1.097   3.409   3.231  1.0563  0.2304 -0.6708
  128OSM    C4F13681   0.988   3.240   3.309  0.8820  0.7862  0.1524
  128OSM    H4F13682   0.922   3.162   3.265  0.8049  0.9284  0.0150
  128OSM    H4G13683   0.924   3.305   3.373  1.0450  1.0114  0.0860
  128OSM    C5F13684   1.093   3.180   3.402  0.0433  0.8871  0.8635
  128OSM    H5F13685   1.166   3.262   3.416 -1.1173  2.0252  0.4197
  128OSM    H5G13686   1.136   3.099   3.339 -3.2071  1.6871 -2.7972
  128OSM    C6F13687   1.043   3.137   3.545  0.1180  0.0383 -0.1898
  128OSM    H6F13688   0.971   3.053   3.534 -2.4368  1.6013  2.9367
  128OSM    H6G13689   0.997   3.226   3.593 -0.4835 -0.9624  1.1358
  128OSM    C7F13690   1.147   3.087   3.645 -0.4407  0.2878 -0.2870
  128OSM    H7F13691   1.236   3.153   3.637  0.2559 -0.5869  0.0392
  128OSM    H7G13692   1.187   2.985   3.625 -1.7992 -0.5520  1.0700
  128OSM    C8F13693   1.094   3.095   3.788  0.0703 -0.5618  0.3031
  128OSM    H8F13694   1.004   3.029   3.781 -0.8404  0.6978 -0.3295
  128OSM    H8G13695   1.070   3.202   3.807  0.2311 -0.3631 -0.5455
  128OSM    C9F13696   1.192   3.045   3.897 -0.2811 -0.2785  0.0661
  128OSM    H9F13697   1.203   2.937   3.915 -1.9128 -0.2241  1.7732
  128OSM   C10F13698   1.275   3.126   3.973  0.3820  0.1166  0.3010
  128OSM   H10F13699   1.347   3.073   4.037  0.1116 -0.2733  0.2807
  128OSM   C11F13700   1.288   3.281   3.952  0.3126  0.1781  0.2780
  128OSM   H11F13701   1.189   3.324   3.979 -1.0087 -3.2527  1.4587
  128OSM   H11G13702   1.313   3.308   3.847 -0.6404  1.8068  0.4379
  128OSM   C12F13703   1.386   3.346   4.046  0.1686 -0.1475 -0.2859
  128OSM   H12F13704   1.392   3.448   4.003 -2.5306 -0.5468 -1.8060
  128OSM   H12G13705   1.479   3.290   4.023  0.9694  0.7834  0.5612
  128OSM   C13F13706   1.333   3.359   4.188 -0.6595  0.2421  0.1152
  128OSM   H13F13707   1.229   3.318   4.191 -0.2897 -0.7470 -0.2565
  128OSM   H13G13708   1.331   3.464   4.223  1.0989 -0.0105  1.0757
  128OSM   C14F13709   1.434   3.266   4.272 -0.5580 -0.1029  0.4141
  128OSM   H14F13710   1.433   3.165   4.225 -1.5491 -1.2634  2.7401
  128OSM   H14G13711   1.395   3.260   4.376  0.5689  0.8716  0.9161
  128OSM   C15F13712   1.574   3.337   4.292  0.4301 -0.2684  0.0014
  128OSM   H15F13713   1.564   3.438   4.336 -0.0285 -0.2707 -0.0893
  128OSM   H15G13714   1.623   3.337   4.192  0.1494 -2.7908 -0.2104
  128OSM   C16F13715   1.653   3.248   4.395  0.8071  0.4196  0.2963
  128OSM   H16F13716   1.622   3.144   4.372 -0.0979  0.5974  0.6626
  128OSM   H16G13717   1.606   3.288   4.488 -0.7386  3.1205 -1.4848
  128OSM   C17F13718   1.805   3.256   4.393 -0.6644  0.4952 -0.7236
  128OSM   H17F13719   1.845   3.206   4.302 -0.5122 -1.3359  0.3192
  128OSM   H17G13720   1.838   3.202   4.484 -1.8416  1.2112  0.1562
  128OSM   C18F13721   1.864   3.400   4.421 -0.1189  0.0322 -0.3061
  128OSM   H18F13722   1.975   3.400   4.421 -0.1129  0.4869  0.6706
  128OSM   H18G13723   1.825   3.434   4.519  0.5822  1.1368 -0.3905
  128OSM   H18H13724   1.821   3.482   4.360 -2.1567  0.2457  1.3290
  129OSM      N13725   1.849   0.878   2.496 -0.1087  0.0367  0.7341
  129OSM    C1513726   1.923   0.894   2.368 -0.5352  0.1229 -0.1306
  129OSM   H15A13727   2.024   0.929   2.379  0.4040 -2.5546  0.7744
  129OSM   H15B13728   1.871   0.966   2.307 -2.6393  0.0550  1.4658
  129OSM   H15C13729   1.939   0.804   2.310  2.8564 -0.5733  1.6390
  129OSM    C1413730   1.822   1.017   2.545  0.4716 -0.3994 -0.2921
  129OSM   H14A13731   1.754   1.017   2.628  0.0473  1.3047 -0.6025
  129OSM   H14B13732   1.770   1.068   2.465 -0.0858 -1.3129 -0.5249
  129OSM   H14C13733   1.913   1.065   2.578 -1.2095  1.1677  2.4085
  129OSM    C1313734   1.712   0.810   2.467 -0.4851  0.3023 -0.1509
  129OSM   H13A13735   1.723   0.715   2.416  1.1232  0.5147 -0.2440
  129OSM   H13B13736   1.646   0.871   2.407 -0.1656  0.3814 -0.4203
  129OSM   H13C13737   1.670   0.780   2.562  1.6556 -1.9900  0.1644
  129OSM    C1213738   1.932   0.805   2.603  0.0617 -0.7412  0.5691
  129OSM   H12A13739   2.029   0.851   2.605 -0.3853  0.2300  0.5077
  129OSM   H12B13740   1.939   0.708   2.557 -3.1722 -0.6351 -0.4394
  129OSM    C1113741   1.868   0.787   2.742  0.2372 -0.4816  1.1450
  129OSM   H11A13742   1.849   0.891   2.776 -0.1237  0.0434 -0.5232
  129OSM   H11B13743   1.938   0.746   2.817 -0.8936 -0.1699  2.4020
  129OSM      P13744   1.760   0.557   2.745  0.2336  0.0026  0.0585
  129OSM    O1313745   1.644   0.474   2.701 -0.1679  0.4203 -0.2856
  129OSM    O1413746   1.884   0.520   2.670  0.1156 -0.2113 -0.0256
  129OSM    O1113747   1.781   0.539   2.897 -0.2389  0.3496 -0.2199
  129OSM    O1213748   1.741   0.712   2.730 -0.4907 -0.4038 -0.1576
  129OSM    C1S13749   1.686   0.580   2.992  1.0816  0.5921 -0.1444
  129OSM    H1S13750   1.582   0.548   2.971  0.7428  0.4235  1.6429
  129OSM    H1T13751   1.689   0.690   3.006  1.6102  0.4322  1.0955
  129OSM     NF13752   1.616   0.518   3.225  0.3361  0.4558  0.1752
  129OSM    HNF13753   1.623   0.584   3.300  1.6717  1.2693 -0.6216
  129OSM    C2S13754   1.729   0.527   3.134 -0.2179  0.2900 -0.2909
  129OSM    H2S13755   1.768   0.424   3.125 -0.6768  0.1932 -1.2377
  129OSM    C3S13756   1.849   0.622   3.182 -0.3394  0.1655 -0.2869
  129OSM    H3S13757   1.809   0.722   3.206  3.8340  1.6334  1.4607
  129OSM     O313758   1.948   0.646   3.079 -0.1411 -0.5168  0.5604
  129OSM    HO313759   1.909   0.603   3.003  1.4101 -1.6059  0.3303
  129OSM    C4S13760   1.907   0.570   3.307 -0.2330  0.5878 -0.1977
  129OSM    H4S13761   1.840   0.585   3.392  0.4900 -2.4137  1.0245
  129OSM    C5S13762   2.015   0.481   3.331  0.1097 -0.1184 -0.0107
  129OSM    H5S13763   2.074   0.451   3.244 -1.6179  0.6194 -1.5073
  129OSM    C6S13764   2.069   0.446   3.470 -0.0558 -0.1562  0.6544
  129OSM    H6S13765   2.163   0.503   3.485  1.4194 -2.4033  0.3928
  129OSM    H6T13766   2.087   0.338   3.485  1.6786  0.1650  1.0539
  129OSM    C7S13767   1.985   0.492   3.587 -0.6896  0.2290  0.6769
  129OSM    H7S13768   1.885   0.443   3.579  0.1859 -1.4862 -0.3563
  129OSM    H7T13769   1.973   0.602   3.591 -0.0794  0.2919  0.8739
  129OSM    C8S13770   2.050   0.448   3.719  0.1469  0.1474  0.0975
  129OSM    H8S13771   2.001   0.508   3.799  1.5005  1.0449  0.2871
  129OSM    H8T13772   2.158   0.473   3.723  0.1066  0.2089  1.0062
  129OSM    C9S13773   2.042   0.298   3.743  0.0898  0.2451  0.0119
  129OSM    H9S13774   2.101   0.244   3.666 -1.1624 -0.3416 -0.5742
  129OSM    H9T13775   1.940   0.257   3.723  0.3955  0.2083 -1.6642
  129OSM   C10S13776   2.083   0.258   3.887 -0.4328 -0.2803  0.2158
  129OSM   H10S13777   2.180   0.309   3.899  0.0375 -0.7753 -1.2632
  129OSM   H10T13778   2.099   0.148   3.887  1.3729 -0.0507 -0.8762
  129OSM   C11S13779   1.973   0.293   3.981 -0.6652  0.4158 -0.5994
  129OSM   H11S13780   1.876   0.252   3.946 -1.4833  0.7743  1.0975
  129OSM   H11T13781   1.953   0.402   3.987 -1.9562  0.3105 -2.2687
  129OSM   C12S13782   2.002   0.246   4.125  0.3308  0.0406 -0.3205
  129OSM   H12S13783   2.011   0.136   4.134 -0.7942 -0.0141  0.2490
  129OSM   H12T13784   1.910   0.265   4.185 -0.8234  0.7902 -2.2252
  129OSM   C13S13785   2.113   0.326   4.193 -0.2724 -0.7674  0.3117
  129OSM   H13S13786   2.099   0.433   4.168 -0.5400 -1.2393 -1.7525
  129OSM   H13T13787   2.217   0.296   4.170  1.3506  2.4025  2.7861
  129OSM   C14S13788   2.115   0.324   4.344  0.4986 -0.8355 -0.1067
  129OSM   H14S13789   2.088   0.222   4.378  1.7790 -1.0971  0.1745
  129OSM   H14T13790   2.046   0.393   4.396  2.4971  1.3964 -0.2431
  129OSM   C15S13791   2.261   0.348   4.394  0.8652  0.3490 -0.2910
  129OSM   H15S13792   2.298   0.432   4.333 -0.7616  2.3835  1.3489
  129OSM   H15T13793   2.317   0.254   4.375 -0.7126 -0.3850 -1.5624
  129OSM   C16S13794   2.260   0.372   4.543 -0.5993 -0.1023  0.4741
  129OSM   H16S13795   2.253   0.278   4.602  1.7748  0.1447  1.2706
  129OSM   H16T13796   2.178   0.444   4.567 -1.2441 -0.2527 -1.1517
  129OSM   C17S13797   2.397   0.433   4.586  0.7577 -0.1577  0.1601
  129OSM   H17S13798   2.427   0.507   4.509  2.3537 -0.9374  0.0002
  129OSM   H17T13799   2.469   0.349   4.582 -2.0016 -2.6862 -0.6773
  129OSM   C18S13800   2.397   0.484   4.726 -0.4397 -0.2610  0.7013
  129OSM   H18S13801   2.476   0.562   4.732  0.2801 -0.7431 -1.4753
  129OSM   H18T13802   2.391   0.412   4.810 -1.3167  0.3666  1.2015
  129OSM   H18U13803   2.301   0.538   4.744 -2.1838 -2.5171 -1.1499
  129OSM    C1F13804   1.520   0.424   3.200  0.1398 -0.4579  0.4234
  129OSM     OF13805   1.534   0.339   3.116  0.2216  0.0251  0.2055
  129OSM    C2F13806   1.390   0.439   3.291  0.1438  0.1186 -0.5563
  129OSM    H2F13807   1.304   0.402   3.230 -1.2840  0.2448  1.3109
  129OSM    H2G13808   1.379   0.541   3.332  1.0909  0.8976 -2.1361
  129OSM    C3F13809   1.387   0.330   3.407  0.6163  0.3092 -0.1085
  129OSM    H3F13810   1.377   0.228   3.364  2.3921 -0.7396  1.7988
  129OSM    H3G13811   1.297   0.333   3.472  0.2689  1.8840 -0.6114
  129OSM    C4F13812   1.501   0.335   3.500 -0.2256 -0.4871  0.5556
  129OSM    H4F13813   1.524   0.440   3.530  1.8573 -0.2469 -1.5892
  129OSM    H4G13814   1.591   0.308   3.440 -0.4295 -0.9337  0.4452
  129OSM    C5F13815   1.506   0.241   3.621 -0.0853 -0.3000  0.4045
  129OSM    H5F13816   1.513   0.132   3.598  0.1328 -0.4052  0.9545
  129OSM    H5G13817   1.408   0.262   3.670  0.6608  2.1883  0.9280
  129OSM    C6F13818   1.625   0.260   3.714 -0.0465  0.2854  0.6935
  129OSM    H6F13819   1.641   0.368   3.734  2.0244  0.3336 -0.8888
  129OSM    H6G13820   1.716   0.221   3.664 -0.5959 -0.9321  0.6249
  129OSM    C7F13821   1.600   0.188   3.847 -0.3912  0.1654 -0.4738
  129OSM    H7F13822   1.685   0.176   3.918 -1.9779 -0.7724  1.3474
  129OSM    H7G13823   1.576   0.081   3.828  1.2009 -1.1038  3.5808
  129OSM    C8F13824   1.469   0.230   3.928  0.2806  0.5808 -0.0514
  129OSM    H8F13825   1.453   0.148   4.000  0.4834  0.3533 -0.2615
  129OSM    H8G13826   1.375   0.228   3.869  1.1151  1.8118 -1.5193
  129OSM    C9F13827   1.494   0.363   3.994 -0.2997 -0.4675 -0.1152
  129OSM    H9F13828   1.475   0.454   3.934 -2.4138 -1.2948 -0.7994
  129OSM   C10F13829   1.539   0.377   4.121 -0.0589  0.3902  0.6423
  129OSM   H10F13830   1.553   0.480   4.157  0.3838 -0.1408  2.0923
  129OSM   C11F13831   1.572   0.277   4.227 -0.1990 -1.0294 -0.8121
  129OSM   H11F13832   1.661   0.216   4.198  2.5265  2.4006 -0.3505
  129OSM   H11G13833   1.496   0.199   4.247  0.1906 -0.5532  3.5105
  129OSM   C12F13834   1.589   0.346   4.364  0.2402  0.2135 -0.5421
  129OSM   H12F13835   1.501   0.409   4.387  1.6201  1.4519  1.6838
  129OSM   H12G13836   1.683   0.405   4.377 -0.7245  1.1156  4.3819
  129OSM   C13F13837   1.618   0.236   4.474 -0.4702 -0.5403 -0.9614
  129OSM   H13F13838   1.716   0.189   4.451  2.0953  3.5144  0.6285
  129OSM   H13G13839   1.527   0.173   4.482  0.1679 -1.2192  3.3279
  129OSM   C14F13840   1.649   0.284   4.612  0.3843 -0.3878 -1.0714
  129OSM   H14F13841   1.566   0.261   4.681 -0.5316  1.0696 -1.6290
  129OSM   H14G13842   1.650   0.395   4.611 -3.1380 -0.2462 -0.3183
  129OSM   C15F13843   1.775   0.222   4.677  0.5081  0.7191  0.3293
  129OSM   H15F13844   1.855   0.268   4.615 -0.0051 -0.4647 -1.2812
  129OSM   H15G13845   1.776   0.111   4.670 -0.1458  0.6123  1.6315
  129OSM   C16F13846   1.789   0.249   4.828  0.5428  0.6806 -0.4612
  129OSM   H16F13847   1.777   0.359   4.838 -2.8999  0.2302  1.6834
  129OSM   H16G13848   1.884   0.216   4.874 -0.3569 -1.3242  0.0585
  129OSM   C17F13849   1.691   0.180   4.920 -0.0102  0.1099  0.0014
  129OSM   H17F13850   1.713   0.072   4.906 -0.6739  0.0383 -0.5749
  129OSM   H17G13851   1.588   0.206   4.887  0.1493  2.3899  1.1392
  129OSM   C18F13852   1.719   0.213   5.069  0.2871  0.6032 -0.1212
  129OSM   H18F13853   1.637   0.168   5.127  0.1383  0.8991 -0.1006
  129OSM   H18G13854   1.726   0.321   5.094  0.8589  0.0957  2.1005
  129OSM   H18H13855   1.811   0.153   5.085 -0.4703 -1.0795 -1.6770
  130OSM      N13856   2.776   4.970   3.052 -0.9482 -0.4362  0.6686
  130OSM    C1513857   2.885   5.063   2.991  0.2951 -0.1319 -0.6290
  130OSM   H15A13858   2.894   5.058   2.883 -0.9687 -1.8523 -0.6922
  130OSM   H15B13859   2.983   5.055   3.037 -0.4268 -0.2352  0.9474
  130OSM   H15C13860   2.859   5.167   3.006 -2.5631 -1.0283  1.2749
  130OSM    C1413861   2.792   4.984   3.200 -0.0797 -0.2564  0.5076
  130OSM   H14A13862   2.795   5.088   3.228 -2.6358 -0.2699  1.0794
  130OSM   H14B13863   2.881   4.938   3.240  0.0827 -1.0957 -0.7638
  130OSM   H14C13864   2.709   4.929   3.242 -1.1531  2.5402  2.3299
  130OSM    C1313865   2.637   5.000   3.011  0.0816 -0.4432  0.2914
  130OSM   H13A13866   2.625   4.990   2.904  0.6003  0.7295  0.1091
  130OSM   H13B13867   2.626   5.106   3.027  0.4963 -0.3916  0.2435
  130OSM   H13C13868   2.558   4.956   3.071 -2.5280 -0.4195 -2.8742
  130OSM    C1213869   2.813   4.827   3.016  1.0117  0.2548 -0.7912
  130OSM   H12A13870   2.751   4.766   3.080  0.9759 -0.8318 -1.8180
  130OSM   H12B13871   2.912   4.801   3.050  0.4474  1.4102  2.0441
  130OSM    C1113872   2.786   4.772   2.876 -0.1193  0.7265 -0.2807
  130OSM   H11A13873   2.679   4.790   2.853 -0.7954 -2.4176 -0.0167
  130OSM   H11B13874   2.798   4.662   2.870  0.2988  0.8015 -0.9178
  130OSM      P13875   2.990   4.765   2.711 -0.0212  0.1027 -0.1822
  130OSM    O1313876   2.937   4.662   2.619  0.1009  0.6756  0.0346
  130OSM    O1413877   3.078   4.860   2.643 -0.4418 -0.4970 -0.1461
  130OSM    O1113878   3.071   4.700   2.830  0.0167  0.5449 -0.0833
  130OSM    O1213879   2.869   4.839   2.777 -0.1443 -0.3378  0.6394
  130OSM    C1S13880   3.161   4.789   2.898  0.3654  0.2841 -0.5134
  130OSM    H1S13881   3.097   4.867   2.944 -0.0315 -0.6727  0.6130
  130OSM    H1T13882   3.235   4.839   2.831 -0.2945  0.0562 -1.4227
  130OSM     NF13883   3.271   4.809   3.120 -0.1503 -0.0901 -0.4178
  130OSM    HNF13884   3.363   4.847   3.122  0.1392 -0.7995  1.0755
  130OSM    C2S13885   3.239   4.715   3.012 -0.1950  0.5857 -0.4719
  130OSM    H2S13886   3.165   4.640   3.048  1.3381  0.4105  2.5981
  130OSM    C3S13887   3.354   4.637   2.951 -0.1959 -0.1307 -0.1526
  130OSM    H3S13888   3.425   4.709   2.904  0.5801 -0.0913  1.0386
  130OSM     O313889   3.315   4.546   2.843  0.3006  0.2846 -0.3166
  130OSM    HO313890   3.225   4.573   2.826  0.1386 -1.5515 -2.9770
  130OSM    C4S13891   3.435   4.570   3.059  0.6051  0.9679 -0.5406
  130OSM    H4S13892   3.506   4.636   3.110  2.9617 -1.7173 -0.0739
  130OSM    C5S13893   3.432   4.447   3.111  0.3726 -0.3315  0.2977
  130OSM    H5S13894   3.369   4.367   3.069  0.1332  0.5217 -1.0372
  130OSM    C6S13895   3.523   4.398   3.211 -0.3052  0.0688 -0.5438
  130OSM    H6S13896   3.618   4.453   3.194  0.9981 -2.0639 -0.5368
  130OSM    H6T13897   3.540   4.288   3.212  0.6343  0.2085  1.2109
  130OSM    C7S13898   3.477   4.433   3.360 -0.5952 -0.5860  0.0589
  130OSM    H7S13899   3.473   4.543   3.372  1.4833 -0.6216  1.6919
  130OSM    H7T13900   3.553   4.386   3.426 -2.2797 -1.2735  1.6153
  130OSM    C8S13901   3.339   4.381   3.403 -0.0853  0.1610  0.3288
  130OSM    H8S13902   3.321   4.272   3.402  2.0751 -0.2357 -0.8666
  130OSM    H8T13903   3.268   4.434   3.336  1.6039  1.4618 -0.5025
  130OSM    C9S13904   3.289   4.422   3.547  0.0530 -0.0718  0.1962
  130OSM    H9S13905   3.179   4.414   3.546  0.0864 -1.8601 -2.7810
  130OSM    H9T13906   3.326   4.523   3.572 -0.4547  0.1783 -0.0663
  130OSM   C10S13907   3.347   4.323   3.646  0.5353  0.2170  0.3111
  130OSM   H10S13908   3.452   4.351   3.669  0.5842 -1.7490  2.8967
  130OSM   H10T13909   3.356   4.217   3.614  0.4169  0.2925  0.0201
  130OSM   C11S13910   3.272   4.325   3.777  0.2181  0.5284  0.4162
  130OSM   H11S13911   3.165   4.295   3.781  0.1169  1.0176  1.7890
  130OSM   H11T13912   3.280   4.426   3.822 -2.1960  0.7363  0.4958
  130OSM   C12S13913   3.355   4.238   3.884  1.0116  0.6768  0.3292
  130OSM   H12S13914   3.462   4.264   3.867  1.8733 -1.5631  1.8243
  130OSM   H12T13915   3.345   4.129   3.870 -0.1870  0.4217  2.6583
  130OSM   C13S13916   3.297   4.262   4.021 -0.0774  0.4222  0.6577
  130OSM   H13S13917   3.187   4.249   4.014 -0.0589  0.7139 -0.2080
  130OSM   H13T13918   3.312   4.370   4.043  1.4742  0.7871 -1.8134
  130OSM   C14S13919   3.361   4.184   4.131  0.6171  0.0860 -0.1852
  130OSM   H14S13920   3.459   4.224   4.165 -0.9776  0.9365  3.9922
  130OSM   H14T13921   3.368   4.076   4.104 -1.3297 -0.2947  0.6847
  130OSM   C15S13922   3.269   4.193   4.248  0.1962  0.1083 -0.2007
  130OSM   H15S13923   3.163   4.163   4.243 -0.0127  0.8130 -0.1428
  130OSM   H15T13924   3.291   4.293   4.292 -1.5367  1.2645 -1.7804
  130OSM   C16S13925   3.333   4.113   4.370  0.7240  0.5350  0.3126
  130OSM   H16S13926   3.436   4.156   4.374  1.5376 -1.0847 -1.5545
  130OSM   H16T13927   3.336   4.006   4.343 -2.2981  0.3129  0.5868
  130OSM   C17S13928   3.267   4.145   4.499  0.6007  0.6242  0.5852
  130OSM   H17S13929   3.277   4.254   4.518 -0.2183  1.1328 -1.5609
  130OSM   H17T13930   3.304   4.081   4.582  0.3262  0.6039  0.6946
  130OSM   C18S13931   3.115   4.123   4.495  0.0663 -0.0334  0.1159
  130OSM   H18S13932   3.084   4.022   4.460  0.3791  0.6224 -2.1747
  130OSM   H18T13933   3.066   4.204   4.438  0.2251  0.1946  0.3017
  130OSM   H18U13934   3.074   4.125   4.599 -0.4570 -0.3031 -0.0782
  130OSM    C1F13935   3.179   4.866   3.196  0.1495 -0.6110  0.0095
  130OSM     OF13936   3.063   4.823   3.195 -0.0945 -0.3809  0.0257
  130OSM    C2F13937   3.204   4.985   3.284 -0.4006  0.3402  0.1149
  130OSM    H2F13938   3.103   5.014   3.321 -1.2751 -1.5165 -0.6641
  130OSM    H2G13939   3.248   5.067   3.223  1.5161 -1.0517 -0.4858
  130OSM    C3F13940   3.296   4.940   3.401  0.4162 -1.1915 -0.1462
  130OSM    H3F13941   3.338   5.028   3.456 -0.5098 -0.7824 -0.0719
  130OSM    H3G13942   3.385   4.892   3.355 -0.9003 -3.0469 -0.8868
  130OSM    C4F13943   3.230   4.836   3.504  0.0633  0.5582  0.3824
  130OSM    H4F13944   3.314   4.812   3.572  0.2221  1.7113  0.6128
  130OSM    H4G13945   3.190   4.747   3.452  0.3903  0.8256 -0.3418
  130OSM    C5F13946   3.126   4.902   3.589  1.3506 -0.0265 -0.3414
  130OSM    H5F13947   3.032   4.917   3.533  1.5650  0.4562 -0.5792
  130OSM    H5G13948   3.156   5.002   3.628  2.2454 -0.7141  0.8019
  130OSM    C6F13949   3.087   4.814   3.710  0.0329  0.0026 -0.0218
  130OSM    H6F13950   3.067   4.711   3.673 -0.0215  0.4160 -1.1765
  130OSM    H6G13951   2.988   4.846   3.749  0.3838  1.7137 -0.4482
  130OSM    C7F13952   3.188   4.814   3.819 -0.5758 -0.3638  0.5061
  130OSM    H7F13953   3.168   4.905   3.880  2.4495  0.8216 -0.1103
  130OSM    H7G13954   3.292   4.810   3.782 -0.8192  1.9152 -0.6046
  130OSM    C8F13955   3.147   4.692   3.912  0.3124  0.6444  0.1903
  130OSM    H8F13956   3.236   4.669   3.973 -0.0614  2.5008  1.5116
  130OSM    H8G13957   3.132   4.603   3.846  0.6233  0.9954 -0.3668
  130OSM    C9F13958   3.037   4.733   4.011 -0.0797  0.2169 -0.6245
  130OSM    H9F13959   2.951   4.789   3.972 -0.5857  0.5110  0.8431
  130OSM   C10F13960   3.050   4.725   4.143 -0.4653 -0.5584  0.5749
  130OSM   H10F13961   2.968   4.763   4.206 -0.9366  0.5391 -0.6694
  130OSM   C11F13962   3.161   4.653   4.218 -0.5821 -0.2069  0.5921
  130OSM   H11F13963   3.256   4.708   4.232  0.4190 -1.9010  0.6629
  130OSM   H11G13964   3.190   4.564   4.158  0.0141  0.4008 -0.0366
  130OSM   C12F13965   3.107   4.599   4.353 -0.1059 -0.3941  0.2742
  130OSM   H12F13966   3.181   4.526   4.393  0.5403 -0.3416 -0.7829
  130OSM   H12G13967   3.015   4.538   4.340 -0.6487  0.4638  0.0506
  130OSM   C13F13968   3.085   4.706   4.468  0.4593 -0.6850 -0.3783
  130OSM   H13F13969   3.014   4.784   4.432  1.8061  1.8511  2.0935
  130OSM   H13G13970   3.183   4.756   4.479 -0.1468  0.2287  1.1420
  130OSM   C14F13971   3.030   4.659   4.602 -0.1145 -0.2457 -0.2015
  130OSM   H14F13972   3.021   4.752   4.662  0.4017 -0.8793  0.8877
  130OSM   H14G13973   3.103   4.592   4.651  0.6292 -0.4844 -1.5787
  130OSM   C15F13974   2.885   4.595   4.586  0.1354  0.0503  0.5751
  130OSM   H15F13975   2.904   4.510   4.517 -1.4585  1.9366 -2.4185
  130OSM   H15G13976   2.831   4.682   4.542 -0.6109 -1.0237 -0.7249
  130OSM   C16F13977   2.807   4.542   4.711 -0.1532 -0.0545 -0.5369
  130OSM   H16F13978   2.711   4.492   4.687 -0.6941  0.0165  1.3052
  130OSM   H16G13979   2.779   4.628   4.776  0.7545  0.2004 -0.4759
  130OSM   C17F13980   2.896   4.447   4.793 -0.3086 -0.2029 -0.8375
  130OSM   H17F13981   3.000   4.484   4.811 -0.2182 -0.3511 -1.0505
  130OSM   H17G13982   2.903   4.358   4.727  1.6198 -0.3338 -0.5278
  130OSM   C18F13983   2.832   4.397   4.920  0.5644  0.3778  0.0369
  130OSM   H18F13984   2.824   4.483   4.990 -0.0135  2.0428 -1.9549
  130OSM   H18G13985   2.882   4.313   4.973  1.0279 -0.5813 -1.8460
  130OSM   H18H13986   2.733   4.354   4.893  0.4874  1.2966 -1.2738
  131OSM      N13987   1.581   2.220   2.528  0.3779 -0.0944 -0.5618
  131OSM    C1513988   1.535   2.130   2.627  0.0650 -0.0053 -0.1106
  131OSM   H15A13989   1.577   2.142   2.726  0.1544 -0.6293 -0.0693
  131OSM   H15B13990   1.545   2.029   2.593 -0.5069 -0.5717  1.2921
  131OSM   H15C13991   1.435   2.154   2.662 -0.3138 -0.7932 -0.6230
  131OSM    C1413992   1.588   2.359   2.595  0.2451  0.5514  0.3209
  131OSM   H14A13993   1.642   2.436   2.542 -2.4706  1.2216 -1.7252
  131OSM   H14B13994   1.639   2.338   2.688 -0.3801 -2.7705  0.0275
  131OSM   H14C13995   1.492   2.400   2.623  0.4793  1.4322 -0.1300
  131OSM    C1313996   1.720   2.189   2.482  0.3016  0.0174  0.1585
  131OSM   H13A13997   1.731   2.095   2.431  1.3034  0.4401 -0.4257
  131OSM   H13B13998   1.788   2.191   2.566  0.6293 -1.2311 -0.0638
  131OSM   H13C13999   1.756   2.271   2.421 -0.0045  0.8436  1.0497
  131OSM    C1214000   1.491   2.226   2.411 -0.1043  0.2012 -0.1628
  131OSM   H12A14001   1.505   2.143   2.344  1.5115  0.9288 -0.7713
  131OSM   H12B14002   1.517   2.313   2.353 -0.1411  0.2328 -0.1317
  131OSM    C1114003   1.340   2.250   2.456  0.1501 -0.0040 -0.5400
  131OSM   H11A14004   1.281   2.312   2.386 -0.2643  0.2744  0.0432
  131OSM   H11B14005   1.333   2.305   2.552 -0.5282 -0.5071 -0.2992
  131OSM      P14006   1.127   2.107   2.510 -0.2018  0.1527  0.6071
  131OSM    O1314007   1.057   2.220   2.438  0.4049  0.2210 -0.2012
  131OSM    O1414008   1.089   1.967   2.486  0.1148  0.4098 -0.2910
  131OSM    O1114009   1.119   2.135   2.663  0.4053  0.4805 -0.0606
  131OSM    O1214010   1.278   2.123   2.466 -0.0650  0.5095  0.1130
  131OSM    C1S14011   1.161   2.040   2.765  0.6272 -0.1480  0.2761
  131OSM    H1S14012   1.254   1.986   2.736  0.5968 -1.4296  2.3431
  131OSM    H1T14013   1.081   1.966   2.787 -1.0305  0.8723 -1.9863
  131OSM     NF14014   1.222   2.014   3.002  0.1446  0.1570  0.0815
  131OSM    HNF14015   1.143   1.993   3.059 -0.4400 -2.0806 -1.4192
  131OSM    C2S14016   1.202   2.115   2.896  0.7841  0.8140 -0.2978
  131OSM    H2S14017   1.300   2.164   2.878  1.9817 -0.3392  2.6349
  131OSM    C3S14018   1.092   2.222   2.917  0.2378  0.0887  0.1176
  131OSM    H3S14019   0.987   2.189   2.905  0.4042 -0.8549  1.1545
  131OSM     O314020   1.109   2.341   2.837  0.2472 -0.0359  0.2215
  131OSM    HO314021   1.167   2.307   2.769  1.6133 -0.7724  1.6941
  131OSM    C4S14022   1.095   2.280   3.060  0.1343 -0.4564 -0.3429
  131OSM    H4S14023   1.178   2.352   3.064 -0.8433  0.7429 -0.9614
  131OSM    C5S14024   1.005   2.262   3.161  0.6836  0.3776  0.3844
  131OSM    H5S14025   0.922   2.192   3.141  0.1415  0.4788  2.1441
  131OSM    C6S14026   1.005   2.330   3.294  0.6178  0.0344 -0.4428
  131OSM    H6S14027   0.931   2.412   3.303  1.4186  0.5371  3.1268
  131OSM    H6T14028   1.102   2.383   3.306  0.3429  0.2673  0.8755
  131OSM    C7S14029   1.004   2.230   3.407  0.0104 -0.0417 -0.0409
  131OSM    H7S14030   1.092   2.161   3.405 -0.8453 -1.2066  0.9833
  131OSM    H7T14031   0.915   2.169   3.380 -0.8655  1.3156 -0.2722
  131OSM    C8S14032   0.993   2.291   3.544  0.1406  0.0292  0.2964
  131OSM    H8S14033   0.898   2.347   3.559  0.5341  1.5460 -2.3638
  131OSM    H8T14034   1.078   2.362   3.543  1.4537 -1.4212  1.8958
  131OSM    C9S14035   1.009   2.188   3.662 -0.1014 -0.5286  0.6919
  131OSM    H9S14036   1.116   2.164   3.679  0.2941  1.4629  1.3975
  131OSM    H9T14037   0.951   2.096   3.640 -0.8347 -0.1641  1.0314
  131OSM   C10S14038   0.951   2.245   3.785 -0.1479 -0.7739  0.0030
  131OSM   H10S14039   0.849   2.279   3.760 -0.0063 -0.0152  0.4072
  131OSM   H10T14040   1.000   2.342   3.807 -1.0907 -0.5878  1.4116
  131OSM   C11S14041   0.969   2.150   3.903  0.1941 -0.4318 -0.1137
  131OSM   H11S14042   1.080   2.150   3.911  0.4639  1.6605 -2.3533
  131OSM   H11T14043   0.935   2.047   3.879  1.2316 -1.2984  1.8860
  131OSM   C12S14044   0.917   2.207   4.037  0.1630 -0.3979  0.5352
  131OSM   H12S14045   0.813   2.244   4.028  0.2845 -0.1744  0.0622
  131OSM   H12T14046   0.982   2.293   4.066 -1.4713  0.7633  0.8885
  131OSM   C13S14047   0.922   2.098   4.147  0.3018  0.3144 -0.4498
  131OSM   H13S14048   1.026   2.076   4.178  0.2720  0.7191 -0.0566
  131OSM   H13T14049   0.869   2.002   4.128 -0.6127  0.5443  0.8271
  131OSM   C14S14050   0.868   2.160   4.277  1.6925  0.2506 -0.0609
  131OSM   H14S14051   0.773   2.211   4.249  1.5209 -0.8138 -1.5586
  131OSM   H14T14052   0.936   2.241   4.311  0.2709  1.0349  0.9812
  131OSM   C15S14053   0.843   2.062   4.388  0.1014  0.4392 -0.3642
  131OSM   H15S14054   0.938   2.017   4.423 -0.2900  0.2540  0.4660
  131OSM   H15T14055   0.793   1.968   4.355  0.6353  0.6921 -2.0294
  131OSM   C16S14056   0.762   2.120   4.508  0.2709 -0.3803 -0.0454
  131OSM   H16S14057   0.662   2.160   4.480  0.0261 -1.0333 -0.1178
  131OSM   H16T14058   0.816   2.206   4.553  0.4427 -1.1375  1.2529
  131OSM   C17S14059   0.741   2.011   4.622  0.5205 -0.4808 -0.5116
  131OSM   H17S14060   0.830   1.953   4.655 -0.0243 -1.4604 -0.7068
  131OSM   H17T14061   0.680   1.938   4.565 -0.9108 -0.3876  0.8129
  131OSM   C18S14062   0.658   2.064   4.741 -0.5367 -0.1086 -0.4162
  131OSM   H18S14063   0.570   2.121   4.703 -0.0569  1.0528  0.1485
  131OSM   H18T14064   0.725   2.138   4.789 -1.0764  0.4917 -0.5718
  131OSM   H18U14065   0.629   1.981   4.809  1.0581 -0.6502 -0.3788
  131OSM    C1F14066   1.338   1.952   3.019  0.1751 -0.2228  0.8823
  131OSM     OF14067   1.422   1.960   2.924  0.1436 -0.0586  0.3764
  131OSM    C2F14068   1.362   1.882   3.145 -0.6595  0.2154  0.5660
  131OSM    H2F14069   1.471   1.887   3.168 -0.8657  1.1728  1.4006
  131OSM    H2G14070   1.334   1.776   3.130 -1.3726  0.6375 -1.4084
  131OSM    C3F14071   1.281   1.947   3.266 -0.1228  0.1218  0.7804
  131OSM    H3F14072   1.173   1.942   3.240  0.2730  1.5625 -1.4198
  131OSM    H3G14073   1.299   2.056   3.272  1.2037 -0.1482  2.2615
  131OSM    C4F14074   1.318   1.875   3.397 -0.2820  0.4632  0.1548
  131OSM    H4F14075   1.429   1.885   3.401 -0.2756  0.8964 -0.8834
  131OSM    H4G14076   1.290   1.767   3.399 -1.0143  0.5899  3.7426
  131OSM    C5F14077   1.276   1.956   3.518 -0.4634  0.1299  0.4864
  131OSM    H5F14078   1.167   1.938   3.532 -1.2831  1.6510 -3.0498
  131OSM    H5G14079   1.288   2.067   3.518 -0.1786  0.1035  0.8485
  131OSM    C6F14080   1.337   1.894   3.640 -0.4540  0.3859  0.4403
  131OSM    H6F14081   1.445   1.922   3.644  0.5063 -2.8741  0.1841
  131OSM    H6G14082   1.328   1.784   3.636  1.4410  0.1656  1.1461
  131OSM    C7F14083   1.269   1.948   3.766  0.6117 -0.6706 -0.4528
  131OSM    H7F14084   1.160   1.936   3.746  1.2833 -2.0390 -4.0515
  131OSM    H7G14085   1.293   2.056   3.775  0.3336 -0.7277  1.6257
  131OSM    C8F14086   1.311   1.883   3.906  0.2736  0.4140 -0.9718
  131OSM    H8F14087   1.421   1.900   3.913  0.4419 -0.9138 -0.2033
  131OSM    H8G14088   1.303   1.776   3.880 -2.1000 -0.0521  1.2934
  131OSM    C9F14089   1.231   1.923   4.026 -0.2450  0.1729  0.5820
  131OSM    H9F14090   1.122   1.911   4.017 -0.7294  2.1508  2.7282
  131OSM   C10F14091   1.278   1.971   4.140  0.1951 -0.4333  0.1288
  131OSM   H10F14092   1.205   2.006   4.214  0.6201  2.3317 -0.6374
  131OSM   C11F14093   1.415   2.008   4.178  0.2291  0.5823 -0.1037
  131OSM   H11F14094   1.438   2.116   4.161 -1.0779  1.0441  0.8591
  131OSM   H11G14095   1.489   1.948   4.120 -1.9685 -1.6459 -0.7503
  131OSM   C12F14096   1.449   1.968   4.317  0.2168 -0.2686  0.3649
  131OSM   H12F14097   1.558   1.967   4.336  0.2948 -0.0062 -0.0635
  131OSM   H12G14098   1.420   1.861   4.321  0.5922 -0.5425 -2.4743
  131OSM   C13F14099   1.387   2.054   4.427 -0.7383 -0.3819 -0.0333
  131OSM   H13F14100   1.278   2.036   4.425 -1.2816  2.4829 -1.8629
  131OSM   H13G14101   1.391   2.162   4.402 -0.6061  0.2377  2.3814
  131OSM   C14F14102   1.451   2.038   4.567  0.4546  0.4797  0.3315
  131OSM   H14F14103   1.559   2.062   4.557  0.7466 -0.4619  0.9675
  131OSM   H14G14104   1.431   1.935   4.604  1.1338 -0.3029 -1.3776
  131OSM   C15F14105   1.388   2.137   4.667  0.3884 -0.6272 -0.9554
  131OSM   H15F14106   1.393   2.240   4.627 -0.9821 -0.2466 -0.1958
  131OSM   H15G14107   1.450   2.148   4.759  1.6069 -0.4670 -1.7765
  131OSM   C16F14108   1.234   2.119   4.692 -0.3256 -0.6766 -0.9380
  131OSM   H16F14109   1.210   2.015   4.721 -1.2580  0.0846  1.2690
  131OSM   H16G14110   1.181   2.146   4.599 -0.2199  0.1115 -0.7780
  131OSM   C17F14111   1.191   2.197   4.815 -0.2359 -0.6436 -0.0055
  131OSM   H17F14112   1.213   2.303   4.793  1.4567 -1.0109 -0.2391
  131OSM   H17G14113   1.251   2.167   4.904 -0.5808  0.1384  0.4991
  131OSM   C18F14114   1.035   2.188   4.830 -0.1656  0.4236  0.2120
  131OSM   H18F14115   0.983   2.203   4.733 -0.4391 -0.5762  0.1899
  131OSM   H18G14116   1.000   2.264   4.903 -1.0641 -0.2631  0.5079
  131OSM   H18H14117   1.008   2.088   4.871  2.1657 -0.2859  0.1819
  132OSM      N14118   6.345   1.341   2.403  0.6775  0.3913 -0.3401
  132OSM    C1514119   6.266   1.256   2.496 -0.2169  0.3178  0.1331
  132OSM   H15A14120   6.179   1.204   2.460 -0.4900 -0.4402  1.8126
  132OSM   H15B14121   6.243   1.320   2.579  1.3518 -0.3630  1.1479
  132OSM   H15C14122   6.326   1.179   2.543 -1.7295 -1.6089 -0.9607
  132OSM    C1414123   6.379   1.265   2.281 -0.1356 -0.3511 -0.3318
  132OSM   H14A14124   6.402   1.323   2.192 -1.5704 -0.8401 -1.0538
  132OSM   H14B14125   6.299   1.198   2.253 -2.1736  1.3588  1.0924
  132OSM   H14C14126   6.462   1.202   2.310  0.2695 -0.3589 -1.4594
  132OSM    C1314127   6.247   1.441   2.352  0.5098  0.3480  0.7337
  132OSM   H13A14128   6.154   1.403   2.313  0.5359  0.7362  0.2727
  132OSM   H13B14129   6.291   1.492   2.267  2.0466 -1.0897  0.6330
  132OSM   H13C14130   6.228   1.505   2.437 -1.2587 -1.0792  1.4920
  132OSM    C1214131   6.462   1.412   2.471  0.5288  0.6732  0.2863
  132OSM   H12A14132   6.521   1.460   2.395 -2.1642 -1.5144 -3.5256
  132OSM   H12B14133   6.519   1.329   2.511 -0.2935  0.4602  1.0461
  132OSM    C1114134   6.432   1.507   2.587  0.0837  0.0960 -0.1724
  132OSM   H11A14135   6.525   1.509   2.648 -1.0252  1.8700  1.5783
  132OSM   H11B14136   6.356   1.465   2.656  0.5793  1.0141  0.9755
  132OSM      P14137   6.483   1.738   2.485 -0.0464  0.0634 -0.2343
  132OSM    O1314138   6.591   1.678   2.403 -0.6627 -0.1753  0.3075
  132OSM    O1414139   6.405   1.844   2.418 -0.3917 -0.8966  0.1947
  132OSM    O1114140   6.551   1.790   2.618 -0.3302 -0.1460 -0.8545
  132OSM    O1214141   6.385   1.630   2.532 -0.3298 -0.4792  0.0257
  132OSM    C1S14142   6.473   1.803   2.740 -0.1850  0.2925  0.4484
  132OSM    H1S14143   6.467   1.707   2.797  1.5226  0.3392  0.7553
  132OSM    H1T14144   6.368   1.822   2.710  0.1872 -1.1424 -2.0179
  132OSM     NF14145   6.476   1.906   2.970 -0.2895  0.2128  0.4198
  132OSM    HNF14146   6.390   1.951   2.992 -0.1900 -0.1312  1.5547
  132OSM    C2S14147   6.522   1.918   2.831 -0.3479 -0.1670 -0.4363
  132OSM    H2S14148   6.630   1.894   2.831 -0.8537 -2.7202  0.7455
  132OSM    C3S14149   6.488   2.057   2.767 -0.5604 -0.0701  0.4010
  132OSM    H3S14150   6.379   2.078   2.761 -0.2607  1.5478  0.2475
  132OSM     O314151   6.548   2.075   2.638  0.2068  0.6228  0.7121
  132OSM    HO314152   6.585   1.992   2.609  2.1372  1.4838  0.5280
  132OSM    C4S14153   6.547   2.160   2.866  0.3626  0.2670 -0.2798
  132OSM    H4S14154   6.646   2.196   2.834  0.4178 -0.1192 -0.5468
  132OSM    C5S14155   6.480   2.226   2.959 -0.1102 -0.6678  0.7005
  132OSM    H5S14156   6.380   2.200   2.995 -0.2805  0.2071  0.8742
  132OSM    C6S14157   6.534   2.333   3.044 -0.1148 -0.3507 -0.7752
  132OSM    H6S14158   6.481   2.431   3.039 -2.8707 -1.7316 -0.2966
  132OSM    H6T14159   6.643   2.347   3.028 -0.4528  3.2960 -0.8926
  132OSM    C7S14160   6.525   2.301   3.197 -0.4806 -0.2343 -0.0427
  132OSM    H7S14161   6.610   2.356   3.242 -0.1559 -0.3031 -0.5710
  132OSM    H7T14162   6.539   2.194   3.225 -1.0745 -0.4397 -0.5039
  132OSM    C8S14163   6.390   2.352   3.259 -0.1347  0.1127  0.4448
  132OSM    H8S14164   6.299   2.315   3.206 -0.7744  1.1353  0.7889
  132OSM    H8T14165   6.388   2.461   3.235 -1.8349  0.2065  0.8699
  132OSM    C9S14166   6.376   2.335   3.404  0.1086  0.0846 -0.6025
  132OSM    H9S14167   6.372   2.225   3.422  0.4678  0.2873  0.7820
  132OSM    H9T14168   6.276   2.370   3.436 -1.0999 -2.4812 -1.3214
  132OSM   C10S14169   6.498   2.398   3.480  0.7254  0.3229  0.1055
  132OSM   H10S14170   6.483   2.508   3.467 -0.5181  0.1673  0.1186
  132OSM   H10T14171   6.599   2.365   3.447  1.4028  3.2191 -1.0624
  132OSM   C11S14172   6.490   2.350   3.625 -0.3890  0.7696 -0.5587
  132OSM   H11S14173   6.507   2.241   3.638  0.0961  1.0174  1.0600
  132OSM   H11T14174   6.393   2.376   3.670 -1.2627 -3.0478  0.0727
  132OSM   C12S14175   6.598   2.425   3.714  0.4820 -0.3364 -0.3250
  132OSM   H12S14176   6.572   2.532   3.703 -0.2669 -0.5956 -1.2367
  132OSM   H12T14177   6.691   2.401   3.658 -1.3036 -1.7467 -2.9126
  132OSM   C13S14178   6.606   2.382   3.864  0.3594 -0.2525 -0.0306
  132OSM   H13S14179   6.618   2.272   3.874  2.2051 -0.0744  0.0336
  132OSM   H13T14180   6.508   2.398   3.913 -0.5716 -2.6603 -0.9467
  132OSM   C14S14181   6.721   2.454   3.940 -0.0304 -0.1409 -0.2737
  132OSM   H14S14182   6.708   2.564   3.937  4.0229  0.4517 -0.7482
  132OSM   H14T14183   6.812   2.425   3.885 -0.3452 -0.2296 -0.7541
  132OSM   C15S14184   6.741   2.419   4.095 -0.1326 -0.1895 -0.1721
  132OSM   H15S14185   6.846   2.442   4.125 -0.4035  0.8896 -0.0210
  132OSM   H15T14186   6.719   2.311   4.106 -0.3093 -0.0070  1.4361
  132OSM   C16S14187   6.663   2.506   4.183  0.0710  0.0874  0.2484
  132OSM   H16S14188   6.559   2.499   4.145  0.0562 -2.3019  0.5505
  132OSM   H16T14189   6.697   2.612   4.188 -1.6159  0.5889  3.5510
  132OSM   C17S14190   6.672   2.446   4.323  0.5134 -0.0066 -0.3451
  132OSM   H17S14191   6.656   2.528   4.396  0.7753  0.3210 -0.6538
  132OSM   H17T14192   6.773   2.406   4.350 -0.4171 -0.5358  2.8078
  132OSM   C18S14193   6.573   2.331   4.346 -0.0294 -0.0848 -0.5314
  132OSM   H18S14194   6.467   2.363   4.352 -0.0697 -0.3017 -0.0472
  132OSM   H18T14195   6.584   2.289   4.448 -1.5651  1.6089  0.3933
  132OSM   H18U14196   6.570   2.253   4.266 -2.5431 -1.3439  0.6685
  132OSM    C1F14197   6.546   1.862   3.075 -0.6136  0.3025 -0.1144
  132OSM     OF14198   6.652   1.800   3.065 -0.5781  0.1933  0.1891
  132OSM    C2F14199   6.496   1.904   3.206 -0.2908 -0.0399  0.1004
  132OSM    H2F14200   6.422   1.822   3.216 -0.1141 -0.6351 -2.8061
  132OSM    H2G14201   6.451   2.006   3.202  0.2273  0.2585  1.2634
  132OSM    C3F14202   6.605   1.899   3.310 -0.5249 -0.2070 -0.8078
  132OSM    H3F14203   6.697   1.956   3.286 -1.5359  1.3165 -1.2536
  132OSM    H3G14204   6.643   1.796   3.324  0.8630  0.4009  0.0605
  132OSM    C4F14205   6.560   1.947   3.454  0.0638 -0.2037 -0.0538
  132OSM    H4F14206   6.477   1.883   3.493 -1.6105  2.0726  0.2873
  132OSM    H4G14207   6.518   2.050   3.452  1.2948  0.4793  2.9887
  132OSM    C5F14208   6.674   1.940   3.567 -0.1042 -0.1665 -0.0732
  132OSM    H5F14209   6.698   2.048   3.572 -1.1959  0.3056 -2.9266
  132OSM    H5G14210   6.760   1.879   3.531  1.1931  1.2967  0.4689
  132OSM    C6F14211   6.625   1.877   3.702  0.9153  0.2783  0.8187
  132OSM    H6F14212   6.580   1.779   3.678 -1.1780  1.9688 -3.0841
  132OSM    H6G14213   6.537   1.934   3.739  0.1689 -0.7334  0.6424
  132OSM    C7F14214   6.742   1.859   3.802 -0.0925 -0.5109  0.6614
  132OSM    H7F14215   6.828   1.816   3.747  0.0822  1.7639 -0.9664
  132OSM    H7G14216   6.708   1.790   3.883 -2.7056  0.7534  0.7402
  132OSM    C8F14217   6.784   1.992   3.876  0.8653  0.2616 -0.8931
  132OSM    H8F14218   6.700   2.043   3.927  1.2879 -1.6400  1.9377
  132OSM    H8G14219   6.806   2.067   3.797  0.8942  0.5589 -0.6064
  132OSM    C9F14220   6.901   1.979   3.962 -0.1753 -0.4001 -0.0350
  132OSM    H9F14221   6.987   1.922   3.922 -1.0903 -2.2812  0.5639
  132OSM   C10F14222   6.907   2.006   4.096 -0.5607 -0.3259  0.3873
  132OSM   H10F14223   6.998   1.971   4.147 -1.4114  0.0744  2.2580
  132OSM   C11F14224   6.803   2.058   4.188  0.0655 -0.8460 -1.0938
  132OSM   H11F14225   6.717   2.100   4.131 -0.5078  0.3834  0.6088
  132OSM   H11G14226   6.849   2.139   4.249 -1.0490 -2.3081  1.8496
  132OSM   C12F14227   6.756   1.946   4.290 -0.1271 -0.0335  0.7550
  132OSM   H12F14228   6.694   1.979   4.377 -3.4984 -1.5378 -0.8718
  132OSM   H12G14229   6.849   1.903   4.331  0.5885  2.3418  1.7540
  132OSM   C13F14230   6.662   1.844   4.228  0.2012 -0.0458 -0.3398
  132OSM   H13F14231   6.665   1.749   4.286  1.5833 -0.2993 -0.7917
  132OSM   H13G14232   6.711   1.816   4.132  0.6103  0.2754 -0.2289
  132OSM   C14F14233   6.518   1.890   4.222  0.2831  0.3774  0.2650
  132OSM   H14F14234   6.497   1.987   4.171  0.3324  0.2509 -0.0007
  132OSM   H14G14235   6.485   1.889   4.328 -0.3236 -2.2186  0.1153
  132OSM   C15F14236   6.434   1.781   4.150  0.2336  0.2123  0.1636
  132OSM   H15F14237   6.329   1.782   4.187  0.2298 -2.4579  0.4243
  132OSM   H15G14238   6.476   1.684   4.186  0.3036  0.7020  1.4604
  132OSM   C16F14239   6.441   1.774   3.999 -0.7218 -0.2938 -0.4157
  132OSM   H16F14240   6.531   1.716   3.969 -0.4796 -0.1075 -0.0608
  132OSM   H16G14241   6.440   1.874   3.950  1.0282 -0.8428 -1.6854
  132OSM   C17F14242   6.324   1.688   3.940 -0.1699 -0.1838 -0.4662
  132OSM   H17F14243   6.228   1.742   3.955  0.6862  1.2163  0.1310
  132OSM   H17G14244   6.321   1.592   3.996 -2.2672 -0.5450 -1.1073
  132OSM   C18F14245   6.335   1.639   3.790 -0.2713  0.6934 -0.5862
  132OSM   H18F14246   6.238   1.646   3.736 -0.3051 -0.1185 -0.6454
  132OSM   H18G14247   6.369   1.534   3.799 -0.8483  0.6452  2.1892
  132OSM   H18H14248   6.402   1.703   3.730  0.9066  0.3250  0.3013
  133OSM      N14249   3.550   1.586   2.692  0.3041 -0.7320  0.5103
  133OSM    C1514250   3.579   1.620   2.829 -0.2952  0.2795 -0.3690
  133OSM   H15A14251   3.516   1.702   2.861  0.2269  0.5114  0.0781
  133OSM   H15B14252   3.681   1.657   2.837  0.7597 -2.0899 -1.8544
  133OSM   H15C14253   3.561   1.533   2.889  1.2235 -0.1680 -0.5123
  133OSM    C1414254   3.412   1.544   2.671 -0.6224 -0.6281  0.0588
  133OSM   H14A14255   3.344   1.618   2.711  0.5445  0.0091  0.9025
  133OSM   H14B14256   3.388   1.455   2.728  0.1562  0.0434  1.4799
  133OSM   H14C14257   3.390   1.519   2.568  0.3935 -4.6932  0.6446
  133OSM    C1314258   3.573   1.713   2.612 -0.0742 -0.5455 -0.3582
  133OSM   H13A14259   3.564   1.706   2.505  1.4694  0.8457 -0.6086
  133OSM   H13B14260   3.672   1.751   2.630  0.3653 -2.1177  0.7750
  133OSM   H13C14261   3.503   1.785   2.650  2.1824  1.5791  0.0266
  133OSM    C1214262   3.647   1.481   2.647 -0.4108 -0.5398 -0.2285
  133OSM   H12A14263   3.749   1.514   2.635 -0.3552 -1.1644 -1.8603
  133OSM   H12B14264   3.626   1.453   2.544 -2.1465  0.8844 -0.3221
  133OSM    C1114265   3.650   1.339   2.724 -0.0904  0.2244 -0.1812
  133OSM   H11A14266   3.686   1.356   2.828 -0.1138 -0.5473 -0.0440
  133OSM   H11B14267   3.735   1.280   2.686  0.1826  0.1403  0.5392
  133OSM      P14268   3.510   1.134   2.807 -0.0622  0.0499 -0.1691
  133OSM    O1314269   3.373   1.083   2.785 -0.2098 -0.1376 -0.3956
  133OSM    O1414270   3.620   1.044   2.777  0.3395  0.3750 -1.1957
  133OSM    O1114271   3.520   1.197   2.956  0.0305  0.0830  0.0429
  133OSM    O1214272   3.527   1.263   2.724 -0.5501 -0.7206 -0.3029
  133OSM    C1S14273   3.417   1.291   2.994 -0.2839 -0.2754  0.6188
  133OSM    H1S14274   3.319   1.239   2.987 -0.1082 -0.4084 -1.5939
  133OSM    H1T14275   3.418   1.381   2.929  0.4646  0.0140  1.0100
  133OSM     NF14276   3.340   1.452   3.172  0.1796  0.4834 -0.2092
  133OSM    HNF14277   3.365   1.548   3.159 -0.1699  0.6951  0.5837
  133OSM    C2S14278   3.438   1.344   3.143 -0.5450 -0.7872  0.1760
  133OSM    H2S14279   3.421   1.263   3.217  0.6219 -1.6860 -0.5255
  133OSM    C3S14280   3.586   1.400   3.155 -0.0502  0.1527 -0.0902
  133OSM    H3S14281   3.590   1.500   3.106  1.2615  0.4546  0.5863
  133OSM     O314282   3.689   1.326   3.090 -0.3392 -0.3652 -0.3592
  133OSM    HO314283   3.633   1.281   3.026 -0.7403  1.8811 -1.7358
  133OSM    C4S14284   3.631   1.414   3.302 -0.5873  0.0638 -0.0637
  133OSM    H4S14285   3.618   1.318   3.354 -0.6750  0.8067  1.3380
  133OSM    C5S14286   3.682   1.522   3.374 -0.2049  0.2670 -0.1604
  133OSM    H5S14287   3.699   1.614   3.317 -0.1902  0.0943 -0.4393
  133OSM    C6S14288   3.740   1.506   3.509 -0.2664  0.1541 -0.2322
  133OSM    H6S14289   3.848   1.531   3.515 -0.4523  0.5552  2.1683
  133OSM    H6T14290   3.739   1.398   3.536 -2.2593  0.0713 -0.4789
  133OSM    C7S14291   3.659   1.581   3.612  0.6035  0.4965 -0.3146
  133OSM    H7S14292   3.558   1.541   3.590  1.3154 -0.0849 -2.9560
  133OSM    H7T14293   3.674   1.687   3.582  0.6623  0.7538  0.6249
  133OSM    C8S14294   3.715   1.565   3.752 -0.8079 -0.1546  0.4386
  133OSM    H8S14295   3.793   1.642   3.770  0.1032 -1.2486  1.3311
  133OSM    H8T14296   3.770   1.470   3.767 -0.6123 -0.0207  0.5905
  133OSM    C9S14297   3.602   1.593   3.864  0.0428  0.1221  0.6014
  133OSM    H9S14298   3.522   1.516   3.862 -3.0491  3.0898 -0.0464
  133OSM    H9T14299   3.556   1.694   3.861 -3.0553 -1.1767 -0.4471
  133OSM   C10S14300   3.671   1.590   4.002 -0.8268  0.3029 -0.1984
  133OSM   H10S14301   3.767   1.644   4.018 -0.6481 -0.3218  1.0130
  133OSM   H10T14302   3.690   1.481   4.015  2.5355  0.9205  1.3261
  133OSM   C11S14303   3.587   1.634   4.129 -0.5897 -0.1803 -0.5128
  133OSM   H11S14304   3.503   1.565   4.151 -1.5917  1.5563  1.4781
  133OSM   H11T14305   3.567   1.743   4.122 -0.1925 -0.1859 -1.9805
  133OSM   C12S14306   3.670   1.621   4.258  0.5667 -0.0343 -0.4439
  133OSM   H12S14307   3.757   1.690   4.260  0.4898  0.0867 -1.0878
  133OSM   H12T14308   3.716   1.520   4.263 -2.9390 -1.7341  2.8632
  133OSM   C13S14309   3.576   1.642   4.381 -0.8880  0.2054  0.1867
  133OSM   H13S14310   3.609   1.568   4.457  1.8079 -0.0227 -1.0471
  133OSM   H13T14311   3.476   1.618   4.340 -0.1990  0.3411 -1.6888
  133OSM   C14S14312   3.575   1.786   4.447  0.1292 -0.4121  0.4259
  133OSM   H14S14313   3.527   1.864   4.385  0.1644  0.5373  1.5620
  133OSM   H14T14314   3.680   1.810   4.473  0.0680 -1.7998  2.1288
  133OSM   C15S14315   3.507   1.789   4.578 -0.1025  0.1223 -0.0024
  133OSM   H15S14316   3.501   1.894   4.614  0.3773 -0.7075  2.6657
  133OSM   H15T14317   3.549   1.722   4.655 -3.0382  0.3923  2.0092
  133OSM   C16S14318   3.366   1.740   4.565  0.9583  0.1636  0.5418
  133OSM   H16S14319   3.381   1.630   4.560  1.6801  0.1591  2.2774
  133OSM   H16T14320   3.327   1.788   4.473 -1.8412  4.2160  3.4706
  133OSM   C17S14321   3.259   1.770   4.674  0.1344  0.3723  0.1095
  133OSM   H17S14322   3.158   1.741   4.639 -0.2947  1.7648  0.1359
  133OSM   H17T14323   3.249   1.881   4.676  0.9906  0.6242 -3.5188
  133OSM   C18S14324   3.295   1.723   4.814 -0.2248 -0.3106 -1.1454
  133OSM   H18S14325   3.218   1.758   4.886  0.6624 -1.4183  0.3975
  133OSM   H18T14326   3.390   1.771   4.845 -1.1238  1.4380 -1.0078
  133OSM   H18U14327   3.307   1.613   4.824  0.6654 -0.1065  0.4322
  133OSM    C1F14328   3.208   1.436   3.203  0.4501 -0.1263 -0.0255
  133OSM     OF14329   3.159   1.326   3.207  0.3189  0.2603 -0.3645
  133OSM    C2F14330   3.132   1.564   3.223  0.3339  0.3235 -0.0461
  133OSM    H2F14331   3.072   1.584   3.132  1.8519  2.3258 -0.6762
  133OSM    H2G14332   3.207   1.646   3.229  0.9339 -0.2929  1.2796
  133OSM    C3F14333   3.052   1.566   3.351 -0.1006 -0.1588  0.7668
  133OSM    H3F14334   2.998   1.469   3.356  0.7859 -0.7715 -0.7408
  133OSM    H3G14335   2.975   1.647   3.355  1.6876  1.6263  0.5704
  133OSM    C4F14336   3.134   1.598   3.476  0.2785  0.5514  0.2181
  133OSM    H4F14337   3.163   1.705   3.479 -0.3611  0.7394 -0.2742
  133OSM    H4G14338   3.234   1.549   3.476  0.6527  1.2606 -1.6540
  133OSM    C5F14339   3.058   1.554   3.599 -0.4218  0.1644 -0.3859
  133OSM    H5F14340   3.061   1.444   3.591 -0.1652  0.2619 -1.8840
  133OSM    H5G14341   2.952   1.587   3.587 -0.1369  1.7069  0.9806
  133OSM    C6F14342   3.109   1.592   3.739 -0.5827 -0.4770  0.2333
  133OSM    H6F14343   3.113   1.703   3.743  1.1152 -0.5113  0.2483
  133OSM    H6G14344   3.213   1.552   3.747  0.4368  2.1997  2.4982
  133OSM    C7F14345   3.018   1.533   3.844  0.4061  0.1307  0.1965
  133OSM    H7F14346   3.014   1.424   3.823 -0.9830 -0.0391  1.2012
  133OSM    H7G14347   2.918   1.582   3.840  0.4152  0.4032  2.3505
  133OSM    C8F14348   3.078   1.562   3.982 -0.0206 -0.0914 -0.0742
  133OSM    H8F14349   3.188   1.553   3.973 -0.1922 -0.3765 -2.5842
  133OSM    H8G14350   3.044   1.480   4.048  0.8804  1.0804  1.9457
  133OSM    C9F14351   3.041   1.700   4.042  0.0851  0.1604 -0.4832
  133OSM    H9F14352   2.938   1.717   4.078  0.5596  2.1339  0.0409
  133OSM   C10F14353   3.131   1.791   4.081  0.3750  0.0064  0.4934
  133OSM   H10F14354   3.091   1.878   4.135 -2.1694 -0.0339 -1.1468
  133OSM   C11F14355   3.278   1.789   4.066  0.4041  0.0352  0.2559
  133OSM   H11F14356   3.310   1.722   3.983 -3.5942 -0.6529 -0.9343
  133OSM   H11G14357   3.334   1.739   4.148 -0.5974 -2.2471 -0.3801
  133OSM   C12F14358   3.336   1.925   4.029 -0.4044 -0.1485  0.0406
  133OSM   H12F14359   3.438   1.928   4.073 -1.0217  0.9237  1.4826
  133OSM   H12G14360   3.290   2.012   4.079  0.4232 -0.5176  1.5170
  133OSM   C13F14361   3.371   1.939   3.880 -0.1067  0.4107  0.3761
  133OSM   H13F14362   3.392   1.839   3.835 -0.5059  1.1510 -1.5604
  133OSM   H13G14363   3.464   1.998   3.867 -0.7946  1.0542 -2.2570
  133OSM   C14F14364   3.253   1.994   3.789  0.6721  0.2817  0.4514
  133OSM   H14F14365   3.221   2.094   3.825  2.1809 -0.2794  3.7151
  133OSM   H14G14366   3.163   1.929   3.797  0.7276  0.0542 -0.6568
  133OSM   C15F14367   3.295   2.006   3.636 -0.5211 -0.2735  0.2431
  133OSM   H15F14368   3.361   2.096   3.630 -0.9606 -0.0451 -1.7721
  133OSM   H15G14369   3.204   2.034   3.578  0.6165 -1.2337 -2.1092
  133OSM   C16F14370   3.362   1.882   3.576 -0.0019 -0.4025 -0.5034
  133OSM   H16F14371   3.300   1.793   3.601 -0.7344  0.0470 -0.6792
  133OSM   H16G14372   3.465   1.869   3.616 -0.6545 -2.2097  0.6738
  133OSM   C17F14373   3.377   1.894   3.426  0.2446  0.4840  0.0685
  133OSM   H17F14374   3.404   1.999   3.403 -2.4314  0.9471 -1.3494
  133OSM   H17G14375   3.277   1.877   3.381  1.1913 -2.1470 -1.2662
  133OSM   C18F14376   3.472   1.798   3.356 -0.9653  0.2318  0.0652
  133OSM   H18F14377   3.450   1.693   3.383 -3.2778  1.0100  1.4813
  133OSM   H18G14378   3.580   1.819   3.371 -0.9582  0.8225 -0.7145
  133OSM   H18H14379   3.474   1.816   3.246  1.6928  1.9795  0.3021
  134OSM      N14380   4.535   4.826   2.750  0.1995  0.8890  0.1673
  134OSM    C1514381   4.590   4.699   2.788 -0.0836  0.0699 -0.4140
  134OSM   H15A14382   4.692   4.682   2.757 -0.1325 -0.8819 -0.1162
  134OSM   H15B14383   4.523   4.621   2.753 -0.7627  0.3030  0.3352
  134OSM   H15C14384   4.590   4.684   2.895  1.1698  2.9450  0.0725
  134OSM    C1414385   4.486   4.802   2.607 -0.0788  0.1532  0.0269
  134OSM   H14A14386   4.565   4.800   2.534 -1.1577  1.0005 -1.2175
  134OSM   H14B14387   4.423   4.885   2.578 -2.2455 -1.9388 -1.6809
  134OSM   H14C14388   4.425   4.714   2.597  0.2807  0.0435 -1.3163
  134OSM    C1314389   4.423   4.847   2.848  0.4595  0.2397 -0.0580
  134OSM   H13A14390   4.382   4.945   2.834  3.6549  1.6896 -0.2320
  134OSM   H13B14391   4.446   4.846   2.954  0.3144 -0.6531 -0.0212
  134OSM   H13C14392   4.341   4.779   2.832 -0.3300  0.9668  0.7584
  134OSM    C1214393   4.639   4.934   2.752 -0.0963 -0.2488  0.4791
  134OSM   H12A14394   4.726   4.885   2.710 -1.2295 -0.5715 -1.6172
  134OSM   H12B14395   4.670   4.965   2.851 -0.4162  0.6912  0.3001
  134OSM    C1114396   4.627   5.064   2.665  0.0970  0.0731 -0.8047
  134OSM   H11A14397   4.625   5.029   2.559  0.4686  0.5034 -0.9566
  134OSM   H11B14398   4.713   5.133   2.671 -2.1693  3.0037  0.8358
  134OSM      P14399   4.490   5.240   2.803  0.1608 -0.2222 -0.1074
  134OSM    O1314400   4.531   5.363   2.733  0.1847  0.2688 -0.1834
  134OSM    O1414401   4.357   5.247   2.865  0.0215  0.3593  0.0100
  134OSM    O1114402   4.599   5.192   2.908 -0.2801 -1.0304 -0.3480
  134OSM    O1214403   4.502   5.128   2.691 -0.0736  0.1774 -0.3424
  134OSM    C1S14404   4.553   5.149   3.039 -1.0507  0.1911 -0.0976
  134OSM    H1S14405   4.487   5.062   3.023 -1.9159  0.3645  2.2729
  134OSM    H1T14406   4.489   5.229   3.081 -1.4030 -1.1706  2.0550
  134OSM     NF14407   4.608   5.059   3.270 -0.4643 -0.0818 -0.5053
  134OSM    HNF14408   4.595   5.135   3.333 -3.0751  2.6027 -3.8770
  134OSM    C2S14409   4.663   5.100   3.137 -1.1132  0.0237 -0.3952
  134OSM    H2S14410   4.722   5.013   3.101  0.6241 -0.1021  2.4418
  134OSM    C3S14411   4.770   5.206   3.156 -0.4082 -0.7631  1.0760
  134OSM    H3S14412   4.714   5.295   3.191 -0.2877 -0.4354  0.4459
  134OSM     O314413   4.823   5.259   3.031  0.1307 -0.6464 -0.5356
  134OSM    HO314414   4.754   5.229   2.971 -0.2886  1.3739 -1.1517
  134OSM    C4S14415   4.891   5.171   3.238 -0.1590  0.0998 -0.2255
  134OSM    H4S14416   4.964   5.104   3.189 -0.3861 -0.6070  0.3795
  134OSM    C5S14417   4.920   5.224   3.358  0.1404 -0.1756 -0.1208
  134OSM    H5S14418   4.846   5.294   3.399 -0.2331 -1.3411  1.2810
  134OSM    C6S14419   5.048   5.209   3.441  0.0748  0.1952  0.4566
  134OSM    H6S14420   5.130   5.158   3.387  0.3099  0.1605  0.8386
  134OSM    H6T14421   5.031   5.145   3.530 -1.1830  1.4107  1.1434
  134OSM    C7S14422   5.091   5.340   3.509 -0.0651 -0.5565 -0.0855
  134OSM    H7S14423   5.010   5.388   3.567 -0.5237 -1.1877 -0.1877
  134OSM    H7T14424   5.113   5.413   3.428  0.6891  0.9187  1.3872
  134OSM    C8S14425   5.218   5.331   3.592  0.3277  0.3625 -0.0139
  134OSM    H8S14426   5.239   5.427   3.643  0.8031  0.8226 -1.0345
  134OSM    H8T14427   5.303   5.300   3.528  0.9796 -1.9677  1.8037
  134OSM    C9S14428   5.216   5.213   3.700 -0.4531  0.1106  0.7915
  134OSM    H9S14429   5.316   5.199   3.748  0.7174 -3.6507 -2.2371
  134OSM    H9T14430   5.187   5.120   3.648 -1.5162  0.1967  1.1968
  134OSM   C10S14431   5.106   5.240   3.801 -0.2251  0.1876 -0.4720
  134OSM   H10S14432   5.009   5.209   3.760  0.8931 -1.8502 -1.7190
  134OSM   H10T14433   5.113   5.346   3.834 -1.8323  0.2077 -0.1373
  134OSM   C11S14434   5.110   5.141   3.922  0.4610 -0.0042 -0.0618
  134OSM   H11S14435   5.099   5.038   3.884  0.0457 -0.1948  0.5555
  134OSM   H11T14436   5.021   5.156   3.986  0.1448 -1.5455 -0.1031
  134OSM   C12S14437   5.232   5.148   4.003 -0.0155 -0.3114  0.1064
  134OSM   H12S14438   5.284   5.243   4.028  1.8756 -0.7194 -2.0604
  134OSM   H12T14439   5.312   5.094   3.949  0.4579 -0.7633  1.2256
  134OSM   C13S14440   5.213   5.084   4.136 -0.3015  1.1409  0.2336
  134OSM   H13S14441   5.190   4.975   4.130 -1.3436  1.2683  1.5889
  134OSM   H13T14442   5.130   5.131   4.193 -0.9094  2.4394 -1.6486
  134OSM   C14S14443   5.344   5.093   4.221  0.4932  0.0866  0.3163
  134OSM   H14S14444   5.378   5.197   4.241 -0.3961  0.5070 -0.3009
  134OSM   H14T14445   5.417   5.031   4.165  1.3345  0.4785  0.9599
  134OSM   C15S14446   5.330   5.027   4.359 -0.0060  0.0319 -0.4282
  134OSM   H15S14447   5.429   4.991   4.394 -0.1778  0.1067  0.1488
  134OSM   H15T14448   5.277   4.930   4.354  0.3619 -0.2730  1.1374
  134OSM   C16S14449   5.282   5.132   4.458 -0.0522 -0.1528 -0.5433
  134OSM   H16S14450   5.187   5.175   4.420  0.4782 -0.7865 -2.7791
  134OSM   H16T14451   5.358   5.213   4.464  0.3753 -0.6020  0.2465
  134OSM   C17S14452   5.278   5.076   4.600 -0.2486 -0.0586  0.3625
  134OSM   H17S14453   5.377   5.033   4.624 -1.6481 -2.8813  1.5766
  134OSM   H17T14454   5.210   4.988   4.596 -0.9961  0.5533 -1.9733
  134OSM   C18S14455   5.233   5.180   4.694  0.0518  0.1718 -0.0150
  134OSM   H18S14456   5.269   5.282   4.667 -2.5999  0.3957 -3.3759
  134OSM   H18T14457   5.246   5.146   4.799 -2.9128 -0.0598  0.3615
  134OSM   H18U14458   5.125   5.200   4.680 -0.2455 -0.6889  0.9455
  134OSM    C1F14459   4.533   4.953   3.279  0.1846 -0.0014  0.3286
  134OSM     OF14460   4.547   4.867   3.192  0.3168 -0.2049  0.4209
  134OSM    C2F14461   4.434   4.941   3.390  0.3890  0.1944 -0.4671
  134OSM    H2F14462   4.394   5.044   3.400 -1.3899 -0.4066 -0.9676
  134OSM    H2G14463   4.488   4.915   3.484  0.2817  1.2563 -0.0968
  134OSM    C3F14464   4.323   4.845   3.361  0.4383  0.0827  0.2067
  134OSM    H3F14465   4.368   4.750   3.327  1.8731  0.7228  0.2375
  134OSM    H3G14466   4.252   4.882   3.283 -1.5668 -1.3873  1.2429
  134OSM    C4F14467   4.242   4.809   3.482  0.2040  0.4400  0.1887
  134OSM    H4F14468   4.297   4.769   3.570 -3.2406  0.2874  2.4822
  134OSM    H4G14469   4.163   4.734   3.458 -1.3709  2.4080 -1.1947
  134OSM    C5F14470   4.160   4.920   3.547  0.6167  0.1500  0.3324
  134OSM    H5F14471   4.097   4.971   3.471 -0.7323 -0.0817  1.2641
  134OSM    H5G14472   4.237   4.992   3.583  0.2345  0.7990 -0.1351
  134OSM    C6F14473   4.073   4.891   3.676 -0.3312 -0.0052  0.0294
  134OSM    H6F14474   4.150   4.837   3.734  0.5367  0.1102 -0.9808
  134OSM    H6G14475   3.996   4.815   3.652 -2.7455  2.2105  0.3117
  134OSM    C7F14476   4.020   5.009   3.747  0.4210  0.5531 -0.1845
  134OSM    H7F14477   3.949   5.054   3.674  0.9140 -2.2854 -2.6223
  134OSM    H7G14478   4.090   5.088   3.781  1.7058 -0.7547  0.3132
  134OSM    C8F14479   3.934   4.977   3.874  0.4514 -0.2299 -0.6422
  134OSM    H8F14480   3.834   4.936   3.849  0.5502 -0.0977 -1.2736
  134OSM    H8G14481   3.904   5.071   3.925 -0.5226  0.4195 -2.3373
  134OSM    C9F14482   4.015   4.902   3.977 -0.3621 -0.1837  0.0397
  134OSM    H9F14483   3.998   4.794   3.990 -0.3346 -0.3991 -1.5219
  134OSM   C10F14484   4.109   4.965   4.054  0.1871 -0.6846  0.1153
  134OSM   H10F14485   4.160   4.905   4.131  0.6530  0.2032  0.5179
  134OSM   C11F14486   4.145   5.113   4.058 -0.0968  0.1767  0.6288
  134OSM   H11F14487   4.061   5.177   4.023 -0.9389 -1.2408 -0.0365
  134OSM   H11G14488   4.230   5.147   3.995 -0.0704  2.8119  1.9455
  134OSM   C12F14489   4.169   5.160   4.203 -0.8007  0.2655 -0.0720
  134OSM   H12F14490   4.207   5.264   4.190  0.3436 -0.2103 -0.7163
  134OSM   H12G14491   4.256   5.107   4.246  0.7158 -0.0502 -3.2465
  134OSM   C13F14492   4.052   5.155   4.298  0.3848 -0.1950 -0.0104
  134OSM   H13F14493   4.009   5.056   4.324  0.6794 -0.0647  1.0245
  134OSM   H13G14494   3.965   5.196   4.243 -0.2275 -1.6337 -0.1650
  134OSM   C14F14495   4.060   5.248   4.422 -0.5776  0.2085  0.6799
  134OSM   H14F14496   3.970   5.313   4.422 -1.4161 -0.9181  0.5626
  134OSM   H14G14497   4.148   5.313   4.403  1.3851 -2.0468  1.5558
  134OSM   C15F14498   4.075   5.184   4.559  0.2852  0.3564  0.3810
  134OSM   H15F14499   4.184   5.163   4.559  0.4771  1.2630 -0.0642
  134OSM   H15G14500   4.025   5.085   4.567 -0.2500  0.3572 -2.1663
  134OSM   C16F14501   4.030   5.282   4.673 -0.1412  0.5854 -1.1456
  134OSM   H16F14502   3.928   5.322   4.655 -0.7076 -0.5350 -0.5394
  134OSM   H16G14503   4.103   5.366   4.669 -0.7299  1.1517 -0.1880
  134OSM   C17F14504   4.053   5.238   4.822 -0.3688 -0.0606  0.1605
  134OSM   H17F14505   4.042   5.329   4.884 -0.5479 -0.5549  0.8589
  134OSM   H17G14506   4.155   5.199   4.845  0.1961  2.4079  2.3369
  134OSM   C18F14507   3.968   5.122   4.882  0.9286 -0.0587  0.2387
  134OSM   H18F14508   3.861   5.121   4.853  1.2629  1.8542 -1.2496
  134OSM   H18G14509   3.968   5.120   4.994  5.2836 -0.3797  0.4176
  134OSM   H18H14510   4.004   5.023   4.850  0.9449  0.8018 -2.6717
  135OSM      N14511   5.221   4.722   2.595 -0.3765 -0.5714  0.6085
  135OSM    C1514512   5.187   4.594   2.671  0.5113 -0.3287  0.7648
  135OSM   H15A14513   5.262   4.565   2.742  2.0481  1.5764  0.0114
  135OSM   H15B14514   5.178   4.509   2.606  0.6259  1.3221 -1.5404
  135OSM   H15C14515   5.095   4.619   2.723  0.3401 -0.0880  0.3542
  135OSM    C1414516   5.348   4.681   2.524 -0.0319 -0.4901 -0.2584
  135OSM   H14A14517   5.425   4.632   2.583  0.0919 -0.4429 -0.3774
  135OSM   H14B14518   5.403   4.761   2.476  0.8862  0.6456  2.5042
  135OSM   H14C14519   5.332   4.610   2.443  3.3501 -1.1804 -0.4864
  135OSM    C1314520   5.107   4.754   2.507  0.0116 -0.0456 -0.7076
  135OSM   H13A14521   5.087   4.666   2.447  0.1690 -1.2099  0.8902
  135OSM   H13B14522   5.117   4.835   2.437  0.2523  0.2413 -0.3433
  135OSM   H13C14523   5.018   4.783   2.561  0.6292  0.1041  0.2567
  135OSM    C1214524   5.253   4.823   2.699 -0.2749  0.0216 -0.2233
  135OSM   H12A14525   5.350   4.805   2.744  0.4964  1.5013 -1.2074
  135OSM   H12B14526   5.184   4.804   2.780 -0.2791  0.1486 -0.1973
  135OSM    C1114527   5.268   4.972   2.652 -0.3124  0.6851 -0.7694
  135OSM   H11A14528   5.276   5.042   2.738  1.7297  0.7628 -0.9799
  135OSM   H11B14529   5.171   4.993   2.601 -0.7962  1.3960  0.4003
  135OSM      P14530   5.521   4.989   2.623  0.0119 -0.0745  0.4545
  135OSM    O1314531   5.590   4.883   2.548  0.0769 -0.6849  0.1792
  135OSM    O1414532   5.583   5.127   2.617  0.0239  0.6185  0.3294
  135OSM    O1114533   5.506   4.949   2.775  0.0953  0.7034 -0.1690
  135OSM    O1214534   5.376   4.991   2.563 -0.4859  0.6271  0.1910
  135OSM    C1S14535   5.632   4.907   2.837 -0.2648  0.1616 -0.1885
  135OSM    H1S14536   5.719   4.962   2.793 -1.0336 -0.7633 -3.1141
  135OSM    H1T14537   5.645   4.798   2.818 -1.5993 -0.1212  0.4417
  135OSM     NF14538   5.762   4.957   3.054  0.4451 -0.2546 -0.7161
  135OSM    HNF14539   5.804   4.869   3.078 -0.7555 -1.3353 -2.3014
  135OSM    C2S14540   5.633   4.949   2.989 -0.0218 -0.4422  1.0033
  135OSM    H2S14541   5.581   5.047   2.984  0.3899 -0.2439  0.5289
  135OSM    C3S14542   5.534   4.848   3.062  1.3011  0.3331 -0.0273
  135OSM    H3S14543   5.569   4.743   3.066 -0.7168 -0.3304  2.5251
  135OSM     O314544   5.414   4.838   2.984  0.4080 -0.7910 -0.0946
  135OSM    HO314545   5.454   4.822   2.899 -0.2999 -4.5500  0.0885
  135OSM    C4S14546   5.497   4.901   3.195  0.2556 -0.2409  0.6111
  135OSM    H4S14547   5.447   4.999   3.197 -0.4068 -0.5482 -0.3085
  135OSM    C5S14548   5.538   4.848   3.314 -0.5655 -0.7305  0.1947
  135OSM    H5S14549   5.584   4.749   3.302  1.1082  0.1464 -0.9147
  135OSM    C6S14550   5.503   4.912   3.446 -0.3470 -0.1814  0.2592
  135OSM    H6S14551   5.426   4.990   3.433  0.3728  0.7877  1.5770
  135OSM    H6T14552   5.585   4.965   3.498 -0.5580  2.5944 -1.9798
  135OSM    C7S14553   5.459   4.803   3.552  0.8323  0.3669 -0.6124
  135OSM    H7S14554   5.536   4.724   3.566 -0.4376 -0.6676  0.7181
  135OSM    H7T14555   5.373   4.746   3.511  1.2821 -2.4194  1.9805
  135OSM    C8S14556   5.432   4.863   3.689  0.3808 -0.3378 -0.4034
  135OSM    H8S14557   5.340   4.922   3.672  2.1955  1.5512 -5.6335
  135OSM    H8T14558   5.501   4.942   3.725 -0.6854 -0.6572  2.7033
  135OSM    C9S14559   5.425   4.746   3.801 -0.5589  0.2489  0.4368
  135OSM    H9S14560   5.527   4.713   3.829 -0.9838 -2.0780 -0.5177
  135OSM    H9T14561   5.380   4.658   3.751  0.7570  0.8607 -1.9724
  135OSM   C10S14562   5.336   4.779   3.925  0.1798  0.3465  0.0272
  135OSM   H10S14563   5.235   4.775   3.877  0.5778  2.6604 -1.1421
  135OSM   H10T14564   5.343   4.881   3.967 -0.8187 -0.1318  1.4341
  135OSM   C11S14565   5.370   4.668   4.028 -0.1102  0.8250 -0.3831
  135OSM   H11S14566   5.381   4.572   3.974  0.1915 -0.3133  1.5952
  135OSM   H11T14567   5.286   4.636   4.093  0.0186  0.5385 -0.3561
  135OSM   C12S14568   5.480   4.697   4.129  0.6996 -0.0916  0.1027
  135OSM   H12S14569   5.453   4.791   4.182 -3.6802 -0.6005 -0.8556
  135OSM   H12T14570   5.575   4.703   4.072 -0.2694 -1.9912 -1.8800
  135OSM   C13S14571   5.486   4.592   4.242 -0.3104  0.0757 -0.0283
  135OSM   H13S14572   5.521   4.499   4.193 -0.1428 -0.8528  1.7596
  135OSM   H13T14573   5.381   4.573   4.274 -1.4436  2.5077 -2.0045
  135OSM   C14S14574   5.586   4.633   4.354  0.3422  0.5597  0.1370
  135OSM   H14S14575   5.557   4.739   4.370  1.0273  0.8317 -0.3535
  135OSM   H14T14576   5.690   4.638   4.314  1.2251  2.1044  2.4251
  135OSM   C15S14577   5.569   4.544   4.476 -0.2110 -0.0638 -0.0764
  135OSM   H15S14578   5.584   4.436   4.456  1.0918 -0.1574  1.2292
  135OSM   H15T14579   5.466   4.560   4.516 -1.2014  1.7249 -3.0257
  135OSM   C16S14580   5.675   4.576   4.579 -0.1095 -0.6105 -0.0119
  135OSM   H16S14581   5.670   4.680   4.619 -0.7327 -1.5231  2.4976
  135OSM   H16T14582   5.779   4.561   4.541 -0.3820 -2.2954 -0.1921
  135OSM   C17S14583   5.657   4.473   4.694  0.6513 -0.0553 -0.4333
  135OSM   H17S14584   5.673   4.367   4.663 -0.9607 -0.7248  0.8612
  135OSM   H17T14585   5.548   4.475   4.714  0.8289  2.6403  0.5738
  135OSM   C18S14586   5.738   4.507   4.821 -0.0464 -0.5766 -0.2051
  135OSM   H18S14587   5.841   4.476   4.794 -1.3059 -4.0211 -1.6246
  135OSM   H18T14588   5.701   4.452   4.910  1.7346 -1.1643  0.1937
  135OSM   H18U14589   5.726   4.615   4.845 -5.1424 -1.1210  0.8697
  135OSM    C1F14590   5.845   5.052   3.018  0.2940 -0.8071  0.2520
  135OSM     OF14591   5.806   5.134   2.945  0.5771 -0.1922 -0.1350
  135OSM    C2F14592   5.988   5.043   3.066  0.3424 -0.4344 -0.2314
  135OSM    H2F14593   6.046   5.102   2.992 -3.9094  0.1369 -3.5311
  135OSM    H2G14594   6.015   4.935   3.062  0.7310 -0.3506  0.0707
  135OSM    C3F14595   6.010   5.103   3.207 -0.2634 -0.3911 -0.4998
  135OSM    H3F14596   5.980   5.210   3.210  0.7504 -0.1118  0.0242
  135OSM    H3G14597   6.120   5.095   3.222 -0.1180  0.0402 -1.3046
  135OSM    C4F14598   5.937   5.021   3.312  0.2781  0.2550  0.0044
  135OSM    H4F14599   5.953   4.912   3.300 -1.6841 -0.2672  1.5436
  135OSM    H4G14600   5.826   5.022   3.315  0.2141 -1.3768  3.2831
  135OSM    C5F14601   5.990   5.063   3.449 -0.3838  0.0623  0.6264
  135OSM    H5F14602   5.955   5.168   3.463 -2.2156 -0.1916 -1.4156
  135OSM    H5G14603   6.101   5.054   3.445 -0.2953 -2.0859  3.8560
  135OSM    C6F14604   5.927   4.985   3.567  0.0863  0.1245  0.0627
  135OSM    H6F14605   5.919   4.878   3.538 -0.2677  0.4618 -1.1117
  135OSM    H6G14606   5.822   5.013   3.588 -0.1900 -0.5614 -0.3770
  135OSM    C7F14607   6.010   4.991   3.697  0.1263  0.0046 -0.6902
  135OSM    H7F14608   5.992   5.081   3.758  1.8646  0.6345 -1.0626
  135OSM    H7G14609   6.116   4.997   3.667  0.0627 -1.7074 -1.3833
  135OSM    C8F14610   5.993   4.864   3.787 -0.1091  0.2836  0.4665
  135OSM    H8F14611   6.080   4.880   3.854  1.8057 -1.9846 -1.2690
  135OSM    H8G14612   6.017   4.772   3.730  3.8339  0.8644  0.9276
  135OSM    C9F14613   5.860   4.858   3.860  0.1635  0.5149  0.0840
  135OSM    H9F14614   5.771   4.873   3.796  1.0185  1.1779 -0.9974
  135OSM   C10F14615   5.843   4.833   3.990  0.3365  0.2708  0.4983
  135OSM   H10F14616   5.742   4.835   4.031 -0.1504  0.3116 -0.6617
  135OSM   C11F14617   5.960   4.810   4.086 -1.2033 -0.3298 -0.0150
  135OSM   H11F14618   6.046   4.769   4.029  0.2228  0.5104  1.4468
  135OSM   H11G14619   5.924   4.731   4.156  0.2848  0.3706  1.6010
  135OSM   C12F14620   6.009   4.930   4.174  0.7500  0.0960  0.3296
  135OSM   H12F14621   5.923   4.992   4.206  1.6928  2.0619 -0.7232
  135OSM   H12G14622   6.055   5.010   4.112  0.4887 -0.5703 -0.7468
  135OSM   C13F14623   6.086   4.890   4.299 -0.6981 -0.6338 -0.3842
  135OSM   H13F14624   6.191   4.867   4.270  0.5035  1.2566  2.0928
  135OSM   H13G14625   6.062   4.788   4.335  0.4933 -0.7713  0.0840
  135OSM   C14F14626   6.077   4.990   4.419 -0.5069  0.1888  0.0810
  135OSM   H14F14627   5.972   4.996   4.455 -0.2967 -0.0677  0.7565
  135OSM   H14G14628   6.096   5.092   4.381 -0.2218 -0.1710 -0.7874
  135OSM   C15F14629   6.159   4.950   4.547  0.1213 -0.8708  0.3096
  135OSM   H15F14630   6.163   5.043   4.607  1.5753 -1.6943  1.5759
  135OSM   H15G14631   6.261   4.918   4.518  0.9616  1.7080  0.1265
  135OSM   C16F14632   6.091   4.840   4.622  0.4802 -0.2026 -0.4035
  135OSM   H16F14633   6.118   4.748   4.567 -0.1689 -0.0916 -0.9196
  135OSM   H16G14634   5.982   4.862   4.631  0.3738 -0.8139 -0.1780
  135OSM   C17F14635   6.152   4.842   4.762 -0.0703  0.2688  0.3953
  135OSM   H17F14636   6.166   4.943   4.805 -0.3217  0.8175 -0.7633
  135OSM   H17G14637   6.258   4.811   4.748 -0.0501  1.1236 -1.8207
  135OSM   C18F14638   6.092   4.761   4.866 -0.2025 -0.0514  0.0579
  135OSM   H18F14639   6.168   4.703   4.922 -1.3739 -0.4006  1.3304
  135OSM   H18G14640   6.016   4.690   4.828 -0.6804  0.6622 -0.3414
  135OSM   H18H14641   6.024   4.825   4.926 -0.1382  2.2429 -2.1396
  136OSM      N14642   2.561   0.694   2.593 -0.4901  0.1182  0.1220
  136OSM    C1514643   2.524   0.659   2.449 -0.4958 -0.0320 -0.2278
  136OSM   H15A14644   2.590   0.703   2.375  0.7023  1.7762  1.8249
  136OSM   H15B14645   2.422   0.686   2.426 -0.6944 -1.7115 -1.5652
  136OSM   H15C14646   2.527   0.552   2.435 -3.1453 -0.3261  0.9098
  136OSM    C1414647   2.555   0.845   2.586 -0.6121 -0.3155  0.1840
  136OSM   H14A14648   2.454   0.882   2.578  0.2377  2.5045  1.2359
  136OSM   H14B14649   2.606   0.875   2.495  1.2364  0.0422  1.2858
  136OSM   H14C14650   2.603   0.902   2.664  0.9909 -1.6190  0.2148
  136OSM    C1314651   2.454   0.643   2.685 -0.6647  0.4940  0.8131
  136OSM   H13A14652   2.480   0.542   2.713  0.4115  0.2115 -1.0359
  136OSM   H13B14653   2.360   0.636   2.632 -2.0556 -1.8076  3.3337
  136OSM   H13C14654   2.438   0.701   2.775 -2.2495 -0.2001  1.0004
  136OSM    C1214655   2.699   0.653   2.628  0.3187 -0.0961  0.1681
  136OSM   H12A14656   2.722   0.664   2.733  1.9014 -1.0321 -0.0459
  136OSM   H12B14657   2.769   0.720   2.580  1.0577 -0.9126  0.0792
  136OSM    C1114658   2.747   0.508   2.592  0.0657  0.0410 -0.1144
  136OSM   H11A14659   2.851   0.508   2.633 -1.3483  0.2794  3.9461
  136OSM   H11B14660   2.748   0.501   2.481 -0.9757 -2.4915 -0.0172
  136OSM      P14661   2.589   0.301   2.610 -0.0617  0.1834 -0.3194
  136OSM    O1314662   2.456   0.274   2.672 -0.1075  0.3641 -0.0059
  136OSM    O1414663   2.578   0.322   2.461 -0.0110 -0.1111 -0.2142
  136OSM    O1114664   2.675   0.172   2.637 -0.4823  0.0497 -0.2628
  136OSM    O1214665   2.667   0.416   2.672  0.1633 -0.2951 -0.2233
  136OSM    C1S14666   2.727   0.163   2.777  0.1645 -0.2222  0.9488
  136OSM    H1S14667   2.759   0.259   2.822  1.0399  0.3396 -0.7909
  136OSM    H1T14668   2.822   0.107   2.780 -0.1181 -1.1178 -2.7251
  136OSM     NF14669   2.682   0.078   3.018 -0.4503  1.6528 -0.3927
  136OSM    HNF14670   2.722  -0.012   3.032 -0.8001  1.2080 -1.9700
  136OSM    C2S14671   2.629   0.089   2.878  0.3056 -0.0380 -0.0191
  136OSM    H2S14672   2.531   0.141   2.886  0.6974  0.6352  0.4797
  136OSM    C3S14673   2.588  -0.052   2.821  0.0236  0.0893 -0.3282
  136OSM    H3S14674   2.682  -0.111   2.813 -0.6495 -0.8695 -1.6013
  136OSM     O314675   2.525  -0.053   2.694  0.0482 -0.4282  0.0218
  136OSM    HO314676   2.530   0.035   2.655 -3.7141 -1.1206 -2.5540
  136OSM    C4S14677   2.497  -0.127   2.915  0.6276 -0.0965  0.1495
  136OSM    H4S14678   2.408  -0.073   2.948  1.2600  0.1785  1.4712
  136OSM    C5S14679   2.507  -0.257   2.962  0.5993 -0.1134  0.1993
  136OSM    H5S14680   2.592  -0.318   2.929 -0.6573 -0.3754 -2.8808
  136OSM    C6S14681   2.411  -0.332   3.056 -0.1135  0.3615  0.2534
  136OSM    H6S14682   2.386  -0.435   3.023  3.7074 -0.2905 -1.1517
  136OSM    H6T14683   2.315  -0.275   3.051 -1.1570 -1.3439  0.2122
  136OSM    C7S14684   2.479  -0.344   3.197  0.1548  0.0550 -0.0295
  136OSM    H7S14685   2.520  -0.248   3.233  1.2169 -1.2845  2.5373
  136OSM    H7T14686   2.559  -0.421   3.200 -1.5144 -1.7700  0.4582
  136OSM    C8S14687   2.374  -0.386   3.305  0.0462  0.2735 -0.4694
  136OSM    H8S14688   2.311  -0.467   3.261 -3.7237  2.6024  0.2208
  136OSM    H8T14689   2.321  -0.290   3.322  1.5581  1.3252 -1.3785
  136OSM    C9S14690   2.419  -0.436   3.444  0.2917 -0.3923 -0.1422
  136OSM    H9S14691   2.444  -0.349   3.509  0.3392 -0.2029 -0.4131
  136OSM    H9T14692   2.510  -0.497   3.427  0.7466  0.4893 -0.9510
  136OSM   C10S14693   2.316  -0.525   3.511  0.6048  0.0482  0.3034
  136OSM   H10S14694   2.309  -0.606   3.435  1.5341 -1.1011  1.3889
  136OSM   H10T14695   2.222  -0.468   3.528  1.1568  0.2792  3.1385
  136OSM   C11S14696   2.351  -0.596   3.643 -0.0873 -0.1362 -0.7578
  136OSM   H11S14697   2.439  -0.660   3.619  0.2590  0.9480 -2.6225
  136OSM   H11T14698   2.264  -0.659   3.671 -0.3345  0.1091 -0.9709
  136OSM   C12S14699   2.373  -0.502   3.761  0.4025  0.0676 -0.6049
  136OSM   H12S14700   2.294  -0.425   3.748 -1.4118 -1.8898 -1.7552
  136OSM   H12T14701   2.473  -0.455   3.759  0.9464 -1.0326 -0.3378
  136OSM   C13S14702   2.374  -0.577   3.895  0.0079  0.1385  0.1176
  136OSM   H13S14703   2.450  -0.658   3.895 -2.0991 -1.9535 -0.0695
  136OSM   H13T14704   2.278  -0.627   3.919  0.6134 -2.0076 -1.5488
  136OSM   C14S14705   2.393  -0.474   4.002 -0.6647  0.1197 -0.5379
  136OSM   H14S14706   2.307  -0.404   4.007  0.3003  1.6347 -3.0227
  136OSM   H14T14707   2.488  -0.417   3.995 -0.0570 -0.9647 -1.4099
  136OSM   C15S14708   2.392  -0.534   4.145  0.4347  0.4924  0.5255
  136OSM   H15S14709   2.476  -0.605   4.164  0.4403  0.0749 -0.8993
  136OSM   H15T14710   2.302  -0.599   4.151  0.6772  0.0688 -0.1567
  136OSM   C16S14711   2.387  -0.427   4.247 -0.0697  0.4357  0.3223
  136OSM   H16S14712   2.290  -0.375   4.263 -0.0745  0.4366  0.2918
  136OSM   H16T14713   2.450  -0.340   4.217  0.1403  0.0297 -0.4191
  136OSM   C17S14714   2.408  -0.482   4.387 -0.3824  0.0068  0.0430
  136OSM   H17S14715   2.501  -0.543   4.393 -0.5906 -0.3757 -0.5401
  136OSM   H17T14716   2.328  -0.554   4.413  0.5084 -0.7698  0.7346
  136OSM   C18S14717   2.424  -0.375   4.496 -0.7114 -0.7043  0.4318
  136OSM   H18S14718   2.417  -0.407   4.602 -1.1520  2.1161  1.3651
  136OSM   H18T14719   2.342  -0.302   4.478 -2.0635 -2.0879  0.7769
  136OSM   H18U14720   2.522  -0.329   4.472  0.2276 -1.6116  2.3172
  136OSM    C1F14721   2.719   0.175   3.095 -0.0950 -0.6619  0.3021
  136OSM     OF14722   2.682   0.291   3.072 -0.0898  0.3121  0.1694
  136OSM    C2F14723   2.815   0.144   3.206 -1.0040  0.1849  0.1662
  136OSM    H2F14724   2.922   0.159   3.183 -0.3094 -0.3265  2.7133
  136OSM    H2G14725   2.802   0.048   3.259  1.1568 -1.3589 -1.9074
  136OSM    C3F14726   2.782   0.241   3.326  0.3847 -0.5502 -0.1980
  136OSM    H3F14727   2.679   0.238   3.368  1.3591  0.7699  2.5737
  136OSM    H3G14728   2.797   0.349   3.303 -1.8531  0.0161  0.7430
  136OSM    C4F14729   2.874   0.214   3.444 -0.0617  0.3801 -0.5108
  136OSM    H4F14730   2.883   0.304   3.508  0.2050  0.8712 -1.2248
  136OSM    H4G14731   2.972   0.173   3.412 -0.5132 -1.0361 -0.1774
  136OSM    C5F14732   2.812   0.096   3.524  0.1144  0.3135 -0.3764
  136OSM    H5F14733   2.818   0.000   3.469  0.0988 -0.4444  0.9081
  136OSM    H5G14734   2.703   0.109   3.537  0.2006 -0.3655  1.3691
  136OSM    C6F14735   2.875   0.073   3.656  0.4312 -0.3707 -0.5032
  136OSM    H6F14736   2.986   0.078   3.655  0.4356 -0.1719  0.3564
  136OSM    H6G14737   2.843  -0.028   3.689  0.6933 -0.0721  0.7080
  136OSM    C7F14738   2.827   0.162   3.768 -0.5386 -0.2375  0.3811
  136OSM    H7F14739   2.716   0.163   3.757 -0.3924  1.6397 -1.6557
  136OSM    H7G14740   2.873   0.263   3.758  2.2838 -1.2563  2.0042
  136OSM    C8F14741   2.870   0.115   3.905  0.8747  0.1062 -0.7329
  136OSM    H8F14742   2.848   0.007   3.914 -1.8036  0.5753 -0.7268
  136OSM    H8G14743   2.792   0.156   3.972 -1.7974 -1.3728 -2.7520
  136OSM    C9F14744   3.010   0.148   3.942 -0.4133  0.4069 -0.1542
  136OSM    H9F14745   3.088   0.101   3.880  1.3501  0.6751  1.7436
  136OSM   C10F14746   3.054   0.226   4.037  0.5089  0.6600 -0.7549
  136OSM   H10F14747   3.163   0.229   4.050  0.4853  0.0163 -0.3666
  136OSM   C11F14748   2.979   0.312   4.137 -0.4367 -0.2877 -0.9714
  136OSM   H11F14749   2.868   0.311   4.135 -0.4487 -2.1579 -2.2836
  136OSM   H11G14750   3.016   0.415   4.113  0.2074 -0.0782  0.7628
  136OSM   C12F14751   3.020   0.260   4.279  0.2859 -0.2169  0.3596
  136OSM   H12F14752   2.981   0.340   4.346 -0.6980 -1.7042  1.6473
  136OSM   H12G14753   3.129   0.257   4.299  0.5368 -0.9505 -0.9836
  136OSM   C13F14754   2.951   0.133   4.320 -0.1960 -0.0106  0.2876
  136OSM   H13F14755   2.988   0.049   4.257  0.7637  0.8768 -0.3692
  136OSM   H13G14756   2.843   0.158   4.311 -0.0696  0.6755  0.6303
  136OSM   C14F14757   2.978   0.102   4.467  0.0577 -0.2252 -0.3209
  136OSM   H14F14758   2.925   0.008   4.494 -0.2909 -0.0200 -0.2840
  136OSM   H14G14759   2.924   0.179   4.526 -0.3466  0.6885 -1.8427
  136OSM   C15F14760   3.126   0.091   4.521 -0.1870 -0.4605 -0.4324
  136OSM   H15F14761   3.162   0.194   4.500  0.1546 -0.3798  0.4757
  136OSM   H15G14762   3.189   0.031   4.452  0.9561 -0.2167  0.3618
  136OSM   C16F14763   3.145   0.067   4.669 -0.8821 -0.1153 -0.8747
  136OSM   H16F14764   3.096  -0.027   4.703  0.4418 -0.6316 -0.3184
  136OSM   H16G14765   3.100   0.143   4.736 -0.4160 -1.8148  1.5225
  136OSM   C17F14766   3.290   0.038   4.722 -0.2275 -0.0716  0.2067
  136OSM   H17F14767   3.344  -0.014   4.640 -2.2225 -1.5626 -0.2326
  136OSM   H17G14768   3.291  -0.034   4.807  0.2895 -1.0744 -0.6279
  136OSM   C18F14769   3.358   0.167   4.760  0.2269 -0.3971 -0.0595
  136OSM   H18F14770   3.468   0.156   4.773  0.4089 -0.4944 -1.4836
  136OSM   H18G14771   3.314   0.210   4.853  3.5570  1.7930  0.7126
  136OSM   H18H14772   3.348   0.242   4.678  0.0397 -0.3063  0.0464
  137OSM      N14773   5.987   4.998   2.495  0.5852 -0.8206 -0.6055
  137OSM    C1514774   5.899   5.097   2.563 -0.9120 -0.2916  0.3423
  137OSM   H15A14775   5.847   5.150   2.485  0.8940  0.7101 -0.2553
  137OSM   H15B14776   5.959   5.164   2.622  0.2978 -0.1697 -0.9556
  137OSM   H15C14777   5.825   5.043   2.620  0.2427 -1.3940  0.8509
  137OSM    C1414778   5.896   4.897   2.428 -0.1139  0.0781 -0.0019
  137OSM   H14A14779   5.821   4.872   2.502 -0.1002 -0.3373 -0.1226
  137OSM   H14B14780   5.952   4.817   2.382 -0.7818  0.3295 -1.3059
  137OSM   H14C14781   5.840   4.943   2.348  0.7810  1.9608  0.4104
  137OSM    C1314782   6.076   5.068   2.393  0.5703 -0.2470 -0.6397
  137OSM   H13A14783   6.118   4.986   2.336 -0.8280 -1.3423 -0.1626
  137OSM   H13B14784   6.142   5.137   2.443  0.2242 -0.3027 -0.0977
  137OSM   H13C14785   6.025   5.123   2.316 -0.4054 -0.2186  0.0114
  137OSM    C1214786   6.075   4.925   2.593  0.4502 -0.3568  0.7939
  137OSM   H12A14787   6.150   4.995   2.628  3.1155 -2.6215 -0.0320
  137OSM   H12B14788   6.131   4.850   2.539  0.5630  0.7632 -0.7160
  137OSM    C1114789   6.019   4.857   2.720  0.1529  0.0220 -0.3985
  137OSM   H11A14790   6.009   4.943   2.789 -3.4552 -0.3437 -0.2790
  137OSM   H11B14791   6.103   4.793   2.754 -2.3543 -1.9344  2.6232
  137OSM      P14792   5.899   4.627   2.681 -0.1790  0.4040  0.0349
  137OSM    O1314793   5.768   4.574   2.639 -0.8622 -0.2845 -0.0007
  137OSM    O1414794   6.011   4.593   2.590  0.0384  0.2559  0.0082
  137OSM    O1114795   5.929   4.575   2.823 -0.5003  0.2676 -0.1590
  137OSM    O1214796   5.904   4.783   2.706 -0.8495 -0.4141 -0.0320
  137OSM    C1S14797   5.878   4.446   2.854 -0.5211 -0.0156  0.5635
  137OSM    H1S14798   5.924   4.364   2.795 -1.4438 -0.5759  0.5837
  137OSM    H1T14799   5.772   4.443   2.820  0.0620  1.6545 -1.5720
  137OSM     NF14800   5.828   4.280   3.025  0.0254  0.4014 -0.3883
  137OSM    HNF14801   5.731   4.258   3.039 -0.1351  1.6978  0.7749
  137OSM    C2S14802   5.875   4.417   3.009 -0.2169  0.1384  0.5964
  137OSM    H2S14803   5.980   4.418   3.045  0.0326 -0.2276 -0.0988
  137OSM    C3S14804   5.787   4.525   3.078 -0.0481  0.1363  0.4809
  137OSM    H3S14805   5.687   4.530   3.030 -1.3013 -1.3793  2.7457
  137OSM     O314806   5.820   4.656   3.049  0.1793 -1.0150 -0.9098
  137OSM    HO314807   5.874   4.658   2.970 -0.9504 -2.4887 -1.7657
  137OSM    C4S14808   5.754   4.502   3.226 -0.5453  0.2241 -0.2689
  137OSM    H4S14809   5.658   4.450   3.242 -0.6317  0.9000  1.6967
  137OSM    C5S14810   5.820   4.545   3.331  0.2959  0.3204  0.1371
  137OSM    H5S14811   5.914   4.599   3.309  0.7163 -0.4074  0.1254
  137OSM    C6S14812   5.759   4.545   3.476  0.5777 -0.2745  0.6784
  137OSM    H6S14813   5.652   4.520   3.469  0.7511 -1.3373  1.5097
  137OSM    H6T14814   5.761   4.647   3.521  1.1802  0.7207 -1.4562
  137OSM    C7S14815   5.815   4.453   3.589  0.0529 -0.0974  0.5962
  137OSM    H7S14816   5.926   4.466   3.595  0.3715 -1.8919 -0.5743
  137OSM    H7T14817   5.803   4.347   3.558  1.8759 -0.5800  1.4100
  137OSM    C8S14818   5.746   4.480   3.727  0.4634  0.1905 -0.5787
  137OSM    H8S14819   5.637   4.471   3.712  0.3888  1.1576 -0.6896
  137OSM    H8T14820   5.786   4.581   3.753 -1.0434  0.5544  0.4625
  137OSM    C9S14821   5.807   4.387   3.835  0.3041 -0.2208 -0.1216
  137OSM    H9S14822   5.913   4.402   3.863 -0.3079  0.4471  1.9555
  137OSM    H9T14823   5.789   4.286   3.790 -2.0782  0.7379 -1.4898
  137OSM   C10S14824   5.729   4.415   3.971  0.0541 -0.0750 -0.0316
  137OSM   H10S14825   5.627   4.376   3.951  0.6435 -0.7960 -1.8349
  137OSM   H10T14826   5.729   4.522   4.003 -0.4637 -0.4901  1.4337
  137OSM   C11S14827   5.778   4.337   4.096 -0.0438 -0.0470 -0.8003
  137OSM   H11S14828   5.802   4.235   4.060 -0.8304 -0.3588 -0.4650
  137OSM   H11T14829   5.698   4.322   4.171 -2.2100  2.0118 -2.5297
  137OSM   C12S14830   5.905   4.384   4.166  0.0705  0.2614  0.3654
  137OSM   H12S14831   5.920   4.493   4.153 -0.4258  0.2733 -0.1180
  137OSM   H12T14832   5.988   4.353   4.099 -1.2697  0.2958 -1.3562
  137OSM   C13S14833   5.925   4.321   4.308 -0.0865  0.5392  0.3199
  137OSM   H13S14834   5.878   4.221   4.301 -0.5433  0.4140  3.7563
  137OSM   H13T14835   5.862   4.372   4.384  0.2013  0.0735  0.8776
  137OSM   C14S14836   6.079   4.319   4.341  0.0046 -0.1416  0.1985
  137OSM   H14S14837   6.109   4.424   4.325 -1.5534  0.1887 -0.7054
  137OSM   H14T14838   6.131   4.254   4.267  0.1403  0.7988 -0.5383
  137OSM   C15S14839   6.119   4.265   4.482 -0.3402 -0.4355  0.0440
  137OSM   H15S14840   6.226   4.235   4.476  0.0925  1.1442 -0.8394
  137OSM   H15T14841   6.057   4.175   4.497  0.9058 -1.2241  0.6439
  137OSM   C16S14842   6.094   4.364   4.590 -0.4358  0.1383 -0.1206
  137OSM   H16S14843   5.988   4.397   4.597 -0.5352 -0.3359  0.7329
  137OSM   H16T14844   6.156   4.457   4.587 -0.4946  0.3027  1.9395
  137OSM   C17S14845   6.136   4.302   4.726 -0.3804  0.2890 -0.8325
  137OSM   H17S14846   6.241   4.267   4.717 -0.3808  0.3336 -1.0243
  137OSM   H17T14847   6.081   4.208   4.748  0.1661 -0.2912 -1.8622
  137OSM   C18S14848   6.128   4.380   4.854  0.2137  0.0289 -0.7230
  137OSM   H18S14849   6.183   4.329   4.936 -0.7786  0.9912  0.5819
  137OSM   H18T14850   6.024   4.397   4.889  0.5295 -2.7362  2.0754
  137OSM   H18U14851   6.182   4.477   4.854  0.4403 -0.0965 -0.6035
  137OSM    C1F14852   5.906   4.168   3.001  0.4564 -0.0338 -0.2536
  137OSM     OF14853   6.018   4.171   2.947 -0.1510  0.3465 -0.7470
  137OSM    C2F14854   5.833   4.041   3.023  0.0783  0.5611  0.6151
  137OSM    H2F14855   5.832   3.977   2.933 -0.4048  0.4243  0.7195
  137OSM    H2G14856   5.729   4.076   3.039  0.5048  2.7396 -0.9386
  137OSM    C3F14857   5.893   3.974   3.148 -0.0102 -0.3309  0.3903
  137OSM    H3F14858   5.996   4.000   3.178  0.0256 -1.1876  1.0458
  137OSM    H3G14859   5.898   3.865   3.126  1.9706 -0.2116  0.1477
  137OSM    C4F14860   5.811   4.018   3.276 -0.0412  0.1239 -0.2290
  137OSM    H4F14861   5.709   3.985   3.247 -0.3153  1.0277 -0.3345
  137OSM    H4G14862   5.800   4.129   3.279 -3.7239 -0.1015  2.5839
  137OSM    C5F14863   5.852   3.943   3.405 -0.0660  0.1161  0.8896
  137OSM    H5F14864   5.956   3.974   3.428  0.1700  2.5194 -2.6454
  137OSM    H5G14865   5.853   3.832   3.393 -1.9087  0.3598 -2.8938
  137OSM    C6F14866   5.766   3.992   3.523  0.4628  0.7344 -0.3776
  137OSM    H6F14867   5.670   3.938   3.508  1.8032 -2.1190  0.6375
  137OSM    H6G14868   5.746   4.101   3.526 -2.9121  0.3054 -2.4363
  137OSM    C7F14869   5.820   3.929   3.656 -0.0719 -0.3551  0.0344
  137OSM    H7F14870   5.925   3.963   3.669 -0.2565  0.3637 -0.2988
  137OSM    H7G14871   5.822   3.820   3.635 -2.7671 -0.3594 -0.5947
  137OSM    C8F14872   5.755   3.981   3.788 -0.1604  0.2266  0.0815
  137OSM    H8F14873   5.739   4.090   3.781 -0.5323  0.3113  1.8632
  137OSM    H8G14874   5.829   3.971   3.870  0.5409  3.0066 -0.1415
  137OSM    C9F14875   5.626   3.908   3.810  0.5658  0.5115 -0.0134
  137OSM    H9F14876   5.566   3.884   3.721  1.1177  1.6696 -0.7176
  137OSM   C10F14877   5.559   3.914   3.933 -0.7176  0.0913 -0.2781
  137OSM   H10F14878   5.462   3.866   3.951 -1.7059  1.1646 -2.4332
  137OSM   C11F14879   5.607   3.966   4.065 -0.3094 -0.3385 -0.3007
  137OSM   H11F14880   5.564   4.067   4.077 -1.0902 -0.8643  1.9550
  137OSM   H11G14881   5.718   3.972   4.066 -0.3889  1.3770  0.0535
  137OSM   C12F14882   5.572   3.884   4.191 -0.4796 -0.2259 -0.1227
  137OSM   H12F14883   5.609   3.780   4.176  0.9194  0.3842 -1.1374
  137OSM   H12G14884   5.463   3.875   4.207 -0.7376  0.8603 -1.1264
  137OSM   C13F14885   5.631   3.944   4.320 -0.1100 -0.0154  0.1894
  137OSM   H13F14886   5.594   4.047   4.342  0.6108  0.2692  0.1091
  137OSM   H13G14887   5.741   3.949   4.305 -0.0841 -0.3695  0.2693
  137OSM   C14F14888   5.609   3.855   4.444  0.0785 -0.5970 -0.4364
  137OSM   H14F14889   5.624   3.746   4.426  1.5851 -0.4725 -0.0909
  137OSM   H14G14890   5.504   3.859   4.480  0.5254  0.1845  0.8617
  137OSM   C15F14891   5.697   3.898   4.567  0.6269  1.6185  0.3839
  137OSM   H15F14892   5.682   4.007   4.584 -0.6321  1.6362 -0.7755
  137OSM   H15G14893   5.802   3.884   4.534  0.5642  0.6190  0.5684
  137OSM   C16F14894   5.665   3.817   4.693 -0.2644  0.1731 -0.5873
  137OSM   H16F14895   5.557   3.815   4.719  0.0779 -1.3804  0.9093
  137OSM   H16G14896   5.728   3.858   4.774  0.9584  0.6565 -1.7427
  137OSM   C17F14897   5.695   3.668   4.689 -0.6142 -0.3935  0.2459
  137OSM   H17F14898   5.801   3.640   4.676 -1.0104 -1.7792 -0.1428
  137OSM   H17G14899   5.636   3.615   4.611  0.6154 -0.7207 -0.4861
  137OSM   C18F14900   5.656   3.614   4.828  1.2808 -0.0870 -0.1766
  137OSM   H18F14901   5.596   3.694   4.876  1.3680  1.4020 -2.4083
  137OSM   H18G14902   5.750   3.595   4.885  1.9708  0.5162 -1.0890
  137OSM   H18H14903   5.597   3.521   4.815 -1.2630  1.3895  0.1576
  138OSM      N14904   6.368   0.627   2.860 -0.0220  0.2873  0.1022
  138OSM    C1514905   6.461   0.622   2.972 -0.3899 -0.0081 -0.8353
  138OSM   H15A14906   6.422   0.557   3.049  1.3302 -1.7758 -1.3476
  138OSM   H15B14907   6.477   0.716   3.022  2.0162 -0.4990 -0.5267
  138OSM   H15C14908   6.548   0.575   2.928 -2.1941 -2.9894 -1.4923
  138OSM    C1414909   6.421   0.711   2.756  0.6043  0.3510  0.0043
  138OSM   H14A14910   6.418   0.813   2.790 -0.0926  0.6188 -0.8059
  138OSM   H14B14911   6.361   0.702   2.667 -1.8321  3.1859  1.1701
  138OSM   H14C14912   6.523   0.691   2.729  0.3112 -0.4503 -0.5697
  138OSM    C1314913   6.362   0.488   2.801 -0.4146 -0.1710  0.7111
  138OSM   H13A14914   6.303   0.493   2.710 -1.9699 -1.8515  1.5646
  138OSM   H13B14915   6.315   0.413   2.863  0.2824 -0.6368  0.6838
  138OSM   H13C14916   6.460   0.451   2.777 -0.0223  1.5942 -0.6125
  138OSM    C1214917   6.239   0.675   2.914 -0.1758  1.3297 -0.5702
  138OSM   H12A14918   6.245   0.777   2.948  0.2812  1.6463 -1.5546
  138OSM   H12B14919   6.213   0.618   3.002  2.2772  1.0658  0.0373
  138OSM    C1114920   6.116   0.649   2.819  0.3178 -0.5130  0.1491
  138OSM   H11A14921   6.089   0.542   2.820 -4.7297  0.4951 -0.5655
  138OSM   H11B14922   6.149   0.672   2.716  1.5727  1.0919  0.8659
  138OSM      P14923   5.861   0.690   2.878  0.4954  0.1786  0.0879
  138OSM    O1314924   5.794   0.790   2.799 -0.1802  0.4030  0.5955
  138OSM    O1414925   5.854   0.547   2.835 -0.1876 -0.1811 -0.4041
  138OSM    O1114926   5.823   0.707   3.033  0.3007  0.1381  0.8545
  138OSM    O1214927   6.014   0.727   2.877  0.3326  0.4417  0.7617
  138OSM    C1S14928   5.904   0.662   3.137  0.2714  0.3264  0.3761
  138OSM    H1S14929   5.989   0.600   3.102  0.7843  2.3387 -2.2261
  138OSM    H1T14930   5.844   0.607   3.213  1.1128 -2.8506 -1.0957
  138OSM     NF14931   6.051   0.719   3.323 -0.2599  0.1080  0.3292
  138OSM    HNF14932   6.019   0.758   3.409  0.1971 -0.2325  0.6653
  138OSM    C2S14933   5.984   0.777   3.208  0.4120  0.0802 -0.6269
  138OSM    H2S14934   6.062   0.824   3.145  0.6634  2.2765  1.1809
  138OSM    C3S14935   5.880   0.897   3.232  0.0805  0.8640 -0.1874
  138OSM    H3S14936   5.790   0.848   3.274  0.7232 -1.6016 -1.4704
  138OSM     O314937   5.819   0.958   3.121 -0.2861  0.3695 -0.2261
  138OSM    HO314938   5.828   0.896   3.049  0.7921  0.6079 -0.3126
  138OSM    C4S14939   5.928   0.998   3.332  0.3457  0.0620 -0.2786
  138OSM    H4S14940   5.886   0.971   3.430 -0.4275 -2.0967 -1.1437
  138OSM    C5S14941   5.995   1.109   3.305 -0.1558  0.3902 -0.1978
  138OSM    H5S14942   6.023   1.132   3.201  0.6623 -3.1043 -0.8781
  138OSM    C6S14943   6.036   1.213   3.407 -0.1917  0.1584  0.3360
  138OSM    H6S14944   5.996   1.313   3.377  1.1972  0.3541 -1.0079
  138OSM    H6T14945   6.147   1.219   3.406 -0.1805 -0.1165 -0.2839
  138OSM    C7S14946   6.005   1.172   3.551  0.0313  0.2274 -0.1379
  138OSM    H7S14947   6.029   1.064   3.560 -0.2452  0.0841 -1.0529
  138OSM    H7T14948   5.898   1.181   3.580 -0.2486 -0.1619 -1.0232
  138OSM    C8S14949   6.080   1.259   3.649  0.3054  0.3893  0.0998
  138OSM    H8S14950   6.080   1.369   3.631 -0.0190 -0.1877 -4.9345
  138OSM    H8T14951   6.190   1.241   3.645 -0.1117 -2.5084 -0.3191
  138OSM    C9S14952   6.044   1.220   3.791  0.8816 -0.2372  0.5268
  138OSM    H9S14953   6.054   1.112   3.813 -1.1995 -0.6808 -0.4752
  138OSM    H9T14954   5.937   1.241   3.808  0.8279 -1.3511  1.6618
  138OSM   C10S14955   6.135   1.288   3.900  0.4492  0.3454 -0.6143
  138OSM   H10S14956   6.133   1.399   3.898  0.9046  0.3493 -1.0819
  138OSM   H10T14957   6.240   1.258   3.881 -0.1637 -1.7752 -0.9558
  138OSM   C11S14958   6.085   1.242   4.038  0.0435  0.0637 -1.4808
  138OSM   H11S14959   6.105   1.137   4.067 -3.2166 -0.3086 -0.1913
  138OSM   H11T14960   5.974   1.243   4.035 -0.0581 -3.1206 -2.2103
  138OSM   C12S14961   6.142   1.335   4.144  0.2165 -0.1463 -0.0632
  138OSM   H12S14962   6.120   1.443   4.129  0.5985 -0.1111 -0.3885
  138OSM   H12T14963   6.252   1.320   4.143  0.0512 -1.8572  1.2953
  138OSM   C13S14964   6.103   1.301   4.291  0.0806  0.5486  0.1604
  138OSM   H13S14965   6.099   1.190   4.291  2.6322  0.3471 -2.5231
  138OSM   H13T14966   5.999   1.329   4.318  0.8778  2.6260  1.3995
  138OSM   C14S14967   6.194   1.364   4.399 -0.7727  0.0209  0.1061
  138OSM   H14S14968   6.197   1.475   4.395  2.5281  0.0424  0.2896
  138OSM   H14T14969   6.298   1.333   4.375 -0.1257  2.4153 -0.4660
  138OSM   C15S14970   6.169   1.306   4.537 -0.9601 -0.4468 -0.9679
  138OSM   H15S14971   6.144   1.198   4.531  0.3184 -0.7877 -0.5184
  138OSM   H15T14972   6.080   1.355   4.581  0.1682  1.0775 -0.2950
  138OSM   C16S14973   6.276   1.336   4.641 -0.9850  0.1093  0.2907
  138OSM   H16S14974   6.334   1.425   4.609  0.2828 -0.1822  1.6611
  138OSM   H16T14975   6.332   1.240   4.644 -2.2968 -0.8533 -2.3001
  138OSM   C17S14976   6.226   1.349   4.783 -0.8082  0.4284 -0.5603
  138OSM   H17S14977   6.151   1.430   4.796 -1.3876 -0.5026  2.7488
  138OSM   H17T14978   6.312   1.366   4.852 -0.2492 -0.6249 -0.9684
  138OSM   C18S14979   6.161   1.215   4.836 -0.7546 -1.4679 -0.0436
  138OSM   H18S14980   6.066   1.192   4.783 -0.6497 -1.0881 -0.4027
  138OSM   H18T14981   6.128   1.235   4.940 -1.4963 -0.4301 -0.4596
  138OSM   H18U14982   6.234   1.133   4.820 -1.0308 -1.4859 -1.3584
  138OSM    C1F14983   6.138   0.615   3.317 -0.2034 -0.3711  0.0261
  138OSM     OF14984   6.187   0.580   3.209 -0.1712 -0.4490  0.0579
  138OSM    C2F14985   6.169   0.547   3.439 -0.2403  0.2194 -0.1805
  138OSM    H2F14986   6.186   0.623   3.519  3.2140 -1.5817  1.0255
  138OSM    H2G14987   6.268   0.497   3.430  0.0663  0.9238 -0.7643
  138OSM    C3F14988   6.056   0.459   3.486 -0.1990  0.0141  0.1793
  138OSM    H3F14989   6.043   0.379   3.410  0.9732 -1.2323  1.2384
  138OSM    H3G14990   5.954   0.503   3.492 -0.5121 -0.7814  1.0326
  138OSM    C4F14991   6.102   0.386   3.618  0.8765  0.5354  0.1136
  138OSM    H4F14992   6.152   0.458   3.686 -1.7060  1.2146  1.4225
  138OSM    H4G14993   6.177   0.317   3.575  1.8450  2.0455 -0.7166
  138OSM    C5F14994   5.976   0.315   3.680 -0.2666  0.0260 -0.1616
  138OSM    H5F14995   5.928   0.231   3.626 -0.9547 -0.0032  0.4884
  138OSM    H5G14996   5.903   0.397   3.698  3.2432  3.0120  2.1256
  138OSM    C6F14997   6.021   0.270   3.825 -0.2742 -0.7039  0.0420
  138OSM    H6F14998   6.104   0.335   3.862 -0.7333 -0.1919  0.1830
  138OSM    H6G14999   6.067   0.170   3.808  0.3207 -0.5767  0.8426
  138OSM    C7F15000   5.897   0.280   3.915  0.4826 -0.2771  0.0170
  138OSM    H7F15001   5.815   0.230   3.858 -0.1934  0.5983  0.1998
  138OSM    H7G15002   5.869   0.387   3.925  1.0744 -0.0531 -0.5814
  138OSM    C8F15003   5.927   0.222   4.055 -0.2103  0.1683  0.6978
  138OSM    H8F15004   5.838   0.257   4.111  0.4943  0.8305  1.4391
  138OSM    H8G15005   6.024   0.262   4.092  0.4646 -1.9227  1.3508
  138OSM    C9F15006   5.934   0.074   4.059  0.2359  0.0722 -0.4914
  138OSM    H9F15007   5.917   0.017   3.966  1.4982 -0.6171 -0.3265
  138OSM   C10F15008   5.950   0.007   4.177 -0.1513 -0.3384  0.6807
  138OSM   H10F15009   5.962  -0.103   4.174  0.0185 -0.3289  0.9498
  138OSM   C11F15010   5.958   0.067   4.313  0.5175 -0.1988 -0.1696
  138OSM   H11F15011   5.951   0.178   4.320 -0.2669 -0.3487  3.9597
  138OSM   H11G15012   6.043   0.039   4.379 -1.7519  0.1282  3.1842
  138OSM   C12F15013   5.842   0.016   4.407  0.2320 -0.0875  0.1438
  138OSM   H12F15014   5.870   0.054   4.508  1.5885  2.1364 -1.0063
  138OSM   H12G15015   5.852  -0.095   4.399  1.5071  0.1421 -2.3254
  138OSM   C13F15016   5.706   0.066   4.367  0.6084 -0.5942  0.2047
  138OSM   H13F15017   5.670   0.044   4.264 -1.3296 -0.6352  0.8463
  138OSM   H13G15018   5.725   0.174   4.381  3.6227 -1.1054  0.6644
  138OSM   C14F15019   5.592   0.010   4.456  0.7768 -0.0491  0.8284
  138OSM   H14F15020   5.586  -0.097   4.425  1.0624 -0.3723  1.8289
  138OSM   H14G15021   5.499   0.065   4.432  0.0011 -0.8540  1.9028
  138OSM   C15F15022   5.612   0.002   4.599 -0.1846  0.3947 -0.8161
  138OSM   H15F15023   5.664   0.093   4.637  1.3169 -0.6162 -0.3706
  138OSM   H15G15024   5.675  -0.086   4.624 -2.1602 -1.3567 -1.7693
  138OSM   C16F15025   5.483  -0.000   4.685 -0.7481 -0.1643  0.6285
  138OSM   H16F15026   5.406  -0.059   4.631  0.0819  1.0095 -1.9843
  138OSM   H16G15027   5.441   0.102   4.695  2.2977  1.2080  0.4700
  138OSM   C17F15028   5.499  -0.055   4.830  0.5886  0.0500  0.7804
  138OSM   H17F15029   5.424  -0.008   4.897 -0.8358  0.7649 -1.2077
  138OSM   H17G15030   5.598  -0.013   4.858 -0.6645  2.1472  2.3405
  138OSM   C18F15031   5.495  -0.211   4.835  0.2658 -1.0826 -0.1600
  138OSM   H18F15032   5.575  -0.254   4.772 -0.4104 -1.0037 -1.0899
  138OSM   H18G15033   5.393  -0.250   4.814 -0.2906 -0.5247  1.3433
  138OSM   H18H15034   5.505  -0.251   4.938  0.0253  0.1339  0.3525
  139OSM      N15035   6.683   3.767   2.756  0.0026  0.0673 -0.0688
  139OSM    C1515036   6.713   3.852   2.638 -0.7412 -0.4182 -0.3029
  139OSM   H15A15037   6.691   3.956   2.660  1.3494  0.4693 -1.9600
  139OSM   H15B15038   6.674   3.814   2.544  0.0846  0.0151 -0.8333
  139OSM   H15C15039   6.820   3.845   2.625 -0.9950 -1.4207 -2.1627
  139OSM    C1415040   6.555   3.710   2.734 -0.0473 -0.5279 -0.4807
  139OSM   H14A15041   6.560   3.631   2.661 -0.6535 -0.6978 -0.3437
  139OSM   H14B15042   6.480   3.781   2.702  0.0164 -0.9060 -1.5044
  139OSM   H14C15043   6.520   3.655   2.820  1.6002 -0.9627 -0.0667
  139OSM    C1315044   6.772   3.649   2.762 -0.1906  0.2517  0.0353
  139OSM   H13A15045   6.879   3.667   2.758 -0.0808 -0.5004 -1.0904
  139OSM   H13B15046   6.741   3.581   2.683  0.2753  0.5047 -0.3737
  139OSM   H13C15047   6.760   3.591   2.852  2.6735 -1.4961 -0.5593
  139OSM    C1215048   6.701   3.842   2.892  0.4264 -0.1717 -1.0982
  139OSM   H12A15049   6.797   3.889   2.907 -0.3796  0.9283  1.0747
  139OSM   H12B15050   6.697   3.762   2.965  1.7556 -0.8009 -1.6906
  139OSM    C1115051   6.601   3.942   2.934  0.0733 -0.0771  0.0452
  139OSM   H11A15052   6.632   3.959   3.039  0.5169  4.7118 -0.6240
  139OSM   H11B15053   6.493   3.916   2.930 -0.1866  1.0022 -3.9188
  139OSM      P15054   6.698   4.182   2.883 -0.4850  0.3370  0.3100
  139OSM    O1315055   6.839   4.144   2.876  0.0645 -0.6042 -0.8231
  139OSM    O1415056   6.654   4.294   2.795  0.5641 -0.1386  0.2118
  139OSM    O1115057   6.674   4.215   3.037 -0.0255 -0.1507  0.2215
  139OSM    O1215058   6.608   4.055   2.846 -0.4310 -0.4405 -0.5011
  139OSM    C1S15059   6.552   4.267   3.091 -0.4164 -0.1348  0.4547
  139OSM    H1S15060   6.467   4.198   3.076 -3.5828  3.8174 -2.0080
  139OSM    H1T15061   6.529   4.366   3.045  0.7851  2.6106  5.0680
  139OSM     NF15062   6.427   4.333   3.288  0.0610  0.3187 -0.3374
  139OSM    HNF15063   6.414   4.426   3.323 -1.2847  0.5338 -1.3015
  139OSM    C2S15064   6.557   4.297   3.243  0.2551  0.6860 -0.3275
  139OSM    H2S15065   6.568   4.196   3.290 -1.2500  0.7303  0.1784
  139OSM    C3S15066   6.672   4.388   3.290 -0.0204 -0.3103  0.1572
  139OSM    H3S15067   6.651   4.485   3.239  0.5462  0.2877  1.0215
  139OSM     O315068   6.801   4.353   3.253 -0.4658  0.2181 -0.3748
  139OSM    HO315069   6.780   4.287   3.186 -0.7477 -0.5039  0.4119
  139OSM    C4S15070   6.654   4.404   3.439  0.3505  0.0411 -0.2765
  139OSM    H4S15071   6.612   4.501   3.471 -0.6883 -0.3179 -0.5184
  139OSM    C5S15072   6.698   4.323   3.538  0.1603 -0.2501 -0.1371
  139OSM    H5S15073   6.747   4.226   3.520  0.8871  0.3626 -1.7124
  139OSM    C6S15074   6.666   4.353   3.687 -0.1240  0.7522  1.0931
  139OSM    H6S15075   6.615   4.267   3.734  1.7218 -1.9393 -1.4489
  139OSM    H6T15076   6.606   4.446   3.695  1.2545  1.7534  0.3152
  139OSM    C7S15077   6.802   4.389   3.756 -0.6577  0.4005  0.6274
  139OSM    H7S15078   6.849   4.467   3.693 -1.2093 -2.3805 -3.6718
  139OSM    H7T15079   6.878   4.307   3.749  0.5075  1.3269  1.9214
  139OSM    C8S15080   6.797   4.437   3.895  0.1652  0.2681 -0.2308
  139OSM    H8S15081   6.747   4.360   3.958 -1.0128  0.0777 -1.3537
  139OSM    H8T15082   6.732   4.527   3.903  1.4409  1.0755  1.7535
  139OSM    C9S15083   6.926   4.461   3.957 -0.4774 -0.8849 -0.2228
  139OSM    H9S15084   6.983   4.524   3.887 -1.7412 -2.6877 -3.0319
  139OSM    H9T15085   6.981   4.364   3.958 -1.3653 -1.4027  0.1918
  139OSM   C10S15086   6.917   4.519   4.102 -0.7461  0.0264 -0.0907
  139OSM   H10S15087   6.836   4.593   4.119 -0.6150  0.2390 -0.3730
  139OSM   H10T15088   7.017   4.565   4.121 -0.4121 -0.1323 -1.3804
  139OSM   C11S15089   6.907   4.406   4.203 -0.3342 -0.6641 -0.3093
  139OSM   H11S15090   6.990   4.338   4.174  1.7984  1.4908  0.4440
  139OSM   H11T15091   6.815   4.343   4.199 -0.2027 -0.8012 -1.9760
  139OSM   C12S15092   6.923   4.461   4.349  0.4123  0.2035 -0.3195
  139OSM   H12S15093   6.829   4.514   4.373 -1.7160 -2.1876 -2.6270
  139OSM   H12T15094   7.016   4.521   4.353  0.8181 -0.4413  0.2448
  139OSM   C13S15095   6.938   4.345   4.457  0.2141 -0.2732  0.4143
  139OSM   H13S15096   6.996   4.258   4.419  0.1884 -0.3334  0.5141
  139OSM   H13T15097   6.832   4.312   4.470 -0.1893  0.3448 -1.0911
  139OSM   C14S15098   6.991   4.390   4.590  0.0239 -0.2141  0.3696
  139OSM   H14S15099   6.941   4.487   4.610  0.3804 -0.0271  0.3720
  139OSM   H14T15100   7.100   4.407   4.574  0.2755 -1.3251  0.7776
  139OSM   C15S15101   6.964   4.292   4.697 -0.1353  0.5077 -0.0226
  139OSM   H15S15102   7.028   4.201   4.693 -0.0907  0.5781 -1.8035
  139OSM   H15T15103   6.860   4.253   4.689 -0.2575  0.9266 -0.5922
  139OSM   C16S15104   6.985   4.355   4.835 -1.0629  0.3658  0.1620
  139OSM   H16S15105   6.930   4.451   4.838 -1.4256  0.1519  0.5161
  139OSM   H16T15106   7.090   4.374   4.866 -0.8138  1.4955 -1.3021
  139OSM   C17S15107   6.917   4.268   4.943 -0.6914  0.2412  0.0265
  139OSM   H17S15108   6.983   4.180   4.954 -0.0019  0.3921 -2.3511
  139OSM   H17T15109   6.814   4.242   4.911 -0.7712 -1.3632  1.4875
  139OSM   C18S15110   6.904   4.352   5.067 -0.1399 -0.7269  0.2222
  139OSM   H18S15111   6.814   4.416   5.051  0.7718 -0.0906 -3.2373
  139OSM   H18T15112   6.995   4.415   5.081  0.2410 -1.5246  1.4532
  139OSM   H18U15113   6.872   4.300   5.159 -0.1969 -1.5059 -0.2342
  139OSM    C1F15114   6.324   4.244   3.291 -0.1186 -0.2462  0.0342
  139OSM     OF15115   6.339   4.125   3.274 -0.1276  0.5013  0.5549
  139OSM    C2F15116   6.186   4.300   3.310 -0.0834 -0.1035 -0.2058
  139OSM    H2F15117   6.137   4.275   3.213  1.5350 -1.8006 -0.6444
  139OSM    H2G15118   6.201   4.410   3.306  2.6820 -0.4577 -1.6243
  139OSM    C3F15119   6.113   4.236   3.433  0.1232  0.3032  0.5440
  139OSM    H3F15120   6.109   4.129   3.403 -0.4719  0.2585  0.7871
  139OSM    H3G15121   6.008   4.271   3.439 -0.2503 -0.4184 -1.0441
  139OSM    C4F15122   6.189   4.257   3.559 -0.2209  0.0886  0.4685
  139OSM    H4F15123   6.203   4.361   3.598  1.1952 -0.4698  1.5139
  139OSM    H4G15124   6.292   4.217   3.554 -0.5700 -1.2270  2.5751
  139OSM    C5F15125   6.104   4.190   3.668  0.2002  0.7277  0.1455
  139OSM    H5F15126   6.102   4.081   3.650  3.1584  0.3376  1.6235
  139OSM    H5G15127   5.995   4.215   3.670 -0.2949 -1.3283  0.8502
  139OSM    C6F15128   6.149   4.205   3.816 -0.3955  0.4880  0.5468
  139OSM    H6F15129   6.077   4.148   3.877 -1.5855 -0.0956 -1.3184
  139OSM    H6G15130   6.145   4.314   3.835 -0.4607  1.1383 -2.5959
  139OSM    C7F15131   6.295   4.155   3.835  0.3831 -0.5983 -0.7190
  139OSM    H7F15132   6.365   4.195   3.758  1.4668  0.7362  0.8573
  139OSM    H7G15133   6.288   4.045   3.823 -1.0209 -0.9280  2.1874
  139OSM    C8F15134   6.343   4.189   3.978 -0.2391  0.6316  0.2104
  139OSM    H8F15135   6.274   4.138   4.048  0.5882 -0.5359  0.1879
  139OSM    H8G15136   6.331   4.297   4.000 -1.1036  1.0232 -1.8812
  139OSM    C9F15137   6.484   4.151   4.001 -0.3514  0.4663  0.7395
  139OSM    H9F15138   6.532   4.094   3.920  0.4552 -0.2294  1.6880
  139OSM   C10F15139   6.558   4.171   4.110 -0.5040 -0.0821  0.4789
  139OSM   H10F15140   6.667   4.157   4.105 -0.5670 -1.2779  1.9380
  139OSM   C11F15141   6.507   4.228   4.234  0.1841  0.2899  0.3849
  139OSM   H11F15142   6.401   4.201   4.249  0.2233 -1.1793 -1.5376
  139OSM   H11G15143   6.519   4.339   4.237  0.0002  0.4277 -1.9607
  139OSM   C12F15144   6.577   4.144   4.333 -0.7453 -0.8178  0.4791
  139OSM   H12F15145   6.681   4.182   4.345 -2.0730  2.5867  2.9053
  139OSM   H12G15146   6.567   4.035   4.313 -1.7433 -0.3515 -1.8461
  139OSM   C13F15147   6.519   4.160   4.477  0.5203 -0.2150 -0.0126
  139OSM   H13F15148   6.411   4.133   4.472 -0.3637  2.7988  0.6535
  139OSM   H13G15149   6.526   4.269   4.502  2.5241 -0.2818 -0.1622
  139OSM   C14F15150   6.599   4.085   4.585 -0.5785 -0.1533  0.2363
  139OSM   H14F15151   6.699   4.132   4.600  0.0911 -0.7184 -2.0305
  139OSM   H14G15152   6.615   3.982   4.546 -1.1625  0.5563 -1.9993
  139OSM   C15F15153   6.521   4.099   4.717  0.4577 -0.0351 -0.2779
  139OSM   H15F15154   6.421   4.052   4.716 -0.4850  1.7027  2.5283
  139OSM   H15G15155   6.515   4.208   4.733  2.9824 -0.1016  1.9676
  139OSM   C16F15156   6.585   4.024   4.833 -0.4159 -0.4591 -0.5725
  139OSM   H16F15157   6.675   4.088   4.844 -1.5469  1.4190 -1.6434
  139OSM   H16G15158   6.629   3.927   4.802  0.8796  0.2589 -1.0484
  139OSM   C17F15159   6.499   4.024   4.956  0.3296  0.0200 -0.1182
  139OSM   H17F15160   6.421   3.949   4.931 -0.0288 -0.0926  1.2654
  139OSM   H17G15161   6.442   4.119   4.960 -0.5377 -0.4047 -1.6477
  139OSM   C18F15162   6.589   3.994   5.073  0.1981  0.4440 -0.5300
  139OSM   H18F15163   6.677   4.061   5.082  1.7205 -1.7558  3.6703
  139OSM   H18G15164   6.624   3.890   5.059 -0.4591 -0.0587  1.2845
  139OSM   H18H15165   6.527   3.997   5.165  0.2608 -1.4388 -0.3985
  140OSM      N15166   0.099   6.746   2.976  0.0288 -1.0102  0.2203
  140OSM    C1515167   0.103   6.607   2.918  1.1653  0.1009  0.2171
  140OSM   H15A15168   0.005   6.562   2.927  0.5462  1.1827 -0.8713
  140OSM   H15B15169   0.177   6.540   2.962  0.5314 -0.7609 -0.0031
  140OSM   H15C15170   0.121   6.611   2.811 -1.1512  2.0144 -0.1729
  140OSM    C1415171  -0.013   6.820   2.913 -0.1939 -0.0344 -0.0432
  140OSM   H14A15172  -0.110   6.806   2.959  1.3438  0.1473  3.5466
  140OSM   H14B15173  -0.024   6.805   2.806 -3.5075 -1.3477  0.3520
  140OSM   H14C15174  -0.003   6.925   2.935 -2.5887 -0.0102  1.2043
  140OSM    C1315175   0.084   6.747   3.127  0.2009 -0.0126 -0.0663
  140OSM   H13A15176   0.010   6.676   3.160  2.9440 -2.0425  2.1812
  140OSM   H13B15177   0.057   6.840   3.174  0.4617 -0.9515  2.0258
  140OSM   H13C15178   0.182   6.725   3.167 -0.0560 -1.7093 -0.2834
  140OSM    C1215179   0.230   6.816   2.950  0.0385 -0.1507  0.0998
  140OSM   H12A15180   0.253   6.832   2.846  1.6765  1.6591  0.6792
  140OSM   H12B15181   0.307   6.755   2.996 -0.8118 -0.9562  0.4943
  140OSM    C1115182   0.247   6.948   3.013 -0.9130  0.1918 -0.3414
  140OSM   H11A15183   0.355   6.970   3.019 -1.0893  1.0341 -0.0460
  140OSM   H11B15184   0.209   6.956   3.118 -0.6698  0.2744 -0.2585
  140OSM      P15185   0.168   7.196   2.970  0.7043  0.0516  0.1878
  140OSM    O1315186   0.302   7.248   2.984 -0.5844  0.1402 -0.1761
  140OSM    O1415187   0.069   7.264   2.882 -0.5273  0.0819  0.0865
  140OSM    O1115188   0.106   7.178   3.113 -0.3782  0.6601 -0.1594
  140OSM    O1215189   0.182   7.037   2.928 -0.0703  0.0675  0.6593
  140OSM    C1S15190  -0.018   7.113   3.136 -0.2685  0.3878  0.3741
  140OSM    H1S15191   0.001   7.009   3.168  0.4241  1.0185  2.1720
  140OSM    H1T15192  -0.092   7.108   3.053 -0.0705  0.7410  0.1700
  140OSM     NF15193  -0.185   7.094   3.326  0.3143  0.3752 -0.0614
  140OSM    HNF15194  -0.277   7.122   3.300 -1.1943 -2.8371  1.2957
  140OSM    C2S15195  -0.082   7.180   3.264  0.3244 -0.0562 -0.5537
  140OSM    H2S15196  -0.001   7.184   3.340 -0.2271 -1.1617  0.1136
  140OSM    C3S15197  -0.129   7.327   3.245 -0.6964  0.1879 -0.5289
  140OSM    H3S15198  -0.220   7.327   3.182 -1.2942 -0.7481  0.3049
  140OSM     O315199  -0.025   7.398   3.186  0.3565  0.2426 -0.2974
  140OSM    HO315200   0.033   7.331   3.148  0.5855 -0.3631  1.0631
  140OSM    C4S15201  -0.165   7.382   3.382 -0.4870 -0.0292  0.5428
  140OSM    H4S15202  -0.069   7.398   3.434  0.6460 -0.6368 -1.2666
  140OSM    C5S15203  -0.281   7.430   3.438 -0.7557  0.1208 -0.1708
  140OSM    H5S15204  -0.374   7.442   3.379  0.5485 -0.5225 -2.4785
  140OSM    C6S15205  -0.279   7.494   3.573  0.8868  0.0867  0.5525
  140OSM    H6S15206  -0.381   7.468   3.608 -0.4078  0.0853 -2.8574
  140OSM    H6T15207  -0.270   7.605   3.570 -1.5921  0.3832  1.6140
  140OSM    C7S15208  -0.166   7.451   3.665 -0.5364 -0.0308  0.0036
  140OSM    H7S15209  -0.065   7.471   3.622 -0.5061 -0.7685 -0.2935
  140OSM    H7T15210  -0.174   7.340   3.673 -1.2093  0.1354  2.4554
  140OSM    C8S15211  -0.164   7.509   3.807 -1.0339  0.3176  0.5560
  140OSM    H8S15212  -0.271   7.520   3.833 -1.0539  1.1985  0.1190
  140OSM    H8T15213  -0.125   7.613   3.802 -0.3324  0.0369  0.0721
  140OSM    C9S15214  -0.076   7.434   3.905  0.1333  0.1680  0.0951
  140OSM    H9S15215   0.030   7.442   3.873 -0.1185  0.0793 -0.7948
  140OSM    H9T15216  -0.109   7.328   3.901 -1.1101  0.4589  1.5509
  140OSM   C10S15217  -0.102   7.474   4.053 -0.9054  0.1516 -0.0752
  140OSM   H10S15218  -0.061   7.387   4.110  2.4659  0.0667 -2.2957
  140OSM   H10T15219  -0.212   7.473   4.065 -0.8343  0.1990  0.6595
  140OSM   C11S15220  -0.037   7.596   4.105 -0.1947  0.4370  0.4027
  140OSM   H11S15221  -0.065   7.679   4.037  0.4562 -0.8228 -1.4751
  140OSM   H11T15222   0.073   7.582   4.106 -0.3411 -1.1149 -1.1429
  140OSM   C12S15223  -0.068   7.614   4.257 -0.7243  0.2397  0.3802
  140OSM   H12S15224  -0.028   7.527   4.313  1.5353 -0.2392 -1.7933
  140OSM   H12T15225  -0.179   7.623   4.263 -0.9605 -1.1956 -1.0408
  140OSM   C13S15226   0.012   7.738   4.307 -0.0162  0.5055 -0.6698
  140OSM   H13S15227  -0.009   7.828   4.245  0.6366  1.3777  0.3430
  140OSM   H13T15228   0.119   7.708   4.298 -0.3248 -0.4992 -1.1813
  140OSM   C14S15229  -0.021   7.776   4.448 -0.3273 -0.1409  0.0287
  140OSM   H14S15230  -0.115   7.835   4.446  1.1181  2.4278  1.7552
  140OSM   H14T15231   0.051   7.842   4.501 -1.9349 -1.0818  3.7175
  140OSM   C15S15232  -0.054   7.659   4.541  0.1855  0.4817  0.3817
  140OSM   H15S15233   0.024   7.580   4.544  0.2554  0.5612  0.6500
  140OSM   H15T15234  -0.145   7.613   4.499  0.5991 -2.1728  2.1642
  140OSM   C16S15235  -0.093   7.711   4.679 -0.2236 -0.5122 -0.4812
  140OSM   H16S15236  -0.200   7.725   4.706  0.7461  2.6933  2.5276
  140OSM   H16T15237  -0.060   7.816   4.691 -0.4390 -0.6098  1.3212
  140OSM   C17S15238  -0.060   7.612   4.788  0.2511 -0.0360 -0.2693
  140OSM   H17S15239   0.045   7.578   4.774 -0.6858 -3.4809  0.1761
  140OSM   H17T15240  -0.118   7.518   4.778  1.7798 -1.2191  1.3770
  140OSM   C18S15241  -0.087   7.663   4.933 -0.1794 -0.0880 -0.0364
  140OSM   H18S15242  -0.190   7.701   4.950 -0.5591 -1.4221  0.7979
  140OSM   H18T15243  -0.020   7.746   4.963  0.5625 -0.6256 -0.1871
  140OSM   H18U15244  -0.080   7.581   5.008  0.9017  1.6971  1.9118
  140OSM    C1F15245  -0.159   6.972   3.373 -0.0149  0.0886 -0.3106
  140OSM     OF15246  -0.048   6.919   3.377 -0.5018  0.5438 -0.0820
  140OSM    C2F15247  -0.281   6.889   3.413 -0.0405 -0.1348 -0.5284
  140OSM    H2F15248  -0.277   6.789   3.366  0.1924 -0.0804 -0.6243
  140OSM    H2G15249  -0.367   6.940   3.365 -0.7788  1.0009  1.8240
  140OSM    C3F15250  -0.301   6.878   3.570  0.3461  0.7174  0.5441
  140OSM    H3F15251  -0.238   6.800   3.619 -3.6199 -3.3777 -0.1822
  140OSM    H3G15252  -0.405   6.838   3.575 -0.5305  1.8984 -3.8144
  140OSM    C4F15253  -0.298   7.018   3.642  0.4116 -0.3761 -0.5823
  140OSM    H4F15254  -0.367   7.098   3.605  0.6751  0.0537 -0.1582
  140OSM    H4G15255  -0.194   7.056   3.651  0.4230 -0.5641  0.2019
  140OSM    C5F15256  -0.338   6.978   3.780 -0.5671 -0.4004 -0.0290
  140OSM    H5F15257  -0.262   6.905   3.815  1.3090  0.8270 -1.3402
  140OSM    H5G15258  -0.434   6.923   3.785 -0.0923 -1.3647 -1.2075
  140OSM    C6F15259  -0.337   7.103   3.877 -0.5234 -0.3526  0.8472
  140OSM    H6F15260  -0.418   7.167   3.834  0.1020  0.2117  0.4892
  140OSM    H6G15261  -0.238   7.152   3.873  0.0650 -1.4580  1.4177
  140OSM    C7F15262  -0.364   7.057   4.020 -0.2314  0.0143 -0.5334
  140OSM    H7F15263  -0.272   7.065   4.082  0.2474 -1.3719 -1.0073
  140OSM    H7G15264  -0.377   6.947   4.004  0.9160  0.0662 -2.0506
  140OSM    C8F15265  -0.482   7.125   4.088 -0.1416  0.3789  0.0366
  140OSM    H8F15266  -0.500   7.074   4.185 -0.5370  1.5463  0.6014
  140OSM    H8G15267  -0.565   7.095   4.020 -0.4376  2.1906 -0.4703
  140OSM    C9F15268  -0.489   7.274   4.094 -0.8346  0.0641  0.1904
  140OSM    H9F15269  -0.499   7.326   3.998 -0.7333  0.0436  0.1691
  140OSM   C10F15270  -0.488   7.349   4.202 -0.1648 -0.0902 -0.7233
  140OSM   H10F15271  -0.495   7.459   4.196 -1.6767  0.1104  2.6403
  140OSM   C11F15272  -0.481   7.305   4.352  0.1010  0.2819  0.9370
  140OSM   H11F15273  -0.477   7.195   4.363  2.0984  0.2329  0.2523
  140OSM   H11G15274  -0.565   7.345   4.412 -0.8440  0.6447 -0.5677
  140OSM   C12F15275  -0.355   7.359   4.422  0.0346  0.1700 -0.2676
  140OSM   H12F15276  -0.369   7.469   4.418 -0.9185  0.3019  3.2120
  140OSM   H12G15277  -0.267   7.317   4.370  0.7041  1.6696 -0.4051
  140OSM   C13F15278  -0.334   7.327   4.576 -0.4986  0.6813  0.2798
  140OSM   H13F15279  -0.227   7.356   4.584  0.0282 -1.0332 -0.2023
  140OSM   H13G15280  -0.334   7.219   4.602 -0.6674  1.1950  2.6463
  140OSM   C14F15281  -0.429   7.391   4.680 -0.1064 -0.3051  0.1645
  140OSM   H14F15282  -0.533   7.352   4.670  0.5541 -2.8465  2.2736
  140OSM   H14G15283  -0.437   7.502   4.680  1.6065 -0.1137 -1.8134
  140OSM   C15F15284  -0.397   7.355   4.827  0.6034 -0.0355 -0.0679
  140OSM   H15F15285  -0.287   7.362   4.841  1.0445 -1.6212 -2.2570
  140OSM   H15G15286  -0.431   7.250   4.841 -2.2797  0.9583  1.1185
  140OSM   C16F15287  -0.470   7.449   4.926  0.2786 -0.5676  0.2971
  140OSM   H16F15288  -0.578   7.441   4.902  0.2594  1.0335 -0.2704
  140OSM   H16G15289  -0.431   7.552   4.912  2.8440 -1.4104  0.7575
  140OSM   C17F15290  -0.457   7.409   5.073 -0.1460  0.0915 -0.2220
  140OSM   H17F15291  -0.459   7.298   5.082 -0.5986 -0.1672 -2.7486
  140OSM   H17G15292  -0.550   7.441   5.124  0.5827  1.9030  0.0442
  140OSM   C18F15293  -0.338   7.471   5.149  0.1060  0.5978 -0.0228
  140OSM   H18F15294  -0.342   7.582   5.146  0.7919  0.6377  0.1503
  140OSM   H18G15295  -0.242   7.441   5.100  0.0474 -4.0086  2.1591
  140OSM   H18H15296  -0.324   7.435   5.253  1.8262  0.6715 -0.1838
  141OSM      N15297   1.098   4.554   2.754  0.3716  0.2961 -0.3937
  141OSM    C1515298   0.986   4.456   2.759 -0.0904  0.0311 -0.5105
  141OSM   H15A15299   0.928   4.463   2.667 -2.4336 -1.8122  0.7080
  141OSM   H15B15300   0.912   4.487   2.830 -0.6561 -1.3094 -0.4873
  141OSM   H15C15301   1.019   4.355   2.781  0.0804  0.1170 -0.3831
  141OSM    C1415302   1.198   4.489   2.665 -0.8213  0.1327  0.3224
  141OSM   H14A15303   1.158   4.424   2.589  0.8553 -0.4350 -0.1144
  141OSM   H14B15304   1.264   4.420   2.714  0.5453  0.5741 -0.8244
  141OSM   H14C15305   1.258   4.568   2.623 -1.5834  0.4346 -0.2141
  141OSM    C1315306   1.042   4.679   2.697 -0.2915 -0.0066 -0.4087
  141OSM   H13A15307   0.967   4.717   2.765 -0.3822  0.5900 -0.8285
  141OSM   H13B15308   1.007   4.659   2.597  1.7449  1.4948 -1.4970
  141OSM   H13C15309   1.105   4.767   2.702  1.5679 -1.3535  2.7628
  141OSM    C1215310   1.147   4.596   2.889 -0.9545 -0.1641  0.1305
  141OSM   H12A15311   1.177   4.504   2.938  1.1507  0.3017 -0.1712
  141OSM   H12B15312   1.069   4.644   2.946 -1.9945 -0.2086 -1.2110
  141OSM    C1115313   1.278   4.681   2.902 -0.4137 -0.3740  0.1275
  141OSM   H11A15314   1.354   4.622   2.847 -1.5381 -1.2915 -0.4723
  141OSM   H11B15315   1.293   4.687   3.012 -2.9412  1.1946  0.4575
  141OSM      P15316   1.377   4.871   2.756 -0.2744  0.0596 -0.1219
  141OSM    O1315317   1.390   4.781   2.643  0.0087  0.0745  0.2642
  141OSM    O1415318   1.364   5.016   2.736  0.1112 -0.1831 -0.1966
  141OSM    O1115319   1.504   4.845   2.854 -0.6847  0.1010 -0.4106
  141OSM    O1215320   1.257   4.812   2.843 -0.6147 -0.0651  0.2129
  141OSM    C1S15321   1.531   4.947   2.953  0.7075  0.2016 -0.4558
  141OSM    H1S15322   1.465   5.036   2.948 -0.4837 -0.7133 -1.7124
  141OSM    H1T15323   1.636   4.983   2.952  1.6878 -2.3719  0.7924
  141OSM     NF15324   1.507   4.992   3.190 -1.1320 -0.7675 -0.3490
  141OSM    HNF15325   1.585   4.995   3.252 -2.2882  0.5603  1.0970
  141OSM    C2S15326   1.509   4.885   3.091  0.9387  0.1684 -0.2731
  141OSM    H2S15327   1.409   4.837   3.099 -0.2862  2.4123 -1.3009
  141OSM    C3S15328   1.607   4.772   3.113 -0.7381  0.0416 -0.5421
  141OSM    H3S15329   1.707   4.818   3.127 -0.6654 -0.0788 -0.6658
  141OSM     O315330   1.625   4.678   3.008 -0.4364  0.0761  0.1614
  141OSM    HO315331   1.565   4.711   2.941 -0.4145 -1.4141 -0.6431
  141OSM    C4S15332   1.586   4.699   3.233  0.5000  0.3561 -0.6960
  141OSM    H4S15333   1.639   4.726   3.326 -0.7300  0.1935  0.0751
  141OSM    C5S15334   1.494   4.600   3.244 -0.1151 -0.1829  0.0654
  141OSM    H5S15335   1.426   4.579   3.160 -0.2548  1.5555 -0.3003
  141OSM    C6S15336   1.461   4.533   3.370 -0.4122  0.0136 -0.2540
  141OSM    H6S15337   1.487   4.425   3.367  0.1606  0.1682 -1.1420
  141OSM    H6T15338   1.351   4.537   3.379 -0.2816  3.6267  1.7397
  141OSM    C7S15339   1.518   4.576   3.507  0.7530  1.5452 -0.0186
  141OSM    H7S15340   1.486   4.680   3.530 -1.0722  1.1531 -0.6502
  141OSM    H7T15341   1.627   4.558   3.512  0.5585  0.2607 -0.2403
  141OSM    C8S15342   1.474   4.476   3.621 -0.2881  0.2527  0.3165
  141OSM    H8S15343   1.518   4.376   3.607  1.3116  0.8369  0.8716
  141OSM    H8T15344   1.363   4.483   3.622 -0.1979  2.2114  0.8633
  141OSM    C9S15345   1.541   4.511   3.753 -0.1174  0.2695 -0.4380
  141OSM    H9S15346   1.530   4.614   3.791  0.7515  0.2190 -0.0412
  141OSM    H9T15347   1.650   4.497   3.742  0.1671  1.7809  0.3037
  141OSM   C10S15348   1.496   4.422   3.864 -0.0898 -0.0129 -0.3980
  141OSM   H10S15349   1.492   4.319   3.822 -1.8268 -0.5311  0.8929
  141OSM   H10T15350   1.400   4.454   3.912  0.5624  3.1263 -0.9502
  141OSM   C11S15351   1.601   4.411   3.981  0.5508 -0.2388  0.2805
  141OSM   H11S15352   1.608   4.513   4.026  1.0953  0.6330 -1.6561
  141OSM   H11T15353   1.698   4.406   3.926 -0.1271  0.0326 -0.9693
  141OSM   C12S15354   1.558   4.318   4.086  0.0290  0.1114 -0.7612
  141OSM   H12S15355   1.558   4.215   4.043  1.0652  0.7090 -2.2736
  141OSM   H12T15356   1.451   4.336   4.111 -0.8865 -1.0044 -3.4992
  141OSM   C13S15357   1.645   4.322   4.210 -0.5659 -0.0864 -0.0614
  141OSM   H13S15358   1.699   4.419   4.201 -2.5747  1.1761  0.6765
  141OSM   H13T15359   1.729   4.249   4.209 -1.4750 -1.1904 -1.7497
  141OSM   C14S15360   1.574   4.310   4.341  0.5692 -0.0830 -0.0018
  141OSM   H14S15361   1.546   4.209   4.376  0.5442 -0.1121 -0.1043
  141OSM   H14T15362   1.479   4.367   4.327  0.2184 -0.8947 -1.0780
  141OSM   C15S15363   1.652   4.377   4.467 -0.4379  0.2999  0.5761
  141OSM   H15S15364   1.578   4.363   4.549 -1.3765 -3.5797 -0.7147
  141OSM   H15T15365   1.665   4.483   4.439  0.5353 -0.1069 -0.6062
  141OSM   C16S15366   1.786   4.315   4.504  0.0661 -0.4825  0.3468
  141OSM   H16S15367   1.851   4.309   4.414 -0.0968  2.5303 -0.0721
  141OSM   H16T15368   1.769   4.216   4.552  3.1676 -0.9520  0.6338
  141OSM   C17S15369   1.874   4.392   4.603 -0.1583  0.0117  0.0769
  141OSM   H17S15370   1.925   4.477   4.553  0.2769  0.2511  0.9070
  141OSM   H17T15371   1.953   4.316   4.621  0.4041  0.7228  0.6802
  141OSM   C18S15372   1.823   4.442   4.737 -0.2057  0.2033  0.2494
  141OSM   H18S15373   1.902   4.488   4.799 -0.4600  2.2075 -0.8335
  141OSM   H18T15374   1.770   4.359   4.789 -0.9142  0.6290  0.2192
  141OSM   H18U15375   1.753   4.524   4.711  0.3940 -0.1154 -2.7830
  141OSM    C1F15376   1.413   5.082   3.193 -0.4132 -0.4359 -0.3668
  141OSM     OF15377   1.309   5.063   3.130  0.6269 -0.5862  0.3069
  141OSM    C2F15378   1.441   5.209   3.269  0.1841 -0.0995 -1.2650
  141OSM    H2F15379   1.479   5.285   3.197  0.1063  3.3830  2.0415
  141OSM    H2G15380   1.528   5.193   3.335 -0.0660 -0.3650 -0.9955
  141OSM    C3F15381   1.321   5.271   3.344  0.1090  0.7179 -0.4557
  141OSM    H3F15382   1.297   5.201   3.427  1.4168  0.5535 -0.1837
  141OSM    H3G15383   1.239   5.276   3.270  0.0321  0.0287 -0.4241
  141OSM    C4F15384   1.337   5.403   3.415  0.2040 -0.5388 -0.1167
  141OSM    H4F15385   1.241   5.440   3.456 -0.5845  0.1531 -2.4274
  141OSM    H4G15386   1.363   5.473   3.332 -0.2100  1.6426  1.4862
  141OSM    C5F15387   1.442   5.414   3.522  0.5328  0.0536  0.1482
  141OSM    H5F15388   1.473   5.520   3.533  0.4008  0.2539 -1.2748
  141OSM    H5G15389   1.537   5.359   3.505  1.0297  0.6999  0.7523
  141OSM    C6F15390   1.393   5.351   3.661  0.0432  0.4688  0.4326
  141OSM    H6F15391   1.407   5.241   3.660  1.1814  0.6047 -0.1050
  141OSM    H6G15392   1.285   5.371   3.675  0.0038 -0.5018  1.6277
  141OSM    C7F15393   1.471   5.402   3.779  0.2296 -0.0640  0.1965
  141OSM    H7F15394   1.445   5.509   3.796 -2.6161 -0.1966 -2.3637
  141OSM    H7G15395   1.581   5.390   3.766  0.2201 -1.1523  0.9549
  141OSM    C8F15396   1.454   5.332   3.911 -0.9596 -0.0087 -0.2722
  141OSM    H8F15397   1.515   5.381   3.990  0.1787 -1.9759  0.1395
  141OSM    H8G15398   1.493   5.229   3.896 -0.0111  0.3720 -0.4983
  141OSM    C9F15399   1.313   5.310   3.956  0.7464 -0.1784 -0.3590
  141OSM    H9F15400   1.245   5.280   3.875  0.9530 -1.6121 -0.0252
  141OSM   C10F15401   1.262   5.333   4.078 -0.1540 -0.2080 -0.3895
  141OSM   H10F15402   1.159   5.299   4.098  0.0836 -0.3741  0.6284
  141OSM   C11F15403   1.343   5.381   4.200 -0.0930 -0.4022 -0.1671
  141OSM   H11F15404   1.258   5.392   4.270  1.6174  1.9390  1.7376
  141OSM   H11G15405   1.386   5.483   4.190 -2.0399  0.5615  0.7306
  141OSM   C12F15406   1.448   5.280   4.250 -0.0961  0.1779 -0.6263
  141OSM   H12F15407   1.537   5.278   4.183  1.7453 -0.6233  1.6818
  141OSM   H12G15408   1.399   5.180   4.250  1.3015 -0.6051  1.8068
  141OSM   C13F15409   1.477   5.322   4.403 -0.2728  0.2314  0.6037
  141OSM   H13F15410   1.379   5.318   4.455 -0.2736  1.3903  0.7144
  141OSM   H13G15411   1.503   5.430   4.400 -1.7884  0.6134 -1.0653
  141OSM   C14F15412   1.593   5.237   4.449  0.5122 -0.9683  0.2262
  141OSM   H14F15413   1.672   5.236   4.370 -2.1527  0.0686 -2.7057
  141OSM   H14G15414   1.574   5.128   4.457  1.1489 -1.5190 -3.5427
  141OSM   C15F15415   1.647   5.276   4.589 -0.0401  0.2400  0.0386
  141OSM   H15F15416   1.709   5.195   4.633 -0.5531  0.6528  1.5690
  141OSM   H15G15417   1.560   5.299   4.653  1.0739 -0.3152  1.8129
  141OSM   C16F15418   1.751   5.389   4.587 -0.5832 -0.2575 -0.4340
  141OSM   H16F15419   1.696   5.459   4.521  0.3392  0.4551 -0.4818
  141OSM   H16G15420   1.852   5.361   4.549  0.0823  0.9612  0.3451
  141OSM   C17F15421   1.773   5.445   4.718  1.0126  0.4626 -0.1946
  141OSM   H17F15422   1.677   5.486   4.758  0.2444  0.5463 -2.0114
  141OSM   H17G15423   1.843   5.532   4.722 -0.1105  1.3816  0.3936
  141OSM   C18F15424   1.841   5.349   4.822  0.6586  0.6489 -0.2033
  141OSM   H18F15425   1.845   5.407   4.917  1.0803 -0.6974  0.6235
  141OSM   H18G15426   1.946   5.321   4.801  0.4656 -1.3972  1.2839
  141OSM   H18H15427   1.777   5.260   4.841 -0.0710  1.2486  0.2229
  142OSM      N15428   1.306   1.425   2.316  0.0991 -0.3315  0.7302
  142OSM    C1515429   1.257   1.343   2.427 -0.1816 -0.0440 -0.4559
  142OSM   H15A15430   1.326   1.310   2.503 -1.3124 -2.9270 -0.5711
  142OSM   H15B15431   1.221   1.253   2.380  1.5940  0.1517 -2.3520
  142OSM   H15C15432   1.180   1.388   2.488  0.1549 -2.3741  1.8321
  142OSM    C1415433   1.390   1.346   2.220  0.0278 -0.5291 -0.1503
  142OSM   H14A15434   1.479   1.314   2.271 -0.1017  0.3079  0.6270
  142OSM   H14B15435   1.412   1.413   2.137 -1.1759 -0.9017 -0.8070
  142OSM   H14C15436   1.339   1.265   2.170  1.5600 -0.7800 -1.3948
  142OSM    C1315437   1.189   1.481   2.232 -0.3781 -0.4909  0.0069
  142OSM   H13A15438   1.220   1.547   2.152  0.6982 -2.4206 -1.2768
  142OSM   H13B15439   1.122   1.538   2.294 -1.5978 -0.9534 -0.8340
  142OSM   H13C15440   1.136   1.400   2.183 -1.1837  0.8332 -1.3988
  142OSM    C1215441   1.397   1.542   2.364  0.1832 -0.0776  0.2756
  142OSM   H12A15442   1.332   1.608   2.419 -2.2848 -2.0765 -0.0654
  142OSM   H12B15443   1.438   1.597   2.280 -0.7112  1.6063  0.8901
  142OSM    C1115444   1.531   1.502   2.430 -0.1701  0.3564 -0.8223
  142OSM   H11A15445   1.510   1.428   2.510  1.8229  3.4656  2.8681
  142OSM   H11B15446   1.575   1.592   2.476 -1.0649 -0.8388  2.6551
  142OSM      P15447   1.724   1.327   2.388  0.7372 -0.1022 -0.1650
  142OSM    O1315448   1.662   1.198   2.347  0.0369  0.0222 -0.5145
  142OSM    O1415449   1.854   1.366   2.333 -0.1418  0.1273 -1.1551
  142OSM    O1115450   1.722   1.329   2.542 -0.2774  0.2542  0.4607
  142OSM    O1215451   1.627   1.446   2.342  0.0501 -0.5001 -0.1320
  142OSM    C1S15452   1.827   1.372   2.628  0.1917  0.6886 -0.4495
  142OSM    H1S15453   1.860   1.476   2.604  1.5287  0.4217  0.1368
  142OSM    H1T15454   1.911   1.299   2.623  0.0105  0.3653  0.9247
  142OSM     NF15455   1.909   1.411   2.857  0.2908  0.4705 -0.0896
  142OSM    HNF15456   1.954   1.335   2.904  0.4794 -0.2079 -1.3297
  142OSM    C2S15457   1.793   1.368   2.776  0.7123  0.6901 -0.6297
  142OSM    H2S15458   1.715   1.447   2.790  0.0079  0.2338 -1.7944
  142OSM    C3S15459   1.723   1.233   2.821 -0.0618  0.2594 -0.5791
  142OSM    H3S15460   1.795   1.151   2.798 -1.0397 -0.1023 -2.6598
  142OSM     O315461   1.607   1.206   2.746 -0.6374 -0.4836  0.5827
  142OSM    HO315462   1.609   1.266   2.671 -1.1223  0.5859  1.4075
  142OSM    C4S15463   1.696   1.232   2.971 -0.0186 -0.9160  0.0321
  142OSM    H4S15464   1.781   1.213   3.039  1.1907  0.8644 -0.8861
  142OSM    C5S15465   1.578   1.270   3.028 -0.6921  0.8043  0.0450
  142OSM    H5S15466   1.499   1.312   2.965  0.0624 -1.2867 -2.4878
  142OSM    C6S15467   1.564   1.266   3.179 -0.2172 -0.4220 -0.1344
  142OSM    H6S15468   1.617   1.182   3.227  0.3709 -0.6491 -1.1551
  142OSM    H6T15469   1.459   1.235   3.202 -0.6351  1.0438  0.0632
  142OSM    C7S15470   1.596   1.396   3.254  0.4825 -0.3366  0.2919
  142OSM    H7S15471   1.528   1.480   3.232  2.5440  0.6343 -3.1527
  142OSM    H7T15472   1.698   1.426   3.223  0.9619 -2.4967 -0.3886
  142OSM    C8S15473   1.580   1.387   3.407 -0.3899 -0.0669 -0.2395
  142OSM    H8S15474   1.651   1.314   3.451  0.7877  0.5559 -1.0324
  142OSM    H8T15475   1.480   1.352   3.439 -0.6479  2.9923  2.9993
  142OSM    C9S15476   1.611   1.528   3.463 -0.2294  0.1398 -0.0528
  142OSM    H9S15477   1.536   1.604   3.431 -2.3281 -1.4864  0.7378
  142OSM    H9T15478   1.704   1.556   3.409 -1.3096  0.2603 -1.9574
  142OSM   C10S15479   1.641   1.536   3.611  0.0677  0.2126 -0.3731
  142OSM   H10S15480   1.670   1.638   3.644  2.7281 -0.4417 -0.4999
  142OSM   H10T15481   1.721   1.472   3.652  1.2905  0.9571 -1.5229
  142OSM   C11S15482   1.508   1.509   3.683  0.6817  0.2946  0.1347
  142OSM   H11S15483   1.476   1.407   3.654 -0.5558  0.1961  1.6861
  142OSM   H11T15484   1.431   1.580   3.646  1.0251  0.1618 -0.8494
  142OSM   C12S15485   1.502   1.533   3.835  0.3393 -0.0043  0.0731
  142OSM   H12S15486   1.397   1.505   3.860  0.0180  1.1944  0.1562
  142OSM   H12T15487   1.500   1.643   3.854 -3.9441  0.2691 -0.8292
  142OSM   C13S15488   1.602   1.452   3.917 -0.0774 -0.0247 -0.1536
  142OSM   H13S15489   1.701   1.491   3.885  1.1490 -1.5093  1.6189
  142OSM   H13T15490   1.597   1.346   3.885  0.5673  0.0435 -0.5026
  142OSM   C14S15491   1.587   1.469   4.071  0.0495  0.0114 -0.8723
  142OSM   H14S15492   1.677   1.420   4.113  0.8021  0.8628 -1.4603
  142OSM   H14T15493   1.498   1.411   4.105  0.6592 -0.9966 -0.9427
  142OSM   C15S15494   1.583   1.609   4.135  0.2591  0.8044  0.2221
  142OSM   H15S15495   1.500   1.670   4.092 -1.2150 -0.5067  1.0802
  142OSM   H15T15496   1.674   1.667   4.108  1.9200 -2.0912 -0.8433
  142OSM   C16S15497   1.581   1.600   4.289 -0.4355 -0.7852  0.1066
  142OSM   H16S15498   1.508   1.518   4.309  1.1512 -2.7701 -1.7829
  142OSM   H16T15499   1.533   1.688   4.336  1.1186 -0.3859  1.0146
  142OSM   C17S15500   1.723   1.585   4.344  1.0872 -0.5876 -0.0521
  142OSM   H17S15501   1.782   1.679   4.344  2.3527 -1.3479 -1.2423
  142OSM   H17T15502   1.775   1.521   4.270  1.8396 -1.3266  1.0705
  142OSM   C18S15503   1.741   1.523   4.474 -0.6902  0.2797  0.1340
  142OSM   H18S15504   1.837   1.553   4.521 -0.7644  0.0776  0.4190
  142OSM   H18T15505   1.749   1.413   4.461 -0.0231  0.1220  1.5999
  142OSM   H18U15506   1.655   1.548   4.540 -0.9140 -0.1157 -0.0034
  142OSM    C1F15507   1.955   1.531   2.868  0.1067 -0.0685  0.0638
  142OSM     OF15508   1.937   1.616   2.785  0.0599 -0.2216 -0.0840
  142OSM    C2F15509   2.028   1.554   2.997 -0.0102  0.1714 -0.4404
  142OSM    H2F15510   2.063   1.659   3.014 -0.9224  0.2200  1.4467
  142OSM    H2G15511   2.122   1.496   2.991 -1.1322 -1.8773  0.6862
  142OSM    C3F15512   1.963   1.492   3.122  0.3686  0.3720 -0.0565
  142OSM    H3F15513   1.933   1.386   3.104 -0.5965  0.6709 -0.3168
  142OSM    H3G15514   1.869   1.547   3.144 -1.1678 -1.8652 -0.6238
  142OSM    C4F15515   2.053   1.511   3.246 -0.1853 -0.1110  0.7973
  142OSM    H4F15516   2.097   1.613   3.248  2.3747 -1.1637  1.5547
  142OSM    H4G15517   2.137   1.442   3.228 -1.1969 -0.5316 -3.3779
  142OSM    C5F15518   1.992   1.471   3.376  0.3224 -0.0673  0.2859
  142OSM    H5F15519   1.928   1.381   3.364  0.2178 -0.3704  2.5309
  142OSM    H5G15520   1.919   1.546   3.414 -3.9527 -2.7955 -1.8680
  142OSM    C6F15521   2.085   1.436   3.495 -0.8957 -0.3320  0.0906
  142OSM    H6F15522   2.137   1.530   3.527  1.2179 -2.0002  1.8700
  142OSM    H6G15523   2.161   1.358   3.475 -0.1609 -0.0461  1.6239
  142OSM    C7F15524   2.006   1.379   3.612 -0.3747 -0.1769 -0.5837
  142OSM    H7F15525   1.934   1.311   3.562  0.4278 -2.4808  1.1984
  142OSM    H7G15526   1.946   1.454   3.666 -1.9896 -1.7657 -0.0763
  142OSM    C8F15527   2.092   1.299   3.714 -0.2198 -0.6580  0.7705
  142OSM    H8F15528   2.159   1.381   3.746 -0.6402  0.1521 -0.3163
  142OSM    H8G15529   2.148   1.225   3.654  0.0831 -0.2202  0.5111
  142OSM    C9F15530   2.018   1.217   3.816 -0.0840  0.5087 -0.2207
  142OSM    H9F15531   2.006   1.112   3.787  2.8341  0.3614 -1.3066
  142OSM   C10F15532   1.992   1.256   3.942  1.0569 -0.8048  0.9118
  142OSM   H10F15533   1.922   1.189   3.995 -0.0363 -0.5391 -0.1437
  142OSM   C11F15534   2.012   1.392   3.996 -0.0481 -0.0932  0.0906
  142OSM   H11F15535   1.949   1.475   3.959  1.1246  0.7639 -0.0491
  142OSM   H11G15536   2.115   1.423   3.968  0.2579 -0.2370  1.0126
  142OSM   C12F15537   1.997   1.384   4.153 -0.1114 -0.1528  0.7278
  142OSM   H12F15538   1.904   1.330   4.183  0.4022 -1.3743  0.1847
  142OSM   H12G15539   1.961   1.487   4.174 -2.1938 -0.3154 -1.5657
  142OSM   C13F15540   2.128   1.327   4.220  0.1695  0.8526 -0.1641
  142OSM   H13F15541   2.195   1.411   4.248  0.4340  0.9514 -1.0851
  142OSM   H13G15542   2.178   1.251   4.156  1.4304  0.4180  1.2738
  142OSM   C14F15543   2.089   1.249   4.351  0.0444  0.1873  0.2287
  142OSM   H14F15544   2.022   1.173   4.306 -1.0956  0.0837  1.9944
  142OSM   H14G15545   2.031   1.307   4.426 -1.4953  1.3431 -1.7484
  142OSM   C15F15546   2.209   1.180   4.418 -0.7605 -0.3982 -0.9059
  142OSM   H15F15547   2.279   1.132   4.347  0.6829  1.7666 -1.0323
  142OSM   H15G15548   2.175   1.101   4.489 -0.8178 -0.3981 -0.9326
  142OSM   C16F15549   2.308   1.270   4.488  1.0002  0.1752 -0.6942
  142OSM   H16F15550   2.267   1.297   4.588  1.1235 -0.1968 -0.5434
  142OSM   H16G15551   2.325   1.358   4.422 -0.7234  0.1899 -1.1541
  142OSM   C17F15552   2.436   1.210   4.538  0.5525  0.2272 -0.0260
  142OSM   H17F15553   2.486   1.175   4.446  3.3659  0.4250  1.3212
  142OSM   H17G15554   2.414   1.120   4.600 -2.6721  0.3308 -0.8584
  142OSM   C18F15555   2.524   1.328   4.598  0.8674  0.4940  0.4988
  142OSM   H18F15556   2.480   1.367   4.692 -0.5193  0.4900 -0.1155
  142OSM   H18G15557   2.501   1.408   4.524 -2.9800 -0.5837  0.2919
  142OSM   H18H15558   2.632   1.306   4.606  0.7385 -0.5421 -0.3755
  143OSM      N15559   0.079   6.335   2.464  0.3812 -0.1706 -0.0067
  143OSM    C1515560   0.091   6.455   2.373 -0.6732 -0.3284  0.2084
  143OSM   H15A15561   0.079   6.424   2.270 -0.5225  1.4908 -0.3937
  143OSM   H15B15562   0.183   6.512   2.376 -0.5874 -0.4750  0.3403
  143OSM   H15C15563   0.019   6.536   2.374  0.8418  1.1271 -1.0358
  143OSM    C1415564  -0.047   6.268   2.442 -0.0298 -0.1759  0.7043
  143OSM   H14A15565  -0.081   6.207   2.525 -0.6089  1.4292  1.6951
  143OSM   H14B15566  -0.041   6.188   2.370 -0.3448 -1.0110  1.5820
  143OSM   H14C15567  -0.122   6.340   2.412 -0.4443  0.1431  2.3889
  143OSM    C1315568   0.186   6.241   2.431 -0.1840 -0.6982 -0.3682
  143OSM   H13A15569   0.164   6.191   2.337 -2.1603 -0.5024 -0.0657
  143OSM   H13B15570   0.185   6.155   2.496 -0.2895 -1.1771 -0.9938
  143OSM   H13C15571   0.284   6.284   2.432 -0.7246  0.7733 -2.6073
  143OSM    C1215572   0.080   6.384   2.603 -0.4488 -0.0031 -0.2720
  143OSM   H12A15573  -0.007   6.445   2.623  0.9734  2.0810 -0.1232
  143OSM   H12B15574   0.159   6.457   2.614 -2.3560  2.2475 -0.6222
  143OSM    C1115575   0.085   6.282   2.719  1.3142  0.6831  0.0269
  143OSM   H11A15576   0.011   6.200   2.704  1.1871  0.8048 -0.0116
  143OSM   H11B15577   0.051   6.334   2.811 -1.0597  0.8111 -0.8389
  143OSM      P15578   0.339   6.297   2.789 -0.3349  0.0306 -0.0168
  143OSM    O1315579   0.439   6.195   2.838  0.0245  0.3344  0.1088
  143OSM    O1415580   0.385   6.399   2.689  0.0246 -0.7812  0.0429
  143OSM    O1115581   0.283   6.366   2.918 -0.2338  0.5263 -0.1577
  143OSM    O1215582   0.212   6.218   2.734 -0.7796 -0.1070  0.0578
  143OSM    C1S15583   0.257   6.287   3.036 -0.4503 -0.3329  0.5739
  143OSM    H1S15584   0.240   6.178   3.024 -0.5733 -0.5651  2.5561
  143OSM    H1T15585   0.153   6.306   3.071 -1.0614 -2.9872  0.3763
  143OSM     NF15586   0.307   6.228   3.266  0.3520  0.0576  0.0850
  143OSM    HNF15587   0.260   6.282   3.335 -1.5731  0.3027 -1.3215
  143OSM    C2S15588   0.360   6.300   3.150  0.2246  0.5112 -0.7531
  143OSM    H2S15589   0.455   6.249   3.125  0.8080  0.8917  0.5723
  143OSM    C3S15590   0.410   6.444   3.180 -0.7778  0.2030  0.5289
  143OSM    H3S15591   0.324   6.501   3.221  0.0370 -0.0242  2.6461
  143OSM     O315592   0.450   6.522   3.061  0.1227 -0.5467 -0.6638
  143OSM    HO315593   0.406   6.484   2.984  0.7645  2.3265 -2.6021
  143OSM    C4S15594   0.511   6.454   3.295 -0.0642  0.4259 -0.1177
  143OSM    H4S15595   0.470   6.427   3.394 -0.4104 -0.3856 -0.4768
  143OSM    C5S15596   0.644   6.483   3.291  0.3748  0.2346 -0.3976
  143OSM    H5S15597   0.683   6.492   3.188 -0.2515  0.5356 -0.6166
  143OSM    C6S15598   0.746   6.475   3.408 -0.4376 -0.3262 -0.0035
  143OSM    H6S15599   0.814   6.561   3.392 -1.2965  0.3021 -0.3310
  143OSM    H6T15600   0.809   6.387   3.382 -0.7476  0.0648 -2.2598
  143OSM    C7S15601   0.702   6.469   3.551 -0.2291 -0.2977 -0.0551
  143OSM    H7S15602   0.637   6.379   3.565 -1.5402  0.1103 -2.7446
  143OSM    H7T15603   0.648   6.564   3.572 -0.5196 -0.5266  0.2493
  143OSM    C8S15604   0.825   6.455   3.650 -0.1172  0.0243 -0.5288
  143OSM    H8S15605   0.882   6.548   3.628  0.1652 -0.7829 -3.7727
  143OSM    H8T15606   0.894   6.372   3.623 -0.0216 -0.1226  0.1539
  143OSM    C9S15607   0.782   6.437   3.802 -0.1803  0.0339  0.1596
  143OSM    H9S15608   0.720   6.345   3.804  1.2275 -0.9298  0.2593
  143OSM    H9T15609   0.722   6.528   3.826 -2.0597 -0.9953 -0.4299
  143OSM   C10S15610   0.898   6.420   3.908 -0.2565 -0.2537  0.1762
  143OSM   H10S15611   0.947   6.519   3.917 -3.0459  1.3700 -1.1485
  143OSM   H10T15612   0.970   6.343   3.874 -0.1368  0.3728 -1.0516
  143OSM   C11S15613   0.843   6.395   4.045 -0.2152  0.2658 -0.1616
  143OSM   H11S15614   0.800   6.293   4.052  0.7987 -0.1161  0.9926
  143OSM   H11T15615   0.755   6.461   4.064 -1.2585 -0.2247 -2.8060
  143OSM   C12S15616   0.954   6.433   4.151 -0.0786 -0.4861  0.0921
  143OSM   H12S15617   0.994   6.537   4.150 -1.1989 -0.0513 -0.3782
  143OSM   H12T15618   1.038   6.365   4.123 -1.0372 -2.2701  1.3481
  143OSM   C13S15619   0.924   6.379   4.291 -0.0918  0.6974  0.1135
  143OSM   H13S15620   0.930   6.268   4.285  0.2493  0.7497 -0.7004
  143OSM   H13T15621   0.833   6.434   4.322  0.2118  1.6719 -0.6529
  143OSM   C14S15622   1.029   6.421   4.402 -0.0543  0.7101  0.0077
  143OSM   H14S15623   1.020   6.531   4.415  1.1680  0.8644 -0.3278
  143OSM   H14T15624   1.131   6.391   4.370 -0.2177 -0.5105  0.5745
  143OSM   C15S15625   0.998   6.359   4.530 -0.4604 -0.0324  0.4355
  143OSM   H15S15626   0.984   6.250   4.510 -0.5639 -0.0903  0.8069
  143OSM   H15T15627   0.903   6.390   4.578 -1.6073 -1.9137 -0.4962
  143OSM   C16S15628   1.107   6.373   4.631  0.1279 -0.0845 -0.1064
  143OSM   H16S15629   1.121   6.482   4.649 -1.3887  0.3412 -1.2725
  143OSM   H16T15630   1.206   6.347   4.587  0.0435 -1.8050  0.6214
  143OSM   C17S15631   1.090   6.309   4.768 -1.1034  0.2782  0.7451
  143OSM   H17S15632   1.098   6.198   4.768 -1.9100  0.2136 -0.3671
  143OSM   H17T15633   0.994   6.333   4.819 -1.4887  0.0329  0.1395
  143OSM   C18S15634   1.194   6.373   4.863 -0.5332  0.1249  0.3588
  143OSM   H18S15635   1.292   6.367   4.810 -0.1558  1.1902  0.8968
  143OSM   H18T15636   1.186   6.319   4.960 -0.9509 -0.4845 -0.0095
  143OSM   H18U15637   1.152   6.474   4.883 -0.6735  0.3619 -1.0050
  143OSM    C1F15638   0.304   6.094   3.283  0.2369 -0.0045 -0.5155
  143OSM     OF15639   0.341   6.014   3.199 -0.1938  0.3396 -0.1695
  143OSM    C2F15640   0.253   6.056   3.423 -0.4558 -0.0462  0.0867
  143OSM    H2F15641   0.177   6.121   3.471  0.5921  0.3615  1.2191
  143OSM    H2G15642   0.346   6.058   3.483  0.2100 -0.2685 -0.9026
  143OSM    C3F15643   0.205   5.913   3.429  0.0305 -0.0740  0.0229
  143OSM    H3F15644   0.281   5.841   3.392 -0.0789  0.4426 -1.2455
  143OSM    H3G15645   0.122   5.902   3.356 -0.6148  2.4359  0.2958
  143OSM    C4F15646   0.154   5.875   3.567  0.0459 -0.2795 -0.4955
  143OSM    H4F15647   0.135   5.766   3.558  0.3187 -0.3743  0.0425
  143OSM    H4G15648   0.070   5.938   3.600  1.8600  1.5087  0.9149
  143OSM    C5F15649   0.254   5.895   3.685 -0.3740  0.5017  0.4648
  143OSM    H5F15650   0.263   6.006   3.695  1.1316  0.7728 -2.6682
  143OSM    H5G15651   0.352   5.850   3.656 -1.3375 -2.2486  1.1961
  143OSM    C6F15652   0.203   5.819   3.809  0.1972 -0.1018 -0.5371
  143OSM    H6F15653   0.218   5.711   3.789 -2.7028 -0.7326  0.0893
  143OSM    H6G15654   0.094   5.839   3.817  0.5338  1.6174  0.1711
  143OSM    C7F15655   0.273   5.844   3.940 -0.1228 -0.5073 -0.2739
  143OSM    H7F15656   0.265   5.951   3.972  0.1157 -0.0050 -1.8133
  143OSM    H7G15657   0.381   5.832   3.917  0.0888  3.3130 -2.0676
  143OSM    C8F15658   0.250   5.730   4.046  0.0431 -0.7169  0.6236
  143OSM    H8F15659   0.340   5.741   4.110  0.0723  0.1822  0.4351
  143OSM    H8G15660   0.237   5.631   3.997 -4.3180  1.4225 -3.2876
  143OSM    C9F15661   0.129   5.756   4.128 -0.1295  0.5410 -0.6638
  143OSM    H9F15662   0.036   5.721   4.080  0.0744  0.1111 -0.7462
  143OSM   C10F15663   0.127   5.810   4.247  0.3708  0.1220  0.1794
  143OSM   H10F15664   0.032   5.833   4.298  0.1040 -0.0849 -0.2172
  143OSM   C11F15665   0.251   5.845   4.316 -0.2201  0.3976  0.4905
  143OSM   H11F15666   0.294   5.926   4.254  0.8721 -1.0859 -0.7532
  143OSM   H11G15667   0.330   5.768   4.321  0.3850  1.0093  0.4263
  143OSM   C12F15668   0.234   5.891   4.465  0.3363  0.5928  0.3972
  143OSM   H12F15669   0.154   5.967   4.473 -1.8994 -1.7267  1.4699
  143OSM   H12G15670   0.328   5.940   4.499  0.7584 -0.5347  0.9031
  143OSM   C13F15671   0.208   5.773   4.557  0.2899 -0.3605 -0.9964
  143OSM   H13F15672   0.265   5.679   4.542 -0.8449 -1.4866  1.2277
  143OSM   H13G15673   0.112   5.722   4.532  1.2918 -1.9607 -1.7219
  143OSM   C14F15674   0.194   5.829   4.701 -0.6360  0.1658 -0.0563
  143OSM   H14F15675   0.167   5.747   4.770  1.2869  0.1558  0.7496
  143OSM   H14G15676   0.105   5.895   4.701  0.1255  1.2642 -1.5540
  143OSM   C15F15677   0.311   5.910   4.747 -0.6515 -0.2794 -0.1150
  143OSM   H15F15678   0.319   6.012   4.702 -1.4165  0.3474  1.0998
  143OSM   H15G15679   0.400   5.848   4.728 -1.4220 -2.2187  2.0582
  143OSM   C16F15680   0.315   5.930   4.902 -0.6929  0.0776 -0.2380
  143OSM   H16F15681   0.413   5.975   4.928 -0.5185  0.0557 -0.8312
  143OSM   H16G15682   0.315   5.828   4.944 -0.8017  0.5156  0.8548
  143OSM   C17F15683   0.202   6.023   4.945 -0.1584  0.2143 -0.5526
  143OSM   H17F15684   0.110   5.965   4.921  0.8028 -0.6852 -2.2310
  143OSM   H17G15685   0.193   6.111   4.878  1.0602  0.0752 -0.9267
  143OSM   C18F15686   0.222   6.060   5.096  0.3969  0.4844  0.3044
  143OSM   H18F15687   0.228   5.965   5.154 -1.9345 -0.1835 -0.4439
  143OSM   H18G15688   0.142   6.126   5.135  1.3257  1.6971  0.2087
  143OSM   H18H15689   0.306   6.130   5.112 -1.0337  2.1299  0.9913
  144OSM      N15690   1.014   0.504   2.587  0.2477 -0.0070 -0.0007
  144OSM    C1515691   1.079   0.395   2.507 -0.1604 -0.7918  0.4145
  144OSM   H15A15692   1.083   0.427   2.404  0.5647  2.5000  1.3666
  144OSM   H15B15693   1.016   0.306   2.507 -0.9883 -0.2191 -0.0690
  144OSM   H15C15694   1.177   0.367   2.543 -0.5150  0.0356  2.1065
  144OSM    C1415695   1.084   0.637   2.563  0.5820  0.5667 -0.0893
  144OSM   H14A15696   1.050   0.722   2.621  0.7141  1.5976 -1.4896
  144OSM   H14B15697   1.079   0.663   2.459 -1.8526 -1.7141 -0.6420
  144OSM   H14C15698   1.191   0.633   2.582  0.6687 -3.6539 -0.4856
  144OSM    C1315699   0.869   0.515   2.543 -0.0420 -0.2681 -0.1112
  144OSM   H13A15700   0.864   0.561   2.446 -2.4749  0.7403  0.4293
  144OSM   H13B15701   0.823   0.585   2.612  0.4552  0.8506 -0.8764
  144OSM   H13C15702   0.826   0.417   2.553 -1.8830  0.5160 -0.0434
  144OSM    C1215703   1.022   0.474   2.740 -0.4202  0.0355  0.0604
  144OSM   H12A15704   1.117   0.432   2.769 -0.2916  0.6820  0.5978
  144OSM   H12B15705   0.945   0.407   2.773 -0.2258 -0.8736 -1.2551
  144OSM    C1115706   1.008   0.603   2.831 -0.4782  0.9349  0.0345
  144OSM   H11A15707   0.973   0.579   2.933 -1.3072  2.9153  0.2550
  144OSM   H11B15708   0.921   0.662   2.795 -0.3142  0.7029 -0.7554
  144OSM      P15709   1.248   0.644   2.936  0.3094 -0.2386 -0.4259
  144OSM    O1315710   1.282   0.500   2.935 -0.0095 -0.4070 -0.4701
  144OSM    O1415711   1.364   0.732   2.912 -0.0943  0.4812  0.6523
  144OSM    O1115712   1.190   0.681   3.083  0.1315 -0.3286 -0.3957
  144OSM    O1215713   1.124   0.684   2.837 -0.2567 -0.6058  0.0636
  144OSM    C1S15714   1.114   0.808   3.091  0.4908  0.5612 -0.3846
  144OSM    H1S15715   1.039   0.815   3.010  1.2905  2.0783 -1.0407
  144OSM    H1T15716   1.187   0.892   3.088  1.8247 -0.2527  3.3021
  144OSM     NF15717   0.961   0.933   3.238 -0.8426 -0.4997  0.4121
  144OSM    HNF15718   0.984   1.009   3.297  0.5530  0.9987 -1.9193
  144OSM    C2S15719   1.056   0.826   3.237 -0.0464  0.3512  0.0526
  144OSM    H2S15720   1.005   0.731   3.264  0.1261  0.3531  0.3950
  144OSM    C3S15721   1.172   0.850   3.346  0.5723 -0.6236  0.8521
  144OSM    H3S15722   1.208   0.954   3.333  0.5248 -0.7407 -0.3242
  144OSM     O315723   1.293   0.779   3.325  0.6371 -0.5300 -0.2056
  144OSM    HO315724   1.286   0.732   3.242  2.7191  0.1644 -0.8320
  144OSM    C4S15725   1.120   0.832   3.486 -0.0217 -0.1436 -0.4933
  144OSM    H4S15726   1.085   0.926   3.533 -0.1114 -0.2486 -0.3507
  144OSM    C5S15727   1.126   0.711   3.547  0.6489 -0.3638 -0.2112
  144OSM    H5S15728   1.175   0.631   3.490 -1.0245 -2.4130  1.0836
  144OSM    C6S15729   1.072   0.691   3.683  1.3294  0.2022 -0.2255
  144OSM    H6S15730   0.978   0.632   3.692  0.9678  0.7640 -0.2437
  144OSM    H6T15731   1.026   0.786   3.719 -0.5643 -0.8324  0.2082
  144OSM    C7S15732   1.170   0.658   3.794  0.2806  0.6755  0.3269
  144OSM    H7S15733   1.261   0.722   3.794  1.1829 -0.5776  0.3670
  144OSM    H7T15734   1.199   0.554   3.771 -0.6169  0.8490 -1.7444
  144OSM    C8S15735   1.110   0.644   3.932 -0.1013 -0.4948  0.5016
  144OSM    H8S15736   1.032   0.565   3.927  0.1229 -0.7933  1.4758
  144OSM    H8T15737   1.058   0.735   3.968  0.0203 -0.2988  0.1835
  144OSM    C9S15738   1.210   0.614   4.048 -0.6329 -0.4387 -0.1172
  144OSM    H9S15739   1.291   0.688   4.061 -0.7227 -0.7300  2.5698
  144OSM    H9T15740   1.249   0.512   4.030  3.0927  0.8807 -0.2508
  144OSM   C10S15741   1.135   0.590   4.182 -0.9638  0.5769 -0.0069
  144OSM   H10S15742   1.059   0.513   4.158  2.7674 -3.1488 -1.1684
  144OSM   H10T15743   1.085   0.686   4.204  0.2905  1.0049  1.1429
  144OSM   C11S15744   1.237   0.551   4.294 -0.2995 -0.2624  0.5927
  144OSM   H11S15745   1.330   0.602   4.261  0.5275 -2.1483 -0.1157
  144OSM   H11T15746   1.267   0.445   4.302  0.3397 -0.2331 -1.1640
  144OSM   C12S15747   1.198   0.600   4.437  0.0629 -0.2867  0.1562
  144OSM   H12S15748   1.113   0.532   4.463 -0.2153 -0.2399 -0.5925
  144OSM   H12T15749   1.161   0.704   4.435 -1.9473 -0.8028  3.1878
  144OSM   C13S15750   1.302   0.592   4.544  0.1101  0.3005  0.0847
  144OSM   H13S15751   1.390   0.648   4.505  0.1857 -0.5788 -1.0338
  144OSM   H13T15752   1.327   0.485   4.555 -2.7073 -0.5251 -0.7510
  144OSM   C14S15753   1.261   0.637   4.684  0.1704  0.5179  0.0620
  144OSM   H14S15754   1.172   0.582   4.721  1.0051 -1.8006 -1.1372
  144OSM   H14T15755   1.223   0.741   4.674  3.7968  2.1199  1.1421
  144OSM   C15S15756   1.368   0.612   4.790  0.6242 -0.3178  0.2303
  144OSM   H15S15757   1.464   0.641   4.744  0.7379 -1.0343 -0.0090
  144OSM   H15T15758   1.395   0.506   4.809  0.2628 -0.3121  0.7960
  144OSM   C16S15759   1.337   0.684   4.923 -0.2165  0.3373 -0.7994
  144OSM   H16S15760   1.412   0.645   4.995 -0.0256 -2.4339 -2.3776
  144OSM   H16T15761   1.242   0.642   4.962  0.6330 -0.0927  0.9365
  144OSM   C17S15762   1.322   0.840   4.933 -0.2670  0.4299 -0.4028
  144OSM   H17S15763   1.259   0.884   4.853  0.3002  1.0982 -0.5013
  144OSM   H17T15764   1.423   0.881   4.909 -0.1430 -0.2479 -1.0860
  144OSM   C18S15765   1.258   0.901   5.062  0.0453 -0.3303 -0.1171
  144OSM   H18S15766   1.181   0.830   5.099  2.1692 -1.8263  1.7692
  144OSM   H18T15767   1.226   1.005   5.041  1.2701  0.1404  0.2540
  144OSM   H18U15768   1.327   0.900   5.150 -0.0261 -1.6650 -0.0624
  144OSM    C1F15769   0.842   0.930   3.175 -0.1875  0.5017 -0.4758
  144OSM     OF15770   0.809   0.843   3.098  0.1467 -0.5408  0.4337
  144OSM    C2F15771   0.748   1.038   3.215 -0.1710 -0.5356 -0.5597
  144OSM    H2F15772   0.729   1.087   3.117  0.5846  0.6187 -0.1534
  144OSM    H2G15773   0.802   1.115   3.273 -1.2330 -0.0443 -0.2022
  144OSM    C3F15774   0.619   0.988   3.289  0.3103  0.0963 -0.0160
  144OSM    H3F15775   0.637   0.917   3.373  1.9456  1.2211  0.6350
  144OSM    H3G15776   0.546   0.943   3.218  0.8625  0.0442 -0.5701
  144OSM    C4F15777   0.548   1.115   3.340  0.1977  0.1495 -0.1710
  144OSM    H4F15778   0.444   1.084   3.364 -0.0882  0.9126 -0.4323
  144OSM    H4G15779   0.532   1.196   3.266 -2.5405  0.4616  0.6863
  144OSM    C5F15780   0.607   1.168   3.477  0.1679  0.2721  0.8767
  144OSM    H5F15781   0.715   1.192   3.475 -0.2970  2.5492 -0.0686
  144OSM    H5G15782   0.599   1.085   3.550  1.0023 -1.5147 -0.9805
  144OSM    C6F15783   0.525   1.293   3.526 -0.9129 -0.1501  0.0707
  144OSM    H6F15784   0.424   1.256   3.554 -0.0257 -0.7586  2.7899
  144OSM    H6G15785   0.534   1.375   3.452  0.7548  1.9714  2.4218
  144OSM    C7F15786   0.584   1.362   3.655 -0.0186  0.2710  0.3952
  144OSM    H7F15787   0.546   1.463   3.678 -0.0798  0.0063  1.5236
  144OSM    H7G15788   0.693   1.382   3.649 -0.3700  2.3500  0.3545
  144OSM    C8F15789   0.555   1.263   3.768 -0.1154 -0.4571  0.2247
  144OSM    H8F15790   0.475   1.197   3.727 -1.5836  2.5027 -2.1578
  144OSM    H8G15791   0.510   1.325   3.848 -0.8947 -0.4126 -0.2370
  144OSM    C9F15792   0.674   1.183   3.816 -0.1480  0.5305  0.0499
  144OSM    H9F15793   0.711   1.109   3.744 -5.8762 -0.5732 -2.3052
  144OSM   C10F15794   0.728   1.183   3.943 -0.1696 -0.5861  1.2261
  144OSM   H10F15795   0.818   1.122   3.959  1.1614  0.3722 -1.8587
  144OSM   C11F15796   0.692   1.264   4.067  0.0214  0.0456  0.3146
  144OSM   H11F15797   0.582   1.254   4.080  0.2374 -3.3260  0.2369
  144OSM   H11G15798   0.717   1.371   4.050  0.3764  0.1604  1.4569
  144OSM   C12F15799   0.762   1.226   4.193 -0.4715  0.1602 -0.3453
  144OSM   H12F15800   0.873   1.226   4.187 -0.5075 -0.2797 -1.2521
  144OSM   H12G15801   0.737   1.121   4.221  2.4724 -1.2933 -2.6594
  144OSM   C13F15802   0.736   1.330   4.301  0.0374  1.1470  1.0531
  144OSM   H13F15803   0.629   1.361   4.294 -0.4220 -0.6994 -3.7487
  144OSM   H13G15804   0.792   1.419   4.266  3.6203 -1.3273 -0.0496
  144OSM   C14F15805   0.788   1.288   4.436  0.0340  0.9810 -0.0298
  144OSM   H14F15806   0.897   1.309   4.428  0.8064 -2.5055 -0.5583
  144OSM   H14G15807   0.789   1.177   4.439 -1.3759  0.9069 -1.2234
  144OSM   C15F15808   0.712   1.348   4.546  0.1252  0.5588 -0.0502
  144OSM   H15F15809   0.609   1.309   4.530 -0.0300  1.2010 -0.6448
  144OSM   H15G15810   0.719   1.459   4.539  1.5480  0.6443  1.8023
  144OSM   C16F15811   0.748   1.299   4.693  0.1579  0.1088  0.3294
  144OSM   H16F15812   0.859   1.298   4.702  0.0893  0.3757  1.3407
  144OSM   H16G15813   0.710   1.195   4.696  0.7447 -0.0857  1.7722
  144OSM   C17F15814   0.675   1.370   4.813  0.2403 -0.9957 -0.2038
  144OSM   H17F15815   0.571   1.373   4.774 -0.8175 -1.4475  2.3815
  144OSM   H17G15816   0.714   1.474   4.815  2.6436 -1.8302 -0.7456
  144OSM   C18F15817   0.678   1.302   4.946 -0.1656 -0.1752 -0.2895
  144OSM   H18F15818   0.778   1.310   4.994 -0.3446 -1.2049  0.2762
  144OSM   H18G15819   0.647   1.196   4.939 -0.5687 -0.0002 -1.3304
  144OSM   H18H15820   0.601   1.340   5.016 -0.8114 -1.8611 -0.0433
  145SAPE     N15821   0.528   0.615   7.496 -0.6235 -0.4849  0.4070
  145SAPE   HN115822   0.582   0.704   7.498  0.2999 -1.0526  1.6184
  145SAPE   HN215823   0.433   0.649   7.470 -0.0001 -0.0214 -1.4416
  145SAPE   HN315824   0.526   0.566   7.588  1.3943 -0.9377  0.2430
  145SAPE   C1215825   0.567   0.513   7.397 -0.5560 -0.7101 -0.2990
  145SAPE  H12A15826   0.643   0.448   7.446  0.4479  1.9794  1.9455
  145SAPE  H12B15827   0.632   0.555   7.316  2.9977 -0.3393  2.5032
  145SAPE   C1115828   0.445   0.429   7.350 -0.9350 -0.0107 -0.1041
  145SAPE  H11A15829   0.480   0.368   7.265 -0.2047  0.9795 -0.5355
  145SAPE  H11B15830   0.358   0.488   7.313 -0.4830 -0.9101 -2.7956
  145SAPE     P15831   0.472   0.213   7.521  0.2799 -0.3973  0.5562
  145SAPE   O1315832   0.600   0.242   7.588  0.2276  0.1763 -0.0321
  145SAPE   O1415833   0.364   0.133   7.590 -0.2466 -0.5490 -0.5774
  145SAPE   O1215834   0.408   0.345   7.454 -0.3297 -0.7688  0.1195
  145SAPE   O1115835   0.507   0.124   7.394  0.0618 -0.2030 -0.2193
  145SAPE    C115836   0.395   0.048   7.336 -0.1922 -0.1557  0.3630
  145SAPE    HA15837   0.367  -0.029   7.411 -2.0804 -0.1502 -0.2808
  145SAPE    HB15838   0.307   0.115   7.321  0.4093  0.2809 -1.4496
  145SAPE    C215839   0.427  -0.013   7.199  0.6573 -0.2233 -0.2575
  145SAPE    HS15840   0.509  -0.088   7.194  1.6319  0.8464 -0.8870
  145SAPE   O2115841   0.452   0.094   7.109 -0.0769 -0.6181 -0.1294
  145SAPE   C2115842   0.541   0.076   7.019  0.2013 -0.1294 -0.0469
  145SAPE   O2215843   0.601  -0.027   6.987 -0.0688 -0.3553 -0.1120
  145SAPE   C2215844   0.557   0.202   6.938 -0.6741  0.2901  1.0248
  145SAPE   H2R15845   0.457   0.237   6.905 -0.3278  0.5712  0.2704
  145SAPE   H2S15846   0.602   0.283   6.999 -0.4579 -0.3144  1.6970
  145SAPE    C315847   0.299  -0.094   7.163 -0.1355  0.0475 -0.5450
  145SAPE    HX15848   0.219  -0.018   7.178 -0.3433 -0.1627 -0.5873
  145SAPE    HY15849   0.282  -0.164   7.247  0.2237  0.4873 -0.0953
  145SAPE   O3115850   0.309  -0.150   7.033 -0.0182 -0.4057  0.2944
  145SAPE   C3115851   0.392  -0.253   7.027  0.2427 -1.1411 -0.1396
  145SAPE   O3215852   0.449  -0.303   7.121  0.0019 -0.4425  0.2693
  145SAPE   C3215853   0.400  -0.302   6.881 -0.5526 -0.3760 -0.5191
  145SAPE   H2X15854   0.319  -0.375   6.857  0.0311 -1.1537 -0.1773
  145SAPE   H2Y15855   0.496  -0.357   6.874  0.8100  1.1489  3.5030
  145SAPE   C2315856   0.646   0.194   6.810 -0.3747  0.3578 -0.1028
  145SAPE   H3R15857   0.607   0.120   6.737 -0.3301  0.2670 -0.0353
  145SAPE   H3S15858   0.749   0.159   6.834  0.4534  1.7723 -1.4078
  145SAPE   C2415859   0.654   0.324   6.728 -0.7243 -0.1525 -0.7313
  145SAPE   H4R15860   0.747   0.331   6.668 -0.5569  1.8171 -0.3348
  145SAPE   H4S15861   0.677   0.405   6.801 -2.4145 -1.1099  0.9680
  145SAPE   C2515862   0.526   0.374   6.655  0.0778  0.1133 -0.0215
  145SAPE   H5R15863   0.448   0.420   6.717  0.8536  1.0390  0.2867
  145SAPE   C2615864   0.503   0.364   6.522  0.4740  0.0919 -0.2867
  145SAPE   H6R15865   0.407   0.404   6.485 -1.9694 -2.9480  2.1445
  145SAPE   C2715866   0.605   0.317   6.425  1.1948  0.1331 -0.6896
  145SAPE   H7R15867   0.688   0.267   6.480  0.0427  0.6395  1.6358
  145SAPE   H7S15868   0.649   0.403   6.370  2.9678 -0.6625 -0.5729
  145SAPE   C2815869   0.557   0.216   6.327  0.0401  0.7299  0.2245
  145SAPE   H8R15870   0.554   0.114   6.370 -1.4002  1.4832  2.0243
  145SAPE   C2915871   0.538   0.245   6.193 -0.3401 -0.0720 -0.0155
  145SAPE   H9R15872   0.531   0.162   6.122  0.8249  1.8155 -2.4917
  145SAPE  C21015873   0.544   0.378   6.125 -0.1667 -0.4074  0.2291
  145SAPE  H10R15874   0.636   0.382   6.062 -0.2042  0.3009  0.2114
  145SAPE  H10S15875   0.567   0.459   6.198 -0.6841 -0.7984  0.8392
  145SAPE  C21115876   0.413   0.408   6.057 -0.1326 -0.5148  0.2356
  145SAPE  H11R15877   0.326   0.434   6.119 -1.5008  2.0082 -2.5134
  145SAPE  C21215878   0.395   0.408   5.921 -0.3135  0.0114 -0.3962
  145SAPE  H12R15879   0.303   0.453   5.881 -0.8726  0.4836  1.3562
  145SAPE  C21315880   0.502   0.382   5.819  0.2957  0.5505  0.0719
  145SAPE  H13R15881   0.555   0.288   5.845  1.6830  1.2404 -0.1942
  145SAPE  H13S15882   0.579   0.461   5.809  1.6214 -0.7752 -0.5235
  145SAPE  C21415883   0.433   0.371   5.683  0.2081 -0.1088 -0.3375
  145SAPE  H14R15884   0.380   0.274   5.678 -1.6861  0.9021 -0.8294
  145SAPE  C21515885   0.436   0.462   5.584 -0.1010  0.1361  0.3512
  145SAPE  H15R15886   0.371   0.436   5.500  2.2111 -0.2528 -1.4081
  145SAPE  C21615887   0.513   0.591   5.581 -0.2760  0.4542  0.4065
  145SAPE  H16R15888   0.597   0.584   5.654  0.5703 -0.8404 -0.6336
  145SAPE  H16S15889   0.442   0.669   5.615 -0.9788 -0.0445  0.0939
  145SAPE  C21715890   0.563   0.640   5.447 -0.5695 -0.0712 -0.1932
  145SAPE  H17R15891   0.468   0.636   5.391 -1.2901  0.4394  0.9499
  145SAPE  H17S15892   0.638   0.574   5.398  0.1543  0.1185  0.6353
  145SAPE  C21815893   0.605   0.787   5.462  0.6137  0.0729  0.7638
  145SAPE  H18R15894   0.697   0.776   5.524  1.4077 -0.4359 -0.4724
  145SAPE  H18S15895   0.523   0.846   5.508 -0.6692 -1.3968  0.4240
  145SAPE  C21915896   0.645   0.855   5.337 -0.2166 -0.4229  0.0328
  145SAPE  H19R15897   0.726   0.811   5.275 -0.7021  3.2212 -3.6707
  145SAPE  H19S15898   0.692   0.951   5.368 -1.1796  0.0606  0.0237
  145SAPE  C22015899   0.528   0.908   5.247  0.7922  0.0949 -0.2844
  145SAPE  H20R15900   0.460   0.985   5.290 -1.7147 -2.4936  0.6980
  145SAPE  H20S15901   0.456   0.831   5.213 -0.4520  1.3144 -0.4875
  145SAPE  H20T15902   0.575   0.952   5.156  0.7400  1.4789  0.3291
  145SAPE   C3315903   0.394  -0.192   6.768  0.3130 -0.2786  1.1093
  145SAPE   H3X15904   0.488  -0.133   6.761  0.0542 -0.0311 -1.0033
  145SAPE   H3Y15905   0.302  -0.129   6.768  0.1547 -0.4195 -1.2760
  145SAPE   C3415906   0.381  -0.259   6.626 -0.0858  0.2658 -0.3739
  145SAPE   H4X15907   0.302  -0.337   6.632 -0.8304  1.0356  0.0283
  145SAPE   H4Y15908   0.476  -0.311   6.602 -0.2781 -0.9985  1.3809
  145SAPE   C3515909   0.347  -0.167   6.508 -0.3085  0.7589  0.2119
  145SAPE   H5X15910   0.438  -0.104   6.511 -0.2419  0.9761 -3.1319
  145SAPE   H5Y15911   0.253  -0.109   6.525 -0.5373  0.8332 -1.2190
  145SAPE   C3615912   0.335  -0.216   6.362 -0.0586 -0.4978 -0.2340
  145SAPE   H6X15913   0.264  -0.301   6.368  0.7934 -1.2031  0.0555
  145SAPE   H6Y15914   0.439  -0.253   6.348 -0.3111 -0.7285 -1.7699
  145SAPE   C3715915   0.299  -0.109   6.259  0.2588 -0.0854 -0.8505
  145SAPE   H7X15916   0.356  -0.014   6.270 -1.7193  1.2450 -1.5711
  145SAPE   H7Y15917   0.194  -0.089   6.288  0.6920  2.0634 -0.6280
  145SAPE   C3815918   0.318  -0.156   6.115 -0.1800  0.1397 -0.5615
  145SAPE   H8X15919   0.273  -0.257   6.101 -0.5117 -0.0412  1.4978
  145SAPE   H8Y15920   0.428  -0.168   6.104  0.8925  2.3358  4.6882
  145SAPE   C3915921   0.256  -0.059   6.016 -0.1825 -0.6124  0.4830
  145SAPE   H9X15922   0.296   0.045   6.022 -0.8581 -0.2940 -0.4209
  145SAPE   H9Y15923   0.147  -0.044   6.032  0.4661  2.8524  2.8823
  145SAPE  C31015924   0.297  -0.104   5.874  0.6621 -0.3862 -0.1440
  145SAPE  H10X15925   0.297  -0.215   5.878  1.1272 -0.3774  0.1599
  145SAPE  H10Y15926   0.400  -0.063   5.864  0.6686 -0.8601 -2.5956
  145SAPE  C31115927   0.220  -0.037   5.762  0.8807 -0.1936 -0.4931
  145SAPE  H11X15928   0.213   0.069   5.791  0.3912 -0.9850  2.5769
  145SAPE  H11Y15929   0.116  -0.078   5.761  1.1770 -1.0145  0.6627
  145SAPE  C31215930   0.280  -0.050   5.625 -0.3711 -0.0453  0.9619
  145SAPE  H12X15931   0.278  -0.160   5.609 -0.3397  0.3065 -2.1133
  145SAPE  H12Y15932   0.385  -0.020   5.606 -0.4040 -0.5537 -0.1112
  145SAPE  C31315933   0.189   0.014   5.513  0.5004 -0.2895 -0.9314
  145SAPE  H13X15934   0.164   0.114   5.552 -0.8292 -0.6185 -0.8890
  145SAPE  H13Y15935   0.093  -0.043   5.521  1.5454 -2.0258 -0.0762
  145SAPE  C31415936   0.247   0.015   5.372  0.3999  0.2619  0.2508
  145SAPE  H14X15937   0.328   0.092   5.371  0.0570  0.6204 -0.7299
  145SAPE  H14Y15938   0.166   0.048   5.303  2.2262  4.0365 -0.3594
  145SAPE  C31515939   0.307  -0.119   5.323 -0.5742 -0.3230 -0.4667
  145SAPE  H15X15940   0.395  -0.144   5.386  0.0722  2.5826 -0.0939
  145SAPE  H15Y15941   0.337  -0.105   5.217 -2.3467 -2.1920 -1.2952
  145SAPE  C31615942   0.193  -0.229   5.309 -0.4940 -1.1305  0.1642
  145SAPE  H16X15943   0.153  -0.242   5.412  0.3425  0.5923  0.7468
  145SAPE  H16Y15944   0.255  -0.309   5.264  0.1768 -0.0357 -0.8983
  145SAPE  C31715945   0.077  -0.192   5.213  0.4390  0.0988  0.3333
  145SAPE  H17X15946   0.103  -0.145   5.116 -2.0623  1.8841  0.4056
  145SAPE  H17Y15947   0.007  -0.121   5.262  1.0658  1.5968 -0.8537
  145SAPE  C31815948   0.004  -0.317   5.169  0.2078  0.7152 -0.1983
  145SAPE  H18X15949  -0.071  -0.311   5.087 -0.0129 -3.1942 -0.4602
  145SAPE  H18Y15950  -0.044  -0.367   5.256  1.5751 -1.3793 -0.5895
  145SAPE  H18Z15951   0.075  -0.393   5.131 -2.3847 -1.6631 -0.5884
  146SAPE     N15952   3.309   1.407   7.174  0.1734 -0.0113  0.1912
  146SAPE   HN115953   3.251   1.396   7.259 -2.0744  1.7696 -0.9869
  146SAPE   HN215954   3.390   1.470   7.188  1.0063 -0.6562 -1.5013
  146SAPE   HN315955   3.250   1.461   7.107  1.2535  2.4961  1.1509
  146SAPE   C1215956   3.357   1.278   7.107 -0.0822 -0.5048 -0.5332
  146SAPE  H12A15957   3.272   1.246   7.044 -0.5041  1.4786 -1.0287
  146SAPE  H12B15958   3.392   1.213   7.191  0.6846 -1.1835 -1.3624
  146SAPE   C1115959   3.473   1.287   7.014 -0.2946  0.0611  0.1690
  146SAPE  H11A15960   3.438   1.354   6.932 -0.2616 -0.6541 -0.4433
  146SAPE  H11B15961   3.494   1.189   6.966  1.9226  0.4411  0.2777
  146SAPE     P15962   3.627   1.494   7.084 -0.0355  0.0069 -0.2746
  146SAPE   O1315963   3.521   1.565   7.161  0.9256 -0.5600  0.0306
  146SAPE   O1415964   3.766   1.507   7.127 -0.0596 -0.0414 -0.0694
  146SAPE   O1215965   3.587   1.342   7.086  0.3442  0.1364  0.9504
  146SAPE   O1115966   3.619   1.535   6.930  0.2326  0.1632 -0.3297
  146SAPE    C115967   3.720   1.499   6.835 -0.0817  0.9092  0.7688
  146SAPE    HA15968   3.810   1.564   6.839  1.3552 -0.7919 -1.4328
  146SAPE    HB15969   3.754   1.396   6.862 -0.4586  0.9640  1.4825
  146SAPE    C215970   3.659   1.518   6.692  0.4431 -0.1224 -0.2578
  146SAPE    HS15971   3.631   1.626   6.686 -1.8404 -0.4459  2.3721
  146SAPE   O2115972   3.544   1.440   6.669 -0.0120  0.4531 -0.6785
  146SAPE   C2115973   3.419   1.502   6.683  0.3144  0.1068 -0.4710
  146SAPE   O2215974   3.400   1.624   6.707 -0.3986  0.2377  0.3875
  146SAPE   C2215975   3.316   1.396   6.662  0.1558 -0.1830  0.0632
  146SAPE   H2R15976   3.330   1.345   6.759  2.6384  1.3800  0.6215
  146SAPE   H2S15977   3.221   1.453   6.666  0.8177  0.8877  1.1535
  146SAPE    C315978   3.762   1.480   6.587  0.1235 -0.0159 -0.0122
  146SAPE    HX15979   3.799   1.378   6.611  3.1165  0.6129 -1.5923
  146SAPE    HY15980   3.853   1.541   6.603  0.5934 -0.7946  0.3602
  146SAPE   O3115981   3.711   1.495   6.456  0.7561 -0.7604  0.5800
  146SAPE   C3115982   3.791   1.484   6.357 -0.6369 -0.0158  0.1229
  146SAPE   O3215983   3.912   1.457   6.370 -0.7183 -0.4930  0.5878
  146SAPE   C3215984   3.727   1.518   6.230  0.1698 -0.4583  0.7742
  146SAPE   H2X15985   3.662   1.608   6.230 -0.4087 -0.8649  0.2022
  146SAPE   H2Y15986   3.666   1.429   6.200 -1.3805  0.6690  0.4548
  146SAPE   C2315987   3.345   1.299   6.546  0.0663  0.2738  0.0027
  146SAPE   H3R15988   3.267   1.219   6.553  1.4704 -1.0804  0.8983
  146SAPE   H3S15989   3.442   1.247   6.563  0.3823  0.5242 -0.9674
  146SAPE   C2415990   3.351   1.371   6.407  0.2785  0.7081  0.0922
  146SAPE   H4R15991   3.412   1.463   6.416  2.9395 -1.0520  1.5412
  146SAPE   H4S15992   3.247   1.406   6.393 -0.4361  0.0298  2.9261
  146SAPE   C2515993   3.406   1.294   6.291  0.1656  0.1583 -0.3939
  146SAPE   H5R15994   3.510   1.259   6.305 -0.0640  0.6497  3.7775
  146SAPE   C2615995   3.353   1.263   6.172  0.6261 -0.2551 -0.4381
  146SAPE   H6R15996   3.413   1.212   6.096  0.9618 -1.0482  0.3299
  146SAPE   C2715997   3.204   1.301   6.137  0.2689 -0.7476  0.3499
  146SAPE   H7R15998   3.146   1.320   6.230  1.4200  3.7683  0.4108
  146SAPE   H7S15999   3.168   1.214   6.079 -2.2120 -0.6072  1.5613
  146SAPE   C2816000   3.199   1.422   6.052  0.7143  0.0538 -0.8069
  146SAPE   H8R16001   3.170   1.516   6.100 -0.2071 -1.0291  0.8886
  146SAPE   C2916002   3.227   1.426   5.919  0.3340  0.0698  0.3464
  146SAPE   H9R16003   3.218   1.519   5.862  2.5993 -0.2777 -0.7036
  146SAPE  C21016004   3.267   1.308   5.831  0.0268  0.3633 -0.1016
  146SAPE  H10R16005   3.184   1.300   5.758 -0.1937 -0.3966  0.2235
  146SAPE  H10S16006   3.276   1.209   5.881 -2.0215 -0.5570 -1.4287
  146SAPE  C21116007   3.403   1.348   5.770 -0.4928  0.3801  0.5720
  146SAPE  H11R16008   3.489   1.296   5.814 -2.1723 -2.4937  0.7184
  146SAPE  C21216009   3.422   1.403   5.647 -0.8352 -0.3333 -0.8144
  146SAPE  H12R16010   3.522   1.439   5.621 -0.5782  1.7495  2.5975
  146SAPE  C21316011   3.310   1.470   5.568  0.0671  0.6397  0.7037
  146SAPE  H13R16012   3.340   1.551   5.498  1.5211 -0.5037 -0.0471
  146SAPE  H13S16013   3.250   1.518   5.649 -1.3300  0.8118 -0.4050
  146SAPE  C21416014   3.222   1.375   5.491 -0.8863 -0.7361  0.5592
  146SAPE  H14R16015   3.203   1.278   5.539  0.1187 -1.9374 -1.3329
  146SAPE  C21516016   3.171   1.381   5.366  1.0212  0.3929 -0.1526
  146SAPE  H15R16017   3.115   1.296   5.324 -0.2687  1.1875 -0.1059
  146SAPE  C21616018   3.175   1.507   5.277  1.0204  0.4999  0.1750
  146SAPE  H16R16019   3.225   1.591   5.331 -1.4459  2.3764 -0.2827
  146SAPE  H16S16020   3.075   1.553   5.261  0.0241 -1.8345 -0.7012
  146SAPE  C21716021   3.248   1.472   5.144 -0.0872 -0.4867  0.2430
  146SAPE  H17R16022   3.257   1.564   5.083 -1.4477  0.4475  1.3759
  146SAPE  H17S16023   3.187   1.405   5.080 -0.2280 -1.7216  1.6060
  146SAPE  C21816024   3.385   1.412   5.163  0.0595  0.1376 -0.2229
  146SAPE  H18R16025   3.376   1.306   5.194  0.2196  0.2176  0.1055
  146SAPE  H18S16026   3.437   1.462   5.248 -0.4841  0.7797 -0.2595
  146SAPE  C21916027   3.467   1.421   5.029  0.0139 -0.7592 -0.0113
  146SAPE  H19R16028   3.496   1.524   4.998  0.8661 -0.0377  2.8966
  146SAPE  H19S16029   3.410   1.387   4.940 -1.2831  0.6490  0.2304
  146SAPE  C22016030   3.598   1.340   5.037  0.5624  0.0059 -0.0797
  146SAPE  H20R16031   3.634   1.332   4.932 -2.2532  1.9241 -1.3133
  146SAPE  H20S16032   3.567   1.244   5.083  0.4947  0.1901  0.2572
  146SAPE  H20T16033   3.685   1.379   5.092  2.2248 -0.8689 -1.9389
  146SAPE   C3316034   3.828   1.565   6.120  0.6435  0.5641  0.6552
  146SAPE   H3X16035   3.899   1.486   6.086  1.1350  2.0706 -2.0654
  146SAPE   H3Y16036   3.894   1.651   6.145  0.1357  1.1396  0.0550
  146SAPE   C3416037   3.754   1.599   5.988  0.0144 -0.6672 -0.0109
  146SAPE   H4X16038   3.720   1.703   6.008  2.0677  0.0139  0.1627
  146SAPE   H4Y16039   3.658   1.544   5.973  0.5096 -1.7251  0.5690
  146SAPE   C3516040   3.844   1.604   5.866 -0.3370 -0.6523  0.4895
  146SAPE   H5X16041   3.904   1.511   5.854  0.3965 -0.0324 -0.8093
  146SAPE   H5Y16042   3.913   1.689   5.884 -0.0788 -0.9443  0.9031
  146SAPE   C3616043   3.765   1.628   5.734 -0.0826  0.2464  0.4009
  146SAPE   H6X16044   3.695   1.714   5.731 -0.1760  0.1718  0.4207
  146SAPE   H6Y16045   3.712   1.531   5.725  3.6537 -2.1636  1.8466
  146SAPE   C3716046   3.850   1.636   5.598  0.0007  0.3718 -1.8392
  146SAPE   H7X16047   3.898   1.536   5.590 -0.2058 -0.0581  1.0200
  146SAPE   H7Y16048   3.914   1.722   5.626 -0.0128 -0.2077  0.1799
  146SAPE   C3816049   3.774   1.648   5.471 -0.2083  0.3657 -0.1428
  146SAPE   H8X16050   3.712   1.737   5.494  0.3516  0.7336 -0.0407
  146SAPE   H8Y16051   3.712   1.557   5.454 -0.0561  0.1548  0.4145
  146SAPE   C3916052   3.865   1.658   5.339 -0.3095 -0.0294  0.0496
  146SAPE   H9X16053   3.924   1.567   5.313  0.6944  0.9677 -1.2856
  146SAPE   H9Y16054   3.938   1.740   5.358 -0.3239  0.3710 -1.5512
  146SAPE  C31016055   3.787   1.692   5.212  0.7547  0.4909 -0.2978
  146SAPE  H10X16056   3.775   1.802   5.223 -1.7374  0.3220 -0.6939
  146SAPE  H10Y16057   3.688   1.644   5.229  1.4134 -0.9080 -0.2841
  146SAPE  C31116058   3.843   1.647   5.084  0.2110  0.4421 -0.1989
  146SAPE  H11X16059   3.816   1.541   5.064  1.9435 -0.4732  1.9909
  146SAPE  H11Y16060   3.952   1.646   5.101 -0.1174  0.2778  2.3477
  146SAPE  C31216061   3.805   1.752   4.982 -0.0261  0.5581  0.6148
  146SAPE  H12X16062   3.846   1.852   5.010  1.0530 -0.1138  1.5507
  146SAPE  H12Y16063   3.696   1.768   4.987 -0.1636 -0.4090  0.9274
  146SAPE  C31316064   3.851   1.708   4.846  0.0724 -0.0850 -0.3990
  146SAPE  H13X16065   3.958   1.677   4.851  0.1585  0.4057  2.3974
  146SAPE  H13Y16066   3.845   1.790   4.771  0.8508  0.5535  0.2213
  146SAPE  C31416067   3.772   1.585   4.801  0.3144 -0.8213  0.5497
  146SAPE  H14X16068   3.667   1.615   4.819  0.5362 -0.0867  0.6241
  146SAPE  H14Y16069   3.787   1.494   4.864  0.0241 -0.8789  0.5350
  146SAPE  C31516070   3.802   1.551   4.654 -0.5087  0.3785  0.6071
  146SAPE  H15X16071   3.827   1.645   4.599 -0.3235 -0.5380 -0.9309
  146SAPE  H15Y16072   3.724   1.493   4.600  0.5568 -1.0393  0.5540
  146SAPE  C31616073   3.920   1.458   4.644 -0.5320 -0.6216 -0.0238
  146SAPE  H16X16074   3.904   1.371   4.710 -0.3535  0.0612  0.9380
  146SAPE  H16Y16075   4.002   1.512   4.696 -0.1224  1.9464 -3.0031
  146SAPE  C31716076   3.970   1.414   4.508 -0.2822 -0.9168  0.0138
  146SAPE  H17X16077   4.075   1.380   4.526 -0.1272 -0.5009 -0.1007
  146SAPE  H17Y16078   3.969   1.503   4.442  2.9049  1.0156  2.2758
  146SAPE  C31816079   3.883   1.307   4.445 -0.5479  0.5097  0.4611
  146SAPE  H18X16080   3.811   1.359   4.379 -0.7580 -0.3389 -0.0026
  146SAPE  H18Y16081   3.825   1.246   4.517  0.0087 -0.3276  0.2246
  146SAPE  H18Z16082   3.934   1.237   4.374 -3.0131  1.8722 -2.9234
  147SAPE     N16083   1.617   4.518   7.174  0.3255  0.2825  0.8278
  147SAPE   HN116084   1.579   4.587   7.242  0.6668  0.5538  0.7436
  147SAPE   HN216085   1.558   4.434   7.190  0.2317  0.0738 -0.5397
  147SAPE   HN316086   1.717   4.506   7.200 -0.3037 -1.3298  2.8587
  147SAPE   C1216087   1.599   4.569   7.034 -0.0034  1.7668 -0.1973
  147SAPE  H12A16088   1.505   4.627   7.029  0.6769  2.9214  0.0938
  147SAPE  H12B16089   1.597   4.476   6.974 -0.2583  2.0343 -0.6104
  147SAPE   C1116090   1.719   4.651   6.996  0.0791  0.0114  0.6425
  147SAPE  H11A16091   1.730   4.690   6.893  1.9973 -0.4571  0.6313
  147SAPE  H11B16092   1.810   4.588   6.998  1.2332  1.6244  2.0098
  147SAPE     P16093   1.843   4.860   7.103 -0.2215 -0.4128  0.2352
  147SAPE   O1316094   1.803   4.989   7.163 -0.8528  0.0250  0.1248
  147SAPE   O1416095   1.950   4.780   7.164 -0.1136  0.7409 -0.5142
  147SAPE   O1216096   1.723   4.769   7.083  0.3346 -0.0083 -0.0582
  147SAPE   O1116097   1.882   4.889   6.952 -0.0455  0.5330 -1.0709
  147SAPE    C116098   1.784   4.968   6.874 -0.2865  0.1571 -0.4122
  147SAPE    HA16099   1.708   4.902   6.827 -1.6182  0.2423  1.4790
  147SAPE    HB16100   1.728   5.047   6.929  0.4446 -0.5229  1.3916
  147SAPE    C216101   1.858   5.048   6.767 -0.1925 -0.0160 -0.5741
  147SAPE    HS16102   1.781   5.082   6.694 -2.0620 -1.9981  0.3661
  147SAPE   O2116103   1.949   4.958   6.706 -0.4023  0.4870  0.7904
  147SAPE   C2116104   1.890   4.870   6.624  0.2093 -0.0373 -0.4796
  147SAPE   O2216105   1.770   4.865   6.593 -0.3034  0.0377 -0.0220
  147SAPE   C2216106   1.998   4.770   6.578  0.0213 -0.3231 -0.3535
  147SAPE   H2R16107   2.045   4.825   6.494 -2.5617 -1.9115 -3.0271
  147SAPE   H2S16108   2.070   4.755   6.662 -0.0114 -1.0010 -0.4451
  147SAPE    C316109   1.942   5.162   6.823 -0.5670 -0.3998 -0.2884
  147SAPE    HX16110   2.029   5.125   6.881 -0.3044  2.2224  1.1522
  147SAPE    HY16111   1.886   5.224   6.897  1.8446  1.6071 -0.0238
  147SAPE   O3116112   1.988   5.246   6.717  0.2276  0.2249  0.1072
  147SAPE   C3116113   2.097   5.216   6.654  0.1850  0.4476  1.0877
  147SAPE   O3216114   2.175   5.128   6.686 -0.3212  0.1633  0.2261
  147SAPE   C3216115   2.123   5.302   6.531 -0.5993  0.3020 -0.0837
  147SAPE   H2X16116   2.234   5.305   6.519 -0.0967  1.5590  3.6583
  147SAPE   H2Y16117   2.095   5.410   6.536  0.4000  0.5942 -0.4244
  147SAPE   C2316118   1.955   4.636   6.532 -0.3521  0.5218  0.2556
  147SAPE   H3R16119   1.908   4.583   6.617  0.1178 -0.7085 -0.2255
  147SAPE   H3S16120   2.035   4.560   6.517 -2.2517 -2.4487  3.7988
  147SAPE   C2416121   1.859   4.636   6.406 -0.6754 -0.4329 -1.0212
  147SAPE   H4R16122   1.779   4.712   6.414 -1.3683 -1.0298 -1.9668
  147SAPE   H4S16123   1.806   4.538   6.407  1.1612 -1.4809 -0.6805
  147SAPE   C2516124   1.928   4.648   6.268 -0.0693 -0.0890 -0.1939
  147SAPE   H5R16125   1.987   4.739   6.250  0.4851 -0.0602  1.5313
  147SAPE   C2616126   1.931   4.554   6.176  0.3370 -0.9875 -0.0799
  147SAPE   H6R16127   1.990   4.564   6.083 -1.6784 -2.6890 -1.6544
  147SAPE   C2716128   1.864   4.420   6.186 -0.4159  0.0809  0.0208
  147SAPE   H7R16129   1.869   4.380   6.290 -1.7409  0.2969  0.1799
  147SAPE   H7S16130   1.914   4.342   6.125 -1.2570 -1.4473  1.2016
  147SAPE   C2816131   1.719   4.426   6.144 -0.1119  0.2235 -0.1958
  147SAPE   H8R16132   1.641   4.445   6.219 -1.3599 -1.9845 -0.8289
  147SAPE   C2916133   1.683   4.417   6.016  0.2336 -0.2305 -0.2094
  147SAPE   H9R16134   1.576   4.423   5.990 -0.0147  3.8095  1.1683
  147SAPE  C21016135   1.777   4.389   5.905  0.1168 -0.5151 -0.7842
  147SAPE  H10R16136   1.775   4.279   5.894 -2.4378 -0.7566  1.1118
  147SAPE  H10S16137   1.880   4.419   5.933 -0.0764  0.5774 -1.1940
  147SAPE  C21116138   1.741   4.462   5.773  0.3000 -0.2827 -0.3260
  147SAPE  H11R16139   1.744   4.571   5.784  0.9843 -0.3239 -0.0869
  147SAPE  C21216140   1.705   4.411   5.656  0.1202 -0.2570 -0.0106
  147SAPE  H12R16141   1.676   4.485   5.579  2.2340  0.4259 -0.2433
  147SAPE  C21316142   1.702   4.264   5.614  0.8341  0.1820 -0.6744
  147SAPE  H13R16143   1.709   4.200   5.705 -2.4698  1.2223  0.4744
  147SAPE  H13S16144   1.785   4.240   5.545  0.7036 -0.1525 -0.7159
  147SAPE  C21416145   1.566   4.236   5.550  0.2059 -0.2921 -0.2451
  147SAPE  H14R16146   1.479   4.275   5.606  0.8458  0.2610  0.3880
  147SAPE  C21516147   1.534   4.187   5.428 -0.5192  0.4019 -1.2369
  147SAPE  H15R16148   1.431   4.151   5.412 -0.3020 -1.6875  1.5428
  147SAPE  C21616149   1.634   4.140   5.324 -0.8768  0.3126 -0.5433
  147SAPE  H16R16150   1.598   4.043   5.285 -0.1488 -0.2931  0.2636
  147SAPE  H16S16151   1.737   4.130   5.363 -0.3605  0.3279 -1.8679
  147SAPE  C21716152   1.647   4.234   5.206 -0.3849  0.0328  1.1142
  147SAPE  H17R16153   1.546   4.227   5.160 -0.5946  1.3848  1.3561
  147SAPE  H17S16154   1.729   4.199   5.138 -0.2033  1.5073  0.5517
  147SAPE  C21816155   1.675   4.382   5.235  0.1355  0.2873 -0.2693
  147SAPE  H18R16156   1.749   4.378   5.318  0.4745 -1.1886 -0.6104
  147SAPE  H18S16157   1.578   4.420   5.273 -0.1723 -2.0410  1.4532
  147SAPE  C21916158   1.732   4.468   5.119  0.5044  0.0617 -0.6009
  147SAPE  H19R16159   1.799   4.416   5.048 -3.3862  1.0111 -5.5289
  147SAPE  H19S16160   1.775   4.565   5.151  3.2335 -0.4836 -2.3733
  147SAPE  C22016161   1.609   4.507   5.028 -0.3807 -0.5484  0.3084
  147SAPE  H20R16162   1.545   4.417   5.018  0.5572 -1.1934  0.0075
  147SAPE  H20S16163   1.654   4.547   4.935  0.4024 -0.4774  0.7078
  147SAPE  H20T16164   1.550   4.588   5.077  1.0401 -0.7681  2.5679
  147SAPE   C3316165   2.056   5.246   6.408  0.4726  0.2589  0.3532
  147SAPE   H3X16166   2.040   5.320   6.327 -0.9836 -0.4212 -0.0282
  147SAPE   H3Y16167   1.954   5.205   6.428  0.2253  1.1741  1.0337
  147SAPE   C3416168   2.145   5.137   6.331  0.1601  0.4761 -0.7881
  147SAPE   H4X16169   2.185   5.068   6.409 -0.9832 -1.2288 -1.6403
  147SAPE   H4Y16170   2.228   5.204   6.301  0.5052  0.4631  0.0935
  147SAPE   C3516171   2.066   5.070   6.225 -0.0884  0.1770  0.3735
  147SAPE   H5X16172   2.007   5.138   6.160 -1.5387 -0.0570  1.3995
  147SAPE   H5Y16173   1.986   5.009   6.271  1.9563 -0.7896  2.8903
  147SAPE   C3616174   2.140   4.983   6.117  0.3638 -0.4471  0.9456
  147SAPE   H6X16175   2.195   4.903   6.170 -0.5304 -2.3248 -0.8548
  147SAPE   H6Y16176   2.225   5.046   6.082  0.9979 -1.3752  0.8013
  147SAPE   C3716177   2.042   4.953   6.000  0.9064  0.4667  0.3285
  147SAPE   H7X16178   2.015   5.041   5.938 -1.5348 -0.5774 -0.2033
  147SAPE   H7Y16179   1.947   4.919   6.047  1.0316 -2.0104 -1.0451
  147SAPE   C3816180   2.076   4.833   5.916  0.3144 -0.2933  0.9301
  147SAPE   H8X16181   2.078   4.742   5.979  0.7698 -0.7703  0.2439
  147SAPE   H8Y16182   2.183   4.851   5.891 -0.0809 -0.2689 -0.8655
  147SAPE   C3916183   1.986   4.824   5.794 -0.4485 -0.7274  0.3968
  147SAPE   H9X16184   1.993   4.916   5.733 -2.4064 -0.6780  0.1708
  147SAPE   H9Y16185   1.885   4.830   5.839  0.2628  0.7425  1.9013
  147SAPE  C31016186   2.000   4.707   5.701 -0.0939 -0.3565  0.7092
  147SAPE  H10X16187   1.929   4.711   5.616 -0.2299  2.7197  0.8682
  147SAPE  H10Y16188   1.997   4.610   5.755 -0.4916 -1.0556 -0.5375
  147SAPE  C31116189   2.138   4.704   5.627 -0.4017 -0.1643  0.5487
  147SAPE  H11X16190   2.165   4.601   5.594  0.4743  0.2726 -0.1666
  147SAPE  H11Y16191   2.209   4.742   5.703 -0.9575 -0.4170  1.1992
  147SAPE  C31216192   2.137   4.791   5.498  0.3060 -0.4513  0.3048
  147SAPE  H12X16193   2.083   4.887   5.506  0.7921  0.2433 -3.2016
  147SAPE  H12Y16194   2.077   4.730   5.428  1.6635 -2.8742  1.1050
  147SAPE  C31316195   2.285   4.817   5.443  0.0450 -0.1082 -0.5261
  147SAPE  H13X16196   2.343   4.841   5.535  0.1318  0.2493 -0.6718
  147SAPE  H13Y16197   2.291   4.900   5.369  0.8035  0.0345 -0.3133
  147SAPE  C31416198   2.337   4.687   5.381 -0.4229  0.3690 -0.3392
  147SAPE  H14X16199   2.275   4.681   5.289 -1.9688 -0.8812  0.7466
  147SAPE  H14Y16200   2.309   4.601   5.444 -1.7614 -0.5226 -2.0518
  147SAPE  C31516201   2.487   4.682   5.335  0.0944 -0.4018  0.0909
  147SAPE  H15X16202   2.502   4.596   5.267  0.9319  0.4211 -0.7811
  147SAPE  H15Y16203   2.559   4.685   5.419  0.3081  1.1641 -0.1103
  147SAPE  C31616204   2.529   4.797   5.241 -0.1613 -0.0485 -0.4529
  147SAPE  H16X16205   2.569   4.875   5.310 -1.4141 -0.4519  0.7837
  147SAPE  H16Y16206   2.435   4.835   5.196  1.2346  1.9211 -1.9074
  147SAPE  C31716207   2.626   4.776   5.130  0.3806  0.0077 -0.3910
  147SAPE  H17X16208   2.728   4.762   5.172  0.8318  0.8620 -1.1514
  147SAPE  H17Y16209   2.626   4.863   5.060  0.8084  1.1019  0.9391
  147SAPE  C31816210   2.579   4.661   5.037 -0.5603 -0.6738  0.4350
  147SAPE  H18X16211   2.485   4.686   4.982 -1.6506 -0.6166  2.2276
  147SAPE  H18Y16212   2.571   4.564   5.090  0.4072  0.1721  2.1859
  147SAPE  H18Z16213   2.659   4.636   4.964 -0.0631  0.6318  0.5168
  148SAPE     N16214   6.157   6.783   7.405 -0.1232 -0.0123 -0.0322
  148SAPE   HN116215   6.092   6.791   7.324  0.6665 -1.4555 -0.8742
  148SAPE   HN216216   6.148   6.682   7.431 -1.7339 -0.5687 -2.4174
  148SAPE   HN316217   6.125   6.847   7.480  1.4067  1.3817 -0.5050
  148SAPE   C1216218   6.298   6.809   7.356 -0.1234  0.1562 -0.0025
  148SAPE  H12A16219   6.296   6.912   7.314  0.4032 -0.2107 -0.9599
  148SAPE  H12B16220   6.312   6.736   7.273 -3.5245 -1.8365  0.9872
  148SAPE   C1116221   6.403   6.797   7.466  0.5857  0.5233  0.4039
  148SAPE  H11A16222   6.398   6.882   7.539  0.0524  0.6172  0.2629
  148SAPE  H11B16223   6.507   6.807   7.428  1.8548 -0.4987  3.2937
  148SAPE     P16224   6.448   6.538   7.481  0.1454  0.7412  0.4542
  148SAPE   O1316225   6.592   6.528   7.507 -0.3822  0.2292 -0.1445
  148SAPE   O1416226   6.357   6.440   7.540  0.2682 -0.1341  0.3775
  148SAPE   O1216227   6.388   6.678   7.530  0.2771 -0.4581 -0.3806
  148SAPE   O1116228   6.433   6.545   7.323  0.0175  0.3223 -0.1941
  148SAPE    C116229   6.547   6.539   7.236  0.0662  0.1454  0.4786
  148SAPE    HA16230   6.613   6.455   7.268 -0.1522  0.4530  1.7747
  148SAPE    HB16231   6.508   6.519   7.134 -1.9619 -0.7899  1.3870
  148SAPE    C216232   6.628   6.672   7.224 -0.0662 -0.5565 -0.0901
  148SAPE    HS16233   6.660   6.706   7.325  1.1005  2.3715 -1.3317
  148SAPE   O2116234   6.541   6.772   7.177 -0.3360  0.2271  0.0735
  148SAPE   C2116235   6.590   6.888   7.178 -0.0037  0.4315 -0.5551
  148SAPE   O2216236   6.694   6.925   7.236 -0.1808 -0.3120  0.4579
  148SAPE   C2216237   6.496   6.987   7.108 -0.1148  0.2601  0.4121
  148SAPE   H2R16238   6.495   6.976   6.998  1.0533 -0.1292  0.4270
  148SAPE   H2S16239   6.391   6.962   7.136 -0.5700  0.0112 -1.4328
  148SAPE    C316240   6.756   6.644   7.135  0.2502  0.3411  0.7075
  148SAPE    HX16241   6.817   6.562   7.178 -2.0524 -2.4616 -0.9971
  148SAPE    HY16242   6.816   6.737   7.129  1.4613 -0.2023  3.0957
  148SAPE   O3116243   6.702   6.613   7.001 -0.1639  0.3592 -0.1857
  148SAPE   C3116244   6.784   6.532   6.931 -0.2580 -0.4630 -0.0570
  148SAPE   O3216245   6.892   6.500   6.964  0.2450  0.3211  0.3872
  148SAPE   C3216246   6.718   6.493   6.797 -0.4854  0.5100  0.0682
  148SAPE   H2X16247   6.607   6.498   6.796 -0.7125 -2.6120 -0.8249
  148SAPE   H2Y16248   6.749   6.388   6.777  0.2573  0.8549 -0.6184
  148SAPE   C2316249   6.531   7.126   7.141  0.6361 -0.1978 -0.5188
  148SAPE   H3R16250   6.640   7.140   7.123  0.6698 -1.7870 -1.7953
  148SAPE   H3S16251   6.522   7.149   7.249  0.6105  1.4852 -0.8548
  148SAPE   C2416252   6.460   7.219   7.037 -0.3662 -0.7735 -0.1146
  148SAPE   H4R16253   6.354   7.197   7.013 -0.9662  3.0752 -1.8415
  148SAPE   H4S16254   6.502   7.195   6.937 -0.9012 -1.7828 -0.1083
  148SAPE   C2516255   6.474   7.364   7.075 -0.1927 -0.2284 -0.1643
  148SAPE   H5R16256   6.469   7.387   7.183  2.6160  1.8677 -0.3603
  148SAPE   C2616257   6.477   7.468   6.988 -0.2356  0.2691  0.3390
  148SAPE   H6R16258   6.486   7.571   7.023 -1.0575  0.1761  0.8450
  148SAPE   C2716259   6.477   7.446   6.841  0.1541 -0.0312  0.4627
  148SAPE   H7R16260   6.434   7.539   6.798 -2.9045 -1.1186  0.9083
  148SAPE   H7S16261   6.409   7.365   6.806  0.0169  0.0124  0.6304
  148SAPE   C2816262   6.601   7.403   6.763 -0.3887 -0.2301  0.5994
  148SAPE   H8R16263   6.671   7.328   6.801  2.3633  1.4353 -0.8266
  148SAPE   C2916264   6.627   7.438   6.635 -0.2309  0.1687 -0.0046
  148SAPE   H9R16265   6.717   7.400   6.586 -0.0174  3.4021 -2.4408
  148SAPE  C21016266   6.541   7.516   6.539 -0.0912 -0.0257  0.3311
  148SAPE  H10R16267   6.473   7.585   6.593  0.5209 -0.1620  1.3071
  148SAPE  H10S16268   6.468   7.451   6.486 -0.6877  1.4417 -0.7320
  148SAPE  C21116269   6.625   7.595   6.437  0.1687  0.6794 -0.5770
  148SAPE  H11R16270   6.720   7.637   6.473  0.2829  1.8723 -2.1537
  148SAPE  C21216271   6.595   7.598   6.305 -0.6615 -0.3346  0.4704
  148SAPE  H12R16272   6.672   7.647   6.243 -1.1476  1.2176  1.0501
  148SAPE  C21316273   6.474   7.565   6.228 -0.1082  0.0490  0.5242
  148SAPE  H13R16274   6.400   7.521   6.299 -1.0726  2.3786  1.0702
  148SAPE  H13S16275   6.490   7.476   6.164 -3.7087  0.2382 -0.8678
  148SAPE  C21416276   6.418   7.679   6.143 -0.4053  0.0378 -0.3373
  148SAPE  H14R16277   6.356   7.753   6.196 -2.0384 -1.6677  0.2770
  148SAPE  C21516278   6.450   7.702   6.014 -0.3751 -0.7319  0.1273
  148SAPE  H15R16279   6.411   7.795   5.970  1.8803  0.5901  0.7611
  148SAPE  C21616280   6.535   7.611   5.931  0.1917  0.2715  0.1455
  148SAPE  H16R16281   6.596   7.544   5.994 -0.9303 -0.3512  0.5949
  148SAPE  H16S16282   6.612   7.675   5.881 -0.4014  0.6082 -0.3575
  148SAPE  C21716283   6.472   7.528   5.815  0.3638  0.4441  0.2528
  148SAPE  H17R16284   6.406   7.452   5.863  0.8220 -0.2245 -0.1615
  148SAPE  H17S16285   6.558   7.480   5.765  2.0433  3.5847 -0.1182
  148SAPE  C21816286   6.405   7.609   5.707  0.2375 -0.5820  0.0225
  148SAPE  H18R16287   6.480   7.658   5.642 -0.5427 -0.2276 -0.6375
  148SAPE  H18S16288   6.332   7.684   5.744  0.1860  0.1856 -1.5454
  148SAPE  C21916289   6.312   7.522   5.624 -0.3231  0.6180 -0.0871
  148SAPE  H19R16290   6.256   7.585   5.552 -2.9364 -2.1198 -0.6775
  148SAPE  H19S16291   6.244   7.475   5.698 -0.4627  1.1293  0.1079
  148SAPE  C22016292   6.372   7.404   5.555  0.6953 -0.4447 -0.7857
  148SAPE  H20R16293   6.379   7.318   5.625  0.9132 -0.6021 -1.0023
  148SAPE  H20S16294   6.478   7.415   5.523  0.5932 -1.7413 -1.6368
  148SAPE  H20T16295   6.310   7.359   5.475 -0.0434 -0.1074 -0.4210
  148SAPE   C3316296   6.778   6.577   6.680  0.5420  1.0807 -0.0090
  148SAPE   H3X16297   6.887   6.556   6.685 -0.1426 -3.9139 -0.3939
  148SAPE   H3Y16298   6.751   6.683   6.698 -0.9666  0.8226 -0.5680
  148SAPE   C3416299   6.724   6.528   6.543 -0.6466 -0.9709  0.0902
  148SAPE   H4X16300   6.615   6.511   6.548 -0.9105  0.9687  2.4516
  148SAPE   H4Y16301   6.785   6.438   6.517  1.2918  0.2360  0.2400
  148SAPE   C3516302   6.750   6.635   6.429  0.4556  0.2060 -0.0572
  148SAPE   H5X16303   6.857   6.651   6.405  1.2210 -1.3915  1.9704
  148SAPE   H5Y16304   6.698   6.731   6.450  0.5662  0.2712 -0.0808
  148SAPE   C3616305   6.697   6.580   6.296  0.5909 -0.2306  0.3033
  148SAPE   H6X16306   6.597   6.533   6.311  0.1505  0.2151 -1.0169
  148SAPE   H6Y16307   6.761   6.495   6.263  0.1514  0.0712 -1.4528
  148SAPE   C3716308   6.690   6.696   6.185 -0.2907  0.2320 -0.8829
  148SAPE   H7X16309   6.792   6.739   6.176  0.2623 -1.2203 -2.1645
  148SAPE   H7Y16310   6.609   6.765   6.218  0.1686  0.8236 -0.9879
  148SAPE   C3816311   6.662   6.651   6.042 -0.2703  0.3893 -0.0931
  148SAPE   H8X16312   6.570   6.589   6.032  0.3699 -0.8615  1.2980
  148SAPE   H8Y16313   6.746   6.584   6.015 -1.2825 -0.7500 -0.5113
  148SAPE   C3916314   6.655   6.759   5.938  0.2807 -0.2540 -0.0253
  148SAPE   H9X16315   6.744   6.824   5.953  0.4600 -0.5081  0.0167
  148SAPE   H9Y16316   6.565   6.820   5.965  0.5465 -0.5198  1.5626
  148SAPE  C31016317   6.658   6.705   5.796 -0.0143 -0.4136 -0.3504
  148SAPE  H10X16318   6.572   6.638   5.775  0.9004 -0.8937 -2.9434
  148SAPE  H10Y16319   6.751   6.646   5.785 -1.1846 -2.4058 -0.0840
  148SAPE  C31116320   6.642   6.816   5.682  0.1034  0.1512 -0.1421
  148SAPE  H11X16321   6.739   6.866   5.663 -1.0466  2.0037 -1.3933
  148SAPE  H11Y16322   6.576   6.903   5.704  0.1963  0.7699 -2.1087
  148SAPE  C31216323   6.605   6.756   5.543 -0.6408  0.5743  0.0820
  148SAPE  H12X16324   6.504   6.708   5.547 -0.3075 -0.1206  0.3021
  148SAPE  H12Y16325   6.671   6.670   5.520  0.3537  0.7363  2.0840
  148SAPE  C31316326   6.619   6.849   5.430  0.1732  0.1016  0.5280
  148SAPE  H13X16327   6.727   6.864   5.409  0.5532 -0.6484  1.8207
  148SAPE  H13Y16328   6.569   6.946   5.451 -1.8020 -0.9108  0.7578
  148SAPE  C31416329   6.557   6.783   5.300 -0.1630  0.0608  0.6141
  148SAPE  H14X16330   6.450   6.760   5.319 -0.5615  0.9988 -0.3645
  148SAPE  H14Y16331   6.613   6.689   5.284  0.0854  0.2637  0.2781
  148SAPE  C31516332   6.584   6.883   5.191 -0.2856  0.5696 -0.2692
  148SAPE  H15X16333   6.693   6.895   5.175 -0.1867 -0.2111 -0.2137
  148SAPE  H15Y16334   6.543   6.980   5.225  1.4988  1.1208  0.4584
  148SAPE  C31616335   6.518   6.857   5.051 -0.3042 -0.5182  0.6430
  148SAPE  H16X16336   6.496   6.948   4.992 -1.3294 -2.3238 -1.9533
  148SAPE  H16Y16337   6.418   6.813   5.074 -1.1294  1.0029  0.0649
  148SAPE  C31716338   6.591   6.767   4.952 -0.8210  0.0418 -0.5118
  148SAPE  H17X16339   6.604   6.663   4.991  2.0216  0.3636 -0.4339
  148SAPE  H17Y16340   6.692   6.811   4.943 -1.5712  2.1973  0.8006
  148SAPE  C31816341   6.531   6.772   4.810  0.2787  0.0423 -0.1797
  148SAPE  H18X16342   6.429   6.729   4.817 -0.1448  0.9750 -0.4511
  148SAPE  H18Y16343   6.585   6.703   4.740  0.4812  0.4576 -0.4382
  148SAPE  H18Z16344   6.521   6.876   4.771  0.1899 -0.4966 -1.6679
  149SAPE     N16345   5.771   5.273   6.927 -0.0784 -0.0031 -0.0229
  149SAPE   HN116346   5.802   5.341   7.000  2.5714  0.1619 -1.1709
  149SAPE   HN216347   5.795   5.324   6.840  2.3991  1.0104  1.1483
  149SAPE   HN316348   5.667   5.266   6.931  0.0212 -3.6100 -0.3502
  149SAPE   C1216349   5.840   5.141   6.952 -0.0042 -0.5617  0.4328
  149SAPE  H12A16350   5.787   5.056   6.905 -0.4138  0.8114 -1.6978
  149SAPE  H12B16351   5.846   5.125   7.062  0.6945  0.7552  0.6070
  149SAPE   C1116352   5.985   5.158   6.899 -0.2083 -0.1741  0.1618
  149SAPE  H11A16353   6.000   5.178   6.791  0.9171 -0.2195  0.2959
  149SAPE  H11B16354   6.036   5.061   6.917 -1.7275 -0.8978  0.7140
  149SAPE     P16355   6.134   5.268   7.084  0.4986 -0.2895 -0.2491
  149SAPE   O1316356   6.215   5.389   7.088  0.4110  0.0634  0.3506
  149SAPE   O1416357   6.050   5.239   7.203 -0.1042  0.3052 -0.1716
  149SAPE   O1216358   6.042   5.272   6.961  0.2212  0.1224 -0.4501
  149SAPE   O1116359   6.226   5.142   7.065  0.7927  0.0719  0.1708
  149SAPE    C116360   6.358   5.149   7.006  0.1021 -0.3365 -0.4689
  149SAPE    HA16361   6.418   5.231   7.051  1.3606 -1.2361 -0.4692
  149SAPE    HB16362   6.415   5.062   7.044  3.4866  2.2636  0.9186
  149SAPE    C216363   6.361   5.143   6.855 -0.0444 -0.2040 -0.0553
  149SAPE    HS16364   6.302   5.229   6.816  0.4230  1.1918  2.1323
  149SAPE   O2116365   6.320   5.017   6.807 -0.2157  0.6682  0.2699
  149SAPE   C2116366   6.259   5.019   6.692  0.3106  0.7828 -0.0491
  149SAPE   O2216367   6.208   5.118   6.638 -0.2484  0.5383 -0.0201
  149SAPE   C2216368   6.270   4.874   6.629  0.0550  0.1583 -0.7324
  149SAPE   H2R16369   6.376   4.842   6.640 -0.0933 -0.1547 -0.2054
  149SAPE   H2S16370   6.204   4.805   6.687  1.2861 -0.8931 -0.5242
  149SAPE    C316371   6.504   5.171   6.807  0.0146 -0.4778  0.2611
  149SAPE    HX16372   6.563   5.081   6.837 -1.8671 -1.7102  0.4222
  149SAPE    HY16373   6.542   5.262   6.857  0.0442 -1.0661  1.3280
  149SAPE   O3116374   6.510   5.175   6.663 -0.0278  0.1144 -0.2938
  149SAPE   C3116375   6.468   5.294   6.615 -0.2942  0.6053  0.0820
  149SAPE   O3216376   6.454   5.391   6.688  1.0014 -0.3929  0.3227
  149SAPE   C3216377   6.442   5.283   6.464  0.2922 -0.6930 -0.3975
  149SAPE   H2X16378   6.335   5.255   6.456  0.0324  0.3433 -0.7274
  149SAPE   H2Y16379   6.499   5.198   6.421  2.0486  0.6512 -0.8749
  149SAPE   C2316380   6.230   4.863   6.486  1.0958  0.6013 -0.1966
  149SAPE   H3R16381   6.122   4.885   6.469  0.9644 -1.1952 -2.0536
  149SAPE   H3S16382   6.243   4.755   6.465 -1.6004  0.1039  0.2160
  149SAPE   C2416383   6.310   4.944   6.390 -0.0825 -0.2063 -0.7869
  149SAPE   H4R16384   6.419   4.933   6.409 -0.4407 -2.0096  0.4898
  149SAPE   H4S16385   6.275   5.047   6.408 -0.3867 -0.3008 -0.8271
  149SAPE   C2516386   6.290   4.911   6.240 -0.3296 -0.4589 -0.1484
  149SAPE   H5R16387   6.336   4.817   6.206  1.1263 -0.0677  0.6916
  149SAPE   C2616388   6.243   4.990   6.141  0.4128 -0.4749  0.0018
  149SAPE   H6R16389   6.235   4.943   6.042 -1.3844  1.2864 -0.7482
  149SAPE   C2716390   6.181   5.133   6.132 -0.2976  0.4621 -0.7545
  149SAPE   H7R16391   6.230   5.196   6.209 -0.8517 -0.2777  0.2231
  149SAPE   H7S16392   6.077   5.135   6.172  0.2210 -0.7476  0.7331
  149SAPE   C2816393   6.187   5.206   5.999  1.0898 -0.1501 -0.3423
  149SAPE   H8R16394   6.284   5.250   5.971  1.8614 -1.0482  0.8191
  149SAPE   C2916395   6.083   5.239   5.920 -0.5144 -0.2928  0.3624
  149SAPE   H9R16396   6.111   5.279   5.821  1.4015 -0.5770  0.7426
  149SAPE  C21016397   5.945   5.200   5.944  0.2560 -0.2719  0.1345
  149SAPE  H10R16398   5.940   5.121   6.022  0.6190 -0.6499 -0.2129
  149SAPE  H10S16399   5.913   5.162   5.844 -0.9292  1.4190 -0.1683
  149SAPE  C21116400   5.854   5.321   5.971 -0.9082  0.4454 -0.3989
  149SAPE  H11R16401   5.831   5.342   6.076  0.5262  0.8597 -0.1481
  149SAPE  C21216402   5.765   5.374   5.884  0.6464 -0.0764 -0.6025
  149SAPE  H12R16403   5.710   5.464   5.917  0.9077  0.1836 -0.8658
  149SAPE  C21316404   5.762   5.351   5.734  0.2605 -0.1483  0.0807
  149SAPE  H13R16405   5.687   5.413   5.680  1.3145  0.5685 -0.6019
  149SAPE  H13S16406   5.736   5.244   5.721 -0.0502 -0.3742  2.1595
  149SAPE  C21416407   5.888   5.392   5.666  0.4387  1.0515 -0.2594
  149SAPE  H14R16408   5.935   5.484   5.704  0.4631  1.9095 -2.2052
  149SAPE  C21516409   5.934   5.340   5.547 -0.0610 -0.2913 -0.2693
  149SAPE  H15R16410   6.035   5.367   5.515 -0.1230  0.1943 -0.0493
  149SAPE  C21616411   5.880   5.217   5.476  0.6627  0.1828  0.7634
  149SAPE  H16R16412   5.798   5.176   5.540  1.5761 -0.0480  1.8184
  149SAPE  H16S16413   5.957   5.138   5.483  0.3859 -0.0436  1.3545
  149SAPE  C21716414   5.825   5.246   5.334 -0.6004 -0.1162 -0.0761
  149SAPE  H17R16415   5.804   5.151   5.280 -0.7413 -0.7541  1.0678
  149SAPE  H17S16416   5.902   5.307   5.282 -0.3584 -0.5534 -0.2321
  149SAPE  C21816417   5.699   5.324   5.338  0.7546 -0.2617 -0.3225
  149SAPE  H18R16418   5.706   5.415   5.402 -0.1738  0.7753 -1.6377
  149SAPE  H18S16419   5.616   5.257   5.367  0.0598  1.0515  0.8417
  149SAPE  C21916420   5.667   5.367   5.196  0.2971 -0.1381  0.1216
  149SAPE  H19R16421   5.627   5.283   5.134 -2.3316  0.1415  1.3001
  149SAPE  H19S16422   5.758   5.422   5.164  1.1652 -0.3307  2.1607
  149SAPE  C22016423   5.544   5.457   5.181  0.1055  0.1766 -1.0624
  149SAPE  H20R16424   5.472   5.409   5.251 -0.0978 -0.7446 -1.8733
  149SAPE  H20S16425   5.511   5.475   5.076  2.7764  1.5956 -1.7359
  149SAPE  H20T16426   5.567   5.559   5.217  3.2012 -0.6531 -0.4038
  149SAPE   C3316427   6.490   5.408   6.390  0.6086 -0.4839  0.3059
  149SAPE   H3X16428   6.587   5.455   6.419  0.4277 -1.1141  2.0337
  149SAPE   H3Y16429   6.421   5.494   6.401 -0.2005 -1.1100  0.1703
  149SAPE   C3416430   6.495   5.377   6.238 -0.2239 -0.6588 -0.2175
  149SAPE   H4X16431   6.392   5.360   6.202  0.3482 -1.0481 -1.7448
  149SAPE   H4Y16432   6.555   5.285   6.223 -0.3902 -0.9012  0.5886
  149SAPE   C3516433   6.551   5.492   6.151  0.3812  0.1207 -0.4442
  149SAPE   H5X16434   6.653   5.508   6.193  0.1393  2.3028 -0.5839
  149SAPE   H5Y16435   6.495   5.585   6.170  0.3981  0.0685 -0.1236
  149SAPE   C3616436   6.550   5.465   6.008 -0.2955  0.4011  0.4047
  149SAPE   H6X16437   6.455   5.421   5.971  2.1785 -3.9712 -1.5257
  149SAPE   H6Y16438   6.631   5.393   5.981  0.9295  1.9302 -0.1706
  149SAPE   C3716439   6.581   5.597   5.934  0.4519 -0.3457 -1.2075
  149SAPE   H7X16440   6.682   5.625   5.969 -0.4521 -2.1113  3.5098
  149SAPE   H7Y16441   6.526   5.686   5.971  2.2881  0.6528 -0.7802
  149SAPE   C3816442   6.570   5.591   5.785  0.4219 -1.0816 -0.7756
  149SAPE   H8X16443   6.468   5.551   5.766  0.0029 -1.2084  1.4382
  149SAPE   H8Y16444   6.656   5.528   5.754  2.6487  1.1213  0.6112
  149SAPE   C3916445   6.593   5.735   5.733 -0.2008 -0.0074  0.4619
  149SAPE   H9X16446   6.677   5.778   5.793  0.4150  1.1155 -1.1376
  149SAPE   H9Y16447   6.497   5.788   5.750 -0.3964 -0.0514 -0.4584
  149SAPE  C31016448   6.629   5.740   5.582 -0.7177 -0.6663  0.0765
  149SAPE  H10X16449   6.543   5.708   5.519 -1.7226  1.2722  0.3863
  149SAPE  H10Y16450   6.698   5.655   5.564  0.2794  0.0679  0.3503
  149SAPE  C31116451   6.671   5.877   5.532  0.1852 -0.2952  0.6325
  149SAPE  H11X16452   6.759   5.903   5.594  1.6880 -1.2743 -1.0233
  149SAPE  H11Y16453   6.588   5.949   5.551  1.3536  1.2266  0.1472
  149SAPE  C31216454   6.694   5.878   5.376 -0.1677 -0.1420  0.6067
  149SAPE  H12X16455   6.596   5.857   5.329  0.9617 -2.3794 -0.8865
  149SAPE  H12Y16456   6.750   5.792   5.336 -2.4375  0.5107 -4.8886
  149SAPE  C31316457   6.746   6.013   5.326  0.2031  0.3693 -0.1527
  149SAPE  H13X16458   6.809   5.998   5.235 -1.7926 -0.7031 -1.4194
  149SAPE  H13Y16459   6.803   6.062   5.408  0.8432  0.8468 -0.8731
  149SAPE  C31416460   6.645   6.113   5.285  0.3435 -0.0889  0.0850
  149SAPE  H14X16461   6.686   6.216   5.285  0.0262  0.0377  0.2229
  149SAPE  H14Y16462   6.566   6.114   5.363  1.1470  0.1769  0.9223
  149SAPE  C31516463   6.577   6.087   5.150 -0.9384 -0.1489  0.2940
  149SAPE  H15X16464   6.532   5.986   5.149 -0.4663 -0.3751  1.3156
  149SAPE  H15Y16465   6.651   6.090   5.067  0.3909  1.0469  1.4721
  149SAPE  C31616466   6.470   6.198   5.121  0.0160  0.1051 -0.4561
  149SAPE  H16X16467   6.524   6.294   5.104  1.1504 -0.4404 -0.0948
  149SAPE  H16Y16468   6.403   6.199   5.209  0.2047  1.3836 -0.2988
  149SAPE  C31716469   6.389   6.162   4.995 -0.5573  0.4168  0.1909
  149SAPE  H17X16470   6.312   6.083   5.012  0.0465  0.1281  1.7670
  149SAPE  H17Y16471   6.458   6.127   4.916 -0.7644  0.8415 -0.1829
  149SAPE  C31816472   6.311   6.278   4.928  0.5878  1.2326  0.1853
  149SAPE  H18X16473   6.384   6.357   4.901 -0.1053  1.5090 -0.9121
  149SAPE  H18Y16474   6.220   6.308   4.984 -2.3801 -2.5667 -2.0724
  149SAPE  H18Z16475   6.271   6.232   4.835 -0.3581  0.1356  1.1005
  150SAPE     N16476   2.653   1.890   6.963 -0.3148 -0.4276 -0.0568
  150SAPE   HN116477   2.729   1.826   6.933  0.1319 -1.3676  2.8056
  150SAPE   HN216478   2.673   1.992   6.950 -2.5499  0.2852  1.4358
  150SAPE   HN316479   2.640   1.881   7.066  0.7606  0.5710  0.1968
  150SAPE   C1216480   2.521   1.841   6.901 -0.2316 -0.5251 -1.0287
  150SAPE  H12A16481   2.517   1.867   6.793  1.4278 -0.3607 -1.0837
  150SAPE  H12B16482   2.433   1.891   6.947  0.9692 -0.1697  1.0155
  150SAPE   C1116483   2.502   1.693   6.918  0.6005  0.4968 -0.2725
  150SAPE  H11A16484   2.492   1.666   7.026 -1.1365  2.0135 -0.0055
  150SAPE  H11B16485   2.593   1.641   6.882 -0.4120 -3.5277  2.2385
  150SAPE     P16486   2.354   1.487   6.870 -0.3843 -0.3372  0.0238
  150SAPE   O1316487   2.426   1.416   6.981  0.1522 -0.2904 -0.7822
  150SAPE   O1416488   2.207   1.460   6.864  0.4280  0.2338  0.5950
  150SAPE   O1216489   2.382   1.642   6.863 -0.4749  0.3823 -0.4698
  150SAPE   O1116490   2.420   1.438   6.731 -0.0331  0.2573  0.1417
  150SAPE    C116491   2.440   1.522   6.620  0.3094  0.4458  0.1309
  150SAPE    HA16492   2.469   1.625   6.651  1.3690  0.6957 -1.5238
  150SAPE    HB16493   2.537   1.502   6.570  0.4785  0.5871  0.4001
  150SAPE    C216494   2.318   1.529   6.527 -0.7712  0.0550  0.1930
  150SAPE    HS16495   2.229   1.516   6.592 -1.3948 -0.1852 -0.7082
  150SAPE   O2116496   2.334   1.417   6.436  0.4133 -0.2912  0.0828
  150SAPE   C2116497   2.234   1.339   6.431  0.1195  0.8918  0.4689
  150SAPE   O2216498   2.124   1.341   6.483  0.1122 -0.5293 -0.3097
  150SAPE   C2216499   2.280   1.224   6.339  0.3567  0.0576  0.0136
  150SAPE   H2R16500   2.389   1.218   6.323  0.1183 -0.0443 -1.8423
  150SAPE   H2S16501   2.251   1.130   6.391  0.6989 -1.0434 -1.6637
  150SAPE    C316502   2.314   1.660   6.448  0.6918  0.4011 -0.5575
  150SAPE    HX16503   2.407   1.672   6.390  0.6282 -1.7443 -1.1878
  150SAPE    HY16504   2.305   1.745   6.518  0.4836  1.0447 -1.3434
  150SAPE   O3116505   2.200   1.667   6.360 -0.1163 -0.4164 -0.9021
  150SAPE   C3116506   2.080   1.691   6.416  0.0104 -0.1688  0.0809
  150SAPE   O3216507   2.063   1.694   6.535  0.5010 -0.1116 -0.5721
  150SAPE   C3216508   1.975   1.707   6.307 -0.5936 -0.1485 -0.1392
  150SAPE   H2X16509   1.993   1.628   6.230 -1.8256 -1.0495  0.4582
  150SAPE   H2Y16510   1.997   1.807   6.265 -2.5099  0.5094  0.3241
  150SAPE   C2316511   2.204   1.229   6.211  0.0804 -0.5412  0.4365
  150SAPE   H3R16512   2.095   1.244   6.229  0.6597  1.5549  2.6282
  150SAPE   H3S16513   2.202   1.134   6.153  1.8190 -0.9976  1.0805
  150SAPE   C2416514   2.248   1.350   6.125 -0.6642  0.7061 -0.1920
  150SAPE   H4R16515   2.223   1.448   6.172  0.8534  0.5260  1.0741
  150SAPE   H4S16516   2.185   1.341   6.034 -2.2052 -1.2722  0.9898
  150SAPE   C2516517   2.398   1.351   6.088  0.5197  0.4808 -0.0866
  150SAPE   H5R16518   2.461   1.414   6.153 -2.1944  1.8983  1.3592
  150SAPE   C2616519   2.453   1.290   5.977  0.8665 -0.9774  0.1393
  150SAPE   H6R16520   2.563   1.301   5.969  0.7277  0.4575 -0.2110
  150SAPE   C2716521   2.382   1.216   5.868  0.4053 -0.1649 -0.1990
  150SAPE   H7R16522   2.301   1.279   5.825 -1.2912 -2.7947 -1.0874
  150SAPE   H7S16523   2.327   1.132   5.916 -1.5921  0.9938 -0.3486
  150SAPE   C2816524   2.481   1.162   5.768 -0.3362 -0.2916  1.2499
  150SAPE   H8R16525   2.587   1.162   5.795  0.2030 -1.4764 -0.7004
  150SAPE   C2916526   2.442   1.131   5.643 -0.0616 -0.1970  0.6112
  150SAPE   H9R16527   2.512   1.070   5.585 -0.8723 -1.5499  1.0329
  150SAPE  C21016528   2.304   1.126   5.586  0.2173 -0.4143  0.0597
  150SAPE  H10R16529   2.246   1.196   5.651  0.4018 -2.1338  2.2125
  150SAPE  H10S16530   2.242   1.039   5.614 -0.3971 -0.0405 -0.1133
  150SAPE  C21116531   2.306   1.171   5.445 -0.1466 -0.6979  1.6800
  150SAPE  H11R16532   2.365   1.260   5.419 -1.1896 -0.3751  0.3239
  150SAPE  C21216533   2.245   1.091   5.345  0.4420  0.2240 -0.4830
  150SAPE  H12R16534   2.254   1.136   5.245 -0.7361  2.4376  0.3134
  150SAPE  C21316535   2.160   0.964   5.365 -0.5592 -0.2183  0.5367
  150SAPE  H13R16536   2.071   0.967   5.299  0.7390 -1.7650 -1.3951
  150SAPE  H13S16537   2.107   0.964   5.463 -2.6847 -0.1177 -0.5665
  150SAPE  C21416538   2.245   0.842   5.344 -0.0768 -0.1767 -0.0802
  150SAPE  H14R16539   2.337   0.828   5.401  0.1911  0.8920 -0.2339
  150SAPE  C21516540   2.216   0.746   5.250 -0.3631 -0.3636  0.2520
  150SAPE  H15R16541   2.286   0.664   5.227 -0.6685 -0.6590  0.3631
  150SAPE  C21616542   2.088   0.747   5.167 -0.0852 -0.6123 -0.1331
  150SAPE  H16R16543   2.097   0.821   5.085  2.9575 -0.0622  0.5770
  150SAPE  H16S16544   2.003   0.782   5.228 -0.9195 -2.5889 -0.0671
  150SAPE  C21716545   2.052   0.608   5.121 -0.0026 -0.1164 -0.0848
  150SAPE  H17R16546   2.074   0.531   5.198 -2.9083  0.0368  1.0406
  150SAPE  H17S16547   2.110   0.586   5.030  1.4216 -0.1227  0.7975
  150SAPE  C21816548   1.900   0.593   5.095 -0.1368 -0.9607 -0.2848
  150SAPE  H18R16549   1.838   0.610   5.186  2.6208 -1.6809  1.8750
  150SAPE  H18S16550   1.880   0.487   5.067 -0.9293 -0.4898 -1.5878
  150SAPE  C21916551   1.852   0.680   4.981  0.0940 -0.5857  0.1000
  150SAPE  H19R16552   1.910   0.642   4.894  1.0154 -0.2895  0.5688
  150SAPE  H19S16553   1.867   0.789   4.999 -0.2314 -0.5025 -0.1322
  150SAPE  C22016554   1.694   0.665   4.960 -0.3949 -0.9177 -0.0880
  150SAPE  H20R16555   1.675   0.575   4.897 -2.5081  0.7537 -2.0223
  150SAPE  H20S16556   1.662   0.758   4.908  1.4794 -0.3305 -0.2629
  150SAPE  H20T16557   1.647   0.657   5.060  2.1116  0.7617  1.3163
  150SAPE   C3316558   1.832   1.720   6.357  0.0024  0.3658 -0.0508
  150SAPE   H3X16559   1.812   1.809   6.420 -3.6353 -0.6561  0.4917
  150SAPE   H3Y16560   1.806   1.633   6.421  1.5289  0.5466  0.8588
  150SAPE   C3416561   1.735   1.750   6.242 -0.4392  0.0512 -0.0766
  150SAPE   H4X16562   1.754   1.852   6.203 -2.1883  0.4535  0.0636
  150SAPE   H4Y16563   1.637   1.754   6.293 -0.0482  0.0091  0.6912
  150SAPE   C3516564   1.747   1.659   6.119 -0.7623 -0.1833  0.4033
  150SAPE   H5X16565   1.851   1.656   6.082 -1.0350  0.2662 -0.4168
  150SAPE   H5Y16566   1.688   1.706   6.037  2.8033  0.4254 -2.0245
  150SAPE   C3616567   1.713   1.510   6.154  0.1249 -0.3633  0.0551
  150SAPE   H6X16568   1.762   1.478   6.248  0.6142  1.1962  0.3521
  150SAPE   H6Y16569   1.749   1.441   6.075 -0.2304 -0.5335  0.0373
  150SAPE   C3716570   1.567   1.487   6.190  0.1600  0.5126  0.3914
  150SAPE   H7X16571   1.521   1.538   6.277 -0.6257 -2.8155  2.1077
  150SAPE   H7Y16572   1.553   1.379   6.210  1.6663  0.6566  2.5273
  150SAPE   C3816573   1.471   1.531   6.080  0.6107 -0.2875  0.8700
  150SAPE   H8X16574   1.494   1.633   6.044 -0.6682 -1.1017 -2.6355
  150SAPE   H8Y16575   1.370   1.515   6.124  0.6053 -3.4412 -0.0745
  150SAPE   C3916576   1.489   1.446   5.955  0.1565  0.1560 -0.3370
  150SAPE   H9X16577   1.484   1.335   5.963 -0.3725 -0.0747 -2.8386
  150SAPE   H9Y16578   1.588   1.467   5.911 -0.6688  0.6011 -2.0942
  150SAPE  C31016579   1.398   1.498   5.847 -0.0511  0.3125  0.4375
  150SAPE  H10X16580   1.410   1.606   5.825  1.3764 -0.4594 -3.2412
  150SAPE  H10Y16581   1.297   1.471   5.885 -0.0562  1.5332  1.3595
  150SAPE  C31116582   1.417   1.427   5.711 -0.1053  0.1289 -0.0249
  150SAPE  H11X16583   1.428   1.318   5.725  0.3722  0.3297  1.2613
  150SAPE  H11Y16584   1.507   1.467   5.659 -0.0642  1.2077  0.8339
  150SAPE  C31216585   1.292   1.444   5.623 -0.1046 -0.4396  0.4557
  150SAPE  H12X16586   1.270   1.550   5.597 -1.4578 -0.5106  1.1972
  150SAPE  H12Y16587   1.198   1.416   5.677 -0.0821 -0.8564  0.2896
  150SAPE  C31316588   1.296   1.372   5.492  0.6891  0.0999  0.8794
  150SAPE  H13X16589   1.351   1.276   5.482  1.3913  0.4757  1.0996
  150SAPE  H13Y16590   1.341   1.448   5.425 -1.1940  1.7350  1.3718
  150SAPE  C31416591   1.148   1.343   5.453  0.3625 -0.0503 -0.6087
  150SAPE  H14X16592   1.100   1.441   5.476  1.3297 -0.0412  1.5843
  150SAPE  H14Y16593   1.106   1.273   5.528  0.7426 -2.5630 -2.6154
  150SAPE  C31516594   1.137   1.287   5.308  0.1435 -0.0899  0.0449
  150SAPE  H15X16595   1.034   1.255   5.282  0.4670 -1.1154 -0.0050
  150SAPE  H15Y16596   1.201   1.197   5.304  0.3762 -0.0191  1.6439
  150SAPE  C31616597   1.185   1.383   5.200  0.4122 -0.3213 -0.6040
  150SAPE  H16X16598   1.290   1.409   5.224  0.5974 -1.2342 -0.3895
  150SAPE  H16Y16599   1.120   1.473   5.191 -0.2170 -0.9461 -3.3698
  150SAPE  C31716600   1.191   1.321   5.062 -0.3020 -0.2620 -0.1567
  150SAPE  H17X16601   1.269   1.242   5.059 -2.7491 -2.8517 -0.1434
  150SAPE  H17Y16602   1.223   1.401   4.992 -0.5701 -1.6954 -1.9845
  150SAPE  C31816603   1.067   1.258   5.003  0.7985  0.6546 -0.2019
  150SAPE  H18X16604   1.048   1.162   5.056  1.7504 -0.7259 -2.2463
  150SAPE  H18Y16605   1.080   1.220   4.900 -1.2598 -2.0964  0.4329
  150SAPE  H18Z16606   0.986   1.334   5.004  1.4551  1.3875  1.1904
  151SAPE     N16607   3.170   6.579   7.439  0.1593 -0.4103 -0.2598
  151SAPE   HN116608   3.126   6.485   7.429  1.4140 -0.7938 -3.9798
  151SAPE   HN216609   3.270   6.553   7.431 -0.1489 -1.2327 -1.8606
  151SAPE   HN316610   3.147   6.619   7.532  0.4092 -0.5747 -0.1281
  151SAPE   C1216611   3.132   6.663   7.326 -0.3119  0.8510  0.2725
  151SAPE  H12A16612   3.029   6.704   7.332 -0.0355  1.6199 -0.0691
  151SAPE  H12B16613   3.152   6.606   7.233 -0.4188 -0.0403  0.7921
  151SAPE   C1116614   3.226   6.785   7.319  0.2986  0.4568 -0.1041
  151SAPE  H11A16615   3.197   6.849   7.405  1.6252 -0.4289  1.0508
  151SAPE  H11B16616   3.206   6.841   7.225  0.9331 -1.7007 -1.5909
  151SAPE     P16617   3.475   6.768   7.230 -0.1170  0.4454  0.3230
  151SAPE   O1316618   3.472   6.913   7.199 -0.4386 -0.5493  0.7504
  151SAPE   O1416619   3.600   6.710   7.272  0.0049  0.3945  0.0475
  151SAPE   O1216620   3.367   6.741   7.336  0.1430 -0.4422 -0.3479
  151SAPE   O1116621   3.408   6.685   7.108 -0.0075 -0.2535 -0.0041
  151SAPE    C116622   3.487   6.587   7.037 -0.3011  0.7146 -0.0676
  151SAPE    HA16623   3.558   6.529   7.099 -2.0284 -1.4339  0.0222
  151SAPE    HB16624   3.416   6.521   6.981  0.7443 -1.7534  1.3780
  151SAPE    C216625   3.583   6.652   6.927  0.3829  0.1111  0.5577
  151SAPE    HS16626   3.663   6.703   6.986  1.3480 -0.5296 -0.1745
  151SAPE   O2116627   3.497   6.741   6.853 -0.5584  0.5160 -0.3208
  151SAPE   C2116628   3.548   6.832   6.778  0.6390 -0.7103  0.6334
  151SAPE   O2216629   3.666   6.874   6.782  0.0122 -0.2080  0.2782
  151SAPE   C2216630   3.442   6.870   6.667 -0.1392 -0.0448 -0.9184
  151SAPE   H2R16631   3.440   6.777   6.607  1.5247  0.7247 -2.2696
  151SAPE   H2S16632   3.339   6.885   6.706  0.4414  0.8310  0.3680
  151SAPE    C316633   3.654   6.540   6.836 -0.3668 -0.2949 -0.3386
  151SAPE    HX16634   3.575   6.463   6.821 -0.3909 -0.2852 -0.2619
  151SAPE    HY16635   3.747   6.498   6.879  0.2469  1.0878 -0.2516
  151SAPE   O3116636   3.689   6.590   6.701 -0.1494  0.1877 -0.6773
  151SAPE   C3116637   3.777   6.515   6.643 -0.9896 -0.4442 -0.7598
  151SAPE   O3216638   3.835   6.420   6.697  0.3574  0.3478  0.5380
  151SAPE   C3216639   3.802   6.566   6.500  0.2872  0.0119 -0.0296
  151SAPE   H2X16640   3.889   6.505   6.467 -1.1215 -1.3072 -1.5639
  151SAPE   H2Y16641   3.847   6.667   6.502 -0.8195  0.5298 -0.3719
  151SAPE   C2316642   3.498   6.987   6.582  0.0650 -0.5585  0.0340
  151SAPE   H3R16643   3.591   6.944   6.541 -0.0198 -2.3806  1.5947
  151SAPE   H3S16644   3.524   7.075   6.645 -0.2102  0.6604 -1.4874
  151SAPE   C2416645   3.392   7.038   6.474 -0.0283  0.2093 -0.0380
  151SAPE   H4R16646   3.352   6.953   6.414 -1.2761  0.9788 -0.3456
  151SAPE   H4S16647   3.444   7.105   6.402  0.2268  0.1087  0.0533
  151SAPE   C2516648   3.270   7.106   6.530  0.4273  0.4250 -0.5028
  151SAPE   H5R16649   3.246   7.095   6.636 -0.0994  4.0464 -0.1176
  151SAPE   C2616650   3.178   7.176   6.463 -0.1280 -0.2785  0.0374
  151SAPE   H6R16651   3.091   7.219   6.514  0.2293  0.2306  0.2273
  151SAPE   C2716652   3.182   7.176   6.315 -1.2426 -0.2344 -0.6011
  151SAPE   H7R16653   3.217   7.078   6.275 -1.9958  0.2827 -2.6970
  151SAPE   H7S16654   3.258   7.247   6.275  0.0432 -0.4070  1.4196
  151SAPE   C2816655   3.039   7.218   6.264 -0.5690  0.5422 -0.0211
  151SAPE   H8R16656   2.967   7.212   6.347  1.1829 -0.9320  1.4653
  151SAPE   C2916657   3.013   7.228   6.132 -0.6826 -0.1788 -0.7122
  151SAPE   H9R16658   2.915   7.265   6.100 -0.7984  0.5111  0.4083
  151SAPE  C21016659   3.118   7.214   6.024  0.2196 -0.4480 -0.4829
  151SAPE  H10R16660   3.118   7.116   5.972 -1.4596 -0.3089 -0.8130
  151SAPE  H10S16661   3.217   7.220   6.073 -0.7251 -2.7641  2.0016
  151SAPE  C21116662   3.111   7.327   5.919 -0.2990  0.6385 -0.2550
  151SAPE  H11R16663   3.069   7.413   5.972 -0.2305 -1.6265  3.8999
  151SAPE  C21216664   3.162   7.330   5.795 -0.0672 -0.4485  0.3831
  151SAPE  H12R16665   3.153   7.425   5.740 -2.3207 -0.6585  0.2962
  151SAPE  C21316666   3.245   7.225   5.733  0.0743  0.6373  0.6104
  151SAPE  H13R16667   3.173   7.156   5.684 -0.7922  0.3459  2.2268
  151SAPE  H13S16668   3.286   7.165   5.817 -1.2128  1.3202  1.7798
  151SAPE  C21416669   3.355   7.267   5.639  0.7626  0.2504  0.2707
  151SAPE  H14R16670   3.456   7.251   5.680  0.9275 -0.0582 -0.2447
  151SAPE  C21516671   3.349   7.318   5.517 -0.3447 -0.6911 -0.1867
  151SAPE  H15R16672   3.444   7.332   5.463 -0.2257  2.5361  0.6727
  151SAPE  C21616673   3.228   7.358   5.437 -0.6725 -0.1021  0.4879
  151SAPE  H16R16674   3.254   7.453   5.384  1.0724 -0.5220  0.5540
  151SAPE  H16S16675   3.149   7.374   5.513 -0.5466  1.0270  0.4089
  151SAPE  C21716676   3.191   7.246   5.336 -0.1169 -0.3966 -0.6539
  151SAPE  H17R16677   3.088   7.276   5.304 -0.6826 -2.0569 -0.5156
  151SAPE  H17S16678   3.181   7.145   5.381  1.4230 -1.0319 -1.6655
  151SAPE  C21816679   3.277   7.228   5.215 -0.2090 -0.0807  0.6085
  151SAPE  H18R16680   3.230   7.141   5.165 -2.2334  0.3553  1.6388
  151SAPE  H18S16681   3.379   7.201   5.251 -0.4917  0.5308  1.9024
  151SAPE  C21916682   3.277   7.345   5.117  0.0071  0.8212  0.7344
  151SAPE  H19R16683   3.328   7.433   5.161  0.4710  1.7333 -1.5108
  151SAPE  H19S16684   3.172   7.374   5.095  0.1249  0.3759 -0.4554
  151SAPE  C22016685   3.348   7.316   4.984 -0.2666 -0.4442 -0.0404
  151SAPE  H20R16686   3.300   7.231   4.932 -1.6887 -0.2875  0.9711
  151SAPE  H20S16687   3.449   7.275   5.002 -0.3824 -1.5006 -1.5669
  151SAPE  H20T16688   3.352   7.407   4.919 -2.8179  0.6946  1.2442
  151SAPE   C3316689   3.684   6.543   6.409  0.0239  0.2027 -0.4110
  151SAPE   H3X16690   3.618   6.629   6.429  0.1278  0.0715  0.5311
  151SAPE   H3Y16691   3.621   6.453   6.428  0.8836 -0.0918  1.2191
  151SAPE   C3416692   3.730   6.541   6.259  0.9994  0.1798  0.5782
  151SAPE   H4X16693   3.777   6.441   6.249  2.7244  0.9067  1.0280
  151SAPE   H4Y16694   3.816   6.609   6.247 -0.1373  1.7496  0.9894
  151SAPE   C3516695   3.615   6.580   6.161  0.0366  1.0148 -0.7781
  151SAPE   H5X16696   3.672   6.558   6.069 -1.8255 -2.0708 -1.3301
  151SAPE   H5Y16697   3.587   6.688   6.168  0.8245  1.1745  0.3616
  151SAPE   C3616698   3.490   6.501   6.181  0.6586  0.5407  0.1832
  151SAPE   H6X16699   3.454   6.523   6.284  1.8441  1.0807  0.4986
  151SAPE   H6Y16700   3.504   6.391   6.178 -1.5009  0.2319 -0.0173
  151SAPE   C3716701   3.377   6.543   6.080 -0.1312 -0.4544 -0.5757
  151SAPE   H7X16702   3.382   6.654   6.086  1.0554 -0.5462  0.4879
  151SAPE   H7Y16703   3.281   6.490   6.096 -0.1291 -1.9680 -4.4352
  151SAPE   C3816704   3.404   6.482   5.943  0.9368 -0.4231  0.8784
  151SAPE   H8X16705   3.405   6.371   5.948  0.6236 -0.4935 -0.2142
  151SAPE   H8Y16706   3.507   6.513   5.915  0.7920  0.3697  1.1965
  151SAPE   C3916707   3.298   6.520   5.834  0.4404  0.5851 -0.7010
  151SAPE   H9X16708   3.301   6.631   5.829  0.5108  0.6744  0.8135
  151SAPE   H9Y16709   3.197   6.491   5.872  0.9421 -2.4006 -1.4230
  151SAPE  C31016710   3.324   6.468   5.690  0.0525  0.1541 -0.3572
  151SAPE  H10X16711   3.433   6.467   5.668  0.1440  0.3373  0.0828
  151SAPE  H10Y16712   3.269   6.524   5.612 -0.3247  0.2370 -0.0375
  151SAPE  C31116713   3.265   6.320   5.672  0.0730  0.5809  0.4066
  151SAPE  H11X16714   3.167   6.333   5.723 -1.2150 -3.6707 -0.6086
  151SAPE  H11Y16715   3.332   6.246   5.720  0.7283 -0.7684 -2.3864
  151SAPE  C31216716   3.239   6.271   5.530  0.5092  0.6390  0.2203
  151SAPE  H12X16717   3.178   6.352   5.485 -0.7018 -0.4355 -0.1204
  151SAPE  H12Y16718   3.178   6.179   5.543 -0.2045  0.9430 -0.9057
  151SAPE  C31316719   3.356   6.244   5.447 -0.3078 -0.1056 -0.2614
  151SAPE  H13X16720   3.396   6.142   5.466 -1.3682 -0.4974 -0.0584
  151SAPE  H13Y16721   3.438   6.319   5.448  0.5635 -1.0391  0.4988
  151SAPE  C31416722   3.314   6.212   5.299 -0.2526  0.6203  0.0460
  151SAPE  H14X16723   3.226   6.144   5.294 -0.0755  0.3041  0.9635
  151SAPE  H14Y16724   3.403   6.171   5.247 -0.4641  1.0723 -0.6841
  151SAPE  C31516725   3.270   6.337   5.221  0.0042  0.1078 -0.3488
  151SAPE  H15X16726   3.357   6.407   5.217  1.1901 -1.1501  1.5657
  151SAPE  H15Y16727   3.186   6.383   5.277  0.1513  1.2068 -1.0060
  151SAPE  C31616728   3.206   6.315   5.081 -0.3499 -0.5628  0.3456
  151SAPE  H16X16729   3.141   6.402   5.060 -0.5613 -0.7904  0.0587
  151SAPE  H16Y16730   3.141   6.226   5.093  0.7939 -1.2434  2.0268
  151SAPE  C31716731   3.290   6.270   4.959  0.3066 -0.0456 -1.0353
  151SAPE  H17X16732   3.356   6.185   4.987 -0.3772  0.0495  1.0513
  151SAPE  H17Y16733   3.354   6.357   4.934 -0.2132  0.7142  0.1882
  151SAPE  C31816734   3.208   6.242   4.838  0.0494  0.5859 -0.4598
  151SAPE  H18X16735   3.135   6.164   4.870  1.3710 -1.4692 -2.1521
  151SAPE  H18Y16736   3.283   6.208   4.763  1.7494  2.0258  0.5152
  151SAPE  H18Z16737   3.156   6.332   4.799  0.3573 -0.0785 -2.5301
  152SAPE     N16738   4.560   2.521   7.048  0.4390  0.2954 -0.3954
  152SAPE   HN116739   4.578   2.621   7.025  0.9462  0.7153  1.6307
  152SAPE   HN216740   4.593   2.451   6.978  0.6755  0.1925 -0.1815
  152SAPE   HN316741   4.458   2.506   7.058  0.7254 -1.6340  0.0959
  152SAPE   C1216742   4.641   2.481   7.170 -0.3631  0.1410  0.0343
  152SAPE  H12A16743   4.602   2.548   7.250  0.0161 -0.7667  0.9930
  152SAPE  H12B16744   4.747   2.511   7.155 -0.5002  0.0699 -1.2390
  152SAPE   C1116745   4.623   2.333   7.194  0.2853 -0.0434  0.3572
  152SAPE  H11A16746   4.522   2.313   7.238 -0.4429 -0.6815 -1.5040
  152SAPE  H11B16747   4.703   2.307   7.267  1.3938 -0.2567 -0.9147
  152SAPE     P16748   4.740   2.147   7.046 -0.1788 -0.0721  0.4421
  152SAPE   O1316749   4.881   2.203   7.052  0.2078 -0.1172 -0.5739
  152SAPE   O1416750   4.701   2.028   7.131  0.6586  0.2889  0.3334
  152SAPE   O1216751   4.639   2.258   7.070  0.0188  0.3050 -0.2111
  152SAPE   O1116752   4.713   2.106   6.895  0.3051  0.2324  0.1568
  152SAPE    C116753   4.581   2.068   6.857 -0.5769 -0.0267  0.5143
  152SAPE    HA16754   4.543   1.983   6.919 -1.5003 -0.3826 -0.5014
  152SAPE    HB16755   4.512   2.153   6.876  0.6864  0.7755  1.7396
  152SAPE    C216756   4.571   2.016   6.712  0.2708  0.6381  0.7402
  152SAPE    HS16757   4.465   1.998   6.685  0.6927 -1.2619  0.2121
  152SAPE   O2116758   4.642   1.898   6.700 -0.1317 -0.2800  0.0278
  152SAPE   C2116759   4.579   1.784   6.651 -0.0405  0.3630  0.5689
  152SAPE   O2216760   4.463   1.776   6.625 -0.9400  0.2289 -0.1464
  152SAPE   C2216761   4.680   1.676   6.627 -0.8961 -0.0665  0.3586
  152SAPE   H2R16762   4.780   1.701   6.670 -0.8421 -0.0949  0.2503
  152SAPE   H2S16763   4.651   1.574   6.661  1.1342 -0.9576 -0.4294
  152SAPE    C316764   4.632   2.126   6.612 -0.3581  0.0855  0.1415
  152SAPE    HX16765   4.731   2.146   6.657 -0.3663 -0.9027  0.6436
  152SAPE    HY16766   4.578   2.223   6.616 -0.2684  0.0967  1.3543
  152SAPE   O3116767   4.645   2.084   6.477  0.1787  0.0790 -0.0327
  152SAPE   C3116768   4.527   2.078   6.413  0.1699  1.2432 -0.6316
  152SAPE   O3216769   4.425   2.117   6.459  0.1931  0.3432  0.1361
  152SAPE   C3216770   4.554   2.019   6.273 -0.6245  0.2000  1.0797
  152SAPE   H2X16771   4.577   1.911   6.281 -2.3616 -0.1370  2.2442
  152SAPE   H2Y16772   4.643   2.071   6.233 -1.2027  0.0433 -0.4835
  152SAPE   C2316773   4.686   1.655   6.474 -0.0747 -0.4593 -0.0425
  152SAPE   H3R16774   4.698   1.758   6.435 -0.1174 -1.0671 -1.7604
  152SAPE   H3S16775   4.598   1.610   6.423 -1.3020  0.3269  1.3114
  152SAPE   C2416776   4.819   1.597   6.434 -0.8704  0.5862  0.3808
  152SAPE   H4R16777   4.903   1.635   6.496 -0.8193 -0.3021  0.8794
  152SAPE   H4S16778   4.851   1.622   6.331 -2.2942  2.4771  0.3554
  152SAPE   C2516779   4.808   1.444   6.471 -0.1170  0.1131  0.0341
  152SAPE   H5R16780   4.783   1.417   6.575 -0.6101  1.1054  0.1869
  152SAPE   C2616781   4.836   1.340   6.388 -0.0441  1.1106 -0.0769
  152SAPE   H6R16782   4.835   1.237   6.427 -0.5792  0.5383 -1.5379
  152SAPE   C2716783   4.865   1.344   6.238  0.1523  0.2890  0.4229
  152SAPE   H7R16784   4.906   1.245   6.210 -0.6843 -0.1071  0.5742
  152SAPE   H7S16785   4.944   1.421   6.223  0.0919  1.1341  3.6803
  152SAPE   C2816786   4.739   1.397   6.153 -0.2447 -0.4077  1.1169
  152SAPE   H8R16787   4.696   1.496   6.174  1.0575  0.4466 -0.1111
  152SAPE   C2916788   4.695   1.324   6.054  0.2487  0.0078 -0.3729
  152SAPE   H9R16789   4.626   1.364   5.978  2.0000  0.9938 -1.5167
  152SAPE  C21016790   4.750   1.185   6.016  0.1649 -0.2098 -0.7565
  152SAPE  H10R16791   4.760   1.128   6.111  1.2032  0.9775 -0.1242
  152SAPE  H10S16792   4.850   1.211   5.975  0.7086  0.1836  0.7415
  152SAPE  C21116793   4.654   1.113   5.923 -0.0477 -0.4246  0.1583
  152SAPE  H11R16794   4.576   1.051   5.969 -1.6054  0.1248 -1.6292
  152SAPE  C21216795   4.659   1.132   5.792  0.6514  0.4576 -0.2021
  152SAPE  H12R16796   4.589   1.069   5.735 -1.3079  0.0946  2.3850
  152SAPE  C21316797   4.733   1.234   5.712 -0.2824  0.2393  0.1506
  152SAPE  H13R16798   4.833   1.200   5.680 -0.7487 -0.9177 -0.1268
  152SAPE  H13S16799   4.735   1.330   5.769  1.6170  1.8725 -2.4612
  152SAPE  C21416800   4.646   1.277   5.600  0.0516 -0.7020  0.4461
  152SAPE  H14R16801   4.582   1.197   5.558  1.2827 -0.8525 -1.2303
  152SAPE  C21516802   4.623   1.402   5.551 -0.0086 -0.0440 -0.0658
  152SAPE  H15R16803   4.554   1.407   5.466  1.7449  1.9039 -1.4658
  152SAPE  C21616804   4.685   1.536   5.590 -0.3886  0.2171 -0.2511
  152SAPE  H16R16805   4.667   1.555   5.698 -1.2002 -2.3852  0.1353
  152SAPE  H16S16806   4.625   1.612   5.536 -1.5137 -0.3452  0.1669
  152SAPE  C21716807   4.835   1.548   5.558  0.3452  0.3049  0.4691
  152SAPE  H17R16808   4.881   1.453   5.591  2.7746  0.1419 -2.8626
  152SAPE  H17S16809   4.884   1.633   5.611  1.0761  0.3534 -0.2547
  152SAPE  C21816810   4.853   1.582   5.408  0.3787  0.5067 -0.4140
  152SAPE  H18R16811   4.829   1.691   5.404 -0.2623  0.3178 -2.6010
  152SAPE  H18S16812   4.777   1.524   5.351 -2.2524  2.2145  1.1227
  152SAPE  C21916813   4.994   1.568   5.355 -0.1579 -0.4040  0.3321
  152SAPE  H19R16814   5.015   1.459   5.364 -3.0982 -1.1090 -0.5867
  152SAPE  H19S16815   5.069   1.615   5.422  1.1453 -0.2440 -1.1764
  152SAPE  C22016816   5.011   1.613   5.206 -0.1478 -0.4082 -0.4680
  152SAPE  H20R16817   5.118   1.607   5.180 -0.5348 -2.6204 -1.8482
  152SAPE  H20S16818   4.972   1.715   5.187  0.6440 -0.0739 -0.3378
  152SAPE  H20T16819   4.961   1.539   5.139 -0.5102  0.5200 -1.2571
  152SAPE   C3316820   4.442   2.036   6.172 -0.2598 -0.3887  0.1364
  152SAPE   H3X16821   4.366   2.110   6.205  0.3038  0.4320 -0.3648
  152SAPE   H3Y16822   4.385   1.941   6.170 -0.2512 -0.4938  2.2400
  152SAPE   C3416823   4.482   2.074   6.029  0.1170 -0.2194 -1.2316
  152SAPE   H4X16824   4.563   2.149   6.040 -0.6757  0.2600  4.4112
  152SAPE   H4Y16825   4.390   2.118   5.986 -0.6794  2.0388  2.3533
  152SAPE   C3516826   4.528   1.955   5.950  0.3369  0.3674  0.8813
  152SAPE   H5X16827   4.610   1.894   5.993  0.0861 -0.9938 -0.4906
  152SAPE   H5Y16828   4.587   1.991   5.863 -1.2539  2.4612  0.5893
  152SAPE   C3616829   4.407   1.878   5.896 -0.5983  0.2769  0.0353
  152SAPE   H6X16830   4.330   1.939   5.844  0.5112  1.5075 -0.2502
  152SAPE   H6Y16831   4.355   1.834   5.983 -3.1578  2.9041  0.0123
  152SAPE   C3716832   4.443   1.757   5.803  0.4000  0.2266 -0.4530
  152SAPE   H7X16833   4.513   1.687   5.854 -0.1450  1.4438  2.1413
  152SAPE   H7Y16834   4.502   1.805   5.722 -1.1169  0.2286 -1.5930
  152SAPE   C3816835   4.309   1.697   5.752 -0.1867  0.2939  0.2088
  152SAPE   H8X16836   4.256   1.782   5.703 -0.4615  1.2086  2.0207
  152SAPE   H8Y16837   4.242   1.679   5.838 -1.6385 -0.9939 -1.1221
  152SAPE   C3916838   4.320   1.583   5.651 -0.0147  0.3945 -0.0706
  152SAPE   H9X16839   4.367   1.496   5.702 -0.2451 -0.0904 -0.6826
  152SAPE   H9Y16840   4.396   1.605   5.574  0.7091 -1.4117  0.0916
  152SAPE  C31016841   4.188   1.527   5.603  0.3381 -0.6441 -0.1148
  152SAPE  H10X16842   4.125   1.602   5.551  1.7152  0.5735 -0.1006
  152SAPE  H10Y16843   4.125   1.510   5.693 -3.3483  2.3144 -1.8430
  152SAPE  C31116844   4.205   1.394   5.527 -0.2164  0.4182 -0.3295
  152SAPE  H11X16845   4.296   1.402   5.463 -1.6979  1.2844 -2.4493
  152SAPE  H11Y16846   4.117   1.387   5.460  0.7927  0.7240 -1.7356
  152SAPE  C31216847   4.199   1.266   5.613  0.2597  0.2706  0.4597
  152SAPE  H12X16848   4.110   1.247   5.677  0.2830  1.4415  0.8671
  152SAPE  H12Y16849   4.280   1.284   5.687 -0.0113 -0.5476  0.9732
  152SAPE  C31316850   4.243   1.139   5.530 -0.6579 -0.7888 -0.8190
  152SAPE  H13X16851   4.326   1.169   5.462 -0.5929  0.2645 -0.2901
  152SAPE  H13Y16852   4.160   1.105   5.464 -3.0140  3.2064 -0.2072
  152SAPE  C31416853   4.296   1.028   5.623 -0.1673 -0.2362 -0.4339
  152SAPE  H14X16854   4.209   0.983   5.675  1.1823 -3.8275 -0.9912
  152SAPE  H14Y16855   4.360   1.074   5.701  0.1599  0.3237 -1.0157
  152SAPE  C31516856   4.371   0.922   5.539 -0.2626  0.3977  0.0203
  152SAPE  H15X16857   4.432   0.850   5.597 -4.2668 -1.7015  2.0094
  152SAPE  H15Y16858   4.453   0.973   5.484  0.0656 -0.3829 -0.2256
  152SAPE  C31616859   4.287   0.843   5.427 -0.2371  0.1410 -0.6090
  152SAPE  H16X16860   4.348   0.764   5.379  0.0640 -0.0202  0.0312
  152SAPE  H16Y16861   4.256   0.920   5.353  1.7071  0.3418 -1.2696
  152SAPE  C31716862   4.159   0.780   5.481 -0.1923  0.2215  0.3508
  152SAPE  H17X16863   4.105   0.731   5.397 -1.6627  2.3665 -0.0541
  152SAPE  H17Y16864   4.100   0.867   5.519  0.5279  1.8999 -2.1077
  152SAPE  C31816865   4.186   0.678   5.591  0.0592 -0.2418  0.2504
  152SAPE  H18X16866   4.247   0.716   5.675  0.8993  0.4944 -0.6721
  152SAPE  H18Y16867   4.247   0.598   5.544 -0.0664  0.4530 -1.1519
  152SAPE  H18Z16868   4.086   0.641   5.622 -0.7262  1.4177 -0.1611
  153SAPE     N16869   3.261   1.882   7.051  0.1493 -0.1302 -0.3693
  153SAPE   HN116870   3.206   1.812   7.105  2.3746 -0.0468  2.1693
  153SAPE   HN216871   3.265   1.973   7.102 -3.4957 -0.2244  0.3656
  153SAPE   HN316872   3.212   1.898   6.960  0.7266  0.6318 -0.5588
  153SAPE   C1216873   3.397   1.814   7.029 -1.1448  0.1516  0.3335
  153SAPE  H12A16874   3.388   1.717   6.976  1.7526 -1.6241  2.7535
  153SAPE  H12B16875   3.439   1.803   7.132  0.6315  1.8816 -0.1396
  153SAPE   C1116876   3.487   1.907   6.949  0.0830  0.3749  0.0975
  153SAPE  H11A16877   3.449   1.939   6.849  0.6123  0.4298 -0.0884
  153SAPE  H11B16878   3.572   1.845   6.913 -0.1599  0.2616 -0.2856
  153SAPE     P16879   3.666   2.049   7.086 -0.1512 -0.1125 -0.0236
  153SAPE   O1316880   3.682   2.195   7.117  0.2724 -0.0573  0.3299
  153SAPE   O1416881   3.671   1.955   7.202  0.2576 -0.5621  0.6677
  153SAPE   O1216882   3.524   2.024   7.016 -0.2489 -0.3489  0.3212
  153SAPE   O1116883   3.762   2.009   6.968  0.2044 -0.0767 -0.1030
  153SAPE    C116884   3.776   2.075   6.844  0.0841 -0.5546  1.4030
  153SAPE    HA16885   3.684   2.131   6.819  1.2854  1.3805  1.1240
  153SAPE    HB16886   3.864   2.142   6.851  1.1580 -1.6893 -0.4388
  153SAPE    C216887   3.823   1.987   6.726 -0.3473  0.3589 -0.1133
  153SAPE    HS16888   3.883   2.032   6.644  0.4577 -3.8247 -2.0742
  153SAPE   O2116889   3.712   1.927   6.668 -0.0649  0.4122  0.3835
  153SAPE   C2116890   3.633   1.999   6.595  0.4730  0.3992 -0.4823
  153SAPE   O2216891   3.647   2.118   6.580  0.5942 -0.1267  0.2774
  153SAPE   C2216892   3.533   1.907   6.531  0.4435  0.7936 -0.5037
  153SAPE   H2R16893   3.580   1.812   6.499 -1.1461  0.2540 -1.3737
  153SAPE   H2S16894   3.451   1.892   6.605  0.2725 -2.1510 -1.1633
  153SAPE    C316895   3.917   1.869   6.776 -0.0352  0.3818 -0.3362
  153SAPE    HX16896   3.856   1.810   6.846  1.1004 -0.3873  0.0330
  153SAPE    HY16897   4.001   1.918   6.831  0.3703 -3.3049  2.6526
  153SAPE   O3116898   3.961   1.777   6.673  0.4844  0.3370  0.1147
  153SAPE   C3116899   4.058   1.835   6.595 -0.3652 -0.1884  0.8977
  153SAPE   O3216900   4.105   1.949   6.613  0.3415  0.0977 -0.2799
  153SAPE   C3216901   4.117   1.731   6.497 -0.0935  0.0332 -0.2195
  153SAPE   H2X16902   4.033   1.661   6.477 -0.2498  0.4770 -1.1525
  153SAPE   H2Y16903   4.203   1.684   6.549  1.3316  1.6440 -1.0047
  153SAPE   C2316904   3.455   1.977   6.419  0.0306 -0.2410 -0.2207
  153SAPE   H3R16905   3.512   1.964   6.325 -0.7391  0.5197 -0.8065
  153SAPE   H3S16906   3.432   2.086   6.426 -1.8110 -0.6606  0.9857
  153SAPE   C2416907   3.311   1.920   6.389 -0.3631  0.0774 -0.4960
  153SAPE   H4R16908   3.268   1.980   6.306  3.0240  1.1955 -1.6078
  153SAPE   H4S16909   3.246   1.936   6.477 -1.6899  0.8874 -1.5826
  153SAPE   C2516910   3.317   1.775   6.345  0.3986  0.2955  0.0350
  153SAPE   H5R16911   3.291   1.698   6.420  1.2157  0.5166  0.5518
  153SAPE   C2616912   3.336   1.739   6.213  0.5573 -0.2616  0.1995
  153SAPE   H6R16913   3.355   1.632   6.196 -1.9910 -1.1428  2.2912
  153SAPE   C2716914   3.364   1.824   6.093  0.5538 -0.0488  0.6946
  153SAPE   H7R16915   3.437   1.774   6.024  2.0454  0.6996  1.6688
  153SAPE   H7S16916   3.417   1.920   6.114 -0.1263  0.4772  0.0518
  153SAPE   C2816917   3.237   1.869   6.030 -0.3022 -0.0602 -0.0689
  153SAPE   H8R16918   3.163   1.927   6.087 -1.4660  0.3244 -1.8794
  153SAPE   C2916919   3.203   1.857   5.898  0.7309 -0.4433  0.3798
  153SAPE   H9R16920   3.110   1.905   5.866  0.8284 -1.0097 -0.8179
  153SAPE  C21016921   3.283   1.804   5.782 -1.2061  0.1441 -0.7443
  153SAPE  H10R16922   3.326   1.705   5.808 -3.9486 -0.7227  0.9778
  153SAPE  H10S16923   3.373   1.867   5.766 -0.1106 -1.2135 -0.1306
  153SAPE  C21116924   3.202   1.785   5.654  0.3084 -0.1359  0.2340
  153SAPE  H11R16925   3.109   1.728   5.670 -0.2137  0.1125 -1.6366
  153SAPE  C21216926   3.227   1.825   5.526  0.5595 -0.2760 -0.1837
  153SAPE  H12R16927   3.150   1.796   5.453 -0.1677  2.4630 -0.6097
  153SAPE  C21316928   3.346   1.896   5.473 -0.6067  0.8656 -0.1278
  153SAPE  H13R16929   3.427   1.902   5.550  1.4243 -1.4966 -1.9350
  153SAPE  H13S16930   3.321   2.000   5.443 -0.6293  0.5551 -1.1977
  153SAPE  C21416931   3.406   1.821   5.355 -0.0530 -0.0995  0.1170
  153SAPE  H14R16932   3.484   1.753   5.393 -0.2811  0.3393  1.4564
  153SAPE  C21516933   3.352   1.824   5.226  0.1935  0.1380 -0.3994
  153SAPE  H15R16934   3.397   1.762   5.148 -2.0336 -1.8609 -0.2415
  153SAPE  C21616935   3.233   1.914   5.191 -0.3202  0.8892  0.4380
  153SAPE  H16R16936   3.151   1.905   5.265 -0.8032  2.5113  0.1519
  153SAPE  H16S16937   3.180   1.870   5.104 -3.4206  1.3895  1.9231
  153SAPE  C21716938   3.261   2.061   5.156  0.2705 -0.4091  0.3445
  153SAPE  H17R16939   3.321   2.111   5.235 -0.0002  2.8722 -1.3635
  153SAPE  H17S16940   3.165   2.117   5.154 -0.6906 -2.0146 -1.3580
  153SAPE  C21816941   3.324   2.090   5.020  0.4134 -0.6409 -0.5339
  153SAPE  H18R16942   3.267   2.024   4.950  0.6779 -1.6855  0.2134
  153SAPE  H18S16943   3.431   2.061   5.011  0.4724 -0.2438 -1.1495
  153SAPE  C21916944   3.317   2.233   4.968  0.1494 -0.7135 -0.0322
  153SAPE  H19R16945   3.375   2.292   5.043 -1.2228 -2.6739  2.7275
  153SAPE  H19S16946   3.213   2.270   4.981 -0.7200 -3.5555  2.0772
  153SAPE  C22016947   3.346   2.258   4.811 -0.5117 -0.6639  0.0889
  153SAPE  H20R16948   3.342   2.368   4.795  0.0625 -0.3738  1.7359
  153SAPE  H20S16949   3.272   2.204   4.748 -2.0268  1.1147  0.2662
  153SAPE  H20T16950   3.450   2.230   4.782 -0.1432  1.0653 -0.3770
  153SAPE   C3316951   4.174   1.803   6.373 -0.1444  0.1147  0.5691
  153SAPE   H3X16952   4.276   1.845   6.389  1.1112 -1.5912 -2.1972
  153SAPE   H3Y16953   4.113   1.891   6.341 -0.8574 -0.2783  0.8356
  153SAPE   C3416954   4.194   1.712   6.253  0.1685 -0.0104  0.1633
  153SAPE   H4X16955   4.215   1.770   6.161  2.3184 -4.8683 -2.8042
  153SAPE   H4Y16956   4.101   1.656   6.234 -1.2248  2.5302 -1.0629
  153SAPE   C3516957   4.313   1.629   6.268 -0.0753  0.0073 -0.0192
  153SAPE   H5X16958   4.305   1.557   6.352 -4.0694 -0.3379 -0.4979
  153SAPE   H5Y16959   4.399   1.691   6.301  1.2517 -0.7650 -1.8155
  153SAPE   C3616960   4.360   1.555   6.140 -0.5941 -0.3063 -0.2307
  153SAPE   H6X16961   4.440   1.490   6.180 -0.6131  0.6920  1.4876
  153SAPE   H6Y16962   4.403   1.624   6.065  0.2191 -1.3848 -0.7953
  153SAPE   C3716963   4.247   1.482   6.074  0.1592  0.2936 -0.1196
  153SAPE   H7X16964   4.183   1.555   6.020  1.0386  0.7341 -0.5948
  153SAPE   H7Y16965   4.200   1.437   6.164  0.8563  1.1888  0.7288
  153SAPE   C3816966   4.302   1.376   5.981 -0.3646 -1.0100 -0.1410
  153SAPE   H8X16967   4.392   1.409   5.926  0.5345 -0.2785  1.6870
  153SAPE   H8Y16968   4.219   1.376   5.907 -0.9931  1.3162  0.4657
  153SAPE   C3916969   4.320   1.234   6.041 -0.3402  0.4026 -0.3674
  153SAPE   H9X16970   4.376   1.236   6.137 -0.5804 -0.7446 -0.1887
  153SAPE   H9Y16971   4.369   1.157   5.978  0.3194 -0.3269  0.9887
  153SAPE  C31016972   4.192   1.165   6.066 -0.5447  0.2188  0.1450
  153SAPE  H10X16973   4.143   1.152   5.967 -0.0135 -0.7477 -0.0091
  153SAPE  H10Y16974   4.124   1.228   6.126 -0.3336  0.8908 -0.3139
  153SAPE  C31116975   4.204   1.024   6.130  0.8668 -0.0009 -0.3833
  153SAPE  H11X16976   4.140   1.026   6.220  1.1409  0.8085 -0.1948
  153SAPE  H11Y16977   4.306   1.005   6.169  0.7358 -0.0571 -0.0660
  153SAPE  C31216978   4.173   0.915   6.028 -0.0055  0.1176 -0.3551
  153SAPE  H12X16979   4.264   0.904   5.965  0.9493  2.9601  0.3687
  153SAPE  H12Y16980   4.095   0.942   5.955 -1.2298 -0.2912  0.7662
  153SAPE  C31316981   4.135   0.780   6.097  0.4066 -0.7377  0.1781
  153SAPE  H13X16982   4.033   0.798   6.137 -0.8842  2.7311 -3.8291
  153SAPE  H13Y16983   4.208   0.747   6.174  0.1851  0.6228  1.0029
  153SAPE  C31416984   4.121   0.683   5.978  0.4945  0.3261  0.2434
  153SAPE  H14X16985   4.201   0.709   5.906  1.5429 -0.7745  0.9694
  153SAPE  H14Y16986   4.024   0.699   5.925  0.4326  2.1641  0.8468
  153SAPE  C31516987   4.127   0.534   6.019  0.0038 -0.0100 -0.0845
  153SAPE  H15X16988   4.042   0.523   6.089 -1.1063  0.5631 -1.3102
  153SAPE  H15Y16989   4.221   0.509   6.074  0.8832  0.7411 -1.2062
  153SAPE  C31616990   4.115   0.432   5.906  0.0657 -0.1199  0.1147
  153SAPE  H16X16991   4.204   0.438   5.840 -1.6800 -0.2289 -2.3850
  153SAPE  H16Y16992   4.032   0.446   5.834  0.0957 -0.7998 -0.0579
  153SAPE  C31716993   4.103   0.284   5.952  0.0114  0.2919  1.2398
  153SAPE  H17X16994   4.181   0.274   6.030  2.0260  1.3997 -0.5213
  153SAPE  H17Y16995   4.129   0.224   5.862 -0.4272  0.2399  1.1442
  153SAPE  C31816996   3.957   0.242   5.994 -0.1416  0.9607  0.1679
  153SAPE  H18X16997   3.892   0.266   5.907 -0.9623 -0.0894  0.4697
  153SAPE  H18Y16998   3.929   0.307   6.080 -3.1159 -1.1571  0.9612
  153SAPE  H18Z16999   3.958   0.133   6.016  1.3272  0.3295 -2.5456
  154SAPE     N17000   1.984   0.337   6.886  0.2368  0.5490 -0.0702
  154SAPE   HN117001   1.902   0.376   6.836  0.7775  0.0099 -1.4449
  154SAPE   HN217002   2.063   0.401   6.865 -0.3272  1.8750  1.6584
  154SAPE   HN317003   2.015   0.243   6.852 -0.2257 -0.0888  1.2042
  154SAPE   C1217004   1.968   0.329   7.031  0.3744  0.2976 -0.2437
  154SAPE  H12A17005   1.869   0.290   7.062 -0.3686  1.6216 -0.8554
  154SAPE  H12B17006   1.965   0.436   7.063  0.0455  1.4042 -3.5655
  154SAPE   C1117007   2.086   0.249   7.093  0.0804  0.7659  0.4840
  154SAPE  H11A17008   2.101   0.151   7.045 -1.0459  0.4012  0.8509
  154SAPE  H11B17009   2.052   0.217   7.194 -1.2899 -0.3857 -0.3000
  154SAPE     P17010   2.289   0.376   7.203  0.5981  0.2642 -0.0820
  154SAPE   O1317011   2.376   0.485   7.154  0.2240  0.6560 -0.1363
  154SAPE   O1417012   2.200   0.423   7.312 -0.6800  0.0293  0.4450
  154SAPE   O1217013   2.208   0.315   7.089  1.1027  0.2407  0.0803
  154SAPE   O1117014   2.373   0.251   7.262 -0.7797 -0.6422 -0.7242
  154SAPE    C117015   2.349   0.112   7.267 -0.0693  0.2985 -0.1269
  154SAPE    HA17016   2.415   0.061   7.340  0.9976 -1.0061 -1.9151
  154SAPE    HB17017   2.242   0.086   7.280 -0.1680  0.6245 -0.2730
  154SAPE    C217018   2.407   0.037   7.142  0.4109  0.3382  1.0484
  154SAPE    HS17019   2.518   0.047   7.143  0.2842  2.2209  0.4562
  154SAPE   O2117020   2.352   0.100   7.021  0.2636 -0.3437  0.1400
  154SAPE   C2117021   2.432   0.130   6.926 -0.1804 -0.4838  0.1093
  154SAPE   O2217022   2.550   0.121   6.929  0.7265 -0.0169  0.2220
  154SAPE   C2217023   2.342   0.169   6.808  0.2857 -0.3295 -0.2526
  154SAPE   H2R17024   2.285   0.262   6.825 -0.6406 -0.2474 -3.3290
  154SAPE   H2S17025   2.407   0.218   6.733 -0.0188  2.2810  1.0501
  154SAPE    C317026   2.359  -0.116   7.143  0.5025 -0.4478  0.4234
  154SAPE    HX17027   2.250  -0.107   7.119  1.0667  2.9297 -1.6159
  154SAPE    HY17028   2.378  -0.159   7.243  2.6850 -1.1529 -0.2502
  154SAPE   O3117029   2.424  -0.190   7.043 -0.2717  0.2854  0.4764
  154SAPE   C3117030   2.544  -0.234   7.060 -0.3446 -0.1549  0.1466
  154SAPE   O3217031   2.597  -0.231   7.170 -0.3130  0.3203 -0.1799
  154SAPE   C3217032   2.606  -0.289   6.933  0.0248 -0.6304 -0.8391
  154SAPE   H2X17033   2.554  -0.385   6.915  0.3757 -1.1904  0.9300
  154SAPE   H2Y17034   2.711  -0.319   6.957  0.5841  0.9942 -1.1045
  154SAPE   C2317035   2.271   0.048   6.748 -0.3680 -0.1908  0.0404
  154SAPE   H3R17036   2.184   0.030   6.814 -1.1113 -1.1464 -1.1717
  154SAPE   H3S17037   2.335  -0.043   6.747 -0.4203 -0.2203 -1.2451
  154SAPE   C2417038   2.206   0.087   6.613  0.3949  0.0681  0.8600
  154SAPE   H4R17039   2.148   0.182   6.615  2.1331  1.1634  0.8221
  154SAPE   H4S17040   2.126   0.016   6.581 -2.8608  3.6995  0.1309
  154SAPE   C2517041   2.302   0.083   6.492 -0.2864  0.5771  0.1369
  154SAPE   H5R17042   2.377   0.004   6.508 -1.0069 -0.2154 -0.3013
  154SAPE   C2617043   2.306   0.166   6.385  0.0421  0.9403 -0.1270
  154SAPE   H6R17044   2.369   0.151   6.296 -1.8373  1.7372 -1.6553
  154SAPE   C2717045   2.216   0.285   6.368  0.0190  0.0189 -0.1496
  154SAPE   H7R17046   2.239   0.359   6.448  0.3699  1.9762 -1.9913
  154SAPE   H7S17047   2.109   0.258   6.385  0.4593 -1.7217  0.0457
  154SAPE   C2817048   2.224   0.352   6.237 -0.2834  0.6799  0.4871
  154SAPE   H8R17049   2.294   0.437   6.231  1.0650 -0.3994  0.4676
  154SAPE   C2917050   2.159   0.320   6.126 -0.5389 -0.1059  0.1724
  154SAPE   H9R17051   2.174   0.394   6.046  0.4984 -1.0058 -0.4985
  154SAPE  C21017052   2.067   0.211   6.093  0.6375 -0.2312  1.4470
  154SAPE  H10R17053   1.991   0.206   6.175 -2.9705  0.8260 -1.5419
  154SAPE  H10S17054   2.142   0.129   6.088  0.6612 -0.2269  1.6991
  154SAPE  C21117055   1.983   0.219   5.961 -0.1285  0.3534  0.6606
  154SAPE  H11R17056   1.956   0.320   5.926  1.1577 -0.1084 -1.8543
  154SAPE  C21217057   1.958   0.111   5.885 -0.6009 -0.1560  0.3635
  154SAPE  H12R17058   1.895   0.130   5.797 -0.9590  0.4246  0.7478
  154SAPE  C21317059   2.002  -0.032   5.900  0.1278 -0.4251  0.3528
  154SAPE  H13R17060   1.932  -0.100   5.954 -0.9682 -0.3604 -0.9403
  154SAPE  H13S17061   2.102  -0.027   5.947  0.4852  0.1399 -0.4514
  154SAPE  C21417062   2.020  -0.090   5.760  0.3473 -0.3236 -0.0827
  154SAPE  H14R17063   2.119  -0.075   5.716 -0.1278  2.9238 -0.2746
  154SAPE  C21517064   1.921  -0.138   5.677 -0.0798 -0.3145  0.0711
  154SAPE  H15R17065   1.936  -0.164   5.571 -0.7911  0.3242 -0.1953
  154SAPE  C21617066   1.775  -0.145   5.716  0.9030  0.0637 -0.3583
  154SAPE  H16R17067   1.714  -0.094   5.640  0.7811 -0.7386 -0.8103
  154SAPE  H16S17068   1.755  -0.089   5.810  0.1065 -3.4167  1.7427
  154SAPE  C21717069   1.721  -0.287   5.735 -0.0700 -0.5333  0.0728
  154SAPE  H17R17070   1.727  -0.335   5.635 -0.2982 -0.5072  0.0475
  154SAPE  H17S17071   1.612  -0.282   5.752  0.0596 -1.5593  1.4177
  154SAPE  C21817072   1.801  -0.374   5.834 -0.1411 -1.1106 -0.7171
  154SAPE  H18R17073   1.820  -0.341   5.939  1.5570  0.1046 -1.3501
  154SAPE  H18S17074   1.903  -0.369   5.791  0.0991  3.0023 -0.1001
  154SAPE  C21917075   1.751  -0.518   5.850  1.3414  0.7978  0.2396
  154SAPE  H19R17076   1.730  -0.558   5.749 -3.0026 -0.4382  1.4191
  154SAPE  H19S17077   1.649  -0.511   5.893  1.7078 -1.0148  1.4804
  154SAPE  C22017078   1.848  -0.616   5.921  0.0259 -0.7275  0.5591
  154SAPE  H20R17079   1.928  -0.640   5.847 -0.3058  0.2292 -0.1331
  154SAPE  H20S17080   1.798  -0.708   5.958  1.6075 -1.5385  0.8117
  154SAPE  H20T17081   1.903  -0.580   6.010  1.2273 -1.0839 -0.0161
  154SAPE   C3317082   2.601  -0.197   6.806 -0.4341  0.6280  0.3024
  154SAPE   H3X17083   2.641  -0.095   6.824 -2.0459  1.4281 -0.3912
  154SAPE   H3Y17084   2.499  -0.178   6.766 -1.7027 -3.2944  1.2722
  154SAPE   C3417085   2.688  -0.261   6.687 -0.9210  0.0979 -0.1676
  154SAPE   H4X17086   2.668  -0.370   6.697  0.5784 -0.0580  1.8972
  154SAPE   H4Y17087   2.796  -0.253   6.713 -0.7514  0.8931 -1.1153
  154SAPE   C3517088   2.654  -0.212   6.549 -0.8720 -0.3092 -0.3722
  154SAPE   H5X17089   2.686  -0.106   6.549 -0.6292 -0.3466 -2.1097
  154SAPE   H5Y17090   2.543  -0.211   6.543 -0.9968 -0.0480  1.3363
  154SAPE   C3617091   2.711  -0.307   6.445 -0.7526 -0.4805  0.2607
  154SAPE   H6X17092   2.661  -0.406   6.452  0.7674 -1.3567 -0.5307
  154SAPE   H6Y17093   2.815  -0.338   6.470 -0.5660 -1.3477 -1.4436
  154SAPE   C3717094   2.719  -0.241   6.304  0.1296 -0.1083  0.0283
  154SAPE   H7X17095   2.788  -0.153   6.301  2.2126 -1.6826 -1.3130
  154SAPE   H7Y17096   2.619  -0.198   6.283  0.4365  2.2072  2.7376
  154SAPE   C3817097   2.769  -0.340   6.194  0.2404 -0.9087  0.7548
  154SAPE   H8X17098   2.704  -0.430   6.198  0.7232 -1.3265 -0.3409
  154SAPE   H8Y17099   2.871  -0.371   6.222  0.3022 -2.2435 -0.7961
  154SAPE   C3917100   2.782  -0.280   6.051  0.5835 -0.3852 -0.1792
  154SAPE   H9X17101   2.871  -0.213   6.046 -0.2228  0.6643 -0.8657
  154SAPE   H9Y17102   2.691  -0.219   6.034  0.8879  0.6793  1.6613
  154SAPE  C31017103   2.774  -0.386   5.935 -0.6268  0.4092 -0.0924
  154SAPE  H10X17104   2.673  -0.431   5.939 -1.0536  1.4031  1.2093
  154SAPE  H10Y17105   2.850  -0.466   5.944  0.4224  1.5059  1.3794
  154SAPE  C31117106   2.778  -0.324   5.792 -0.1618  0.2765 -0.2688
  154SAPE  H11X17107   2.880  -0.285   5.770 -0.6252  1.7127 -0.0199
  154SAPE  H11Y17108   2.706  -0.242   5.771 -0.0808 -0.2028 -2.7272
  154SAPE  C31217109   2.760  -0.427   5.676  0.2810  0.8572 -0.5533
  154SAPE  H12X17110   2.663  -0.478   5.692 -0.2764  1.8732 -0.5618
  154SAPE  H12Y17111   2.849  -0.493   5.679  0.6942  1.3811 -1.0568
  154SAPE  C31317112   2.756  -0.375   5.531  0.5097  0.0632 -0.1843
  154SAPE  H13X17113   2.837  -0.299   5.524 -0.4262  1.1461  0.4257
  154SAPE  H13Y17114   2.655  -0.337   5.505  1.2450  1.2712 -1.4338
  154SAPE  C31417115   2.781  -0.491   5.440 -1.1047  0.1012 -0.3853
  154SAPE  H14X17116   2.714  -0.572   5.475  1.7972 -1.5232  1.8158
  154SAPE  H14Y17117   2.886  -0.525   5.452 -1.5017 -0.5052  1.6913
  154SAPE  C31517118   2.758  -0.471   5.290 -0.3747 -0.2050 -0.0916
  154SAPE  H15X17119   2.825  -0.395   5.245 -0.1023  0.5646  1.5265
  154SAPE  H15Y17120   2.654  -0.436   5.271 -0.6612 -0.3057  1.1813
  154SAPE  C31617121   2.774  -0.605   5.214 -0.3836 -0.0720 -0.7206
  154SAPE  H16X17122   2.673  -0.652   5.207 -0.1264 -0.9100  0.7566
  154SAPE  H16Y17123   2.843  -0.663   5.279 -2.1553 -1.9867 -0.4378
  154SAPE  C31717124   2.827  -0.594   5.068 -0.1196  0.2242 -0.7828
  154SAPE  H17X17125   2.931  -0.557   5.066  0.6791 -1.7601  0.6790
  154SAPE  H17Y17126   2.761  -0.519   5.019  1.8765  0.8482 -2.6779
  154SAPE  C31817127   2.846  -0.727   5.007  0.2825 -0.0169 -0.0973
  154SAPE  H18X17128   2.898  -0.719   4.909  0.4971 -3.0724 -0.3324
  154SAPE  H18Y17129   2.749  -0.780   4.994  1.7096 -3.1758  1.1026
  154SAPE  H18Z17130   2.916  -0.798   5.056 -0.1168  0.2165  0.8200
  155SAPE     N17131   2.618   0.491   7.255  0.0031 -0.1216  0.1672
  155SAPE   HN117132   2.631   0.507   7.357  0.5030 -0.9326  0.2354
  155SAPE   HN217133   2.646   0.566   7.190 -0.7136 -0.1175 -0.1532
  155SAPE   HN317134   2.517   0.477   7.233  0.0006 -1.7387  1.0674
  155SAPE   C1217135   2.698   0.367   7.218  0.1248  0.0894 -0.1911
  155SAPE  H12A17136   2.695   0.355   7.108  0.8153  0.1394 -0.2199
  155SAPE  H12B17137   2.642   0.280   7.261 -0.0944  0.4282  0.2204
  155SAPE   C1117138   2.845   0.360   7.277  0.1169 -0.4767  0.6074
  155SAPE  H11A17139   2.888   0.267   7.234 -0.3993 -0.0570 -0.8626
  155SAPE  H11B17140   2.837   0.343   7.386 -0.6598 -1.1668  0.4478
  155SAPE     P17141   3.080   0.452   7.228  0.0557 -0.2178  0.0302
  155SAPE   O1317142   3.154   0.576   7.243  0.4396  0.4863  0.2104
  155SAPE   O1417143   3.124   0.338   7.305 -0.9473  0.5184  0.4570
  155SAPE   O1217144   2.923   0.479   7.253 -0.3313 -0.0615  0.5838
  155SAPE   O1117145   3.071   0.401   7.079 -0.1663  0.4967 -0.3200
  155SAPE    C117146   3.077   0.501   6.980  0.2602  0.8522 -0.5538
  155SAPE    HA17147   3.121   0.599   7.009 -0.7511  0.4031  2.9677
  155SAPE    HB17148   3.144   0.458   6.902  1.6141  0.1987  0.9233
  155SAPE    C217149   2.929   0.535   6.928 -0.0356  0.2980 -0.0964
  155SAPE    HS17150   2.860   0.544   7.015  1.0626  0.3097  0.7936
  155SAPE   O2117151   2.890   0.437   6.830  0.1812 -0.5251  0.2967
  155SAPE   C2117152   2.762   0.415   6.809 -0.3629  0.0467 -0.2304
  155SAPE   O2217153   2.671   0.470   6.863 -0.1224  0.2670 -0.4450
  155SAPE   C2217154   2.758   0.289   6.722  0.8851 -0.5545 -0.3506
  155SAPE   H2R17155   2.853   0.234   6.707 -0.2635 -2.0923 -2.4575
  155SAPE   H2S17156   2.695   0.222   6.784  0.3015  1.1280  0.9692
  155SAPE    C317157   2.930   0.669   6.864 -0.4018 -0.5010 -0.3625
  155SAPE    HX17158   2.936   0.755   6.934 -2.4058  1.4680 -2.4379
  155SAPE    HY17159   2.829   0.675   6.819 -0.8799 -1.0265  0.6242
  155SAPE   O3117160   3.026   0.685   6.756  0.6681  0.1934  0.1543
  155SAPE   C3117161   3.128   0.759   6.774  1.0781  0.1500  0.0952
  155SAPE   O3217162   3.154   0.812   6.878  0.4857  0.1420 -0.1634
  155SAPE   C3217163   3.195   0.786   6.634 -0.3670  0.0435 -0.5834
  155SAPE   H2X17164   3.202   0.683   6.593  1.5730 -0.1365  0.0717
  155SAPE   H2Y17165   3.298   0.822   6.655 -0.7157  0.0810  1.2411
  155SAPE   C2317166   2.673   0.313   6.590 -0.0278  0.0018 -0.3315
  155SAPE   H3R17167   2.710   0.398   6.528  0.4741 -1.1007 -1.5904
  155SAPE   H3S17168   2.569   0.336   6.619 -0.1599 -0.1110 -0.7144
  155SAPE   C2417169   2.662   0.186   6.507  0.1215  0.3510  0.6366
  155SAPE   H4R17170   2.561   0.182   6.462  1.6152  0.7246 -3.1875
  155SAPE   H4S17171   2.656   0.100   6.578  1.3620 -0.4509 -0.1835
  155SAPE   C2517172   2.771   0.150   6.410 -0.6610  0.2251 -0.3366
  155SAPE   H5R17173   2.860   0.099   6.449 -2.1620 -2.4895 -0.1999
  155SAPE   C2617174   2.765   0.185   6.276 -0.0439 -0.3528 -0.7138
  155SAPE   H6R17175   2.846   0.157   6.207  1.7550 -0.8990  1.5265
  155SAPE   C2717176   2.652   0.253   6.203  0.1490 -0.2121  0.7680
  155SAPE   H7R17177   2.633   0.350   6.255 -0.3108 -0.3443  0.8498
  155SAPE   H7S17178   2.556   0.198   6.207  1.0387 -2.0521 -1.4213
  155SAPE   C2817179   2.683   0.280   6.050 -0.2808  0.4444 -0.1869
  155SAPE   H8R17180   2.729   0.378   6.032  2.9551 -0.3986  2.4615
  155SAPE   C2917181   2.673   0.196   5.951 -0.3859 -1.0649 -0.0850
  155SAPE   H9R17182   2.710   0.232   5.853  2.1729 -0.4656  1.0038
  155SAPE  C21017183   2.606   0.064   5.959  0.2732 -0.0025 -0.7825
  155SAPE  H10R17184   2.522   0.057   6.031  0.3871  1.2831 -0.5046
  155SAPE  H10S17185   2.664  -0.017   6.009 -1.9336  1.1044  4.1385
  155SAPE  C21117186   2.569   0.015   5.821 -0.3257  0.2407 -0.6640
  155SAPE  H11R17187   2.648  -0.053   5.787 -0.7716 -1.8359  2.1200
  155SAPE  C21217188   2.471   0.053   5.737 -0.0164 -0.2965  0.2398
  155SAPE  H12R17189   2.478   0.020   5.632 -1.2308 -1.4902  0.5046
  155SAPE  C21317190   2.359   0.145   5.757  0.6594 -0.2136  0.4222
  155SAPE  H13R17191   2.335   0.156   5.865 -0.0341 -2.0430  0.5014
  155SAPE  H13S17192   2.272   0.094   5.711  1.2308 -1.1251  0.3087
  155SAPE  C21417193   2.383   0.278   5.696  0.2026  0.2354  1.0600
  155SAPE  H14R17194   2.425   0.346   5.772  0.4108 -0.9413  2.0432
  155SAPE  C21517195   2.381   0.320   5.567 -0.8027 -0.1874 -0.3386
  155SAPE  H15R17196   2.405   0.426   5.551  0.9849 -0.6234 -0.7261
  155SAPE  C21617197   2.338   0.240   5.442 -0.6744 -1.0950 -0.6279
  155SAPE  H16R17198   2.238   0.192   5.453 -1.1882 -0.0969 -0.8186
  155SAPE  H16S17199   2.413   0.159   5.448  0.6732  0.1133 -0.4531
  155SAPE  C21717200   2.342   0.321   5.314  0.4519  0.1996  0.3147
  155SAPE  H17R17201   2.412   0.406   5.319  2.1937 -1.0323 -1.4510
  155SAPE  H17S17202   2.239   0.362   5.303  0.5194  0.2147 -0.3070
  155SAPE  C21817203   2.381   0.241   5.191 -0.1973 -0.2451 -0.5914
  155SAPE  H18R17204   2.333   0.141   5.188  2.7596 -1.7529 -2.6686
  155SAPE  H18S17205   2.492   0.229   5.186  0.0278  1.6575 -0.7845
  155SAPE  C21917206   2.337   0.310   5.066  0.0280  0.1986  0.5123
  155SAPE  H19R17207   2.390   0.265   4.980 -2.2782 -3.0194  0.5613
  155SAPE  H19S17208   2.369   0.415   5.078 -0.4889  0.5492 -0.9402
  155SAPE  C22017209   2.188   0.297   5.034 -0.5926  0.6913 -0.3993
  155SAPE  H20R17210   2.171   0.187   5.026  0.0812  0.4710  0.8790
  155SAPE  H20S17211   2.161   0.350   4.940  1.9123  1.2828 -0.8491
  155SAPE  H20T17212   2.129   0.328   5.122  0.7823 -0.2384  0.8986
  155SAPE   C3317213   3.117   0.887   6.554  0.3314 -0.0557 -0.8098
  155SAPE   H3X17214   3.101   0.973   6.623  1.6624  0.5790 -1.2665
  155SAPE   H3Y17215   3.022   0.840   6.520 -0.3316  0.1698  0.6351
  155SAPE   C3417216   3.181   0.934   6.427  0.9698  0.1545 -0.3607
  155SAPE   H4X17217   3.290   0.948   6.445  0.7132  1.6366  0.1378
  155SAPE   H4Y17218   3.135   1.032   6.403 -0.6822 -0.6019 -0.4169
  155SAPE   C3517219   3.169   0.837   6.311  0.0438  1.0312 -0.2811
  155SAPE   H5X17220   3.063   0.839   6.278 -0.1823 -1.1737  0.1558
  155SAPE   H5Y17221   3.188   0.730   6.333 -0.9458  1.1568  1.3083
  155SAPE   C3617222   3.273   0.874   6.206 -0.5614  0.0453  0.2707
  155SAPE   H6X17223   3.377   0.846   6.235 -0.0979  2.6530  1.3875
  155SAPE   H6Y17224   3.278   0.982   6.183  0.4438 -0.4998 -2.5044
  155SAPE   C3717225   3.248   0.810   6.073 -0.2523  0.2646 -0.5418
  155SAPE   H7X17226   3.140   0.785   6.064 -0.2047 -0.6487  1.0926
  155SAPE   H7Y17227   3.294   0.709   6.071 -0.0837  0.3350 -0.2741
  155SAPE   C3817228   3.299   0.894   5.960  0.0723 -0.6287 -0.1332
  155SAPE   H8X17229   3.408   0.904   5.979  0.2097 -1.7331 -0.2695
  155SAPE   H8Y17230   3.264   0.999   5.962 -0.2934 -0.7567  1.3344
  155SAPE   C3917231   3.290   0.832   5.817 -0.6188  0.2859 -0.2580
  155SAPE   H9X17232   3.184   0.816   5.789 -0.2081 -2.9692 -0.3197
  155SAPE   H9Y17233   3.326   0.728   5.828 -3.3678 -0.5818  1.5382
  155SAPE  C31017234   3.363   0.908   5.704 -0.4878  0.0503 -0.7389
  155SAPE  H10X17235   3.472   0.898   5.719 -0.4180  0.2674 -1.0740
  155SAPE  H10Y17236   3.344   1.018   5.709 -2.5449 -0.3138  0.3287
  155SAPE  C31117237   3.324   0.862   5.561  0.1046  0.7487  0.5033
  155SAPE  H11X17238   3.213   0.857   5.569  0.0497 -1.6241 -0.7099
  155SAPE  H11Y17239   3.371   0.765   5.533  0.8471  1.4564 -0.7847
  155SAPE  C31217240   3.373   0.970   5.450 -0.0001  0.6423  0.1394
  155SAPE  H12X17241   3.481   0.985   5.473 -0.1283  0.1498  1.1534
  155SAPE  H12Y17242   3.331   1.071   5.472 -1.3871 -0.1117  1.1461
  155SAPE  C31317243   3.351   0.939   5.309  0.7963 -0.0774  0.4030
  155SAPE  H13X17244   3.254   0.985   5.280  0.5350  1.9564  4.0515
  155SAPE  H13Y17245   3.337   0.829   5.299  1.1586 -0.2772  1.8762
  155SAPE  C31417246   3.447   0.977   5.201  1.0015  0.3142  0.0235
  155SAPE  H14X17247   3.529   0.903   5.210  1.3813  0.8137  0.7717
  155SAPE  H14Y17248   3.489   1.079   5.203  1.1397  0.2794 -0.8463
  155SAPE  C31517249   3.398   0.962   5.053 -0.4986  0.0873 -0.6520
  155SAPE  H15X17250   3.378   0.852   5.049 -1.6678  0.1277  1.7849
  155SAPE  H15Y17251   3.468   0.991   4.973 -2.0650 -0.3891 -2.2746
  155SAPE  C31617252   3.262   1.032   5.023  0.0145  0.8001  0.3105
  155SAPE  H16X17253   3.261   1.141   5.047 -1.1800  0.5644  1.4357
  155SAPE  H16Y17254   3.193   0.973   5.087  1.7414 -1.1573  0.4619
  155SAPE  C31717255   3.229   1.013   4.871  0.0677  0.4940 -0.6697
  155SAPE  H17X17256   3.245   0.908   4.838  0.6265  0.1373  0.6711
  155SAPE  H17Y17257   3.296   1.088   4.825 -0.2478  1.5530  0.5372
  155SAPE  C31817258   3.082   1.047   4.842  0.1172  0.3742  0.1193
  155SAPE  H18X17259   3.059   1.020   4.736  1.3114 -1.7797  0.3304
  155SAPE  H18Y17260   3.054   1.153   4.858 -0.4474  0.3934 -0.9177
  155SAPE  H18Z17261   3.020   0.981   4.906 -2.8274 -0.6435 -3.4231
  156SAPE     N17262   4.899   0.352   6.908  0.0464  0.2971 -0.1619
  156SAPE   HN117263   4.934   0.443   6.944 -3.5746  1.7546  0.1026
  156SAPE   HN217264   4.951   0.310   6.829 -2.7655 -0.4108 -1.7650
  156SAPE   HN317265   4.806   0.378   6.871  0.2297  0.2754 -0.6411
  156SAPE   C1217266   4.880   0.266   7.023  0.0857 -0.0383  0.1779
  156SAPE  H12A17267   4.791   0.300   7.079  0.1056 -1.3872  1.0723
  156SAPE  H12B17268   4.967   0.268   7.091  0.9679 -1.4173 -0.8414
  156SAPE   C1117269   4.844   0.123   6.979 -0.1881  0.0599 -0.9680
  156SAPE  H11A17270   4.752   0.118   6.916 -1.1260  0.5146  0.3236
  156SAPE  H11B17271   4.813   0.070   7.071 -0.7373 -0.1026 -1.2426
  156SAPE     P17272   5.033  -0.057   6.978 -0.5084 -0.2156 -0.0011
  156SAPE   O1317273   5.171  -0.023   6.943  0.1531  0.0650  0.1206
  156SAPE   O1417274   5.004  -0.068   7.122 -0.0108  0.2562 -1.0732
  156SAPE   O1217275   4.949   0.058   6.913  0.9540  0.2039  0.1563
  156SAPE   O1117276   4.997  -0.192   6.904  0.2602 -0.6042 -0.3238
  156SAPE    C117277   4.957  -0.204   6.767 -0.0993  0.0372  0.8032
  156SAPE    HA17278   4.877  -0.280   6.753 -1.7931  2.1758 -2.9079
  156SAPE    HB17279   4.903  -0.112   6.736 -1.8402 -1.0079  0.5894
  156SAPE    C217280   5.080  -0.234   6.686 -0.9411 -0.4580  0.0151
  156SAPE    HS17281   5.157  -0.154   6.694 -0.4417 -0.9174 -0.0716
  156SAPE   O2117282   5.042  -0.248   6.547  0.4440  0.0081 -0.0206
  156SAPE   C2117283   5.054  -0.140   6.475  0.4437  0.2237  0.2282
  156SAPE   O2217284   5.064  -0.029   6.521  0.0809 -0.1946  1.1732
  156SAPE   C2217285   5.029  -0.173   6.325 -0.4254  1.2726 -0.8180
  156SAPE   H2R17286   5.099  -0.257   6.302 -0.0051  0.8623  1.7007
  156SAPE   H2S17287   4.927  -0.217   6.316 -0.7832  1.6893  0.9891
  156SAPE    C317288   5.145  -0.367   6.732 -0.2345  0.9318 -0.3819
  156SAPE    HX17289   5.066  -0.441   6.707 -1.0210  0.2896  3.3677
  156SAPE    HY17290   5.161  -0.368   6.842 -0.2404  0.3103 -0.3871
  156SAPE   O3117291   5.268  -0.407   6.666 -0.4734 -0.4460 -0.2074
  156SAPE   C3117292   5.384  -0.345   6.707 -0.2301  0.2351 -0.0268
  156SAPE   O3217293   5.389  -0.265   6.799 -0.3863  0.1478  0.7254
  156SAPE   C3217294   5.516  -0.389   6.639 -0.6272 -0.2593  0.0807
  156SAPE   H2X17295   5.546  -0.487   6.681  0.4337 -0.1069 -0.2897
  156SAPE   H2Y17296   5.591  -0.308   6.655  1.1668 -1.3895 -2.1222
  156SAPE   C2317297   5.052  -0.055   6.230 -0.3984  0.6730 -0.0503
  156SAPE   H3R17298   5.152  -0.014   6.254  1.3469 -2.9560 -0.4428
  156SAPE   H3S17299   4.971   0.019   6.249  1.1432  2.3399  0.3554
  156SAPE   C2417300   5.060  -0.100   6.088 -0.0398  0.6422 -0.1401
  156SAPE   H4R17301   5.133  -0.182   6.067  1.1570  1.4782  0.6018
  156SAPE   H4S17302   5.101  -0.011   6.036 -0.7211  1.3111  0.4476
  156SAPE   C2517303   4.928  -0.148   6.039 -0.1792 -0.2997 -0.2404
  156SAPE   H5R17304   4.855  -0.153   6.121  0.5819  0.1832  0.4742
  156SAPE   C2617305   4.900  -0.194   5.919 -0.2381  0.7776  0.4938
  156SAPE   H6R17306   4.796  -0.216   5.889 -0.6141  1.3434  1.3537
  156SAPE   C2717307   4.991  -0.204   5.801  0.1652 -0.5072 -0.3770
  156SAPE   H7R17308   5.094  -0.204   5.842 -0.6274  2.3850  1.9076
  156SAPE   H7S17309   4.969  -0.119   5.733 -1.4218 -2.1366 -2.0243
  156SAPE   C2817310   4.968  -0.328   5.718 -0.2595 -0.0482 -0.2493
  156SAPE   H8R17311   4.997  -0.423   5.765  1.0668  0.6858  0.4929
  156SAPE   C2917312   4.923  -0.335   5.586 -0.4609 -0.5343 -0.0457
  156SAPE   H9R17313   4.923  -0.427   5.525  0.8594  0.5044 -1.6971
  156SAPE  C21017314   4.858  -0.224   5.510  0.3613 -0.4121  0.4945
  156SAPE  H10R17315   4.917  -0.205   5.418 -0.1757 -1.4471 -0.0759
  156SAPE  H10S17316   4.857  -0.124   5.558 -0.0552  2.2204 -4.3268
  156SAPE  C21117317   4.722  -0.278   5.467  0.3768 -0.1311 -0.2141
  156SAPE  H11R17318   4.687  -0.366   5.523 -1.5646  2.2803  2.6972
  156SAPE  C21217319   4.642  -0.221   5.375  0.3335  0.0399 -0.9093
  156SAPE  H12R17320   4.551  -0.279   5.353  0.1103  0.0672 -0.0799
  156SAPE  C21317321   4.672  -0.100   5.297 -0.0524 -0.1847  0.0611
  156SAPE  H13R17322   4.726  -0.124   5.203  0.2073  0.8952 -0.0780
  156SAPE  H13S17323   4.744  -0.037   5.353  0.1630 -0.1302 -0.2751
  156SAPE  C21417324   4.548  -0.013   5.273 -0.7094 -0.9413 -0.3000
  156SAPE  H14R17325   4.451  -0.063   5.257 -1.5397  1.1042 -2.4612
  156SAPE  C21517326   4.544   0.124   5.265  0.5266  0.0082  0.0469
  156SAPE  H15R17327   4.457   0.180   5.228 -0.0622 -1.6864 -1.2902
  156SAPE  C21617328   4.671   0.206   5.283 -0.1590  0.5884  0.0944
  156SAPE  H16R17329   4.765   0.148   5.300 -1.0570 -0.7127  0.8550
  156SAPE  H16S17330   4.662   0.259   5.381 -0.9128 -1.1425  1.0111
  156SAPE  C21717331   4.697   0.307   5.171  0.3040 -0.2555  1.1104
  156SAPE  H17R17332   4.734   0.406   5.206  0.7419  0.8535 -2.1583
  156SAPE  H17S17333   4.600   0.328   5.122  0.3195 -0.4477  0.9965
  156SAPE  C21817334   4.794   0.244   5.057 -0.1036 -0.0719 -0.3320
  156SAPE  H18R17335   4.760   0.279   4.958  3.0310 -0.8761 -1.8117
  156SAPE  H18S17336   4.767   0.136   5.050 -1.0482  0.2920 -3.4224
  156SAPE  C21917337   4.943   0.268   5.077 -0.1228  0.0223  0.3400
  156SAPE  H19R17338   4.967   0.234   5.180  2.3261  0.1215 -0.1390
  156SAPE  H19S17339   4.965   0.377   5.070  0.6708 -0.0358  1.6290
  156SAPE  C22017340   5.033   0.180   4.979 -0.3613 -0.3771  0.6162
  156SAPE  H20R17341   4.999   0.074   4.980 -1.2396 -0.1770 -1.5830
  156SAPE  H20S17342   5.139   0.183   5.012  0.4251 -1.9757 -1.5413
  156SAPE  H20T17343   5.038   0.229   4.880  2.7878  0.1462  0.9469
  156SAPE   C3317344   5.503  -0.403   6.486 -1.0233 -0.1362  0.4658
  156SAPE   H3X17345   5.455  -0.500   6.462 -0.1179 -0.5178  0.1869
  156SAPE   H3Y17346   5.603  -0.390   6.441 -0.8209  0.7167  1.1419
  156SAPE   C3417347   5.424  -0.279   6.424  0.2975  0.6799 -0.3118
  156SAPE   H4X17348   5.444  -0.186   6.481 -0.2416  0.0462  0.9576
  156SAPE   H4Y17349   5.313  -0.288   6.430  0.3176  0.9172  0.6166
  156SAPE   C3517350   5.445  -0.257   6.270  1.3483  0.1847 -0.0983
  156SAPE   H5X17351   5.554  -0.266   6.251  1.6834  0.0706  1.7354
  156SAPE   H5Y17352   5.397  -0.160   6.242  0.8254 -0.0113  0.1159
  156SAPE   C3617353   5.369  -0.364   6.190 -0.3638  1.0228  0.1108
  156SAPE   H6X17354   5.266  -0.325   6.177 -0.7976 -0.7687 -2.9945
  156SAPE   H6Y17355   5.373  -0.466   6.235  0.4257  1.0664  0.1612
  156SAPE   C3717356   5.420  -0.384   6.042 -0.5208  0.4246 -0.4575
  156SAPE   H7X17357   5.344  -0.458   6.010 -0.6610  0.4665 -0.2251
  156SAPE   H7Y17358   5.521  -0.432   6.043 -1.1815 -1.0082 -0.6691
  156SAPE   C3817359   5.428  -0.252   5.964  0.1385  0.1283 -0.2734
  156SAPE   H8X17360   5.524  -0.206   5.996  2.4291 -3.3871 -1.4574
  156SAPE   H8Y17361   5.347  -0.183   5.995 -0.9188 -0.2486 -2.0403
  156SAPE   C3917362   5.417  -0.267   5.813  0.0352  0.1154  0.0668
  156SAPE   H9X17363   5.327  -0.326   5.789  0.1128  0.2546 -0.5910
  156SAPE   H9Y17364   5.506  -0.322   5.775  0.1849  0.8671 -0.7200
  156SAPE  C31017365   5.396  -0.132   5.735 -0.5144 -0.3045  0.2650
  156SAPE  H10X17366   5.486  -0.067   5.729 -3.0487  3.5106  0.1813
  156SAPE  H10Y17367   5.325  -0.072   5.795 -1.3554 -0.9552 -0.0545
  156SAPE  C31117368   5.339  -0.149   5.600 -0.4756 -0.2123  0.5610
  156SAPE  H11X17369   5.278  -0.061   5.568  1.9580  1.3366 -0.1228
  156SAPE  H11Y17370   5.275  -0.239   5.598  0.1519 -0.6683  0.7754
  156SAPE  C31217371   5.440  -0.168   5.484 -0.1479  0.7820  0.4150
  156SAPE  H12X17372   5.497  -0.262   5.498  1.0981  1.0592 -2.2104
  156SAPE  H12Y17373   5.491  -0.071   5.464 -0.6566  0.6915 -1.4538
  156SAPE  C31317374   5.367  -0.208   5.359  0.0477 -0.4728  0.1187
  156SAPE  H13X17375   5.317  -0.299   5.398 -1.4408  0.2958  0.0543
  156SAPE  H13Y17376   5.442  -0.241   5.283 -0.5878  0.6651 -1.0485
  156SAPE  C31417377   5.280  -0.090   5.308  0.0988  0.5532  0.0731
  156SAPE  H14X17378   5.334   0.007   5.304 -0.2393  0.7057 -1.6016
  156SAPE  H14Y17379   5.195  -0.073   5.377  0.9062  1.4662  0.8861
  156SAPE  C31517380   5.223  -0.119   5.169 -0.5872 -0.0017  0.4092
  156SAPE  H15X17381   5.311  -0.145   5.107 -1.1883  0.2363 -0.5638
  156SAPE  H15Y17382   5.166  -0.035   5.125 -0.9154 -0.6718 -0.4875
  156SAPE  C31617383   5.130  -0.252   5.161 -0.1514  0.1476 -0.7656
  156SAPE  H16X17384   5.028  -0.223   5.196  0.1972  1.5064 -0.8242
  156SAPE  H16Y17385   5.159  -0.338   5.226  0.2164 -0.5236 -1.7914
  156SAPE  C31717386   5.118  -0.307   5.018  0.1470  0.0359  0.4820
  156SAPE  H17X17387   5.219  -0.291   4.974 -0.5728  2.5969 -0.3820
  156SAPE  H17Y17388   5.052  -0.245   4.953  1.1205  0.5311 -0.0492
  156SAPE  C31817389   5.073  -0.454   5.014 -0.3194  0.3382  0.8226
  156SAPE  H18X17390   5.074  -0.486   4.907  2.7645  2.2078  0.1712
  156SAPE  H18Y17391   4.969  -0.463   5.052 -0.1396 -0.2577  1.1981
  156SAPE  H18Z17392   5.151  -0.521   5.057  0.8659  1.4898  0.5339
  157SAPE     N17393   2.828   5.823   7.259  0.1483 -0.0444  0.7280
  157SAPE   HN117394   2.752   5.756   7.233  1.3320 -0.0421 -3.4475
  157SAPE   HN217395   2.790   5.908   7.213  1.1158 -0.2876 -0.5820
  157SAPE   HN317396   2.915   5.795   7.210 -0.8779 -0.3071 -1.0155
  157SAPE   C1217397   2.862   5.828   7.407  0.0002  0.0762  0.3939
  157SAPE  H12A17398   2.903   5.727   7.428 -0.6024  0.0332  1.4415
  157SAPE  H12B17399   2.773   5.861   7.466 -0.2925  0.5661 -0.3011
  157SAPE   C1117400   2.974   5.932   7.433 -0.5924 -0.2684  0.2292
  157SAPE  H11A17401   3.010   5.922   7.537 -0.0126 -1.8591 -0.1044
  157SAPE  H11B17402   2.919   6.029   7.428  0.0736  0.1224  0.4295
  157SAPE     P17403   3.183   6.038   7.327 -0.6430  0.3321 -0.1781
  157SAPE   O1317404   3.121   6.165   7.270 -0.0863 -0.1773 -0.2794
  157SAPE   O1417405   3.239   6.053   7.465 -0.4830  0.0521  0.0775
  157SAPE   O1217406   3.080   5.917   7.334 -0.4531  0.4767  0.2542
  157SAPE   O1117407   3.297   5.993   7.228  0.2279  0.4228  0.0675
  157SAPE    C117408   3.281   5.887   7.132 -0.1302  0.0790  0.1090
  157SAPE    HA17409   3.378   5.859   7.086  0.0659 -1.1185  1.1928
  157SAPE    HB17410   3.241   5.797   7.184 -1.5816  0.5599 -0.1257
  157SAPE    C217411   3.197   5.931   7.011  0.4419  0.3091 -0.0800
  157SAPE    HS17412   3.110   5.987   7.050 -0.5716 -0.4810 -1.1324
  157SAPE   O2117413   3.155   5.828   6.927  0.1275  1.0014  0.0773
  157SAPE   C2117414   3.042   5.762   6.960 -0.8377 -1.2215 -0.2299
  157SAPE   O2217415   2.981   5.782   7.064 -0.2833 -0.5494 -0.0329
  157SAPE   C2217416   3.020   5.654   6.859  0.5004 -1.0451  0.2189
  157SAPE   H2R17417   3.108   5.657   6.791  1.1455 -0.8434  1.0480
  157SAPE   H2S17418   3.008   5.556   6.910 -0.9390 -1.7868 -1.4086
  157SAPE    C317419   3.289   6.017   6.920  0.2716  0.0323 -0.8387
  157SAPE    HX17420   3.356   5.955   6.856 -2.0064 -3.6388  0.0330
  157SAPE    HY17421   3.363   6.066   6.987 -0.2536  2.1938 -1.7662
  157SAPE   O3117422   3.213   6.105   6.835  0.0947  0.0560 -0.3717
  157SAPE   C3117423   3.259   6.227   6.821  0.1486  0.5372 -0.1695
  157SAPE   O3217424   3.357   6.269   6.875 -0.2189  0.4039  0.1663
  157SAPE   C3217425   3.165   6.303   6.740  0.1450 -0.4229 -0.1713
  157SAPE   H2X17426   3.063   6.298   6.784  0.2485  0.7107  0.2371
  157SAPE   H2Y17427   3.153   6.269   6.635  2.2825  1.0395 -0.9628
  157SAPE   C2317428   2.890   5.691   6.770 -0.4925 -0.2449 -0.4306
  157SAPE   H3R17429   2.915   5.770   6.696  2.0591 -0.8604 -0.3035
  157SAPE   H3S17430   2.813   5.729   6.841 -2.3170  0.0547 -2.4425
  157SAPE   C2417431   2.831   5.570   6.687  0.0417 -0.2307 -0.4645
  157SAPE   H4R17432   2.744   5.611   6.632 -1.9663 -2.1596  1.0698
  157SAPE   H4S17433   2.775   5.499   6.752  0.1845  0.3888  0.3521
  157SAPE   C2517434   2.927   5.508   6.585  0.4849 -0.6023  0.0140
  157SAPE   H5R17435   2.997   5.427   6.612 -0.9475 -2.3671 -1.2552
  157SAPE   C2617436   2.933   5.543   6.457  0.7301 -0.6338  0.9347
  157SAPE   H6R17437   3.025   5.506   6.410  0.5546 -0.0601  0.1296
  157SAPE   C2717438   2.856   5.653   6.387 -0.0858  0.6180 -0.0411
  157SAPE   H7R17439   2.845   5.739   6.457 -1.1866 -0.0222  0.5816
  157SAPE   H7S17440   2.753   5.626   6.358 -0.0135  1.5108 -1.2000
  157SAPE   C2817441   2.925   5.708   6.266  0.8550 -0.4456 -0.2066
  157SAPE   H8R17442   3.012   5.772   6.286  0.5317 -0.7208  2.4108
  157SAPE   C2917443   2.905   5.692   6.132  0.4497 -0.4025  0.3035
  157SAPE   H9R17444   2.969   5.749   6.063  0.5523 -0.6754  0.1686
  157SAPE  C21017445   2.783   5.633   6.069 -1.2127  0.4954  0.5883
  157SAPE  H10R17446   2.742   5.683   5.979  0.4215  1.2010  0.2061
  157SAPE  H10S17447   2.701   5.629   6.144 -0.9049 -1.3610  0.8833
  157SAPE  C21117448   2.830   5.488   6.045 -0.5039 -0.4470 -0.4021
  157SAPE  H11R17449   2.835   5.432   6.140  0.1922  1.4371  0.7128
  157SAPE  C21217450   2.836   5.429   5.926 -0.2897 -0.8690 -0.1691
  157SAPE  H12R17451   2.866   5.324   5.917 -1.5110 -1.0650 -3.0114
  157SAPE  C21317452   2.810   5.496   5.791  0.2370 -0.4844  0.7228
  157SAPE  H13R17453   2.900   5.481   5.728  0.0917 -0.0321  0.4098
  157SAPE  H13S17454   2.800   5.606   5.796  2.1674 -0.1629 -1.0563
  157SAPE  C21417455   2.691   5.421   5.744 -0.1106 -0.0481  0.3601
  157SAPE  H14R17456   2.633   5.369   5.821  0.3331  0.5946  1.1396
  157SAPE  C21517457   2.638   5.431   5.618  0.4179  0.2901 -1.0773
  157SAPE  H15R17458   2.559   5.360   5.589 -0.7771  1.9656 -2.0791
  157SAPE  C21617459   2.671   5.528   5.510 -0.0238  0.2268  0.1476
  157SAPE  H16R17460   2.730   5.474   5.433 -0.5627  1.0411 -0.8695
  157SAPE  H16S17461   2.729   5.616   5.547 -0.3606  0.3049  0.4909
  157SAPE  C21717462   2.539   5.575   5.439 -0.4522 -0.4164 -0.2214
  157SAPE  H17R17463   2.467   5.606   5.519  0.2947  0.5948  0.0793
  157SAPE  H17S17464   2.479   5.496   5.388  0.4609  0.2988 -2.5196
  157SAPE  C21817465   2.560   5.680   5.326  0.4314 -0.0237  0.5557
  157SAPE  H18R17466   2.623   5.762   5.366  0.3231  0.2899  0.0808
  157SAPE  H18S17467   2.460   5.722   5.301  1.2030  0.9845 -0.9741
  157SAPE  C21917468   2.626   5.633   5.194 -0.5186 -0.3625  0.0471
  157SAPE  H19R17469   2.550   5.570   5.142 -0.8934 -1.1134  1.4503
  157SAPE  H19S17470   2.711   5.573   5.231  1.5813  3.3072  1.6455
  157SAPE  C22017471   2.678   5.741   5.102 -0.3634 -0.5944  0.3345
  157SAPE  H20R17472   2.746   5.804   5.162  1.3902 -0.6594 -1.4632
  157SAPE  H20S17473   2.598   5.802   5.056 -0.0220  1.2563  2.0686
  157SAPE  H20T17474   2.755   5.711   5.027 -2.7277  0.2726 -2.6328
  157SAPE   C3317475   3.192   6.458   6.734  0.4240  0.2748  0.8918
  157SAPE   H3X17476   3.298   6.483   6.711  0.1074 -0.0917 -1.1924
  157SAPE   H3Y17477   3.180   6.502   6.835  0.9987 -1.2378  1.6473
  157SAPE   C3417478   3.094   6.534   6.644  0.6687  0.2962 -0.3755
  157SAPE   H4X17479   3.096   6.636   6.687  1.2642  0.9029 -1.7906
  157SAPE   H4Y17480   2.987   6.505   6.655  0.4534  0.5998 -1.5369
  157SAPE   C3517481   3.136   6.539   6.502  0.0879 -0.7158  0.8006
  157SAPE   H5X17482   3.107   6.450   6.441  0.6025 -0.7269  0.5646
  157SAPE   H5Y17483   3.247   6.531   6.493  0.1037 -0.0863  0.3660
  157SAPE   C3617484   3.087   6.670   6.432  0.9916  0.4433  0.0483
  157SAPE   H6X17485   3.115   6.755   6.499 -0.2567  1.2390 -0.3910
  157SAPE   H6Y17486   2.977   6.662   6.439  1.2251 -2.1162  3.0177
  157SAPE   C3717487   3.135   6.686   6.286  0.3616  0.2858 -0.2409
  157SAPE   H7X17488   3.127   6.591   6.229 -1.4309  0.8759 -1.0412
  157SAPE   H7Y17489   3.244   6.705   6.284  0.4061  0.2269 -3.4321
  157SAPE   C3817490   3.062   6.799   6.210  0.1108 -0.1603  0.0344
  157SAPE   H8X17491   3.097   6.903   6.230 -1.5953  0.5240 -0.3486
  157SAPE   H8Y17492   2.954   6.794   6.235  0.0719  2.4779  0.7810
  157SAPE   C3917493   3.091   6.783   6.055  0.6372  0.1172 -0.5538
  157SAPE   H9X17494   3.085   6.673   6.038 -0.1067 -0.1890  1.3797
  157SAPE   H9Y17495   3.199   6.808   6.050 -0.1098  3.9575 -0.2141
  157SAPE  C31017496   2.997   6.854   5.962 -0.3245 -0.3154  0.9026
  157SAPE  H10X17497   2.990   6.964   5.975  0.4748 -0.0108 -1.0246
  157SAPE  H10Y17498   2.895   6.818   5.990 -0.6050  0.6791  1.2012
  157SAPE  C31117499   3.027   6.830   5.808 -0.7164  0.1503  0.3313
  157SAPE  H11X17500   3.014   6.724   5.776  1.2689  0.5035 -2.0190
  157SAPE  H11Y17501   3.132   6.863   5.789 -0.4627  0.0705  1.5090
  157SAPE  C31217502   2.945   6.903   5.712 -0.5306  0.7565 -0.3560
  157SAPE  H12X17503   2.980   7.008   5.719  2.9585 -0.3164  0.1454
  157SAPE  H12Y17504   2.842   6.903   5.753 -1.1641  2.1120 -1.8184
  157SAPE  C31317505   2.945   6.838   5.567 -0.1472  0.2181 -0.1994
  157SAPE  H13X17506   2.876   6.892   5.498 -1.1436  1.2666  1.5518
  157SAPE  H13Y17507   2.928   6.728   5.571  2.5038 -0.2321  0.7282
  157SAPE  C31417508   3.081   6.862   5.500  0.1428 -0.1775 -0.0719
  157SAPE  H14X17509   3.167   6.819   5.556  0.5759  0.4324 -0.2566
  157SAPE  H14Y17510   3.108   6.970   5.499 -0.6659  0.2130  3.8051
  157SAPE  C31517511   3.094   6.803   5.365 -0.0385 -0.0462  0.0239
  157SAPE  H15X17512   3.049   6.701   5.374  0.3407 -0.3800 -1.4968
  157SAPE  H15Y17513   3.202   6.793   5.339  0.3589  1.4263  1.0478
  157SAPE  C31617514   3.021   6.881   5.259  0.1499  0.3906  0.0685
  157SAPE  H16X17515   3.064   6.983   5.251  0.1570  0.4849  1.1089
  157SAPE  H16Y17516   2.918   6.895   5.301 -0.5957 -2.1661 -0.7085
  157SAPE  C31717517   3.005   6.820   5.114  0.1802 -0.1993 -0.9499
  157SAPE  H17X17518   2.940   6.886   5.051  0.3365  2.9851  1.8951
  157SAPE  H17Y17519   2.945   6.727   5.117  0.6728 -0.5039 -0.4466
  157SAPE  C31817520   3.128   6.797   5.036 -0.6603  0.2381 -0.0142
  157SAPE  H18X17521   3.162   6.691   5.034  1.1550  0.7524 -3.2541
  157SAPE  H18Y17522   3.211   6.867   5.062 -1.1388  0.9675 -0.4200
  157SAPE  H18Z17523   3.096   6.820   4.932  0.9808  1.3254 -0.3233
  158SAPE     N17524   6.124   5.982   7.828  1.1639 -0.0482  0.3954
  158SAPE   HN117525   6.200   6.053   7.833  0.8177  0.3926 -0.3736
  158SAPE   HN217526   6.036   6.015   7.873  0.0761  1.6266 -2.6322
  158SAPE   HN317527   6.154   5.889   7.863  1.7288 -1.4695 -3.4127
  158SAPE   C1217528   6.106   5.960   7.679 -0.5477 -0.4884 -0.3075
  158SAPE  H12A17529   6.103   5.851   7.658 -0.5041 -0.2773 -1.4965
  158SAPE  H12B17530   6.198   5.987   7.623  0.1632  0.3035  1.2106
  158SAPE   C1117531   5.983   6.028   7.632  0.3737 -0.1844 -0.4599
  158SAPE  H11A17532   5.906   5.992   7.703  1.2094 -0.8934  0.1197
  158SAPE  H11B17533   5.958   5.992   7.531  1.2635  2.1620 -1.5922
  158SAPE     P17534   5.877   6.261   7.583  0.3158  0.2922  0.1983
  158SAPE   O1317535   5.744   6.192   7.599  0.1007  0.2304  0.4958
  158SAPE   O1417536   5.889   6.392   7.655  0.9178  0.4156 -0.0893
  158SAPE   O1217537   5.998   6.170   7.630  0.0934 -0.4453  0.3992
  158SAPE   O1117538   5.914   6.286   7.433 -0.1348  0.3940  0.1531
  158SAPE    C117539   6.039   6.333   7.389 -0.3124  0.3215 -0.0103
  158SAPE    HA17540   6.028   6.443   7.386 -0.3863  0.2898 -1.2728
  158SAPE    HB17541   6.123   6.311   7.459 -0.3899  0.7471  0.2223
  158SAPE    C217542   6.070   6.269   7.245 -0.0482  0.0781 -0.4829
  158SAPE    HS17543   5.992   6.323   7.187 -0.6129  1.1071  1.1530
  158SAPE   O2117544   6.029   6.138   7.221 -0.0726  0.0317 -0.2925
  158SAPE   C2117545   6.116   6.042   7.266  0.5029  0.0671  0.1715
  158SAPE   O2217546   6.203   6.066   7.345  0.4764 -0.2915  0.2102
  158SAPE   C2217547   6.068   5.904   7.218  0.1719 -0.6767 -0.2265
  158SAPE   H2R17548   6.101   5.847   7.307 -1.1971 -0.5194  0.4049
  158SAPE   H2S17549   5.958   5.909   7.207  0.0261  2.0972  1.5808
  158SAPE    C317550   6.211   6.315   7.189 -0.0820  0.3676  0.0217
  158SAPE    HX17551   6.275   6.225   7.177 -3.8985 -2.3706 -1.7796
  158SAPE    HY17552   6.269   6.382   7.257  1.0541  2.1024 -2.5050
  158SAPE   O3117553   6.199   6.384   7.061  0.1449  1.0837 -0.1500
  158SAPE   C3117554   6.175   6.514   7.081  0.0869 -0.0199 -0.4989
  158SAPE   O3217555   6.147   6.570   7.187 -0.3359  0.2545  0.5129
  158SAPE   C3217556   6.177   6.586   6.942 -0.0366  0.1907 -0.0130
  158SAPE   H2X17557   6.072   6.583   6.904  0.0137  0.6502 -0.1906
  158SAPE   H2Y17558   6.253   6.533   6.882  1.9695  4.4426 -1.6340
  158SAPE   C2317559   6.152   5.832   7.111  0.9963 -0.3088 -0.2812
  158SAPE   H3R17560   6.113   5.728   7.100  0.6428 -0.2116  0.0235
  158SAPE   H3S17561   6.254   5.814   7.152  0.7835 -0.9677 -0.0276
  158SAPE   C2417562   6.172   5.898   6.978  0.3128 -0.1861  0.3348
  158SAPE   H4R17563   6.239   5.843   6.908 -0.3642  0.8146 -1.1566
  158SAPE   H4S17564   6.223   5.997   6.986  0.7280 -0.2574 -1.0184
  158SAPE   C2517565   6.038   5.901   6.908  0.1887  0.8390  0.3932
  158SAPE   H5R17566   5.966   5.829   6.949  1.4387 -0.5809  0.1747
  158SAPE   C2617567   5.995   5.978   6.804 -0.0134 -0.4324 -0.1988
  158SAPE   H6R17568   5.891   5.969   6.770 -0.8460  1.2245  1.6693
  158SAPE   C2717569   6.084   6.082   6.735 -0.2271  0.3994 -0.2050
  158SAPE   H7R17570   6.079   6.078   6.624  1.0694 -1.1481 -0.2583
  158SAPE   H7S17571   6.192   6.066   6.758  0.3039  0.2949 -2.5109
  158SAPE   C2817572   6.040   6.214   6.797 -0.0061 -1.0480  0.2964
  158SAPE   H8R17573   6.095   6.231   6.891  0.0942 -2.4882  0.5152
  158SAPE   C2917574   5.972   6.322   6.745  0.0948  0.4690  0.4946
  158SAPE   H9R17575   5.958   6.408   6.813  1.1470  1.2131 -0.1873
  158SAPE  C21017576   5.899   6.338   6.612 -0.5574 -0.2798 -0.5999
  158SAPE  H10R17577   5.791   6.348   6.637 -0.1035 -0.1854  1.5114
  158SAPE  H10S17578   5.903   6.246   6.549  0.2199 -0.4218 -0.3522
  158SAPE  C21117579   5.942   6.464   6.535  0.1373  0.0730  0.9540
  158SAPE  H11R17580   5.943   6.562   6.585  0.1368  0.0625  0.9747
  158SAPE  C21217581   5.961   6.466   6.399 -0.7684  0.0188 -1.0981
  158SAPE  H12R17582   5.986   6.562   6.352  0.6660 -0.9012 -2.3300
  158SAPE  C21317583   5.941   6.354   6.299  0.3230 -0.4120 -0.2148
  158SAPE  H13R17584   5.916   6.257   6.347 -0.8781 -0.5229 -1.0235
  158SAPE  H13S17585   6.034   6.337   6.242  0.0523 -1.8552 -0.2776
  158SAPE  C21417586   5.825   6.394   6.213 -0.3000 -0.5891 -0.3531
  158SAPE  H14R17587   5.746   6.435   6.278 -0.2860  1.3268 -1.4595
  158SAPE  C21517588   5.816   6.375   6.079 -0.4704  0.3324 -0.2247
  158SAPE  H15R17589   5.736   6.427   6.025 -0.7465 -0.7558 -0.8977
  158SAPE  C21617590   5.907   6.311   5.979  0.0432 -0.7446  0.8888
  158SAPE  H16R17591   5.991   6.263   6.034  1.0077 -0.7470 -0.5308
  158SAPE  H16S17592   5.942   6.395   5.915 -1.3991 -1.6335 -1.1640
  158SAPE  C21717593   5.840   6.200   5.896 -0.6756 -0.2309 -0.1298
  158SAPE  H17R17594   5.805   6.124   5.969  0.8913 -1.0714 -0.2142
  158SAPE  H17S17595   5.909   6.150   5.825  1.2968  1.1890  0.7107
  158SAPE  C21817596   5.723   6.244   5.808  0.0388 -0.6714 -0.9471
  158SAPE  H18R17597   5.679   6.332   5.861  2.7016  0.0981  0.2102
  158SAPE  H18S17598   5.647   6.163   5.811 -1.4647  0.7144  0.3065
  158SAPE  C21917599   5.748   6.288   5.656  0.4995 -0.1673  0.0104
  158SAPE  H19R17600   5.808   6.379   5.636 -1.1221  0.8281 -0.4297
  158SAPE  H19S17601   5.646   6.314   5.624  0.4933  1.9478  1.5533
  158SAPE  C22017602   5.797   6.169   5.571  0.1109 -0.1386  0.4991
  158SAPE  H20R17603   5.761   6.187   5.467  1.1082 -1.0127 -0.0292
  158SAPE  H20S17604   5.747   6.079   5.610  0.7292 -1.2552 -1.1595
  158SAPE  H20T17605   5.908   6.173   5.572  0.3066  2.5244 -3.6243
  158SAPE   C3317606   6.233   6.729   6.945 -1.1089 -0.6329  0.1665
  158SAPE   H3X17607   6.336   6.735   6.986 -1.1198 -0.2580  0.1499
  158SAPE   H3Y17608   6.183   6.799   7.017  1.7398  0.7745  0.9415
  158SAPE   C3417609   6.249   6.791   6.804 -0.3496 -0.1791  0.1351
  158SAPE   H4X17610   6.266   6.900   6.820 -0.0852 -0.2236  0.1737
  158SAPE   H4Y17611   6.152   6.790   6.749 -1.1515  1.5849  1.4203
  158SAPE   C3517612   6.358   6.724   6.724  0.4985 -0.1623 -0.4083
  158SAPE   H5X17613   6.342   6.616   6.706 -0.5366 -0.2162  0.7466
  158SAPE   H5Y17614   6.452   6.751   6.776 -0.0132 -1.1109  1.0585
  158SAPE   C3617615   6.358   6.792   6.583  1.0043 -0.7707  0.6506
  158SAPE   H6X17616   6.457   6.783   6.533  0.5214 -0.9918 -0.2915
  158SAPE   H6Y17617   6.316   6.893   6.605  0.6810 -1.2891  2.6274
  158SAPE   C3717618   6.252   6.730   6.482 -0.0734 -0.0139 -0.0854
  158SAPE   H7X17619   6.153   6.780   6.485 -0.7481 -1.3816  1.4151
  158SAPE   H7Y17620   6.224   6.628   6.515 -1.3717  1.2643  3.1607
  158SAPE   C3817621   6.306   6.725   6.335 -0.3378 -0.6106  0.4052
  158SAPE   H8X17622   6.390   6.653   6.328  0.3499  0.3682 -3.6173
  158SAPE   H8Y17623   6.325   6.827   6.296  0.1778 -0.4132  1.1486
  158SAPE   C3917624   6.197   6.672   6.247 -0.4731 -0.7680  0.1360
  158SAPE   H9X17625   6.101   6.725   6.262 -0.2438 -0.5527  0.8806
  158SAPE   H9Y17626   6.176   6.568   6.281 -2.1390  0.3216  2.7469
  158SAPE  C31017627   6.230   6.681   6.102  0.3452 -0.1032 -0.5761
  158SAPE  H10X17628   6.319   6.625   6.066  0.8733  1.6027 -2.0545
  158SAPE  H10Y17629   6.253   6.786   6.072 -1.6967  0.7900  0.7480
  158SAPE  C31117630   6.110   6.631   6.025  0.2612 -0.5541  1.1060
  158SAPE  H11X17631   6.021   6.691   6.054 -0.0011 -0.9387  1.1185
  158SAPE  H11Y17632   6.085   6.531   6.067 -0.5957 -1.8682 -2.2249
  158SAPE  C31217633   6.136   6.637   5.878 -0.6021 -0.3630  0.5482
  158SAPE  H12X17634   6.190   6.732   5.861 -3.3859  1.1845 -0.1983
  158SAPE  H12Y17635   6.041   6.645   5.821  0.0140 -0.4580 -0.5222
  158SAPE  C31317636   6.213   6.521   5.819  0.8114  0.1441  0.1962
  158SAPE  H13X17637   6.184   6.424   5.865 -1.7759  1.0096  0.5807
  158SAPE  H13Y17638   6.321   6.522   5.846  0.8131  0.5579  0.1815
  158SAPE  C31417639   6.188   6.506   5.670 -0.5983 -0.1085  0.0159
  158SAPE  H14X17640   6.085   6.527   5.635 -0.8460  1.0961  1.4054
  158SAPE  H14Y17641   6.204   6.396   5.659  0.4714 -0.0307  0.7200
  158SAPE  C31517642   6.295   6.580   5.583 -0.6548 -0.3474 -0.4816
  158SAPE  H15X17643   6.391   6.568   5.638 -0.3469  0.5542 -0.8037
  158SAPE  H15Y17644   6.281   6.690   5.579  0.9230 -0.1423 -1.8097
  158SAPE  C31617645   6.336   6.514   5.454 -0.3293 -0.0913  0.4578
  158SAPE  H16X17646   6.311   6.407   5.471 -3.5868  0.3946 -0.4486
  158SAPE  H16Y17647   6.443   6.528   5.430 -0.0878 -0.3551  1.3751
  158SAPE  C31717648   6.247   6.568   5.340 -1.1342 -0.0928 -0.3086
  158SAPE  H17X17649   6.270   6.676   5.328  1.5492 -0.5237  0.2598
  158SAPE  H17Y17650   6.138   6.570   5.362 -0.8863 -0.9036  1.1261
  158SAPE  C31817651   6.285   6.498   5.212  0.1307  0.0157  0.1573
  158SAPE  H18X17652   6.219   6.526   5.127 -0.5251 -1.6262  0.0823
  158SAPE  H18Y17653   6.276   6.387   5.224 -2.0255  0.0598 -0.5950
  158SAPE  H18Z17654   6.389   6.531   5.191 -0.5912  2.8257  0.6324
  159SAPE     N17655   4.820   4.174   2.693  0.3538 -0.1009 -0.4142
  159SAPE   HN117656   4.782   4.102   2.628 -0.2435  0.1179 -0.3160
  159SAPE   HN217657   4.737   4.226   2.728  2.1943  0.9177  2.9050
  159SAPE   HN317658   4.882   4.244   2.648 -0.1368  0.6438  0.0416
  159SAPE   C1217659   4.888   4.108   2.802 -0.5289  0.5032 -0.2131
  159SAPE  H12A17660   4.815   4.041   2.852 -1.2868  1.1830 -0.3821
  159SAPE  H12B17661   4.931   4.181   2.874  2.5161  0.3132 -1.6856
  159SAPE   C1117662   5.011   4.033   2.743  0.9921  0.8080 -0.3608
  159SAPE  H11A17663   4.967   3.964   2.669 -0.5879  0.3231  0.9814
  159SAPE  H11B17664   5.059   3.980   2.828 -1.9730  1.2488  1.7182
  159SAPE     P17665   5.224   4.200   2.735 -0.0327 -0.1548  0.4092
  159SAPE   O1317666   5.343   4.106   2.749 -0.4542 -0.3636  0.3810
  159SAPE   O1417667   5.253   4.327   2.666 -0.0049 -0.0621 -0.1940
  159SAPE   O1217668   5.103   4.117   2.669 -0.1173  0.3176  0.3599
  159SAPE   O1117669   5.165   4.229   2.876 -0.0762 -0.2807  0.3686
  159SAPE    C117670   5.174   4.360   2.936 -0.0616 -0.3723 -0.5231
  159SAPE    HA17671   5.157   4.443   2.864  1.6191  0.6515  0.1878
  159SAPE    HB17672   5.097   4.362   3.016 -0.3153 -1.2265 -0.7396
  159SAPE    C217673   5.315   4.368   2.999  0.8554  0.2480  0.8501
  159SAPE    HS17674   5.387   4.335   2.922 -0.8407 -0.4803 -0.4691
  159SAPE   O2117675   5.314   4.280   3.112 -0.2817  0.6181 -0.5988
  159SAPE   C2117676   5.430   4.238   3.158 -0.3571 -0.2053 -0.1679
  159SAPE   O2217677   5.543   4.268   3.116  0.1502  0.1925 -0.2993
  159SAPE   C2217678   5.406   4.144   3.272 -0.9488  0.8555 -0.5903
  159SAPE   H2R17679   5.300   4.114   3.285 -0.9029  1.3638  1.3318
  159SAPE   H2S17680   5.467   4.052   3.260 -0.1053  1.1298  1.2008
  159SAPE    C317681   5.353   4.518   3.036 -0.1562  0.0672  0.6851
  159SAPE    HX17682   5.329   4.579   2.946  2.9769  1.4664  0.6813
  159SAPE    HY17683   5.460   4.539   3.054 -0.3003  0.5938  0.9405
  159SAPE   O3117684   5.289   4.563   3.158  0.3739  0.1357  0.8912
  159SAPE   C3117685   5.177   4.632   3.149  0.1362  0.3625  0.1980
  159SAPE   O3217686   5.113   4.670   3.058  0.3190  0.1241  0.2017
  159SAPE   C3217687   5.150   4.679   3.292  0.4465 -0.6042  0.5901
  159SAPE   H2X17688   5.245   4.713   3.339  0.2555 -1.5047  1.6625
  159SAPE   H2Y17689   5.121   4.592   3.354  1.3941 -0.8024  0.7739
  159SAPE   C2317690   5.438   4.217   3.410  0.2003 -0.0532 -0.2362
  159SAPE   H3R17691   5.381   4.312   3.411  0.0065 -0.1648 -0.4274
  159SAPE   H3S17692   5.543   4.251   3.397  0.0621  1.0422  1.2869
  159SAPE   C2417693   5.401   4.141   3.537  0.1184  0.0882 -0.5345
  159SAPE   H4R17694   5.450   4.189   3.624  0.5032 -0.4506 -0.4447
  159SAPE   H4S17695   5.437   4.037   3.554 -3.0197 -0.9078  0.5979
  159SAPE   C2517696   5.250   4.127   3.548  0.4659  0.0176 -0.3980
  159SAPE   H5R17697   5.201   4.041   3.500  0.3960  0.0948 -0.4633
  159SAPE   C2617698   5.165   4.199   3.620 -0.0864 -0.0851 -0.6927
  159SAPE   H6R17699   5.059   4.173   3.606  0.4865 -1.9597 -1.7714
  159SAPE   C2717700   5.199   4.335   3.691 -0.0371  0.5453  0.0489
  159SAPE   H7R17701   5.157   4.416   3.629 -0.0469  0.2783 -0.2940
  159SAPE   H7S17702   5.308   4.359   3.684 -0.4744  2.0059 -2.9545
  159SAPE   C2817703   5.145   4.365   3.830  0.9008  0.0298 -0.3090
  159SAPE   H8R17704   5.057   4.431   3.823  0.9679  0.1044 -0.4441
  159SAPE   C2917705   5.178   4.320   3.948 -0.6749  1.0807 -0.0818
  159SAPE   H9R17706   5.120   4.342   4.038 -2.0511  0.0602 -0.6801
  159SAPE  C21017707   5.313   4.252   3.963  0.5835 -0.2333 -1.1676
  159SAPE  H10R17708   5.392   4.276   3.889  0.9775 -0.9418 -0.9941
  159SAPE  H10S17709   5.303   4.142   3.953  0.1815 -0.1507 -1.6996
  159SAPE  C21117710   5.385   4.279   4.100  0.1233  1.1567  0.0739
  159SAPE  H11R17711   5.469   4.351   4.101  1.0467  0.1156  0.0037
  159SAPE  C21217712   5.352   4.228   4.217  0.0912 -0.5655 -0.0828
  159SAPE  H12R17713   5.407   4.267   4.304 -0.1660 -0.5540  0.0751
  159SAPE  C21317714   5.245   4.119   4.249 -0.2709 -0.3427  0.6722
  159SAPE  H13R17715   5.297   4.033   4.296 -1.0292 -1.9180 -1.2305
  159SAPE  H13S17716   5.188   4.074   4.165 -2.0093 -2.0517  2.6458
  159SAPE  C21417717   5.141   4.162   4.347  0.2712 -0.5296  0.3064
  159SAPE  H14R17718   5.057   4.215   4.299 -1.0525 -1.0336  1.9536
  159SAPE  C21517719   5.142   4.154   4.489  0.3579  0.3040 -0.3850
  159SAPE  H15R17720   5.055   4.187   4.546  0.4881 -1.9287  1.2149
  159SAPE  C21617721   5.254   4.094   4.580  0.6045  0.2786  0.1586
  159SAPE  H16R17722   5.287   4.171   4.654  0.0424  0.8755 -0.1944
  159SAPE  H16S17723   5.349   4.080   4.524  0.0981  4.6510 -2.2876
  159SAPE  C21717724   5.214   3.985   4.683 -0.1029  0.4432 -0.6095
  159SAPE  H17R17725   5.308   3.934   4.714 -1.4883 -2.0561 -0.2196
  159SAPE  H17S17726   5.152   3.912   4.628 -0.6954 -1.3944  2.2801
  159SAPE  C21817727   5.135   4.042   4.795  0.7146  0.1982  0.4229
  159SAPE  H18R17728   5.035   4.058   4.752 -0.0327 -1.5347  1.3827
  159SAPE  H18S17729   5.176   4.141   4.823  1.6726  0.1651 -0.7659
  159SAPE  C21917730   5.125   3.941   4.911  0.3373  0.6788 -0.2139
  159SAPE  H19R17731   5.227   3.934   4.955 -0.1731  1.5784  1.1456
  159SAPE  H19S17732   5.092   3.845   4.866  1.8453 -0.7129  1.4919
  159SAPE  C22017733   5.024   3.992   5.016  0.0796  0.1269 -0.3922
  159SAPE  H20R17734   5.030   3.944   5.117  0.7357  1.2743  0.1363
  159SAPE  H20S17735   4.921   3.974   4.980 -0.2743  0.3763  0.4628
  159SAPE  H20T17736   5.037   4.101   5.034 -1.5038  0.7298 -2.4813
  159SAPE   C3317737   5.033   4.788   3.306  0.0513 -0.0103  1.0796
  159SAPE   H3X17738   4.935   4.756   3.264 -0.5836  2.5267  0.4543
  159SAPE   H3Y17739   5.053   4.875   3.240  0.4711 -0.4069  0.6768
  159SAPE   C3417740   5.013   4.845   3.449  0.8202  0.2000 -0.0526
  159SAPE   H4X17741   4.923   4.908   3.431  1.1651  1.0231  1.0199
  159SAPE   H4Y17742   5.106   4.903   3.465  0.7410  0.3900 -0.2713
  159SAPE   C3517743   5.002   4.747   3.559  0.4460 -0.3308 -0.1729
  159SAPE   H5X17744   5.099   4.694   3.572  1.0756  0.4630 -1.3966
  159SAPE   H5Y17745   4.925   4.672   3.533  0.7723 -1.6726  2.4100
  159SAPE   C3617746   4.941   4.802   3.685 -0.0600  0.2284  0.7328
  159SAPE   H6X17747   4.838   4.841   3.669  0.4093  0.6235 -1.7376
  159SAPE   H6Y17748   4.998   4.891   3.719  1.6659 -0.5458  0.0153
  159SAPE   C3717749   4.943   4.710   3.807 -0.0750  0.3858  1.0019
  159SAPE   H7X17750   5.047   4.676   3.821 -0.4410 -1.1689  0.2064
  159SAPE   H7Y17751   4.875   4.622   3.801  0.1688  0.0549  2.6949
  159SAPE   C3817752   4.894   4.784   3.932 -0.2021 -0.2644 -0.3592
  159SAPE   H8X17753   4.786   4.809   3.921 -0.0452  0.0481 -1.3333
  159SAPE   H8Y17754   4.955   4.876   3.944 -1.6965  0.8386 -0.9314
  159SAPE   C3917755   4.926   4.714   4.063  0.1694  0.3156 -0.6125
  159SAPE   H9X17756   5.036   4.708   4.078  0.0307 -0.0464  0.3571
  159SAPE   H9Y17757   4.885   4.611   4.068  0.2622  0.3076  3.3221
  159SAPE  C31017758   4.859   4.783   4.180 -0.4097 -0.1868  0.8754
  159SAPE  H10X17759   4.753   4.781   4.147 -0.2717 -2.6168  0.3800
  159SAPE  H10Y17760   4.892   4.888   4.200  0.3679 -0.4298  0.9318
  159SAPE  C31117761   4.870   4.706   4.305  0.4200  0.2309  0.3280
  159SAPE  H11X17762   4.844   4.599   4.295 -1.8223  0.6192  1.4996
  159SAPE  H11Y17763   4.789   4.738   4.373 -0.4954  0.0363 -0.6505
  159SAPE  C31217764   5.001   4.711   4.375 -0.3249 -0.4062  0.1039
  159SAPE  H12X17765   5.017   4.821   4.382 -2.3183 -0.0903  0.4611
  159SAPE  H12Y17766   5.068   4.674   4.295 -0.9428  0.8215 -1.0280
  159SAPE  C31317767   5.008   4.629   4.509  0.1870  0.1533 -0.3472
  159SAPE  H13X17768   4.964   4.528   4.496  3.4247 -1.3071 -1.0878
  159SAPE  H13Y17769   4.949   4.687   4.583  1.2946 -0.1619  0.8247
  159SAPE  C31417770   5.164   4.610   4.546 -0.5937  0.9991 -0.5004
  159SAPE  H14X17771   5.204   4.706   4.586 -2.2543  1.5055  0.0551
  159SAPE  H14Y17772   5.217   4.571   4.457 -0.9509 -0.0683 -0.2530
  159SAPE  C31517773   5.177   4.499   4.654 -0.0885  0.0388 -0.0521
  159SAPE  H15X17774   5.274   4.446   4.645 -0.9247 -1.9770  1.9636
  159SAPE  H15Y17775   5.095   4.425   4.650 -0.5211  0.4865  0.3390
  159SAPE  C31617776   5.176   4.555   4.795 -0.1039 -0.2900 -0.4541
  159SAPE  H16X17777   5.087   4.621   4.809 -0.8471 -1.7919  2.9256
  159SAPE  H16Y17778   5.270   4.609   4.817  1.5128 -3.8710  2.4550
  159SAPE  C31717779   5.170   4.442   4.898 -0.1148  0.1182  0.1232
  159SAPE  H17X17780   5.204   4.345   4.856 -0.2557  0.9838 -2.1541
  159SAPE  H17Y17781   5.066   4.418   4.929 -0.8517  2.3197 -0.4555
  159SAPE  C31817782   5.248   4.485   5.024 -0.4049  0.0904 -0.3608
  159SAPE  H18X17783   5.350   4.521   4.998  1.1584 -1.5886  2.8051
  159SAPE  H18Y17784   5.261   4.388   5.078  1.3318  1.2241  1.4153
  159SAPE  H18Z17785   5.191   4.558   5.085 -0.5880 -0.7790  0.5420
  160SAPE     N17786   5.534   3.002   2.562 -0.2082  0.2654  0.5139
  160SAPE   HN117787   5.630   3.038   2.543  0.4682 -1.6800  0.0722
  160SAPE   HN217788   5.485   3.091   2.584  1.0504  1.0664  0.2206
  160SAPE   HN317789   5.534   2.937   2.642  1.7711 -0.7627 -0.2443
  160SAPE   C1217790   5.451   2.945   2.450 -0.5540  0.2562  0.4405
  160SAPE  H12A17791   5.513   2.864   2.405 -0.3719  0.7324 -0.1956
  160SAPE  H12B17792   5.446   3.030   2.378 -1.6865 -0.7596 -0.7371
  160SAPE   C1117793   5.313   2.895   2.494  0.7515  0.4279  0.4238
  160SAPE  H11A17794   5.264   2.836   2.414  2.3531 -0.1807 -0.1453
  160SAPE  H11B17795   5.239   2.975   2.514 -1.1949 -0.3363 -3.0584
  160SAPE     P17796   5.266   2.829   2.760 -0.0549  0.0398  0.0907
  160SAPE   O1317797   5.290   2.702   2.839 -0.1809  0.0108  0.6842
  160SAPE   O1417798   5.322   2.954   2.810 -0.1984 -0.1799  0.6158
  160SAPE   O1217799   5.327   2.809   2.614  0.8790 -0.0502  0.3899
  160SAPE   O1117800   5.116   2.845   2.731 -0.0602  0.0164  0.5276
  160SAPE    C117801   5.039   2.964   2.723  0.3195 -0.3999 -0.3702
  160SAPE    HA17802   5.095   3.059   2.708 -0.4138  0.0813 -0.1183
  160SAPE    HB17803   4.957   2.943   2.650 -0.6014 -0.3139  0.6160
  160SAPE    C217804   4.958   2.988   2.858  0.1082  0.2924  0.3808
  160SAPE    HS17805   4.875   3.054   2.827 -1.0001 -1.3575 -0.2731
  160SAPE   O2117806   5.031   3.024   2.979  0.8235  0.3282  0.1726
  160SAPE   C2117807   5.100   3.134   2.979  0.4669 -0.0436  0.3504
  160SAPE   O2217808   5.104   3.215   2.893 -0.1431  0.4340  0.3781
  160SAPE   C2217809   5.164   3.157   3.114 -0.4253  0.2687 -0.4190
  160SAPE   H2R17810   5.086   3.151   3.193 -0.3574 -0.6119 -0.4086
  160SAPE   H2S17811   5.232   3.071   3.132 -1.4159 -0.2395  1.1046
  160SAPE    C317812   4.883   2.859   2.892  0.1150 -0.4469 -0.6310
  160SAPE    HX17813   4.948   2.774   2.921 -0.6041 -0.1297  2.2541
  160SAPE    HY17814   4.819   2.832   2.806  0.5981 -0.7034 -0.9105
  160SAPE   O3117815   4.781   2.893   3.000  0.4694  0.3048  0.3093
  160SAPE   C3117816   4.816   2.865   3.119  0.2968  0.6103 -0.1253
  160SAPE   O3217817   4.926   2.827   3.157 -0.2709  0.1145  0.3455
  160SAPE   C3217818   4.701   2.902   3.219 -0.1815  0.1771  0.0705
  160SAPE   H2X17819   4.634   2.818   3.192  2.2884 -1.3744 -1.6017
  160SAPE   H2Y17820   4.664   3.002   3.191  2.3139  1.7205  1.7884
  160SAPE   C2317821   5.223   3.297   3.140 -0.6646 -0.1374  0.5823
  160SAPE   H3R17822   5.180   3.377   3.077 -2.2083 -1.1122  0.3572
  160SAPE   H3S17823   5.334   3.294   3.129 -0.5594 -1.2096  1.7083
  160SAPE   C2417824   5.187   3.341   3.276 -0.1098 -0.3102 -0.1640
  160SAPE   H4R17825   5.223   3.268   3.351  0.9993  0.5490  0.1661
  160SAPE   H4S17826   5.078   3.328   3.294 -0.0818  0.1270  0.3803
  160SAPE   C2517827   5.233   3.477   3.317  0.0006  0.3801  0.2481
  160SAPE   H5R17828   5.341   3.494   3.311  0.0741  0.5573  1.6841
  160SAPE   C2617829   5.167   3.573   3.387 -0.1936  0.3206  0.0935
  160SAPE   H6R17830   5.217   3.665   3.418 -1.0607  1.0704 -0.6820
  160SAPE   C2717831   5.029   3.562   3.442 -0.4155  0.2168 -0.0312
  160SAPE   H7R17832   5.013   3.473   3.506 -0.6705  0.3513  0.0961
  160SAPE   H7S17833   4.961   3.555   3.354 -1.2340  2.8207  0.2954
  160SAPE   C2817834   4.978   3.685   3.516  0.4581  0.0252  0.7340
  160SAPE   H8R17835   4.877   3.716   3.485  0.3536 -1.9660 -1.1344
  160SAPE   C2917836   5.032   3.744   3.630  0.0700  0.9156 -0.1483
  160SAPE   H9R17837   4.976   3.826   3.677 -1.5194 -0.4605  0.4332
  160SAPE  C21017838   5.164   3.704   3.702  0.2612 -0.4420  0.2913
  160SAPE  H10R17839   5.246   3.694   3.627  0.8512 -1.2482  1.0262
  160SAPE  H10S17840   5.157   3.600   3.742  0.6534 -1.6954 -2.6308
  160SAPE  C21117841   5.200   3.799   3.811  0.6048  0.3957 -0.4370
  160SAPE  H11R17842   5.258   3.885   3.775  2.0418 -0.2975  0.0877
  160SAPE  C21217843   5.162   3.795   3.941 -0.7254 -0.9190  0.5013
  160SAPE  H12R17844   5.212   3.859   4.016 -1.5973 -0.2217  0.5015
  160SAPE  C21317845   5.083   3.697   4.016  0.7044 -0.1088 -0.2598
  160SAPE  H13R17846   5.149   3.612   4.045  1.1563 -0.2738 -1.6958
  160SAPE  H13S17847   5.014   3.647   3.945 -0.7580  2.2196 -0.5645
  160SAPE  C21417848   5.014   3.762   4.141  0.4938 -0.3659  0.4571
  160SAPE  H14R17849   4.912   3.798   4.119  1.2941  1.4215 -0.5351
  160SAPE  C21517850   5.068   3.782   4.261 -0.1293  0.1145 -0.1730
  160SAPE  H15R17851   4.998   3.819   4.337 -1.0308 -0.3223 -0.7817
  160SAPE  C21617852   5.201   3.753   4.311  0.2582 -0.3018 -0.3501
  160SAPE  H16R17853   5.220   3.802   4.409  0.7220  0.2542 -0.7121
  160SAPE  H16S17854   5.287   3.783   4.246 -0.5426  0.7160 -0.9713
  160SAPE  C21717855   5.228   3.600   4.342 -0.2062  0.3796  1.0259
  160SAPE  H17R17856   5.332   3.591   4.380  0.5569 -0.6576 -1.1514
  160SAPE  H17S17857   5.219   3.542   4.248 -0.5643  2.1364 -0.0536
  160SAPE  C21817858   5.132   3.538   4.447 -0.8576  0.1438 -0.9272
  160SAPE  H18R17859   5.154   3.430   4.459 -2.9843 -0.2565 -0.1366
  160SAPE  H18S17860   5.029   3.536   4.404 -0.8187 -0.4584 -0.9969
  160SAPE  C21917861   5.126   3.606   4.584 -0.2480 -0.0579  0.1086
  160SAPE  H19R17862   5.047   3.572   4.653 -0.7909  4.2293  1.9481
  160SAPE  H19S17863   5.091   3.711   4.569  2.1981  0.5322 -2.3284
  160SAPE  C22017864   5.266   3.608   4.655  0.1067 -0.0508  0.0121
  160SAPE  H20R17865   5.283   3.503   4.688  0.1964  0.4676  1.6931
  160SAPE  H20S17866   5.252   3.675   4.742  0.8903 -0.3485  0.3775
  160SAPE  H20T17867   5.347   3.652   4.593 -1.3232  2.0130 -0.4902
  160SAPE   C3317868   4.743   2.898   3.370  0.1870 -0.1376  0.2775
  160SAPE   H3X17869   4.816   2.815   3.386 -0.3245 -0.8425 -0.8913
  160SAPE   H3Y17870   4.652   2.882   3.431  1.5178 -0.1069  2.3954
  160SAPE   C3417871   4.796   3.032   3.415 -0.2019 -0.9449  0.8089
  160SAPE   H4X17872   4.732   3.119   3.386  0.6566 -0.8778 -0.9722
  160SAPE   H4Y17873   4.893   3.050   3.366 -0.8341  3.2187  0.7118
  160SAPE   C3517874   4.808   3.038   3.573  0.0751  0.3220  0.1815
  160SAPE   H5X17875   4.867   2.950   3.603 -0.1893 -0.2958 -1.0277
  160SAPE   H5Y17876   4.706   3.036   3.617 -0.5111 -0.5688 -1.1445
  160SAPE   C3617877   4.879   3.170   3.614  0.2744  0.2427  0.1176
  160SAPE   H6X17878   4.817   3.254   3.577 -0.2628  0.2657  1.0062
  160SAPE   H6Y17879   4.974   3.175   3.557  0.4609  1.8029  0.5132
  160SAPE   C3717880   4.889   3.194   3.763  0.1754  0.0804  0.2386
  160SAPE   H7X17881   4.921   3.095   3.801 -0.2038 -1.6507 -3.4521
  160SAPE   H7Y17882   4.785   3.218   3.793 -0.7282 -0.5528 -2.1148
  160SAPE   C3817883   4.977   3.306   3.811 -0.3688 -0.1482  0.0112
  160SAPE   H8X17884   4.916   3.398   3.799 -2.1648 -1.4949 -1.7201
  160SAPE   H8Y17885   5.068   3.321   3.749  0.5022  0.8289  1.4408
  160SAPE   C3917886   5.025   3.303   3.958 -0.0095 -0.0563  0.6578
  160SAPE   H9X17887   5.103   3.382   3.959 -2.1077  2.1214  1.2020
  160SAPE   H9Y17888   5.081   3.207   3.969 -0.0693 -0.2401 -0.5578
  160SAPE  C31017889   4.928   3.331   4.069  0.5331  0.9341  0.0026
  160SAPE  H10X17890   4.847   3.260   4.039  0.1211  0.6252  1.7083
  160SAPE  H10Y17891   4.901   3.436   4.046 -2.1020  0.3999  0.3104
  160SAPE  C31117892   4.965   3.313   4.216  0.1819 -0.0052  0.0848
  160SAPE  H11X17893   4.884   3.370   4.268  0.0946 -0.9265  0.9926
  160SAPE  H11Y17894   5.066   3.357   4.214  1.3718 -2.5568 -0.7647
  160SAPE  C31217895   4.969   3.171   4.270 -0.0654  0.6790 -0.3559
  160SAPE  H12X17896   5.018   3.108   4.193  0.2400 -2.5538  2.3140
  160SAPE  H12Y17897   4.862   3.142   4.280  0.2796 -0.7018 -0.5098
  160SAPE  C31317898   5.029   3.156   4.407 -0.0290  0.1584 -0.8301
  160SAPE  H13X17899   5.004   3.054   4.445 -3.7237  1.2028 -0.1224
  160SAPE  H13Y17900   4.994   3.227   4.485 -0.6213 -1.2596  0.2484
  160SAPE  C31417901   5.178   3.175   4.402 -0.1419 -0.4294  0.5524
  160SAPE  H14X17902   5.206   3.266   4.344 -0.1712 -0.2355  0.8415
  160SAPE  H14Y17903   5.226   3.085   4.359  3.3278  1.0206  1.0700
  160SAPE  C31517904   5.235   3.182   4.548 -0.9642 -0.2632  0.5758
  160SAPE  H15X17905   5.209   3.085   4.595  0.3637 -0.3382  1.1866
  160SAPE  H15Y17906   5.188   3.257   4.616 -1.0906 -0.8703  1.1688
  160SAPE  C31617907   5.386   3.219   4.543 -0.1887 -0.2575  0.4964
  160SAPE  H16X17908   5.389   3.314   4.486 -0.1841  1.8085  3.6991
  160SAPE  H16Y17909   5.444   3.146   4.483 -1.1369  0.1786 -1.0107
  160SAPE  C31717910   5.437   3.249   4.684  0.6902 -0.2892  0.2513
  160SAPE  H17X17911   5.400   3.166   4.748 -0.5557 -0.6144 -0.8375
  160SAPE  H17Y17912   5.380   3.340   4.711 -1.1445 -0.7825 -1.6710
  160SAPE  C31817913   5.587   3.277   4.688 -0.5113 -0.3004 -0.2903
  160SAPE  H18X17914   5.610   3.372   4.636 -5.2477  1.5631  0.5362
  160SAPE  H18Y17915   5.636   3.181   4.658 -0.5963 -0.1272 -0.9851
  160SAPE  H18Z17916   5.606   3.294   4.796 -1.7828  2.9859 -0.4995
  161SAPE     N17917   5.058   0.257   2.885 -0.1249 -0.5655 -0.4105
  161SAPE   HN117918   4.958   0.274   2.906 -0.5834 -0.9086 -2.1755
  161SAPE   HN217919   5.092   0.334   2.824 -1.1289 -0.9168 -1.4353
  161SAPE   HN317920   5.073   0.158   2.857 -0.0819 -0.9163  0.8146
  161SAPE   C1217921   5.117   0.271   3.027 -0.0967  0.3263  0.0584
  161SAPE  H12A17922   5.108   0.376   3.063  0.6096  1.2410 -2.2142
  161SAPE  H12B17923   5.224   0.244   3.009  0.1688  1.7673 -0.6806
  161SAPE   C1117924   5.032   0.187   3.127 -0.1800  0.6692  0.0646
  161SAPE  H11A17925   4.931   0.231   3.132  0.1039  1.6427 -1.9113
  161SAPE  H11B17926   5.080   0.191   3.227  0.9927  0.9199 -0.4810
  161SAPE     P17927   5.086  -0.077   3.143 -0.0408  0.0798  0.2463
  161SAPE   O1317928   5.066  -0.193   3.053 -0.2798 -0.4368  0.0303
  161SAPE   O1417929   5.220  -0.054   3.194 -0.1110 -0.1821 -0.7149
  161SAPE   O1217930   5.025   0.054   3.069  0.2234  0.7793  0.0725
  161SAPE   O1117931   4.989  -0.109   3.263 -0.1724 -0.3784 -0.0979
  161SAPE    C117932   4.852  -0.059   3.274  0.5707 -0.4548  1.3384
  161SAPE    HA17933   4.815  -0.003   3.186 -1.4001  0.9588  2.9624
  161SAPE    HB17934   4.786  -0.148   3.280 -0.3625 -0.0206 -1.3527
  161SAPE    C217935   4.842   0.036   3.401 -0.6188 -0.1765 -0.3622
  161SAPE    HS17936   4.900   0.127   3.376 -1.3069  0.7280  1.2111
  161SAPE   O2117937   4.895  -0.028   3.513  0.2209 -0.3848  0.0823
  161SAPE   C2117938   5.023   0.008   3.540 -0.0932 -0.1811 -0.0216
  161SAPE   O2217939   5.081   0.104   3.491 -0.2140 -0.2995 -0.0356
  161SAPE   C2217940   5.084  -0.084   3.644  0.8775 -0.1868 -0.3173
  161SAPE   H2R17941   5.087  -0.188   3.605  0.6761  0.5475 -2.3769
  161SAPE   H2S17942   5.183  -0.041   3.667  1.8283 -1.2242 -2.2671
  161SAPE    C317943   4.696   0.078   3.426 -0.3007  0.9021  0.7876
  161SAPE    HX17944   4.644  -0.012   3.465  0.4536  0.6336  1.1970
  161SAPE    HY17945   4.636   0.109   3.338 -3.0648 -3.0387  1.0074
  161SAPE   O3117946   4.699   0.175   3.530  0.1094  0.1260 -0.3963
  161SAPE   C3117947   4.719   0.300   3.496  0.0201  0.0274  0.4620
  161SAPE   O3217948   4.723   0.338   3.376 -0.2009  0.1294  0.5720
  161SAPE   C3217949   4.768   0.386   3.617  0.3391 -0.0731  0.2594
  161SAPE   H2X17950   4.878   0.400   3.614  0.2298  1.1929  1.1252
  161SAPE   H2Y17951   4.749   0.335   3.714  0.1792  1.3984  1.0297
  161SAPE   C2317952   5.001  -0.091   3.773  0.3910  0.5053 -0.3800
  161SAPE   H3R17953   5.025  -0.189   3.820  1.1085 -0.7007 -3.0515
  161SAPE   H3S17954   4.890  -0.085   3.769  0.2028 -0.3126  1.8417
  161SAPE   C2417955   5.041   0.015   3.879 -0.0871 -0.1871 -0.1002
  161SAPE   H4R17956   5.152   0.025   3.880 -0.1197  0.1805  0.9997
  161SAPE   H4S17957   5.004  -0.022   3.976  1.3116 -1.2419  0.0469
  161SAPE   C2517958   4.990   0.150   3.852 -0.3085  0.6344  0.5160
  161SAPE   H5R17959   5.034   0.188   3.759 -1.0208  0.5810  0.1521
  161SAPE   C2617960   4.921   0.230   3.933  0.3345 -0.2676  0.1255
  161SAPE   H6R17961   4.886   0.332   3.909 -1.6498 -0.3593  2.2453
  161SAPE   C2717962   4.868   0.198   4.073  0.3165 -0.6093  0.2941
  161SAPE   H7R17963   4.902   0.273   4.148 -1.5720  0.0446  0.5469
  161SAPE   H7S17964   4.900   0.096   4.103  1.5719 -0.5058 -0.5940
  161SAPE   C2817965   4.719   0.205   4.078  0.3265  0.2885  0.7606
  161SAPE   H8R17966   4.671   0.188   3.981  0.2281 -0.3651  0.9235
  161SAPE   C2917967   4.646   0.242   4.185 -0.9363  0.0212 -0.9900
  161SAPE   H9R17968   4.538   0.222   4.189 -0.6383 -1.4774  1.3051
  161SAPE  C21017969   4.704   0.276   4.319 -0.3282 -0.8363 -0.0850
  161SAPE  H10R17970   4.809   0.240   4.323  1.2355  3.1080 -0.9694
  161SAPE  H10S17971   4.647   0.221   4.397 -1.0860 -0.6317 -0.4870
  161SAPE  C21117972   4.706   0.427   4.338  0.2809  0.3899 -0.4479
  161SAPE  H11R17973   4.781   0.483   4.279  1.6685 -0.2307  0.6454
  161SAPE  C21217974   4.639   0.503   4.436  0.3407 -0.3050  0.7847
  161SAPE  H12R17975   4.642   0.612   4.421  1.2552 -0.2006  1.6240
  161SAPE  C21317976   4.553   0.448   4.545  0.0858  0.4156  0.4069
  161SAPE  H13R17977   4.547   0.337   4.541  0.3321  0.4338 -0.5564
  161SAPE  H13S17978   4.451   0.480   4.516 -0.5740 -1.2924  0.7462
  161SAPE  C21417979   4.594   0.495   4.686 -0.4381  0.3638  0.0343
  161SAPE  H14R17980   4.657   0.582   4.710 -0.8708  0.9409 -0.8604
  161SAPE  C21517981   4.543   0.446   4.800  0.0771  0.1765  0.5775
  161SAPE  H15R17982   4.585   0.478   4.896  0.9779 -1.4604  0.7721
  161SAPE  C21617983   4.436   0.341   4.802 -0.4141  0.2095 -0.7670
  161SAPE  H16R17984   4.412   0.297   4.703  2.9974 -1.6453 -0.9301
  161SAPE  H16S17985   4.341   0.389   4.833 -1.5150 -1.2893 -1.6769
  161SAPE  C21717986   4.444   0.221   4.896 -0.7283  0.3523 -0.7076
  161SAPE  H17R17987   4.450   0.260   5.000  0.3724  0.2941 -0.7319
  161SAPE  H17S17988   4.537   0.161   4.888 -2.0113 -2.1421  1.7322
  161SAPE  C21817989   4.334   0.112   4.896  0.3415  0.5887 -0.0106
  161SAPE  H18R17990   4.386   0.019   4.925  0.5084  0.8867  0.6722
  161SAPE  H18S17991   4.299   0.088   4.794 -0.8785  1.2456  0.2246
  161SAPE  C21917992   4.207   0.137   4.991 -0.3664  0.0333  0.7318
  161SAPE  H19R17993   4.172   0.242   4.988 -0.2960  0.0623 -2.9265
  161SAPE  H19S17994   4.243   0.108   5.092  2.9332 -1.4507 -0.7088
  161SAPE  C22017995   4.093   0.048   4.940  0.2988 -0.5719 -0.3114
  161SAPE  H20R17996   4.120  -0.059   4.950 -1.7894 -1.0995  0.0925
  161SAPE  H20S17997   4.064   0.070   4.835  0.6066  0.3547 -0.2103
  161SAPE  H20T17998   4.001   0.064   5.000  0.3541 -0.7431 -0.1790
  161SAPE   C3317999   4.706   0.529   3.622 -0.1096  0.3419  0.6082
  161SAPE   H3X18000   4.599   0.514   3.647 -1.0580  1.1256 -2.5685
  161SAPE   H3Y18001   4.712   0.563   3.517  0.9864  1.7611  1.0974
  161SAPE   C3418002   4.776   0.640   3.698 -0.4043  0.6010  0.4793
  161SAPE   H4X18003   4.704   0.723   3.681 -0.1572  1.1870  2.1791
  161SAPE   H4Y18004   4.875   0.665   3.655 -0.7054  1.9432  0.5240
  161SAPE   C3518005   4.782   0.610   3.846  0.1864  0.3209 -0.5551
  161SAPE   H5X18006   4.862   0.538   3.875 -0.5223 -0.2226  0.0807
  161SAPE   H5Y18007   4.685   0.564   3.873 -0.3602  1.5496 -0.3532
  161SAPE   C3618008   4.800   0.731   3.934  0.1507 -0.0934  0.5438
  161SAPE   H6X18009   4.715   0.801   3.915  0.1830 -0.2843 -0.3116
  161SAPE   H6Y18010   4.897   0.774   3.902 -0.2263 -1.5999 -3.0295
  161SAPE   C3718011   4.784   0.719   4.083 -0.0303 -0.3518 -0.4093
  161SAPE   H7X18012   4.857   0.653   4.135 -3.6919 -2.8918  1.9737
  161SAPE   H7Y18013   4.688   0.667   4.102  0.3272 -0.5493  0.9357
  161SAPE   C3818014   4.799   0.853   4.155 -0.4782 -0.2568 -0.2102
  161SAPE   H8X18015   4.757   0.935   4.093  3.0873  1.1465 -0.9926
  161SAPE   H8Y18016   4.909   0.864   4.165 -0.3880 -1.8474  1.0564
  161SAPE   C3918017   4.727   0.863   4.290  0.3890 -0.1422 -0.0655
  161SAPE   H9X18018   4.767   0.788   4.361  1.9545 -1.0468 -1.8345
  161SAPE   H9Y18019   4.618   0.840   4.284  0.4679 -0.5229 -0.0658
  161SAPE  C31018020   4.746   0.999   4.346 -0.2155 -0.2043 -0.2383
  161SAPE  H10X18021   4.703   1.082   4.287  0.4147  1.0144  0.9766
  161SAPE  H10Y18022   4.854   1.022   4.359 -0.1354 -0.9229  0.4330
  161SAPE  C31118023   4.689   0.997   4.494  0.0902  0.2514 -0.0157
  161SAPE  H11X18024   4.585   0.959   4.491 -0.3131  1.3695 -1.7873
  161SAPE  H11Y18025   4.683   1.105   4.520 -0.9598  0.0566  0.6014
  161SAPE  C31218026   4.765   0.914   4.592 -0.0169 -0.2208 -0.1124
  161SAPE  H12X18027   4.872   0.916   4.564 -0.2400 -1.2922 -1.1443
  161SAPE  H12Y18028   4.746   0.804   4.591 -3.0008  0.2052 -1.6394
  161SAPE  C31318029   4.755   0.976   4.734  0.1446  0.0954 -1.1887
  161SAPE  H13X18030   4.652   0.989   4.774  1.5488  2.2075  2.2629
  161SAPE  H13Y18031   4.804   1.076   4.731 -0.6230  0.6432  1.6880
  161SAPE  C31418032   4.829   0.888   4.842  0.3668  0.4828 -0.3970
  161SAPE  H14X18033   4.939   0.894   4.829  0.7497  1.9413  2.6558
  161SAPE  H14Y18034   4.805   0.782   4.822  1.0833  0.3248 -0.4529
  161SAPE  C31518035   4.789   0.921   4.987 -0.1491 -0.2354  0.7632
  161SAPE  H15X18036   4.849   0.859   5.058 -1.1624  1.1451  2.9292
  161SAPE  H15Y18037   4.683   0.888   4.994 -0.2476  0.0472  0.6037
  161SAPE  C31618038   4.814   1.071   5.028  0.5836 -0.4046 -0.0341
  161SAPE  H16X18039   4.760   1.139   4.958 -0.4650  0.3231  1.4345
  161SAPE  H16Y18040   4.916   1.110   5.008  0.9786 -1.0177  0.7582
  161SAPE  C31718041   4.767   1.104   5.175 -0.1022  0.2274 -0.0590
  161SAPE  H17X18042   4.670   1.053   5.194 -0.6024  1.2968  0.3789
  161SAPE  H17Y18043   4.747   1.213   5.183 -0.4986  0.1215  0.4573
  161SAPE  C31818044   4.865   1.067   5.275  0.6189 -0.2221 -0.4252
  161SAPE  H18X18045   4.833   1.113   5.371  0.1385 -2.8070  0.7382
  161SAPE  H18Y18046   4.966   1.106   5.253  1.6132 -0.4923  3.0382
  161SAPE  H18Z18047   4.860   0.957   5.285 -0.5474 -0.0793  1.0430
  162SAPE     N18048   3.117   6.486   2.545 -0.0203 -0.5353  0.2478
  162SAPE   HN118049   3.091   6.560   2.476  3.2661  1.0987  0.5437
  162SAPE   HN218050   3.195   6.523   2.603 -0.1923 -2.0643  1.4880
  162SAPE   HN318051   3.141   6.405   2.484 -1.0659  1.2735 -2.8371
  162SAPE   C1218052   3.003   6.454   2.634 -0.5346  0.0341  0.1198
  162SAPE  H12A18053   2.939   6.384   2.576 -0.3646 -1.7583  1.9512
  162SAPE  H12B18054   2.951   6.547   2.664 -2.0705 -0.2114 -1.5801
  162SAPE   C1118055   3.047   6.371   2.753 -1.4451 -0.4943 -0.2961
  162SAPE  H11A18056   2.955   6.340   2.808 -2.5837  0.4330 -1.6143
  162SAPE  H11B18057   3.108   6.428   2.827 -1.3002 -0.0647 -0.7408
  162SAPE     P18058   3.053   6.117   2.697 -0.3169 -0.1447 -0.0403
  162SAPE   O1318059   2.907   6.132   2.697 -0.2283 -0.1847 -0.0742
  162SAPE   O1418060   3.129   6.057   2.578  0.0712 -0.1640 -0.1566
  162SAPE   O1218061   3.124   6.257   2.714  0.3964  0.0663  0.7992
  162SAPE   O1118062   3.091   6.049   2.837  0.1653  0.4286  0.3218
  162SAPE    C118063   3.019   6.101   2.948 -0.1258 -1.1322 -0.0239
  162SAPE    HA18064   3.086   6.163   3.012 -1.5949 -0.6027  1.0605
  162SAPE    HB18065   2.939   6.176   2.929  0.6247  0.4838  2.5400
  162SAPE    C218066   2.960   5.992   3.041  0.1731 -0.3605  0.1890
  162SAPE    HS18067   2.862   5.970   2.994  1.2479  0.4220 -2.6311
  162SAPE   O2118068   2.929   6.056   3.169 -0.3891  0.9347 -0.8147
  162SAPE   C2118069   2.846   5.996   3.259  0.4061 -0.1734  0.2919
  162SAPE   O2218070   2.777   5.897   3.230 -0.4613 -0.1600  0.0949
  162SAPE   C2218071   2.826   6.087   3.378 -0.0651 -0.2816 -0.2384
  162SAPE   H2R18072   2.927   6.112   3.417  0.5697 -2.3122 -0.4182
  162SAPE   H2S18073   2.775   6.178   3.342  0.9460 -0.0547 -1.1628
  162SAPE    C318074   3.053   5.874   3.051 -0.1269 -0.6413 -0.0923
  162SAPE    HX18075   3.157   5.908   3.070  0.3140 -0.2285 -2.8183
  162SAPE    HY18076   3.053   5.831   2.948 -1.1918 -0.8313 -0.0284
  162SAPE   O3118077   3.016   5.780   3.152 -0.1277  0.4044  0.4462
  162SAPE   C3118078   2.940   5.681   3.113 -0.3447 -0.3765  0.3623
  162SAPE   O3218079   2.904   5.662   3.000 -0.2091  0.1016  0.9791
  162SAPE   C3218080   2.886   5.599   3.226 -0.4901  0.0516 -1.0287
  162SAPE   H2X18081   2.826   5.657   3.300 -0.6006 -0.4007 -0.7543
  162SAPE   H2Y18082   2.974   5.556   3.277 -0.7944  2.0935  1.4411
  162SAPE   C2318083   2.746   6.019   3.493 -0.5907 -0.1950  0.1411
  162SAPE   H3R18084   2.641   6.000   3.459  0.5407 -2.8961 -2.3316
  162SAPE   H3S18085   2.743   6.096   3.573 -1.2546 -0.9986  0.9181
  162SAPE   C2418086   2.813   5.892   3.544 -0.1068  0.0276  0.7288
  162SAPE   H4R18087   2.923   5.907   3.546 -0.2731  1.3317  1.4454
  162SAPE   H4S18088   2.806   5.803   3.478  1.7296  0.0445  0.4582
  162SAPE   C2518089   2.769   5.859   3.686 -0.3897  0.5730  0.5523
  162SAPE   H5R18090   2.773   5.945   3.755  0.3699  0.5604  0.5285
  162SAPE   C2618091   2.714   5.742   3.727  0.0720  0.0325 -0.2151
  162SAPE   H6R18092   2.682   5.729   3.831  0.8652 -0.1491  0.0072
  162SAPE   C2718093   2.679   5.627   3.641  0.8599 -0.1554 -0.2881
  162SAPE   H7R18094   2.702   5.532   3.696  1.4676 -0.6737 -1.4088
  162SAPE   H7S18095   2.747   5.620   3.553  1.7805 -1.8295  0.4862
  162SAPE   C2818096   2.540   5.626   3.582  0.6803 -0.1567 -0.7397
  162SAPE   H8R18097   2.530   5.693   3.496  0.8465  1.3309  0.3748
  162SAPE   C2918098   2.439   5.547   3.631  0.1668  1.0507  0.6542
  162SAPE   H9R18099   2.341   5.564   3.584 -0.5615  1.5024  2.2572
  162SAPE  C21018100   2.446   5.441   3.734  0.0448  0.2465  0.0369
  162SAPE  H10R18101   2.544   5.393   3.758  1.0885  2.3132  0.0787
  162SAPE  H10S18102   2.378   5.363   3.692  1.1794 -0.3842 -0.6771
  162SAPE  C21118103   2.368   5.486   3.857  0.9631  0.0226  0.2779
  162SAPE  H11R18104   2.269   5.531   3.838  0.8462  0.0656  0.9672
  162SAPE  C21218105   2.408   5.490   3.984 -0.6087  0.1089  0.1533
  162SAPE  H12R18106   2.339   5.517   4.066 -0.5149  0.4252  0.1312
  162SAPE  C21318107   2.546   5.460   4.035  0.0570 -0.6457  0.4322
  162SAPE  H13R18108   2.553   5.530   4.121 -0.9234  0.5871 -0.4508
  162SAPE  H13S18109   2.619   5.497   3.960 -0.4664 -2.1328 -0.8546
  162SAPE  C21418110   2.582   5.313   4.056  0.1298  0.0104 -0.7521
  162SAPE  H14R18111   2.550   5.249   3.973 -0.8114 -1.4354  0.6701
  162SAPE  C21518112   2.663   5.272   4.158  1.0644 -0.4746  0.1407
  162SAPE  H15R18113   2.667   5.163   4.173 -0.7224 -1.1783 -3.3459
  162SAPE  C21618114   2.720   5.356   4.265  0.5784 -0.5674  0.6188
  162SAPE  H16R18115   2.717   5.465   4.246 -1.9045 -0.2787  2.2489
  162SAPE  H16S18116   2.826   5.328   4.283  1.0184  0.5967 -0.0764
  162SAPE  C21718117   2.646   5.328   4.396  0.2135 -0.0688  0.3445
  162SAPE  H17R18118   2.640   5.221   4.426 -0.1161  0.3314  1.7598
  162SAPE  H17S18119   2.538   5.352   4.385  0.1378 -0.3831  0.3756
  162SAPE  C21818120   2.689   5.410   4.511 -1.1431 -0.0545 -0.8314
  162SAPE  H18R18121   2.663   5.517   4.497 -1.8973  0.7214  4.3576
  162SAPE  H18S18122   2.800   5.420   4.515 -1.2773  1.5503  2.1263
  162SAPE  C21918123   2.630   5.366   4.645  0.1609 -0.3880 -0.6469
  162SAPE  H19R18124   2.660   5.261   4.667 -1.1021 -0.5233  0.5119
  162SAPE  H19S18125   2.519   5.369   4.636  0.0626 -1.8214 -0.2019
  162SAPE  C22018126   2.659   5.463   4.759  0.5563 -0.7987  0.5918
  162SAPE  H20R18127   2.595   5.554   4.752 -0.0607 -1.3075 -0.6857
  162SAPE  H20S18128   2.764   5.498   4.762 -0.2930  2.2743 -0.9285
  162SAPE  H20T18129   2.633   5.416   4.857 -2.4560 -0.3249  0.1347
  162SAPE   C3318130   2.814   5.476   3.160  1.0075 -0.4554 -0.5038
  162SAPE   H3X18131   2.879   5.415   3.092  0.0385 -1.5867 -0.4534
  162SAPE   H3Y18132   2.726   5.507   3.099  1.1979 -1.8269 -1.5443
  162SAPE   C3418133   2.765   5.375   3.264 -0.8361 -0.7696  0.0713
  162SAPE   H4X18134   2.705   5.292   3.223  1.3102 -2.6266  0.5136
  162SAPE   H4Y18135   2.706   5.445   3.328  0.4387  2.1007 -1.6965
  162SAPE   C3518136   2.881   5.303   3.346 -0.7377  0.5169  0.4269
  162SAPE   H5X18137   2.946   5.385   3.380  1.9310 -2.0103  1.9007
  162SAPE   H5Y18138   2.936   5.225   3.289 -0.5297 -0.0706  1.4067
  162SAPE   C3618139   2.838   5.231   3.475 -0.4214 -0.0382 -0.2550
  162SAPE   H6X18140   2.819   5.123   3.453  0.4543 -0.3231  0.3323
  162SAPE   H6Y18141   2.748   5.285   3.511  0.5956 -0.0209  2.4851
  162SAPE   C3718142   2.947   5.245   3.582 -0.4677  0.2237 -1.0088
  162SAPE   H7X18143   2.963   5.353   3.601  0.8308  0.0780 -1.2001
  162SAPE   H7Y18144   3.051   5.211   3.564  0.3587  0.8450  2.0158
  162SAPE   C3818145   2.905   5.170   3.712  0.3434 -0.3891 -0.1979
  162SAPE   H8X18146   2.912   5.060   3.703  1.3321 -0.4821  1.3827
  162SAPE   H8Y18147   2.801   5.193   3.745 -0.1070 -1.9117 -0.4992
  162SAPE   C3918148   2.999   5.217   3.829 -0.0607 -0.7690 -0.7928
  162SAPE   H9X18149   2.987   5.322   3.863 -1.2121 -1.1769  0.1486
  162SAPE   H9Y18150   3.105   5.193   3.807 -0.2835 -3.0083  0.2139
  162SAPE  C31018151   2.974   5.131   3.958 -0.3810  0.3939 -0.8797
  162SAPE  H10X18152   2.982   5.021   3.944 -0.6498 -0.0454  1.8834
  162SAPE  H10Y18153   2.873   5.158   3.997  0.3634  0.0647  1.3596
  162SAPE  C31118154   3.069   5.168   4.067 -0.1975 -0.8926  0.2940
  162SAPE  H11X18155   3.036   5.272   4.089 -0.7503 -1.1109  0.5116
  162SAPE  H11Y18156   3.173   5.166   4.027 -0.7221  0.1115 -1.1727
  162SAPE  C31218157   3.057   5.081   4.192 -0.0490  0.0242 -0.4488
  162SAPE  H12X18158   3.116   4.988   4.175 -2.5564 -1.4602 -1.6134
  162SAPE  H12Y18159   2.950   5.061   4.218  0.5740 -1.8132  0.9366
  162SAPE  C31318160   3.114   5.145   4.322 -0.2657  0.2398  0.4764
  162SAPE  H13X18161   3.031   5.213   4.351 -0.0931  1.2694 -1.2813
  162SAPE  H13Y18162   3.206   5.202   4.294  1.5826 -1.9564  1.6931
  162SAPE  C31418163   3.153   5.046   4.432  0.3178  0.1961 -1.2872
  162SAPE  H14X18164   3.229   4.978   4.388 -0.8897 -1.4319 -0.9613
  162SAPE  H14Y18165   3.057   4.993   4.447  0.5040 -0.2854 -1.7607
  162SAPE  C31518166   3.186   5.097   4.569 -0.1552  0.2174  0.4748
  162SAPE  H15X18167   3.283   5.148   4.552  0.2082 -0.2335  1.1598
  162SAPE  H15Y18168   3.192   5.012   4.640 -1.2875 -0.8908 -0.7070
  162SAPE  C31618169   3.086   5.201   4.625  0.0324  0.1365 -0.0004
  162SAPE  H16X18170   2.987   5.152   4.640  0.4816 -0.4900  1.0966
  162SAPE  H16Y18171   3.089   5.286   4.554  0.0341  1.3668  1.4174
  162SAPE  C31718172   3.130   5.267   4.762  0.0632  0.0866  0.1678
  162SAPE  H17X18173   3.074   5.363   4.772 -0.9507 -0.4837  0.1331
  162SAPE  H17Y18174   3.238   5.290   4.753  0.1866 -0.9935 -1.4778
  162SAPE  C31818175   3.102   5.178   4.882 -0.1614  0.3485  0.2610
  162SAPE  H18X18176   3.182   5.184   4.959 -0.4882  1.1555  0.5463
  162SAPE  H18Y18177   3.094   5.075   4.841  0.0884  0.0273  1.0078
  162SAPE  H18Z18178   3.007   5.193   4.938 -0.2357 -0.1659  0.2846
  163SAPE     N18179   4.524   6.084   2.638  0.1931 -0.2555 -0.1145
  163SAPE   HN118180   4.505   6.011   2.567 -1.4164 -0.0808  0.1109
  163SAPE   HN218181   4.428   6.108   2.668 -0.5777 -3.0691  0.0087
  163SAPE   HN318182   4.564   6.164   2.585  0.4008  0.3890  0.9889
  163SAPE   C1218183   4.605   6.041   2.749 -0.2294 -0.0160 -1.0257
  163SAPE  H12A18184   4.610   6.115   2.832 -0.9097 -2.5373  1.4260
  163SAPE  H12B18185   4.709   6.026   2.711 -0.6291 -1.1649 -1.7042
  163SAPE   C1118186   4.568   5.910   2.823 -0.0319  0.1831  0.2651
  163SAPE  H11A18187   4.543   5.839   2.741 -0.3038  0.2520  0.2851
  163SAPE  H11B18188   4.478   5.936   2.884  0.3408  0.5057  0.6816
  163SAPE     P18189   4.783   5.753   2.859 -0.3410  0.0362 -0.0588
  163SAPE   O1318190   4.757   5.705   2.723  0.1875  0.1420  0.2421
  163SAPE   O1418191   4.920   5.811   2.889 -0.3985 -0.0174  0.3396
  163SAPE   O1218192   4.676   5.858   2.906 -0.0754  0.0769 -0.0418
  163SAPE   O1118193   4.765   5.638   2.962  0.1261  0.2022 -0.0574
  163SAPE    C118194   4.638   5.582   2.989  0.6224  1.2452 -0.0292
  163SAPE    HA18195   4.555   5.613   2.923  1.7265 -0.7159 -2.5272
  163SAPE    HB18196   4.657   5.473   2.974  1.8054  1.5885 -1.2185
  163SAPE    C218197   4.591   5.614   3.144  0.0593  0.3026 -0.1431
  163SAPE    HS18198   4.546   5.716   3.140 -2.3167 -0.6551 -4.4277
  163SAPE   O2118199   4.707   5.590   3.226  0.1999 -0.1578  0.2389
  163SAPE   C2118200   4.760   5.702   3.274 -0.6568  0.2157 -0.4629
  163SAPE   O2218201   4.720   5.817   3.265  0.1741  0.0425 -0.0460
  163SAPE   C2218202   4.901   5.662   3.326  0.5324  0.1222  0.1669
  163SAPE   H2R18203   4.884   5.569   3.385 -0.1702  0.8482  1.1369
  163SAPE   H2S18204   4.976   5.640   3.246  1.3097  0.6987  0.7214
  163SAPE    C318205   4.470   5.542   3.213 -0.1275 -0.1988  0.3253
  163SAPE    HX18206   4.504   5.445   3.256  0.1013  0.4796  1.7172
  163SAPE    HY18207   4.396   5.526   3.131  1.9872  0.3385 -1.7831
  163SAPE   O3118208   4.416   5.635   3.318  0.6124 -0.0007  0.3691
  163SAPE   C3118209   4.466   5.607   3.435 -0.1799  0.1713  0.4034
  163SAPE   O3218210   4.544   5.515   3.462 -0.2029  0.1580  0.5009
  163SAPE   C3218211   4.395   5.693   3.537 -0.8684 -0.2541  0.0777
  163SAPE   H2X18212   4.288   5.704   3.510 -0.6189 -0.3606 -0.9918
  163SAPE   H2Y18213   4.449   5.791   3.531  0.5403 -0.8909  1.6407
  163SAPE   C2318214   4.954   5.769   3.428  0.8501 -0.6690  0.0114
  163SAPE   H3R18215   4.880   5.764   3.511  0.3709  2.1709 -0.1343
  163SAPE   H3S18216   4.925   5.868   3.387  1.2242 -0.2158  0.8096
  163SAPE   C2418217   5.094   5.744   3.478 -0.6128 -0.6705  0.4614
  163SAPE   H4R18218   5.101   5.641   3.520  0.3562 -1.4090 -1.3393
  163SAPE   H4S18219   5.119   5.813   3.561  2.4284  3.1740 -3.2186
  163SAPE   C2518220   5.194   5.758   3.368  0.0398  0.0350  0.5028
  163SAPE   H5R18221   5.169   5.830   3.288  1.6351  2.0446  1.7083
  163SAPE   C2618222   5.314   5.704   3.362 -0.0670  0.0970 -0.2537
  163SAPE   H6R18223   5.373   5.711   3.270  1.8277 -2.3269  0.6754
  163SAPE   C2718224   5.387   5.623   3.468  0.4486  0.0450 -0.7278
  163SAPE   H7R18225   5.398   5.518   3.434 -0.6740 -0.0862 -0.6986
  163SAPE   H7S18226   5.322   5.611   3.557 -1.1965 -1.2482 -2.0455
  163SAPE   C2818227   5.523   5.678   3.517  0.2265  0.2871  0.2239
  163SAPE   H8R18228   5.576   5.740   3.444 -0.2414  1.9556  1.2221
  163SAPE   C2918229   5.568   5.666   3.642 -0.2564 -0.8521 -0.4505
  163SAPE   H9R18230   5.661   5.713   3.677 -0.9024 -0.3958  0.7360
  163SAPE  C21018231   5.499   5.612   3.764 -0.4437  1.1729 -0.4059
  163SAPE  H10R18232   5.571   5.543   3.813  0.1082  1.7289 -0.4191
  163SAPE  H10S18233   5.418   5.544   3.731 -1.1852  0.0125  3.2482
  163SAPE  C21118234   5.448   5.713   3.861  0.3673 -0.2915  0.8470
  163SAPE  H11R18235   5.485   5.813   3.832  0.0274 -0.8832 -1.9577
  163SAPE  C21218236   5.369   5.695   3.970 -0.6696 -0.1120  0.2307
  163SAPE  H12R18237   5.354   5.787   4.028  1.6043 -0.4336  1.4590
  163SAPE  C21318238   5.323   5.564   4.032 -0.2026 -0.2477  0.9316
  163SAPE  H13R18239   5.303   5.492   3.949  1.7392  0.0259  0.1538
  163SAPE  H13S18240   5.226   5.577   4.084  0.3670 -1.8360  2.4662
  163SAPE  C21418241   5.421   5.506   4.127 -0.5074 -1.1406 -0.8201
  163SAPE  H14R18242   5.525   5.514   4.091 -0.5622  0.3791 -0.7116
  163SAPE  C21518243   5.404   5.488   4.258 -0.4781  0.0199 -0.5372
  163SAPE  H15R18244   5.490   5.449   4.314  1.0182  2.2481 -1.1451
  163SAPE  C21618245   5.266   5.507   4.326  0.5163 -0.6910  0.0073
  163SAPE  H16R18246   5.265   5.423   4.399  2.3126  0.3593  1.2932
  163SAPE  H16S18247   5.177   5.497   4.259  1.9141 -1.3668 -1.8347
  163SAPE  C21718248   5.234   5.631   4.415 -0.6981  0.3281  0.0364
  163SAPE  H17R18249   5.251   5.721   4.352 -2.6931  1.4766  1.0517
  163SAPE  H17S18250   5.312   5.640   4.494  0.7577  0.5534 -1.3608
  163SAPE  C21818251   5.094   5.635   4.479 -0.8495 -0.3008  0.2663
  163SAPE  H18R18252   5.049   5.535   4.495  0.3431 -0.9954 -0.4648
  163SAPE  H18S18253   5.021   5.692   4.418  0.5388  0.5956 -0.6332
  163SAPE  C21918254   5.095   5.712   4.612  0.2542 -0.5532  0.6323
  163SAPE  H19R18255   5.151   5.807   4.597 -0.3007 -0.1824  0.8641
  163SAPE  H19S18256   5.144   5.657   4.695 -1.0679 -1.2911  0.9564
  163SAPE  C22018257   4.957   5.749   4.655  0.5817 -0.6159  0.0010
  163SAPE  H20R18258   4.905   5.651   4.661 -1.0544  0.1989 -0.3615
  163SAPE  H20S18259   4.910   5.817   4.581  1.4458  0.7749  0.6811
  163SAPE  H20T18260   4.968   5.789   4.758 -0.9968 -1.4318  0.5276
  163SAPE   C3318261   4.392   5.620   3.673 -0.3586  0.2755 -0.0043
  163SAPE   H3X18262   4.496   5.598   3.706  0.3037  0.1206 -2.0747
  163SAPE   H3Y18263   4.333   5.527   3.660 -1.3972  1.0933 -1.2695
  163SAPE   C3418264   4.310   5.696   3.769  0.1482 -0.9048 -0.1313
  163SAPE   H4X18265   4.207   5.704   3.729 -0.7836 -0.6976  2.1548
  163SAPE   H4Y18266   4.355   5.797   3.783  0.9371 -1.2236 -0.3136
  163SAPE   C3518267   4.298   5.630   3.906  0.2162 -0.7884 -0.2775
  163SAPE   H5X18268   4.389   5.644   3.969 -1.4129  1.8996  1.6993
  163SAPE   H5Y18269   4.278   5.521   3.900  0.6872 -0.9387  0.6035
  163SAPE   C3618270   4.182   5.701   3.980 -0.3581 -0.1083 -0.8108
  163SAPE   H6X18271   4.091   5.710   3.917 -0.4044  0.1362 -0.7122
  163SAPE   H6Y18272   4.206   5.807   4.002  1.1280 -0.5394 -0.2085
  163SAPE   C3718273   4.152   5.617   4.098 -0.3924 -0.1888 -0.9062
  163SAPE   H7X18274   4.102   5.526   4.060 -1.0844 -0.0418 -0.3705
  163SAPE   H7Y18275   4.067   5.671   4.145 -0.1295  0.9658 -1.6936
  163SAPE   C3818276   4.268   5.583   4.196  0.0928 -0.5765 -0.5374
  163SAPE   H8X18277   4.329   5.511   4.136 -0.3290  0.4448 -2.2685
  163SAPE   H8Y18278   4.220   5.525   4.277  0.4262 -0.2032 -0.0705
  163SAPE   C3918279   4.357   5.704   4.245  0.0783 -0.4183 -0.5749
  163SAPE   H9X18280   4.291   5.768   4.307  0.2624 -1.1958  0.4378
  163SAPE   H9Y18281   4.399   5.769   4.165 -0.9277  0.6922 -0.2354
  163SAPE  C31018282   4.468   5.663   4.343 -0.0411  0.0930  0.3084
  163SAPE  H10X18283   4.525   5.582   4.293 -1.0583  0.0422 -0.7912
  163SAPE  H10Y18284   4.426   5.635   4.442 -1.0197  2.3958  0.6198
  163SAPE  C31118285   4.563   5.782   4.369 -0.4104  0.0489  0.5827
  163SAPE  H11X18286   4.616   5.766   4.466 -0.8060  1.1174  0.9879
  163SAPE  H11Y18287   4.515   5.882   4.378  0.2317  0.3691  0.5755
  163SAPE  C31218288   4.672   5.812   4.268 -0.3614 -0.1879  0.0175
  163SAPE  H12X18289   4.737   5.890   4.311  0.1405 -0.3870 -0.3764
  163SAPE  H12Y18290   4.625   5.859   4.179 -3.0525 -1.7221  0.4991
  163SAPE  C31318291   4.759   5.684   4.219  0.5373 -0.0944  0.1962
  163SAPE  H13X18292   4.690   5.616   4.165 -0.0066  0.1749  0.5368
  163SAPE  H13Y18293   4.800   5.636   4.310 -0.3744 -3.6909 -1.1483
  163SAPE  C31418294   4.873   5.729   4.119 -0.2251  0.1428 -0.3748
  163SAPE  H14X18295   4.933   5.638   4.095 -1.6310 -0.7847 -0.4770
  163SAPE  H14Y18296   4.934   5.807   4.169  0.3837  0.9890 -2.3242
  163SAPE  C31518297   4.835   5.796   3.991  0.7948 -0.3052 -0.6468
  163SAPE  H15X18298   4.809   5.901   4.016 -0.3803 -0.9403  1.0380
  163SAPE  H15Y18299   4.747   5.748   3.942  2.4458  0.0901 -4.3228
  163SAPE  C31618300   4.929   5.810   3.880 -0.3460  0.3802  0.6413
  163SAPE  H16X18301   5.033   5.843   3.903  0.6390 -2.3122  0.3664
  163SAPE  H16Y18302   4.888   5.886   3.810 -2.1475 -2.1970 -1.2743
  163SAPE  C31718303   4.930   5.682   3.795 -0.1840  0.1543  0.5022
  163SAPE  H17X18304   4.961   5.599   3.862 -0.9027 -1.1018 -0.6560
  163SAPE  H17Y18305   5.006   5.696   3.715  0.1267  0.8039  0.9121
  163SAPE  C31818306   4.791   5.644   3.727  0.2565  0.0933  0.0835
  163SAPE  H18X18307   4.739   5.728   3.675  0.2809 -0.6101 -1.1192
  163SAPE  H18Y18308   4.723   5.600   3.803 -1.7852  0.0969 -1.6288
  163SAPE  H18Z18309   4.806   5.558   3.658 -0.6393 -1.8422  2.1784
  164SAPE     N18310   5.490   6.254   2.965  0.0634  0.0735 -0.1964
  164SAPE   HN118311   5.484   6.165   3.019 -0.8932  0.5704  0.5313
  164SAPE   HN218312   5.540   6.328   3.018 -1.0988  0.5108  0.3322
  164SAPE   HN318313   5.395   6.296   2.960  0.4052  0.8320 -0.3979
  164SAPE   C1218314   5.548   6.235   2.827  0.5418 -0.4596 -0.6585
  164SAPE  H12A18315   5.612   6.320   2.794  1.4441 -1.3931 -1.3636
  164SAPE  H12B18316   5.462   6.238   2.756 -2.1203  0.6389  2.3822
  164SAPE   C1118317   5.622   6.101   2.821  0.2191  0.1770 -0.1388
  164SAPE  H11A18318   5.665   6.077   2.722  0.9841 -1.5786  0.5644
  164SAPE  H11B18319   5.552   6.020   2.852 -2.4668  2.6851  0.8282
  164SAPE     P18320   5.860   6.202   2.878  0.0989 -0.1209 -0.1803
  164SAPE   O1318321   5.896   6.163   2.742 -0.4053  0.2953  0.6918
  164SAPE   O1418322   5.828   6.348   2.901  0.3165  0.3028  0.4020
  164SAPE   O1218323   5.738   6.111   2.918 -0.1475 -0.1478 -0.0406
  164SAPE   O1118324   5.969   6.159   2.980  0.6031  0.0106  0.3780
  164SAPE    C118325   5.972   6.025   3.035 -0.8551 -0.4134  0.0143
  164SAPE    HA18326   5.951   5.945   2.961  0.0049 -0.4459 -0.2115
  164SAPE    HB18327   6.079   6.003   3.057 -0.6108  1.4825  0.9259
  164SAPE    C218328   5.893   6.027   3.168  0.7203  1.0867  0.6419
  164SAPE    HS18329   5.787   6.053   3.151  0.6063  0.4644  0.3949
  164SAPE   O2118330   5.955   6.128   3.252 -0.0376  0.0432 -0.7314
  164SAPE   C2118331   5.880   6.165   3.357  0.2918  0.1383  0.4576
  164SAPE   O2218332   5.766   6.136   3.377  0.0372  0.3274 -0.1124
  164SAPE   C2218333   5.947   6.259   3.443  0.1765 -0.0421 -0.3747
  164SAPE   H2R18334   6.052   6.229   3.463 -0.4151 -0.7987  1.9836
  164SAPE   H2S18335   5.951   6.356   3.389  1.8735 -0.5547 -1.2259
  164SAPE    C318336   5.909   5.883   3.236  1.4083 -0.5115  0.4651
  164SAPE    HX18337   5.843   5.875   3.325  0.3155  0.9182 -0.1650
  164SAPE    HY18338   6.015   5.878   3.270  1.3461 -3.1901  0.4878
  164SAPE   O3118339   5.890   5.773   3.143  0.0935  0.5411  0.0754
  164SAPE   C3118340   5.766   5.754   3.101 -0.1290 -0.6124 -0.1958
  164SAPE   O3218341   5.675   5.833   3.123 -0.5693 -0.2813  0.1575
  164SAPE   C3218342   5.760   5.619   3.023 -0.2735  0.3481  0.1379
  164SAPE   H2X18343   5.862   5.575   3.032 -0.6224 -1.3373 -2.8809
  164SAPE   H2Y18344   5.752   5.642   2.915 -0.0492  0.8611  0.2280
  164SAPE   C2318345   5.873   6.293   3.577 -0.6052  0.2365 -0.4226
  164SAPE   H3R18346   5.764   6.306   3.559 -0.4111  0.7314 -1.3022
  164SAPE   H3S18347   5.914   6.378   3.634  0.0052 -0.9480  0.9727
  164SAPE   C2418348   5.885   6.173   3.685 -0.6103 -0.2188  0.2046
  164SAPE   H4R18349   5.991   6.152   3.712 -0.2634  1.4712  0.2839
  164SAPE   H4S18350   5.850   6.074   3.648  1.7926 -0.3603 -1.9486
  164SAPE   C2518351   5.817   6.200   3.817  0.3051  0.0816 -0.1496
  164SAPE   H5R18352   5.788   6.304   3.834 -1.0850 -0.4641  0.9526
  164SAPE   C2618353   5.770   6.107   3.906  0.3075 -0.4580 -0.3201
  164SAPE   H6R18354   5.724   6.152   3.995  0.7334  2.6648 -1.5567
  164SAPE   C2718355   5.791   5.960   3.909 -0.1984 -0.3723 -0.0377
  164SAPE   H7R18356   5.851   5.918   3.825 -2.8832 -1.8795 -1.3799
  164SAPE   H7S18357   5.689   5.915   3.907 -0.7344  0.8117  0.1076
  164SAPE   C2818358   5.853   5.926   4.039  0.7264  0.7030  0.0869
  164SAPE   H8R18359   5.960   5.950   4.038  1.0400 -0.6015 -0.3397
  164SAPE   C2918360   5.788   5.876   4.151  0.6531 -0.2019  0.3921
  164SAPE   H9R18361   5.854   5.870   4.239 -0.0359  2.8154  1.2501
  164SAPE  C21018362   5.645   5.839   4.174 -0.2365  0.1821  0.4566
  164SAPE  H10R18363   5.636   5.729   4.186  2.0544 -0.4198 -2.2672
  164SAPE  H10S18364   5.577   5.872   4.093 -1.3077 -0.4849  1.0640
  164SAPE  C21118365   5.575   5.902   4.298  0.9924 -0.0643 -0.0437
  164SAPE  H11R18366   5.489   5.970   4.285  1.4643  0.6045  0.2375
  164SAPE  C21218367   5.621   5.895   4.423 -0.1860 -0.1942  0.0244
  164SAPE  H12R18368   5.554   5.943   4.495 -3.3280 -0.4062 -2.5368
  164SAPE  C21318369   5.718   5.801   4.476  0.5595  0.4543 -0.4348
  164SAPE  H13R18370   5.759   5.721   4.410  0.1686  0.2346 -0.4158
  164SAPE  H13S18371   5.655   5.743   4.547  0.0328  1.8356  0.2605
  164SAPE  C21418372   5.820   5.864   4.557 -0.4115  0.5726  1.3256
  164SAPE  H14R18373   5.916   5.874   4.503 -0.2006  0.8485  1.7457
  164SAPE  C21518374   5.815   5.920   4.677  0.0274 -0.2607 -0.0086
  164SAPE  H15R18375   5.895   5.988   4.710 -1.1465  0.8318  0.6655
  164SAPE  C21618376   5.689   5.933   4.762 -0.5284  0.0008 -0.5650
  164SAPE  H16R18377   5.596   5.917   4.703 -1.7397  0.9849  0.9946
  164SAPE  H16S18378   5.685   6.038   4.799  0.4649 -0.0691 -0.2194
  164SAPE  C21718379   5.700   5.838   4.884  0.0802  0.3439  0.0206
  164SAPE  H17R18380   5.634   5.880   4.962 -1.5460 -0.3555 -0.9002
  164SAPE  H17S18381   5.799   5.840   4.934  0.5492 -0.3059 -0.8335
  164SAPE  C21818382   5.666   5.691   4.853 -0.5061 -0.1060  0.3907
  164SAPE  H18R18383   5.668   5.617   4.936  0.3512 -0.5896 -0.0455
  164SAPE  H18S18384   5.743   5.658   4.780 -0.9716  1.1796 -0.7184
  164SAPE  C21918385   5.523   5.665   4.787  0.1910 -0.4869  0.7123
  164SAPE  H19R18386   5.519   5.725   4.694  1.9293 -2.3984 -0.6793
  164SAPE  H19S18387   5.453   5.723   4.851 -0.7886 -0.2249 -0.5774
  164SAPE  C22018388   5.476   5.521   4.758 -0.0214 -0.1423 -0.1581
  164SAPE  H20R18389   5.379   5.520   4.705  0.9099 -1.8817 -1.9687
  164SAPE  H20S18390   5.460   5.471   4.856 -0.0058  3.2827  1.7240
  164SAPE  H20T18391   5.546   5.458   4.699  1.8091  0.7510  0.9892
  164SAPE   C3318392   5.661   5.514   3.076  0.3891  0.2178  0.0867
  164SAPE   H3X18393   5.656   5.424   3.011  1.7045 -0.5601  1.0221
  164SAPE   H3Y18394   5.559   5.557   3.062  0.2156 -0.4192 -0.6856
  164SAPE   C3418395   5.674   5.478   3.221 -0.1601 -0.6490 -0.6070
  164SAPE   H4X18396   5.645   5.372   3.232  3.9215 -1.6789  2.7757
  164SAPE   H4Y18397   5.619   5.546   3.289 -0.3588  0.5532 -1.9227
  164SAPE   C3518398   5.820   5.473   3.278  0.6942  0.3450  0.2842
  164SAPE   H5X18399   5.869   5.571   3.257 -0.1494 -0.0479 -4.9379
  164SAPE   H5Y18400   5.873   5.399   3.214  1.3949  0.6423  0.5173
  164SAPE   C3618401   5.816   5.440   3.427  0.6584 -0.1916 -0.0555
  164SAPE   H6X18402   5.790   5.536   3.474 -0.4651  0.4871 -1.9417
  164SAPE   H6Y18403   5.920   5.418   3.459  0.2627 -0.2930  1.2063
  164SAPE   C3718404   5.717   5.339   3.488 -0.5820 -0.1832  0.4200
  164SAPE   H7X18405   5.723   5.246   3.427 -1.2802 -0.2006  0.3724
  164SAPE   H7Y18406   5.614   5.375   3.471  0.3544  2.6124  0.2179
  164SAPE   C3818407   5.739   5.302   3.637  0.0854  0.5652 -0.5039
  164SAPE   H8X18408   5.766   5.393   3.694  2.4285  0.7509 -1.7850
  164SAPE   H8Y18409   5.828   5.236   3.637 -0.7253 -0.5556  0.1210
  164SAPE   C3918410   5.614   5.238   3.689 -0.2094  0.1266 -0.1423
  164SAPE   H9X18411   5.574   5.159   3.621 -0.7582 -0.8443  1.2542
  164SAPE   H9Y18412   5.527   5.306   3.696 -0.4953 -0.2360 -0.1668
  164SAPE  C31018413   5.642   5.165   3.825  0.1027 -0.4047  0.1465
  164SAPE  H10X18414   5.700   5.073   3.801  0.0802  0.1156 -2.1805
  164SAPE  H10Y18415   5.549   5.124   3.870 -0.9279  1.5781 -0.0594
  164SAPE  C31118416   5.706   5.249   3.936 -0.8338  0.0544  0.3791
  164SAPE  H11X18417   5.672   5.354   3.940  3.8475  1.8395 -0.7617
  164SAPE  H11Y18418   5.814   5.252   3.911 -0.6808  0.8604  1.1055
  164SAPE  C31218419   5.692   5.182   4.075  0.1564  0.1602  0.6777
  164SAPE  H12X18420   5.743   5.086   4.095 -0.3563 -0.5406 -1.1308
  164SAPE  H12Y18421   5.584   5.175   4.102  0.1541 -0.0763  0.6058
  164SAPE  C31318422   5.734   5.278   4.184  0.4064 -0.4078 -0.5190
  164SAPE  H13X18423   5.697   5.383   4.181 -0.8102 -0.6908  2.0620
  164SAPE  H13Y18424   5.844   5.293   4.173  0.6725 -0.9379  1.0731
  164SAPE  C31418425   5.702   5.220   4.319  0.1658  0.1676 -0.7923
  164SAPE  H14X18426   5.740   5.115   4.322 -0.0493  0.1077  0.7743
  164SAPE  H14Y18427   5.593   5.226   4.342  0.3450  1.4896 -0.2276
  164SAPE  C31518428   5.757   5.304   4.437 -0.6919  0.6605 -0.2164
  164SAPE  H15X18429   5.713   5.405   4.428 -1.4568  0.2332 -1.4754
  164SAPE  H15Y18430   5.867   5.316   4.447 -0.6026 -1.1332  1.8542
  164SAPE  C31618431   5.706   5.258   4.574 -0.4523 -0.3537  0.3071
  164SAPE  H16X18432   5.596   5.255   4.563 -0.6206  2.2360  0.5454
  164SAPE  H16Y18433   5.734   5.341   4.642  3.3161 -0.6952 -0.6078
  164SAPE  C31718434   5.759   5.123   4.626 -0.3281  0.1684 -0.0889
  164SAPE  H17X18435   5.866   5.128   4.653 -1.2956  0.0558  4.5127
  164SAPE  H17Y18436   5.740   5.049   4.545  2.3423 -1.5803  0.7643
  164SAPE  C31818437   5.696   5.080   4.754  0.4324  0.4723 -0.4269
  164SAPE  H18X18438   5.586   5.074   4.740  0.0795  2.0324  1.3606
  164SAPE  H18Y18439   5.710   5.153   4.836  2.2355  0.4801 -0.6935
  164SAPE  H18Z18440   5.742   4.982   4.779  2.6717  1.3104 -1.0263
  165SAPE     N18441   5.440   0.976   3.015  0.0205  0.2727  0.1505
  165SAPE   HN118442   5.456   1.036   2.931 -0.4944 -2.0308 -1.6964
  165SAPE   HN218443   5.338   0.960   3.028 -0.0912  0.1334 -0.8580
  165SAPE   HN318444   5.487   1.021   3.096 -0.8321 -0.0744  0.8511
  165SAPE   C1218445   5.500   0.845   2.982 -0.1565  0.5396  0.2973
  165SAPE  H12A18446   5.603   0.869   2.948 -0.5172  1.3519 -0.2734
  165SAPE  H12B18447   5.436   0.802   2.902 -0.7176 -0.5606  1.3144
  165SAPE   C1118448   5.497   0.750   3.107  0.2864  0.3500 -0.7051
  165SAPE  H11A18449   5.546   0.802   3.192  0.4417  1.4655 -1.4392
  165SAPE  H11B18450   5.562   0.661   3.097 -1.0646 -0.6156 -1.1517
  165SAPE     P18451   5.291   0.590   3.116  0.0529 -0.4142 -0.3344
  165SAPE   O1318452   5.195   0.617   3.008  0.5200  0.3666 -0.2116
  165SAPE   O1418453   5.386   0.483   3.085 -0.0784 -0.5190 -0.5798
  165SAPE   O1218454   5.362   0.722   3.162 -0.6513  0.9063  0.3659
  165SAPE   O1118455   5.219   0.538   3.248 -0.2504 -0.4450  0.5310
  165SAPE    C118456   5.211   0.625   3.358 -0.5390 -0.4168 -0.4296
  165SAPE    HA18457   5.200   0.735   3.347  1.8785 -0.0752 -0.0378
  165SAPE    HB18458   5.122   0.597   3.417 -1.4681  0.2025 -1.5023
  165SAPE    C218459   5.324   0.592   3.471  0.3321  0.3886  0.1328
  165SAPE    HS18460   5.422   0.591   3.418 -0.0501  0.6596 -0.6047
  165SAPE   O2118461   5.307   0.468   3.539 -0.3521 -0.1369  1.4189
  165SAPE   C2118462   5.426   0.415   3.589 -0.3318 -0.3742  0.1597
  165SAPE   O2218463   5.533   0.474   3.590  0.1661 -0.0886  0.2855
  165SAPE   C2218464   5.401   0.289   3.677  0.5007 -0.4344  0.0873
  165SAPE   H2R18465   5.296   0.252   3.680  0.6155 -0.6797  1.6456
  165SAPE   H2S18466   5.461   0.209   3.628  1.6381  0.7050 -0.4186
  165SAPE    C318467   5.342   0.700   3.585  0.0307  0.3054  0.0091
  165SAPE    HX18468   5.416   0.675   3.664 -0.5549 -0.5004  0.3193
  165SAPE    HY18469   5.242   0.709   3.633  1.3676 -1.3558  3.4481
  165SAPE   O3118470   5.353   0.836   3.537 -0.0513  0.6191 -0.7144
  165SAPE   C3118471   5.476   0.888   3.512  0.0784 -0.5097  0.7442
  165SAPE   O3218472   5.578   0.822   3.508 -1.1203  0.2344  0.0627
  165SAPE   C3218473   5.469   1.040   3.493  0.3169  0.2638  0.2758
  165SAPE   H2X18474   5.390   1.069   3.421  1.3524  0.8002 -0.6692
  165SAPE   H2Y18475   5.563   1.072   3.443 -0.6827  0.3015 -1.7055
  165SAPE   C2318476   5.433   0.318   3.828 -0.0749 -0.6889 -0.0284
  165SAPE   H3R18477   5.404   0.419   3.863  0.6835 -0.6076  0.3950
  165SAPE   H3S18478   5.544   0.331   3.827  0.3291 -3.4719 -1.4865
  165SAPE   C2418479   5.389   0.215   3.924 -0.0395  0.2523  0.2371
  165SAPE   H4R18480   5.408   0.112   3.885 -1.8373 -0.2255  0.5333
  165SAPE   H4S18481   5.280   0.226   3.939  0.1391 -0.4277  2.6334
  165SAPE   C2518482   5.463   0.214   4.060 -0.1303  0.1594  0.6329
  165SAPE   H5R18483   5.573   0.221   4.055 -0.1835  1.6558  0.9221
  165SAPE   C2618484   5.411   0.203   4.181  0.1790  0.2884 -0.5888
  165SAPE   H6R18485   5.479   0.205   4.268 -1.0347  3.4916  0.4311
  165SAPE   C2718486   5.270   0.191   4.226  0.1453 -0.2789  0.1252
  165SAPE   H7R18487   5.210   0.240   4.146  2.3750 -0.9257 -2.0765
  165SAPE   H7S18488   5.259   0.234   4.328 -3.0446 -3.4249  1.3291
  165SAPE   C2818489   5.215   0.049   4.237 -0.1260  0.0267 -0.6016
  165SAPE   H8R18490   5.276  -0.025   4.182  0.8021  1.6606 -1.8922
  165SAPE   C2918491   5.121   0.009   4.323  0.4175 -0.2873  0.4752
  165SAPE   H9R18492   5.103  -0.099   4.335  0.4805 -0.2338  1.0790
  165SAPE  C21018493   5.037   0.105   4.408 -0.1858  0.5994  0.3326
  165SAPE  H10R18494   4.932   0.085   4.379  0.8169 -0.6935 -2.7936
  165SAPE  H10S18495   5.046   0.212   4.377  0.1347 -0.2001 -2.6591
  165SAPE  C21118496   5.073   0.082   4.550 -0.5920  0.3045 -0.0244
  165SAPE  H11R18497   5.076  -0.020   4.592  2.6284 -0.3671 -1.5485
  165SAPE  C21218498   5.141   0.170   4.624 -0.4535 -0.4008  0.1481
  165SAPE  H12R18499   5.182   0.130   4.718  0.0666 -1.5830 -0.5685
  165SAPE  C21318500   5.168   0.315   4.603 -0.6354 -0.2045 -0.0103
  165SAPE  H13R18501   5.202   0.327   4.498 -0.5575  0.4497  0.0797
  165SAPE  H13S18502   5.253   0.352   4.664  0.3195 -0.7587 -0.9742
  165SAPE  C21418503   5.038   0.390   4.616  0.4502  0.2033  0.2134
  165SAPE  H14R18504   4.969   0.329   4.677  0.6630 -0.6872 -0.4158
  165SAPE  C21518505   5.024   0.517   4.589 -0.5287  0.5021 -0.0397
  165SAPE  H15R18506   4.922   0.557   4.598 -0.7667  0.3764 -1.8444
  165SAPE  C21618507   5.133   0.615   4.540  0.3632  0.8002  0.7963
  165SAPE  H16R18508   5.236   0.575   4.526  0.6669  1.9288 -0.4008
  165SAPE  H16S18509   5.151   0.701   4.608 -0.7507 -0.1624  2.3736
  165SAPE  C21718510   5.095   0.662   4.397  0.2758 -0.2872  0.4709
  165SAPE  H17R18511   5.159   0.750   4.378 -0.5031  0.1916 -0.0002
  165SAPE  H17S18512   4.988   0.690   4.388  1.2840  4.1084  0.1204
  165SAPE  C21818513   5.132   0.566   4.284  0.3535  0.0489  1.4119
  165SAPE  H18R18514   5.068   0.474   4.282  0.4989 -0.0494  1.1699
  165SAPE  H18S18515   5.229   0.520   4.313  2.3443  1.9087 -1.6976
  165SAPE  C21918516   5.170   0.636   4.151 -0.1614 -0.0518 -0.4810
  165SAPE  H19R18517   5.244   0.716   4.173  0.1881 -0.6714  0.6950
  165SAPE  H19S18518   5.083   0.690   4.110  0.1509  0.3821 -0.5766
  165SAPE  C22018519   5.221   0.531   4.046  0.2153 -0.6381 -0.0158
  165SAPE  H20R18520   5.297   0.464   4.092  1.3317 -0.3938 -1.4287
  165SAPE  H20S18521   5.249   0.582   3.952 -0.2189  0.3602  0.3830
  165SAPE  H20T18522   5.134   0.471   4.014  0.6524 -2.4498  1.9528
  165SAPE   C3318523   5.450   1.114   3.626 -0.1633 -0.3579  1.1038
  165SAPE   H3X18524   5.354   1.095   3.679  0.1027  0.1038  1.7687
  165SAPE   H3Y18525   5.458   1.221   3.598 -0.4210 -0.7976 -0.7365
  165SAPE   C3418526   5.560   1.072   3.728 -0.1606  0.3604  0.3257
  165SAPE   H4X18527   5.651   1.034   3.677 -0.4556 -0.1599  0.1836
  165SAPE   H4Y18528   5.516   0.987   3.785 -2.2694  0.7789 -0.5978
  165SAPE   C3518529   5.587   1.172   3.838 -0.1153  1.3801 -0.5042
  165SAPE   H5X18530   5.490   1.210   3.876  0.6941  3.5254 -0.4668
  165SAPE   H5Y18531   5.644   1.257   3.795  1.2929  1.3084  1.1020
  165SAPE   C3618532   5.657   1.105   3.962 -0.5328 -0.0090  0.3419
  165SAPE   H6X18533   5.761   1.082   3.933 -1.3825 -1.0585 -2.2135
  165SAPE   H6Y18534   5.605   1.010   3.990 -1.7386  0.0251 -1.5733
  165SAPE   C3718535   5.646   1.196   4.082  0.2904 -0.4462 -0.5858
  165SAPE   H7X18536   5.542   1.214   4.114 -0.0763 -3.1051 -0.0017
  165SAPE   H7Y18537   5.694   1.293   4.056 -0.0561  0.0024  0.4079
  165SAPE   C3818538   5.711   1.138   4.215  0.1300 -0.8553 -0.0690
  165SAPE   H8X18539   5.820   1.149   4.198  0.3395  0.3014  1.7704
  165SAPE   H8Y18540   5.691   1.030   4.226  1.7615 -1.2148 -0.4749
  165SAPE   C3918541   5.667   1.216   4.336 -0.5074 -0.1154  1.0974
  165SAPE   H9X18542   5.556   1.221   4.350 -0.4230 -0.4911  2.0027
  165SAPE   H9Y18543   5.700   1.319   4.312 -1.9953  0.2354  0.4307
  165SAPE  C31018544   5.745   1.162   4.454  0.9362  0.0205  0.3660
  165SAPE  H10X18545   5.853   1.144   4.440  0.7501 -2.0530  1.1188
  165SAPE  H10Y18546   5.703   1.060   4.469  2.3417 -0.6250  0.0209
  165SAPE  C31118547   5.713   1.243   4.584 -0.2827 -0.7302  0.3190
  165SAPE  H11X18548   5.603   1.255   4.580 -0.2772  0.2138  2.0614
  165SAPE  H11Y18549   5.748   1.346   4.562 -3.5277 -0.1888 -3.5347
  165SAPE  C31218550   5.756   1.172   4.712 -0.1307  0.1591 -0.3642
  165SAPE  H12X18551   5.864   1.147   4.708 -0.0084  0.0379  2.2212
  165SAPE  H12Y18552   5.706   1.073   4.721  0.2373  0.0217  0.2095
  165SAPE  C31318553   5.714   1.258   4.829 -0.4011  0.6191  0.7697
  165SAPE  H13X18554   5.605   1.245   4.840 -0.3901  0.0107  0.2321
  165SAPE  H13Y18555   5.742   1.364   4.810 -0.6296  0.2019 -2.4762
  165SAPE  C31418556   5.785   1.217   4.959  0.0929 -0.0390 -0.0192
  165SAPE  H14X18557   5.891   1.183   4.959 -0.2726 -1.2397 -0.6447
  165SAPE  H14Y18558   5.725   1.125   4.973 -0.4907  0.4216  0.5866
  165SAPE  C31518559   5.758   1.314   5.072  0.0869 -0.4536  0.0762
  165SAPE  H15X18560   5.773   1.263   5.170 -0.2525  0.6571  0.7136
  165SAPE  H15Y18561   5.655   1.356   5.067  0.1828 -0.3609 -2.7597
  165SAPE  C31618562   5.851   1.429   5.068 -0.3716 -0.4810 -0.3585
  165SAPE  H16X18563   5.815   1.492   4.983 -3.6397 -0.5958  0.8232
  165SAPE  H16Y18564   5.954   1.390   5.053 -0.7568 -2.4912  1.8493
  165SAPE  C31718565   5.844   1.522   5.195 -0.4333  0.1123  0.9056
  165SAPE  H17X18566   5.882   1.478   5.290 -1.8671  1.5496  2.2044
  165SAPE  H17Y18567   5.737   1.543   5.214 -0.3837  1.7212 -0.3437
  165SAPE  C31818568   5.909   1.667   5.183  0.0065  0.0131 -0.6952
  165SAPE  H18X18569   5.882   1.710   5.084  0.0482  0.2204 -0.6172
  165SAPE  H18Y18570   6.019   1.680   5.183 -0.2573  3.4180  1.0738
  165SAPE  H18Z18571   5.868   1.735   5.260  1.2842  0.6110 -0.5114
  166SAPE     N18572   4.569   1.858   2.918  0.0374 -0.4472 -0.1736
  166SAPE   HN118573   4.589   1.948   2.871  1.0956  0.9587  2.7657
  166SAPE   HN218574   4.486   1.813   2.874 -0.3275  0.0050  0.0430
  166SAPE   HN318575   4.545   1.868   3.018 -0.5898 -2.1966 -0.1094
  166SAPE   C1218576   4.690   1.775   2.897  0.6202  0.2350  0.0416
  166SAPE  H12A18577   4.771   1.835   2.942 -0.4651  0.0408  2.4166
  166SAPE  H12B18578   4.692   1.753   2.788 -1.1102  0.8029 -0.1327
  166SAPE   C1118579   4.671   1.636   2.968 -0.3626 -0.0906 -0.5926
  166SAPE  H11A18580   4.680   1.650   3.078 -3.2431 -2.4259  0.0636
  166SAPE  H11B18581   4.743   1.555   2.942 -1.3835 -1.0312 -0.5774
  166SAPE     P18582   4.499   1.454   2.867 -0.0769 -0.2879  0.2358
  166SAPE   O1318583   4.349   1.425   2.867 -0.5529  0.5129  0.5508
  166SAPE   O1418584   4.562   1.473   2.736  0.0560 -0.0197  0.5843
  166SAPE   O1218585   4.542   1.576   2.954  0.3692  0.3190 -0.3428
  166SAPE   O1118586   4.577   1.336   2.938  0.3927  0.2411 -0.2780
  166SAPE    C118587   4.520   1.264   3.053 -0.5646  0.8004  0.0277
  166SAPE    HA18588   4.472   1.340   3.119 -2.3853 -0.2065 -0.0778
  166SAPE    HB18589   4.437   1.204   3.012  0.9410 -2.1330  0.9732
  166SAPE    C218590   4.629   1.176   3.108 -0.6244  0.0887 -0.1704
  166SAPE    HS18591   4.592   1.100   3.181  0.9481 -0.5488  0.0053
  166SAPE   O2118592   4.721   1.236   3.195 -0.4275  0.1641 -0.4941
  166SAPE   C2118593   4.667   1.288   3.303  0.2823  0.4289 -0.1770
  166SAPE   O2218594   4.555   1.265   3.345 -0.3402 -0.6266 -0.4602
  166SAPE   C2218595   4.767   1.386   3.355 -0.1762 -0.3318 -0.4970
  166SAPE   H2R18596   4.864   1.373   3.303 -1.0751  2.0445 -3.0078
  166SAPE   H2S18597   4.726   1.487   3.336 -1.3342 -0.9292 -1.2886
  166SAPE    C318598   4.707   1.095   2.996  0.1147 -0.7079  0.2892
  166SAPE    HX18599   4.773   1.159   2.933 -0.9014  0.8072  0.7176
  166SAPE    HY18600   4.618   1.063   2.938 -0.7271  0.3401  0.9548
  166SAPE   O3118601   4.765   0.979   3.041  0.2565  0.0363 -0.0901
  166SAPE   C3118602   4.890   0.991   3.086  0.2446  0.0484  0.4258
  166SAPE   O3218603   4.968   1.082   3.068 -0.8477  0.5414 -0.2306
  166SAPE   C3218604   4.913   0.866   3.161  0.4251  0.5772 -0.0506
  166SAPE   H2X18605   4.974   0.802   3.094  0.7552  0.6593  0.1667
  166SAPE   H2Y18606   4.816   0.814   3.175 -1.0458  3.3173  0.7597
  166SAPE   C2318607   4.796   1.368   3.504 -0.2139  0.6389 -0.3483
  166SAPE   H3R18608   4.906   1.383   3.505 -0.3113  1.4697  1.2602
  166SAPE   H3S18609   4.800   1.261   3.533 -0.5486  0.3907 -1.1907
  166SAPE   C2418610   4.728   1.456   3.609 -0.8163  0.1613  0.4513
  166SAPE   H4R18611   4.738   1.416   3.712 -2.4944  1.6125  1.2450
  166SAPE   H4S18612   4.622   1.447   3.577 -1.1443  2.4246  0.7005
  166SAPE   C2518613   4.784   1.593   3.596 -0.3107 -0.4446 -1.1599
  166SAPE   H5R18614   4.743   1.652   3.512 -0.5641  1.4662  0.2464
  166SAPE   C2618615   4.855   1.651   3.696 -0.6613 -0.5270 -0.3592
  166SAPE   H6R18616   4.888   1.756   3.695  0.2155 -0.7915 -0.2792
  166SAPE   C2718617   4.926   1.579   3.811  0.2179  0.4736 -0.3593
  166SAPE   H7R18618   5.019   1.629   3.845 -0.1082  0.5572  0.4354
  166SAPE   H7S18619   4.954   1.474   3.788  1.2683  0.2839  1.6182
  166SAPE   C2818620   4.841   1.569   3.937  0.5250  0.3309  0.5486
  166SAPE   H8R18621   4.734   1.556   3.914  0.3904 -1.1083  1.8054
  166SAPE   C2918622   4.880   1.567   4.064 -0.1224  0.2263  0.8723
  166SAPE   H9R18623   4.803   1.545   4.140 -2.6853  1.3017 -1.2376
  166SAPE  C21018624   5.018   1.581   4.129 -0.3166 -0.2481  0.5326
  166SAPE  H10R18625   5.081   1.641   4.059  0.9698 -1.3280  0.7355
  166SAPE  H10S18626   5.081   1.490   4.133  2.1641  1.3899  1.1317
  166SAPE  C21118627   5.018   1.643   4.269 -0.4292  0.4144  0.5229
  166SAPE  H11R18628   5.001   1.751   4.264  0.8215  0.5842 -1.3882
  166SAPE  C21218629   5.031   1.571   4.384 -1.2361 -0.2186  0.2773
  166SAPE  H12R18630   5.006   1.633   4.471 -0.1902  1.9390 -0.8742
  166SAPE  C21318631   5.061   1.426   4.411  0.3135 -0.3990  0.2291
  166SAPE  H13R18632   5.131   1.421   4.498 -0.8232 -2.8752  1.0846
  166SAPE  H13S18633   5.114   1.376   4.328 -1.9279 -0.4285 -1.2691
  166SAPE  C21418634   4.943   1.348   4.463  0.7514  0.0126 -0.1313
  166SAPE  H14R18635   4.865   1.348   4.385  0.7948  0.5724 -0.1778
  166SAPE  C21518636   4.932   1.280   4.579 -0.3632  0.2573 -0.4083
  166SAPE  H15R18637   4.839   1.224   4.597 -1.0039  0.2810 -3.1311
  166SAPE  C21618638   5.052   1.247   4.667 -0.3825  0.1549 -0.6718
  166SAPE  H16R18639   5.143   1.253   4.602  2.5888 -1.3466  2.9769
  166SAPE  H16S18640   5.050   1.143   4.705  0.2594  0.5101  0.3639
  166SAPE  C21718641   5.064   1.340   4.793  0.3699  0.1466  0.1315
  166SAPE  H17R18642   4.974   1.327   4.858 -0.4439 -1.4545 -1.2475
  166SAPE  H17S18643   5.074   1.448   4.766 -0.1562 -0.3668 -2.2980
  166SAPE  C21818644   5.190   1.316   4.865  0.5375 -0.1374  0.2853
  166SAPE  H18R18645   5.267   1.296   4.787 -0.4444  0.2464 -0.8176
  166SAPE  H18S18646   5.173   1.231   4.934  0.1314 -1.1483 -1.0257
  166SAPE  C21918647   5.234   1.438   4.949 -0.3420  0.1426 -0.1180
  166SAPE  H19R18648   5.163   1.451   5.034  1.6305 -1.0313  1.8341
  166SAPE  H19S18649   5.237   1.527   4.883  2.4840 -0.1306 -0.5142
  166SAPE  C22018650   5.367   1.418   5.004 -0.0238 -0.4373 -0.3997
  166SAPE  H20R18651   5.358   1.335   5.078 -0.8628 -0.7414 -0.8339
  166SAPE  H20S18652   5.425   1.500   5.052 -1.5281 -0.4714  1.5962
  166SAPE  H20T18653   5.436   1.378   4.926  1.3578 -0.0297  0.5592
  166SAPE   C3318654   4.968   0.888   3.304  0.6861  0.4310  0.2976
  166SAPE   H3X18655   5.065   0.941   3.301  1.4932 -1.0104 -0.7202
  166SAPE   H3Y18656   4.986   0.786   3.345  1.0679 -0.6581 -2.3524
  166SAPE   C3418657   4.871   0.962   3.396  0.6494 -0.3853 -0.2299
  166SAPE   H4X18658   4.782   0.895   3.400 -0.7991  1.4285 -0.7369
  166SAPE   H4Y18659   4.827   1.049   3.343 -1.0545 -2.2648 -2.1354
  166SAPE   C3518660   4.925   0.975   3.541  0.3579 -0.4743 -0.3519
  166SAPE   H5X18661   4.977   0.883   3.573  0.7196 -0.8029 -1.7916
  166SAPE   H5Y18662   4.851   0.998   3.621  1.5928 -0.2033  0.7404
  166SAPE   C3618663   5.033   1.089   3.542 -0.2659  0.7872 -0.0857
  166SAPE   H6X18664   5.004   1.160   3.461  2.4087  0.5647 -1.3630
  166SAPE   H6Y18665   5.127   1.045   3.502 -0.9568 -0.7464 -0.1041
  166SAPE   C3718666   5.060   1.155   3.676 -0.6119  0.3293 -0.0370
  166SAPE   H7X18667   4.974   1.219   3.707  0.0280  0.4204  1.6637
  166SAPE   H7Y18668   5.151   1.217   3.662 -0.1885 -0.5676 -1.3252
  166SAPE   C3818669   5.095   1.052   3.788  0.6957  0.0855 -0.2394
  166SAPE   H8X18670   5.178   0.984   3.759 -0.7734 -1.1351 -1.7838
  166SAPE   H8Y18671   5.003   0.995   3.814 -1.1876  2.7714 -0.5784
  166SAPE   C3918672   5.143   1.122   3.915  0.2196 -0.4589 -0.4772
  166SAPE   H9X18673   5.053   1.133   3.979  0.6471 -1.1216  0.2515
  166SAPE   H9Y18674   5.189   1.221   3.897 -2.8497  0.8186 -1.9869
  166SAPE  C31018675   5.241   1.031   3.994 -0.1329 -0.6000  0.1510
  166SAPE  H10X18676   5.341   1.014   3.948 -0.4877 -1.4699 -0.3111
  166SAPE  H10Y18677   5.190   0.935   4.012  0.2939 -0.8827 -0.1253
  166SAPE  C31118678   5.259   1.092   4.138  0.3663 -0.2014  0.1961
  166SAPE  H11X18679   5.165   1.119   4.190 -0.0127  1.0678 -1.0735
  166SAPE  H11Y18680   5.307   1.192   4.136 -0.5486  0.2436  0.1270
  166SAPE  C31218681   5.342   1.001   4.235  0.1463  0.1504  0.0688
  166SAPE  H12X18682   5.452   1.015   4.220  0.3276 -0.7009  0.5603
  166SAPE  H12Y18683   5.313   0.896   4.214  2.1392 -0.1489 -1.5354
  166SAPE  C31318684   5.305   1.024   4.377 -0.0949 -0.0944  0.4495
  166SAPE  H13X18685   5.201   1.006   4.412 -0.2672  1.9797  1.1366
  166SAPE  H13Y18686   5.314   1.134   4.380 -0.2910  0.0009 -1.4872
  166SAPE  C31418687   5.397   0.955   4.473 -0.4198  0.2050 -0.7890
  166SAPE  H14X18688   5.502   0.982   4.450  0.1868 -1.1270  0.3326
  166SAPE  H14Y18689   5.371   0.850   4.448 -3.5612  0.2937  1.4686
  166SAPE  C31518690   5.362   0.982   4.625  0.1006  0.5817  0.6172
  166SAPE  H15X18691   5.253   0.964   4.639  0.4485 -2.0838  0.4074
  166SAPE  H15Y18692   5.394   1.086   4.646  1.4300  0.4293 -0.5148
  166SAPE  C31618693   5.436   0.884   4.716  0.4781 -0.2962  0.2277
  166SAPE  H16X18694   5.541   0.880   4.679  0.9205  0.8166  1.3236
  166SAPE  H16Y18695   5.404   0.778   4.701  1.5725 -0.9048  1.9481
  166SAPE  C31718696   5.439   0.928   4.862 -0.0122 -0.2479 -0.2596
  166SAPE  H17X18697   5.334   0.943   4.895  0.3157 -0.2844  0.8425
  166SAPE  H17Y18698   5.495   1.024   4.856  0.2798 -0.3707  0.4543
  166SAPE  C31818699   5.528   0.832   4.943  1.1131  0.2554 -0.3901
  166SAPE  H18X18700   5.631   0.833   4.901  1.6224 -0.7383  0.7976
  166SAPE  H18Y18701   5.489   0.728   4.938 -2.1350  1.3395  0.4483
  166SAPE  H18Z18702   5.548   0.865   5.047  2.8342 -1.0120 -0.2783
  167SAPE     N18703   4.112   1.433   2.979 -0.2346 -0.0031 -0.3093
  167SAPE   HN118704   4.072   1.529   2.986 -0.7758 -0.2676  0.4199
  167SAPE   HN218705   4.120   1.393   3.075 -1.5864 -0.1963 -0.2540
  167SAPE   HN318706   4.202   1.443   2.928 -0.1232 -0.1046 -0.1348
  167SAPE   C1218707   4.018   1.363   2.891  0.3793 -0.4694  0.9795
  167SAPE  H12A18708   3.918   1.365   2.938  1.0522 -0.2987  2.4396
  167SAPE  H12B18709   4.050   1.257   2.893  2.6993  0.1928  1.1772
  167SAPE   C1118710   4.013   1.426   2.743 -0.4018 -0.2687 -0.4040
  167SAPE  H11A18711   3.969   1.348   2.676  1.2235 -0.7482 -0.9513
  167SAPE  H11B18712   4.118   1.447   2.714 -0.5861  1.5065  0.0517
  167SAPE     P18713   3.978   1.679   2.772  0.0981 -0.0240  0.2744
  167SAPE   O1318714   4.109   1.700   2.705 -0.2487  0.3168 -0.0141
  167SAPE   O1418715   3.873   1.783   2.758  0.0561 -0.0036 -0.4338
  167SAPE   O1218716   3.926   1.539   2.725 -0.2499 -0.2274  0.1213
  167SAPE   O1118717   4.012   1.665   2.929  0.2083  0.2722 -0.1986
  167SAPE    C118718   3.988   1.773   3.020  0.2187 -0.2664  0.2706
  167SAPE    HA18719   3.958   1.868   2.970 -0.5388 -0.8563 -0.4246
  167SAPE    HB18720   3.916   1.743   3.099  1.5019 -0.4482  1.4028
  167SAPE    C218721   4.122   1.813   3.079  0.0447 -0.0208 -0.3828
  167SAPE    HS18722   4.185   1.849   2.995 -0.2036  2.8788  0.5763
  167SAPE   O2118723   4.190   1.699   3.133  0.4011  0.0993 -0.0281
  167SAPE   C2118724   4.319   1.716   3.147 -0.1356 -0.2645  0.1460
  167SAPE   O2218725   4.381   1.808   3.096  0.0823  0.4211 -0.2892
  167SAPE   C2218726   4.375   1.621   3.249  0.2576  0.2261 -0.3145
  167SAPE   H2R18727   4.303   1.538   3.267  1.3708 -1.7805 -4.1798
  167SAPE   H2S18728   4.464   1.570   3.208 -0.1929 -1.1986  0.3930
  167SAPE    C318729   4.107   1.927   3.186  0.2365  0.2166 -0.4114
  167SAPE    HX18730   4.058   2.018   3.144 -1.7852 -0.5994  0.0668
  167SAPE    HY18731   4.208   1.952   3.223 -0.7168  0.1353  2.4892
  167SAPE   O3118732   4.008   1.882   3.278  0.1948  0.1062 -0.3410
  167SAPE   C3118733   4.009   1.940   3.398 -0.5905 -0.2071 -0.3728
  167SAPE   O3218734   4.077   2.040   3.428  0.1287  0.7732  0.3670
  167SAPE   C3218735   3.932   1.838   3.486 -1.1942 -0.2809  0.2120
  167SAPE   H2X18736   3.975   1.743   3.450 -0.4018 -0.0057  0.4204
  167SAPE   H2Y18737   3.824   1.845   3.460 -1.8321 -3.4555  1.5830
  167SAPE   C2318738   4.410   1.685   3.385 -0.3278 -0.0115 -0.9982
  167SAPE   H3R18739   4.470   1.776   3.365 -1.4770  1.1890  0.7001
  167SAPE   H3S18740   4.480   1.620   3.442  0.1099  1.4601  0.1927
  167SAPE   C2418741   4.293   1.724   3.469 -0.2153  0.2165  0.6925
  167SAPE   H4R18742   4.214   1.783   3.416  0.5686 -0.4635 -1.3237
  167SAPE   H4S18743   4.334   1.801   3.538  2.2844  1.4372 -1.9124
  167SAPE   C2518744   4.232   1.605   3.537  0.1937  0.1714 -0.2181
  167SAPE   H5R18745   4.188   1.534   3.466  0.4032  2.0884 -2.4018
  167SAPE   C2618746   4.220   1.582   3.670 -0.1887  0.6513 -0.7159
  167SAPE   H6R18747   4.170   1.488   3.696 -1.0418  1.4329  0.6157
  167SAPE   C2718748   4.256   1.674   3.781 -0.4688 -0.6207 -0.6711
  167SAPE   H7R18749   4.166   1.683   3.846  1.2808  0.1440  1.8210
  167SAPE   H7S18750   4.268   1.777   3.741 -0.8395 -0.1970  0.2622
  167SAPE   C2818751   4.378   1.626   3.858 -0.0370  0.2273  0.4472
  167SAPE   H8R18752   4.449   1.551   3.818  0.0195 -0.8690  2.5104
  167SAPE   C2918753   4.406   1.675   3.981  0.0516 -0.1201 -0.5705
  167SAPE   H9R18754   4.500   1.641   4.027 -0.5549 -0.8600  0.1535
  167SAPE  C21018755   4.333   1.777   4.058  0.2147  0.6478  0.1634
  167SAPE  H10R18756   4.265   1.830   3.987  0.2187 -1.1801 -1.3111
  167SAPE  H10S18757   4.391   1.853   4.113  1.4490 -1.7149  2.3504
  167SAPE  C21118758   4.236   1.701   4.155 -0.9040  0.0304  0.1244
  167SAPE  H11R18759   4.218   1.597   4.123 -2.9573  0.1856  0.5748
  167SAPE  C21218760   4.203   1.739   4.280  0.5285  0.7058  0.4907
  167SAPE  H12R18761   4.151   1.667   4.346 -0.1345 -1.0449 -1.8193
  167SAPE  C21318762   4.236   1.871   4.349 -0.1378  0.3459 -0.2199
  167SAPE  H13R18763   4.268   1.946   4.273  0.4092  1.2157  0.8338
  167SAPE  H13S18764   4.331   1.857   4.405  1.2998  1.4045 -2.2788
  167SAPE  C21418765   4.116   1.910   4.435  0.0271 -0.2004 -0.3741
  167SAPE  H14R18766   4.036   1.953   4.373  1.0915  0.2833 -1.4459
  167SAPE  C21518767   4.097   1.881   4.563  0.2154  0.6294  0.1503
  167SAPE  H15R18768   4.005   1.918   4.610 -1.5241 -0.9383 -1.7784
  167SAPE  C21618769   4.190   1.798   4.652 -0.1764 -0.2544 -0.1940
  167SAPE  H16R18770   4.277   1.779   4.586 -0.7867  0.1386 -1.1296
  167SAPE  H16S18771   4.152   1.702   4.692  0.2222 -0.4213 -0.2066
  167SAPE  C21718772   4.241   1.877   4.772  0.0807 -0.5342 -0.1072
  167SAPE  H17R18773   4.251   1.986   4.751 -1.5601 -0.7644 -2.4875
  167SAPE  H17S18774   4.343   1.844   4.801  0.6725  1.0448 -0.2599
  167SAPE  C21818775   4.167   1.840   4.907  0.2500 -0.0648  0.7671
  167SAPE  H18R18776   4.172   1.729   4.906  1.4560 -0.0573 -1.6627
  167SAPE  H18S18777   4.060   1.868   4.898  0.7606  1.3903 -1.5198
  167SAPE  C21918778   4.229   1.896   5.040 -0.0031 -0.3482  0.6208
  167SAPE  H19R18779   4.209   2.004   5.058 -2.3152 -0.4092 -1.1848
  167SAPE  H19S18780   4.336   1.865   5.035 -0.6296 -2.8425  0.9900
  167SAPE  C22018781   4.159   1.828   5.159 -0.0018 -0.2807  0.1978
  167SAPE  H20R18782   4.058   1.873   5.170  1.3145  3.2419 -0.8051
  167SAPE  H20S18783   4.211   1.865   5.250  0.1770  1.7512 -0.6856
  167SAPE  H20T18784   4.166   1.717   5.157  0.6155 -0.2405 -0.0867
  167SAPE   C3318785   3.961   1.867   3.634 -0.8429  0.0543  0.3472
  167SAPE   H3X18786   4.069   1.874   3.658 -0.3937 -0.9639 -1.2615
  167SAPE   H3Y18787   3.934   1.781   3.700  0.9192  0.7170  2.0353
  167SAPE   C3418788   3.898   1.992   3.686 -0.6452 -0.4532  1.0322
  167SAPE   H4X18789   3.790   1.983   3.664 -1.4570  1.4172  3.6858
  167SAPE   H4Y18790   3.935   2.088   3.643  0.3181 -1.1219  0.3139
  167SAPE   C3518791   3.904   2.012   3.842 -0.7947  0.3410 -0.1785
  167SAPE   H5X18792   4.002   2.057   3.869 -1.6014  0.1169  3.7257
  167SAPE   H5Y18793   3.889   1.910   3.885  0.9419 -0.1055 -0.5590
  167SAPE   C3618794   3.805   2.103   3.899  0.4735 -0.2610  0.0260
  167SAPE   H6X18795   3.702   2.069   3.876 -0.3262  1.9497  0.1546
  167SAPE   H6Y18796   3.820   2.198   3.843 -0.5847  0.3017  0.6670
  167SAPE   C3718797   3.818   2.137   4.054 -0.1654  0.0755 -0.3208
  167SAPE   H7X18798   3.925   2.162   4.072  0.0242 -1.2909  0.5216
  167SAPE   H7Y18799   3.793   2.045   4.110 -2.4731  1.4137  0.9878
  167SAPE   C3818800   3.723   2.246   4.093 -0.6149 -0.1261  0.2505
  167SAPE   H8X18801   3.628   2.241   4.035 -0.2463  1.7600 -0.5943
  167SAPE   H8Y18802   3.764   2.345   4.067 -1.2736  0.6422  1.9580
  167SAPE   C3918803   3.693   2.255   4.241  0.1210  0.3336  0.5533
  167SAPE   H9X18804   3.772   2.309   4.297  0.3590  1.4232 -0.8024
  167SAPE   H9Y18805   3.685   2.152   4.283  1.2661  0.4921  1.1974
  167SAPE  C31018806   3.555   2.317   4.282  0.1427  0.3082 -0.7347
  167SAPE  H10X18807   3.537   2.395   4.205  0.3950  1.9040  0.7852
  167SAPE  H10Y18808   3.559   2.377   4.375  4.6408  0.0190 -0.5341
  167SAPE  C31118809   3.437   2.214   4.292  0.2456  0.7109  0.9597
  167SAPE  H11X18810   3.449   2.128   4.362  0.4093 -0.9490 -0.9957
  167SAPE  H11Y18811   3.441   2.155   4.197  1.2276  2.2874 -0.0359
  167SAPE  C31218812   3.304   2.273   4.335 -0.3003 -0.0871 -0.7150
  167SAPE  H12X18813   3.259   2.351   4.271 -1.5166  0.5739  0.8630
  167SAPE  H12Y18814   3.315   2.321   4.435  5.2791 -0.4263 -0.8565
  167SAPE  C31318815   3.197   2.165   4.345  0.4430  0.1639  0.0992
  167SAPE  H13X18816   3.211   2.093   4.429 -1.5933 -1.9494 -1.2248
  167SAPE  H13Y18817   3.203   2.113   4.247  0.2116 -0.7711  0.5638
  167SAPE  C31418818   3.046   2.207   4.352  0.5747 -0.0948  1.0152
  167SAPE  H14X18819   2.981   2.117   4.354  1.3995 -0.6908  1.3710
  167SAPE  H14Y18820   3.035   2.273   4.263  2.4077  0.0319  0.8530
  167SAPE  C31518821   3.017   2.284   4.481 -0.1844  0.0738  0.1632
  167SAPE  H15X18822   3.091   2.363   4.508 -2.2033  1.1370  3.1794
  167SAPE  H15Y18823   3.017   2.227   4.576 -0.8912  1.0876  0.7898
  167SAPE  C31618824   2.876   2.347   4.488 -0.6007 -0.0674 -0.0414
  167SAPE  H16X18825   2.801   2.275   4.448 -1.2970  1.1614 -1.0338
  167SAPE  H16Y18826   2.870   2.437   4.423 -0.5031 -1.1892 -1.6617
  167SAPE  C31718827   2.823   2.365   4.633 -0.8888 -0.0724  0.4532
  167SAPE  H17X18828   2.907   2.403   4.696 -1.1826 -0.2150  0.9395
  167SAPE  H17Y18829   2.806   2.262   4.670 -0.5744 -0.0924  0.5508
  167SAPE  C31818830   2.702   2.454   4.655  0.7138  0.0800  0.5989
  167SAPE  H18X18831   2.655   2.437   4.754 -0.2284  2.5989  0.6706
  167SAPE  H18Y18832   2.620   2.441   4.581  1.6901  1.6797 -0.8522
  167SAPE  H18Z18833   2.712   2.564   4.642  0.8373 -0.1117 -1.2570
  168SAPE     N18834   1.862   6.051   2.711  0.2873  0.1892 -0.2025
  168SAPE   HN118835   1.818   5.971   2.761  1.6034  0.8469  2.1432
  168SAPE   HN218836   1.865   6.032   2.609  0.9764  0.5320 -0.2502
  168SAPE   HN318837   1.959   6.052   2.748  0.2009 -0.8120  0.0865
  168SAPE   C1218838   1.802   6.184   2.743  0.4249  0.0194  0.6776
  168SAPE  H12A18839   1.700   6.197   2.698  0.5767 -0.2247  0.2513
  168SAPE  H12B18840   1.864   6.266   2.701 -0.3029  0.1331 -0.2299
  168SAPE   C1118841   1.802   6.197   2.897 -0.1654 -0.2576 -0.3915
  168SAPE  H11A18842   1.736   6.118   2.939  2.6130 -0.7086  3.7351
  168SAPE  H11B18843   1.770   6.299   2.926  0.3645 -0.3421  0.5305
  168SAPE     P18844   2.062   6.247   2.968 -0.2870  0.0771 -0.1259
  168SAPE   O1318845   2.173   6.153   2.959  0.2853  0.5039 -0.5734
  168SAPE   O1418846   2.060   6.361   2.869 -0.2913 -0.0400  0.2253
  168SAPE   O1218847   1.928   6.170   2.962 -0.7158  0.0846  0.4091
  168SAPE   O1118848   2.065   6.302   3.115 -0.0368 -0.7516 -0.2795
  168SAPE    C118849   2.018   6.213   3.215  0.3368  0.3977 -0.4984
  168SAPE    HA18850   2.042   6.106   3.197 -1.3110 -0.0828 -0.1021
  168SAPE    HB18851   2.060   6.242   3.314  1.8880 -3.5127  0.1593
  168SAPE    C218852   1.862   6.209   3.242  0.5530 -1.1634 -0.0072
  168SAPE    HS18853   1.815   6.161   3.153 -1.3001  0.9198 -0.2519
  168SAPE   O2118854   1.818   6.348   3.243 -0.4847 -0.1516 -0.5232
  168SAPE   C2118855   1.682   6.363   3.239 -0.1513 -0.2130 -0.4766
  168SAPE   O2218856   1.600   6.279   3.210 -0.3736 -0.1726 -0.3192
  168SAPE   C2218857   1.644   6.501   3.279  0.2619 -0.1195  0.3929
  168SAPE   H2R18858   1.685   6.521   3.381  1.2618  1.4770 -0.2817
  168SAPE   H2S18859   1.703   6.568   3.214  0.4158 -0.8552 -0.2421
  168SAPE    C318860   1.821   6.139   3.368 -0.0071  0.0187 -0.2601
  168SAPE    HX18861   1.832   6.030   3.352  5.5896  0.2706 -0.1585
  168SAPE    HY18862   1.713   6.150   3.392  0.7430 -0.5009  4.3018
  168SAPE   O3118863   1.899   6.168   3.482  0.2734 -0.1271  0.2602
  168SAPE   C3118864   1.855   6.268   3.569 -0.3026 -0.7535  0.0414
  168SAPE   O3218865   1.753   6.335   3.551 -0.2945  0.2099  0.6080
  168SAPE   C3218866   1.940   6.275   3.690  0.5055 -0.3178 -0.0024
  168SAPE   H2X18867   1.963   6.376   3.727  0.7443 -0.7289  0.9932
  168SAPE   H2Y18868   2.037   6.227   3.664  1.0523  0.2083  1.0430
  168SAPE   C2318869   1.491   6.532   3.270 -0.1354  0.3137 -0.7727
  168SAPE   H3R18870   1.446   6.475   3.353  2.2202  0.4861  0.7011
  168SAPE   H3S18871   1.443   6.499   3.175 -0.1922  0.5389 -0.8234
  168SAPE   C2418872   1.450   6.680   3.294  0.2136 -0.0261 -1.0543
  168SAPE   H4R18873   1.491   6.724   3.201  2.0903  0.6193  0.0335
  168SAPE   H4S18874   1.496   6.721   3.386 -1.7167 -1.8240  0.8415
  168SAPE   C2518875   1.300   6.690   3.289 -0.8718 -0.2495 -0.3011
  168SAPE   H5R18876   1.256   6.651   3.196  0.2252 -1.3520 -0.3956
  168SAPE   C2618877   1.218   6.726   3.386  0.5620  0.6018  0.2994
  168SAPE   H6R18878   1.112   6.746   3.363  0.8561 -0.8775 -2.8270
  168SAPE   C2718879   1.262   6.756   3.525 -0.0083 -0.0594  0.5278
  168SAPE   H7R18880   1.224   6.860   3.540 -0.9599 -0.5409  1.6052
  168SAPE   H7S18881   1.371   6.766   3.549  0.0976 -3.3316  1.9520
  168SAPE   C2818882   1.205   6.660   3.635 -0.4251  0.3900  0.0260
  168SAPE   H8R18883   1.098   6.639   3.627 -0.4969  0.4695  0.7520
  168SAPE   C2918884   1.263   6.613   3.747  0.8074 -0.4640 -0.2568
  168SAPE   H9R18885   1.201   6.556   3.817 -0.0392  1.0773  0.3013
  168SAPE  C21018886   1.397   6.652   3.802  0.4426 -1.1280 -0.2849
  168SAPE  H10R18887   1.379   6.740   3.867 -2.3495 -1.2150 -0.8278
  168SAPE  H10S18888   1.471   6.695   3.731  0.5175  1.4758  1.2304
  168SAPE  C21118889   1.482   6.565   3.900 -0.1466 -0.5096 -0.1614
  168SAPE  H11R18890   1.566   6.523   3.842  0.2909 -1.1456  0.9034
  168SAPE  C21218891   1.462   6.554   4.033 -0.5818  0.5585 -0.4095
  168SAPE  H12R18892   1.522   6.483   4.092  2.1082  1.5477 -1.7507
  168SAPE  C21318893   1.367   6.628   4.113 -0.7150  0.1954  0.7398
  168SAPE  H13R18894   1.292   6.563   4.162  1.6325 -3.1929  0.2485
  168SAPE  H13S18895   1.305   6.698   4.053  1.4870  2.6645  1.1473
  168SAPE  C21418896   1.445   6.708   4.206  0.6533 -0.6655 -0.6745
  168SAPE  H14R18897   1.528   6.763   4.160  3.8139 -3.6554  0.9196
  168SAPE  C21518898   1.444   6.705   4.343  0.0563  0.7133 -0.0123
  168SAPE  H15R18899   1.514   6.766   4.402  0.6698  0.5519 -0.5589
  168SAPE  C21618900   1.358   6.607   4.428  0.0003 -0.8637  0.3796
  168SAPE  H16R18901   1.321   6.522   4.368 -0.3428 -1.4364  1.3689
  168SAPE  H16S18902   1.274   6.669   4.467  0.9783  3.6797 -3.7273
  168SAPE  C21718903   1.433   6.567   4.557 -0.0148 -0.9007  0.5023
  168SAPE  H17R18904   1.541   6.551   4.536  0.2641 -0.9112  1.8714
  168SAPE  H17S18905   1.391   6.474   4.599 -0.2685 -0.2561  1.7431
  168SAPE  C21818906   1.424   6.676   4.670  0.0387 -0.6517  0.1297
  168SAPE  H18R18907   1.318   6.688   4.703 -0.1507 -3.4854  0.8191
  168SAPE  H18S18908   1.453   6.777   4.634 -1.2490  0.1505  1.2241
  168SAPE  C21918909   1.511   6.642   4.792 -0.3433  0.2151 -0.1181
  168SAPE  H19R18910   1.616   6.629   4.761  0.0901 -3.3405  2.1735
  168SAPE  H19S18911   1.476   6.541   4.824 -1.4285  0.7872  0.5693
  168SAPE  C22018912   1.486   6.731   4.913 -0.4816 -0.4087 -0.1617
  168SAPE  H20R18913   1.490   6.841   4.896 -0.9001 -0.2905  0.4872
  168SAPE  H20S18914   1.558   6.714   4.995 -1.5249  0.8313  1.0642
  168SAPE  H20T18915   1.388   6.713   4.961 -0.4560  1.6361  0.7799
  168SAPE   C3318916   1.854   6.195   3.790 -0.4569  0.0326 -0.3035
  168SAPE   H3X18917   1.853   6.089   3.756 -0.3503 -0.0712  0.0123
  168SAPE   H3Y18918   1.746   6.223   3.789  0.3443  3.7526  1.1020
  168SAPE   C3418919   1.890   6.221   3.932  0.0590  0.8055 -0.4512
  168SAPE   H4X18920   1.881   6.327   3.960  0.9978  0.5513  0.9018
  168SAPE   H4Y18921   1.998   6.193   3.940 -0.4108 -0.5709  1.9792
  168SAPE   C3518922   1.810   6.148   4.049 -0.3619  0.2269  0.3337
  168SAPE   H5X18923   1.812   6.039   4.027  1.7819  0.1274  0.7625
  168SAPE   H5Y18924   1.707   6.186   4.038  0.0654  0.6025 -4.4968
  168SAPE   C3618925   1.864   6.167   4.195 -0.3003 -0.3988 -0.5770
  168SAPE   H6X18926   1.838   6.080   4.259 -0.7496  1.3405  1.7323
  168SAPE   H6Y18927   1.827   6.262   4.238  2.8706  1.0476 -0.7102
  168SAPE   C3718928   2.020   6.188   4.203  0.7495  0.1590 -0.2625
  168SAPE   H7X18929   2.048   6.291   4.172  0.3681  1.1016  2.2882
  168SAPE   H7Y18930   2.073   6.113   4.141  3.5257  0.9402  1.0061
  168SAPE   C3818931   2.063   6.160   4.345  0.1766  0.1318  0.2557
  168SAPE   H8X18932   2.170   6.190   4.355 -0.4219  2.3553  0.2689
  168SAPE   H8Y18933   2.063   6.051   4.367  1.1507 -0.5798 -2.7702
  168SAPE   C3918934   1.982   6.241   4.448 -0.0844 -0.9753 -0.2378
  168SAPE   H9X18935   1.892   6.178   4.462 -1.7064  0.9266 -1.6124
  168SAPE   H9Y18936   1.958   6.337   4.399  2.8857 -0.8852 -1.7609
  168SAPE  C31018937   2.051   6.268   4.583 -0.2877 -0.6385 -0.4754
  168SAPE  H10X18938   2.151   6.316   4.578 -0.6040  0.5720  2.6973
  168SAPE  H10Y18939   2.063   6.182   4.652 -3.6368 -0.4420  0.5304
  168SAPE  C31118940   1.953   6.360   4.665 -0.0017 -0.5734  0.4691
  168SAPE  H11X18941   1.931   6.449   4.602  0.6357 -0.8757 -0.1969
  168SAPE  H11Y18942   2.009   6.392   4.755 -2.0451 -1.3691  2.1098
  168SAPE  C31218943   1.819   6.304   4.722  0.3978 -0.1370 -0.9589
  168SAPE  H12X18944   1.850   6.215   4.781  1.1278  2.0387  2.1238
  168SAPE  H12Y18945   1.745   6.287   4.641  0.7592 -2.4759 -0.8754
  168SAPE  C31318946   1.769   6.404   4.834 -0.4249 -0.0674  0.2264
  168SAPE  H13X18947   1.660   6.389   4.852 -0.8398  2.4823  0.2350
  168SAPE  H13Y18948   1.780   6.505   4.789  1.3335  0.6672  2.1262
  168SAPE  C31418949   1.833   6.395   4.973 -0.9782 -0.4713 -0.0031
  168SAPE  H14X18950   1.943   6.409   4.968 -0.7947 -2.1986 -2.5303
  168SAPE  H14Y18951   1.817   6.294   5.017 -0.3808 -0.6365 -0.1617
  168SAPE  C31518952   1.772   6.497   5.075  0.7181  0.2061 -0.9169
  168SAPE  H15X18953   1.681   6.451   5.117  0.1240  2.3731  0.3863
  168SAPE  H15Y18954   1.764   6.597   5.028 -0.0912  0.1492 -0.9013
  168SAPE  C31618955   1.854   6.509   5.203  0.1606  0.1734 -0.6559
  168SAPE  H16X18956   1.821   6.595   5.264 -2.3826 -0.0198 -1.6351
  168SAPE  H16Y18957   1.961   6.523   5.178  0.5104  1.1516  1.2525
  168SAPE  C31718958   1.865   6.377   5.291 -0.1924  0.3242  0.0062
  168SAPE  H17X18959   1.904   6.302   5.218 -1.8831  0.2631 -0.8828
  168SAPE  H17Y18960   1.763   6.338   5.307  0.2152 -1.5699 -1.6519
  168SAPE  C31818961   1.955   6.389   5.411  0.2074  0.2831 -0.3678
  168SAPE  H18X18962   2.048   6.444   5.384 -0.5443  1.2757 -0.9746
  168SAPE  H18Y18963   1.984   6.287   5.445  1.1796  0.9902  1.0600
  168SAPE  H18Z18964   1.898   6.438   5.493  1.1783  3.0911 -1.2400
  169SAPE     N18965   0.218   3.112   2.481 -0.8868  0.2394  0.4365
  169SAPE   HN118966   0.224   3.165   2.392 -0.4108  0.6879  0.7333
  169SAPE   HN218967   0.312   3.081   2.513 -0.4863  3.6698  3.2398
  169SAPE   HN318968   0.171   3.021   2.460 -1.6599  0.9933 -1.2610
  169SAPE   C1218969   0.164   3.199   2.591 -0.1362  0.4784 -0.0690
  169SAPE  H12A18970   0.252   3.231   2.651  0.8733 -0.2379 -1.1138
  169SAPE  H12B18971   0.096   3.140   2.656 -0.2350  0.8635  0.1817
  169SAPE   C1118972   0.108   3.333   2.548  0.9755  0.0669  0.5956
  169SAPE  H11A18973   0.178   3.401   2.495 -1.1102  1.9338  0.0748
  169SAPE  H11B18974   0.083   3.391   2.640  1.2824  1.0087  0.0997
  169SAPE     P18975  -0.152   3.307   2.538 -0.2126 -0.2627  0.4686
  169SAPE   O1318976  -0.233   3.429   2.510 -0.2855 -0.1462  0.5603
  169SAPE   O1418977  -0.218   3.178   2.501 -0.0134 -0.2517  0.5460
  169SAPE   O1218978  -0.010   3.318   2.477 -0.3148  0.2980  0.0573
  169SAPE   O1118979  -0.127   3.308   2.684  0.0529 -0.0742 -0.3654
  169SAPE    C118980  -0.170   3.211   2.770  0.4677  0.2758 -0.1434
  169SAPE    HA18981  -0.281   3.219   2.783  0.6967  0.3851  2.1431
  169SAPE    HB18982  -0.143   3.109   2.735  2.9090 -0.0848  2.5387
  169SAPE    C218983  -0.101   3.225   2.901  0.6150  0.2443 -0.1623
  169SAPE    HS18984  -0.152   3.309   2.953 -1.5304 -0.5342 -0.9030
  169SAPE   O2118985   0.039   3.260   2.900 -0.2553  0.1617  0.3331
  169SAPE   C2118986   0.094   3.331   3.002  0.0699 -0.0061 -0.1127
  169SAPE   O2218987   0.036   3.413   3.066 -0.7493 -0.4706  0.1792
  169SAPE   C2218988   0.242   3.313   3.011  0.0623  0.1948 -0.0953
  169SAPE   H2R18989   0.265   3.213   3.052 -1.8889 -1.0512 -1.8107
  169SAPE   H2S18990   0.284   3.301   2.909 -0.2678 -1.1465 -0.0939
  169SAPE    C318991  -0.130   3.105   2.993  0.4002  0.2061  0.1163
  169SAPE    HX18992  -0.063   3.019   2.973 -1.7215 -1.7405  0.9345
  169SAPE    HY18993  -0.235   3.069   2.989  0.8745 -1.2385  0.0287
  169SAPE   O3118994  -0.097   3.146   3.133 -0.9171 -0.4347 -0.1719
  169SAPE   C3118995  -0.195   3.218   3.199  0.1990  0.0077 -0.2629
  169SAPE   O3218996  -0.306   3.240   3.156 -0.0931  0.3629 -0.2613
  169SAPE   C3218997  -0.133   3.275   3.331  0.2947 -0.2539  0.3766
  169SAPE   H2X18998  -0.060   3.349   3.292 -1.2960  0.9851 -0.3562
  169SAPE   H2Y18999  -0.074   3.198   3.384  0.8368  0.6630  1.1167
  169SAPE   C2319000   0.316   3.426   3.086  0.5715  0.6105  0.2717
  169SAPE   H3R19001   0.272   3.525   3.058  0.8534  0.4399 -0.8315
  169SAPE   H3S19002   0.421   3.424   3.050 -0.1400  0.0679 -1.9274
  169SAPE   C2419003   0.325   3.395   3.236 -0.1057  0.0255  0.5554
  169SAPE   H4R19004   0.378   3.300   3.258 -1.7368 -0.5126  2.4052
  169SAPE   H4S19005   0.222   3.375   3.271  0.1935 -0.1132  1.3852
  169SAPE   C2519006   0.388   3.508   3.309  0.5412 -0.2008 -0.4795
  169SAPE   H5R19007   0.334   3.604   3.304  0.1690 -0.4198 -0.7667
  169SAPE   C2619008   0.509   3.506   3.356 -0.6514  0.3676 -0.2845
  169SAPE   H6R19009   0.555   3.595   3.401  1.4755 -1.5067  1.4536
  169SAPE   C2719010   0.607   3.385   3.342 -0.1238  0.3401 -0.2287
  169SAPE   H7R19011   0.709   3.421   3.367 -0.1353 -0.6745  1.4805
  169SAPE   H7S19012   0.612   3.346   3.238 -1.7902  2.8159 -1.3229
  169SAPE   C2819013   0.595   3.267   3.430 -0.5045  0.6867  0.2712
  169SAPE   H8R19014   0.577   3.176   3.371 -2.1305  0.3359  1.2482
  169SAPE   C2919015   0.603   3.260   3.568  0.2914  0.0409 -0.4630
  169SAPE   H9R19016   0.581   3.168   3.624  2.8996  0.3322  1.2141
  169SAPE  C21019017   0.611   3.378   3.666 -0.1921  0.2887 -0.4999
  169SAPE  H10R19018   0.526   3.372   3.737  1.9739 -3.9820  2.1266
  169SAPE  H10S19019   0.630   3.472   3.610 -0.7787 -0.1202 -1.3968
  169SAPE  C21119020   0.740   3.372   3.743  0.0822  0.1893 -0.0160
  169SAPE  H11R19021   0.829   3.421   3.700  1.7445 -3.0820 -0.6616
  169SAPE  C21219022   0.756   3.309   3.867  0.4407  0.3759  0.1747
  169SAPE  H12R19023   0.856   3.312   3.914  0.3660 -3.4731  0.9506
  169SAPE  C21319024   0.648   3.247   3.956  0.2681 -0.1101 -0.2791
  169SAPE  H13R19025   0.688   3.145   3.974  1.2740  0.5974  1.9947
  169SAPE  H13S19026   0.553   3.230   3.903  1.0379  1.4836 -2.3065
  169SAPE  C21419027   0.621   3.321   4.089 -0.2889 -0.9606  1.0839
  169SAPE  H14R19028   0.584   3.424   4.080 -1.3802 -1.4921 -1.3961
  169SAPE  C21519029   0.604   3.263   4.207  0.4430 -0.5263 -0.0180
  169SAPE  H15R19030   0.557   3.331   4.280 -0.4029  0.2273 -1.2164
  169SAPE  C21619031   0.619   3.120   4.252 -0.1454  0.3092  0.4173
  169SAPE  H16R19032   0.616   3.056   4.161  0.2908  3.1008 -1.7164
  169SAPE  H16S19033   0.532   3.107   4.319 -1.4605  3.0992 -0.5906
  169SAPE  C21719034   0.751   3.107   4.331 -0.3915  0.3690 -0.2404
  169SAPE  H17R19035   0.748   3.007   4.378 -0.2943  0.5790  0.2195
  169SAPE  H17S19036   0.760   3.181   4.413  1.6356  0.1394 -0.1926
  169SAPE  C21819037   0.878   3.105   4.240  0.4643  0.5265 -0.2713
  169SAPE  H18R19038   0.894   3.212   4.214  0.6879  0.2358 -1.3765
  169SAPE  H18S19039   0.857   3.044   4.149 -0.4432 -2.2769  1.7017
  169SAPE  C21919040   1.008   3.042   4.292 -0.9289 -0.0464  0.3489
  169SAPE  H19R19041   1.044   3.099   4.380  0.1063  2.2693 -1.4753
  169SAPE  H19S19042   1.089   3.062   4.220  3.0049 -0.5221  4.2317
  169SAPE  C22019043   0.993   2.897   4.319 -0.0978  0.1610 -0.6741
  169SAPE  H20R19044   0.947   2.845   4.232 -1.0202 -0.6123  0.2458
  169SAPE  H20S19045   0.929   2.881   4.409 -1.5218  2.8985 -1.0947
  169SAPE  H20T19046   1.094   2.855   4.340 -1.3156 -1.9708  1.5261
  169SAPE   C3319047  -0.236   3.344   3.421  0.3865  0.0177  0.1597
  169SAPE   H3X19048  -0.299   3.408   3.357  1.3309 -0.3997 -1.2463
  169SAPE   H3Y19049  -0.179   3.401   3.497 -0.1265 -1.1086  1.4347
  169SAPE   C3419050  -0.337   3.245   3.493  0.5744  0.9452 -0.8028
  169SAPE   H4X19051  -0.287   3.149   3.517  2.4590  2.1549  0.4520
  169SAPE   H4Y19052  -0.423   3.229   3.425 -1.2905 -0.3743  1.7124
  169SAPE   C3519053  -0.412   3.300   3.619  0.4967  0.0486  0.1476
  169SAPE   H5X19054  -0.504   3.244   3.647 -1.0509  2.5971  0.4947
  169SAPE   H5Y19055  -0.442   3.405   3.598  1.7041  0.5361  0.7845
  169SAPE   C3619056  -0.323   3.300   3.741  0.2807  0.6343 -0.2308
  169SAPE   H6X19057  -0.240   3.367   3.709 -0.2784  1.8622  0.8096
  169SAPE   H6Y19058  -0.287   3.197   3.759 -0.8262  0.0450 -1.2290
  169SAPE   C3719059  -0.392   3.354   3.865 -0.4249  0.0102  0.0825
  169SAPE   H7X19060  -0.486   3.295   3.876  0.0018 -0.3288  2.2492
  169SAPE   H7Y19061  -0.422   3.460   3.853 -0.9728 -0.2601 -1.0800
  169SAPE   C3819062  -0.319   3.348   3.998  0.8800 -0.0533 -0.3066
  169SAPE   H8X19063  -0.218   3.393   3.985  1.4045 -1.2147 -0.4194
  169SAPE   H8Y19064  -0.296   3.241   4.021 -2.1328 -0.3395  1.9887
  169SAPE   C3919065  -0.400   3.403   4.116  0.3346 -0.5974  0.2447
  169SAPE   H9X19066  -0.499   3.358   4.140  0.2685 -0.2660  0.5894
  169SAPE   H9Y19067  -0.425   3.507   4.088 -0.8333 -0.7151  0.7748
  169SAPE  C31019068  -0.312   3.418   4.235 -0.7817  0.0666 -0.1922
  169SAPE  H10X19069  -0.218   3.469   4.205 -1.0659  1.3780  1.0401
  169SAPE  H10Y19070  -0.283   3.317   4.272 -0.9934 -0.6414 -1.8682
  169SAPE  C31119071  -0.376   3.479   4.365 -0.0067  0.2478  0.3044
  169SAPE  H11X19072  -0.475   3.432   4.384  0.9090 -1.0723  2.0733
  169SAPE  H11Y19073  -0.400   3.588   4.362 -0.1145  0.2485  0.9961
  169SAPE  C31219074  -0.285   3.469   4.483 -0.1356  0.5519  0.0460
  169SAPE  H12X19075  -0.181   3.496   4.454  0.4279  0.1410  1.6239
  169SAPE  H12Y19076  -0.284   3.367   4.526  0.7852  0.6624  0.3135
  169SAPE  C31319077  -0.335   3.573   4.593  0.0560  0.0158 -0.3009
  169SAPE  H13X19078  -0.441   3.563   4.623  0.3237 -0.0072  0.6588
  169SAPE  H13Y19079  -0.331   3.671   4.542 -0.3261  0.0099 -0.3421
  169SAPE  C31419080  -0.242   3.581   4.718 -0.3327  0.3556 -0.2225
  169SAPE  H14X19081  -0.286   3.655   4.789 -0.2783 -1.6256  1.9981
  169SAPE  H14Y19082  -0.135   3.602   4.700  0.7466 -3.1014  1.2390
  169SAPE  C31519083  -0.250   3.443   4.800  0.3521  0.2687 -0.1880
  169SAPE  H15X19084  -0.245   3.359   4.727 -1.5622  1.6204 -2.0027
  169SAPE  H15Y19085  -0.352   3.447   4.845  1.4379  1.1691  2.3820
  169SAPE  C31619086  -0.146   3.425   4.905 -0.2636 -0.6813 -0.0855
  169SAPE  H16X19087  -0.044   3.420   4.860 -0.6654 -2.4237 -0.9180
  169SAPE  H16Y19088  -0.161   3.325   4.950  0.5129 -2.5131 -3.5495
  169SAPE  C31719089  -0.140   3.542   5.004 -0.0272  0.0428  0.5190
  169SAPE  H17X19090  -0.240   3.568   5.045  0.5888  0.2074  1.9673
  169SAPE  H17Y19091  -0.107   3.635   4.952  0.5145 -1.2850 -1.6337
  169SAPE  C31819092  -0.044   3.517   5.127 -0.2434 -0.3314  0.2586
  169SAPE  H18X19093   0.057   3.521   5.081 -0.3871  0.0760 -0.0275
  169SAPE  H18Y19094  -0.063   3.416   5.168  1.6921 -0.2106  1.5850
  169SAPE  H18Z19095  -0.070   3.598   5.198 -3.4731 -0.7849 -0.2825
  170SAPE     N19096   0.810   5.366   2.781  0.3459  0.7224  0.1118
  170SAPE   HN119097   0.720   5.376   2.832  1.3342 -1.1449  2.3961
  170SAPE   HN219098   0.874   5.310   2.840  0.7745 -0.5857 -1.5318
  170SAPE   HN319099   0.846   5.464   2.778 -1.1408  1.3208 -3.9806
  170SAPE   C1219100   0.798   5.329   2.642  0.6158  0.2518 -0.1942
  170SAPE  H12A19101   0.733   5.401   2.588 -0.7852 -0.3050  0.6732
  170SAPE  H12B19102   0.752   5.228   2.633 -1.2901  1.2177 -2.0098
  170SAPE   C1119103   0.937   5.325   2.584 -0.7198 -0.5761  0.0220
  170SAPE  H11A19104   0.924   5.260   2.495 -0.6376  0.3504 -0.6738
  170SAPE  H11B19105   1.004   5.275   2.658  0.6737  1.2058  0.0438
  170SAPE     P19106   1.107   5.521   2.606  0.1724 -0.2733  0.4299
  170SAPE   O1319107   1.235   5.441   2.601 -0.4022  0.5270 -0.8117
  170SAPE   O1419108   1.102   5.657   2.550 -0.1329 -0.0642 -0.2347
  170SAPE   O1219109   0.987   5.448   2.536  1.1026 -0.6493 -0.1773
  170SAPE   O1119110   1.044   5.524   2.752 -0.1853  0.0099 -0.0967
  170SAPE    C119111   1.029   5.642   2.824 -0.1218 -0.0248  0.2505
  170SAPE    HA19112   1.106   5.720   2.802 -0.6028  0.4705  0.3047
  170SAPE    HB19113   0.927   5.685   2.814 -1.3644 -2.5065  1.4735
  170SAPE    C219114   1.043   5.618   2.975  0.1279 -0.4877 -0.2730
  170SAPE    HS19115   1.148   5.590   2.997  0.3814  0.8244  0.2448
  170SAPE   O2119116   0.949   5.509   3.008 -0.2134  0.5468  0.1441
  170SAPE   C2119117   0.980   5.439   3.116  0.0493  0.5499  0.0631
  170SAPE   O2219118   1.090   5.423   3.162  0.0723 -0.2891 -0.2751
  170SAPE   C2219119   0.852   5.372   3.174  0.6888  0.1893 -0.1086
  170SAPE   H2R19120   0.759   5.415   3.130  0.6775 -0.1355 -0.4085
  170SAPE   H2S19121   0.866   5.268   3.138  1.7799  0.3090 -0.0754
  170SAPE    C319122   1.024   5.748   3.056 -0.2852  0.0659  0.5987
  170SAPE    HX19123   0.914   5.760   3.067 -0.5320  0.0265 -1.5270
  170SAPE    HY19124   1.043   5.837   2.993 -0.0398  0.3203  1.0254
  170SAPE   O3119125   1.095   5.747   3.189 -0.8283  0.0152 -0.2663
  170SAPE   C3119126   1.020   5.725   3.293 -0.0894  0.1629  0.0003
  170SAPE   O3219127   0.898   5.711   3.292  0.2260  0.9584  0.7078
  170SAPE   C3219128   1.097   5.744   3.420  0.2360  0.7571  0.2105
  170SAPE   H2X19129   1.161   5.835   3.409 -1.3240  2.0115  1.1306
  170SAPE   H2Y19130   1.171   5.661   3.423  0.5554  0.9313 -1.5751
  170SAPE   C2319131   0.845   5.342   3.326 -0.0906  0.0880 -0.1897
  170SAPE   H3R19132   0.863   5.436   3.383  4.6088  0.0740 -1.2874
  170SAPE   H3S19133   0.931   5.277   3.352  0.8414  0.3630 -2.3306
  170SAPE   C2419134   0.709   5.284   3.367 -0.5756 -0.2819 -0.0270
  170SAPE   H4R19135   0.718   5.261   3.475 -0.7224 -2.4026 -0.4211
  170SAPE   H4S19136   0.696   5.185   3.318 -0.0650 -1.4126  2.0037
  170SAPE   C2519137   0.594   5.372   3.345 -0.3900 -0.5289 -0.4664
  170SAPE   H5R19138   0.537   5.342   3.255 -1.4465 -1.0115  0.3429
  170SAPE   C2619139   0.560   5.483   3.420  0.1739  0.1756 -0.0966
  170SAPE   H6R19140   0.479   5.547   3.383  0.0031 -0.1459 -0.2803
  170SAPE   C2719141   0.627   5.545   3.541  0.6127 -0.6481 -0.1755
  170SAPE   H7R19142   0.685   5.638   3.520  1.6464 -1.1772  0.2939
  170SAPE   H7S19143   0.715   5.488   3.577 -0.2271 -1.1496  1.1799
  170SAPE   C2819144   0.536   5.572   3.651  1.0212 -0.0916 -0.6938
  170SAPE   H8R19145   0.455   5.641   3.624  1.7778  0.1351 -2.4970
  170SAPE   C2919146   0.547   5.530   3.780 -0.6133 -0.4200 -0.3642
  170SAPE   H9R19147   0.473   5.559   3.856  1.2167  1.6462  0.7193
  170SAPE  C21019148   0.651   5.432   3.831  0.1504  0.2082  0.4697
  170SAPE  H10R19149   0.687   5.358   3.756  2.1851 -2.1425  3.5221
  170SAPE  H10S19150   0.593   5.369   3.901 -1.2097 -0.6145 -1.3081
  170SAPE  C21119151   0.772   5.501   3.890  0.4677 -0.0331 -0.5040
  170SAPE  H11R19152   0.819   5.581   3.830  0.3464  0.6260  0.2605
  170SAPE  C21219153   0.837   5.471   4.009  0.1974  0.0668  0.2693
  170SAPE  H12R19154   0.935   5.512   4.036  1.0235 -1.0903 -0.8856
  170SAPE  C21319155   0.798   5.355   4.089 -0.7929  0.7388 -0.4428
  170SAPE  H13R19156   0.894   5.306   4.119 -1.9429 -1.2659  0.2095
  170SAPE  H13S19157   0.737   5.276   4.040 -2.1172  2.2645 -1.3206
  170SAPE  C21419158   0.726   5.416   4.208 -0.1855 -0.2120 -0.4163
  170SAPE  H14R19159   0.625   5.443   4.176 -0.4383 -0.3999  0.2074
  170SAPE  C21519160   0.749   5.404   4.345 -0.0607  0.1620  0.0686
  170SAPE  H15R19161   0.696   5.466   4.418  1.6722  0.3154  1.2718
  170SAPE  C21619162   0.868   5.336   4.421  0.0289 -0.2354 -0.6835
  170SAPE  H16R19163   0.959   5.331   4.356 -0.3954 -3.2919 -1.1741
  170SAPE  H16S19164   0.847   5.229   4.439 -0.9357  0.1600  0.6578
  170SAPE  C21719165   0.881   5.384   4.566  0.1642  0.0899  0.0715
  170SAPE  H17R19166   0.788   5.365   4.624 -0.6911  2.0725 -0.5815
  170SAPE  H17S19167   0.905   5.492   4.571  0.4686  0.1124 -1.4399
  170SAPE  C21819168   0.986   5.309   4.652  0.4357 -0.5501  0.0503
  170SAPE  H18R19169   0.942   5.209   4.669 -1.4536  0.0870 -0.8693
  170SAPE  H18S19170   1.004   5.363   4.747  0.5578 -0.6935  0.1088
  170SAPE  C21919171   1.129   5.295   4.586 -1.1336  0.2482  0.4425
  170SAPE  H19R19172   1.156   5.398   4.555 -0.4641 -0.1827 -0.4390
  170SAPE  H19S19173   1.116   5.225   4.501 -1.0466  1.1777 -0.3591
  170SAPE  C22019174   1.231   5.239   4.687  0.0339  0.6148 -0.1666
  170SAPE  H20R19175   1.255   5.304   4.773  3.3843 -0.5600 -0.0800
  170SAPE  H20S19176   1.327   5.218   4.634 -0.5297  0.0281 -0.9860
  170SAPE  H20T19177   1.191   5.155   4.748 -3.1387  1.7071 -0.5580
  170SAPE   C3319178   1.015   5.751   3.546  0.2008  0.4721 -0.8141
  170SAPE   H3X19179   0.942   5.668   3.557 -1.5118  1.8213 -1.5209
  170SAPE   H3Y19180   0.964   5.848   3.559  1.2423  1.1074 -1.2889
  170SAPE   C3419181   1.120   5.728   3.664  0.9150  0.0115 -0.4062
  170SAPE   H4X19182   1.220   5.770   3.642  1.0016  0.1486  0.2405
  170SAPE   H4Y19183   1.126   5.617   3.662 -1.5622 -0.1892 -1.3175
  170SAPE   C3519184   1.072   5.761   3.808  0.3882  0.3939  0.7812
  170SAPE   H5X19185   1.000   5.681   3.835 -0.5605  1.1567  0.5903
  170SAPE   H5Y19186   1.014   5.856   3.800  1.9246  1.1926 -1.6728
  170SAPE   C3619187   1.182   5.764   3.919 -0.0233  0.0215  0.0032
  170SAPE   H6X19188   1.262   5.830   3.882 -0.4657  0.3840 -0.3197
  170SAPE   H6Y19189   1.216   5.660   3.941 -0.4756 -0.3409 -0.9296
  170SAPE   C3719190   1.125   5.817   4.056  0.9689  0.2116  0.3317
  170SAPE   H7X19191   1.028   5.768   4.078  0.4991 -0.0972 -2.1478
  170SAPE   H7Y19192   1.109   5.927   4.054 -1.3417 -0.0549  1.1555
  170SAPE   C3819193   1.213   5.771   4.170  0.6954  0.0021  0.1062
  170SAPE   H8X19194   1.317   5.805   4.151  0.8555 -0.3201  0.3978
  170SAPE   H8Y19195   1.219   5.662   4.189 -2.7323 -0.3206  0.0579
  170SAPE   C3919196   1.164   5.822   4.307  0.8512 -0.3372 -0.2606
  170SAPE   H9X19197   1.054   5.821   4.325  0.8405  2.3923  0.2987
  170SAPE   H9Y19198   1.202   5.926   4.316  2.9708 -1.1925  1.6323
  170SAPE  C31019199   1.248   5.752   4.418  0.3767 -0.0153 -0.3900
  170SAPE  H10X19200   1.354   5.785   4.411  0.4353 -0.0380  0.2630
  170SAPE  H10Y19201   1.235   5.643   4.401 -1.4027  0.0223  0.4470
  170SAPE  C31119202   1.194   5.781   4.554  0.3797 -0.2845  0.3954
  170SAPE  H11X19203   1.085   5.759   4.557  0.5395 -1.0380  2.0639
  170SAPE  H11Y19204   1.199   5.890   4.578  0.7477 -0.1247 -0.3873
  170SAPE  C31219205   1.255   5.699   4.670 -0.6125 -0.0489 -0.5189
  170SAPE  H12X19206   1.227   5.591   4.669  0.4710 -0.4585  2.5238
  170SAPE  H12Y19207   1.214   5.743   4.764  0.2732  0.1554 -0.2222
  170SAPE  C31319208   1.411   5.700   4.673 -0.4379 -0.3234  0.4455
  170SAPE  H13X19209   1.446   5.800   4.642  0.6287 -1.0155 -0.6823
  170SAPE  H13Y19210   1.447   5.633   4.592 -0.4571 -1.6315  1.4663
  170SAPE  C31419211   1.458   5.675   4.812  0.1389 -0.1634 -0.0510
  170SAPE  H14X19212   1.415   5.742   4.889 -2.1963 -2.3296  0.6762
  170SAPE  H14Y19213   1.565   5.699   4.796  0.1818 -0.8652 -0.9287
  170SAPE  C31519214   1.433   5.532   4.870  0.5825 -0.4655  0.5888
  170SAPE  H15X19215   1.461   5.446   4.805  1.1070 -0.7214  1.1433
  170SAPE  H15Y19216   1.324   5.525   4.893 -0.1802  0.3012 -2.2873
  170SAPE  C31619217   1.519   5.515   4.998  0.7440  0.4096 -0.0116
  170SAPE  H16X19218   1.480   5.554   5.094  0.2605  0.1413 -0.0968
  170SAPE  H16Y19219   1.615   5.565   4.973 -0.1989  0.7539 -3.4757
  170SAPE  C31719220   1.555   5.371   5.037 -0.0039  0.2389  0.8621
  170SAPE  H17X19221   1.576   5.304   4.951  0.9605 -0.7138  1.8155
  170SAPE  H17Y19222   1.462   5.320   5.068 -0.1581 -1.5091 -2.0601
  170SAPE  C31819223   1.671   5.335   5.144  0.7579 -0.8303  0.1241
  170SAPE  H18X19224   1.695   5.227   5.161  0.0825 -0.8385  1.0980
  170SAPE  H18Y19225   1.636   5.373   5.243  2.0462  0.8589 -0.0299
  170SAPE  H18Z19226   1.762   5.393   5.119 -0.4179  1.1630  0.2683
  171SAPE     N19227   6.270   4.500   2.585 -0.2330  0.0916  0.0201
  171SAPE   HN119228   6.171   4.515   2.613 -0.3741 -1.8488  0.7117
  171SAPE   HN219229   6.318   4.592   2.597 -1.3954  0.5474  1.5707
  171SAPE   HN319230   6.272   4.477   2.484  1.5132  0.7894 -0.1372
  171SAPE   C1219231   6.344   4.404   2.676  0.4492 -0.3486  0.5558
  171SAPE  H12A19232   6.435   4.367   2.625  0.8017 -0.6850  1.4058
  171SAPE  H12B19233   6.274   4.319   2.688 -1.9804  1.5564  0.6647
  171SAPE   C1119234   6.395   4.472   2.802  0.7160  0.2034  0.0139
  171SAPE  H11A19235   6.436   4.383   2.855  0.3895  0.3454  0.5077
  171SAPE  H11B19236   6.312   4.511   2.864  0.6990  1.6568 -0.8647
  171SAPE     P19237   6.451   4.725   2.763  0.1012 -0.4286  0.1168
  171SAPE   O1319238   6.572   4.811   2.768  0.0677 -0.3110 -0.0129
  171SAPE   O1419239   6.372   4.746   2.644  0.4792 -0.2519  0.4249
  171SAPE   O1219240   6.490   4.573   2.775 -0.1415 -0.0611  0.6152
  171SAPE   O1119241   6.377   4.747   2.904  0.2570  0.7847 -0.2884
  171SAPE    C119242   6.460   4.740   3.024 -0.6556  0.5417  0.6674
  171SAPE    HA19243   6.436   4.638   3.060 -2.6255  0.5894 -0.3517
  171SAPE    HB19244   6.570   4.739   3.008 -0.7447 -2.8877 -0.4887
  171SAPE    C219245   6.423   4.853   3.118 -0.4237 -0.1961  0.0287
  171SAPE    HS19246   6.526   4.878   3.153 -1.0264  0.6333  1.2909
  171SAPE   O2119247   6.327   4.830   3.221 -0.2578  0.3087  0.0179
  171SAPE   C2119248   6.341   4.728   3.302 -0.9207 -0.1203 -0.3387
  171SAPE   O2219249   6.425   4.642   3.293  0.7746 -0.1152  0.2551
  171SAPE   C2219250   6.229   4.735   3.406 -0.9755  0.5125 -0.8272
  171SAPE   H2R19251   6.222   4.839   3.444  0.0690  0.3175 -0.0321
  171SAPE   H2S19252   6.133   4.722   3.354 -1.0433 -0.5184 -0.4691
  171SAPE    C319253   6.375   4.985   3.043  0.5378 -0.1127 -0.3213
  171SAPE    HX19254   6.276   4.954   3.002 -0.5338  0.3110  1.7921
  171SAPE    HY19255   6.444   5.008   2.959 -0.7851 -2.7893 -2.3268
  171SAPE   O3119256   6.346   5.096   3.131  0.0679  0.0242 -0.6545
  171SAPE   C3119257   6.450   5.165   3.162  0.4862 -0.3170  0.3630
  171SAPE   O3219258   6.569   5.132   3.153  0.0644  0.1251 -0.0038
  171SAPE   C3219259   6.399   5.293   3.240 -0.3633 -0.4274  0.2528
  171SAPE   H2X19260   6.289   5.291   3.253 -0.1194  1.0194  3.4003
  171SAPE   H2Y19261   6.428   5.383   3.182 -0.1430  0.3516  1.5322
  171SAPE   C2319262   6.242   4.630   3.515 -0.4071  0.3865 -0.5935
  171SAPE   H3R19263   6.254   4.534   3.459 -0.2892 -0.3619  0.6735
  171SAPE   H3S19264   6.150   4.614   3.575  1.4768  1.7324  2.9557
  171SAPE   C2419265   6.349   4.655   3.611  0.1830 -0.2181  0.3060
  171SAPE   H4R19266   6.436   4.702   3.561  0.5599  1.6632  2.5355
  171SAPE   H4S19267   6.377   4.555   3.650  1.0326 -0.0286  0.1985
  171SAPE   C2519268   6.325   4.748   3.722 -0.2143  0.5885  0.3404
  171SAPE   H5R19269   6.296   4.846   3.682  0.6558  0.1634 -1.4068
  171SAPE   C2619270   6.333   4.725   3.854  0.7059 -0.1751 -0.3276
  171SAPE   H6R19271   6.329   4.807   3.928 -0.3620  1.6017 -2.2410
  171SAPE   C2719272   6.379   4.600   3.920  0.0674  0.1320 -0.3150
  171SAPE   H7R19273   6.488   4.614   3.935 -0.1187  0.0801  1.2663
  171SAPE   H7S19274   6.380   4.514   3.850  2.4047 -0.1911  0.0123
  171SAPE   C2819275   6.297   4.579   4.043  0.3295  0.3244 -0.0044
  171SAPE   H8R19276   6.204   4.524   4.022  0.7069 -1.2212  2.0738
  171SAPE   C2919277   6.333   4.629   4.164  0.2823 -0.1628  0.3082
  171SAPE   H9R19278   6.278   4.605   4.256  0.4179 -3.9882 -0.4740
  171SAPE  C21019279   6.464   4.702   4.194 -0.7494  0.0360 -0.0108
  171SAPE  H10R19280   6.499   4.761   4.108  1.5938 -1.2677 -0.0303
  171SAPE  H10S19281   6.550   4.633   4.202  1.4547  2.7932  2.2103
  171SAPE  C21119282   6.451   4.792   4.310 -0.7758  0.7285  0.4189
  171SAPE  H11R19283   6.400   4.886   4.287 -1.4494  0.2989  0.1279
  171SAPE  C21219284   6.475   4.757   4.440  0.7417 -0.1411  0.1448
  171SAPE  H12R19285   6.476   4.827   4.525  1.2513 -0.2897  0.2652
  171SAPE  C21319286   6.526   4.621   4.476 -0.3010 -0.7307  0.2864
  171SAPE  H13R19287   6.633   4.634   4.503 -0.3810  0.8342 -0.0692
  171SAPE  H13S19288   6.521   4.549   4.392 -0.9541  0.4697 -0.7352
  171SAPE  C21419289   6.431   4.582   4.582 -0.5894  0.0964 -0.1951
  171SAPE  H14R19290   6.325   4.581   4.553 -0.8390  2.4701  0.4518
  171SAPE  C21519291   6.463   4.537   4.701  0.8467 -0.2647  0.0233
  171SAPE  H15R19292   6.383   4.502   4.769 -0.7496  1.8563 -0.6603
  171SAPE  C21619293   6.596   4.542   4.765 -0.7202 -0.2162 -0.2315
  171SAPE  H16R19294   6.662   4.619   4.720  0.6976 -0.8356  0.7295
  171SAPE  H16S19295   6.649   4.445   4.750  0.0935  0.3232 -0.9624
  171SAPE  C21719296   6.587   4.565   4.915 -0.0783 -0.6409 -0.3908
  171SAPE  H17R19297   6.529   4.658   4.929  0.9932 -0.0629  0.2770
  171SAPE  H17S19298   6.685   4.592   4.960 -0.5962  2.0535 -0.7426
  171SAPE  C21819299   6.537   4.445   4.990 -0.0626 -0.0271 -0.6686
  171SAPE  H18R19300   6.607   4.359   4.983  0.3859  0.2624  0.1476
  171SAPE  H18S19301   6.441   4.400   4.958 -0.4263 -0.1455  0.5450
  171SAPE  C21919302   6.509   4.485   5.138  0.2025 -0.6324  0.6560
  171SAPE  H19R19303   6.426   4.558   5.133  1.1642  0.4020 -1.3780
  171SAPE  H19S19304   6.597   4.525   5.193 -0.1875 -1.9664  2.3528
  171SAPE  C22019305   6.459   4.367   5.212  0.2682 -0.6014 -0.1332
  171SAPE  H20R19306   6.458   4.384   5.322 -0.4416  0.3557 -0.2764
  171SAPE  H20S19307   6.530   4.283   5.199  1.2632 -0.0712  1.5673
  171SAPE  H20T19308   6.353   4.349   5.184 -0.5733  1.5809  1.3970
  171SAPE   C3319309   6.462   5.313   3.377 -0.2865  0.0587 -0.1808
  171SAPE   H3X19310   6.437   5.418   3.404  0.3347  0.1077  0.2116
  171SAPE   H3Y19311   6.572   5.301   3.371 -0.2257  0.0982  0.7158
  171SAPE   C3419312   6.400   5.220   3.488 -0.0726  0.0057 -0.0149
  171SAPE   H4X19313   6.430   5.114   3.472 -2.1764 -0.4379 -1.4493
  171SAPE   H4Y19314   6.289   5.227   3.488 -0.2419 -1.9339 -1.2898
  171SAPE   C3519315   6.452   5.244   3.632  0.3517  0.4894 -0.2137
  171SAPE   H5X19316   6.442   5.351   3.662 -1.5462  0.7688 -1.6369
  171SAPE   H5Y19317   6.557   5.208   3.642 -0.1058 -0.6018  0.9769
  171SAPE   C3619318   6.372   5.166   3.732 -0.2195  0.0633 -0.4329
  171SAPE   H6X19319   6.400   5.059   3.744  0.0650  0.2073  0.2522
  171SAPE   H6Y19320   6.264   5.176   3.708 -0.0017  3.3974 -0.3972
  171SAPE   C3719321   6.377   5.231   3.874  0.1880 -0.6349  0.0499
  171SAPE   H7X19322   6.311   5.320   3.880  2.0729  0.7753  0.6993
  171SAPE   H7Y19323   6.481   5.254   3.905  0.7551 -3.5596  0.6309
  171SAPE   C3819324   6.337   5.128   3.987 -0.1465  0.2111  0.0233
  171SAPE   H8X19325   6.394   5.035   3.967 -0.1815  0.4434 -1.2822
  171SAPE   H8Y19326   6.231   5.104   3.966 -0.7576  2.0719  0.7671
  171SAPE   C3919327   6.360   5.188   4.125 -0.0040  0.1341  0.0305
  171SAPE   H9X19328   6.298   5.132   4.198  0.8573 -0.7175  0.1302
  171SAPE   H9Y19329   6.331   5.295   4.124 -2.0966 -0.4035 -0.2858
  171SAPE  C31019330   6.497   5.168   4.183 -0.0367  0.3527 -0.1161
  171SAPE  H10X19331   6.569   5.223   4.118 -0.5375  0.6875 -0.3970
  171SAPE  H10Y19332   6.513   5.058   4.187 -0.0565  0.2858 -1.3684
  171SAPE  C31119333   6.508   5.232   4.319  0.5261  0.7541 -0.0910
  171SAPE  H11X19334   6.442   5.321   4.323  1.5068  1.4916 -0.0853
  171SAPE  H11Y19335   6.617   5.252   4.324  0.7310 -0.5273  1.3153
  171SAPE  C31219336   6.467   5.148   4.434 -0.2172 -0.0561 -1.2384
  171SAPE  H12X19337   6.508   5.046   4.416  1.3141  0.1975  0.5551
  171SAPE  H12Y19338   6.357   5.136   4.441 -0.1007  0.0955  1.9104
  171SAPE  C31319339   6.523   5.196   4.569 -0.3386  0.8637  0.2290
  171SAPE  H13X19340   6.495   5.302   4.587 -0.6073  1.2022 -1.9212
  171SAPE  H13Y19341   6.634   5.194   4.561 -0.2832  1.2192  0.8791
  171SAPE  C31419342   6.486   5.104   4.689 -0.0906 -0.2279  0.2166
  171SAPE  H14X19343   6.534   5.005   4.672  1.5906  0.6962 -0.5866
  171SAPE  H14Y19344   6.376   5.088   4.697  0.0174 -0.2652  2.5530
  171SAPE  C31519345   6.535   5.160   4.819  0.6070  0.1908 -0.4226
  171SAPE  H15X19346   6.492   5.262   4.808 -2.3631 -0.9632 -0.3836
  171SAPE  H15Y19347   6.645   5.173   4.813  0.3768  3.2125  0.1619
  171SAPE  C31619348   6.500   5.091   4.944 -0.1255  0.5929  0.2737
  171SAPE  H16X19349   6.553   4.994   4.956  0.7513  1.1132  0.7115
  171SAPE  H16Y19350   6.391   5.080   4.960  0.1916 -1.6720  1.1833
  171SAPE  C31719351   6.539   5.184   5.059  0.2269  0.0353  0.0405
  171SAPE  H17X19352   6.476   5.151   5.145  1.6974 -2.2674  0.3182
  171SAPE  H17Y19353   6.499   5.283   5.030  0.1568 -0.5411 -1.9176
  171SAPE  C31819354   6.684   5.192   5.106 -0.1792 -0.3495  0.5228
  171SAPE  H18X19355   6.717   5.092   5.143  0.6128 -0.6477 -0.9390
  171SAPE  H18Y19356   6.685   5.259   5.195  1.4835 -1.1376  1.1445
  171SAPE  H18Z19357   6.744   5.244   5.029  0.4320  0.6153  1.6144
  172SAPE     N19358   1.412   5.273   2.745 -0.2157  0.0280 -0.0551
  172SAPE   HN119359   1.384   5.173   2.740 -1.0121  0.1996  0.6366
  172SAPE   HN219360   1.361   5.319   2.823  2.5783  0.7801  1.4773
  172SAPE   HN319361   1.390   5.324   2.657  0.2884  0.9926  0.3583
  172SAPE   C1219362   1.556   5.290   2.762 -0.1148  0.3723 -0.0677
  172SAPE  H12A19363   1.609   5.231   2.685  3.8996  1.9147  1.2633
  172SAPE  H12B19364   1.582   5.240   2.858 -2.8169 -1.6951 -0.2874
  172SAPE   C1119365   1.602   5.437   2.782  0.5856  0.2772 -0.0640
  172SAPE  H11A19366   1.713   5.433   2.790  0.7290  2.4291 -0.4774
  172SAPE  H11B19367   1.574   5.483   2.879  1.5011 -1.4223  1.0582
  172SAPE     P19368   1.638   5.644   2.628 -0.0148 -0.5537 -0.1191
  172SAPE   O1319369   1.775   5.595   2.592 -0.9843  0.3871 -0.6658
  172SAPE   O1419370   1.566   5.730   2.531  0.6634 -0.0747 -0.2196
  172SAPE   O1219371   1.556   5.523   2.680 -0.0158  0.1175  0.1264
  172SAPE   O1119372   1.648   5.725   2.761 -0.1507  0.0120  0.2798
  172SAPE    C119373   1.517   5.750   2.828 -0.3533  0.4607 -0.1408
  172SAPE    HA19374   1.456   5.819   2.766 -0.0744 -0.0907 -1.0410
  172SAPE    HB19375   1.461   5.655   2.843  2.2059 -1.1429 -0.1261
  172SAPE    C219376   1.540   5.817   2.968  0.2426  0.7891 -0.1112
  172SAPE    HS19377   1.578   5.918   2.938 -0.3722  0.3082 -2.8457
  172SAPE   O2119378   1.644   5.746   3.040 -0.0501 -0.0713 -0.0169
  172SAPE   C2119379   1.770   5.775   3.025  0.3476  0.1734 -0.0384
  172SAPE   O2219380   1.816   5.856   2.944  0.4956 -0.2613  0.1539
  172SAPE   C2219381   1.854   5.694   3.123 -0.2078  0.1921 -0.2594
  172SAPE   H2R19382   1.784   5.663   3.203 -1.7664 -1.7480 -2.2354
  172SAPE   H2S19383   1.896   5.607   3.068  0.4336  0.5560 -0.3564
  172SAPE    C319384   1.409   5.831   3.054  0.1365  0.3158 -0.7964
  172SAPE    HX19385   1.368   5.729   3.070 -2.5522  1.7277  2.6851
  172SAPE    HY19386   1.334   5.874   2.985 -0.5741 -1.5316 -1.2459
  172SAPE   O3119387   1.427   5.907   3.173 -0.2182 -0.3899 -0.7600
  172SAPE   C3119388   1.455   5.835   3.281 -0.3474 -0.5465 -0.4263
  172SAPE   O3219389   1.429   5.720   3.297  0.4007  0.3878  0.0598
  172SAPE   C3219390   1.541   5.916   3.376  0.5277  0.1080  0.5009
  172SAPE   H2X19391   1.498   6.017   3.394 -3.5925 -1.5587  1.1038
  172SAPE   H2Y19392   1.641   5.932   3.332  0.0688 -1.3463 -1.1812
  172SAPE   C2319393   1.969   5.783   3.166  0.0856  0.3653 -0.3366
  172SAPE   H3R19394   1.924   5.877   3.203  1.4603  1.0098 -0.2624
  172SAPE   H3S19395   2.034   5.801   3.078  0.3252 -0.9948 -0.4686
  172SAPE   C2419396   2.061   5.718   3.266  0.8330 -0.3027 -0.4560
  172SAPE   H4R19397   2.115   5.649   3.198  1.1446 -2.2411  1.6322
  172SAPE   H4S19398   2.006   5.659   3.343  0.2831  0.1765 -0.4703
  172SAPE   C2519399   2.159   5.809   3.330 -0.1309 -0.2250 -0.5547
  172SAPE   H5R19400   2.238   5.849   3.264  1.8981 -1.0530  1.2478
  172SAPE   C2619401   2.177   5.835   3.463 -0.4929 -0.0003 -0.1080
  172SAPE   H6R19402   2.252   5.913   3.483  0.1106 -0.9301  1.3873
  172SAPE   C2719403   2.102   5.785   3.584  0.0713 -0.3089  0.2229
  172SAPE   H7R19404   2.164   5.715   3.644  0.3793  0.7558  1.1837
  172SAPE   H7S19405   2.015   5.724   3.553 -0.4478  0.5495 -0.0274
  172SAPE   C2819406   2.066   5.907   3.668 -0.4347  0.6759  0.6620
  172SAPE   H8R19407   2.002   5.980   3.615 -0.7597 -0.6096 -0.7872
  172SAPE   C2919408   2.103   5.939   3.791  0.6060 -0.2868 -0.2007
  172SAPE   H9R19409   2.063   6.027   3.843  1.0094  0.2037 -0.7076
  172SAPE  C21019410   2.205   5.872   3.879  0.2971  0.1250 -0.3854
  172SAPE  H10R19411   2.296   5.935   3.892 -0.4705  1.2174 -0.2522
  172SAPE  H10S19412   2.241   5.784   3.821  1.6887  0.7272 -0.4784
  172SAPE  C21119413   2.145   5.840   4.016  0.3254 -0.6540  0.2674
  172SAPE  H11R19414   2.040   5.806   4.009  0.1616 -0.2930  0.9264
  172SAPE  C21219415   2.206   5.855   4.137 -0.2823 -0.1251 -0.2756
  172SAPE  H12R19416   2.135   5.853   4.221 -1.0890  0.5962 -0.9103
  172SAPE  C21319417   2.348   5.900   4.177  0.1217 -0.1270  0.2621
  172SAPE  H13R19418   2.335   5.998   4.227  2.0833  0.5051 -0.4089
  172SAPE  H13S19419   2.407   5.920   4.086  0.8164  0.1836  0.7727
  172SAPE  C21419420   2.422   5.804   4.274  1.0225  0.7569  0.6822
  172SAPE  H14R19421   2.454   5.707   4.231  0.8125  0.9309  0.1235
  172SAPE  C21519422   2.467   5.823   4.397  0.7780 -0.3267 -0.6064
  172SAPE  H15R19423   2.522   5.747   4.455  0.7731 -0.2794 -0.5384
  172SAPE  C21619424   2.446   5.953   4.470 -0.0005  0.1004  0.2176
  172SAPE  H16R19425   2.342   5.990   4.465 -0.2053 -0.6086 -1.3864
  172SAPE  H16S19426   2.519   6.029   4.434 -0.1351  0.7873  1.3457
  172SAPE  C21719427   2.460   5.911   4.619  0.3360 -0.2642  0.2484
  172SAPE  H17R19428   2.566   5.896   4.649  0.4873  0.2812  0.0108
  172SAPE  H17S19429   2.411   5.815   4.643 -0.0987  0.4744  2.5509
  172SAPE  C21819430   2.388   6.009   4.711 -0.6576 -0.2393 -0.0908
  172SAPE  H18R19431   2.387   5.969   4.815 -2.2678  0.8882  0.3700
  172SAPE  H18S19432   2.285   6.019   4.671 -0.4154 -1.1359 -0.9718
  172SAPE  C21919433   2.459   6.153   4.722  0.1495 -0.3353 -0.2607
  172SAPE  H19R19434   2.473   6.183   4.616  0.3931  1.3615  0.2140
  172SAPE  H19S19435   2.563   6.137   4.756 -0.1455 -1.5553  0.1303
  172SAPE  C22019436   2.398   6.261   4.806 -0.3559 -0.3909 -0.1219
  172SAPE  H20R19437   2.379   6.234   4.912 -2.9907  0.6918 -0.2374
  172SAPE  H20S19438   2.300   6.304   4.776 -0.8007 -0.4165  1.1992
  172SAPE  H20T19439   2.457   6.354   4.795 -0.5513 -0.3364 -0.7176
  172SAPE   C3319440   1.547   5.848   3.511  0.0095  0.4855 -0.4225
  172SAPE   H3X19441   1.587   5.745   3.493 -2.1651 -0.4463 -0.2145
  172SAPE   H3Y19442   1.444   5.839   3.551  0.2433  1.5727  0.4517
  172SAPE   C3419443   1.636   5.935   3.604  0.4293 -0.3875 -0.1825
  172SAPE   H4X19444   1.579   6.031   3.606 -0.0855 -0.6972  0.3685
  172SAPE   H4Y19445   1.744   5.950   3.584  0.0779  4.0704  0.2597
  172SAPE   C3519446   1.632   5.895   3.755  0.4209 -1.1686  1.1548
  172SAPE   H5X19447   1.534   5.917   3.800 -0.6320  0.2212 -1.5789
  172SAPE   H5Y19448   1.705   5.967   3.797 -0.3753  0.4079 -0.0669
  172SAPE   C3619449   1.677   5.753   3.782 -0.3526  0.7729  0.5032
  172SAPE   H6X19450   1.767   5.712   3.732 -1.0980 -1.3159  0.7623
  172SAPE   H6Y19451   1.593   5.695   3.739 -0.0868  0.1687  0.7879
  172SAPE   C3719452   1.693   5.715   3.933  0.2070 -0.2595  0.1653
  172SAPE   H7X19453   1.786   5.770   3.958  1.8284 -2.3032 -1.0521
  172SAPE   H7Y19454   1.728   5.611   3.949 -0.0394 -0.1220  1.7784
  172SAPE   C3819455   1.573   5.763   4.021  0.0629  0.0761  0.7205
  172SAPE   H8X19456   1.486   5.712   3.973  0.5934 -0.3342  0.1687
  172SAPE   H8Y19457   1.562   5.873   4.014 -2.7400 -0.1908 -0.8529
  172SAPE   C3919458   1.591   5.726   4.167 -0.3154  0.2285 -0.6121
  172SAPE   H9X19459   1.602   5.620   4.199 -1.5809  1.5322  5.2404
  172SAPE   H9Y19460   1.495   5.761   4.210 -0.4962  0.5669 -1.2856
  172SAPE  C31019461   1.702   5.817   4.232  0.2185 -0.4085  0.2944
  172SAPE  H10X19462   1.683   5.925   4.213 -0.3625 -0.4302  0.7501
  172SAPE  H10Y19463   1.801   5.787   4.191  0.3126  0.7800 -0.3988
  172SAPE  C31119464   1.709   5.806   4.385  0.0319  0.2308 -0.5905
  172SAPE  H11X19465   1.709   5.697   4.408  0.0482  0.6566  1.6398
  172SAPE  H11Y19466   1.618   5.849   4.432 -0.1278 -1.0488  0.3372
  172SAPE  C31219467   1.834   5.862   4.452  0.4503 -0.1825 -0.3001
  172SAPE  H12X19468   1.833   5.972   4.465  2.0323 -0.1891  0.0638
  172SAPE  H12Y19469   1.922   5.840   4.388  1.0585 -0.4162  0.6034
  172SAPE  C31319470   1.840   5.807   4.595  0.3199 -0.5224  0.2042
  172SAPE  H13X19471   1.829   5.696   4.591 -0.4306 -0.4336 -0.2918
  172SAPE  H13Y19472   1.746   5.848   4.637 -0.5320 -0.1029 -1.9831
  172SAPE  C31419473   1.964   5.840   4.674 -0.8669  0.0171 -0.1115
  172SAPE  H14X19474   1.996   5.946   4.669  1.6779 -0.5443  1.7856
  172SAPE  H14Y19475   2.047   5.776   4.636 -0.7702  0.6335 -0.9494
  172SAPE  C31519476   1.939   5.820   4.823 -0.2832  0.4791 -0.7214
  172SAPE  H15X19477   1.918   5.713   4.847  1.0803  0.5176  0.7593
  172SAPE  H15Y19478   1.848   5.878   4.850 -0.1910  0.0686  0.5531
  172SAPE  C31619479   2.043   5.874   4.921 -0.2292 -0.5083 -0.5274
  172SAPE  H16X19480   2.057   5.982   4.904  3.2192 -0.6858  0.5528
  172SAPE  H16Y19481   2.148   5.842   4.902  0.3205  2.1988 -2.5207
  172SAPE  C31719482   1.988   5.856   5.066 -0.6763  0.0801 -0.9445
  172SAPE  H17X19483   1.991   5.753   5.108  2.2551 -0.6701 -2.7355
  172SAPE  H17Y19484   1.882   5.886   5.052 -1.4141 -1.9551 -0.1376
  172SAPE  C31819485   2.046   5.957   5.163  0.2174 -0.4889 -1.3207
  172SAPE  H18X19486   2.156   5.941   5.172  0.1695  0.2929  1.2817
  172SAPE  H18Y19487   1.986   5.956   5.256 -1.0399  1.8635 -2.0075
  172SAPE  H18Z19488   2.019   6.056   5.119  2.5224  0.4787 -0.7247
  173SLPC     N19489   2.152   2.877   6.699 -0.0152 -0.1286  0.6168
  173SLPC   C1319490   2.188   2.860   6.843  0.0532 -0.0873 -0.4540
  173SLPC  H13A19491   2.295   2.865   6.852  0.0731  0.4015 -0.9176
  173SLPC  H13B19492   2.151   2.939   6.907  0.6500  0.1688 -0.4203
  173SLPC  H13C19493   2.164   2.760   6.875 -0.2766  0.1800  0.1698
  173SLPC   C1419494   2.192   3.012   6.658 -0.0707 -0.6489  0.2325
  173SLPC  H14A19495   2.297   3.027   6.675  0.2708 -1.1814 -1.2067
  173SLPC  H14B19496   2.154   3.032   6.558  1.8584  2.2792 -0.0336
  173SLPC  H14C19497   2.137   3.087   6.712  1.1750  1.0108 -0.7084
  173SLPC   C1519498   2.001   2.860   6.689  0.3362 -0.1904 -0.5570
  173SLPC  H15A19499   1.974   2.757   6.706  0.7738 -0.7226 -2.8236
  173SLPC  H15B19500   1.946   2.926   6.755 -0.4819  0.0856 -1.4815
  173SLPC  H15C19501   1.965   2.891   6.592 -0.5455  5.0943  1.1069
  173SLPC   C1219502   2.219   2.767   6.613  0.1091  0.0410  0.0961
  173SLPC  H12A19503   2.175   2.768   6.514  0.4986 -1.3938 -0.1109
  173SLPC  H12B19504   2.178   2.676   6.655  0.7938 -0.6153 -0.6188
  173SLPC   C1119505   2.376   2.757   6.603  0.6212  0.5289 -0.2497
  173SLPC  H11A19506   2.410   2.859   6.575 -2.4439  1.0129 -2.7792
  173SLPC  H11B19507   2.423   2.694   6.525  0.2541  2.1506 -1.8385
  173SLPC     P19508   2.423   2.564   6.775  0.1299 -0.1156  0.0073
  173SLPC   O1319509   2.516   2.559   6.892  0.4548  0.0374 -0.5240
  173SLPC   O1419510   2.283   2.524   6.800 -0.0704  0.4777  0.4618
  173SLPC   O1219511   2.423   2.718   6.726  0.0634 -0.1858  0.0795
  173SLPC   O1119512   2.479   2.481   6.653  0.2140 -0.0792 -0.1530
  173SLPC    C119513   2.623   2.490   6.628  0.3618 -0.0310  0.1121
  173SLPC    HA19514   2.648   2.591   6.588 -1.1022 -0.1475 -1.2396
  173SLPC    HB19515   2.681   2.477   6.721 -0.3827 -2.7684  0.2769
  173SLPC    C219516   2.659   2.387   6.517  0.7286 -0.1364 -0.4611
  173SLPC    HS19517   2.769   2.374   6.521  0.5160 -1.8853  2.0875
  173SLPC   O2119518   2.622   2.437   6.388 -0.2026  0.1606  0.6085
  173SLPC   C2119519   2.692   2.537   6.336  0.2809 -0.2439 -0.3751
  173SLPC   O2219520   2.789   2.588   6.384 -0.2142 -0.3351 -0.2023
  173SLPC   C2219521   2.606   2.591   6.226 -0.8969  0.3744  0.1868
  173SLPC   H2R19522   2.501   2.602   6.262 -0.4413  3.9177  0.7513
  173SLPC   H2S19523   2.642   2.691   6.195 -0.7869  0.9364  1.9847
  173SLPC    C319524   2.610   2.240   6.539 -0.2394 -1.0985 -0.3049
  173SLPC    HX19525   2.503   2.242   6.568  0.2117  2.3773  1.7411
  173SLPC    HY19526   2.648   2.199   6.635 -4.2573  0.6255  2.2720
  173SLPC   O3119527   2.631   2.159   6.428  0.3658  0.0920 -0.0708
  173SLPC   C3119528   2.532   2.155   6.339  0.4582  0.0344 -0.0337
  173SLPC   O3219529   2.419   2.195   6.351 -0.1860 -0.2766 -0.8509
  173SLPC   C3219530   2.573   2.092   6.200 -0.6245  0.2738 -0.2766
  173SLPC   H2X19531   2.670   2.042   6.218 -0.7394  0.4942  1.0722
  173SLPC   H2Y19532   2.573   2.168   6.118  2.7169 -0.9476 -1.5935
  173SLPC   C2319533   2.610   2.494   6.101 -0.1995  0.0867  0.5105
  173SLPC   H3R19534   2.551   2.400   6.115  1.8892 -1.4538 -0.3903
  173SLPC   H3S19535   2.715   2.459   6.087 -0.3124  0.3493 -1.1749
  173SLPC   C2419536   2.564   2.572   5.984  0.4300 -0.9158  0.1261
  173SLPC   H4R19537   2.612   2.672   5.976 -2.0596  0.5332  1.8821
  173SLPC   H4S19538   2.460   2.606   6.001  0.9290  0.7030  0.1075
  173SLPC   C2519539   2.588   2.506   5.845 -0.3848  0.5512  0.4656
  173SLPC   H5R19540   2.552   2.401   5.841  1.3329 -0.0315 -0.8454
  173SLPC   H5S19541   2.697   2.510   5.825 -0.1556 -0.2354  1.4292
  173SLPC   C2619542   2.525   2.598   5.737 -0.1641 -0.0226  0.9516
  173SLPC   H6R19543   2.594   2.684   5.720  2.0534 -1.6557  1.1980
  173SLPC   H6S19544   2.431   2.640   5.777  0.0321  0.3453  1.0253
  173SLPC   C2719545   2.483   2.516   5.613  0.6819  0.1232 -0.0057
  173SLPC   H7R19546   2.423   2.580   5.545 -2.3284 -1.3755  1.0318
  173SLPC   H7S19547   2.422   2.435   5.659 -0.6124  1.4052  0.6061
  173SLPC   C2819548   2.605   2.461   5.535  0.0503  0.1641 -0.0866
  173SLPC   H8R19549   2.564   2.387   5.463  0.5571  0.5816 -0.8148
  173SLPC   H8S19550   2.686   2.416   5.597  0.9596  1.0327 -0.6060
  173SLPC   C2919551   2.675   2.564   5.449 -0.3781  0.2057  0.3938
  173SLPC   H9R19552   2.691   2.661   5.497 -2.1224  0.0027  1.4565
  173SLPC  C21019553   2.720   2.549   5.323  0.3389 -0.0804 -0.6551
  173SLPC  H10R19554   2.771   2.631   5.271  1.4589  0.2093  0.8314
  173SLPC  C21119555   2.713   2.422   5.239 -0.1429  0.7020 -0.1074
  173SLPC  H11R19556   2.627   2.429   5.169  0.5008  1.4755 -0.8508
  173SLPC  H11S19557   2.681   2.337   5.303  1.0305 -0.1142 -0.5686
  173SLPC  C21219558   2.839   2.390   5.167 -0.8147 -0.1556  0.4028
  173SLPC  H12R19559   2.928   2.448   5.192 -0.8420  1.6174 -3.0697
  173SLPC  C21319560   2.843   2.314   5.058 -0.1039 -0.6366  0.0902
  173SLPC  H13R19561   2.940   2.296   5.009  0.5031  0.2712  0.9415
  173SLPC  C21419562   2.726   2.247   4.992  0.0877 -0.1898  0.3196
  173SLPC  H14R19563   2.718   2.264   4.883 -1.4781 -1.7619  0.1378
  173SLPC  H14S19564   2.633   2.284   5.040 -0.6120  0.4775 -1.4676
  173SLPC  C21519565   2.730   2.097   5.026  0.0362  1.0263 -0.4561
  173SLPC  H15R19566   2.634   2.047   5.001 -0.6101 -0.7570  4.4684
  173SLPC  H15S19567   2.728   2.081   5.136  0.1726 -0.5937 -0.6710
  173SLPC  C21619568   2.852   2.021   4.962 -0.0270 -0.4389  0.1151
  173SLPC  H16R19569   2.951   2.040   5.008  0.2968 -1.6260 -0.0701
  173SLPC  H16S19570   2.851   2.062   4.859 -1.6132  1.4557  0.8149
  173SLPC  C21719571   2.827   1.865   4.955  0.5758 -0.2614  0.3309
  173SLPC  H17R19572   2.724   1.858   4.915  0.3755  3.0171 -0.0532
  173SLPC  H17S19573   2.812   1.828   5.059  2.9213  1.7412  1.4868
  173SLPC  C21819574   2.936   1.791   4.875 -1.0671  0.4556 -0.0537
  173SLPC  H18R19575   2.938   1.834   4.772  1.8895  1.0099  0.1631
  173SLPC  H18S19576   2.900   1.686   4.868 -0.5554  0.1153  1.8809
  173SLPC  H18T19577   3.034   1.806   4.925 -1.0509  2.0807 -0.5128
  173SLPC   C3319578   2.469   1.982   6.168 -0.5080 -0.8061 -0.8437
  173SLPC   H3X19579   2.371   2.031   6.151  1.1992  2.3704 -2.5874
  173SLPC   H3Y19580   2.475   1.902   6.245 -0.7905 -0.0775 -0.0483
  173SLPC   C3419581   2.510   1.930   6.031  0.5823 -0.3059 -0.3757
  173SLPC   H4X19582   2.616   1.897   6.023 -0.3482 -3.2571 -2.1415
  173SLPC   H4Y19583   2.501   2.012   5.957 -1.2958  0.8797  1.0806
  173SLPC   C3519584   2.412   1.821   5.981 -0.1335  0.2446  0.1204
  173SLPC   H5X19585   2.310   1.864   5.972  0.5424  2.4082  1.7919
  173SLPC   H5Y19586   2.407   1.748   6.064 -3.1421 -0.8780 -0.9294
  173SLPC   C3619587   2.462   1.748   5.856  0.3064 -0.3105 -0.5669
  173SLPC   H6X19588   2.564   1.707   5.877  0.5166  1.4833  2.4420
  173SLPC   H6Y19589   2.471   1.825   5.777  0.5141 -0.6112 -0.8425
  173SLPC   C3719590   2.365   1.632   5.804 -0.2485  0.4648 -0.3871
  173SLPC   H7X19591   2.343   1.548   5.873  0.2737 -0.9835 -1.9066
  173SLPC   H7Y19592   2.407   1.579   5.716 -0.6010  2.0266 -1.5474
  173SLPC   C3819593   2.228   1.687   5.758 -0.3475 -0.4855 -0.3039
  173SLPC   H8X19594   2.173   1.728   5.846  0.6610  1.4668 -0.5449
  173SLPC   H8Y19595   2.178   1.596   5.718  1.0476 -1.3840 -0.0546
  173SLPC   C3919596   2.235   1.800   5.659  0.4184 -0.5857  0.1575
  173SLPC   H9X19597   2.305   1.789   5.574  1.8599  2.8102  0.7104
  173SLPC   H9Y19598   2.277   1.893   5.704 -0.4072  0.7169 -1.6769
  173SLPC  C31019599   2.096   1.830   5.606 -0.4871  0.3347 -0.4072
  173SLPC  H10X19600   2.072   1.918   5.669  0.6200  3.0897 -3.5376
  173SLPC  H10Y19601   2.030   1.741   5.623  0.8314 -0.2356  2.1143
  173SLPC  C31119602   2.088   1.869   5.460  0.9955  0.5068  0.0051
  173SLPC  H11X19603   2.109   1.780   5.397  0.9021  0.2333  0.3594
  173SLPC  H11Y19604   2.165   1.943   5.428  0.0237  0.8731 -1.6236
  173SLPC  C31219605   1.946   1.922   5.423 -0.0033 -0.1490  0.1217
  173SLPC  H12X19606   1.911   2.003   5.490  0.1667  0.2585 -0.2842
  173SLPC  H12Y19607   1.887   1.828   5.433 -2.7316  1.3208 -1.1057
  173SLPC  C31319608   1.924   1.960   5.281  0.8063 -0.1064  0.2323
  173SLPC  H13X19609   1.951   1.877   5.212 -0.9042 -3.4165  3.2034
  173SLPC  H13Y19610   1.982   2.053   5.263 -1.6497  2.1455  2.9233
  173SLPC  C31419611   1.774   1.981   5.249  0.4597 -0.4781  0.1531
  173SLPC  H14X19612   1.735   2.057   5.320  0.3792 -0.1434 -0.2449
  173SLPC  H14Y19613   1.711   1.890   5.258 -0.8478  0.5104  1.5571
  173SLPC  C31519614   1.748   2.027   5.099  0.2672  0.1023  0.0185
  173SLPC  H15X19615   1.810   2.117   5.077  0.3500 -0.1292 -0.7398
  173SLPC  H15Y19616   1.641   2.056   5.092  0.0096 -0.0284  2.5883
  173SLPC  C31619617   1.791   1.928   4.992  0.5430 -1.0469  0.3527
  173SLPC  H16X19618   1.757   1.828   5.026 -1.0173  0.0490  2.1893
  173SLPC  H16Y19619   1.902   1.923   4.990  0.6754  0.3317 -2.7888
  173SLPC  C31719620   1.750   1.949   4.848 -0.2865  0.5312 -0.0791
  173SLPC  H17X19621   1.641   1.971   4.849 -0.5643 -0.7450  0.2213
  173SLPC  H17Y19622   1.766   1.854   4.793 -0.4887 -0.4735  1.5257
  173SLPC  C31819623   1.826   2.057   4.776  0.1325  0.7334 -0.4525
  173SLPC  H18X19624   1.761   2.101   4.697 -1.8102  0.9588  1.2089
  173SLPC  H18Y19625   1.925   2.018   4.741  0.1198  1.3490 -1.2079
  173SLPC  H18Z19626   1.849   2.133   4.853 -0.4751 -0.7285  1.2308
  174SLPC     N19627   6.036   1.881   7.279  0.5583  0.0059 -0.6763
  174SLPC   C1319628   5.893   1.840   7.250 -0.6313 -0.1260  0.1547
  174SLPC  H13A19629   5.885   1.748   7.194  0.4691 -1.4506  2.0638
  174SLPC  H13B19630   5.826   1.820   7.332 -2.1050 -0.5731 -1.1112
  174SLPC  H13C19631   5.854   1.923   7.193 -1.8603  0.7906  2.2097
  174SLPC   C1419632   6.107   1.768   7.349  0.0851  0.1805  0.9507
  174SLPC  H14A19633   6.103   1.686   7.279 -0.9093  1.0110  0.0028
  174SLPC  H14B19634   6.213   1.774   7.369  0.2341 -1.4451  0.7479
  174SLPC  H14C19635   6.052   1.735   7.436 -1.7124  1.1457  0.2290
  174SLPC   C1519636   6.035   1.996   7.372  0.2834 -0.1577  1.1215
  174SLPC  H15A19637   6.009   1.976   7.474  0.7887  0.5224  1.3905
  174SLPC  H15B19638   6.138   2.029   7.376  0.0507  0.6883  0.5512
  174SLPC  H15C19639   5.971   2.075   7.335  0.9671 -0.5500 -1.1049
  174SLPC   C1219640   6.103   1.916   7.150  1.1962  0.4738 -0.0244
  174SLPC  H12A19641   6.206   1.944   7.167  0.8510  2.7677 -1.2797
  174SLPC  H12B19642   6.063   2.010   7.114  2.1319  1.7726  2.1035
  174SLPC   C1119643   6.123   1.810   7.035 -1.0047  0.4399  0.0418
  174SLPC  H11A19644   6.151   1.844   6.933 -0.5029 -0.6014 -0.1818
  174SLPC  H11B19645   6.035   1.743   7.024  0.7822 -2.2903  1.3335
  174SLPC     P19646   6.376   1.749   7.090  0.3362  0.2159  0.0010
  174SLPC   O1319647   6.395   1.867   7.180 -0.2778  0.2579  0.4923
  174SLPC   O1419648   6.447   1.628   7.125 -0.2296  0.0102 -0.1072
  174SLPC   O1219649   6.223   1.711   7.075 -0.3540  0.7620 -0.1649
  174SLPC   O1119650   6.419   1.798   6.945  0.3890  0.2882 -0.0930
  174SLPC    C119651   6.416   1.690   6.839  0.2761 -0.2934 -0.5576
  174SLPC    HA19652   6.435   1.587   6.876 -0.3059 -0.2956 -0.2571
  174SLPC    HB19653   6.319   1.683   6.785  0.0783  1.8291 -0.5450
  174SLPC    C219654   6.541   1.707   6.743  0.6513 -0.1414 -0.3780
  174SLPC    HS19655   6.626   1.687   6.811  0.4226 -0.8827 -0.2960
  174SLPC   O2119656   6.538   1.836   6.685 -0.0739  0.4328  0.5060
  174SLPC   C2119657   6.658   1.888   6.644 -0.4804  0.1624  0.3130
  174SLPC   O2219658   6.761   1.843   6.681 -0.8530 -0.5185  0.7612
  174SLPC   C2219659   6.639   2.014   6.546 -0.6188 -0.5183  0.0282
  174SLPC   H2R19660   6.530   2.013   6.523 -0.6025  0.1057 -0.0855
  174SLPC   H2S19661   6.668   2.104   6.604  0.9971 -0.7494 -0.3996
  174SLPC    C319662   6.536   1.593   6.637 -0.2107 -0.6568 -0.7362
  174SLPC    HX19663   6.445   1.608   6.576 -0.4970 -0.7617 -0.3399
  174SLPC    HY19664   6.534   1.498   6.696 -1.8833 -0.0473  0.2493
  174SLPC   O3119665   6.643   1.598   6.545 -0.1038  1.0778 -0.1609
  174SLPC   C3119666   6.760   1.536   6.595  0.4870 -0.3440  0.0333
  174SLPC   O3219667   6.769   1.483   6.705  0.4847  1.1532  0.3025
  174SLPC   C3219668   6.867   1.543   6.487 -0.6898 -0.4795  0.6159
  174SLPC   H2X19669   6.928   1.636   6.487  1.0759 -1.5227 -2.3498
  174SLPC   H2Y19670   6.817   1.551   6.388  1.0512  0.8100 -0.2152
  174SLPC   C2319671   6.735   2.025   6.423 -0.4048 -0.4204 -0.0910
  174SLPC   H3R19672   6.841   2.026   6.458  0.0252 -0.6548 -1.3569
  174SLPC   H3S19673   6.716   2.122   6.374 -0.4607 -1.2601 -1.7936
  174SLPC   C2419674   6.725   1.915   6.318  0.2808 -0.2550  0.0814
  174SLPC   H4R19675   6.644   1.923   6.243  1.3846 -2.9094 -1.5437
  174SLPC   H4S19676   6.716   1.817   6.370 -1.8160 -0.5982 -0.8326
  174SLPC   C2519677   6.851   1.909   6.232 -0.0989  0.2928 -0.5950
  174SLPC   H5R19678   6.940   1.910   6.298  0.0741  1.6359 -0.8128
  174SLPC   H5S19679   6.841   2.001   6.170 -1.2276  1.7805  1.6305
  174SLPC   C2619680   6.854   1.781   6.143 -0.1414  0.2200 -0.0584
  174SLPC   H6R19681   6.863   1.692   6.209  1.7809 -1.5826 -2.5602
  174SLPC   H6S19682   6.947   1.786   6.083  0.5675  2.7358  1.1283
  174SLPC   C2719683   6.732   1.762   6.049 -0.3409  0.6123  0.5885
  174SLPC   H7R19684   6.715   1.851   5.985  1.2588  0.6407  0.1756
  174SLPC   H7S19685   6.643   1.764   6.116  1.2434 -1.0447  2.8946
  174SLPC   C2819686   6.739   1.632   5.971  0.0180 -0.3266 -0.1421
  174SLPC   H8R19687   6.789   1.554   6.034 -1.0912 -1.2107 -0.3179
  174SLPC   H8S19688   6.810   1.645   5.887 -0.2296  0.3534 -0.2539
  174SLPC   C2919689   6.605   1.592   5.922  0.2054 -0.3560 -0.2556
  174SLPC   H9R19690   6.545   1.534   5.994 -0.8748  2.2444  1.1206
  174SLPC  C21019691   6.550   1.633   5.806 -0.2483  0.7429  0.1228
  174SLPC  H10R19692   6.446   1.604   5.790  0.3165 -0.8485 -0.8641
  174SLPC  C21119693   6.621   1.708   5.696 -0.6512 -0.3078  0.0273
  174SLPC  H11R19694   6.661   1.805   5.734 -0.4690 -0.7598  1.0244
  174SLPC  H11S19695   6.535   1.722   5.627 -0.8583  0.7564  0.4774
  174SLPC  C21219696   6.736   1.632   5.623  1.6482 -0.0262 -0.8439
  174SLPC  H12R19697   6.807   1.569   5.678  0.3593 -0.3144  0.5511
  174SLPC  C21319698   6.756   1.612   5.495  0.2031 -0.9664 -0.2272
  174SLPC  H13R19699   6.841   1.551   5.462  0.1445 -1.7806  1.0871
  174SLPC  C21419700   6.685   1.681   5.386  0.4074 -0.3543 -0.3687
  174SLPC  H14R19701   6.596   1.730   5.430  1.6357  1.5208  0.1588
  174SLPC  H14S19702   6.647   1.613   5.307 -0.7110 -0.3648  0.1596
  174SLPC  C21519703   6.764   1.792   5.303  0.7127  0.5656 -0.0709
  174SLPC  H15R19704   6.835   1.740   5.236 -0.5795  0.3229 -1.2815
  174SLPC  H15S19705   6.821   1.859   5.372  0.1464  1.3406 -0.3451
  174SLPC  C21619706   6.668   1.887   5.229  1.2107 -0.6771  0.8144
  174SLPC  H16R19707   6.604   1.941   5.302  2.1483  3.2534 -0.9734
  174SLPC  H16S19708   6.606   1.830   5.157 -2.4684  3.0660  0.6596
  174SLPC  C21719709   6.732   2.007   5.158 -0.1935  0.4994  0.8009
  174SLPC  H17R19710   6.779   1.960   5.069 -1.9316 -0.7085  0.4758
  174SLPC  H17S19711   6.810   2.052   5.224  1.1064 -0.0835 -0.2710
  174SLPC  C21819712   6.630   2.106   5.113 -0.0520 -1.1120  0.0015
  174SLPC  H18R19713   6.593   2.155   5.205 -0.5300  0.2176 -0.8697
  174SLPC  H18S19714   6.555   2.060   5.044  0.6218  0.1737 -1.6650
  174SLPC  H18T19715   6.685   2.175   5.045 -1.1142  1.5701  1.7190
  174SLPC   C3319716   6.961   1.420   6.491  0.6210  0.3739  0.3682
  174SLPC   H3X19717   7.023   1.417   6.584  4.2683 -1.0965 -1.8895
  174SLPC   H3Y19718   7.042   1.421   6.415  1.5312 -1.3107  1.2527
  174SLPC   C3419719   6.891   1.278   6.480  0.1265 -0.1001 -0.0065
  174SLPC   H4X19720   6.824   1.257   6.567  3.1251  1.3730  2.8880
  174SLPC   H4Y19721   6.972   1.203   6.492  1.2717  1.2304  0.7752
  174SLPC   C3519722   6.819   1.272   6.350  0.2608  0.1699 -0.1661
  174SLPC   H5X19723   6.894   1.293   6.271  0.5007 -2.2114 -0.6452
  174SLPC   H5Y19724   6.725   1.331   6.350  1.3662  2.0701  1.6376
  174SLPC   C3619725   6.776   1.130   6.321  0.2476  0.4016 -0.1533
  174SLPC   H6X19726   6.714   1.098   6.407  1.7591 -0.5863  0.6168
  174SLPC   H6Y19727   6.867   1.067   6.318  0.2331  0.3937 -0.5493
  174SLPC   C3719728   6.680   1.132   6.192  0.6689  0.2532 -0.0254
  174SLPC   H7X19729   6.582   1.180   6.211 -0.7010 -2.2693 -0.2754
  174SLPC   H7Y19730   6.646   1.027   6.182 -0.2412  0.6075 -0.7982
  174SLPC   C3819731   6.749   1.173   6.062 -0.4628 -0.1782  0.0225
  174SLPC   H8X19732   6.843   1.117   6.042  1.1475  1.9983  1.0980
  174SLPC   H8Y19733   6.782   1.279   6.065  0.9640 -0.6222  1.0036
  174SLPC   C3919734   6.650   1.174   5.941 -0.6390 -0.1243 -0.3194
  174SLPC   H9X19735   6.554   1.217   5.975 -1.1582  0.0897 -2.0092
  174SLPC   H9Y19736   6.623   1.072   5.906 -2.3939  0.4325 -0.6749
  174SLPC  C31019737   6.710   1.249   5.827  0.7444  0.3178 -0.6861
  174SLPC  H10X19738   6.815   1.218   5.808 -0.5770 -3.4639 -3.2286
  174SLPC  H10Y19739   6.715   1.356   5.856  0.9236  0.3091 -0.6862
  174SLPC  C31119740   6.638   1.217   5.693 -0.4453  0.7341 -0.1707
  174SLPC  H11X19741   6.645   1.108   5.674 -0.9325  0.9972 -2.1086
  174SLPC  H11Y19742   6.679   1.256   5.598  1.9527 -0.9739  0.0741
  174SLPC  C31219743   6.496   1.257   5.702  0.1518  0.2925  0.1379
  174SLPC  H12X19744   6.502   1.366   5.727 -1.8266  0.7375 -1.1384
  174SLPC  H12Y19745   6.433   1.241   5.792 -1.4413  0.7447 -0.8486
  174SLPC  C31319746   6.417   1.255   5.572 -0.2078  0.1916  0.3853
  174SLPC  H13X19747   6.487   1.272   5.487  3.1019  2.0640  3.1598
  174SLPC  H13Y19748   6.327   1.319   5.562 -1.6770 -1.6021  1.6171
  174SLPC  C31419749   6.361   1.109   5.549 -0.3642 -0.1471 -0.1685
  174SLPC  H14X19750   6.288   1.087   5.630  0.5859  0.7806  0.9599
  174SLPC  H14Y19751   6.446   1.038   5.550  0.8577  1.1789 -2.2045
  174SLPC  C31519752   6.280   1.099   5.423  0.6393 -0.2852  0.1242
  174SLPC  H15X19753   6.335   1.140   5.335 -0.7424 -2.9475 -2.1316
  174SLPC  H15Y19754   6.191   1.161   5.446 -0.4333 -1.8598  0.3612
  174SLPC  C31619755   6.236   0.958   5.385  0.4199  0.0998  0.1926
  174SLPC  H16X19756   6.162   0.923   5.460 -1.2471  3.4932  0.3587
  174SLPC  H16Y19757   6.334   0.908   5.396  0.9814  1.0331 -0.4265
  174SLPC  C31719758   6.179   0.941   5.242  0.3711 -0.4724 -0.0366
  174SLPC  H17X19759   6.159   0.835   5.215 -1.8703  0.2811 -1.5598
  174SLPC  H17Y19760   6.258   0.971   5.170 -0.0158  0.0161 -0.2571
  174SLPC  C31819761   6.074   1.038   5.202  0.1508 -0.0095 -1.3769
  174SLPC  H18X19762   6.115   1.140   5.219 -0.6676 -0.0405  1.2355
  174SLPC  H18Y19763   5.984   1.040   5.267  0.3329  2.8639 -1.0789
  174SLPC  H18Z19764   6.042   1.018   5.098 -2.1268 -0.4958 -0.6419
  175SLPC     N19765   2.021   1.772   7.096 -0.0203 -0.2696 -1.0354
  175SLPC   C1319766   2.003   1.818   7.244 -0.8272  0.6086 -0.1782
  175SLPC  H13A19767   2.091   1.823   7.306 -1.0011 -0.2482  0.1534
  175SLPC  H13B19768   1.964   1.919   7.251  0.2885  1.0418 -0.0388
  175SLPC  H13C19769   1.951   1.742   7.300  2.5381 -0.1303  2.2505
  175SLPC   C1419770   2.091   1.641   7.097  0.5718  0.8859 -0.4809
  175SLPC  H14A19771   2.021   1.561   7.113  0.5615  0.9796 -0.0275
  175SLPC  H14B19772   2.135   1.632   6.999  0.0097 -0.8413 -0.5914
  175SLPC  H14C19773   2.167   1.633   7.174  0.7108 -0.3663 -0.7242
  175SLPC   C1519774   2.117   1.872   7.031 -0.6284 -0.0006  0.3069
  175SLPC  H15A19775   2.075   1.971   7.036  0.6177  0.8730 -3.4518
  175SLPC  H15B19776   2.208   1.870   7.090 -1.0087 -0.0392  0.8939
  175SLPC  H15C19777   2.125   1.843   6.927 -3.3047 -1.6322  0.4681
  175SLPC   C1219778   1.886   1.762   7.024 -0.0755  0.0709 -0.0973
  175SLPC  H12A19779   1.829   1.697   7.087 -0.1528  0.0975 -0.1393
  175SLPC  H12B19780   1.904   1.710   6.931  0.7234 -2.1033  1.2117
  175SLPC   C1119781   1.794   1.885   6.986 -0.8331  0.3075 -0.6124
  175SLPC  H11A19782   1.695   1.849   6.951 -1.0745  1.4383 -1.1271
  175SLPC  H11B19783   1.850   1.932   6.902  0.6362 -1.2291 -0.5392
  175SLPC     P19784   1.826   2.122   7.115  0.1350 -0.5565 -0.4124
  175SLPC   O1319785   1.735   2.202   7.200 -0.2999  0.4451 -0.0173
  175SLPC   O1419786   1.965   2.114   7.169  0.7160 -0.2525 -0.1596
  175SLPC   O1219787   1.779   1.971   7.097  0.9934  0.0392 -0.0423
  175SLPC   O1119788   1.834   2.177   6.967  0.4563  0.3435 -0.4538
  175SLPC    C119789   1.875   2.317   6.947  0.3773  0.2798 -0.2360
  175SLPC    HA19790   1.848   2.387   7.028  2.0676 -1.7602  2.2416
  175SLPC    HB19791   1.986   2.322   6.955  0.3569  1.2232 -0.4648
  175SLPC    C219792   1.813   2.379   6.820 -0.0864  0.0212  0.1007
  175SLPC    HS19793   1.703   2.373   6.839  0.3022 -1.9108  2.1433
  175SLPC   O2119794   1.857   2.302   6.707  0.2461 -0.7284  0.3499
  175SLPC   C2119795   1.784   2.302   6.596 -0.1040 -0.6876  0.0487
  175SLPC   O2219796   1.676   2.353   6.586  0.2991 -0.0253  0.3774
  175SLPC   C2219797   1.862   2.235   6.485 -0.0881  0.0172  0.3228
  175SLPC   H2R19798   1.963   2.281   6.474  0.6634 -1.3956  1.0046
  175SLPC   H2S19799   1.888   2.135   6.527 -0.2973 -0.0160  0.3742
  175SLPC    C319800   1.864   2.527   6.810  0.2156  0.0568  0.5870
  175SLPC    HX19801   1.974   2.521   6.797  0.4580  2.9683  0.4821
  175SLPC    HY19802   1.833   2.562   6.911 -0.5365 -1.4087  0.8819
  175SLPC   O3119803   1.804   2.609   6.709 -0.1022  0.4995  0.2490
  175SLPC   C3119804   1.680   2.650   6.726 -0.4165  0.3573 -0.1198
  175SLPC   O3219805   1.613   2.635   6.828 -0.1498  0.5359  0.0030
  175SLPC   C3219806   1.637   2.725   6.600  0.1138  0.0629  0.3643
  175SLPC   H2X19807   1.720   2.734   6.527  0.0599  2.1812  0.5026
  175SLPC   H2Y19808   1.622   2.834   6.616  2.7256  0.8465 -1.8368
  175SLPC   C2319809   1.773   2.237   6.357 -0.4946 -0.1632  0.0784
  175SLPC   H3R19810   1.762   2.336   6.308  0.2752 -0.4374 -0.6715
  175SLPC   H3S19811   1.672   2.195   6.372  0.7451 -2.6762  2.3390
  175SLPC   C2419812   1.835   2.149   6.249 -0.1551  0.1433  0.6634
  175SLPC   H4R19813   1.822   2.042   6.273 -0.5412  0.0052 -0.1256
  175SLPC   H4S19814   1.940   2.179   6.225 -0.9864  1.6026 -1.4486
  175SLPC   C2519815   1.762   2.170   6.113  0.1685  0.1576 -0.0114
  175SLPC   H5R19816   1.759   2.279   6.090  2.9892 -0.3156 -3.4235
  175SLPC   H5S19817   1.660   2.139   6.145  0.7070 -1.7502 -0.0646
  175SLPC   C2619818   1.824   2.097   5.990  0.3303  0.0592  0.0952
  175SLPC   H6R19819   1.853   1.996   6.025 -2.0146 -0.8446 -0.4302
  175SLPC   H6S19820   1.917   2.150   5.957  0.0536  1.2287  1.1066
  175SLPC   C2719821   1.721   2.091   5.873 -0.1980  0.4876 -0.3503
  175SLPC   H7R19822   1.706   2.197   5.843 -3.3611  0.0654 -0.6294
  175SLPC   H7S19823   1.623   2.054   5.910 -0.6898  0.1703 -1.9038
  175SLPC   C2819824   1.771   2.010   5.747  0.6279 -0.4537 -0.5508
  175SLPC   H8R19825   1.869   2.055   5.722  0.1613  0.2339 -1.2112
  175SLPC   H8S19826   1.692   2.050   5.679 -0.2498  0.6896  1.0513
  175SLPC   C2919827   1.766   1.861   5.771 -0.5694  0.3493 -0.2346
  175SLPC   H9R19828   1.808   1.825   5.866 -1.8631 -1.1855 -0.2015
  175SLPC  C21019829   1.685   1.768   5.709  0.2801 -0.1845 -0.8553
  175SLPC  H10R19830   1.688   1.668   5.755  0.2036  0.1471 -0.1149
  175SLPC  C21119831   1.586   1.799   5.598  0.0268 -0.6951  0.5626
  175SLPC  H11R19832   1.607   1.891   5.539  1.1552 -1.4491 -0.2852
  175SLPC  H11S19833   1.490   1.810   5.652  0.6088  2.1294  1.1859
  175SLPC  C21219834   1.589   1.681   5.502  0.1048 -0.1088  0.1474
  175SLPC  H12R19835   1.668   1.605   5.518  0.7783  0.5980  0.2425
  175SLPC  C21319836   1.503   1.662   5.399 -0.1491  0.6462  0.0514
  175SLPC  H13R19837   1.523   1.574   5.337  1.0337  0.9937 -0.0881
  175SLPC  C21419838   1.384   1.748   5.373  0.3083  0.7051  0.4659
  175SLPC  H14R19839   1.377   1.838   5.437 -0.0675  0.8208  0.2668
  175SLPC  H14S19840   1.296   1.683   5.390  0.4289 -0.4828 -2.7178
  175SLPC  C21519841   1.395   1.781   5.229 -0.5569  0.7341 -0.4002
  175SLPC  H15R19842   1.408   1.682   5.179 -1.3239 -1.1088  2.7900
  175SLPC  H15S19843   1.482   1.847   5.211 -0.3053  0.1106 -1.5676
  175SLPC  C21619844   1.275   1.841   5.157  1.3052 -1.0016 -0.3812
  175SLPC  H16R19845   1.221   1.921   5.211  2.8231  0.7293 -1.3218
  175SLPC  H16S19846   1.192   1.768   5.143 -1.0415  1.7800 -1.9102
  175SLPC  C21719847   1.302   1.893   5.019  0.1672 -0.2991  0.7236
  175SLPC  H17R19848   1.362   1.987   5.028 -1.6202  1.0353 -0.5572
  175SLPC  H17S19849   1.203   1.933   4.989  0.6026 -0.1987 -0.6489
  175SLPC  C21819850   1.364   1.792   4.917  0.4074 -0.3201 -0.0345
  175SLPC  H18R19851   1.448   1.742   4.970  0.2703 -1.2280 -0.6617
  175SLPC  H18S19852   1.417   1.839   4.832  1.6915 -0.2445  0.7795
  175SLPC  H18T19853   1.291   1.721   4.873 -0.5931  0.8689 -0.3621
  175SLPC   C3319854   1.515   2.653   6.536 -0.6264 -0.6425  0.2898
  175SLPC   H3X19855   1.435   2.639   6.612 -0.3654  2.0311  1.1353
  175SLPC   H3Y19856   1.558   2.558   6.497 -1.7351 -0.0296 -2.7157
  175SLPC   C3419857   1.454   2.747   6.435 -0.3398 -0.9234 -0.2244
  175SLPC   H4X19858   1.534   2.799   6.377  0.5275 -2.4165 -0.4330
  175SLPC   H4Y19859   1.392   2.830   6.474  0.4650  0.0882 -1.0234
  175SLPC   C3519860   1.372   2.661   6.333 -0.3007 -0.0910  1.2048
  175SLPC   H5X19861   1.336   2.740   6.264 -0.1865  1.7474  3.1280
  175SLPC   H5Y19862   1.286   2.610   6.382 -2.0129  1.4211 -0.0518
  175SLPC   C3619863   1.453   2.557   6.249  0.7382 -0.3229 -0.0521
  175SLPC   H6X19864   1.454   2.459   6.301  1.1717  0.8414  2.2701
  175SLPC   H6Y19865   1.557   2.594   6.235  1.2193 -1.0588  1.3602
  175SLPC   C3719866   1.390   2.544   6.110 -0.0479  0.2359 -1.1319
  175SLPC   H7X19867   1.420   2.636   6.056 -1.6281  0.8526 -1.0259
  175SLPC   H7Y19868   1.279   2.532   6.113 -0.1681  0.3648 -3.5354
  175SLPC   C3819869   1.446   2.423   6.033  0.1405 -0.0185 -0.0350
  175SLPC   H8X19870   1.406   2.336   6.089 -0.4807 -0.1267 -0.6336
  175SLPC   H8Y19871   1.557   2.418   6.045 -0.1090  0.4042  3.3777
  175SLPC   C3919872   1.404   2.427   5.889 -0.3373 -0.0909 -0.0355
  175SLPC   H9X19873   1.448   2.517   5.842  0.7901 -1.5094 -1.7998
  175SLPC   H9Y19874   1.295   2.440   5.871 -0.3292  1.5193  0.9275
  175SLPC  C31019875   1.450   2.301   5.811 -0.0194 -0.2409 -0.3388
  175SLPC  H10X19876   1.469   2.215   5.879 -0.5362 -0.6362 -0.6858
  175SLPC  H10Y19877   1.549   2.331   5.769  1.7166 -1.9358  2.2224
  175SLPC  C31119878   1.360   2.244   5.710  0.7936 -0.4063 -0.7214
  175SLPC  H11X19879   1.259   2.226   5.754  1.7923  0.0568  1.9352
  175SLPC  H11Y19880   1.399   2.150   5.665 -3.4288 -2.9606  0.3433
  175SLPC  C31219881   1.341   2.344   5.587 -0.0374  0.3301 -0.5582
  175SLPC  H12X19882   1.440   2.393   5.575  1.2515 -1.8842  0.3525
  175SLPC  H12Y19883   1.268   2.420   5.623 -1.3865 -0.6578 -1.1049
  175SLPC  C31319884   1.275   2.286   5.465 -0.2614  0.6959 -0.8671
  175SLPC  H13X19885   1.222   2.357   5.397 -2.4024 -0.0356 -0.0476
  175SLPC  H13Y19886   1.188   2.226   5.498 -0.1153 -0.0367 -1.7661
  175SLPC  C31419887   1.359   2.194   5.372  0.0698 -0.2993 -0.5692
  175SLPC  H14X19888   1.298   2.143   5.295 -1.4505  0.5409  0.0369
  175SLPC  H14Y19889   1.406   2.120   5.440 -1.1592 -0.5463  0.0485
  175SLPC  C31519890   1.466   2.278   5.305 -0.2095 -0.1098  0.3148
  175SLPC  H15X19891   1.554   2.219   5.272 -0.7369 -0.3779 -0.6392
  175SLPC  H15Y19892   1.505   2.355   5.375  1.0135 -0.0022 -0.4488
  175SLPC  C31619893   1.427   2.344   5.175 -0.3983  0.3064 -0.4667
  175SLPC  H16X19894   1.342   2.407   5.207 -1.5226 -1.9821  1.3571
  175SLPC  H16Y19895   1.385   2.271   5.102 -1.0470  1.5784 -1.4107
  175SLPC  C31719896   1.529   2.439   5.116  0.4757 -0.6410 -0.0196
  175SLPC  H17X19897   1.603   2.369   5.070 -0.8006 -2.7210  0.9211
  175SLPC  H17Y19898   1.573   2.498   5.199 -1.3824 -1.8195  1.9263
  175SLPC  C31819899   1.458   2.532   5.014 -0.6367 -0.1693  0.9836
  175SLPC  H18X19900   1.379   2.592   5.065  0.6424  0.3960  2.3900
  175SLPC  H18Y19901   1.415   2.473   4.931 -2.0545 -1.2895  2.4424
  175SLPC  H18Z19902   1.525   2.604   4.963  0.7111 -1.1535  1.3114
  176SLPC     N19903   3.478   2.381   6.810  0.0971 -0.6743 -0.6617
  176SLPC   C1319904   3.452   2.312   6.942  0.0679  0.3859 -0.7192
  176SLPC  H13A19905   3.347   2.285   6.945  0.0313  0.6432  0.4955
  176SLPC  H13B19906   3.506   2.218   6.948  0.5724  0.5577 -2.1020
  176SLPC  H13C19907   3.470   2.374   7.028 -0.0933 -0.5481  0.0031
  176SLPC   C1419908   3.623   2.423   6.792 -0.5551  0.5318  0.3706
  176SLPC  H14A19909   3.636   2.507   6.725  0.5944 -0.6760 -0.9810
  176SLPC  H14B19910   3.665   2.450   6.887  0.5197 -3.0745  1.0470
  176SLPC  H14C19911   3.686   2.341   6.760  0.1621  1.0672  0.3900
  176SLPC   C1519912   3.397   2.511   6.821  0.1219  0.3087 -0.6902
  176SLPC  H15A19913   3.298   2.476   6.844  0.8929 -3.7461 -2.7565
  176SLPC  H15B19914   3.445   2.563   6.903 -1.0024 -0.6940  0.6425
  176SLPC  H15C19915   3.400   2.576   6.735 -0.7603  1.2302 -0.0475
  176SLPC   C1219916   3.442   2.303   6.692  0.1568 -0.8647  0.5827
  176SLPC  H12A19917   3.501   2.212   6.688  0.0306 -0.9078 -0.7018
  176SLPC  H12B19918   3.466   2.357   6.601 -3.9519  0.9336  0.3530
  176SLPC   C1119919   3.298   2.258   6.673 -0.2739  0.5067  0.6549
  176SLPC  H11A19920   3.304   2.206   6.575  0.8780 -0.1531  1.0505
  176SLPC  H11B19921   3.230   2.343   6.651 -0.0633 -0.1744 -3.4112
  176SLPC     P19922   3.115   2.106   6.775 -0.3396  0.1195  0.1241
  176SLPC   O1319923   3.121   1.971   6.845 -0.8306 -0.2073 -0.1223
  176SLPC   O1419924   3.025   2.209   6.836 -0.1449  0.1616 -0.1734
  176SLPC   O1219925   3.255   2.167   6.775 -0.3442 -0.5548  0.4419
  176SLPC   O1119926   3.081   2.089   6.624  0.5765  0.1380 -0.1226
  176SLPC    C119927   2.965   2.138   6.559 -0.2423  0.3421  0.4045
  176SLPC    HA19928   2.872   2.112   6.615 -0.7984 -0.1656 -0.7392
  176SLPC    HB19929   2.968   2.249   6.557 -2.6091  0.4784 -2.5155
  176SLPC    C219930   2.961   2.096   6.413 -0.3321 -0.5827  0.0959
  176SLPC    HS19931   2.861   2.127   6.376 -1.4856 -0.9104  2.7259
  176SLPC   O2119932   2.983   1.956   6.387  0.0238  0.3977  0.0653
  176SLPC   C2119933   2.897   1.872   6.441 -1.1140  0.5685 -0.4452
  176SLPC   O2219934   2.802   1.909   6.509  0.2148 -0.7867  0.3108
  176SLPC   C2219935   2.917   1.733   6.378 -0.1728 -0.1157 -0.7969
  176SLPC   H2R19936   2.990   1.736   6.294  0.4407 -2.2604 -0.4047
  176SLPC   H2S19937   2.969   1.673   6.455 -0.4343 -0.2435 -0.7206
  176SLPC    C319938   3.065   2.181   6.339 -0.6579  0.1940 -0.1459
  176SLPC    HX19939   3.167   2.158   6.376 -1.6525 -3.4744  0.6115
  176SLPC    HY19940   3.053   2.291   6.356  0.8781  0.3461  0.1024
  176SLPC   O3119941   3.061   2.151   6.193 -0.1649  0.1764  0.3488
  176SLPC   C3119942   2.963   2.215   6.130 -0.3480  0.2156  0.1468
  176SLPC   O3219943   2.907   2.313   6.167  0.0751 -0.5547  0.1387
  176SLPC   C3219944   2.943   2.143   6.002 -0.0195 -0.1888 -0.2685
  176SLPC   H2X19945   2.913   2.038   6.023 -0.1993 -0.2662 -0.8887
  176SLPC   H2Y19946   3.043   2.145   5.952  0.4753 -4.0444  0.2394
  176SLPC   C2319947   2.773   1.677   6.338 -0.0213 -0.5471 -0.0584
  176SLPC   H3R19948   2.725   1.773   6.308  3.1948  1.9101  1.8312
  176SLPC   H3S19949   2.724   1.622   6.421  2.2968  0.1956  1.9345
  176SLPC   C2419950   2.793   1.591   6.209  0.1897  0.1112  0.2174
  176SLPC   H4R19951   2.706   1.524   6.195  0.1640  0.4865 -1.7675
  176SLPC   H4S19952   2.881   1.524   6.212  0.4923  0.2998 -2.2406
  176SLPC   C2519953   2.815   1.669   6.073 -0.0871  0.7106 -0.4968
  176SLPC   H5R19954   2.911   1.724   6.085 -0.7269  1.2408  3.9980
  176SLPC   H5S19955   2.736   1.743   6.049  0.1327  0.0004 -3.9596
  176SLPC   C2619956   2.840   1.574   5.951  0.0194 -0.6519  0.4747
  176SLPC   H6R19957   2.745   1.518   5.936 -0.8693  0.9182 -0.0352
  176SLPC   H6S19958   2.924   1.505   5.973  1.7563  2.0323  2.9812
  176SLPC   C2719959   2.885   1.637   5.824  0.5454 -0.4044  0.5033
  176SLPC   H7R19960   2.984   1.687   5.828  1.4661 -2.0125 -0.7478
  176SLPC   H7S19961   2.808   1.714   5.801 -0.0901 -0.8632  1.0647
  176SLPC   C2819962   2.888   1.531   5.703 -0.1782  0.0066 -0.9366
  176SLPC   H8R19963   2.790   1.479   5.715 -0.8429  0.8078 -2.5527
  176SLPC   H8S19964   2.975   1.465   5.721 -0.2897  0.5156  1.9999
  176SLPC   C2919965   2.895   1.587   5.561  0.0262 -1.0554 -0.1524
  176SLPC   H9R19966   2.992   1.626   5.525 -1.1364  0.5418 -1.7646
  176SLPC  C21019967   2.791   1.575   5.473 -0.3828 -0.5986  0.0995
  176SLPC  H10R19968   2.791   1.628   5.377  0.2896 -2.5455 -1.0482
  176SLPC  C21119969   2.659   1.509   5.491  0.2132  0.0978 -0.4891
  176SLPC  H11R19970   2.640   1.510   5.600  0.9879 -0.9711 -0.3329
  176SLPC  H11S19971   2.668   1.403   5.460  0.4449  0.4464 -1.6606
  176SLPC  C21219972   2.551   1.595   5.424 -0.6773 -0.1668  0.3233
  176SLPC  H12R19973   2.510   1.663   5.501 -1.2350 -0.2206  0.0774
  176SLPC  C21319974   2.495   1.596   5.300 -0.5003  0.1118  0.8260
  176SLPC  H13R19975   2.424   1.673   5.265 -0.5148  0.9313  2.5844
  176SLPC  C21419976   2.533   1.499   5.191  0.6589  0.2600  0.2741
  176SLPC  H14R19977   2.454   1.430   5.155  1.7097 -0.6621 -0.3436
  176SLPC  H14S19978   2.618   1.431   5.216 -0.0685 -0.3437  1.1630
  176SLPC  C21519979   2.580   1.584   5.060 -0.4183  0.5690  0.2543
  176SLPC  H15R19980   2.629   1.678   5.094 -4.3579  1.7033  3.8413
  176SLPC  H15S19981   2.482   1.597   5.009 -0.1465 -1.1822 -0.7740
  176SLPC  C21619982   2.663   1.489   4.970  0.2995  1.1991  0.5240
  176SLPC  H16R19983   2.674   1.532   4.868 -1.5329 -1.2566 -0.7936
  176SLPC  H16S19984   2.608   1.393   4.960 -0.8151  1.8204  0.5114
  176SLPC  C21719985   2.809   1.449   5.021  0.3529 -0.3436  0.0841
  176SLPC  H17R19986   2.807   1.447   5.132  0.0147 -1.1729  0.0735
  176SLPC  H17S19987   2.866   1.540   4.995 -2.3037  0.7146 -2.7462
  176SLPC  C21819988   2.871   1.323   4.965 -0.4375 -0.2894  0.9715
  176SLPC  H18R19989   2.828   1.234   5.016 -2.7939 -0.0324 -0.4110
  176SLPC  H18S19990   2.980   1.326   4.984 -0.0690  3.8178 -0.8068
  176SLPC  H18T19991   2.860   1.319   4.855  1.5497  1.5953  0.6334
  176SLPC   C3319992   2.845   2.221   5.913 -1.3260 -0.2310 -0.5783
  176SLPC   H3X19993   2.863   2.330   5.926 -0.6337 -0.5168  1.1758
  176SLPC   H3Y19994   2.742   2.206   5.952 -0.4387  1.2502  2.6659
  176SLPC   C3419995   2.857   2.183   5.765  0.4922  0.3217 -0.3923
  176SLPC   H4X19996   2.959   2.204   5.726  0.6995  0.0386 -0.0111
  176SLPC   H4Y19997   2.798   2.251   5.700 -1.6495 -1.4611 -0.4157
  176SLPC   C3519998   2.822   2.035   5.747  0.0144  0.5929 -0.8972
  176SLPC   H5X19999   2.751   2.017   5.830  3.7754 -1.6334  2.1866
  176SLPC   H5Y20000   2.906   1.967   5.774 -1.6120 -0.8678  0.7652
  176SLPC   C3620001   2.779   1.992   5.605 -0.6215  0.3265 -0.5431
  176SLPC   H6X20002   2.743   1.889   5.624  1.4591 -0.3221  0.1056
  176SLPC   H6Y20003   2.872   1.994   5.544  1.0159 -1.4341  1.7133
  176SLPC   C3720004   2.665   2.073   5.543  0.1341 -0.0332  0.1775
  176SLPC   H7X20005   2.711   2.172   5.519  0.0877 -0.2811 -1.0019
  176SLPC   H7Y20006   2.586   2.094   5.618  0.0003  1.3267 -0.3125
  176SLPC   C3820007   2.613   1.995   5.422 -0.2185  0.0866 -0.4992
  176SLPC   H8X20008   2.576   1.897   5.459  1.7627 -2.2111 -3.9710
  176SLPC   H8Y20009   2.701   1.960   5.365 -0.9388 -2.0345 -0.4117
  176SLPC   C3920010   2.511   2.067   5.339  0.1294  0.2782  0.0729
  176SLPC   H9X20011   2.562   2.144   5.278  1.2511 -0.7775 -0.3698
  176SLPC   H9Y20012   2.448   2.119   5.415  3.1926  1.8230  1.7121
  176SLPC  C31020013   2.425   1.966   5.260  0.5896 -0.9658  1.0037
  176SLPC  H10X20014   2.357   1.906   5.324  0.7432 -2.5213 -0.2456
  176SLPC  H10Y20015   2.491   1.893   5.209  0.7524 -0.5670  0.6304
  176SLPC  C31120016   2.348   2.040   5.152 -0.2136 -0.1207  0.7451
  176SLPC  H11X20017   2.416   2.109   5.098 -1.9840  0.9694 -0.2223
  176SLPC  H11Y20018   2.266   2.096   5.203 -0.5806  0.1854 -0.1539
  176SLPC  C31220019   2.293   1.942   5.051 -0.4307 -0.2463 -0.2205
  176SLPC  H12X20020   2.232   1.871   5.111  0.7336  0.2406  1.6200
  176SLPC  H12Y20021   2.365   1.879   4.995 -3.1026 -2.5357 -1.3237
  176SLPC  C31320022   2.198   2.022   4.953 -0.0324  0.3573  0.8966
  176SLPC  H13X20023   2.121   2.086   5.000  0.8905  1.6065  0.7697
  176SLPC  H13Y20024   2.149   1.949   4.886 -0.6251  2.5120 -1.1260
  176SLPC  C31420025   2.264   2.127   4.851  0.7839  0.3341 -0.0606
  176SLPC  H14X20026   2.362   2.106   4.802  1.3767  0.9998  0.7874
  176SLPC  H14Y20027   2.294   2.210   4.919 -0.9364  2.5517 -1.8285
  176SLPC  C31520028   2.171   2.193   4.755 -0.3550 -1.3210  0.5107
  176SLPC  H15X20029   2.083   2.234   4.809  2.1522  2.7502  1.9419
  176SLPC  H15Y20030   2.127   2.124   4.679  1.6713 -0.7071 -1.3350
  176SLPC  C31620031   2.245   2.309   4.674 -0.4368 -0.0445  0.2542
  176SLPC  H16X20032   2.320   2.358   4.739  0.5461  1.4375 -1.8747
  176SLPC  H16Y20033   2.166   2.381   4.641 -0.7244  0.5853  2.1905
  176SLPC  C31720034   2.326   2.251   4.563 -0.3850  0.3106  0.4685
  176SLPC  H17X20035   2.346   2.143   4.578 -2.5316 -0.4505 -1.4934
  176SLPC  H17Y20036   2.429   2.292   4.565 -0.4400  0.4187  1.7089
  176SLPC  C31820037   2.262   2.278   4.425 -0.5915 -0.0267  0.6887
  176SLPC  H18X20038   2.154   2.251   4.425 -0.9706  1.4071 -0.0092
  176SLPC  H18Y20039   2.313   2.224   4.342 -1.2124  0.9556 -0.3701
  176SLPC  H18Z20040   2.275   2.381   4.385  0.3292 -0.1428  0.6636
  177SLPC     N20041   4.176   2.057   7.032 -0.0051  0.2525  0.7878
  177SLPC   C1320042   4.264   2.142   7.114  0.4663 -0.5529 -0.3809
  177SLPC  H13A20043   4.282   2.242   7.079 -1.9933  0.3761  0.7564
  177SLPC  H13B20044   4.211   2.151   7.208 -2.3709 -0.0951 -1.9033
  177SLPC  H13C20045   4.360   2.094   7.129  1.9845  1.6306 -2.3930
  177SLPC   C1420046   4.038   2.110   7.045 -0.1883  0.7289 -0.7195
  177SLPC  H14A20047   3.967   2.047   6.994 -2.5222  1.5511  1.2809
  177SLPC  H14B20048   4.008   2.121   7.148 -0.2102  0.6682 -0.7196
  177SLPC  H14C20049   4.030   2.211   7.007  1.8938  0.2059 -2.8043
  177SLPC   C1520050   4.170   1.920   7.084  0.1056 -0.3957 -0.1243
  177SLPC  H15A20051   4.261   1.866   7.062  0.5293  0.5085 -0.6496
  177SLPC  H15B20052   4.145   1.909   7.189 -0.1229 -1.1178 -0.2435
  177SLPC  H15C20053   4.097   1.854   7.039  0.4260  0.3334 -1.7787
  177SLPC   C1220054   4.227   2.059   6.882 -0.7485  0.7297 -0.0238
  177SLPC  H12A20055   4.158   1.994   6.831 -0.8703  0.2216  0.7660
  177SLPC  H12B20056   4.326   2.017   6.889 -1.7749 -2.1407 -1.2252
  177SLPC   C1120057   4.219   2.198   6.804 -0.0484 -0.0831  1.0088
  177SLPC  H11A20058   4.112   2.219   6.785 -0.6502 -1.1398  2.9391
  177SLPC  H11B20059   4.274   2.188   6.708 -0.2342 -0.9868  0.9898
  177SLPC     P20060   4.215   2.438   6.896 -0.2532  0.2257  0.1470
  177SLPC   O1320061   4.069   2.422   6.901 -0.6094  0.0352  0.6710
  177SLPC   O1420062   4.290   2.522   6.987 -0.0773  0.6226 -0.4893
  177SLPC   O1220063   4.285   2.298   6.884  0.0164 -0.6933 -0.2828
  177SLPC   O1120064   4.244   2.481   6.746 -0.0155 -0.2948  0.6939
  177SLPC    C120065   4.382   2.501   6.711  0.0791  0.1508 -0.1298
  177SLPC    HA20066   4.434   2.550   6.797 -1.6579 -0.9031  1.5950
  177SLPC    HB20067   4.423   2.403   6.682  0.6607  0.2612  0.2970
  177SLPC    C220068   4.407   2.592   6.583 -0.4351  0.7212 -1.1376
  177SLPC    HS20069   4.348   2.685   6.595 -0.9814  0.3295 -0.7002
  177SLPC   O2120070   4.373   2.520   6.471  0.4502  0.2378 -0.0638
  177SLPC   C2120071   4.373   2.575   6.350  0.0393  0.2168 -0.1132
  177SLPC   O2220072   4.365   2.692   6.323 -0.5232  0.0091  0.6304
  177SLPC   C2220073   4.397   2.449   6.258  0.4275 -0.3826  0.1525
  177SLPC   H2R20074   4.457   2.374   6.313  0.5435 -0.4075 -0.0078
  177SLPC   H2S20075   4.295   2.405   6.249  0.1447  0.4344 -0.8678
  177SLPC    C320076   4.556   2.634   6.569 -0.4810 -0.3299  0.5835
  177SLPC    HX20077   4.593   2.677   6.665 -1.3287  3.7509 -0.7008
  177SLPC    HY20078   4.551   2.711   6.488 -1.4945  0.1034  1.0475
  177SLPC   O3120079   4.643   2.525   6.531  0.2182  0.1144  0.1068
  177SLPC   C3120080   4.765   2.563   6.496  0.1726  0.4064  0.0264
  177SLPC   O3220081   4.814   2.672   6.508  0.2535  0.3109 -0.3429
  177SLPC   C3220082   4.850   2.436   6.474  0.2591 -0.1353  0.0259
  177SLPC   H2X20083   4.778   2.352   6.478 -0.6524  0.5692 -0.9146
  177SLPC   H2Y20084   4.912   2.426   6.565 -2.0975  0.0730  1.7329
  177SLPC   C2320085   4.446   2.485   6.118 -0.6504 -0.7287 -0.7190
  177SLPC   H3R20086   4.489   2.390   6.083 -0.8173 -1.0292 -0.1228
  177SLPC   H3S20087   4.513   2.573   6.130 -1.1499 -0.5790  1.4023
  177SLPC   C2420088   4.323   2.518   6.029  0.0016  0.7811 -0.0211
  177SLPC   H4R20089   4.285   2.610   6.078  2.5217  1.2577  1.2500
  177SLPC   H4S20090   4.253   2.434   6.046  1.4707 -0.1454  1.9554
  177SLPC   C2520091   4.351   2.531   5.876 -0.3366 -0.1171  0.4674
  177SLPC   H5R20092   4.436   2.602   5.866 -1.0056  0.5004 -1.1521
  177SLPC   H5S20093   4.262   2.577   5.826  0.2468 -0.5462 -1.0169
  177SLPC   C2620094   4.387   2.394   5.809 -0.0114  0.8513 -0.4373
  177SLPC   H6R20095   4.293   2.339   5.832  0.0086  1.7222  2.0283
  177SLPC   H6S20096   4.478   2.353   5.857  0.0310  1.9138  0.4541
  177SLPC   C2720097   4.415   2.394   5.659 -0.2979  0.0962 -0.2026
  177SLPC   H7R20098   4.456   2.487   5.616 -0.0560 -0.4379 -1.1723
  177SLPC   H7S20099   4.319   2.386   5.604 -1.4692 -0.3788  1.8379
  177SLPC   C2820100   4.504   2.279   5.613 -0.6193 -0.3484  0.1466
  177SLPC   H8R20101   4.594   2.276   5.679 -1.2588 -0.3711  1.0308
  177SLPC   H8S20102   4.539   2.310   5.512 -0.6529  0.9467  0.5071
  177SLPC   C2920103   4.446   2.147   5.617  0.0694 -0.5308 -0.1696
  177SLPC   H9R20104   4.410   2.119   5.717 -0.4037  0.2492 -0.1123
  177SLPC  C21020105   4.418   2.067   5.516 -0.1445 -0.5848 -0.1168
  177SLPC  H10R20106   4.375   1.970   5.544 -0.3977 -0.2356  0.7344
  177SLPC  C21120107   4.455   2.102   5.372 -0.2189  0.2096 -0.3130
  177SLPC  H11R20108   4.420   2.204   5.345 -0.1290  1.1630  2.8048
  177SLPC  H11S20109   4.393   2.047   5.298 -0.7487  0.7162 -0.2513
  177SLPC  C21220110   4.600   2.085   5.345  0.3688  0.2584 -0.7322
  177SLPC  H12R20111   4.665   2.164   5.385  2.3957 -1.0864 -1.1793
  177SLPC  C21320112   4.651   1.968   5.300  0.4234  0.2357 -0.5077
  177SLPC  H13R20113   4.758   1.967   5.274  0.3675  2.4598 -1.0461
  177SLPC  C21420114   4.583   1.842   5.260  0.4706 -0.1018 -0.5177
  177SLPC  H14R20115   4.473   1.852   5.270  0.4358  0.1387 -1.0939
  177SLPC  H14S20116   4.615   1.758   5.326 -0.9608  1.0746  1.8176
  177SLPC  C21520117   4.626   1.808   5.114 -0.0710 -0.5658  0.1138
  177SLPC  H15R20118   4.734   1.827   5.101 -0.1641 -0.5786 -0.7163
  177SLPC  H15S20119   4.582   1.888   5.050  1.8709 -0.8337 -1.6445
  177SLPC  C21620120   4.586   1.670   5.062  0.4251  0.3087 -0.6399
  177SLPC  H16R20121   4.478   1.645   5.062  0.6909 -0.9159 -0.0156
  177SLPC  H16S20122   4.641   1.593   5.119 -1.3357  0.0712  0.8287
  177SLPC  C21720123   4.626   1.638   4.915 -0.6996  0.0638 -0.7314
  177SLPC  H17R20124   4.565   1.697   4.843 -1.4919  0.0539 -0.0690
  177SLPC  H17S20125   4.595   1.534   4.893 -0.6304  0.1400 -1.2155
  177SLPC  C21820126   4.782   1.649   4.893  0.0274  0.0996  0.4121
  177SLPC  H18R20127   4.820   1.751   4.872 -0.2423 -0.1159 -1.2479
  177SLPC  H18S20128   4.821   1.587   4.810 -2.4209 -1.2236  0.1580
  177SLPC  H18T20129   4.824   1.598   4.982 -0.1571  1.7837  1.5152
  177SLPC   C3320130   4.933   2.439   6.347  0.8936  0.1470 -0.1729
  177SLPC   H3X20131   5.001   2.352   6.353 -1.3362 -1.5677  2.5297
  177SLPC   H3Y20132   4.992   2.534   6.347  2.9727 -1.0459  1.4987
  177SLPC   C3420133   4.840   2.429   6.233  0.9977  0.0348  0.0346
  177SLPC   H4X20134   4.780   2.522   6.231  2.2608  0.8946  0.3980
  177SLPC   H4Y20135   4.761   2.351   6.240  0.1959  0.6520 -1.7961
  177SLPC   C3520136   4.913   2.421   6.098  0.5558 -0.3267 -0.2349
  177SLPC   H5X20137   4.976   2.333   6.076  0.5444 -0.2738 -0.4873
  177SLPC   H5Y20138   4.984   2.506   6.108  0.8971 -0.6510  0.0923
  177SLPC   C3620139   4.814   2.449   5.986 -0.0171  0.1148  0.0358
  177SLPC   H6X20140   4.785   2.556   5.986  0.0755  0.2666 -3.8045
  177SLPC   H6Y20141   4.725   2.383   5.997 -0.9678  1.3779  0.1643
  177SLPC   C3720142   4.887   2.423   5.855 -0.1346  0.5351  0.0987
  177SLPC   H7X20143   4.917   2.317   5.850 -0.7163  0.3905 -0.4607
  177SLPC   H7Y20144   4.979   2.485   5.865 -0.5603  1.1502  0.3275
  177SLPC   C3820145   4.811   2.477   5.736 -0.2122 -0.3132 -0.3554
  177SLPC   H8X20146   4.780   2.582   5.753 -2.3736 -0.5622 -2.1676
  177SLPC   H8Y20147   4.713   2.423   5.729 -0.9359  1.0632 -1.3118
  177SLPC   C3920148   4.892   2.446   5.609  0.3760 -0.0520  0.8796
  177SLPC   H9X20149   4.910   2.337   5.597  1.1352  0.3022 -2.0742
  177SLPC   H9Y20150   4.991   2.489   5.634  0.0519 -0.4121  3.0127
  177SLPC  C31020151   4.832   2.492   5.473 -0.6732 -0.1939  0.5560
  177SLPC  H10X20152   4.803   2.599   5.477 -1.8876 -0.2943 -2.7018
  177SLPC  H10Y20153   4.736   2.439   5.457  0.2038 -2.5640  2.5575
  177SLPC  C31120154   4.917   2.474   5.346  0.5246 -0.1619  0.2103
  177SLPC  H11X20155   4.928   2.364   5.345 -0.3464 -0.2550  0.2771
  177SLPC  H11Y20156   5.019   2.516   5.356  0.9880 -1.1103 -0.4365
  177SLPC  C31220157   4.851   2.526   5.218 -0.3962  0.2451 -0.2915
  177SLPC  H12X20158   4.843   2.636   5.228 -0.7503  0.0135  2.9120
  177SLPC  H12Y20159   4.750   2.483   5.204 -0.7678  0.8234  0.5302
  177SLPC  C31320160   4.934   2.503   5.083 -0.0384 -0.4465 -0.0198
  177SLPC  H13X20161   4.938   2.392   5.084 -0.7559 -0.4806  0.0676
  177SLPC  H13Y20162   5.031   2.557   5.077 -0.5013  0.3500 -0.6467
  177SLPC  C31420163   4.858   2.535   4.953 -0.3407  0.2408 -0.0873
  177SLPC  H14X20164   4.827   2.642   4.959  0.2116  0.3451  1.1410
  177SLPC  H14Y20165   4.760   2.483   4.953 -1.0259  1.4754 -0.4792
  177SLPC  C31520166   4.931   2.519   4.819 -0.1940  0.6180 -0.0565
  177SLPC  H15X20167   4.976   2.421   4.793 -1.8183 -0.3100  0.5196
  177SLPC  H15Y20168   5.009   2.598   4.822  1.8910 -1.3485  2.7719
  177SLPC  C31620169   4.845   2.562   4.693  0.3479 -0.2000 -0.1131
  177SLPC  H16X20170   4.908   2.600   4.610 -0.3653 -0.7956 -0.9319
  177SLPC  H16Y20171   4.786   2.652   4.719  0.1103 -0.2260 -0.5573
  177SLPC  C31720172   4.750   2.457   4.642 -0.4413 -0.6779  0.0575
  177SLPC  H17X20173   4.673   2.428   4.716 -0.2198 -2.0028 -0.2068
  177SLPC  H17Y20174   4.815   2.369   4.619  1.0713  0.4435 -0.1360
  177SLPC  C31820175   4.682   2.491   4.514  0.0993  0.0791 -0.0425
  177SLPC  H18X20176   4.618   2.579   4.537 -1.8845 -1.3326  0.0761
  177SLPC  H18Y20177   4.620   2.409   4.471  0.3300 -0.4181  0.5552
  177SLPC  H18Z20178   4.757   2.504   4.433 -0.5135 -6.0295 -2.1390
  178SLPC     N20179   0.747   1.798   7.700  0.6855 -0.1501 -0.1049
  178SLPC   C1320180   0.639   1.695   7.676 -0.6245 -0.5967  0.4821
  178SLPC  H13A20181   0.629   1.675   7.570  2.6090  0.2333 -0.0717
  178SLPC  H13B20182   0.680   1.606   7.719  2.8967  0.4569 -0.4025
  178SLPC  H13C20183   0.547   1.733   7.718 -0.1605  1.8115 -0.4912
  178SLPC   C1420184   0.875   1.743   7.653  0.3885  0.0786 -0.3561
  178SLPC  H14A20185   0.903   1.652   7.703  1.0143 -0.5291 -1.7448
  178SLPC  H14B20186   0.877   1.725   7.546 -1.1011  0.7722 -0.5349
  178SLPC  H14C20187   0.959   1.809   7.669 -0.0909  1.0215 -1.5537
  178SLPC   C1520188   0.752   1.819   7.849 -0.3074  0.0591 -0.2188
  178SLPC  H15A20189   0.819   1.900   7.869  2.0982 -1.3234 -2.1122
  178SLPC  H15B20190   0.660   1.816   7.905  0.5221  0.0172  1.1662
  178SLPC  H15C20191   0.798   1.729   7.888 -1.0769 -0.9270 -1.4962
  178SLPC   C1220192   0.709   1.926   7.626  0.0962 -0.1565 -0.2695
  178SLPC  H12A20193   0.698   1.919   7.519 -1.5588  2.0335 -0.3062
  178SLPC  H12B20194   0.794   1.993   7.638 -0.9181  0.9747  0.9452
  178SLPC   C1120195   0.578   1.994   7.679 -0.5780 -0.8135 -0.6840
  178SLPC  H11A20196   0.565   2.096   7.636 -2.9371 -0.6732  0.2165
  178SLPC  H11B20197   0.567   2.000   7.789  1.7901 -0.8315 -0.3834
  178SLPC     P20198   0.374   1.926   7.519 -0.5155  0.0588  0.0374
  178SLPC   O1320199   0.317   1.787   7.488 -0.3675 -0.1431  0.0252
  178SLPC   O1420200   0.277   2.032   7.545 -0.0836  0.4870  0.6176
  178SLPC   O1220201   0.463   1.918   7.642 -0.3284 -0.2420  0.1231
  178SLPC   O1120202   0.488   1.974   7.408  0.2156  0.7127 -0.0967
  178SLPC    C120203   0.441   2.072   7.315 -0.0593 -0.0694 -0.0432
  178SLPC    HA20204   0.354   2.126   7.357 -0.1163 -0.6361  0.5763
  178SLPC    HB20205   0.531   2.138   7.308  1.4992 -1.8464  2.0479
  178SLPC    C220206   0.412   2.009   7.173  1.1973 -0.2826  0.3919
  178SLPC    HS20207   0.340   1.927   7.192  0.8318  0.0900  0.6616
  178SLPC   O2120208   0.532   1.955   7.114 -0.3140  0.2279  0.2920
  178SLPC   C2120209   0.507   1.840   7.052 -0.2417 -0.1764  0.3126
  178SLPC   O2220210   0.398   1.781   7.038 -0.4257  0.1675 -0.4664
  178SLPC   C2220211   0.640   1.798   6.984  0.3470  0.5186  0.4625
  178SLPC   H2R20212   0.690   1.891   6.950  0.1805  0.4170 -0.0664
  178SLPC   H2S20213   0.704   1.766   7.070  2.1367 -0.8024 -1.2524
  178SLPC    C320214   0.342   2.116   7.082 -0.6057  0.3197 -0.3557
  178SLPC    HX20215   0.426   2.185   7.061  0.6479 -1.3066 -0.8802
  178SLPC    HY20216   0.271   2.168   7.150  0.9571 -1.8757  3.2711
  178SLPC   O3120217   0.284   2.058   6.963  0.3766 -0.0512  0.0364
  178SLPC   C3120218   0.266   2.158   6.867 -0.1994 -0.6424 -0.1014
  178SLPC   O3220219   0.267   2.280   6.891 -0.0272  0.1186 -0.2727
  178SLPC   C3220220   0.228   2.083   6.744  0.2861 -0.0821 -0.2184
  178SLPC   H2X20221   0.238   2.153   6.657  2.1494 -1.8284 -1.5059
  178SLPC   H2Y20222   0.121   2.054   6.749  0.2556  0.1864  1.1464
  178SLPC   C2320223   0.634   1.696   6.863  0.1353 -0.3694 -0.3958
  178SLPC   H3R20224   0.563   1.740   6.790 -0.6747 -0.4721  0.3243
  178SLPC   H3S20225   0.590   1.598   6.892  1.1787 -0.4206  1.1110
  178SLPC   C2420226   0.767   1.685   6.779  1.2524 -0.0494 -0.3650
  178SLPC   H4R20227   0.844   1.620   6.825 -0.9891 -0.7631  2.6716
  178SLPC   H4S20228   0.812   1.787   6.780  0.2538  0.4246  1.8175
  178SLPC   C2520229   0.749   1.629   6.639 -0.4241 -0.4366  0.0654
  178SLPC   H5R20230   0.846   1.615   6.588  0.7210  0.7619  1.8444
  178SLPC   H5S20231   0.693   1.699   6.573 -2.2164 -1.1732  0.7362
  178SLPC   C2620232   0.679   1.490   6.616 -0.0793  0.0785  0.0174
  178SLPC   H6R20233   0.690   1.467   6.507  0.3622 -0.1146  0.1011
  178SLPC   H6S20234   0.569   1.499   6.629 -0.0834 -0.8260  0.6742
  178SLPC   C2720235   0.742   1.371   6.695 -0.4966 -0.0417 -0.1310
  178SLPC   H7R20236   0.692   1.272   6.688 -0.1839 -0.2265  0.1790
  178SLPC   H7S20237   0.745   1.390   6.804 -0.0023 -0.4788 -0.0608
  178SLPC   C2820238   0.897   1.360   6.666  0.8050 -0.1548 -0.5882
  178SLPC   H8R20239   0.943   1.447   6.717 -0.3971  0.3562 -0.3532
  178SLPC   H8S20240   0.921   1.382   6.560 -1.0676  1.4302 -0.7282
  178SLPC   C2920241   0.927   1.223   6.725 -0.3018 -0.1816  0.0923
  178SLPC   H9R20242   0.938   1.209   6.833 -0.7493 -1.1121  0.0242
  178SLPC  C21020243   0.937   1.115   6.643 -0.1859 -0.3318 -0.4804
  178SLPC  H10R20244   0.969   1.020   6.688  1.4767  1.1073  1.5454
  178SLPC  C21120245   0.922   1.119   6.490  0.4604  0.8821 -0.3411
  178SLPC  H11R20246   0.998   1.191   6.452  1.7849 -1.7293 -3.1110
  178SLPC  H11S20247   0.820   1.161   6.479 -1.1579 -2.1477  1.6650
  178SLPC  C21220248   0.946   0.982   6.429  0.0027 -0.0933  0.2529
  178SLPC  H12R20249   1.011   0.909   6.478  1.7321  0.7104 -0.7397
  178SLPC  C21320250   0.903   0.943   6.305 -0.0139  0.2959 -0.2970
  178SLPC  H13R20251   0.917   0.844   6.259 -0.2509  0.2484 -0.2699
  178SLPC  C21420252   0.827   1.031   6.209  0.4062 -0.2100 -0.5453
  178SLPC  H14R20253   0.871   1.133   6.203 -0.5696  0.2380 -0.3055
  178SLPC  H14S20254   0.723   1.042   6.247  0.0338 -0.1313 -1.5453
  178SLPC  C21520255   0.836   0.973   6.063  0.2889 -0.0804  1.0525
  178SLPC  H15R20256   0.781   0.876   6.063 -2.4092  1.3231 -1.0573
  178SLPC  H15S20257   0.937   0.958   6.019 -0.8427 -1.5340 -1.2313
  178SLPC  C21620258   0.771   1.076   5.965 -0.2624  0.6904 -0.0597
  178SLPC  H16R20259   0.850   1.147   5.933 -2.0555  2.4093 -0.8914
  178SLPC  H16S20260   0.684   1.123   6.016 -0.6553 -0.0572 -0.0304
  178SLPC  C21720261   0.714   0.992   5.849 -0.6221 -0.7096 -0.0342
  178SLPC  H17R20262   0.634   0.922   5.883  0.1227 -1.0403  1.0846
  178SLPC  H17S20263   0.802   0.935   5.812 -0.0981  0.4331 -0.6065
  178SLPC  C21820264   0.651   1.081   5.740 -0.1780  0.3836  0.0396
  178SLPC  H18R20265   0.737   1.132   5.691  0.5307  0.9343  1.7691
  178SLPC  H18S20266   0.587   1.161   5.780  0.2707  1.3464 -1.1198
  178SLPC  H18T20267   0.596   1.024   5.663  2.6347 -2.3140 -0.1822
  178SLPC   C3320268   0.315   1.961   6.716 -0.7476  0.1494 -0.2971
  178SLPC   H3X20269   0.326   1.893   6.803  1.9718 -1.1373 -1.4961
  178SLPC   H3Y20270   0.418   2.003   6.708 -0.4517 -0.1626  1.4660
  178SLPC   C3420271   0.278   1.882   6.590 -0.1489 -0.4586 -0.0448
  178SLPC   H4X20272   0.253   1.960   6.515 -1.1185 -1.5695 -0.9288
  178SLPC   H4Y20273   0.188   1.817   6.591 -0.4840 -0.0194 -0.7408
  178SLPC   C3520274   0.390   1.795   6.522  0.0430  0.8697 -0.9049
  178SLPC   H5X20275   0.409   1.707   6.586 -0.6522  0.4310 -1.2926
  178SLPC   H5Y20276   0.486   1.850   6.525  0.2169  0.6124 -1.5645
  178SLPC   C3620277   0.360   1.748   6.385 -0.3796  0.6102  0.4713
  178SLPC   H6X20278   0.356   1.840   6.323 -0.6926  0.7435  0.6841
  178SLPC   H6Y20279   0.258   1.705   6.371 -1.3294  2.9019 -0.1759
  178SLPC   C3720280   0.456   1.640   6.330  0.2990 -0.3809  0.4300
  178SLPC   H7X20281   0.455   1.548   6.392 -1.0537 -0.3415  0.4972
  178SLPC   H7Y20282   0.561   1.676   6.336 -0.0283  0.4641  1.1859
  178SLPC   C3820283   0.429   1.610   6.184 -0.2032  0.4763 -0.2520
  178SLPC   H8X20284   0.508   1.545   6.142 -0.4955 -0.1213  0.1057
  178SLPC   H8Y20285   0.416   1.705   6.128  0.4617  1.0490  0.5409
  178SLPC   C3920286   0.294   1.543   6.159 -0.3312  0.3700  0.5109
  178SLPC   H9X20287   0.213   1.605   6.205 -2.0430 -0.8607 -0.6948
  178SLPC   H9Y20288   0.300   1.442   6.204 -0.0672 -0.5003 -1.3696
  178SLPC  C31020289   0.262   1.516   6.012  0.3848  0.4263  0.1225
  178SLPC  H10X20290   0.282   1.610   5.955  2.7890 -0.1454 -0.0853
  178SLPC  H10Y20291   0.152   1.500   6.005  0.4990 -0.3407 -0.0121
  178SLPC  C31120292   0.341   1.404   5.937  0.1959  0.0689 -0.0633
  178SLPC  H11X20293   0.289   1.309   5.962 -0.6162  0.6045  0.3542
  178SLPC  H11Y20294   0.438   1.387   5.988 -0.2557 -1.1763  0.4251
  178SLPC  C31220295   0.348   1.415   5.794 -0.3904  0.6220 -0.3616
  178SLPC  H12X20296   0.429   1.345   5.764 -1.9077 -1.6578  0.5711
  178SLPC  H12Y20297   0.383   1.515   5.759  2.6090  0.3277  1.4570
  178SLPC  C31320298   0.219   1.384   5.719 -0.2531  0.1106  0.5888
  178SLPC  H13X20299   0.141   1.458   5.747  0.9942  1.5529  0.3858
  178SLPC  H13Y20300   0.182   1.286   5.757  0.7356  0.1663  1.7514
  178SLPC  C31420301   0.231   1.371   5.568  0.1150 -0.3047  0.2452
  178SLPC  H14X20302   0.133   1.345   5.525  0.5062 -1.4833  0.0376
  178SLPC  H14Y20303   0.297   1.288   5.537  0.9251  0.0027  1.0804
  178SLPC  C31520304   0.263   1.508   5.504  0.6287 -0.0035 -0.5868
  178SLPC  H15X20305   0.365   1.537   5.537  0.5956  3.1469 -2.8011
  178SLPC  H15Y20306   0.197   1.588   5.544  1.1219 -0.0039  0.2642
  178SLPC  C31620307   0.248   1.512   5.348  0.4546  0.3307 -0.3538
  178SLPC  H16X20308   0.139   1.505   5.327  0.2438 -1.6290  1.0754
  178SLPC  H16Y20309   0.297   1.417   5.317  1.2811 -0.1806  2.2212
  178SLPC  C31720310   0.314   1.631   5.288 -0.3036 -0.5278  0.9783
  178SLPC  H17X20311   0.423   1.644   5.306  0.0195  1.7163 -1.8610
  178SLPC  H17Y20312   0.278   1.722   5.341  2.1223  0.4935  1.0050
  178SLPC  C31820313   0.297   1.638   5.135  0.6454 -0.1858 -0.3981
  178SLPC  H18X20314   0.293   1.537   5.089 -0.7732 -0.3257 -0.0092
  178SLPC  H18Y20315   0.385   1.685   5.085  0.2810  0.9878  0.0142
  178SLPC  H18Z20316   0.209   1.703   5.115  1.7464  1.2330 -0.7682
  179SLPC     N20317   2.512   3.375   2.209  0.6480 -0.9120 -0.0513
  179SLPC   C1320318   2.420   3.493   2.211  0.2151  0.9733 -0.8278
  179SLPC  H13A20319   2.342   3.459   2.277 -0.3968  1.2308 -1.4023
  179SLPC  H13B20320   2.461   3.577   2.266 -0.9337  0.5110  0.7942
  179SLPC  H13C20321   2.383   3.523   2.114 -0.9731 -0.9249 -0.9961
  179SLPC   C1420322   2.653   3.428   2.205 -0.0452  0.0357  0.0102
  179SLPC  H14A20323   2.666   3.503   2.129  0.3972  0.0839  0.1299
  179SLPC  H14B20324   2.678   3.476   2.298 -1.7203 -3.7341  2.6816
  179SLPC  H14C20325   2.732   3.355   2.190  0.0809  0.3559 -0.9739
  179SLPC   C1520326   2.490   3.299   2.082 -0.1218 -0.6165 -0.7744
  179SLPC  H15A20327   2.474   3.377   2.009  2.4764 -0.0119 -0.7795
  179SLPC  H15B20328   2.573   3.238   2.051  0.8636 -0.1799  0.8250
  179SLPC  H15C20329   2.403   3.236   2.078 -0.5817 -0.0191 -0.4755
  179SLPC   C1220330   2.490   3.281   2.323 -0.4211 -0.1865 -0.7003
  179SLPC  H12A20331   2.535   3.327   2.409 -1.2746 -3.1762  1.5074
  179SLPC  H12B20332   2.556   3.197   2.308 -0.4165 -0.3143  0.0058
  179SLPC   C1120333   2.343   3.231   2.339 -0.5331 -0.4429 -0.1687
  179SLPC  H11A20334   2.273   3.316   2.325 -2.1183 -1.5319  0.8030
  179SLPC  H11B20335   2.316   3.208   2.445  2.4944  1.4761  1.1589
  179SLPC     P20336   2.359   2.976   2.251  0.0822 -0.5225  0.2256
  179SLPC   O1320337   2.284   2.910   2.147  0.9497 -0.4620  0.1202
  179SLPC   O1420338   2.506   2.989   2.234 -0.2564  0.4755 -0.1779
  179SLPC   O1220339   2.304   3.124   2.251 -0.3054  0.4473 -0.0410
  179SLPC   O1120340   2.327   2.921   2.392 -0.4146  0.5709  0.2370
  179SLPC    C120341   2.189   2.896   2.432 -0.6870 -0.0195  0.0374
  179SLPC    HA20342   2.132   2.988   2.405 -0.4598 -0.0329 -0.4994
  179SLPC    HB20343   2.138   2.820   2.369  1.7444  0.0090 -2.1405
  179SLPC    C220344   2.182   2.876   2.592  0.7907  0.3284 -0.2706
  179SLPC    HS20345   2.075   2.896   2.618  1.1913  0.2105  1.6301
  179SLPC   O2120346   2.263   2.965   2.669 -0.6122 -0.3077  0.5274
  179SLPC   C2120347   2.223   3.095   2.672  0.5701  0.5036 -0.2537
  179SLPC   O2220348   2.109   3.132   2.654 -0.4141 -0.1580  0.3473
  179SLPC   C2220349   2.339   3.182   2.721 -0.3114  0.4689  0.0119
  179SLPC   H2R20350   2.438   3.135   2.706  0.4669  2.1747 -0.5291
  179SLPC   H2S20351   2.338   3.281   2.670 -2.5482  1.7033  2.2572
  179SLPC    C320352   2.210   2.730   2.630 -0.2888 -0.2487  0.0356
  179SLPC    HX20353   2.318   2.707   2.613  0.1797  0.0277  2.2235
  179SLPC    HY20354   2.147   2.666   2.566  1.1608  0.7748 -2.5910
  179SLPC   O3120355   2.190   2.705   2.770  0.3887 -0.4538  0.8482
  179SLPC   C3120356   2.289   2.729   2.853  0.5567 -0.2702  0.6667
  179SLPC   O3220357   2.398   2.778   2.826  0.2824  0.3374  0.1449
  179SLPC   C3220358   2.240   2.697   2.997 -0.2941 -0.4206  0.6105
  179SLPC   H2X20359   2.198   2.594   2.994 -0.7632 -0.2234 -0.4357
  179SLPC   H2Y20360   2.155   2.766   3.017 -0.8926 -0.3018 -1.9767
  179SLPC   C2320361   2.344   3.227   2.873  0.2718 -0.0881 -0.2077
  179SLPC   H3R20362   2.253   3.275   2.914  1.8594  1.4333  1.7705
  179SLPC   H3S20363   2.431   3.295   2.883  0.2972 -0.0018 -0.9872
  179SLPC   C2420364   2.362   3.113   2.974  0.4631 -0.4477 -0.8615
  179SLPC   H4R20365   2.435   3.033   2.950 -0.1443 -1.3670  0.2659
  179SLPC   H4S20366   2.267   3.056   2.983  0.0402  0.4801  1.4343
  179SLPC   C2520367   2.398   3.163   3.118 -0.5802 -0.4038 -0.2881
  179SLPC   H5R20368   2.304   3.207   3.158 -0.3381  1.9681 -2.0799
  179SLPC   H5S20369   2.474   3.244   3.115 -0.7544 -0.0835  2.0370
  179SLPC   C2620370   2.452   3.052   3.209  0.5283 -0.4675  0.5602
  179SLPC   H6R20371   2.547   3.011   3.169  0.3340  0.4246 -0.8783
  179SLPC   H6S20372   2.374   2.974   3.223  0.3847 -0.1586  1.5669
  179SLPC   C2720373   2.474   3.105   3.355  0.0554  0.0842  0.5012
  179SLPC   H7R20374   2.383   3.155   3.396 -0.7710 -0.8225 -0.1657
  179SLPC   H7S20375   2.546   3.187   3.336 -0.7641  0.7603  0.2009
  179SLPC   C2820376   2.506   2.992   3.454 -0.2031 -0.5932  0.5774
  179SLPC   H8R20377   2.432   2.912   3.432 -0.2181  0.1521 -2.5053
  179SLPC   H8S20378   2.498   3.038   3.554 -0.7944 -1.2507  0.8334
  179SLPC   C2920379   2.644   2.935   3.429  0.6878 -0.3910 -1.0237
  179SLPC   H9R20380   2.675   2.949   3.324  1.6501 -0.9154 -0.8250
  179SLPC  C21020381   2.720   2.868   3.519 -0.0325  0.1397 -0.9897
  179SLPC  H10R20382   2.820   2.834   3.487  0.6058 -0.2130  1.2191
  179SLPC  C21120383   2.687   2.828   3.657  0.3950  0.5901 -0.2032
  179SLPC  H11R20384   2.630   2.902   3.716  1.1271 -0.4952  1.9563
  179SLPC  H11S20385   2.786   2.820   3.705  0.5500  1.7158 -0.3161
  179SLPC  C21220386   2.614   2.701   3.679 -0.2734  0.1916  0.7226
  179SLPC  H12R20387   2.578   2.650   3.588  0.3472  0.0990  0.5274
  179SLPC  C21320388   2.591   2.645   3.799  0.3019 -0.5750  0.2959
  179SLPC  H13R20389   2.548   2.544   3.790 -0.4421 -0.4361  1.9523
  179SLPC  C21420390   2.625   2.678   3.938 -0.2839 -0.3557 -0.3376
  179SLPC  H14R20391   2.552   2.641   4.012 -1.2431 -0.0018 -1.0940
  179SLPC  H14S20392   2.641   2.787   3.953  0.4718 -0.2385 -1.8140
  179SLPC  C21520393   2.769   2.615   3.971  0.6034 -0.2874 -0.0580
  179SLPC  H15R20394   2.839   2.660   3.898  0.0100  0.4857 -0.1631
  179SLPC  H15S20395   2.759   2.509   3.939  1.5112 -0.1702 -0.7632
  179SLPC  C21620396   2.809   2.626   4.112 -0.2198  0.5133 -0.8472
  179SLPC  H16R20397   2.733   2.571   4.170  1.7554 -2.1424 -0.5878
  179SLPC  H16S20398   2.800   2.733   4.139 -2.4956  0.6520 -1.9167
  179SLPC  C21720399   2.943   2.551   4.134 -0.1238 -0.0236 -0.2358
  179SLPC  H17R20400   2.916   2.445   4.114  0.6386 -0.1106 -0.8351
  179SLPC  H17S20401   2.969   2.558   4.241  0.8750 -1.3133 -0.3651
  179SLPC  C21820402   3.058   2.583   4.052  0.1331  0.4904  0.1448
  179SLPC  H18R20403   3.147   2.527   4.087  1.0058  0.8441 -1.4222
  179SLPC  H18S20404   3.081   2.691   4.040 -3.2867  1.6537  2.3846
  179SLPC  H18T20405   3.042   2.544   3.949 -0.6181  0.5805  0.2162
  179SLPC   C3320406   2.346   2.704   3.104 -0.0353 -0.1014 -1.0261
  179SLPC   H3X20407   2.306   2.745   3.199 -0.0189 -1.0702 -0.5954
  179SLPC   H3Y20408   2.436   2.767   3.083  1.7082 -1.6177  1.3538
  179SLPC   C3420409   2.401   2.562   3.122  0.5493  0.0776 -0.7945
  179SLPC   H4X20410   2.443   2.513   3.032  0.1000 -1.0503 -0.4156
  179SLPC   H4Y20411   2.307   2.506   3.144  0.9948 -0.6621 -0.7640
  179SLPC   C3520412   2.495   2.549   3.240 -0.1752 -0.4793 -1.1275
  179SLPC   H5X20413   2.586   2.608   3.220  0.7533 -1.6379 -0.4633
  179SLPC   H5Y20414   2.458   2.594   3.334  1.7055 -0.5522 -0.3146
  179SLPC   C3620415   2.555   2.410   3.265  0.4148 -0.1207 -0.5189
  179SLPC   H6X20416   2.637   2.407   3.340 -0.9132 -0.8313  0.9779
  179SLPC   H6Y20417   2.599   2.364   3.174 -0.4575 -0.8296 -0.6064
  179SLPC   C3720418   2.446   2.304   3.313 -0.4412  0.6523  0.0597
  179SLPC   H7X20419   2.359   2.304   3.244 -3.6728  0.5553  3.7478
  179SLPC   H7Y20420   2.407   2.341   3.411 -3.9593 -2.7896  0.2186
  179SLPC   C3820421   2.493   2.165   3.342  1.0272  0.2607 -0.3294
  179SLPC   H8X20422   2.506   2.105   3.249  0.0750 -0.1660 -0.1940
  179SLPC   H8Y20423   2.419   2.109   3.403  0.8889  1.5559  0.7472
  179SLPC   C3920424   2.618   2.166   3.435  0.5750 -0.1440  0.4267
  179SLPC   H9X20425   2.598   2.243   3.514 -0.1438  1.5412 -1.3186
  179SLPC   H9Y20426   2.710   2.196   3.382 -0.0966  1.7053  0.2207
  179SLPC  C31020427   2.635   2.038   3.513 -0.1904 -0.0314 -0.1319
  179SLPC  H10X20428   2.637   1.957   3.438  1.1017  0.8510 -1.1026
  179SLPC  H10Y20429   2.550   2.012   3.579  0.6194 -1.0211  0.5355
  179SLPC  C31120430   2.758   2.039   3.596  0.2011  0.3481  0.5249
  179SLPC  H11X20431   2.762   2.141   3.641  2.8454  1.0817 -1.1675
  179SLPC  H11Y20432   2.852   2.024   3.540 -1.3494 -0.3054 -2.0821
  179SLPC  C31220433   2.755   1.937   3.704  0.0996 -0.1330  0.3109
  179SLPC  H12X20434   2.789   1.840   3.660  2.4272  0.7632  0.0041
  179SLPC  H12Y20435   2.654   1.932   3.749  0.8867  2.6264  2.6915
  179SLPC  C31320436   2.856   1.954   3.815 -0.7243  0.3853 -0.3485
  179SLPC  H13X20437   2.917   2.046   3.801 -0.4906  0.3385  0.3227
  179SLPC  H13Y20438   2.922   1.865   3.819 -0.8571  0.2494 -1.1304
  179SLPC  C31420439   2.798   1.972   3.958 -0.5452 -0.6440 -1.0783
  179SLPC  H14X20440   2.874   1.977   4.038 -2.7726 -1.5241  1.2103
  179SLPC  H14Y20441   2.729   1.894   3.996 -1.9618  1.3823  0.7115
  179SLPC  C31520442   2.741   2.119   3.973 -0.0603 -0.1767 -0.6155
  179SLPC  H15X20443   2.684   2.148   3.882  0.5269 -1.7821 -1.5377
  179SLPC  H15Y20444   2.833   2.181   3.978  0.7160 -1.2668 -1.0544
  179SLPC  C31620445   2.672   2.144   4.113 -0.0442 -0.1904 -0.1497
  179SLPC  H16X20446   2.737   2.115   4.198  0.5068 -1.2199 -0.9035
  179SLPC  H16Y20447   2.583   2.080   4.130  0.4009 -0.9729 -0.7386
  179SLPC  C31720448   2.642   2.297   4.130  0.0675  0.2241  0.1335
  179SLPC  H17X20449   2.589   2.331   4.038  0.9369  3.0504  0.5698
  179SLPC  H17Y20450   2.737   2.353   4.113  1.4216 -1.4082  1.9420
  179SLPC  C31820451   2.567   2.346   4.257 -0.4735  0.3765 -0.0069
  179SLPC  H18X20452   2.621   2.302   4.343  1.4132 -0.0512 -1.3446
  179SLPC  H18Y20453   2.461   2.314   4.251 -0.4460  0.5246 -2.1483
  179SLPC  H18Z20454   2.568   2.457   4.265 -1.2164  0.4161 -0.3977
  180SLPC     N20455   5.536   2.476   2.629  0.1728  0.1126  0.4727
  180SLPC   C1320456   5.412   2.499   2.549 -0.2663 -0.5072  0.3110
  180SLPC  H13A20457   5.361   2.591   2.575 -1.9730 -1.4176  0.3039
  180SLPC  H13B20458   5.429   2.502   2.442  3.4148  1.4016  0.7965
  180SLPC  H13C20459   5.348   2.416   2.574  1.6325 -1.2285  3.1624
  180SLPC   C1420460   5.601   2.353   2.576  0.2693 -0.3060 -1.0447
  180SLPC  H14A20461   5.527   2.278   2.600  1.6537 -0.6389  3.1249
  180SLPC  H14B20462   5.615   2.356   2.469 -0.0985  0.3993 -1.0812
  180SLPC  H14C20463   5.683   2.319   2.638 -0.6683  0.8319  0.9253
  180SLPC   C1520464   5.484   2.438   2.762  0.4415  0.2843  0.3492
  180SLPC  H15A20465   5.437   2.523   2.811 -3.1438 -1.8968  1.0192
  180SLPC  H15B20466   5.411   2.360   2.750  0.8930 -0.5598  2.5023
  180SLPC  H15C20467   5.555   2.397   2.833  0.1513 -3.3886 -1.2963
  180SLPC   C1220468   5.626   2.592   2.624 -0.5200 -0.9659 -0.2312
  180SLPC  H12A20469   5.577   2.680   2.665  0.0302  0.0222 -1.6239
  180SLPC  H12B20470   5.643   2.624   2.522 -1.6238  0.3721 -0.0414
  180SLPC   C1120471   5.751   2.592   2.713  0.0786  0.0308 -0.0982
  180SLPC  H11A20472   5.828   2.516   2.688  0.4835 -0.5852  2.6782
  180SLPC  H11B20473   5.717   2.580   2.818  0.2651  2.7677  0.3677
  180SLPC     P20474   5.774   2.843   2.782  0.1794  0.1306 -0.0989
  180SLPC   O1320475   5.845   2.959   2.727 -0.3239 -0.1024  0.8237
  180SLPC   O1420476   5.625   2.843   2.778 -0.3813 -0.1816 -0.4689
  180SLPC   O1220477   5.818   2.720   2.705 -0.6990  0.0749  0.3142
  180SLPC   O1120478   5.817   2.821   2.936  0.8388  0.3059 -0.0464
  180SLPC    C120479   5.934   2.749   2.967 -0.0490  0.0294 -0.1268
  180SLPC    HA20480   5.973   2.684   2.887 -0.5636 -2.2153  1.3530
  180SLPC    HB20481   6.012   2.824   2.993  0.4228 -0.7353  0.7299
  180SLPC    C220482   5.918   2.655   3.084  0.0009 -0.0785 -0.6132
  180SLPC    HS20483   5.839   2.584   3.052 -0.2844  0.2476 -0.6375
  180SLPC   O2120484   5.882   2.730   3.202 -0.2028 -0.1024 -0.1363
  180SLPC   C2120485   5.784   2.675   3.277 -1.0304  0.3848  0.4466
  180SLPC   O2220486   5.735   2.563   3.267 -0.3880 -0.1483  0.0091
  180SLPC   C2220487   5.757   2.786   3.385  0.0252  0.6182 -0.4633
  180SLPC   H2R20488   5.858   2.803   3.427  0.4920  0.5941 -1.5348
  180SLPC   H2S20489   5.736   2.879   3.327  1.3170  0.1715 -1.7146
  180SLPC    C320490   6.053   2.582   3.100  0.0611 -0.1356  0.1463
  180SLPC    HX20491   6.122   2.665   3.126 -3.7207  3.1049  0.7713
  180SLPC    HY20492   6.102   2.551   3.005  0.5052  1.3197 -0.1140
  180SLPC   O3120493   6.061   2.485   3.208 -0.2373  0.9703  0.7050
  180SLPC   C3120494   5.989   2.379   3.178 -0.5661 -0.3008  0.3402
  180SLPC   O3220495   5.945   2.352   3.064  0.4000  0.0927 -0.9090
  180SLPC   C3220496   5.985   2.281   3.300  1.3644 -0.2127  0.9300
  180SLPC   H2X20497   6.021   2.334   3.390  2.1683  1.3203 -0.2524
  180SLPC   H2Y20498   6.047   2.195   3.269  1.3957  0.3985 -0.8147
  180SLPC   C2320499   5.658   2.744   3.493 -0.0735 -0.6968 -0.2284
  180SLPC   H3R20500   5.560   2.726   3.445 -1.2283 -1.1455  2.1445
  180SLPC   H3S20501   5.645   2.834   3.557  1.9726 -0.6978  0.2640
  180SLPC   C2420502   5.694   2.614   3.581 -0.2018 -0.3887  0.0576
  180SLPC   H4R20503   5.681   2.524   3.516 -2.0214  1.1190 -1.7982
  180SLPC   H4S20504   5.628   2.618   3.670  1.8817 -0.0412  1.6694
  180SLPC   C2520505   5.841   2.603   3.632  0.5245 -0.3460  0.2672
  180SLPC   H5R20506   5.901   2.623   3.541 -1.6553  0.7888 -0.9974
  180SLPC   H5S20507   5.859   2.496   3.657  0.7177 -0.4830 -0.4504
  180SLPC   C2620508   5.878   2.695   3.744  0.3744 -0.4095  0.2114
  180SLPC   H6R20509   5.816   2.679   3.835 -0.5970  2.5201  0.1747
  180SLPC   H6S20510   5.867   2.800   3.708 -0.2205 -0.0561  1.3748
  180SLPC   C2720511   6.032   2.690   3.785 -0.0220  0.2600  0.6778
  180SLPC   H7R20512   6.049   2.786   3.836  1.2437  1.2024 -1.3845
  180SLPC   H7S20513   6.097   2.686   3.695  1.3105  1.4113  1.5739
  180SLPC   C2820514   6.048   2.583   3.895  0.4964  0.4171 -0.7075
  180SLPC   H8R20515   6.034   2.477   3.865  3.8094 -0.5829  0.7964
  180SLPC   H8S20516   5.971   2.604   3.973  2.0225  0.4640  0.8413
  180SLPC   C2920517   6.190   2.590   3.938 -0.3729  0.2834 -0.5950
  180SLPC   H9R20518   6.273   2.599   3.866  1.8314  0.1516  1.7436
  180SLPC  C21020519   6.225   2.589   4.067  0.6630 -0.4582  0.2877
  180SLPC  H10R20520   6.327   2.615   4.099 -0.3451  1.4455  2.1813
  180SLPC  C21120521   6.131   2.571   4.185 -0.0081  0.0722 -0.4960
  180SLPC  H11R20522   6.068   2.486   4.150 -1.2154  0.4641  0.6625
  180SLPC  H11S20523   6.066   2.660   4.196  2.5465  1.8193  1.7792
  180SLPC  C21220524   6.214   2.527   4.302  0.8137  0.8919 -0.2739
  180SLPC  H12R20525   6.247   2.422   4.300  1.9085  1.1251  1.7522
  180SLPC  C21320526   6.234   2.592   4.419  0.7233  0.4983  0.0605
  180SLPC  H13R20527   6.293   2.542   4.498  0.7669 -0.5640 -0.6201
  180SLPC  C21420528   6.202   2.734   4.458 -0.3372  0.5809 -0.0057
  180SLPC  H14R20529   6.180   2.789   4.365 -1.8433  1.6870  0.9569
  180SLPC  H14S20530   6.299   2.765   4.501 -1.0712  2.0374  0.6747
  180SLPC  C21520531   6.097   2.753   4.571  0.0734 -0.3461 -0.3588
  180SLPC  H15R20532   6.090   2.862   4.589 -4.2828 -0.2887 -1.1656
  180SLPC  H15S20533   6.115   2.703   4.669 -1.3874  1.2303  0.7665
  180SLPC  C21620534   5.949   2.720   4.538 -0.6435  0.4285  0.7001
  180SLPC  H16R20535   5.941   2.611   4.556 -0.0777  0.2045 -0.2934
  180SLPC  H16S20536   5.941   2.729   4.427 -0.3672 -0.4574  0.6021
  180SLPC  C21720537   5.832   2.796   4.603 -0.2119 -0.1900 -0.0999
  180SLPC  H17R20538   5.821   2.773   4.711 -2.4763  0.0860 -0.2084
  180SLPC  H17S20539   5.734   2.774   4.555 -0.7470  1.1196  0.3410
  180SLPC  C21820540   5.838   2.948   4.584  0.3162  0.7406  0.5807
  180SLPC  H18R20541   5.819   2.973   4.478  0.4134  0.9331  0.6092
  180SLPC  H18S20542   5.937   2.988   4.615  0.6191  0.9683 -0.6221
  180SLPC  H18T20543   5.765   2.998   4.652  1.6860  0.5301  2.2881
  180SLPC   C3320544   5.838   2.242   3.336 -0.1119  0.1329 -0.8090
  180SLPC   H3X20545   5.806   2.151   3.281  0.6565 -0.3465 -0.4828
  180SLPC   H3Y20546   5.772   2.326   3.305 -0.3865  1.1414  2.1253
  180SLPC   C3420547   5.805   2.220   3.491 -0.3172  0.1836  0.9774
  180SLPC   H4X20548   5.871   2.293   3.542 -1.0595  1.4872  0.1458
  180SLPC   H4Y20549   5.834   2.119   3.527  0.0296  0.2253  0.8185
  180SLPC   C3520550   5.659   2.230   3.521 -0.3164 -0.1922 -0.8767
  180SLPC   H5X20551   5.624   2.155   3.447  1.8107 -0.3275 -1.8387
  180SLPC   H5Y20552   5.632   2.336   3.501 -2.2366 -0.1124  1.6823
  180SLPC   C3620553   5.638   2.189   3.665  0.4667  0.0340 -0.1911
  180SLPC   H6X20554   5.536   2.212   3.701  0.3847  0.3587 -0.6312
  180SLPC   H6Y20555   5.716   2.241   3.725  0.5202 -0.2844  0.0197
  180SLPC   C3720556   5.652   2.037   3.699  0.1559  0.8852  0.3983
  180SLPC   H7X20557   5.760   2.013   3.691  0.7886  3.2383  1.1403
  180SLPC   H7Y20558   5.585   1.985   3.628 -0.0196  1.7270 -0.0573
  180SLPC   C3820559   5.628   1.994   3.840  0.0577 -1.1050 -0.5206
  180SLPC   H8X20560   5.655   1.887   3.859  0.0343 -0.8634  0.9895
  180SLPC   H8Y20561   5.523   2.013   3.868 -0.4489  1.6549 -3.7278
  180SLPC   C3920562   5.716   2.079   3.935  1.0217 -0.5357  0.3537
  180SLPC   H9X20563   5.671   2.180   3.935  1.8047 -0.1665 -0.9681
  180SLPC   H9Y20564   5.820   2.085   3.896  0.3552  2.8502 -1.1621
  180SLPC  C31020565   5.710   2.019   4.077  0.5892  1.0303  0.0065
  180SLPC  H10X20566   5.787   2.075   4.134 -0.0258  0.1007  1.8240
  180SLPC  H10Y20567   5.738   1.912   4.075  0.2746  0.8233  2.8643
  180SLPC  C31120568   5.574   2.040   4.146  0.5720 -0.2539 -0.2933
  180SLPC  H11X20569   5.496   1.980   4.094  0.9383 -0.8820 -0.1329
  180SLPC  H11Y20570   5.549   2.147   4.130 -1.2647 -0.9945 -3.0996
  180SLPC  C31220571   5.598   2.000   4.286 -0.4724  0.6291 -0.1845
  180SLPC  H12X20572   5.697   2.041   4.317  0.8003 -1.6579 -1.0041
  180SLPC  H12Y20573   5.611   1.891   4.271 -3.1531  0.2978 -0.5906
  180SLPC  C31320574   5.487   2.033   4.380 -0.0975  0.1230 -0.3701
  180SLPC  H13X20575   5.500   2.142   4.400  0.9737 -0.2446  1.1468
  180SLPC  H13Y20576   5.490   1.975   4.475 -0.8961  0.9309  0.1758
  180SLPC  C31420577   5.350   2.018   4.321 -0.4916  0.0873  0.1875
  180SLPC  H14X20578   5.327   1.918   4.278  0.1262 -0.7886  1.8086
  180SLPC  H14Y20579   5.335   2.093   4.241 -1.6498  1.2585  1.4501
  180SLPC  C31520580   5.239   2.042   4.429 -0.7425 -0.5596  0.3763
  180SLPC  H15X20581   5.257   2.139   4.480 -1.3919  0.5542 -1.4379
  180SLPC  H15Y20582   5.248   1.967   4.511 -2.6986 -1.0476  0.2005
  180SLPC  C31620583   5.090   2.043   4.374  0.1173 -0.2527  0.2074
  180SLPC  H16X20584   5.014   2.050   4.454  1.6861  0.2789  1.7173
  180SLPC  H16Y20585   5.072   1.950   4.315  0.0211 -0.0544 -0.0796
  180SLPC  C31720586   5.072   2.163   4.284 -0.0933 -0.8159  0.4178
  180SLPC  H17X20587   4.972   2.155   4.235  1.1491  2.0542 -3.0866
  180SLPC  H17Y20588   5.144   2.141   4.203  1.2421 -0.1046  1.3837
  180SLPC  C31820589   5.101   2.314   4.316 -0.6393  0.5772  0.1436
  180SLPC  H18X20590   5.047   2.370   4.237 -0.0641  0.5378 -0.2860
  180SLPC  H18Y20591   5.210   2.334   4.329 -0.7740  0.9840  0.7007
  180SLPC  H18Z20592   5.050   2.352   4.407  1.1839 -0.0024  1.4742
  181SLPC     N20593   6.101   2.229   2.643  0.4129 -0.2669 -0.3233
  181SLPC   C1320594   6.126   2.255   2.780 -0.0384 -0.9152  0.4163
  181SLPC  H13A20595   6.032   2.270   2.831  0.3291 -0.0574  0.8665
  181SLPC  H13B20596   6.195   2.188   2.829 -0.4216  0.4554  2.9796
  181SLPC  H13C20597   6.165   2.355   2.793 -1.3032 -0.3477 -0.0329
  181SLPC   C1420598   6.225   2.248   2.557  0.0562  0.7609  0.0917
  181SLPC  H14A20599   6.205   2.255   2.451 -0.7376 -2.3389 -0.0710
  181SLPC  H14B20600   6.293   2.324   2.593 -0.2047  0.3261  1.5451
  181SLPC  H14C20601   6.295   2.165   2.557  0.4459  1.0845  0.5695
  181SLPC   C1520602   6.005   2.336   2.600 -0.4525 -0.3012  0.3760
  181SLPC  H15A20603   5.918   2.340   2.664 -1.9543 -0.8352 -1.5186
  181SLPC  H15B20604   6.057   2.429   2.582  1.4918 -1.2855  0.6448
  181SLPC  H15C20605   5.974   2.302   2.502 -1.5505  3.2411 -0.6483
  181SLPC   C1220606   6.035   2.094   2.616 -0.2658  0.3691  0.0007
  181SLPC  H12A20607   6.025   2.092   2.508 -0.4889 -0.0750  0.0291
  181SLPC  H12B20608   5.947   2.082   2.677 -0.0652 -2.1804 -0.0958
  181SLPC   C1120609   6.131   1.971   2.655  0.3015  0.4557  0.0575
  181SLPC  H11A20610   6.167   1.997   2.757 -0.8069  2.2943  0.0274
  181SLPC  H11B20611   6.221   1.963   2.590  1.1214 -2.6294  1.3921
  181SLPC     P20612   5.988   1.801   2.792  0.0301 -0.2088  0.3324
  181SLPC   O1320613   5.883   1.897   2.831  0.2723 -0.1816 -0.4896
  181SLPC   O1420614   5.945   1.658   2.773 -0.2635 -0.0820 -1.1862
  181SLPC   O1220615   6.054   1.849   2.649  0.0377  0.4545 -0.1340
  181SLPC   O1120616   6.101   1.814   2.899  0.2753 -0.2655 -0.0593
  181SLPC    C120617   6.139   1.689   2.966  0.2684 -0.5159 -0.3098
  181SLPC    HA20618   6.128   1.594   2.910  2.2535 -0.6172 -0.5987
  181SLPC    HB20619   6.242   1.706   3.002  0.7767  1.6005 -2.5304
  181SLPC    C220620   6.053   1.674   3.093 -0.8178  0.3510 -0.9045
  181SLPC    HS20621   5.951   1.707   3.065 -0.6190  1.0679 -0.7864
  181SLPC   O2120622   6.104   1.771   3.186 -0.3310  0.4479 -0.3715
  181SLPC   C2120623   6.019   1.808   3.290  0.3614 -0.5714 -0.4931
  181SLPC   O2220624   5.905   1.771   3.301 -0.6277  0.1554 -0.3025
  181SLPC   C2220625   6.080   1.908   3.388  0.2704 -0.7376  0.1061
  181SLPC   H2R20626   6.189   1.898   3.369  0.5783  1.4580  0.5359
  181SLPC   H2S20627   6.045   2.009   3.358 -1.4703 -0.5877  2.3728
  181SLPC    C320628   6.061   1.533   3.154  0.3483 -0.5820  0.6589
  181SLPC    HX20629   6.012   1.465   3.081  1.2283 -0.6260  0.0939
  181SLPC    HY20630   5.993   1.550   3.241 -0.6898  5.2701 -0.8679
  181SLPC   O3120631   6.195   1.488   3.170 -0.3306  0.1940 -0.9848
  181SLPC   C3120632   6.228   1.476   3.297 -0.4459  0.4137 -0.0635
  181SLPC   O3220633   6.156   1.488   3.391 -0.0843  0.2669 -0.0560
  181SLPC   C3220634   6.373   1.432   3.310 -0.1287  0.0284 -0.1224
  181SLPC   H2X20635   6.427   1.435   3.213  0.0266  1.4625 -0.0125
  181SLPC   H2Y20636   6.377   1.327   3.347 -1.7201  0.7153  2.2718
  181SLPC   C2320637   6.025   1.868   3.525 -0.3713 -0.0276  0.0770
  181SLPC   H3R20638   6.008   1.759   3.531  0.6729 -0.1783  0.6277
  181SLPC   H3S20639   5.929   1.921   3.544  0.0747  0.4753  0.9907
  181SLPC   C2420640   6.126   1.895   3.634  0.9024 -0.4072 -0.2939
  181SLPC   H4R20641   6.217   1.833   3.618  1.6848  0.7999 -0.6150
  181SLPC   H4S20642   6.076   1.853   3.724 -1.1547  1.7750 -0.3242
  181SLPC   C2520643   6.158   2.049   3.645  0.0444 -0.3187  0.4089
  181SLPC   H5R20644   6.086   2.104   3.582  0.6503 -1.3384 -1.2437
  181SLPC   H5S20645   6.255   2.064   3.593 -0.4115 -1.9722 -0.9976
  181SLPC   C2620646   6.143   2.099   3.789 -0.1575  0.3074  0.1228
  181SLPC   H6R20647   6.049   2.064   3.836 -0.9928  0.7758 -1.1409
  181SLPC   H6S20648   6.129   2.207   3.768  0.8081  0.4384  0.0785
  181SLPC   C2720649   6.264   2.078   3.878  0.0920 -0.4376 -0.1759
  181SLPC   H7R20650   6.348   2.086   3.807 -0.2764  2.7356 -0.3865
  181SLPC   H7S20651   6.271   1.973   3.914 -0.0497 -0.4412 -0.1559
  181SLPC   C2820652   6.273   2.179   3.991  0.2443 -0.4694 -0.0042
  181SLPC   H8R20653   6.287   2.281   3.948  1.8073 -0.4308  0.5438
  181SLPC   H8S20654   6.368   2.165   4.046 -0.8612  0.7770  2.4047
  181SLPC   C2920655   6.153   2.192   4.077  0.6211 -0.6459 -1.1795
  181SLPC   H9R20656   6.065   2.227   4.021 -1.5090 -0.0850  2.1617
  181SLPC  C21020657   6.146   2.157   4.209  1.0678  0.1066  0.0165
  181SLPC  H10R20658   6.053   2.175   4.264  0.8404  0.1209 -0.3650
  181SLPC  C21120659   6.257   2.101   4.286 -1.0663 -0.1954  0.0485
  181SLPC  H11R20660   6.331   2.179   4.312 -1.7999  0.0943  1.3475
  181SLPC  H11S20661   6.305   2.025   4.219  1.6711  0.7470  0.7854
  181SLPC  C21220662   6.235   2.031   4.417 -0.6035 -0.4549  0.4132
  181SLPC  H12R20663   6.172   1.942   4.404  0.2331 -0.8144 -1.6347
  181SLPC  C21320664   6.288   2.049   4.541 -0.1606  0.2537  0.4151
  181SLPC  H13R20665   6.259   1.974   4.616  1.0375 -0.1978  0.4481
  181SLPC  C21420666   6.369   2.161   4.597  0.0711  0.9786 -0.5522
  181SLPC  H14R20667   6.357   2.262   4.553  0.3479  1.8690  1.3434
  181SLPC  H14S20668   6.479   2.141   4.601 -0.1053  0.1380  1.6472
  181SLPC  C21520669   6.336   2.196   4.746 -0.5854  0.1085  0.6965
  181SLPC  H15R20670   6.359   2.108   4.810 -0.4616  0.0677  0.5941
  181SLPC  H15S20671   6.226   2.211   4.756 -0.8515 -0.4589 -1.0210
  181SLPC  C21620672   6.412   2.319   4.799  0.0635  0.1299 -0.6098
  181SLPC  H16R20673   6.386   2.409   4.739  1.1202  0.0638 -1.1989
  181SLPC  H16S20674   6.522   2.303   4.796  0.0803  0.2947 -1.0760
  181SLPC  C21720675   6.379   2.351   4.942 -0.1987  0.3052 -0.2974
  181SLPC  H17R20676   6.369   2.257   5.000  1.1001  0.2574 -0.1207
  181SLPC  H17S20677   6.280   2.402   4.946 -0.3478  0.1588 -1.6398
  181SLPC  C21820678   6.477   2.449   5.000 -0.5709 -0.1395 -0.1870
  181SLPC  H18R20679   6.440   2.492   5.096 -0.7414 -0.6372 -0.0301
  181SLPC  H18S20680   6.499   2.533   4.931 -1.5079 -0.3251 -0.7306
  181SLPC  H18T20681   6.571   2.400   5.034  0.2043  0.0573 -1.9546
  181SLPC   C3320682   6.446   1.522   3.403  0.1486  0.2344  0.4589
  181SLPC   H3X20683   6.392   1.514   3.500 -2.7357  2.6066 -0.8114
  181SLPC   H3Y20684   6.457   1.630   3.378  0.5300  0.7147  2.4774
  181SLPC   C3420685   6.595   1.469   3.412 -0.5626 -0.5897 -0.5796
  181SLPC   H4X20686   6.654   1.515   3.330 -1.7052 -0.0899 -1.1427
  181SLPC   H4Y20687   6.604   1.358   3.401  0.7795 -1.0094  3.3812
  181SLPC   C3520688   6.654   1.513   3.549 -0.6825 -0.3366  0.3481
  181SLPC   H5X20689   6.641   1.614   3.595 -0.6510 -0.5346  0.8012
  181SLPC   H5Y20690   6.763   1.494   3.560 -0.5477 -0.4158 -0.9846
  181SLPC   C3620691   6.614   1.411   3.661 -0.2329 -0.3976  0.2087
  181SLPC   H6X20692   6.667   1.321   3.624 -1.0440 -0.1829 -1.5990
  181SLPC   H6Y20693   6.505   1.397   3.644 -0.3742  1.7355 -0.9719
  181SLPC   C3720694   6.661   1.453   3.811  0.5305  0.6391  0.0492
  181SLPC   H7X20695   6.602   1.543   3.840 -1.6291 -0.9130  0.7011
  181SLPC   H7Y20696   6.771   1.473   3.810  0.0859  3.6593  1.0554
  181SLPC   C3820697   6.612   1.346   3.913 -0.4293 -0.1052  0.1599
  181SLPC   H8X20698   6.670   1.251   3.910  0.6837  0.5665  0.0095
  181SLPC   H8Y20699   6.506   1.320   3.893 -0.2684 -0.6883  0.0562
  181SLPC   C3920700   6.612   1.387   4.059 -0.6163  0.2583  0.3679
  181SLPC   H9X20701   6.572   1.295   4.106 -2.3163 -1.3345 -3.7197
  181SLPC   H9Y20702   6.539   1.469   4.078 -0.2036  0.7169  0.0110
  181SLPC  C31020703   6.753   1.418   4.118  0.0680 -0.6288 -0.2436
  181SLPC  H10X20704   6.814   1.488   4.057  1.0395 -1.9841 -0.8814
  181SLPC  H10Y20705   6.804   1.320   4.125 -0.9957 -1.1647  0.2457
  181SLPC  C31120706   6.739   1.483   4.253  0.2662  0.6781 -0.4750
  181SLPC  H11X20707   6.656   1.556   4.254 -2.1343 -1.9067  0.6311
  181SLPC  H11Y20708   6.828   1.543   4.280  1.0412  0.5245 -2.4761
  181SLPC  C31220709   6.715   1.368   4.361  0.1172 -0.5602  0.0017
  181SLPC  H12X20710   6.811   1.313   4.374 -0.6652 -1.9046  0.1795
  181SLPC  H12Y20711   6.630   1.304   4.332  0.4355 -0.7575 -0.4993
  181SLPC  C31320712   6.692   1.430   4.494  0.5190 -0.6224 -0.4501
  181SLPC  H13X20713   6.584   1.456   4.492 -0.2738 -3.5919 -0.1998
  181SLPC  H13Y20714   6.773   1.507   4.500  3.0525 -3.0592 -1.1467
  181SLPC  C31420715   6.707   1.324   4.604 -0.6976  0.8203  0.5993
  181SLPC  H14X20716   6.815   1.296   4.611 -0.9455 -0.0896  0.8199
  181SLPC  H14Y20717   6.651   1.238   4.563  2.6167 -0.7718 -0.9355
  181SLPC  C31520718   6.658   1.367   4.735 -0.5647 -0.6854 -0.6173
  181SLPC  H15X20719   6.681   1.293   4.814 -3.3184 -0.8459  0.1324
  181SLPC  H15Y20720   6.548   1.382   4.733 -0.7035 -0.4642  2.7953
  181SLPC  C31620721   6.714   1.509   4.780 -0.1464  0.4205  0.4887
  181SLPC  H16X20722   6.682   1.595   4.718 -1.2094 -1.9025 -2.4268
  181SLPC  H16Y20723   6.823   1.495   4.764 -0.2396  0.0830  0.1180
  181SLPC  C31720724   6.682   1.552   4.924 -0.0083 -0.2638 -0.4371
  181SLPC  H17X20725   6.757   1.630   4.948 -0.2611 -0.4606  1.1114
  181SLPC  H17Y20726   6.706   1.483   5.008 -0.3760  0.9996  0.7447
  181SLPC  C31820727   6.544   1.610   4.932 -0.5759 -0.0177  0.5463
  181SLPC  H18X20728   6.526   1.681   4.848  0.3171 -2.5234 -1.9393
  181SLPC  H18Y20729   6.524   1.670   5.023 -2.0151  1.0116 -0.4094
  181SLPC  H18Z20730   6.464   1.535   4.918 -2.6962  2.0535  0.9640
  182SLPC     N20731   6.281   2.833   1.960 -0.0842 -0.7061  0.2069
  182SLPC   C1320732   6.255   2.752   1.831  1.0504 -0.1028  0.9126
  182SLPC  H13A20733   6.289   2.819   1.753 -0.2734  0.1100  0.5019
  182SLPC  H13B20734   6.317   2.664   1.833  0.5268 -0.4567  2.4005
  182SLPC  H13C20735   6.150   2.726   1.828  1.4386 -1.9296  1.6859
  182SLPC   C1420736   6.193   2.959   1.956  0.0861 -0.1003 -0.2079
  182SLPC  H14A20737   6.092   2.927   1.975  0.1750  0.2525  0.9429
  182SLPC  H14B20738   6.215   3.028   2.036  1.0834 -2.6634  1.9133
  182SLPC  H14C20739   6.204   3.012   1.863 -0.4503 -0.4506 -0.4787
  182SLPC   C1520740   6.425   2.871   1.952  0.1040 -0.8649  0.4704
  182SLPC  H15A20741   6.453   2.917   1.858  1.3710 -1.2382  0.6472
  182SLPC  H15B20742   6.461   2.933   2.033 -0.6239  0.6652 -0.3201
  182SLPC  H15C20743   6.495   2.790   1.965  1.7413  0.3665 -0.2837
  182SLPC   C1220744   6.260   2.746   2.077 -0.2040  0.4791 -0.1224
  182SLPC  H12A20745   6.333   2.667   2.083 -1.8607 -1.1264 -0.0003
  182SLPC  H12B20746   6.166   2.692   2.070 -0.2346  0.2129  1.7747
  182SLPC   C1120747   6.284   2.820   2.213  0.2252  0.7124 -0.1787
  182SLPC  H11A20748   6.224   2.755   2.280 -1.2004  0.2385 -1.8336
  182SLPC  H11B20749   6.233   2.918   2.221  1.6829  1.4971 -0.1963
  182SLPC     P20750   6.504   2.720   2.318  0.3316  0.1106 -0.2815
  182SLPC   O1320751   6.415   2.604   2.331 -0.2876  0.5283 -0.1187
  182SLPC   O1420752   6.629   2.702   2.242  0.2177  0.0955  0.5387
  182SLPC   O1220753   6.416   2.842   2.258  0.0868 -0.2459  0.3583
  182SLPC   O1120754   6.547   2.775   2.456  0.2929  0.9231 -0.0926
  182SLPC    C120755   6.450   2.848   2.529 -0.4915 -0.6449 -0.1667
  182SLPC    HA20756   6.473   2.953   2.505  2.4237 -0.9606  0.9552
  182SLPC    HB20757   6.344   2.838   2.494  0.3217  0.8643 -3.4929
  182SLPC    C220758   6.481   2.827   2.684  0.4143  0.4002  0.0304
  182SLPC    HS20759   6.428   2.732   2.708 -0.9709  0.9596 -0.6924
  182SLPC   O2120760   6.421   2.939   2.758  0.3501  0.5741 -0.3184
  182SLPC   C2120761   6.332   2.903   2.864 -0.1368  0.1350 -0.5760
  182SLPC   O2220762   6.302   2.789   2.893  0.7847 -0.5365  0.3889
  182SLPC   C2220763   6.269   3.029   2.919 -0.1763 -0.0748 -0.5067
  182SLPC   H2R20764   6.336   3.115   2.899  1.2883 -0.9991  0.2533
  182SLPC   H2S20765   6.169   3.055   2.878  0.4567  1.3077 -1.2632
  182SLPC    C320766   6.625   2.806   2.715  0.2515 -0.2659  0.5023
  182SLPC    HX20767   6.668   2.900   2.674  1.8561 -0.9622  0.5113
  182SLPC    HY20768   6.664   2.720   2.656  1.5353 -0.9098  2.2264
  182SLPC   O3120769   6.647   2.802   2.858 -0.3423  0.3982  0.0619
  182SLPC   C3120770   6.663   2.683   2.905  0.4561 -0.0129  0.8589
  182SLPC   O3220771   6.636   2.581   2.835 -0.4853 -0.5347 -0.6196
  182SLPC   C3220772   6.718   2.692   3.049  0.3451 -0.0129 -0.4861
  182SLPC   H2X20773   6.818   2.742   3.052  0.9014 -1.1303  0.9947
  182SLPC   H2Y20774   6.732   2.585   3.076  0.3970  0.1309  0.0842
  182SLPC   C2320775   6.255   3.015   3.076 -0.2892  0.0942  0.4889
  182SLPC   H3R20776   6.354   2.997   3.125 -1.0146 -0.0622  1.9579
  182SLPC   H3S20777   6.192   2.927   3.100 -0.4158  0.3648  1.1652
  182SLPC   C2420778   6.172   3.142   3.122 -0.5099  0.1379  0.2806
  182SLPC   H4R20779   6.086   3.158   3.053  0.4579  2.2965 -0.5085
  182SLPC   H4S20780   6.224   3.239   3.111 -1.0590  0.2076 -2.4896
  182SLPC   C2520781   6.133   3.140   3.267  0.2904  0.2171 -0.0425
  182SLPC   H5R20782   6.073   3.231   3.287 -0.2469 -0.6149  2.4477
  182SLPC   H5S20783   6.228   3.143   3.326 -0.0132  1.3141  0.4173
  182SLPC   C2620784   6.064   3.009   3.317 -1.0155  0.3712  0.8289
  182SLPC   H6R20785   6.132   2.922   3.301 -1.4323  0.0228  0.9150
  182SLPC   H6S20786   5.971   2.985   3.260  0.6118  0.0896 -1.9111
  182SLPC   C2720787   6.033   3.017   3.465 -0.1550 -0.0204  0.3258
  182SLPC   H7R20788   6.129   3.041   3.517  0.6069  0.4805 -1.2288
  182SLPC   H7S20789   5.994   2.919   3.500 -1.9530 -0.1038 -1.7196
  182SLPC   C2820790   5.914   3.106   3.498 -0.4006 -0.2739  0.6514
  182SLPC   H8R20791   5.846   3.101   3.411 -1.5077  0.0090  1.4842
  182SLPC   H8S20792   5.942   3.214   3.502 -0.9241 -0.1132  0.1199
  182SLPC   C2920793   5.836   3.082   3.625 -0.0566 -0.2640  0.1695
  182SLPC   H9R20794   5.733   3.043   3.618  0.2130 -0.8429 -0.6330
  182SLPC  C21020795   5.883   3.086   3.744  0.1031  0.1228 -0.1260
  182SLPC  H10R20796   5.809   3.056   3.819  2.3332 -0.3866  2.0215
  182SLPC  C21120797   6.021   3.124   3.799 -0.0272 -0.3704  0.2184
  182SLPC  H11R20798   5.999   3.221   3.848 -2.2809 -1.0952  0.7624
  182SLPC  H11S20799   6.089   3.146   3.714  0.7890  0.5761  1.0892
  182SLPC  C21220800   6.089   3.029   3.892  0.7471  0.3447 -0.1503
  182SLPC  H12R20801   6.169   2.967   3.850  0.0853  0.8825 -2.3168
  182SLPC  C21320802   6.048   3.008   4.021  0.2858  0.1688  0.3639
  182SLPC  H13R20803   6.091   2.921   4.072 -0.8955 -1.5668 -1.4534
  182SLPC  C21420804   5.933   3.077   4.090 -0.2218  0.1904  0.3654
  182SLPC  H14R20805   5.862   3.006   4.138  0.3447 -0.6762 -0.0553
  182SLPC  H14S20806   5.884   3.142   4.015  1.9410 -0.6528 -1.9238
  182SLPC  C21520807   5.999   3.164   4.198  0.4912  0.3496 -0.1974
  182SLPC  H15R20808   6.069   3.241   4.158 -0.4356  0.6566 -1.2816
  182SLPC  H15S20809   6.043   3.087   4.264  2.8627  1.0405 -0.8642
  182SLPC  C21620810   5.905   3.245   4.287 -0.0222 -0.4253 -0.3211
  182SLPC  H16R20811   5.970   3.305   4.354 -0.1914 -2.1770  1.5057
  182SLPC  H16S20812   5.841   3.178   4.348  0.1992 -0.1075  0.2739
  182SLPC  C21720813   5.819   3.352   4.219 -0.3598 -0.1619  0.0677
  182SLPC  H17R20814   5.741   3.307   4.154 -1.5591 -2.2276  2.7026
  182SLPC  H17S20815   5.884   3.409   4.150  0.1560  1.0848  1.5381
  182SLPC  C21820816   5.760   3.457   4.312 -0.6116 -0.3172 -0.0276
  182SLPC  H18R20817   5.698   3.424   4.398  0.1931 -0.2953  0.5740
  182SLPC  H18S20818   5.707   3.538   4.257  2.5766  0.8055 -1.6906
  182SLPC  H18T20819   5.845   3.508   4.362 -0.7445  1.4474 -1.4833
  182SLPC   C3320820   6.610   2.746   3.144 -0.3724  0.4208 -0.2889
  182SLPC   H3X20821   6.517   2.686   3.134 -1.3829  1.5737  1.5652
  182SLPC   H3Y20822   6.586   2.852   3.118 -1.2989  0.1980 -0.3792
  182SLPC   C3420823   6.648   2.726   3.295  0.3777 -0.0317  0.5019
  182SLPC   H4X20824   6.748   2.771   3.313  0.0668  0.8004  0.2353
  182SLPC   H4Y20825   6.645   2.617   3.311  0.2206 -0.1470 -0.2439
  182SLPC   C3520826   6.548   2.794   3.389 -0.6146 -0.1982 -0.4266
  182SLPC   H5X20827   6.445   2.751   3.392  0.1301 -2.0081  1.4013
  182SLPC   H5Y20828   6.526   2.900   3.366 -1.6996  0.0379  1.5215
  182SLPC   C3620829   6.602   2.793   3.536  0.3849  0.5610  0.3506
  182SLPC   H6X20830   6.694   2.855   3.548  1.5381 -1.0378  0.0458
  182SLPC   H6Y20831   6.627   2.688   3.559  2.2684  0.3764 -2.1171
  182SLPC   C3720832   6.498   2.833   3.638 -0.2543 -0.2128  0.8040
  182SLPC   H7X20833   6.420   2.755   3.624  0.8592 -1.3140  0.5799
  182SLPC   H7Y20834   6.451   2.930   3.613  0.3392  0.2190  1.3380
  182SLPC   C3820835   6.551   2.840   3.781 -0.5942  0.4997  0.3219
  182SLPC   H8X20836   6.643   2.901   3.793 -0.7620  0.5326  1.6022
  182SLPC   H8Y20837   6.582   2.735   3.801 -1.0548  0.5523  1.4139
  182SLPC   C3920838   6.443   2.885   3.873 -0.1415 -0.0793  0.1740
  182SLPC   H9X20839   6.346   2.834   3.854 -0.9379 -0.1590  3.7123
  182SLPC   H9Y20840   6.438   2.995   3.860 -3.5186 -0.1378  0.1721
  182SLPC  C31020841   6.476   2.849   4.016 -0.0086  0.7928  0.7513
  182SLPC  H10X20842   6.490   2.739   4.018 -1.5812  0.5790  1.9127
  182SLPC  H10Y20843   6.390   2.875   4.081  1.2298  1.4700  2.1854
  182SLPC  C31120844   6.594   2.934   4.071 -0.2416 -0.0035  0.5034
  182SLPC  H11X20845   6.554   3.036   4.055 -1.7162 -0.3549  1.7929
  182SLPC  H11Y20846   6.693   2.917   4.022  1.3631  2.0307  2.8112
  182SLPC  C31220847   6.610   2.934   4.225  0.8639  0.3603  0.4708
  182SLPC  H12X20848   6.704   2.984   4.253  1.0423  0.9599 -1.0939
  182SLPC  H12Y20849   6.639   2.829   4.247 -1.0417  0.0832  1.9877
  182SLPC  C31320850   6.491   2.966   4.315  0.2822 -0.7825  0.2399
  182SLPC  H13X20851   6.430   2.873   4.317  0.6429 -1.1622 -2.4941
  182SLPC  H13Y20852   6.442   3.049   4.261  0.0968 -0.3488  1.0654
  182SLPC  C31420853   6.534   3.006   4.455 -0.0942  0.0321  0.6369
  182SLPC  H14X20854   6.599   3.095   4.439  0.9586 -0.3954  2.2907
  182SLPC  H14Y20855   6.588   2.925   4.508  0.6200 -0.4493 -0.7683
  182SLPC  C31520856   6.405   3.041   4.537 -1.0321  0.2679  0.5292
  182SLPC  H15X20857   6.440   3.069   4.639 -0.0226  2.1185 -0.2747
  182SLPC  H15Y20858   6.342   2.950   4.542 -0.9855  0.1547 -0.7656
  182SLPC  C31620859   6.320   3.151   4.479 -0.4085 -0.4219 -0.1633
  182SLPC  H16X20860   6.275   3.116   4.384 -3.3554  0.9740  0.6005
  182SLPC  H16Y20861   6.380   3.244   4.470 -1.8351  0.8159  2.2369
  182SLPC  C31720862   6.213   3.192   4.578 -0.5953 -0.3800  0.0006
  182SLPC  H17X20863   6.165   3.100   4.618  1.2518 -0.1937  2.9486
  182SLPC  H17Y20864   6.135   3.247   4.522 -1.5106 -0.2652  1.3302
  182SLPC  C31820865   6.261   3.282   4.696 -0.1703  0.0199  0.2490
  182SLPC  H18X20866   6.359   3.254   4.740 -0.2717 -0.0890  0.4052
  182SLPC  H18Y20867   6.182   3.282   4.774 -0.4597 -3.3604  0.0740
  182SLPC  H18Z20868   6.260   3.386   4.657  0.4451  0.2536  0.8346
  183SLPC     N20869   4.350   0.976   2.299  0.5650 -0.4262  0.1114
  183SLPC   C1320870   4.228   1.015   2.215  0.5095  0.0566  0.6046
  183SLPC  H13A20871   4.215   0.949   2.131  0.3061  1.7336 -0.7486
  183SLPC  H13B20872   4.136   0.998   2.269  0.4292 -2.5786 -0.2601
  183SLPC  H13C20873   4.245   1.109   2.163  1.3916 -0.4453 -0.0380
  183SLPC   C1420874   4.468   1.041   2.237  0.3523  0.5892 -0.5021
  183SLPC  H14A20875   4.488   1.028   2.132 -0.8325 -1.8920 -0.5073
  183SLPC  H14B20876   4.477   1.143   2.272 -1.7974  0.4566  0.6337
  183SLPC  H14C20877   4.555   0.996   2.283 -1.1819 -2.8471 -0.6264
  183SLPC   C1520878   4.361   0.828   2.282 -0.3399  0.1525 -0.1852
  183SLPC  H15A20879   4.451   0.786   2.324 -0.2725 -0.6518 -1.0930
  183SLPC  H15B20880   4.274   0.788   2.332  0.6946  0.5085  2.0233
  183SLPC  H15C20881   4.361   0.804   2.177  1.9068  0.7021 -0.3721
  183SLPC   C1220882   4.332   1.008   2.441 -0.2072 -0.1470  0.4471
  183SLPC  H12A20883   4.318   1.115   2.451  0.8130 -0.0642  1.1699
  183SLPC  H12B20884   4.427   0.989   2.488  0.2961  0.2461 -0.3968
  183SLPC   C1120885   4.230   0.925   2.525 -0.4849 -0.5165  0.0151
  183SLPC  H11A20886   4.139   0.893   2.470 -1.9049  1.4229  1.1385
  183SLPC  H11B20887   4.195   0.978   2.615 -0.1340  0.0693 -0.1917
  183SLPC     P20888   4.414   0.792   2.679  0.2076  0.0928 -0.6057
  183SLPC   O1320889   4.415   0.651   2.727 -0.2906 -0.3203 -0.6043
  183SLPC   O1420890   4.544   0.834   2.623  0.2108 -0.1525 -0.1364
  183SLPC   O1220891   4.304   0.813   2.566 -0.4537 -0.0190  0.1203
  183SLPC   O1120892   4.368   0.886   2.789 -0.4338  0.3335 -0.3990
  183SLPC    C120893   4.247   0.859   2.862  0.9460  0.0436 -0.0536
  183SLPC    HA20894   4.169   0.939   2.860  1.6004  0.7891  1.7691
  183SLPC    HB20895   4.198   0.763   2.834  0.6083  0.4789 -0.9839
  183SLPC    C220896   4.269   0.835   3.014  0.1824 -0.0134 -0.5005
  183SLPC    HS20897   4.336   0.747   3.020 -1.7772 -1.4697  2.4878
  183SLPC   O2120898   4.145   0.822   3.079 -0.0280  0.2711 -0.2286
  183SLPC   C2120899   4.132   0.730   3.170  0.0771  0.2845  0.0687
  183SLPC   O2220900   4.222   0.673   3.229  0.2821 -0.1158  0.9902
  183SLPC   C2220901   3.987   0.708   3.203 -0.5332 -0.6780  0.2416
  183SLPC   H2R20902   3.932   0.803   3.182 -1.5510 -1.6823 -1.9893
  183SLPC   H2S20903   3.946   0.630   3.135 -0.7146  0.1420 -0.6126
  183SLPC    C320904   4.339   0.963   3.079 -0.4810  0.2656  0.3216
  183SLPC    HX20905   4.267   1.047   3.078 -0.4290  0.3117  0.5978
  183SLPC    HY20906   4.425   0.989   3.013  1.1955 -0.1058  2.2711
  183SLPC   O3120907   4.401   0.937   3.205  0.7276  0.0204  0.5965
  183SLPC   C3120908   4.342   0.994   3.313  0.0944 -0.2797 -0.4713
  183SLPC   O3220909   4.248   1.067   3.303  0.3176  0.5458 -0.4110
  183SLPC   C3220910   4.433   0.973   3.440  0.2431  0.3735 -0.2024
  183SLPC   H2X20911   4.533   1.002   3.402  0.2665  1.0020  0.3234
  183SLPC   H2Y20912   4.438   0.865   3.464  1.9779  0.6823  0.9940
  183SLPC   C2320913   3.968   0.657   3.344 -0.1578  0.0269 -0.0616
  183SLPC   H3R20914   4.032   0.573   3.379  3.1094  1.7837 -1.3843
  183SLPC   H3S20915   3.861   0.629   3.346 -0.3513  0.3237 -2.8801
  183SLPC   C2420916   3.983   0.768   3.454 -0.0940 -0.2420  0.4104
  183SLPC   H4R20917   3.937   0.860   3.410 -2.2453 -1.3294  0.2625
  183SLPC   H4S20918   4.091   0.785   3.475  0.0109  1.3220 -1.1397
  183SLPC   C2520919   3.923   0.724   3.584 -0.2956 -1.0518  0.2535
  183SLPC   H5R20920   3.985   0.639   3.620 -1.0433 -2.3461 -1.3490
  183SLPC   H5S20921   3.822   0.682   3.565 -1.7364  2.2438 -0.0117
  183SLPC   C2620922   3.920   0.826   3.698  0.6584  0.6781 -0.4795
  183SLPC   H6R20923   3.838   0.899   3.682  1.2509  1.1815 -1.2685
  183SLPC   H6S20924   4.019   0.876   3.712  1.5434 -0.9002 -0.8518
  183SLPC   C2720925   3.877   0.760   3.833  0.0603 -0.3726  0.5581
  183SLPC   H7R20926   3.943   0.674   3.855  0.1479 -0.7203 -0.9660
  183SLPC   H7S20927   3.775   0.716   3.822  0.3670 -1.1776  0.8936
  183SLPC   C2820928   3.868   0.862   3.944 -0.1907  0.5621 -0.2795
  183SLPC   H8R20929   3.800   0.946   3.921 -0.2882  0.6445  0.2871
  183SLPC   H8S20930   3.976   0.890   3.949 -0.0089  0.1044 -1.3503
  183SLPC   C2920931   3.829   0.792   4.079  0.1777 -0.4860  0.6015
  183SLPC   H9R20932   3.780   0.694   4.076  0.4521 -0.6088 -0.8267
  183SLPC  C21020933   3.848   0.856   4.196  0.8142 -0.0018 -0.5144
  183SLPC  H10R20934   3.821   0.800   4.287 -1.5379 -0.5419 -1.4690
  183SLPC  C21120935   3.912   0.989   4.221 -0.4442 -0.0738 -0.1154
  183SLPC  H11R20936   4.017   0.981   4.186 -0.2958  1.3632 -0.0712
  183SLPC  H11S20937   3.922   0.995   4.332 -1.2037  0.8361 -0.0822
  183SLPC  C21220938   3.862   1.114   4.156  0.0357  0.0439 -0.0351
  183SLPC  H12R20939   3.761   1.138   4.190 -1.0735 -1.2008 -2.1840
  183SLPC  C21320940   3.926   1.193   4.067  0.3897  0.1049  0.2681
  183SLPC  H13R20941   3.868   1.280   4.034 -0.7869 -0.9490 -0.5590
  183SLPC  C21420942   4.066   1.182   4.010  0.1803 -0.4954 -0.4758
  183SLPC  H14R20943   4.122   1.096   4.053 -1.2441 -0.2052  2.1710
  183SLPC  H14S20944   4.114   1.279   4.034  0.6278  0.1196 -3.5015
  183SLPC  C21520945   4.076   1.176   3.856  0.0718  0.2726 -0.5149
  183SLPC  H15R20946   4.046   1.078   3.813 -0.4147  0.4546 -0.5936
  183SLPC  H15S20947   4.185   1.182   3.832 -0.2223  0.8178 -1.8298
  183SLPC  C21620948   3.996   1.286   3.772 -0.1559  0.0121  0.3452
  183SLPC  H16R20949   4.030   1.382   3.815  0.6261 -1.4559  3.2628
  183SLPC  H16S20950   3.888   1.267   3.792  0.2908 -0.5410  2.4957
  183SLPC  C21720951   4.029   1.283   3.618 -0.8890  0.1482 -0.9581
  183SLPC  H17R20952   4.135   1.301   3.592 -1.7199  1.5785 -3.7805
  183SLPC  H17S20953   3.970   1.367   3.575 -1.4601 -0.7682 -2.0370
  183SLPC  C21820954   3.967   1.167   3.535 -0.3153 -0.2430 -0.2714
  183SLPC  H18R20955   3.893   1.131   3.610 -0.0496  2.2029  1.3175
  183SLPC  H18S20956   4.035   1.080   3.522 -1.3780 -1.3259  1.0261
  183SLPC  H18T20957   3.937   1.198   3.433 -1.1116 -1.3330 -0.3856
  183SLPC   C3320958   4.379   1.064   3.555 -0.6568 -0.2525 -0.0702
  183SLPC   H3X20959   4.279   1.030   3.588  0.1687 -0.9305  1.8425
  183SLPC   H3Y20960   4.387   1.168   3.517  0.6845 -0.5077 -0.5214
  183SLPC   C3420961   4.490   1.045   3.666  0.2611 -0.1630 -0.2873
  183SLPC   H4X20962   4.585   1.070   3.615 -1.1953  2.1362 -2.0969
  183SLPC   H4Y20963   4.506   0.940   3.698 -0.6122 -0.5428 -1.0620
  183SLPC   C3520964   4.472   1.132   3.784  0.8798 -0.6208 -0.3840
  183SLPC   H5X20965   4.381   1.110   3.844  1.1036 -3.0088 -0.8353
  183SLPC   H5Y20966   4.452   1.231   3.737  0.3594 -0.3108  0.4702
  183SLPC   C3620967   4.592   1.125   3.867 -0.2537 -0.1591  0.2422
  183SLPC   H6X20968   4.675   1.129   3.793 -0.8764 -1.5684 -0.5737
  183SLPC   H6Y20969   4.602   1.022   3.907  2.0586 -0.2677 -0.4595
  183SLPC   C3720970   4.591   1.221   3.977  0.0319  0.2300 -0.6844
  183SLPC   H7X20971   4.595   1.327   3.944 -2.5165  0.7419  0.4414
  183SLPC   H7Y20972   4.681   1.211   4.041 -1.6224 -1.3340  1.5251
  183SLPC   C3820973   4.467   1.204   4.064 -0.4618 -0.1135 -0.6170
  183SLPC   H8X20974   4.456   1.109   4.119  2.2057 -0.1928 -0.1155
  183SLPC   H8Y20975   4.374   1.237   4.011  0.1321  2.5861 -0.1210
  183SLPC   C3920976   4.471   1.308   4.171  0.0777 -0.2096 -0.5610
  183SLPC   H9X20977   4.457   1.411   4.132 -1.1785  0.0393  0.4852
  183SLPC   H9Y20978   4.573   1.302   4.216  0.6739  0.6828 -1.7454
  183SLPC  C31020979   4.361   1.279   4.278 -0.4358 -0.5691  0.0643
  183SLPC  H10X20980   4.363   1.170   4.299 -1.9716 -0.9697 -1.5754
  183SLPC  H10Y20981   4.262   1.291   4.229  0.4288 -1.0717 -1.9066
  183SLPC  C31120982   4.356   1.369   4.400 -0.5004 -0.1409 -0.4036
  183SLPC  H11X20983   4.269   1.349   4.467 -0.7703 -0.5663 -0.8722
  183SLPC  H11Y20984   4.349   1.477   4.371  0.8695 -0.1313 -0.7305
  183SLPC  C31220985   4.470   1.363   4.498  0.2404  0.0089  0.8131
  183SLPC  H12X20986   4.553   1.313   4.442 -0.9419 -0.9417 -0.1458
  183SLPC  H12Y20987   4.447   1.288   4.576  0.3598 -2.1000 -1.0701
  183SLPC  C31320988   4.499   1.498   4.568  0.6190 -0.1676  0.0267
  183SLPC  H13X20989   4.536   1.463   4.667 -1.9135 -0.7804  0.8104
  183SLPC  H13Y20990   4.402   1.548   4.587  1.1565 -0.0314  2.8591
  183SLPC  C31420991   4.606   1.573   4.485 -0.1260  1.1849 -0.1476
  183SLPC  H14X20992   4.569   1.590   4.382 -0.7590  0.6774 -0.0168
  183SLPC  H14Y20993   4.699   1.513   4.477 -1.4371 -0.7268 -2.3639
  183SLPC  C31520994   4.650   1.717   4.539  0.8524 -0.3913  0.1307
  183SLPC  H15X20995   4.708   1.708   4.633  2.2852  0.6652 -0.6136
  183SLPC  H15Y20996   4.559   1.770   4.573  0.5772 -0.0799 -1.0513
  183SLPC  C31620997   4.711   1.812   4.430  0.6780  0.2613 -0.4522
  183SLPC  H16X20998   4.659   1.809   4.332  0.7932 -1.2947 -0.4927
  183SLPC  H16Y20999   4.810   1.770   4.405  0.4090 -0.2508 -0.6811
  183SLPC  C31721000   4.719   1.962   4.480 -0.5308  0.5398 -0.7515
  183SLPC  H17X21001   4.802   2.009   4.423  2.3506 -3.6152 -0.4224
  183SLPC  H17Y21002   4.737   1.960   4.590  0.3691 -0.5620 -0.9052
  183SLPC  C31821003   4.585   2.036   4.460  0.4285  0.4202  0.3389
  183SLPC  H18X21004   4.589   2.146   4.477  0.6758  0.9607 -2.6233
  183SLPC  H18Y21005   4.507   2.008   4.533 -1.7739  1.4376 -1.5049
  183SLPC  H18Z21006   4.552   2.020   4.356  2.6367  2.4332 -0.7910
  184SLPC     N21007   5.325   3.880   2.434 -0.1926 -0.4648 -0.0852
  184SLPC   C1321008   5.191   3.950   2.421  0.7837 -0.6482  0.0788
  184SLPC  H13A21009   5.201   4.047   2.374 -4.6670 -0.6735 -1.8285
  184SLPC  H13B21010   5.125   3.890   2.360 -1.0828  2.7654 -1.5689
  184SLPC  H13C21011   5.133   3.957   2.512  0.0114 -1.6907 -0.3127
  184SLPC   C1421012   5.426   3.983   2.466  0.4995 -0.0550  0.6824
  184SLPC  H14A21013   5.515   3.934   2.502  0.1691 -0.2619  1.2364
  184SLPC  H14B21014   5.464   4.040   2.382  0.4033 -0.7375  0.1593
  184SLPC  H14C21015   5.388   4.041   2.548  0.2553  2.9588 -1.3903
  184SLPC   C1521016   5.346   3.808   2.304 -0.2330  0.5551  0.0230
  184SLPC  H15A21017   5.256   3.752   2.285  0.1167  0.9762 -3.3251
  184SLPC  H15B21018   5.336   3.864   2.213  2.5996 -3.1125 -2.8927
  184SLPC  H15C21019   5.434   3.746   2.299 -1.8738 -1.8888 -0.2599
  184SLPC   C1221020   5.318   3.776   2.545  0.4719  0.4101  0.3322
  184SLPC  H12A21021   5.316   3.822   2.643  0.9810 -1.6936  1.3866
  184SLPC  H12B21022   5.413   3.725   2.538  2.0458  2.9682  1.6902
  184SLPC   C1121023   5.204   3.667   2.540  0.0952  0.5540  0.2002
  184SLPC  H11A21024   5.243   3.585   2.604  1.3832  0.6128 -0.4816
  184SLPC  H11B21025   5.196   3.632   2.435  0.8852  2.2399 -0.4418
  184SLPC     P21026   4.946   3.656   2.569 -0.1029  0.6619  0.1567
  184SLPC   O1321027   4.832   3.744   2.618  0.4963  0.4558  0.1020
  184SLPC   O1421028   4.949   3.599   2.432 -0.5716  0.2768 -0.2324
  184SLPC   O1221029   5.086   3.730   2.590  0.3177  0.2072 -0.0131
  184SLPC   O1121030   4.958   3.525   2.667  0.2988 -0.6755  0.6694
  184SLPC    C121031   4.928   3.535   2.807 -0.3317  0.6800  0.3738
  184SLPC    HA21032   4.827   3.578   2.823 -1.0260  0.0094 -1.9028
  184SLPC    HB21033   4.923   3.433   2.851 -1.3942  0.4905 -0.1757
  184SLPC    C221034   5.035   3.617   2.878 -0.3051 -0.3884 -0.1007
  184SLPC    HS21035   5.027   3.721   2.838  0.4487 -0.2796  0.0259
  184SLPC   O2121036   5.165   3.558   2.866 -0.5841 -0.3610  0.2777
  184SLPC   C2121037   5.273   3.627   2.900 -0.3370  0.3039 -0.2619
  184SLPC   O2221038   5.270   3.734   2.954  0.1098  0.6531  0.3449
  184SLPC   C2221039   5.392   3.533   2.867  0.0484 -0.3962  0.2141
  184SLPC   H2R21040   5.365   3.430   2.900 -0.7890 -0.3911 -0.4196
  184SLPC   H2S21041   5.404   3.546   2.758  0.8327  5.1288  0.6685
  184SLPC    C321042   4.993   3.627   3.029  0.3210  0.3712  0.2918
  184SLPC    HX21043   5.077   3.680   3.077  0.7948 -0.4665  0.4012
  184SLPC    HY21044   4.997   3.523   3.065  1.3205 -0.4628 -1.9980
  184SLPC   O3121045   4.863   3.677   3.057 -0.0624 -0.4009  0.2327
  184SLPC   C3121046   4.860   3.804   3.082 -0.9653  0.3814  0.3212
  184SLPC   O3221047   4.955   3.881   3.083  0.2604 -0.2993  0.4693
  184SLPC   C3221048   4.713   3.841   3.111 -0.2740  0.1551  0.3591
  184SLPC   H2X21049   4.641   3.764   3.077  0.5317 -0.7845  0.7113
  184SLPC   H2Y21050   4.690   3.938   3.064  0.9863  0.1433 -0.3387
  184SLPC   C2321051   5.531   3.563   2.929  0.7154  0.0054 -0.3194
  184SLPC   H3R21052   5.570   3.659   2.890 -0.5203  0.4143 -0.5974
  184SLPC   H3S21053   5.610   3.493   2.894  0.3031  0.6543 -2.6944
  184SLPC   C2421054   5.526   3.564   3.084  0.2907  0.7419  0.1781
  184SLPC   H4R21055   5.553   3.462   3.120 -0.0500  1.1685  1.6979
  184SLPC   H4S21056   5.424   3.592   3.119 -0.4134 -0.0784 -1.1388
  184SLPC   C2521057   5.616   3.667   3.157  0.4902  0.0917 -0.2930
  184SLPC   H5R21058   5.620   3.761   3.097 -0.9152  0.4064  0.0523
  184SLPC   H5S21059   5.718   3.626   3.170 -0.4199 -1.3809  3.3554
  184SLPC   C2621060   5.574   3.688   3.308 -0.1072 -0.4166  0.3364
  184SLPC   H6R21061   5.464   3.681   3.319 -0.2905  2.9606  1.8506
  184SLPC   H6S21062   5.600   3.789   3.347 -1.4287  0.3264 -0.6207
  184SLPC   C2721063   5.644   3.587   3.402  0.2868 -0.3887 -0.3440
  184SLPC   H7R21064   5.753   3.607   3.399  0.5616 -1.9007 -3.3895
  184SLPC   H7S21065   5.631   3.481   3.373 -2.3921 -0.1393 -0.3555
  184SLPC   C2821066   5.580   3.594   3.541  0.2989 -0.4821 -0.6981
  184SLPC   H8R21067   5.471   3.576   3.542  0.4572 -1.5662  0.2526
  184SLPC   H8S21068   5.590   3.699   3.577  0.4935 -1.0631  1.0251
  184SLPC   C2921069   5.651   3.504   3.637  0.4547  0.1198  0.2271
  184SLPC   H9R21070   5.759   3.491   3.616  0.4606 -1.2447  0.9862
  184SLPC  C21021071   5.601   3.429   3.741  0.0646 -0.4729  0.5506
  184SLPC  H10R21072   5.677   3.365   3.789  1.0586 -0.3076 -0.7401
  184SLPC  C21121073   5.459   3.419   3.792  0.6429 -0.3147  0.2676
  184SLPC  H11R21074   5.401   3.352   3.725  1.7844 -3.7075  2.4594
  184SLPC  H11S21075   5.410   3.517   3.769 -2.4095 -2.4110 -3.3064
  184SLPC  C21221076   5.447   3.399   3.943 -0.0381  0.7804  0.5186
  184SLPC  H12R21077   5.454   3.488   4.006 -1.9574  0.5500  1.1155
  184SLPC  C21321078   5.410   3.277   4.002 -0.5276 -0.0793 -0.0132
  184SLPC  H13R21079   5.410   3.265   4.112  1.2428  0.3544  0.0682
  184SLPC  C21421080   5.400   3.149   3.930 -0.1215  1.0084  1.0378
  184SLPC  H14R21081   5.370   3.166   3.825  2.3619 -1.4069 -0.1950
  184SLPC  H14S21082   5.321   3.085   3.976  0.2131  0.1942  0.5019
  184SLPC  C21521083   5.531   3.063   3.934  0.0379 -0.7192  0.4192
  184SLPC  H15R21084   5.611   3.117   3.878  0.2839  0.0261  1.4566
  184SLPC  H15S21085   5.525   2.964   3.884 -2.0130  0.3014 -1.5450
  184SLPC  C21621086   5.596   3.031   4.067  0.4701  0.0011 -0.1651
  184SLPC  H16R21087   5.645   3.125   4.101  1.3299 -0.1602 -0.9162
  184SLPC  H16S21088   5.673   2.954   4.043  0.6731  0.3966 -0.8102
  184SLPC  C21721089   5.503   2.986   4.182  0.1149 -0.2753 -0.1080
  184SLPC  H17R21090   5.445   2.893   4.166  0.4022 -0.6280  0.8773
  184SLPC  H17S21091   5.421   3.057   4.205 -0.7216 -0.8445 -1.2480
  184SLPC  C21821092   5.581   2.976   4.306 -0.2824 -0.4183 -0.4639
  184SLPC  H18R21093   5.511   2.963   4.392 -0.1147 -0.4714 -0.3359
  184SLPC  H18S21094   5.632   3.072   4.329  1.3803 -1.3752  0.0200
  184SLPC  H18T21095   5.652   2.891   4.307  0.0768 -0.1394 -1.4363
  184SLPC   C3321096   4.688   3.846   3.259 -0.8797 -1.0701 -0.4447
  184SLPC   H3X21097   4.728   3.752   3.302  1.0853  0.3694  1.1005
  184SLPC   H3Y21098   4.580   3.844   3.282 -0.1479  0.2428  4.2403
  184SLPC   C3421099   4.759   3.968   3.335  0.1682  0.5632  0.4030
  184SLPC   H4X21100   4.731   4.069   3.296 -0.6145  0.7334  1.3730
  184SLPC   H4Y21101   4.869   3.958   3.331  0.1042  0.1584 -0.5787
  184SLPC   C3521102   4.715   3.965   3.486 -0.0778  0.5987  0.0705
  184SLPC   H5X21103   4.713   3.860   3.523 -1.8042  0.6651  0.2552
  184SLPC   H5Y21104   4.607   3.992   3.479 -1.3634 -3.9762 -1.7006
  184SLPC   C3621105   4.794   4.051   3.590 -0.0674 -0.5116 -0.4815
  184SLPC   H6X21106   4.779   4.156   3.557 -0.5312 -0.3520  0.2269
  184SLPC   H6Y21107   4.899   4.014   3.586  0.6104  1.2149  0.5123
  184SLPC   C3721108   4.741   4.028   3.734 -0.0804 -0.0412  0.1123
  184SLPC   H7X21109   4.748   3.919   3.755  0.9539 -0.2501 -1.1157
  184SLPC   H7Y21110   4.637   4.066   3.742 -0.7310 -1.6480 -0.1709
  184SLPC   C3821111   4.814   4.118   3.843 -0.3960  0.3031 -0.1866
  184SLPC   H8X21112   4.812   4.225   3.812 -0.2397  0.0583 -1.0824
  184SLPC   H8Y21113   4.920   4.087   3.839  0.0542  1.8602 -1.0883
  184SLPC   C3921114   4.753   4.114   3.989  0.6335  0.1586  0.3499
  184SLPC   H9X21115   4.709   4.012   3.994 -0.3412  0.5365 -0.2972
  184SLPC   H9Y21116   4.671   4.188   3.998 -0.1670 -0.6278 -0.3471
  184SLPC  C31021117   4.856   4.130   4.099  0.6681  0.6363  0.3250
  184SLPC  H10X21118   4.887   4.236   4.100 -1.8692  1.4369  1.1719
  184SLPC  H10Y21119   4.942   4.068   4.067 -1.0051 -1.1767 -0.9338
  184SLPC  C31121120   4.802   4.084   4.239  0.1278  0.7689 -0.0186
  184SLPC  H11X21121   4.881   4.112   4.312  1.1473  0.1474 -0.8389
  184SLPC  H11Y21122   4.785   3.974   4.231 -1.9989  1.0571 -0.0842
  184SLPC  C31221123   4.663   4.145   4.280  0.0160  0.0023  0.0895
  184SLPC  H12X21124   4.579   4.102   4.222 -0.1528  2.0024 -1.2229
  184SLPC  H12Y21125   4.671   4.254   4.260 -0.7686  0.0254 -0.1391
  184SLPC  C31321126   4.631   4.129   4.429  0.0339 -0.7161  0.3974
  184SLPC  H13X21127   4.661   4.027   4.461  1.3112 -1.3844 -2.6018
  184SLPC  H13Y21128   4.520   4.143   4.428  0.2916  1.9852 -0.5089
  184SLPC  C31421129   4.694   4.235   4.521  0.8089  0.1591  0.3720
  184SLPC  H14X21130   4.658   4.338   4.498  0.7735 -0.1167 -0.8534
  184SLPC  H14Y21131   4.803   4.232   4.499  0.9030 -3.9221  0.6234
  184SLPC  C31521132   4.669   4.199   4.670  0.2865  0.8115 -0.0586
  184SLPC  H15X21133   4.676   4.089   4.685  0.6728  0.8849  0.2998
  184SLPC  H15Y21134   4.562   4.226   4.688 -0.0944  0.6337 -1.9114
  184SLPC  C31621135   4.761   4.283   4.759  0.0847  0.4710 -0.7205
  184SLPC  H16X21136   4.866   4.250   4.744 -0.1948  0.1944 -2.2319
  184SLPC  H16Y21137   4.742   4.249   4.863  1.9666 -1.1401 -0.8320
  184SLPC  C31721138   4.762   4.430   4.744 -0.3184  0.2417 -0.0332
  184SLPC  H17X21139   4.747   4.459   4.638 -1.0033  0.4099  0.1058
  184SLPC  H17Y21140   4.849   4.485   4.785  0.3108 -2.2037  2.2070
  184SLPC  C31821141   4.632   4.489   4.811  0.2401 -0.3864  0.3866
  184SLPC  H18X21142   4.549   4.430   4.767 -1.3472  1.6749  0.4516
  184SLPC  H18Y21143   4.617   4.598   4.794  0.6725 -0.3590  0.1587
  184SLPC  H18Z21144   4.642   4.464   4.919  0.8707  2.3773  1.0520
  185POPC     N21145   3.607   6.145   7.437 -0.0895  0.0977 -0.4003
  185POPC   C1221146   3.551   6.054   7.326 -0.3220  0.0453 -0.2280
  185POPC  H12A21147   3.509   6.113   7.245 -0.9764 -0.4559 -0.2683
  185POPC  H12B21148   3.461   6.014   7.371  0.1354  0.7757  1.3940
  185POPC   C1321149   3.648   6.069   7.557  0.1763  1.1560  0.1912
  185POPC  H13A21150   3.692   6.136   7.630  2.0030  0.5862 -0.3189
  185POPC  H13B21151   3.566   6.017   7.603 -1.0284  1.3879 -1.6212
  185POPC  H13C21152   3.723   5.997   7.528 -1.1169  0.3191 -1.1818
  185POPC   C1421153   3.723   6.228   7.394 -0.0403 -1.0121 -0.0341
  185POPC  H14A21154   3.811   6.181   7.354 -0.0345  0.2758 -1.6924
  185POPC  H14B21155   3.695   6.301   7.319  1.5347 -0.4393 -0.0917
  185POPC  H14C21156   3.756   6.287   7.478  0.9221 -2.6625  0.7720
  185POPC   C1521157   3.500   6.250   7.479  0.2915  0.2686 -0.0042
  185POPC  H15A21158   3.521   6.306   7.568  0.7500 -2.4527  1.7138
  185POPC  H15B21159   3.405   6.200   7.481  0.5566 -0.4278 -1.9349
  185POPC  H15C21160   3.478   6.321   7.400 -0.2784  0.1616  0.0608
  185POPC   C1121161   3.633   5.941   7.257 -0.2416  0.1928 -0.6106
  185POPC  H11A21162   3.716   5.997   7.210 -0.8045  0.9461 -0.7267
  185POPC  H11B21163   3.578   5.901   7.169  1.6817  0.2272 -1.8801
  185POPC     P21164   3.565   5.729   7.380 -0.2023  0.0247 -0.0905
  185POPC   O1321165   3.456   5.773   7.463  0.7996  0.2951  0.2436
  185POPC   O1421166   3.637   5.616   7.450  0.4000  0.1936  0.0509
  185POPC   O1221167   3.676   5.841   7.353 -0.9016  0.3432  0.2126
  185POPC   O1121168   3.510   5.677   7.239 -0.1343 -0.0047  0.0812
  185POPC    C121169   3.620   5.635   7.149  0.3018  0.3612  0.4009
  185POPC    HA21170   3.636   5.528   7.171 -0.3832  0.8471  3.8350
  185POPC    HB21171   3.719   5.685   7.158  1.5351 -1.9625  0.2859
  185POPC    C221172   3.577   5.632   6.997 -0.0159  0.0459 -1.0196
  185POPC    HS21173   3.651   5.576   6.935  1.1046 -1.8047  1.8137
  185POPC   O2121174   3.571   5.768   6.945 -0.0808 -0.4779  0.1803
  185POPC   C2121175   3.693   5.816   6.925  0.4362  0.0964 -0.1921
  185POPC   O2221176   3.798   5.749   6.918  0.0169 -0.5131 -0.6417
  185POPC   C2221177   3.681   5.968   6.888 -0.1905 -0.3925  1.1257
  185POPC   H2R21178   3.760   6.016   6.950 -1.1047  1.4251  0.9269
  185POPC   H2S21179   3.581   6.003   6.920 -0.1851 -0.3928  1.1422
  185POPC    C321180   3.437   5.563   6.974 -0.6149  0.0388  0.5936
  185POPC    HX21181   3.371   5.625   7.038 -0.4840  1.4162 -0.5666
  185POPC    HY21182   3.441   5.457   7.008 -1.0732 -1.1324 -2.6692
  185POPC   O3121183   3.385   5.571   6.838 -0.1239  0.7433 -0.8915
  185POPC   C3121184   3.433   5.483   6.756 -0.0763  0.3333  0.1093
  185POPC   O3221185   3.526   5.404   6.777 -0.5853  0.1762 -0.2923
  185POPC   C3221186   3.357   5.501   6.621 -0.6278  0.2886 -0.3960
  185POPC   H2X21187   3.285   5.585   6.632  0.2951  1.3162 -1.9568
  185POPC   H2Y21188   3.306   5.402   6.610  0.9628 -0.8455  1.6686
  185POPC   C2321189   3.693   5.988   6.733 -0.1379 -0.8322  0.3273
  185POPC   H3R21190   3.754   5.907   6.689  1.5488 -1.0175  2.8259
  185POPC   H3S21191   3.758   6.078   6.726  2.8502 -2.8380  0.5055
  185POPC   C2421192   3.564   6.014   6.660  0.1659 -0.1903  0.0618
  185POPC   H4R21193   3.581   6.086   6.578 -2.9086  1.5191  0.7870
  185POPC   H4S21194   3.493   6.075   6.718  1.9304  0.1290  2.0016
  185POPC   C2521195   3.504   5.886   6.609 -0.2302  0.4307  0.9883
  185POPC   H5R21196   3.487   5.807   6.685  0.6380 -0.4112  0.3374
  185POPC   H5S21197   3.579   5.856   6.532  1.3109  0.8909  2.2573
  185POPC   C2621198   3.355   5.898   6.555 -0.3062 -0.1032  0.2457
  185POPC   H6R21199   3.282   5.902   6.639 -1.2164  3.1514 -0.5747
  185POPC   H6S21200   3.318   5.812   6.495 -2.9292  1.9617 -1.3181
  185POPC   C2721201   3.332   6.022   6.467 -0.0321  0.2780  0.7626
  185POPC   H7R21202   3.414   6.040   6.394 -0.8650  2.6167  0.3213
  185POPC   H7S21203   3.328   6.116   6.526 -1.1027  0.1981  0.8400
  185POPC   C2821204   3.202   6.005   6.384 -0.4957  0.0459 -0.4304
  185POPC   H8R21205   3.115   5.975   6.447 -1.3463  1.2730 -0.9951
  185POPC   H8S21206   3.221   5.930   6.304 -1.2815  0.6484 -1.2088
  185POPC   C2921207   3.177   6.140   6.320 -0.1074 -0.3588  0.6667
  185POPC   H9121208   3.144   6.218   6.391 -0.4168 -0.2438  0.4012
  185POPC  C21021209   3.156   6.176   6.189 -0.7281 -0.7623 -0.0363
  185POPC  H10121210   3.126   6.279   6.165  0.2808 -0.7803 -1.4564
  185POPC  C21121211   3.158   6.084   6.071 -0.1384 -0.1736 -0.0196
  185POPC  H11R21212   3.100   5.993   6.098 -1.2623  0.4439 -0.2520
  185POPC  H11S21213   3.263   6.059   6.046  0.9478  3.5435  0.2311
  185POPC  C21221214   3.097   6.160   5.954 -0.0710  0.2157  1.0045
  185POPC  H12R21215   3.160   6.237   5.905  0.4694 -1.1358 -0.4976
  185POPC  H12S21216   2.997   6.198   5.983 -0.1449 -0.0412  1.0951
  185POPC  C21321217   3.081   6.054   5.845  0.4210  0.1421  0.2753
  185POPC  H13R21218   3.067   5.954   5.890 -0.0799  0.1441  0.1226
  185POPC  H13S21219   3.176   6.054   5.787  1.2037  1.5373  1.4904
  185POPC  C21421220   2.972   6.098   5.750  0.4130 -0.3038 -0.1726
  185POPC  H14R21221   2.998   6.184   5.684 -1.8072  1.2880  0.9064
  185POPC  H14S21222   2.894   6.132   5.822 -1.1679 -0.4316 -1.7628
  185POPC  C21521223   2.897   5.980   5.671 -0.4296  0.2570 -0.5075
  185POPC  H15R21224   2.799   6.022   5.640 -0.7828 -0.0818  0.1226
  185POPC  H15S21225   2.870   5.897   5.739 -0.8691  0.1211 -0.8457
  185POPC  C21621226   2.990   5.948   5.555  0.8336 -0.1422  0.3936
  185POPC  H16R21227   3.082   5.895   5.587  0.6498 -0.7894 -0.1278
  185POPC  H16S21228   3.027   6.042   5.509 -2.4931  1.4397  0.6780
  185POPC  C21721229   2.933   5.858   5.443 -0.0938  0.0526  0.7537
  185POPC  H17R21230   2.850   5.913   5.393 -0.4912 -0.8413  0.4091
  185POPC  H17S21231   2.884   5.772   5.493  0.1603 -0.7176 -0.2998
  185POPC  C21821232   3.046   5.807   5.354 -0.1385 -0.0032 -0.6258
  185POPC  H18R21233   3.105   5.889   5.308  2.7952 -1.2881  0.5883
  185POPC  H18S21234   3.014   5.730   5.281  0.9300 -0.6217 -0.4522
  185POPC  H18T21235   3.118   5.757   5.422 -2.4278 -0.7321  1.4247
  185POPC   C3321236   3.437   5.509   6.498  0.1015  0.1673 -0.1586
  185POPC   H3X21237   3.513   5.428   6.483  1.3171  1.4705 -1.3263
  185POPC   H3Y21238   3.482   5.610   6.502 -0.8463  0.5593  1.2097
  185POPC   C3421239   3.343   5.517   6.380 -0.5165 -0.2480  0.2053
  185POPC   H4X21240   3.263   5.592   6.398  0.1663 -0.1051  3.0328
  185POPC   H4Y21241   3.299   5.416   6.364  0.0521 -0.4413 -0.1764
  185POPC   C3521242   3.407   5.562   6.244  0.1833 -0.3593  0.0083
  185POPC   H5X21243   3.482   5.486   6.216  0.7565 -0.6247  2.1151
  185POPC   H5Y21244   3.462   5.655   6.270 -0.7420 -0.5204  2.9197
  185POPC   C3621245   3.284   5.583   6.148 -0.5629  0.0748 -0.2872
  185POPC   H6X21246   3.208   5.647   6.198 -0.8736 -0.5081 -0.0064
  185POPC   H6Y21247   3.245   5.481   6.130  2.0683 -0.9901 -0.4460
  185POPC   C3721248   3.329   5.624   6.006  0.1196 -0.0355  0.4225
  185POPC   H7X21249   3.381   5.535   5.964 -1.6569 -0.6296 -0.6568
  185POPC   H7Y21250   3.397   5.711   6.011  0.8490 -0.4845 -1.0223
  185POPC   C3821251   3.208   5.668   5.926 -0.6996  0.9077 -0.1721
  185POPC   H8X21252   3.185   5.770   5.963  1.2799  1.7414 -1.0752
  185POPC   H8Y21253   3.127   5.592   5.920 -0.6858  0.6655  1.9396
  185POPC   C3921254   3.255   5.674   5.769 -0.1804 -0.3195 -0.4032
  185POPC   H9X21255   3.171   5.696   5.700  0.0956 -1.2022 -1.0251
  185POPC   H9Y21256   3.289   5.570   5.751  0.3878 -0.3061  0.5238
  185POPC  C31021257   3.380   5.760   5.752 -0.2347 -0.0777  0.5568
  185POPC  H10X21258   3.468   5.717   5.805  1.6027  1.1221 -1.3433
  185POPC  H10Y21259   3.361   5.860   5.796  0.9659  0.2434  0.3895
  185POPC  C31121260   3.415   5.773   5.599  0.3823  1.2975  0.1899
  185POPC  H11X21261   3.322   5.814   5.554 -1.0278  0.9806  2.6597
  185POPC  H11Y21262   3.430   5.669   5.563 -1.9027  0.5684  1.1647
  185POPC  C31221263   3.524   5.871   5.580 -0.0430  0.5203 -0.9060
  185POPC  H12X21264   3.619   5.830   5.619 -0.5358 -0.8233 -1.0449
  185POPC  H12Y21265   3.499   5.970   5.623 -2.7045 -1.3559  2.3535
  185POPC  C31321266   3.553   5.901   5.428  0.1240  0.2707 -0.8038
  185POPC  H13X21267   3.637   5.972   5.416  0.1134  0.3162 -0.6169
  185POPC  H13Y21268   3.461   5.959   5.404 -2.1682 -2.4604  0.6231
  185POPC  C31421269   3.579   5.779   5.337 -0.1439  0.2777  0.2548
  185POPC  H14X21270   3.489   5.716   5.317 -0.5735  0.7965  0.5209
  185POPC  H14Y21271   3.668   5.721   5.370  0.9852  1.0413 -1.3481
  185POPC  C31521272   3.605   5.829   5.196  0.8962  0.1775  0.7307
  185POPC  H15X21273   3.635   5.751   5.123 -1.4059  1.7929 -2.1227
  185POPC  H15Y21274   3.700   5.888   5.197  1.5492 -0.8442  1.6491
  185POPC  C31621275   3.502   5.920   5.127  0.3238  0.0427 -0.0680
  185POPC  H16X21276   3.413   5.866   5.089  1.9391 -1.3690 -2.0407
  185POPC  H16Y21277   3.561   5.947   5.037  2.5057 -1.2794  0.8791
  185POPC  H16Z21278   3.485   6.014   5.184  2.3497 -0.1982  1.0346
  186POPC     N21279   0.774   5.111   7.420  0.0231  0.0409 -0.1726
  186POPC   C1221280   0.813   5.252   7.408  0.0470  0.2546  0.5554
  186POPC  H12A21281   0.920   5.265   7.403 -0.0386  0.7885  0.1417
  186POPC  H12B21282   0.793   5.301   7.502  0.7444 -2.0672  2.0005
  186POPC   C1321283   0.818   5.041   7.296 -0.1083  0.9293 -0.0351
  186POPC  H13A21284   0.925   5.028   7.293 -0.2699 -1.4280  1.5606
  186POPC  H13B21285   0.771   4.943   7.304 -1.2018  1.4677  0.3727
  186POPC  H13C21286   0.784   5.084   7.204 -0.3405 -2.6460 -1.8063
  186POPC   C1421287   0.841   5.046   7.541  0.9579 -0.0021 -0.0657
  186POPC  H14A21288   0.838   5.106   7.631 -2.8757 -0.4098  0.2045
  186POPC  H14B21289   0.794   4.952   7.563  1.1567 -0.1469 -0.2492
  186POPC  H14C21290   0.945   5.021   7.523  1.0221  1.2665 -1.7409
  186POPC   C1521291   0.626   5.104   7.435 -0.2160  0.4924  0.2886
  186POPC  H15A21292   0.573   5.175   7.373  1.2815  1.8863  0.5061
  186POPC  H15B21293   0.592   5.130   7.534 -0.3954  0.6140  0.1962
  186POPC  H15C21294   0.581   5.007   7.419 -2.6268  1.5104  0.4576
  186POPC   C1121295   0.760   5.342   7.288 -0.3747  0.2959 -0.2005
  186POPC  H11A21296   0.773   5.281   7.197 -1.0263  3.4166 -2.5566
  186POPC  H11B21297   0.818   5.436   7.277 -0.0446 -0.0842 -1.9102
  186POPC     P21298   0.558   5.452   7.416  0.0081 -0.0020  0.1596
  186POPC   O1321299   0.630   5.449   7.545 -0.1060  0.2223 -0.6060
  186POPC   O1421300   0.413   5.417   7.421  0.5303 -0.6800 -0.4635
  186POPC   O1221301   0.626   5.367   7.298  0.0260  0.0534  0.0477
  186POPC   O1121302   0.567   5.605   7.362  0.0051  0.0800  0.0619
  186POPC    C121303   0.472   5.705   7.396  0.1664  0.2738 -0.9633
  186POPC    HA21304   0.530   5.799   7.390 -1.1650  1.0935 -1.3806
  186POPC    HB21305   0.444   5.696   7.503 -0.6445 -1.0419 -1.2566
  186POPC    C221306   0.343   5.717   7.310 -0.2781  0.1797  0.1092
  186POPC    HS21307   0.271   5.636   7.334 -0.7485  0.1137 -1.4011
  186POPC   O2121308   0.376   5.727   7.170 -0.7923 -0.4894  0.1509
  186POPC   C2121309   0.295   5.684   7.078 -0.2273  0.7707 -0.4696
  186POPC   O2221310   0.183   5.639   7.107 -0.0316 -0.1005 -0.0608
  186POPC   C2221311   0.343   5.698   6.930  0.5197 -0.0292  0.2497
  186POPC   H2R21312   0.423   5.623   6.915 -0.0778 -0.4992 -0.7786
  186POPC   H2S21313   0.386   5.800   6.917 -1.3267  0.7178 -0.3524
  186POPC    C321314   0.268   5.843   7.350  0.3602  0.0970 -0.5735
  186POPC    HX21315   0.282   5.851   7.460  1.3189 -0.5277 -0.6393
  186POPC    HY21316   0.162   5.823   7.321 -0.4999 -1.4150  2.9873
  186POPC   O3121317   0.325   5.962   7.291  0.6453 -1.1004 -0.2177
  186POPC   C3121318   0.251   6.074   7.317 -0.1036  0.1884 -0.4999
  186POPC   O3221319   0.152   6.077   7.388 -0.2817  0.6570 -0.2825
  186POPC   C3221320   0.293   6.199   7.242 -0.8445  0.6120  0.7868
  186POPC   H2X21321   0.398   6.210   7.276 -0.7066 -0.9007  0.9348
  186POPC   H2Y21322   0.237   6.282   7.289 -0.0761  1.1217  0.8146
  186POPC   C2321323   0.229   5.678   6.825  0.4581  0.1960 -0.3260
  186POPC   H3R21324   0.167   5.770   6.833 -0.1541 -0.0205 -2.1658
  186POPC   H3S21325   0.167   5.587   6.811 -1.0066  1.5049 -3.1334
  186POPC   C2421326   0.275   5.678   6.677  0.4729 -0.4435  0.5193
  186POPC   H4R21327   0.317   5.577   6.655 -2.0622 -1.3827 -0.3827
  186POPC   H4S21328   0.342   5.763   6.655 -0.1929 -0.3297 -1.1702
  186POPC   C2521329   0.157   5.696   6.582 -0.9528 -0.1301 -0.1584
  186POPC   H5R21330   0.102   5.781   6.627  1.8437  0.5586  2.2908
  186POPC   H5S21331   0.096   5.603   6.575 -0.3770 -0.4758 -0.6813
  186POPC   C2621332   0.207   5.723   6.440  0.4739  0.4007  0.1432
  186POPC   H6R21333   0.274   5.640   6.409  1.6946  0.8457  1.4951
  186POPC   H6S21334   0.278   5.809   6.437  1.5504 -0.4827 -1.0441
  186POPC   C2721335   0.102   5.722   6.326  0.1345  0.4208  0.6122
  186POPC   H7R21336   0.009   5.773   6.363 -0.6573 -2.5701  3.2050
  186POPC   H7S21337   0.072   5.617   6.307  0.3692  0.0231  2.2564
  186POPC   C2821338   0.166   5.791   6.209  0.4862 -0.5777  0.1226
  186POPC   H8R21339   0.174   5.892   6.254 -3.7391 -0.0841  0.1700
  186POPC   H8S21340   0.093   5.810   6.128 -0.2594  0.1262  0.9397
  186POPC   C2921341   0.296   5.726   6.162  0.6254  0.5697 -0.0158
  186POPC   H9121342   0.361   5.682   6.239  0.2189  0.3975  0.2312
  186POPC  C21021343   0.335   5.716   6.031 -0.1754 -0.7414 -0.5625
  186POPC  H10121344   0.431   5.664   6.018 -0.1640 -0.8735  0.0113
  186POPC  C21121345   0.287   5.791   5.909 -0.0615  1.1922  0.4032
  186POPC  H11R21346   0.358   5.876   5.902  0.8644  0.3862 -0.3412
  186POPC  H11S21347   0.184   5.831   5.916 -0.8623 -0.3891 -1.3789
  186POPC  C21221348   0.292   5.705   5.779  0.5207  0.1421  0.4649
  186POPC  H12R21349   0.209   5.630   5.777  0.9492 -0.3410  0.6643
  186POPC  H12S21350   0.391   5.656   5.773  0.8810  0.8447  0.5738
  186POPC  C21321351   0.272   5.790   5.648 -0.4809  0.4014  0.3760
  186POPC  H13R21352   0.364   5.850   5.632 -1.4173  1.9461  0.5613
  186POPC  H13S21353   0.200   5.873   5.666  1.0412  2.4737 -2.2761
  186POPC  C21421354   0.226   5.699   5.531  0.0839  0.6333  0.5601
  186POPC  H14R21355   0.117   5.675   5.537  0.4026 -1.7238 -1.6539
  186POPC  H14S21356   0.283   5.605   5.528  2.6911  2.1548 -0.7373
  186POPC  C21521357   0.250   5.764   5.388  0.8027 -0.2849 -0.2612
  186POPC  H15R21358   0.358   5.790   5.390  1.0467 -1.2764 -0.4134
  186POPC  H15S21359   0.193   5.860   5.386  0.6933 -0.2794  1.5933
  186POPC  C21621360   0.205   5.687   5.260  0.1049  0.8330  0.1895
  186POPC  H16R21361   0.234   5.755   5.178 -0.2863  1.7063  0.7580
  186POPC  H16S21362   0.096   5.667   5.260  0.1957  0.2037 -1.7348
  186POPC  C21721363   0.262   5.542   5.253 -0.1709  0.6076 -0.0685
  186POPC  H17R21364   0.236   5.518   5.147 -0.4489 -0.6987  0.2797
  186POPC  H17S21365   0.199   5.500   5.334 -2.4889  0.4883 -1.7984
  186POPC  C21821366   0.417   5.525   5.283  0.3162 -0.3244  0.8776
  186POPC  H18R21367   0.447   5.554   5.386 -2.7847  2.3234  1.1990
  186POPC  H18S21368   0.469   5.600   5.221  1.3665 -0.9607  0.9628
  186POPC  H18T21369   0.448   5.421   5.261  0.9512 -0.1407  0.8918
  186POPC   C3321370   0.262   6.202   7.089  0.6477  0.0405  0.5251
  186POPC   H3X21371   0.273   6.306   7.050 -2.2806  0.3137  0.2391
  186POPC   H3Y21372   0.158   6.169   7.070  0.5678  1.5793 -2.2249
  186POPC   C3421373   0.363   6.114   7.012 -0.1282  0.5661  0.0416
  186POPC   H4X21374   0.386   6.028   7.079 -0.6723  0.7060  0.4189
  186POPC   H4Y21375   0.460   6.165   6.997  0.7875 -0.4535  2.1165
  186POPC   C3521376   0.310   6.059   6.871 -0.0689  0.2546  0.3474
  186POPC   H5X21377   0.218   5.998   6.878  0.1888 -0.0293  1.6558
  186POPC   H5Y21378   0.389   5.993   6.830  0.6958  1.4690 -0.1686
  186POPC   C3621379   0.290   6.165   6.764 -0.1569 -0.1869  0.0401
  186POPC   H6X21380   0.380   6.230   6.767 -1.5131  1.7501  0.8892
  186POPC   H6Y21381   0.206   6.233   6.791 -0.3912 -1.0047  1.4490
  186POPC   C3721382   0.246   6.108   6.629 -0.1316 -0.1211 -0.3112
  186POPC   H7X21383   0.160   6.046   6.662  0.6120 -1.1547 -0.2520
  186POPC   H7Y21384   0.329   6.045   6.590  1.2780  0.6228  1.3317
  186POPC   C3821385   0.201   6.210   6.524 -0.1757 -0.4412 -0.8063
  186POPC   H8X21386   0.270   6.297   6.527 -1.6942  0.8661  3.4161
  186POPC   H8Y21387   0.104   6.257   6.553  0.1405  0.8778 -1.8022
  186POPC   C3921388   0.187   6.158   6.382  0.4404  0.5918  0.0605
  186POPC   H9X21389   0.122   6.069   6.385  1.8971 -0.6142 -1.8162
  186POPC   H9Y21390   0.287   6.116   6.359 -0.9141 -3.2828  0.6127
  186POPC  C31021391   0.135   6.264   6.275  0.2848 -0.1713 -0.2123
  186POPC  H10X21392   0.214   6.342   6.267 -0.2569  0.3933 -0.1704
  186POPC  H10Y21393   0.038   6.311   6.300  0.0789  0.4184 -1.9383
  186POPC  C31121394   0.110   6.195   6.131  0.2412  0.2203  0.7163
  186POPC  H11X21395   0.040   6.110   6.142 -0.2374  0.8077  2.5019
  186POPC  H11Y21396   0.199   6.145   6.087 -1.0032 -0.9182 -0.5914
  186POPC  C31221397   0.057   6.304   6.032 -0.0796 -0.0864  0.4105
  186POPC  H12X21398   0.131   6.386   6.030  1.5685 -1.5013  1.3601
  186POPC  H12Y21399  -0.043   6.341   6.064  0.1242 -0.9612  2.1832
  186POPC  C31321400   0.053   6.250   5.888  0.2041 -0.3300  0.5853
  186POPC  H13X21401  -0.014   6.162   5.880  1.2497 -1.0609 -0.4380
  186POPC  H13Y21402   0.152   6.221   5.847  0.6537  0.1757  1.3052
  186POPC  C31421403  -0.006   6.355   5.792  0.3343  0.6526  0.0054
  186POPC  H14X21404   0.064   6.440   5.801 -1.0895  1.9118 -0.3534
  186POPC  H14Y21405  -0.106   6.398   5.816  0.4720  0.3839  1.1440
  186POPC  C31521406   0.001   6.309   5.645 -0.1146  0.7199 -1.1111
  186POPC  H15X21407  -0.055   6.213   5.635  0.8061 -0.0986  0.8295
  186POPC  H15Y21408   0.101   6.267   5.623  0.4409  2.3501 -1.8629
  186POPC  C31621409  -0.032   6.417   5.545 -0.8025  0.2570 -0.1303
  186POPC  H16X21410   0.003   6.396   5.442  0.3135 -2.1699  0.6715
  186POPC  H16Y21411   0.033   6.503   5.572  1.8979 -1.9189  0.8316
  186POPC  H16Z21412  -0.139   6.443   5.536 -0.7715  0.5240  0.2505
  187POPC     N21413   6.248   5.839   2.467 -0.0024  0.0217 -0.4291
  187POPC   C1221414   6.298   5.752   2.579 -0.5603 -0.2949  0.3215
  187POPC  H12A21415   6.387   5.795   2.621  0.4056 -0.9177 -1.0218
  187POPC  H12B21416   6.332   5.658   2.537  1.3739  0.3188  0.4501
  187POPC   C1321417   6.339   5.821   2.346  0.4714  0.0910  0.0315
  187POPC  H13A21418   6.295   5.878   2.265 -0.1532 -1.1696 -0.5313
  187POPC  H13B21419   6.443   5.843   2.363  1.3148 -1.5089 -2.6163
  187POPC  H13C21420   6.337   5.716   2.324 -1.0279  0.1235 -0.0958
  187POPC   C1421421   6.118   5.789   2.438 -0.1294 -0.0825  0.0573
  187POPC  H14A21422   6.123   5.693   2.387 -0.1018  0.6914 -1.4712
  187POPC  H14B21423   6.060   5.786   2.529 -2.2323 -0.6956 -1.2280
  187POPC  H14C21424   6.068   5.851   2.364  0.7704 -1.2351 -1.6040
  187POPC   C1521425   6.240   5.985   2.510 -0.2381 -1.1084 -0.0755
  187POPC  H15A21426   6.337   6.030   2.520 -0.9090  1.0446 -2.2786
  187POPC  H15B21427   6.168   6.015   2.586  0.4610 -1.6287  0.8166
  187POPC  H15C21428   6.195   6.041   2.430 -0.1846  0.9016  1.2276
  187POPC   C1121429   6.207   5.722   2.705 -0.3390  0.2830  0.7857
  187POPC  H11A21430   6.250   5.637   2.762  3.1939  1.2599 -0.1555
  187POPC  H11B21431   6.115   5.672   2.670 -0.8039  0.0680  2.2198
  187POPC     P21432   6.296   5.917   2.853 -0.1363  0.0838 -0.0620
  187POPC   O1321433   6.260   6.057   2.882 -0.2411 -0.1909 -0.0775
  187POPC   O1421434   6.428   5.898   2.787 -0.0386  0.0862 -0.0103
  187POPC   O1221435   6.176   5.840   2.785  0.1379 -0.5137  0.1671
  187POPC   O1121436   6.311   5.848   2.997  0.2225 -0.2623  0.4608
  187POPC    C121437   6.249   5.731   3.034  0.4534  0.3036  0.2082
  187POPC    HA21438   6.267   5.647   2.963  1.4064  0.4336  0.2957
  187POPC    HB21439   6.139   5.750   3.029  0.7415  1.8943 -0.6334
  187POPC    C221440   6.269   5.688   3.180 -0.1085  0.4325 -0.6727
  187POPC    HS21441   6.242   5.778   3.240 -1.2081  0.8562 -1.7489
  187POPC   O2121442   6.407   5.651   3.185  0.6308  0.0116  0.1500
  187POPC   C2121443   6.472   5.692   3.297 -0.1458 -0.5506 -0.3040
  187POPC   O2221444   6.419   5.749   3.392  0.0603  0.0392 -0.9610
  187POPC   C2221445   6.615   5.646   3.280  0.0453  0.3516  0.4268
  187POPC   H2R21446   6.654   5.720   3.207 -1.3258  2.0475  1.3284
  187POPC   H2S21447   6.633   5.542   3.247 -0.3185  0.1643  0.8199
  187POPC    C321448   6.184   5.565   3.213  0.0965  0.0715  0.2311
  187POPC    HX21449   6.215   5.480   3.148  0.3521 -0.2068  0.7036
  187POPC    HY21450   6.077   5.578   3.190  0.1077 -2.9710 -2.2899
  187POPC   O3121451   6.214   5.520   3.344  0.1240 -0.0812 -0.0335
  187POPC   C3121452   6.158   5.586   3.442 -1.0268  0.4469  1.1374
  187POPC   O3221453   6.076   5.676   3.428  0.2169 -0.2612 -1.0927
  187POPC   C3221454   6.200   5.527   3.577 -0.5731 -0.0606 -0.4495
  187POPC   H2X21455   6.305   5.550   3.606  0.1577 -0.9305 -2.2350
  187POPC   H2Y21456   6.187   5.418   3.560 -0.2925  0.0370 -1.3304
  187POPC   C2321457   6.687   5.672   3.409 -0.7902  0.2791 -0.7638
  187POPC   H3R21458   6.687   5.777   3.446 -1.3982 -0.2085  0.6682
  187POPC   H3S21459   6.793   5.659   3.377 -0.6460  2.0410 -1.1156
  187POPC   C2421460   6.639   5.585   3.529 -0.1321 -0.0121 -0.9888
  187POPC   H4R21461   6.657   5.478   3.506  1.6709 -0.9343  3.5636
  187POPC   H4S21462   6.530   5.596   3.548 -0.2414  2.2803 -2.4672
  187POPC   C2521463   6.706   5.614   3.658 -0.2670  0.3603 -0.1633
  187POPC   H5R21464   6.683   5.717   3.694 -3.2874 -0.8080  1.6585
  187POPC   H5S21465   6.816   5.602   3.657  0.0180  1.8425  2.3861
  187POPC   C2621466   6.659   5.539   3.784 -0.2795 -0.2688  0.7231
  187POPC   H6R21467   6.692   5.434   3.776  1.2642  0.1286  1.5802
  187POPC   H6S21468   6.548   5.543   3.782 -0.3239 -1.1746 -0.9437
  187POPC   C2721469   6.721   5.596   3.911  0.6073 -0.4077  0.8378
  187POPC   H7R21470   6.671   5.694   3.923  2.9232  1.2364 -1.6560
  187POPC   H7S21471   6.826   5.620   3.883  0.2532  0.5869  0.3353
  187POPC   C2821472   6.701   5.511   4.034  0.1174  0.4023  0.4756
  187POPC   H8R21473   6.773   5.521   4.118 -0.2210 -0.0810  0.8229
  187POPC   H8S21474   6.735   5.413   3.995  0.9355  0.8235  0.0966
  187POPC   C2921475   6.561   5.506   4.090  0.3777  0.3111  0.4964
  187POPC   H9121476   6.494   5.446   4.027 -0.4288  0.6066  1.0589
  187POPC  C21021477   6.516   5.545   4.209 -0.2825  0.8712 -0.3460
  187POPC  H10121478   6.409   5.525   4.225 -0.6328 -0.2346 -3.3223
  187POPC  C21121479   6.589   5.602   4.325 -0.9965  0.1111  0.2372
  187POPC  H11R21480   6.578   5.712   4.331 -0.8313  0.1152  0.4727
  187POPC  H11S21481   6.698   5.580   4.318 -1.1168 -0.6174  0.5063
  187POPC  C21221482   6.557   5.533   4.463  0.3619 -0.5009  0.3703
  187POPC  H12R21483   6.599   5.431   4.478  2.1264  0.0738 -0.4099
  187POPC  H12S21484   6.446   5.525   4.473  0.4696 -0.1823  2.0230
  187POPC  C21321485   6.607   5.626   4.580  0.2310  0.2816 -0.7280
  187POPC  H13R21486   6.553   5.723   4.573 -1.3091 -0.5562 -0.8215
  187POPC  H13S21487   6.717   5.637   4.568  0.2849  0.1589 -0.3445
  187POPC  C21421488   6.565   5.565   4.716 -0.0367 -0.6886  0.5697
  187POPC  H14R21489   6.615   5.466   4.721 -0.6763 -0.9833  1.2337
  187POPC  H14S21490   6.457   5.540   4.709  0.0860 -0.9874 -0.5662
  187POPC  C21521491   6.601   5.653   4.831 -0.3321  0.0109  0.0682
  187POPC  H15R21492   6.534   5.741   4.840 -2.1645 -1.4420  1.2421
  187POPC  H15S21493   6.704   5.686   4.805  0.2460 -2.2178 -0.6302
  187POPC  C21621494   6.592   5.577   4.960  0.0864  0.5086  0.3818
  187POPC  H16R21495   6.649   5.483   4.944 -0.6699  0.1368 -0.1956
  187POPC  H16S21496   6.487   5.542   4.973  0.1042  0.3230  0.0186
  187POPC  C21721497   6.634   5.653   5.079  0.0378 -0.5097  0.2178
  187POPC  H17R21498   6.569   5.741   5.096  2.0456  0.7914  1.6994
  187POPC  H17S21499   6.728   5.708   5.058 -1.4897  1.3476 -2.1508
  187POPC  C21821500   6.637   5.565   5.205 -0.6592  0.2038 -0.2975
  187POPC  H18R21501   6.688   5.467   5.189  0.2909  0.3838  1.3119
  187POPC  H18S21502   6.533   5.540   5.232 -0.6671  0.3329 -0.2066
  187POPC  H18T21503   6.685   5.611   5.295 -0.0663 -0.6044 -0.1810
  187POPC   C3321504   6.112   5.582   3.690  1.1342 -0.3253 -0.3249
  187POPC   H3X21505   6.008   5.554   3.662  1.0706 -2.1298  1.5525
  187POPC   H3Y21506   6.118   5.693   3.694 -2.0812 -0.1003  1.0606
  187POPC   C3421507   6.155   5.533   3.831 -0.0230  0.6244  0.7328
  187POPC   H4X21508   6.263   5.557   3.834 -0.1256  1.1915  0.0588
  187POPC   H4Y21509   6.134   5.424   3.832 -1.9887  0.8395 -2.6266
  187POPC   C3521510   6.090   5.602   3.951  0.0258  0.5148 -0.4867
  187POPC   H5X21511   5.980   5.600   3.938  0.1288 -0.2945 -1.2542
  187POPC   H5Y21512   6.140   5.702   3.955  0.8360  0.1223 -0.6578
  187POPC   C3621513   6.118   5.520   4.087 -0.4648 -0.7441  0.2044
  187POPC   H6X21514   6.225   5.490   4.079 -0.6195 -1.5105  0.9111
  187POPC   H6Y21515   6.055   5.429   4.090 -0.7010 -0.6441 -1.0888
  187POPC   C3721516   6.107   5.614   4.208  0.3838 -0.3809  0.5157
  187POPC   H7X21517   6.007   5.662   4.204  0.3666 -0.4707 -0.4478
  187POPC   H7Y21518   6.187   5.690   4.191 -2.1248  1.9352 -2.1738
  187POPC   C3821519   6.127   5.545   4.344 -0.1179 -0.3625  0.0119
  187POPC   H8X21520   6.221   5.485   4.333  0.6450  0.6142  0.9986
  187POPC   H8Y21521   6.043   5.475   4.361  0.5692 -0.6571  2.5036
  187POPC   C3921522   6.141   5.639   4.465  0.1285  0.3498 -0.3290
  187POPC   H9X21523   6.052   5.705   4.461 -2.4804 -2.8460  0.2772
  187POPC   H9Y21524   6.232   5.703   4.462  2.1327 -2.1980  1.6581
  187POPC  C31021525   6.155   5.571   4.602 -0.3062 -0.4782 -0.0238
  187POPC  H10X21526   6.171   5.651   4.677 -1.3337  1.1186 -1.4363
  187POPC  H10Y21527   6.244   5.505   4.595 -1.0283 -1.5616  0.6374
  187POPC  C31121528   6.026   5.515   4.657 -0.0295  0.7346 -0.2193
  187POPC  H11X21529   5.988   5.432   4.593 -0.6877  0.6012  0.3331
  187POPC  H11Y21530   5.948   5.594   4.658  0.5599  1.3296  1.3449
  187POPC  C31221531   6.030   5.469   4.799  0.2821 -0.0516 -0.5047
  187POPC  H12X21532   6.023   5.555   4.868  0.9609 -0.0492 -0.4343
  187POPC  H12Y21533   6.136   5.441   4.817  0.3086  0.7803  0.7360
  187POPC  C31321534   5.947   5.354   4.841  0.4164 -0.1604 -0.3520
  187POPC  H13X21535   5.953   5.280   4.759  1.4458 -0.1716 -0.2777
  187POPC  H13Y21536   5.838   5.372   4.846 -0.2812 -3.5716 -1.0009
  187POPC  C31421537   5.985   5.306   4.986 -0.2197  0.4378  0.0720
  187POPC  H14X21538   5.903   5.246   5.032  0.9863  0.7588  2.7775
  187POPC  H14Y21539   5.997   5.385   5.062 -0.6770  0.4547  0.1324
  187POPC  C31521540   6.107   5.208   4.989  0.7119 -0.1923 -0.4100
  187POPC  H15X21541   6.196   5.267   4.959  0.5857 -0.1504 -0.7159
  187POPC  H15Y21542   6.094   5.134   4.907 -1.0541  0.1652 -0.5065
  187POPC  C31621543   6.113   5.123   5.117 -0.7563 -0.1353 -0.0321
  187POPC  H16X21544   6.112   5.187   5.209  1.2063 -1.4194  0.9528
  187POPC  H16Y21545   6.215   5.080   5.124 -0.4795  0.7028  1.8953
  187POPC  H16Z21546   6.043   5.037   5.116  1.2538 -1.8819 -2.1285
  188POPC     N21547   3.376   2.514   2.401 -0.2106  0.0947 -0.1503
  188POPC   C1221548   3.477   2.629   2.422  0.5414  0.2003 -0.4357
  188POPC  H12A21549   3.422   2.720   2.440 -0.0221 -0.2145  0.0050
  188POPC  H12B21550   3.519   2.653   2.326  0.5716  1.1541 -0.1958
  188POPC   C1321551   3.442   2.397   2.338 -0.0774  0.3341 -0.1705
  188POPC  H13A21552   3.530   2.365   2.391  1.3458  1.1276 -1.9352
  188POPC  H13B21553   3.373   2.315   2.327 -0.1303  0.3930 -0.2903
  188POPC  H13C21554   3.471   2.415   2.235 -1.9958 -1.6249 -1.1228
  188POPC   C1421555   3.323   2.482   2.537 -0.2259 -0.0612  0.0853
  188POPC  H14A21556   3.259   2.395   2.533  1.2672 -1.4298  2.8847
  188POPC  H14B21557   3.416   2.465   2.589  1.7354  1.4602 -2.6420
  188POPC  H14C21558   3.271   2.569   2.575  0.6441  0.6882 -0.3960
  188POPC   C1521559   3.260   2.548   2.312 -0.5327  0.5969 -0.9713
  188POPC  H15A21560   3.194   2.463   2.306 -1.3485  1.2370 -1.1949
  188POPC  H15B21561   3.291   2.569   2.211  0.2427  0.6305 -0.7300
  188POPC  H15C21562   3.208   2.636   2.346  1.2713  1.4097 -0.1847
  188POPC   C1121563   3.598   2.609   2.516 -0.5221 -0.4504 -0.2580
  188POPC  H11A21564   3.552   2.593   2.616  1.1475  1.7645  0.9509
  188POPC  H11B21565   3.653   2.704   2.532  1.4291 -1.5218 -0.3682
  188POPC     P21566   3.793   2.414   2.558 -0.0120 -0.4479  0.0539
  188POPC   O1321567   3.922   2.409   2.487  0.1136  0.4207  0.1334
  188POPC   O1421568   3.724   2.294   2.593  0.0183 -0.5523  0.3048
  188POPC   O1221569   3.692   2.508   2.485  0.3118  0.3550 -0.1196
  188POPC   O1121570   3.817   2.481   2.701  0.2105 -0.4349 -0.2527
  188POPC    C121571   3.886   2.606   2.711 -0.3338  0.6764 -0.1736
  188POPC    HA21572   3.861   2.677   2.630 -0.0521  0.9474 -0.0265
  188POPC    HB21573   3.995   2.588   2.697 -0.7223 -0.6028 -1.8028
  188POPC    C221574   3.857   2.679   2.847 -0.2075  0.5531  0.0841
  188POPC    HS21575   3.889   2.784   2.833 -1.0909  0.7433 -0.5084
  188POPC   O2121576   3.934   2.614   2.948 -0.1832  0.0186 -0.0301
  188POPC   C2121577   3.951   2.689   3.058 -0.4959  0.6423 -0.6280
  188POPC   O2221578   3.924   2.808   3.066  0.4731  0.6922 -0.0273
  188POPC   C2221579   4.023   2.606   3.167  0.1783 -0.1411  0.5379
  188POPC   H2R21580   4.037   2.671   3.256  0.4092  3.1135 -1.7181
  188POPC   H2S21581   4.117   2.562   3.128 -0.0358 -1.0198  0.9923
  188POPC    C321582   3.706   2.674   2.885  0.0100 -0.0737 -0.3173
  188POPC    HX21583   3.674   2.573   2.918 -0.8420  0.8832  1.9518
  188POPC    HY21584   3.655   2.690   2.788 -1.0667 -1.7882 -0.0834
  188POPC   O3121585   3.664   2.769   2.988 -0.4743 -0.0021  0.7249
  188POPC   C3121586   3.677   2.900   2.949  0.0141  0.5579  0.5342
  188POPC   O3221587   3.719   2.938   2.841  1.0086  0.0289 -0.3278
  188POPC   C3221588   3.600   2.986   3.050 -0.4080 -0.1809 -0.1959
  188POPC   H2X21589   3.508   2.931   3.077  0.2639 -1.3134 -0.1834
  188POPC   H2Y21590   3.565   3.072   2.988  1.1264  0.3269 -0.3897
  188POPC   C2321591   3.935   2.487   3.203 -0.0602  0.4819 -0.6300
  188POPC   H3R21592   3.928   2.422   3.113  2.8015  0.0269 -0.6271
  188POPC   H3S21593   3.838   2.517   3.247  1.7639  0.2543  4.1484
  188POPC   C2421594   3.999   2.405   3.313  0.2834 -0.3697  0.0293
  188POPC   H4R21595   4.103   2.374   3.288  0.1231 -0.2654 -0.7703
  188POPC   H4S21596   3.938   2.315   3.338  0.2748  0.3151  2.8735
  188POPC   C2521597   4.006   2.472   3.459 -0.0962  0.1270  0.5218
  188POPC   H5R21598   3.907   2.520   3.474  0.4037  2.2311 -2.0827
  188POPC   H5S21599   4.081   2.554   3.471 -0.0289  0.0466  0.6542
  188POPC   C2621600   4.041   2.371   3.574  0.8576  0.4431  0.4397
  188POPC   H6R21601   4.031   2.267   3.537  2.9165  0.9358 -1.7353
  188POPC   H6S21602   3.958   2.379   3.648 -0.3429 -1.4536 -0.6192
  188POPC   C2721603   4.178   2.386   3.641  0.4924  0.2836  0.0713
  188POPC   H7R21604   4.204   2.487   3.679  0.7885  0.5279 -0.7556
  188POPC   H7S21605   4.254   2.363   3.563 -0.9227 -2.2426 -0.6901
  188POPC   C2821606   4.182   2.279   3.751  0.2685 -0.5149 -0.0689
  188POPC   H8R21607   4.175   2.184   3.695 -1.0421  0.3408 -1.4403
  188POPC   H8S21608   4.083   2.280   3.802 -0.2422 -2.7270 -0.9211
  188POPC   C2921609   4.300   2.293   3.842  0.0616 -0.8626 -0.5919
  188POPC   H9121610   4.384   2.345   3.793  1.2256 -0.3249  1.8076
  188POPC  C21021611   4.310   2.271   3.972  0.0367 -0.3790  0.1663
  188POPC  H10121612   4.399   2.311   4.023 -0.4350  1.4402 -0.3561
  188POPC  C21121613   4.207   2.218   4.068 -0.1511  0.3841 -0.3212
  188POPC  H11R21614   4.180   2.113   4.044  1.0460  0.5330 -2.5870
  188POPC  H11S21615   4.114   2.278   4.057 -1.0341 -1.1366 -1.6736
  188POPC  C21221616   4.245   2.220   4.214 -0.3001 -0.4497 -0.8458
  188POPC  H12R21617   4.337   2.158   4.219  1.4543  2.0291 -0.5119
  188POPC  H12S21618   4.168   2.173   4.280 -0.1254  0.4474  0.0293
  188POPC  C21321619   4.286   2.352   4.278 -0.0835  0.3711 -0.0819
  188POPC  H13R21620   4.200   2.419   4.255  0.9978  1.0324 -2.5284
  188POPC  H13S21621   4.377   2.393   4.229  1.7540 -2.4715  0.6964
  188POPC  C21421622   4.302   2.340   4.427 -0.3480  0.2976  0.1517
  188POPC  H14R21623   4.406   2.304   4.446 -0.2762  0.3874 -0.0718
  188POPC  H14S21624   4.228   2.265   4.463 -1.4243  0.3855 -1.7675
  188POPC  C21521625   4.292   2.478   4.499  0.1176 -0.0010 -0.3002
  188POPC  H15R21626   4.201   2.530   4.463  0.9308  1.6580 -0.0599
  188POPC  H15S21627   4.377   2.536   4.459 -0.4819  0.0218 -1.5672
  188POPC  C21621628   4.294   2.457   4.651 -0.2933 -0.3982  0.3546
  188POPC  H16R21629   4.394   2.481   4.692 -0.3932 -0.7069  0.7844
  188POPC  H16S21630   4.272   2.352   4.679  0.1754 -0.4796  0.4265
  188POPC  C21721631   4.191   2.553   4.716  0.3198 -0.1532 -0.1291
  188POPC  H17R21632   4.145   2.510   4.808  0.4006 -0.7619 -0.3657
  188POPC  H17S21633   4.112   2.579   4.642  0.0085  1.1020  0.6146
  188POPC  C21821634   4.251   2.697   4.758  0.2577  0.4134  0.8145
  188POPC  H18R21635   4.299   2.739   4.667  0.3489 -0.8747  0.2495
  188POPC  H18S21636   4.331   2.679   4.833  0.2278 -0.5970  0.6137
  188POPC  H18T21637   4.170   2.759   4.801 -1.3083  0.5379 -2.0591
  188POPC   C3321638   3.682   3.022   3.178  0.2390  1.1985  0.0644
  188POPC   H3X21639   3.647   3.125   3.202  0.9262  1.4143  0.1545
  188POPC   H3Y21640   3.790   3.029   3.155  0.3620 -0.8204 -0.0998
  188POPC   C3421641   3.653   2.930   3.294 -0.3484 -0.1672  0.2450
  188POPC   H4X21642   3.671   2.824   3.266  2.2551  0.4999 -0.9128
  188POPC   H4Y21643   3.549   2.945   3.330  0.1782 -0.5651  2.0789
  188POPC   C3521644   3.747   2.962   3.411  0.2997  0.1311  0.1806
  188POPC   H5X21645   3.743   3.071   3.434 -1.6525 -0.1276  1.3752
  188POPC   H5Y21646   3.847   2.929   3.377  0.4277 -0.8167  1.3803
  188POPC   C3621647   3.712   2.886   3.542  0.9266 -0.4086 -0.6104
  188POPC   H6X21648   3.690   2.783   3.509  2.8104 -0.4143 -2.0303
  188POPC   H6Y21649   3.611   2.919   3.576  0.0975 -0.3304 -2.9876
  188POPC   C3721650   3.823   2.892   3.639  0.2915 -0.5480  0.0963
  188POPC   H7X21651   3.853   2.997   3.660 -1.8457  0.0935  0.2002
  188POPC   H7Y21652   3.908   2.856   3.577  0.9008 -0.1574  0.6895
  188POPC   C3821653   3.807   2.813   3.765 -0.3161  0.8537  0.0595
  188POPC   H8X21654   3.703   2.826   3.801 -0.7380 -0.7528 -0.4686
  188POPC   H8Y21655   3.875   2.851   3.845 -0.7922  0.5080  0.6369
  188POPC   C3921656   3.845   2.663   3.767  0.3624  0.5345  0.6490
  188POPC   H9X21657   3.953   2.660   3.739  0.3615 -0.5490  0.7394
  188POPC   H9Y21658   3.794   2.606   3.687  2.5253 -1.4863  0.6100
  188POPC  C31021659   3.814   2.579   3.893  0.0297 -0.2731  0.5870
  188POPC  H10X21660   3.861   2.485   3.858  0.2233 -0.1159  0.4236
  188POPC  H10Y21661   3.704   2.568   3.892 -0.1318  0.7449  2.4132
  188POPC  C31121662   3.845   2.620   4.030  0.0873  0.1903  0.7744
  188POPC  H11X21663   3.794   2.544   4.092 -0.7509  0.7335  0.7604
  188POPC  H11Y21664   3.795   2.713   4.065 -2.4642 -1.5059  1.8862
  188POPC  C31221665   3.997   2.643   4.063  0.4238  0.1481  0.1143
  188POPC  H12X21666   4.030   2.733   4.009 -0.8699  0.7059  0.2173
  188POPC  H12Y21667   4.049   2.551   4.029 -1.3299 -0.1251 -2.0828
  188POPC  C31321668   4.021   2.674   4.213  0.4813 -0.0077  0.2356
  188POPC  H13X21669   4.126   2.707   4.226  1.6428 -2.8546 -0.8755
  188POPC  H13Y21670   3.991   2.592   4.282 -0.8024  0.7806  0.6461
  188POPC  C31421671   3.941   2.795   4.263 -0.3157  0.0842 -0.2669
  188POPC  H14X21672   3.843   2.752   4.292  0.0478 -0.6776 -0.1341
  188POPC  H14Y21673   3.933   2.872   4.184  0.0992  1.6365  1.1515
  188POPC  C31521674   4.002   2.863   4.386  0.3389 -0.4322  0.1514
  188POPC  H15X21675   4.075   2.929   4.335 -1.1271  0.5792 -0.7335
  188POPC  H15Y21676   4.039   2.788   4.458 -0.6262  2.1308  3.5688
  188POPC  C31621677   3.909   2.955   4.460  0.4403  0.4800 -0.7444
  188POPC  H16X21678   3.845   2.902   4.534 -2.3201  1.8326 -2.0359
  188POPC  H16Y21679   3.855   3.023   4.392  0.4131  2.4715  1.1731
  188POPC  H16Z21680   3.962   3.024   4.529 -0.7879  0.1892  0.5454
  189SAPI   C1221681   5.554   1.146   7.418 -0.1692  0.0315  0.3640
  189SAPI    H221682   5.636   1.165   7.345 -2.4361 -2.7221 -3.2369
  189SAPI    O221683   5.597   1.050   7.512  0.2622  0.6244 -0.3768
  189SAPI   HO221684   5.617   0.964   7.475  0.5155 -1.3957  3.8203
  189SAPI   C1321685   5.513   1.274   7.486  0.5407 -0.0170  0.3568
  189SAPI    H321686   5.489   1.338   7.398 -0.3458  0.7755  1.1425
  189SAPI    O321687   5.616   1.338   7.550  0.5931 -0.3359  0.2397
  189SAPI   HO321688   5.644   1.277   7.619 -2.7871 -0.5131  1.6940
  189SAPI   C1421689   5.388   1.254   7.576  0.1497 -0.4963  0.0620
  189SAPI    H421690   5.422   1.187   7.657 -1.2453 -2.6764 -1.0652
  189SAPI    O421691   5.340   1.373   7.638  0.3362 -0.9072  0.4036
  189SAPI   HO421692   5.330   1.351   7.731  1.0177  0.5430  0.8650
  189SAPI   C1521693   5.270   1.188   7.505 -0.0566  0.2778  0.9006
  189SAPI    H521694   5.216   1.259   7.439 -0.2965 -1.0458 -0.3825
  189SAPI    O521695   5.164   1.147   7.594 -0.0751 -0.2353 -0.1004
  189SAPI   HO521696   5.097   1.214   7.582  1.4015  2.3220  3.7612
  189SAPI   C1621697   5.310   1.072   7.414 -1.2996 -0.4629 -0.2726
  189SAPI    H621698   5.347   0.990   7.479 -0.3385  1.0339  1.1340
  189SAPI    O621699   5.204   1.029   7.329 -0.5627 -0.1794 -0.4018
  189SAPI   HO621700   5.231   1.028   7.237  1.3693  0.2170  0.1203
  189SAPI   C1121701   5.440   1.097   7.331  0.0414  0.1289 -0.1972
  189SAPI    H121702   5.420   1.181   7.261 -0.1044  0.0444 -0.2579
  189SAPI     P21703   5.454   0.958   7.104  0.4493  0.2271 -0.2366
  189SAPI   O1321704   5.327   1.025   7.074  0.9688 -0.7508  0.1853
  189SAPI   O1421705   5.457   0.805   7.086  0.0601 -0.2272  0.3143
  189SAPI   O1221706   5.492   0.981   7.262 -0.1630  0.0799  0.0864
  189SAPI   O1121707   5.578   1.005   7.016 -0.2246  0.5490 -0.1986
  189SAPI    C121708   5.568   1.142   6.968  0.4772  0.1868 -0.3218
  189SAPI    HA21709   5.538   1.218   7.044 -0.9439 -0.4539 -0.2015
  189SAPI    HB21710   5.674   1.171   6.951  1.3143 -2.7501 -0.6927
  189SAPI    C221711   5.489   1.133   6.827 -0.2481  0.0955  0.0994
  189SAPI    HS21712   5.385   1.110   6.857 -0.0626  1.1204  1.5808
  189SAPI   O2121713   5.545   1.039   6.733  0.0906  0.4775  0.0023
  189SAPI   C2121714   5.480   0.923   6.730 -0.1366  0.0547  0.1791
  189SAPI   O2221715   5.371   0.901   6.782 -0.0529 -0.0820  0.0761
  189SAPI   C2221716   5.558   0.809   6.671 -0.3861 -0.9472  0.2937
  189SAPI   H2R21717   5.587   0.849   6.572 -0.0853 -0.4997  0.5578
  189SAPI   H2S21718   5.652   0.810   6.730  0.4586 -0.2838 -1.0222
  189SAPI    C321719   5.495   1.273   6.760  0.0309  0.1559 -0.2671
  189SAPI    HX21720   5.601   1.286   6.727  0.4897  2.1672  1.7406
  189SAPI    HY21721   5.476   1.347   6.841  0.3890  1.9396 -1.7441
  189SAPI   O3121722   5.403   1.285   6.655  0.5080  0.2110 -0.1089
  189SAPI   C3121723   5.439   1.366   6.556  0.2641  0.4245  0.0482
  189SAPI   O3221724   5.543   1.430   6.551 -0.5056 -0.3060  0.0414
  189SAPI   C3221725   5.322   1.372   6.462  0.0813 -0.3872 -0.3154
  189SAPI   H2X21726   5.243   1.440   6.502  0.2872 -1.3453  1.8132
  189SAPI   H2Y21727   5.285   1.269   6.448  1.5829 -0.9465 -0.2931
  189SAPI   C2321728   5.487   0.677   6.659  0.4863 -0.1341 -0.2501
  189SAPI   H3R21729   5.380   0.693   6.634  0.8703  3.6394 -0.0007
  189SAPI   H3S21730   5.488   0.645   6.765  1.2385  0.8308  0.0456
  189SAPI   C2421731   5.557   0.574   6.570  0.3251  0.0048 -0.0134
  189SAPI   H4R21732   5.516   0.473   6.589 -1.1877  0.3489 -1.2306
  189SAPI   H4S21733   5.666   0.566   6.591  0.6384 -1.5786 -1.9442
  189SAPI   C2521734   5.549   0.616   6.425  0.2320  0.1970 -0.2428
  189SAPI   H5R21735   5.455   0.673   6.409  0.8958  1.8592  1.3993
  189SAPI   C2621736   5.639   0.605   6.328 -0.1413  0.1822 -0.2422
  189SAPI   H6R21737   5.600   0.617   6.226 -0.9935 -1.0980 -0.1017
  189SAPI   C2721738   5.775   0.541   6.329 -0.0729 -0.1147  0.5345
  189SAPI   H7R21739   5.781   0.492   6.229 -0.2399  1.2227 -0.1574
  189SAPI   H7S21740   5.779   0.460   6.404 -0.2658 -0.1535  0.5029
  189SAPI   C2821741   5.886   0.644   6.350 -0.2076  0.0747  0.1551
  189SAPI   H8R21742   5.924   0.657   6.452 -1.8110 -1.2000  0.9555
  189SAPI   C2921743   5.942   0.734   6.262 -0.3890 -0.0741  0.4554
  189SAPI   H9R21744   6.021   0.799   6.302 -0.2228  0.7732 -1.1767
  189SAPI  C21021745   5.914   0.733   6.118 -0.3464 -0.3100 -0.3205
  189SAPI  H10R21746   5.839   0.811   6.095  1.9582  2.8958  2.0881
  189SAPI  H10S21747   5.874   0.633   6.093 -3.2795 -0.0435  2.7030
  189SAPI  C21121748   6.030   0.747   6.013  0.1784  0.4087  0.6461
  189SAPI  H11R21749   6.069   0.656   5.965 -0.2023  1.3688 -1.5723
  189SAPI  C21221750   6.079   0.865   5.961  0.6802  0.5307  0.5262
  189SAPI  H12R21751   6.174   0.857   5.906  1.0681  2.4788  0.8563
  189SAPI  C21321752   6.055   1.000   6.018  0.3139  0.4786 -0.8416
  189SAPI  H13R21753   6.147   1.047   6.058 -1.1675  1.8033  1.2246
  189SAPI  H13S21754   5.988   0.998   6.107  1.3257  1.7282 -0.0144
  189SAPI  C21421755   5.994   1.094   5.923 -0.0034 -0.1392  0.1322
  189SAPI  H14R21756   5.895   1.064   5.886  0.2063  0.9430 -1.4304
  189SAPI  C21521757   6.050   1.203   5.872  0.5169  0.6562 -0.1616
  189SAPI  H15R21758   5.989   1.258   5.799 -1.9151 -1.1383  0.4234
  189SAPI  C21621759   6.187   1.261   5.897 -0.4782 -0.1660 -0.6994
  189SAPI  H16R21760   6.226   1.307   5.804 -2.3632  1.2420 -0.8345
  189SAPI  H16S21761   6.257   1.174   5.904  1.4111  1.2459 -1.2562
  189SAPI  C21721762   6.193   1.366   6.011 -1.2754  0.7251  0.5621
  189SAPI  H17R21763   6.116   1.336   6.086 -1.3081 -3.4589 -0.8774
  189SAPI  H17S21764   6.167   1.467   5.972  2.0463  2.1467  1.6328
  189SAPI  C21821765   6.325   1.354   6.083  0.4658 -1.0388 -0.3814
  189SAPI  H18R21766   6.416   1.389   6.029  1.4007 -1.1864  1.0520
  189SAPI  H18S21767   6.336   1.245   6.102 -0.2977 -1.2478 -1.0580
  189SAPI  C21921768   6.310   1.436   6.213  0.4305  0.4597  0.3131
  189SAPI  H19R21769   6.234   1.394   6.283  1.7179 -2.2892  0.1843
  189SAPI  H19S21770   6.274   1.540   6.197 -1.3610 -0.5426 -2.8993
  189SAPI  C22021771   6.439   1.446   6.289  0.1138  0.2024 -0.2279
  189SAPI  H20R21772   6.433   1.515   6.375 -1.3296 -0.7202  0.4653
  189SAPI  H20S21773   6.526   1.490   6.236  0.5188 -0.4542 -0.1194
  189SAPI  H20T21774   6.480   1.353   6.335  2.2391  1.2902  0.1983
  189SAPI   C3321775   5.346   1.433   6.322 -0.1835  0.1697 -0.5725
  189SAPI   H3X21776   5.445   1.406   6.278  0.0103 -0.8584  0.4405
  189SAPI   H3Y21777   5.339   1.542   6.343 -2.2747  0.0360 -0.4110
  189SAPI   C3421778   5.227   1.403   6.227 -0.3971  0.1494 -0.2300
  189SAPI   H4X21779   5.131   1.435   6.271 -0.3151  0.9937 -0.6438
  189SAPI   H4Y21780   5.222   1.296   6.197 -0.0269  0.1148 -0.1793
  189SAPI   C3521781   5.238   1.500   6.106  0.2511 -0.0033  0.0574
  189SAPI   H5X21782   5.337   1.516   6.059  0.1289 -1.6863 -0.8732
  189SAPI   H5Y21783   5.198   1.601   6.129  2.1643  0.6555  0.6265
  189SAPI   C3621784   5.146   1.448   5.992 -0.2701  0.6959 -0.1557
  189SAPI   H6X21785   5.036   1.459   5.997 -0.6790  0.8346 -5.1332
  189SAPI   H6Y21786   5.155   1.337   5.990 -1.3584  0.6095 -2.2106
  189SAPI   C3721787   5.190   1.495   5.845  0.0702 -0.0106 -0.0549
  189SAPI   H7X21788   5.296   1.485   5.813 -0.0395  0.1315 -0.4733
  189SAPI   H7Y21789   5.158   1.601   5.852 -1.2653 -0.2533 -1.7333
  189SAPI   C3821790   5.098   1.442   5.729  0.2181  0.3373  0.4971
  189SAPI   H8X21791   5.086   1.510   5.642 -1.2778 -1.2992 -0.6501
  189SAPI   H8Y21792   4.999   1.412   5.769  0.6980 -3.6058 -0.7818
  189SAPI   C3921793   5.154   1.314   5.661 -0.5045 -0.1463  0.2578
  189SAPI   H9X21794   5.251   1.337   5.613 -0.5075  1.5369  0.9737
  189SAPI   H9Y21795   5.086   1.279   5.581 -1.6216 -0.3375  1.2593
  189SAPI  C31021796   5.181   1.195   5.759  0.1494 -0.3384  0.3157
  189SAPI  H10X21797   5.081   1.172   5.802  0.7847  1.3815  2.9129
  189SAPI  H10Y21798   5.247   1.230   5.841 -1.0958 -0.0079  1.2040
  189SAPI  C31121799   5.241   1.069   5.688  0.2628  0.5070 -0.2368
  189SAPI  H11X21800   5.265   0.998   5.769 -1.4886  0.3835  0.2073
  189SAPI  H11Y21801   5.334   1.098   5.633 -0.1686 -0.5825 -1.6183
  189SAPI  C31221802   5.146   1.005   5.586 -0.1766  0.5880 -0.2058
  189SAPI  H12X21803   5.204   0.926   5.535 -0.0043  0.2928  0.4305
  189SAPI  H12Y21804   5.103   1.062   5.501 -1.9134 -3.2361 -2.1617
  189SAPI  C31321805   5.027   0.927   5.647 -0.4968 -0.9417 -0.0333
  189SAPI  H13X21806   4.978   0.860   5.573 -3.2505 -0.0369  0.8301
  189SAPI  H13Y21807   4.957   1.001   5.690  1.1265  1.2372 -0.9487
  189SAPI  C31421808   5.069   0.827   5.761 -0.1991  0.5306  0.0642
  189SAPI  H14X21809   5.101   0.884   5.851 -0.6930 -1.3665  1.5054
  189SAPI  H14Y21810   5.155   0.761   5.736 -0.8169 -0.5651  0.7597
  189SAPI  C31521811   4.949   0.732   5.790 -0.5437  0.1982  0.3286
  189SAPI  H15X21812   4.940   0.662   5.705  2.0566  0.2974 -0.1020
  189SAPI  H15Y21813   4.865   0.805   5.790 -1.2884 -0.6288 -1.1137
  189SAPI  C31621814   4.955   0.653   5.923 -0.2637  0.4411  0.0003
  189SAPI  H16X21815   4.850   0.623   5.942 -0.6820  0.9445 -1.3565
  189SAPI  H16Y21816   4.994   0.712   6.008 -0.6208 -0.8413  1.0929
  189SAPI  C31721817   5.049   0.528   5.915 -0.0099  0.1652  0.1436
  189SAPI  H17X21818   5.071   0.509   6.022  0.7083 -0.7011 -0.1488
  189SAPI  H17Y21819   5.141   0.551   5.857 -0.1786 -0.7096 -0.4832
  189SAPI  C31821820   4.974   0.407   5.857 -0.0626 -0.4746 -0.0577
  189SAPI  H18X21821   4.952   0.420   5.749  1.2726  2.4637 -0.0542
  189SAPI  H18Y21822   4.883   0.388   5.918  0.0681  0.9779  0.6419
  189SAPI  H18Z21823   5.037   0.315   5.861 -0.4888 -0.7343  0.8385
  190SAPI   C1221824   0.113   3.819   7.403  0.3217  0.0190 -0.7878
  190SAPI    H221825   0.066   3.916   7.376 -0.0624 -0.1406 -0.6871
  190SAPI    O221826   0.068   3.778   7.530 -0.0542  0.4891 -0.1284
  190SAPI   HO221827   0.025   3.846   7.581 -1.2217  0.0729 -0.5206
  190SAPI   C1321828   0.085   3.734   7.280  0.0232 -0.3859 -0.3030
  190SAPI    H321829   0.145   3.775   7.195 -0.9351  2.1726  0.1630
  190SAPI    O321830  -0.051   3.745   7.249 -0.0629 -0.2505  0.3220
  190SAPI   HO321831  -0.101   3.681   7.299 -1.4306  1.2857  1.0225
  190SAPI   C1421832   0.133   3.593   7.307  0.0939 -0.5634  0.0422
  190SAPI    H421833   0.075   3.551   7.392 -1.7378  0.9899 -0.3575
  190SAPI    O421834   0.118   3.512   7.189 -0.6727  0.0918 -0.3494
  190SAPI   HO421835   0.023   3.499   7.180 -0.6105 -1.2116  0.6815
  190SAPI   C1521836   0.280   3.602   7.348 -0.4969 -0.1504 -0.0047
  190SAPI    H521837   0.329   3.636   7.254 -1.1046  0.0763 -0.2471
  190SAPI    O521838   0.326   3.465   7.381  0.3065 -0.0275 -0.2543
  190SAPI   HO521839   0.271   3.402   7.334  2.1564 -2.1609  0.2953
  190SAPI   C1621840   0.327   3.712   7.450  0.1217 -0.8768 -0.0301
  190SAPI    H621841   0.295   3.690   7.554  0.8001  2.7803  1.0838
  190SAPI    O621842   0.466   3.725   7.460  0.2831  0.1885  0.0497
  190SAPI   HO621843   0.489   3.818   7.459  2.2174 -0.2533  0.7471
  190SAPI   C1121844   0.258   3.848   7.406  0.3556  0.2196 -0.3762
  190SAPI    H121845   0.291   3.874   7.303 -1.9847 -0.2947 -1.3088
  190SAPI     P21846   0.395   4.075   7.447  0.2322  0.1935 -0.0114
  190SAPI   O1321847   0.515   3.998   7.398  0.0079 -0.4853 -0.1701
  190SAPI   O1421848   0.431   4.173   7.550 -0.5661 -0.3869  0.2011
  190SAPI   O1221849   0.284   3.964   7.495  0.4955  0.4838  0.6223
  190SAPI   O1121850   0.327   4.152   7.323 -0.0464  0.1163  0.3579
  190SAPI    C121851   0.199   4.210   7.343 -0.4223  0.1550  0.3505
  190SAPI    HA21852   0.134   4.147   7.407  2.8559 -2.2130  1.6485
  190SAPI    HB21853   0.222   4.305   7.395  0.4065  0.4059 -0.4565
  190SAPI    C221854   0.131   4.251   7.215 -0.3896  0.7825 -0.0608
  190SAPI    HS21855   0.037   4.305   7.239 -0.1746  1.2662 -0.2972
  190SAPI   O2121856   0.108   4.122   7.139 -0.4367 -0.2498 -0.5453
  190SAPI   C2121857  -0.012   4.082   7.170 -0.3994 -0.4046  0.3123
  190SAPI   O2221858  -0.087   4.118   7.257  0.0067 -0.5321 -0.4226
  190SAPI   C2221859  -0.066   3.993   7.043  0.4047  0.7048 -0.3083
  190SAPI   H2R21860  -0.009   4.039   6.959  0.3297 -0.1468 -0.8304
  190SAPI   H2S21861  -0.033   3.889   7.060 -1.2275  0.0750 -0.8019
  190SAPI    C321862   0.207   4.346   7.124 -0.8044  0.3958  0.3181
  190SAPI    HX21863   0.294   4.290   7.085 -1.1865  0.6096 -0.8930
  190SAPI    HY21864   0.234   4.436   7.183 -0.1712 -0.4106  1.2725
  190SAPI   O3121865   0.129   4.386   7.012  0.2948 -0.1472  0.3112
  190SAPI   C3121866   0.015   4.452   7.021 -0.0500  0.0454  0.2321
  190SAPI   O3221867  -0.032   4.510   7.117 -0.3502  0.5540 -0.1722
  190SAPI   C3221868  -0.045   4.473   6.879  0.1699 -0.1253 -0.0516
  190SAPI   H2X21869  -0.155   4.473   6.894  0.2404  1.8581  0.8066
  190SAPI   H2Y21870  -0.016   4.385   6.818 -2.1032  1.0492 -3.1222
  190SAPI   C2321871  -0.214   3.997   7.020 -0.2292 -0.3954 -0.2783
  190SAPI   H3R21872  -0.271   3.970   7.111  1.0961  2.0246  1.3635
  190SAPI   H3S21873  -0.244   3.922   6.943 -0.1348 -3.0382  2.0866
  190SAPI   C2421874  -0.262   4.142   6.995 -0.3229 -0.4806 -0.1609
  190SAPI   H4R21875  -0.224   4.186   6.900 -1.1192  1.3164  0.2938
  190SAPI   H4S21876  -0.209   4.200   7.074  2.1673 -3.7894  0.8099
  190SAPI   C2521877  -0.408   4.157   7.017 -0.0100 -0.1425  0.2894
  190SAPI   H5R21878  -0.440   4.106   7.109  0.6042  0.4251  0.8359
  190SAPI   C2621879  -0.497   4.213   6.937  0.4778 -1.0711  0.0288
  190SAPI   H6R21880  -0.597   4.220   6.982 -0.2960 -2.7490 -1.3111
  190SAPI   C2721881  -0.473   4.296   6.814 -0.1310 -0.2117 -0.2045
  190SAPI   H7R21882  -0.505   4.230   6.730 -0.5570 -0.3605  0.0713
  190SAPI   H7S21883  -0.364   4.312   6.800 -0.3167 -0.5032 -2.3177
  190SAPI   C2821884  -0.543   4.429   6.816  0.1738 -0.2598 -0.0203
  190SAPI   H8R21885  -0.541   4.479   6.913  1.4975 -1.0441  0.3809
  190SAPI   C2921886  -0.588   4.482   6.703 -0.0876  0.0314 -0.1181
  190SAPI   H9R21887  -0.643   4.578   6.705  1.3934  0.8922  0.8308
  190SAPI  C21021888  -0.587   4.426   6.562  0.2945 -0.2778 -0.3612
  190SAPI  H10R21889  -0.669   4.480   6.508 -1.8953 -0.7490  2.3065
  190SAPI  H10S21890  -0.607   4.317   6.554  0.1583 -0.4499  1.7387
  190SAPI  C21121891  -0.460   4.468   6.500  0.5664  0.7306 -0.6942
  190SAPI  H11R21892  -0.376   4.509   6.557 -0.1953  2.1923 -0.5692
  190SAPI  C21221893  -0.454   4.477   6.361 -0.0820  0.3115 -0.2432
  190SAPI  H12R21894  -0.360   4.505   6.311 -0.3449  1.0467 -0.3516
  190SAPI  C21321895  -0.556   4.440   6.257 -0.2252  0.2269 -0.2416
  190SAPI  H13R21896  -0.632   4.369   6.298 -0.8100  0.2929 -1.1833
  190SAPI  H13S21897  -0.492   4.383   6.186  1.3029  0.1765  1.1190
  190SAPI  C21421898  -0.619   4.559   6.184 -0.5102  0.2010  0.4297
  190SAPI  H14R21899  -0.715   4.599   6.220 -0.3659  3.2690 -2.1349
  190SAPI  C21521900  -0.574   4.620   6.068  0.5984  0.8617 -0.2444
  190SAPI  H15R21901  -0.641   4.692   6.020  0.5441  2.5454  2.1816
  190SAPI  C21621902  -0.446   4.590   5.989  0.0254 -0.1581  0.9967
  190SAPI  H16R21903  -0.364   4.546   6.050 -1.0526 -0.4837  2.2695
  190SAPI  H16S21904  -0.403   4.679   5.938  0.0821 -1.3900 -1.2325
  190SAPI  C21721905  -0.481   4.477   5.888  1.1449 -0.8783 -0.9426
  190SAPI  H17R21906  -0.504   4.383   5.942  1.7701  0.1300  1.2167
  190SAPI  H17S21907  -0.389   4.456   5.829  2.3494  2.6421 -0.5736
  190SAPI  C21821908  -0.602   4.514   5.796  0.9007  0.2735 -0.2410
  190SAPI  H18R21909  -0.687   4.549   5.859 -1.6902 -1.6782 -2.3731
  190SAPI  H18S21910  -0.633   4.420   5.745  1.7386 -0.2006  0.1035
  190SAPI  C21921911  -0.582   4.618   5.687  0.7476 -0.3284  0.6358
  190SAPI  H19R21912  -0.595   4.718   5.735 -2.1127  0.0926 -0.8210
  190SAPI  H19S21913  -0.670   4.621   5.620  1.9531 -0.1871 -1.0092
  190SAPI  C22021914  -0.449   4.613   5.611  0.0236 -0.3104  0.3526
  190SAPI  H20R21915  -0.446   4.544   5.524  2.0757  0.6895 -0.4505
  190SAPI  H20S21916  -0.367   4.590   5.683 -0.4564 -2.2283  0.3445
  190SAPI  H20T21917  -0.436   4.716   5.572 -2.3061  0.6440  1.8521
  190SAPI   C3321918  -0.008   4.590   6.798  0.3814 -0.0360 -0.0682
  190SAPI   H3X21919   0.102   4.595   6.785  0.3806 -0.2275 -0.1408
  190SAPI   H3Y21920  -0.054   4.681   6.843 -1.3210 -1.0681  0.3983
  190SAPI   C3421921  -0.065   4.574   6.658  0.5653  0.2643 -0.1790
  190SAPI   H4X21922  -0.167   4.535   6.679  1.6523 -2.1367  0.9580
  190SAPI   H4Y21923  -0.009   4.490   6.613 -0.9537 -1.3785  0.8544
  190SAPI   C3521924  -0.050   4.701   6.577 -0.1034 -0.4512  0.3045
  190SAPI   H5X21925   0.060   4.698   6.560 -0.2898 -4.4230 -1.2407
  190SAPI   H5Y21926  -0.070   4.789   6.642 -1.8392 -0.4530 -0.1833
  190SAPI   C3621927  -0.133   4.717   6.453  0.4854 -0.2591  0.6626
  190SAPI   H6X21928  -0.229   4.751   6.498  1.8703  0.8936  2.9677
  190SAPI   H6Y21929  -0.127   4.614   6.412  1.4153 -0.0920  0.3684
  190SAPI   C3721930  -0.062   4.811   6.361  0.0885  0.6495 -0.2079
  190SAPI   H7X21931   0.010   4.751   6.301 -1.8339 -0.2458 -1.7295
  190SAPI   H7Y21932  -0.005   4.889   6.417 -0.7848  0.0668  1.5361
  190SAPI   C3821933  -0.141   4.878   6.253  0.5986  0.0801  0.8922
  190SAPI   H8X21934  -0.213   4.941   6.310  0.5047  0.1060  0.7460
  190SAPI   H8Y21935  -0.204   4.800   6.204  0.5781  1.5618 -1.6539
  190SAPI   C3921936  -0.056   4.947   6.151  0.2749 -0.5872 -0.3185
  190SAPI   H9X21937   0.012   4.873   6.103 -0.1275 -1.4433  0.3900
  190SAPI   H9Y21938   0.005   5.016   6.212 -0.5671  0.7687 -0.9499
  190SAPI  C31021939  -0.125   5.021   6.034 -0.7891 -0.0195 -0.9487
  190SAPI  H10X21940  -0.049   5.058   5.962  0.5651 -0.5212  0.1837
  190SAPI  H10Y21941  -0.170   5.111   6.081  3.8493  1.2614  1.5983
  190SAPI  C31121942  -0.228   4.939   5.951 -0.4059 -0.0391 -0.0556
  190SAPI  H11X21943  -0.309   4.916   6.022 -1.0732  0.6655 -0.5687
  190SAPI  H11Y21944  -0.178   4.853   5.901  0.1711  0.0512  0.3564
  190SAPI  C31221945  -0.289   5.026   5.840  0.0248  0.1520  0.8339
  190SAPI  H12X21946  -0.220   5.030   5.753 -0.7281 -2.6785 -0.0069
  190SAPI  H12Y21947  -0.323   5.123   5.882 -0.3556 -0.8720  3.0677
  190SAPI  C31321948  -0.417   4.952   5.777  0.0426 -0.5316  0.5656
  190SAPI  H13X21949  -0.487   4.923   5.858 -1.5941  1.7424  0.0741
  190SAPI  H13Y21950  -0.375   4.859   5.731  2.9892  1.0716 -0.2210
  190SAPI  C31421951  -0.488   5.035   5.671  0.4034  0.0413  0.7176
  190SAPI  H14X21952  -0.511   5.132   5.721 -1.6267 -0.3923  0.7000
  190SAPI  H14Y21953  -0.578   4.977   5.641 -0.0928  1.7418 -1.3109
  190SAPI  C31521954  -0.412   5.065   5.540  0.4939  0.8456 -0.1774
  190SAPI  H15X21955  -0.383   4.974   5.482 -0.1356  0.2056  0.4997
  190SAPI  H15Y21956  -0.313   5.107   5.568  1.2441 -1.5899  1.0812
  190SAPI  C31621957  -0.486   5.154   5.444  0.2510  0.2273  0.0423
  190SAPI  H16X21958  -0.583   5.100   5.445  0.5526 -0.3249  1.2161
  190SAPI  H16Y21959  -0.436   5.145   5.345  1.2707  1.1633  0.4587
  190SAPI  C31721960  -0.506   5.305   5.489  0.1112  0.0845  0.1009
  190SAPI  H17X21961  -0.560   5.298   5.586  0.3540 -1.8203  0.1427
  190SAPI  H17Y21962  -0.574   5.362   5.423 -0.4913  0.0170  0.6442
  190SAPI  C31821963  -0.372   5.375   5.521 -0.6661 -0.8323 -0.6185
  190SAPI  H18X21964  -0.402   5.476   5.554 -0.6026 -0.1721 -2.4472
  190SAPI  H18Y21965  -0.308   5.381   5.430  0.0768  0.8063 -0.0433
  190SAPI  H18Z21966  -0.321   5.324   5.606 -0.6042  0.3161  0.0512
  191SAPI   C1221967   4.469   4.287   2.848  0.1519 -0.9215 -0.3324
  191SAPI    H221968   4.448   4.363   2.927  0.4338 -3.0147  1.9008
  191SAPI    O221969   4.590   4.314   2.772 -0.6552 -0.6707 -0.2398
  191SAPI   HO221970   4.578   4.385   2.709 -2.6695 -1.3352 -0.6744
  191SAPI   C1321971   4.479   4.157   2.933 -0.3435 -0.4455  0.1147
  191SAPI    H321972   4.388   4.154   2.996 -0.5945 -4.2617 -0.2083
  191SAPI    O321973   4.592   4.160   3.025 -0.3280  0.4372  0.1842
  191SAPI   HO321974   4.578   4.227   3.092 -1.2598 -0.3563  0.8004
  191SAPI   C1421975   4.477   4.034   2.836 -0.3576 -0.7833 -0.3178
  191SAPI    H421976   4.581   4.028   2.799  0.7660  0.0404  2.4214
  191SAPI    O421977   4.456   3.908   2.902  0.6506 -0.5243 -0.3094
  191SAPI   HO421978   4.500   3.831   2.866  0.0386  0.1880 -2.8184
  191SAPI   C1521979   4.397   4.031   2.707  0.1489 -0.4616 -0.0659
  191SAPI    H521980   4.299   4.004   2.751  1.0520 -0.6567  1.8878
  191SAPI    O521981   4.418   3.922   2.614 -0.4083  0.4516  0.4631
  191SAPI   HO521982   4.510   3.910   2.588 -0.3861 -1.5481  1.3337
  191SAPI   C1621983   4.363   4.175   2.647  0.1492  0.3630 -0.1174
  191SAPI    H621984   4.439   4.192   2.567  1.2399 -1.8820  0.3471
  191SAPI    O621985   4.240   4.163   2.573 -0.6448  0.0346 -0.5790
  191SAPI   HO621986   4.239   4.246   2.524  0.2441  0.2370 -0.2866
  191SAPI   C1121987   4.353   4.284   2.753 -0.3711 -0.0821  0.0283
  191SAPI    H121988   4.261   4.254   2.808 -0.9199  0.8214 -0.3771
  191SAPI     P21989   4.240   4.521   2.736  0.1138  0.0382 -0.1380
  191SAPI   O1321990   4.116   4.446   2.783 -0.1697 -0.6704 -0.2600
  191SAPI   O1421991   4.223   4.625   2.633  0.2500  0.2355 -1.4344
  191SAPI   O1221992   4.350   4.410   2.688  0.5441 -0.5522  0.4719
  191SAPI   O1121993   4.307   4.582   2.865 -0.2979 -0.2136 -0.5637
  191SAPI    C121994   4.267   4.557   3.001 -0.2222  0.3337 -0.2862
  191SAPI    HA21995   4.224   4.455   3.014  0.1057  0.2819  0.4146
  191SAPI    HB21996   4.349   4.558   3.075 -0.3840  0.1890 -0.1030
  191SAPI    C221997   4.149   4.647   3.051 -0.1957  0.1702  0.6845
  191SAPI    HS21998   4.066   4.619   2.982  0.6168 -0.9914  0.1537
  191SAPI   O2121999   4.199   4.783   3.055  0.0120  0.3944  0.2496
  191SAPI   C2122000   4.106   4.869   3.009 -1.1756 -0.2237 -0.0168
  191SAPI   O2222001   3.994   4.848   2.973 -0.2855  0.1315  0.5074
  191SAPI   C2222002   4.167   5.012   3.036  0.2426  0.5651  0.3549
  191SAPI   H2R22003   4.276   5.010   3.059 -0.0839  1.6659  2.1665
  191SAPI   H2S22004   4.151   5.064   2.939 -2.4299  1.5279  1.2422
  191SAPI    C322005   4.104   4.594   3.190 -0.1944 -0.1758  0.3310
  191SAPI    HX22006   4.176   4.627   3.268 -0.3544  1.6300 -0.2393
  191SAPI    HY22007   4.101   4.483   3.191  0.8495 -0.3549 -3.2556
  191SAPI   O3122008   3.978   4.660   3.225 -0.8439  0.1180  0.7251
  191SAPI   C3122009   3.925   4.611   3.338 -0.4713  0.5059  0.1374
  191SAPI   O3222010   3.973   4.525   3.409  0.3928  0.0870 -0.1601
  191SAPI   C3222011   3.792   4.683   3.366  0.1523  0.7937 -0.1785
  191SAPI   H2X22012   3.714   4.645   3.297 -1.4271  3.2929  0.1271
  191SAPI   H2Y22013   3.818   4.790   3.350 -0.3067  1.2376  1.7701
  191SAPI   C2322014   4.078   5.083   3.140 -0.0799 -0.2057 -0.4416
  191SAPI   H3R22015   4.092   5.038   3.241 -0.7912  0.5656  0.0203
  191SAPI   H3S22016   3.970   5.089   3.115 -0.0349  0.8780 -0.4153
  191SAPI   C2422017   4.121   5.232   3.152 -0.3910 -0.4134  0.8584
  191SAPI   H4R22018   4.029   5.293   3.164 -0.4203 -0.2485 -0.1111
  191SAPI   H4S22019   4.154   5.268   3.052  0.0580 -2.1784  0.3293
  191SAPI   C2522020   4.234   5.245   3.255 -0.2549  0.2107  0.1269
  191SAPI   H5R22021   4.314   5.171   3.246 -1.3555 -0.9530 -0.4156
  191SAPI   C2622022   4.243   5.325   3.358  0.2775 -0.6520 -0.9278
  191SAPI   H6R22023   4.329   5.319   3.426 -0.8978  0.7031  0.7976
  191SAPI   C2722024   4.138   5.421   3.408 -0.0855 -0.0942  0.0757
  191SAPI   H7R22025   4.171   5.460   3.506  0.9651 -2.0724  0.5505
  191SAPI   H7S22026   4.049   5.360   3.435  0.7046 -1.6433 -0.7074
  191SAPI   C2822027   4.101   5.535   3.323  0.3939 -0.0209 -0.1869
  191SAPI   H8R22028   4.139   5.534   3.219 -0.2315  2.1542 -0.4719
  191SAPI   C2922029   4.027   5.638   3.363  0.0220 -0.0359 -0.2143
  191SAPI   H9R22030   3.998   5.698   3.275  0.3666  0.1343 -0.2166
  191SAPI  C21022031   3.957   5.660   3.497  0.4658 -0.3662 -0.0378
  191SAPI  H10R22032   3.953   5.769   3.516  2.2953 -0.0415 -1.2571
  191SAPI  H10S22033   4.032   5.634   3.575  3.4760 -0.4026 -2.7319
  191SAPI  C21122034   3.821   5.603   3.499  0.1398  0.9404 -0.4542
  191SAPI  H11R22035   3.761   5.591   3.408  0.7786 -0.4986 -0.7004
  191SAPI  C21222036   3.763   5.573   3.622 -0.7061  0.1962 -0.8175
  191SAPI  H12R22037   3.655   5.556   3.631 -0.4599 -1.3883 -0.6098
  191SAPI  C21322038   3.828   5.571   3.755 -0.3840 -0.0057 -0.2634
  191SAPI  H13R22039   3.780   5.648   3.818  1.3906  1.0746 -0.1537
  191SAPI  H13S22040   3.937   5.593   3.757 -0.4665  0.3675  1.6221
  191SAPI  C21422041   3.814   5.441   3.831  0.3920 -0.2978  0.5302
  191SAPI  H14R22042   3.873   5.360   3.786 -0.3716 -0.3461 -0.4074
  191SAPI  C21522043   3.746   5.410   3.947  0.0274 -0.4359 -0.0071
  191SAPI  H15R22044   3.752   5.309   3.988 -0.9214 -0.3475  0.3767
  191SAPI  C21622045   3.657   5.501   4.032 -0.2616  0.0620  0.5627
  191SAPI  H16R22046   3.570   5.442   4.066 -0.6860 -1.1229 -2.2631
  191SAPI  H16S22047   3.614   5.581   3.968  0.3620  0.6013  0.8059
  191SAPI  C21722048   3.723   5.576   4.148 -0.1048 -0.6685 -0.0616
  191SAPI  H17R22049   3.634   5.631   4.186 -1.2645 -0.0017 -3.4113
  191SAPI  H17S22050   3.789   5.653   4.102 -0.8259 -0.6869 -1.1692
  191SAPI  C21822051   3.781   5.490   4.256 -0.2421  0.6712 -0.7517
  191SAPI  H18R22052   3.858   5.554   4.303 -0.6905  1.9848 -1.7325
  191SAPI  H18S22053   3.827   5.395   4.220 -2.5410 -0.9810  0.4039
  191SAPI  C21922054   3.688   5.435   4.372 -0.9219 -0.6962 -0.0983
  191SAPI  H19R22055   3.641   5.518   4.430  0.8371 -0.5311  1.1869
  191SAPI  H19S22056   3.755   5.379   4.441  1.8533  1.9406 -0.4095
  191SAPI  C22022057   3.578   5.340   4.326  0.1881 -0.1006  0.4086
  191SAPI  H20R22058   3.631   5.246   4.300 -1.1720 -1.1426  1.2778
  191SAPI  H20S22059   3.528   5.370   4.231  0.1373 -0.2090  0.4009
  191SAPI  H20T22060   3.509   5.317   4.410  0.6919 -1.0225  0.5813
  191SAPI   C3322061   3.753   4.657   3.512 -0.3859 -0.1670 -0.0332
  191SAPI   H3X22062   3.834   4.688   3.581 -0.4487  1.4083 -0.6205
  191SAPI   H3Y22063   3.735   4.548   3.526 -0.0098 -0.0914  1.1014
  191SAPI   C3422064   3.644   4.748   3.568 -0.0378 -0.2201  0.1804
  191SAPI   H4X22065   3.540   4.726   3.536  0.3027 -0.9863 -0.4279
  191SAPI   H4Y22066   3.678   4.848   3.533  2.3882 -1.1462 -0.3062
  191SAPI   C3522067   3.639   4.736   3.722 -0.0294 -0.2425  0.2755
  191SAPI   H5X22068   3.598   4.827   3.770  0.1036 -0.8120  1.5143
  191SAPI   H5Y22069   3.741   4.719   3.761  1.4057  0.1661 -2.9241
  191SAPI   C3622070   3.548   4.623   3.762  0.2779  0.2217 -0.9787
  191SAPI   H6X22071   3.593   4.536   3.711  1.4829 -0.3253  0.8871
  191SAPI   H6Y22072   3.449   4.646   3.716  0.0553  1.4631  0.0415
  191SAPI   C3722073   3.540   4.592   3.912 -0.3780 -0.2501  0.0402
  191SAPI   H7X22074   3.488   4.495   3.930  1.3599 -1.1049  0.6666
  191SAPI   H7Y22075   3.482   4.674   3.958 -0.5598 -0.5753  0.4040
  191SAPI   C3822076   3.682   4.575   3.972 -0.6864 -0.3771  0.8521
  191SAPI   H8X22077   3.718   4.677   3.993 -3.0454  1.0904 -1.6526
  191SAPI   H8Y22078   3.760   4.535   3.904 -2.1177 -0.0321 -1.0755
  191SAPI   C3922079   3.678   4.489   4.092  0.1440  0.0654 -0.1113
  191SAPI   H9X22080   3.785   4.479   4.122  0.6568 -3.4024 -2.5581
  191SAPI   H9Y22081   3.640   4.387   4.070  0.6133  0.2368 -1.7972
  191SAPI  C31022082   3.594   4.553   4.206  0.4119 -0.3076  0.3719
  191SAPI  H10X22083   3.487   4.552   4.177  0.1396 -0.5711  1.3660
  191SAPI  H10Y22084   3.624   4.660   4.216  1.2704 -0.5652  0.5920
  191SAPI  C31122085   3.596   4.485   4.344  0.5855 -0.2131  0.4933
  191SAPI  H11X22086   3.703   4.497   4.374  1.3236 -0.4070 -1.8900
  191SAPI  H11Y22087   3.579   4.376   4.333  0.7596 -0.2544  0.6156
  191SAPI  C31222088   3.504   4.544   4.441  0.0671 -0.0542 -1.0680
  191SAPI  H12X22089   3.404   4.555   4.395  0.3511  2.3012 -1.2800
  191SAPI  H12Y22090   3.537   4.647   4.465  0.5714 -0.3761 -0.3587
  191SAPI  C31322091   3.497   4.461   4.571  0.0438  0.2940 -0.3670
  191SAPI  H13X22092   3.592   4.406   4.588  0.6371  0.9670 -1.4166
  191SAPI  H13Y22093   3.415   4.388   4.553  1.2351 -1.3670  0.6483
  191SAPI  C31422094   3.441   4.539   4.690  0.6533  0.0988 -0.0661
  191SAPI  H14X22095   3.345   4.592   4.671  1.1745  1.9914  2.1498
  191SAPI  H14Y22096   3.508   4.623   4.718 -1.4254  1.1636  2.0417
  191SAPI  C31522097   3.428   4.448   4.813 -0.0555 -0.4870  0.4344
  191SAPI  H15X22098   3.505   4.368   4.809 -1.3444 -1.7257 -0.6193
  191SAPI  H15Y22099   3.329   4.399   4.824 -0.1808 -0.9358 -2.1675
  191SAPI  C31622100   3.439   4.530   4.939  0.6330  0.4753  0.2657
  191SAPI  H16X22101   3.544   4.565   4.947  1.4962 -1.1846 -2.4328
  191SAPI  H16Y22102   3.416   4.463   5.025 -1.8657  0.3333 -0.4245
  191SAPI  C31722103   3.336   4.644   4.950 -0.0537  0.1595  0.3424
  191SAPI  H17X22104   3.229   4.616   4.936  0.1125 -0.5298  0.3841
  191SAPI  H17Y22105   3.371   4.718   4.875 -0.2439  1.3545  1.3985
  191SAPI  C31822106   3.355   4.720   5.082 -0.2952  0.1497  0.9840
  191SAPI  H18X22107   3.464   4.742   5.090 -0.5424  1.2032  1.6181
  191SAPI  H18Y22108   3.309   4.665   5.166 -0.1671  0.1373  1.0463
  191SAPI  H18Z22109   3.296   4.814   5.073 -1.3001 -0.5007  0.6333
  192SAPI   C1222110   6.625   1.186   2.708  0.8342 -0.2740  0.2086
  192SAPI    H222111   6.565   1.278   2.722  0.9968 -0.5216  2.9864
  192SAPI    O222112   6.595   1.146   2.577 -0.2749 -0.0093 -0.3252
  192SAPI   HO222113   6.553   1.060   2.585  0.2424 -0.2147  0.2870
  192SAPI   C1322114   6.766   1.233   2.704  0.6313 -0.1362  0.2009
  192SAPI    H322115   6.787   1.281   2.802  1.5386  0.4017 -0.2429
  192SAPI    O322116   6.779   1.337   2.608  0.2605 -0.0194 -0.2716
  192SAPI   HO322117   6.741   1.306   2.525  0.9485  0.0515 -0.6233
  192SAPI   C1422118   6.871   1.125   2.703  0.8023  0.0892 -0.1600
  192SAPI    H422119   6.882   1.111   2.594  0.9630 -0.3640 -0.0888
  192SAPI    O422120   6.999   1.172   2.757 -0.3080  0.9269  0.2465
  192SAPI   HO422121   7.076   1.153   2.702  0.5280 -1.8317  2.0939
  192SAPI   C1522122   6.823   0.985   2.762 -0.4808  0.1073 -0.4268
  192SAPI    H522123   6.870   0.988   2.862 -0.7758 -0.4513 -0.2654
  192SAPI    O522124   6.883   0.876   2.692  0.4397 -0.3110 -0.9094
  192SAPI   HO522125   6.978   0.877   2.705  0.1248  0.8060  2.0001
  192SAPI   C1622126   6.678   0.957   2.788 -0.1235 -0.0563 -0.0324
  192SAPI    H622127   6.639   0.899   2.701 -0.8204  0.7220 -0.2461
  192SAPI    O622128   6.659   0.859   2.892  0.1417  0.0705 -1.1960
  192SAPI   HO622129   6.575   0.878   2.934 -0.5327 -0.1866 -2.3745
  192SAPI   C1122130   6.592   1.077   2.806 -0.3405 -0.7061  0.0835
  192SAPI    H122131   6.622   1.135   2.896 -0.0195  0.4109 -0.7174
  192SAPI     P22132   6.355   1.068   2.938 -0.8783 -0.1463 -0.1530
  192SAPI   O1322133   6.223   1.012   2.906 -0.0164  0.0138 -0.4357
  192SAPI   O1422134   6.361   1.210   2.986  0.0816 -0.8066 -0.0207
  192SAPI   O1222135   6.454   1.040   2.799 -0.8398  0.0738  0.1419
  192SAPI   O1122136   6.431   0.965   3.035 -0.4699 -0.0056 -0.2534
  192SAPI    C122137   6.359   0.923   3.155 -0.0316 -0.2039 -0.0203
  192SAPI    HA22138   6.251   0.950   3.153  0.4771  2.0758 -0.2733
  192SAPI    HB22139   6.378   0.816   3.174  0.5716  0.0788  1.0262
  192SAPI    C222140   6.431   1.004   3.272  0.1917  0.7329 -0.0062
  192SAPI    HS22141   6.406   1.110   3.249  0.1849  1.2981  2.2770
  192SAPI   O2122142   6.574   0.964   3.281 -0.1071 -0.3974  1.1943
  192SAPI   C2122143   6.652   1.059   3.244  0.2047  0.1718  0.4840
  192SAPI   O2222144   6.612   1.162   3.201  0.1706 -0.4785 -0.0152
  192SAPI   C2222145   6.795   1.017   3.243 -0.3732 -0.5194  0.2161
  192SAPI   H2R22146   6.815   0.964   3.147  1.6812  0.2495  0.1730
  192SAPI   H2S22147   6.846   1.115   3.241 -1.2548 -0.0435  0.6360
  192SAPI    C322148   6.361   0.943   3.395  0.4505  0.4333 -0.2995
  192SAPI    HX22149   6.386   0.835   3.397  0.9890  0.5603 -0.1555
  192SAPI    HY22150   6.251   0.960   3.391  0.2082 -0.5856  1.3512
  192SAPI   O3122151   6.414   1.012   3.501  0.6076  0.8304 -0.2493
  192SAPI   C3122152   6.347   0.979   3.618  0.0292  0.2565 -0.5957
  192SAPI   O3222153   6.255   0.896   3.627  0.3523 -0.2786 -0.2046
  192SAPI   C3222154   6.408   1.049   3.733 -0.4538 -0.3528 -0.2327
  192SAPI   H2X22155   6.361   1.149   3.740 -1.6489 -0.9215  0.1397
  192SAPI   H2Y22156   6.515   1.071   3.711 -0.2684 -1.1178 -0.1382
  192SAPI   C2322157   6.849   0.937   3.360 -0.1918  0.3055  0.8431
  192SAPI   H3R22158   6.960   0.939   3.349 -0.3020  0.9149 -0.3614
  192SAPI   H3S22159   6.822   0.829   3.359  0.6587  0.0285 -1.9253
  192SAPI   C2422160   6.817   1.010   3.485 -0.2455 -0.8471 -0.1827
  192SAPI   H4R22161   6.843   0.946   3.572  1.3270 -0.2875 -0.2195
  192SAPI   H4S22162   6.706   1.016   3.492 -0.3524 -2.8819  0.4534
  192SAPI   C2522163   6.886   1.144   3.505  0.0152 -0.2338 -0.3709
  192SAPI   H5R22164   6.851   1.226   3.440 -2.3103  0.7640  1.9370
  192SAPI   C2622165   6.963   1.194   3.601  0.0657 -0.6277  0.3953
  192SAPI   H6R22166   7.001   1.297   3.593  0.1587 -0.6577  0.4483
  192SAPI   C2722167   7.026   1.127   3.717  0.3468 -0.3130  0.2120
  192SAPI   H7R22168   7.095   1.202   3.762 -0.1193  0.6865 -0.6818
  192SAPI   H7S22169   7.081   1.038   3.679 -0.5994 -0.7663 -0.1302
  192SAPI   C2822170   6.933   1.073   3.823 -0.1802 -0.4961 -0.1817
  192SAPI   H8R22171   6.840   1.031   3.781  0.3509 -1.6394 -0.2412
  192SAPI   C2922172   6.970   1.061   3.950  0.1249 -0.7986 -0.2176
  192SAPI   H9R22173   6.901   1.025   4.028  1.3184  0.3003  1.3817
  192SAPI  C21022174   7.097   1.108   4.018  0.1621 -0.1087 -0.0373
  192SAPI  H10R22175   7.183   1.098   3.948 -1.1054 -0.7427 -1.5273
  192SAPI  H10S22176   7.121   1.036   4.100  0.5776  0.5159  0.4060
  192SAPI  C21122177   7.079   1.250   4.058 -0.6399  0.0461 -0.2473
  192SAPI  H11R22178   7.083   1.316   3.971  0.6493  1.5938  0.9230
  192SAPI  C21222179   7.077   1.304   4.177  0.1608 -0.2359  1.0719
  192SAPI  H12R22180   7.070   1.413   4.188 -2.2844 -0.0043 -1.4212
  192SAPI  C21322181   7.076   1.229   4.307 -0.3278  0.3521  0.3489
  192SAPI  H13R22182   6.984   1.169   4.320  1.0826 -3.7085 -4.8993
  192SAPI  H13S22183   7.071   1.311   4.382  1.0853  0.2032  0.6234
  192SAPI  C21422184   7.200   1.148   4.341 -0.0401  0.6073 -0.7540
  192SAPI  H14R22185   7.255   1.107   4.256 -0.9591  2.9204 -2.5586
  192SAPI  C21522186   7.233   1.116   4.476  0.1325 -0.3081  0.0587
  192SAPI  H15R22187   7.327   1.062   4.496 -0.2406 -0.3546  1.8798
  192SAPI  C21622188   7.142   1.136   4.598 -0.0081 -0.1576  0.3293
  192SAPI  H16R22189   7.038   1.166   4.571 -0.4022 -1.4981  0.3205
  192SAPI  H16S22190   7.186   1.217   4.661  0.9180  0.6576 -1.2931
  192SAPI  C21722191   7.129   1.018   4.701 -0.7106  0.3312 -0.4684
  192SAPI  H17R22192   7.090   0.929   4.648  0.8232  0.0011 -1.0910
  192SAPI  H17S22193   7.049   1.040   4.775  0.6973  2.3577  0.5424
  192SAPI  C21822194   7.255   1.001   4.787  0.1053 -0.0531  0.4731
  192SAPI  H18R22195   7.260   1.093   4.850 -0.5020  0.7499 -0.6181
  192SAPI  H18S22196   7.345   0.985   4.724  1.4538 -1.4911  2.6074
  192SAPI  C21922197   7.247   0.880   4.879  0.5069  0.0439  0.0330
  192SAPI  H19R22198   7.343   0.881   4.934  1.0390  0.0418 -0.8735
  192SAPI  H19S22199   7.246   0.789   4.816 -1.8714 -0.7642  1.1260
  192SAPI  C22022200   7.133   0.882   4.977  0.1390  0.2017 -0.0199
  192SAPI  H20R22201   7.098   0.979   5.017 -0.8382 -0.5757  1.0449
  192SAPI  H20S22202   7.154   0.811   5.060 -0.3649  0.6766  0.5197
  192SAPI  H20T22203   7.050   0.836   4.919  1.0948 -2.0835  0.3327
  192SAPI   C3322204   6.379   0.963   3.866 -0.1632 -0.3409  0.2800
  192SAPI   H3X22205   6.417   0.860   3.853  0.0134 -0.2222 -0.1922
  192SAPI   H3Y22206   6.271   0.948   3.886 -0.4919  0.4677 -0.7467
  192SAPI   C3422207   6.438   1.022   3.986  0.2863 -0.0978 -0.3743
  192SAPI   H4X22208   6.397   1.125   3.999  1.3453  0.3778 -0.6107
  192SAPI   H4Y22209   6.549   1.027   3.974  0.0780  1.5608 -2.1244
  192SAPI   C3522210   6.402   0.949   4.121 -0.1663  0.7493  0.0565
  192SAPI   H5X22211   6.454   0.852   4.105 -1.5995  0.0300 -0.5131
  192SAPI   H5Y22212   6.294   0.923   4.115  0.4243 -1.8260 -0.7081
  192SAPI   C3622213   6.443   1.014   4.249  0.3639 -0.0167  0.1364
  192SAPI   H6X22214   6.391   1.112   4.253 -1.7154 -0.9736 -1.0814
  192SAPI   H6Y22215   6.553   1.025   4.257  0.9146 -2.6592 -2.2230
  192SAPI   C3722216   6.400   0.927   4.370 -0.0854  0.7512 -0.1287
  192SAPI   H7X22217   6.463   0.969   4.452 -0.4021 -0.7768  0.9421
  192SAPI   H7Y22218   6.451   0.830   4.349 -1.6361  0.3165 -2.2652
  192SAPI   C3822219   6.256   0.924   4.419  0.5369 -0.0372 -0.0105
  192SAPI   H8X22220   6.207   0.857   4.344 -0.4026  0.6952 -0.0697
  192SAPI   H8Y22221   6.212   1.026   4.420  4.0008  1.6045  2.3353
  192SAPI   C3922222   6.246   0.848   4.554  1.0109  0.1863  0.0781
  192SAPI   H9X22223   6.320   0.890   4.625  0.3780  0.6118  0.5002
  192SAPI   H9Y22224   6.262   0.741   4.531  0.1017  0.3044 -1.1968
  192SAPI  C31022225   6.100   0.872   4.609 -0.6744  0.1699  0.8691
  192SAPI  H10X22226   6.023   0.813   4.554 -2.3091  3.3190 -0.5274
  192SAPI  H10Y22227   6.074   0.977   4.581  1.6489  0.8362  0.9591
  192SAPI  C31122228   6.101   0.841   4.757  0.1263  0.2737  0.0043
  192SAPI  H11X22229   6.170   0.912   4.806 -1.1529  1.1849  0.5160
  192SAPI  H11Y22230   6.146   0.739   4.766 -0.5971 -0.2695 -1.9032
  192SAPI  C31222231   5.970   0.837   4.835 -0.1816 -0.0048  0.1482
  192SAPI  H12X22232   5.890   0.814   4.762 -2.5254  1.7655  1.9720
  192SAPI  H12Y22233   5.963   0.945   4.862  1.4619  0.4909 -1.2536
  192SAPI  C31322234   5.976   0.758   4.961  0.0310  0.3589 -0.1668
  192SAPI  H13X22235   5.892   0.794   5.024 -0.3256  1.2533 -1.1354
  192SAPI  H13Y22236   6.067   0.791   5.016 -0.9066  2.3541  0.2813
  192SAPI  C31422237   5.976   0.610   4.932  0.0016  0.0350 -0.0049
  192SAPI  H14X22238   6.055   0.581   4.860  0.3831  0.1869  0.3488
  192SAPI  H14Y22239   5.885   0.577   4.878  0.3810  0.7240 -1.0987
  192SAPI  C31522240   5.987   0.524   5.059  0.3469 -0.0838  0.6452
  192SAPI  H15X22241   5.890   0.528   5.113  0.7420 -0.1565  1.3648
  192SAPI  H15Y22242   6.069   0.558   5.125  1.3946 -2.1664  0.5182
  192SAPI  C31622243   6.022   0.377   5.053 -0.2062  0.4476 -0.9939
  192SAPI  H16X22244   6.121   0.358   5.007  0.1145 -2.2102  0.6049
  192SAPI  H16Y22245   5.954   0.313   4.993  0.6784 -2.4499  0.8703
  192SAPI  C31722246   6.042   0.318   5.197 -0.0758 -0.0730 -0.4073
  192SAPI  H17X22247   6.087   0.396   5.263 -2.3944 -0.1779  1.4250
  192SAPI  H17Y22248   6.120   0.240   5.192  0.4486  0.3182  1.1262
  192SAPI  C31822249   5.914   0.277   5.264  0.3681 -0.5849 -0.0084
  192SAPI  H18X22250   5.855   0.369   5.281 -2.0359 -1.1862 -3.8185
  192SAPI  H18Y22251   5.940   0.221   5.357  2.4963  0.0304 -0.1859
  192SAPI  H18Z22252   5.862   0.210   5.192 -0.6826 -0.6494  0.7798
  193SOD    SOD22253   5.401   5.833   1.342  0.0432 -0.0199 -0.2172
  194SOD    SOD22254   1.811   5.707   1.538  0.1004  1.3250  0.4230
  195SOD    SOD22255   0.662   3.165   1.556  0.4102 -0.2124  0.0763
  196SOD    SOD22256   1.918   6.608   2.196 -0.5607  0.2944 -0.1689
  197SOD    SOD22257   6.116   4.657   8.236 -0.0179 -0.0838  0.1344
  198SOD    SOD22258   6.469   5.591   1.803 -0.0467  0.2808  0.9292
  199SOD    SOD22259   4.996   6.262   7.151  0.0917 -0.1346  0.1470
  200SOD    SOD22260   3.251   0.281   0.041 -0.0170 -0.2934  0.0461
  201SOD    SOD22261   5.370   0.502   7.327  0.5023  0.1458 -0.1137
  202SOD    SOD22262   0.108   1.559   2.629  0.0132  0.0357  0.0537
  203SOD    SOD22263   0.024   5.093   8.167 -0.4848 -0.2036 -0.4796
  204SOD    SOD22264   5.190   1.124   2.396  0.0127 -0.3061  0.2248
  205SOD    SOD22265   1.424   3.012   1.855  0.1601  0.3609  0.2028
  206SOD    SOD22266   1.025   3.504   2.768 -0.4608 -0.1883  0.1997
  207SOD    SOD22267   4.102   3.959   2.192  0.3278 -0.2557 -0.3353
  208SOD    SOD22268   0.043   0.871   8.580  0.4216 -0.2851  0.0864
  209SOD    SOD22269   2.832   0.378   8.057 -0.4128 -0.1699  0.4539
  210SOD    SOD22270   3.673   0.147   7.894 -0.0077  0.1165  0.2891
  211SOD    SOD22271   1.442   6.167   8.681 -0.4407 -0.2158  0.0504
  212SOD    SOD22272   0.449   3.745   0.307 -0.3479  0.1231 -0.7892
  213SOD    SOD22273   3.814   1.955   7.384  0.3968  0.1162  0.2117
  214SOD    SOD22274   3.267   2.202   0.310  0.3573 -0.0346  0.1849
  215SOD    SOD22275   1.302   3.917   8.487  0.1285  0.4457  0.0062
  216SOD    SOD22276   1.418   1.072   2.723  0.0201  0.0206  0.0536
  217SOD    SOD22277   4.325   2.956   7.722  0.7109  0.1054  0.5285
  218SOD    SOD22278   2.588   5.140   2.282 -0.0617 -0.0028 -0.0271
  219SOD    SOD22279   6.069   2.555   0.146 -0.0655 -0.1939 -0.4093
  220SOD    SOD22280   0.534   3.285   6.997  0.0533 -0.0325  0.0306
  221SOD    SOD22281   6.121   3.275   8.332  0.0848 -0.5960  0.0943
  222SOD    SOD22282   4.686   3.507   0.572  0.2518  0.0269 -0.1572
  223SOD    SOD22283   2.268   6.776   2.380  0.1634 -0.1951 -0.2811
  224SOD    SOD22284   3.704   3.034   2.629  0.0083 -0.2387 -0.1042
  225SOD    SOD22285   0.576   5.674   2.319 -0.1491 -0.4017 -0.0413
  226SOD    SOD22286   2.815   4.280   8.016 -0.0652 -0.4867 -0.2449
  227SOD    SOD22287   0.948   2.521   2.814  0.4320  0.0584 -0.4914
  228SOD    SOD22288   2.507   4.751   1.387 -0.3255 -0.7982 -0.2378
  229SOD    SOD22289   5.847   0.989   2.028  0.0714  0.1206 -0.0227
  230SOD    SOD22290   0.972   5.715   7.661  0.0509 -0.4358  0.5217
  231SOD    SOD22291   2.671   4.768   7.508 -0.2770 -0.0365  0.1188
  232SOD    SOD22292   0.107   2.217   8.727 -0.2022 -0.2595  0.4927
  233SOD    SOD22293   5.485   3.168   1.126 -0.2188 -0.1335 -0.1256
  234CLA    CLA22294   5.259   1.381   1.880  0.1049  0.3334 -0.0951
  235CLA    CLA22295   5.916   3.115   0.038 -0.2108  0.0278  0.3351
  236CLA    CLA22296   0.705   2.679   1.438  0.4811 -0.3819  0.0067
  237CLA    CLA22297   3.326   5.583   8.644  0.1665  0.1837 -0.3090
  238CLA    CLA22298   4.847   4.028   0.575 -0.5269 -0.0007  0.1382
  239CLA    CLA22299   2.521   5.551   8.163  0.0536 -0.1866  0.0487
  240CLA    CLA22300   5.023   4.265   1.958  0.1204  0.3204 -0.0547
  241CLA    CLA22301   6.549   5.966   0.469 -0.1799 -0.4207 -0.1824
  242CLA    CLA22302   5.865   3.418   7.974  0.1892  0.0908  0.2724
  243CLA    CLA22303   2.031   6.228   8.327  0.2491 -0.2119  0.0228
  244CLA    CLA22304   5.967   1.318   8.619  0.0745 -0.1951 -0.1830
  245CLA    CLA22305   3.432   0.092   1.529 -0.2315  0.2347 -0.4629
  246CLA    CLA22306   2.260   1.173   0.979 -0.0496  0.0989 -0.0457
  247CLA    CLA22307   0.202   2.274   0.213 -0.0294  0.3399 -0.2348
  248CLA    CLA22308   1.813   0.357   1.101  0.5599 -0.1059  0.0083
  249CLA    CLA22309   0.338   3.801   1.033  0.0500 -0.0091 -0.1217
  250CLA    CLA22310   1.938   1.663   7.797 -0.4268 -0.1332 -0.1142
  251TIP3   OH222311   2.247   0.896   1.528  0.3094  0.2944 -0.2993
  251TIP3    H122312   2.236   0.956   1.601 -1.3713  1.7071 -1.6277
  251TIP3    H222313   2.310   0.939   1.470  0.7606 -0.2871 -0.2641
  252TIP3   OH222314   4.771   0.456   1.908  0.4176 -0.6169 -0.7662
  252TIP3    H122315   4.706   0.448   1.979  3.0839 -0.0839  1.9706
  252TIP3    H222316   4.807   0.544   1.919  2.2484 -1.2172 -1.5350
  253TIP3   OH222317   0.784   3.314   1.432 -0.5024 -0.4203  0.1499
  253TIP3    H122318   0.741   3.372   1.369 -0.8777 -1.7141 -0.8461
  253TIP3    H222319   0.874   3.345   1.436 -0.4029 -0.4629 -1.2760
  254TIP3   OH222320   4.879   1.061   2.027 -0.2097  0.0047  0.3860
  254TIP3    H122321   4.888   0.971   2.061  0.0473  0.3773  1.3522
  254TIP3    H222322   4.788   1.083   2.042 -0.0203  0.2886  1.1822
  255TIP3   OH222323   4.906   3.743   1.836 -0.3465  0.6084  0.0210
  255TIP3    H122324   4.890   3.837   1.848 -1.3842  0.6622 -1.4332
  255TIP3    H222325   4.828   3.700   1.871 -0.1100  0.3141  0.1957
  256TIP3   OH222326   0.090   1.616   7.868  0.2281  0.2525 -0.3780
  256TIP3    H122327   0.066   1.553   7.800 -1.0394  0.1114  0.1719
  256TIP3    H222328   0.080   1.702   7.825 -2.4743  0.2841  0.0877
  257TIP3   OH222329   5.990   2.666   8.234  0.1462  0.0907 -0.9094
  257TIP3    H122330   5.924   2.635   8.298  0.1321  0.4584 -0.7450
  257TIP3    H222331   6.011   2.754   8.263  0.4149  0.1219 -1.2041
  258TIP3   OH222332   6.598   3.439   0.452  0.0558  0.4695 -0.6232
  258TIP3    H122333   6.621   3.501   0.383 -1.0817 -0.0297 -1.4925
  258TIP3    H222334   6.508   3.463   0.476  0.0345 -0.0909 -0.1389
  259TIP3   OH222335   0.510   5.594   2.095 -0.4570  0.2345 -0.1319
  259TIP3    H122336   0.479   5.673   2.050  0.9357  0.6315 -0.4534
  259TIP3    H222337   0.474   5.522   2.044 -0.9090  0.6738 -0.4420
  260TIP3   OH222338   6.473   0.280   7.927 -0.1642 -0.2371  0.6237
  260TIP3    H122339   6.410   0.221   7.886 -0.8635  0.3807  0.7699
  260TIP3    H222340   6.469   0.258   8.020  1.8401 -2.0276  0.3531
  261TIP3   OH222341   3.711   1.213   0.266 -0.3568  0.1641 -0.8030
  261TIP3    H122342   3.719   1.198   0.360 -0.1019  0.5028 -0.7663
  261TIP3    H222343   3.678   1.303   0.259  1.8548  1.0291 -1.0511
  262TIP3   OH222344   3.191   3.551   0.656 -0.6031  0.1600 -0.6063
  262TIP3    H122345   3.249   3.500   0.599  3.2465  0.5887  2.4784
  262TIP3    H222346   3.180   3.634   0.610  1.0043 -0.0717 -1.4905
  263TIP3   OH222347   5.029   1.229   0.063 -0.2107  0.3823  0.3298
  263TIP3    H122348   5.099   1.164   0.066 -0.1249  0.5189  1.8290
  263TIP3    H222349   4.969   1.197  -0.004  1.4456  0.4456 -1.2602
  264TIP3   OH222350   6.267   3.358   1.463  0.4468 -0.3393 -0.1406
  264TIP3    H122351   6.200   3.319   1.519 -0.0212  0.2792 -0.2554
  264TIP3    H222352   6.233   3.345   1.374  0.4009  0.1200 -0.1905
  265TIP3   OH222353   1.023   5.353   0.948 -0.3698 -0.1600  0.2513
  265TIP3    H122354   0.997   5.261   0.950  0.8434 -0.5062  0.6996
  265TIP3    H222355   1.027   5.375   0.855 -0.7697 -0.5163  0.1443
  266TIP3   OH222356   3.105   5.924   1.146 -0.0426  0.2666 -0.5478
  266TIP3    H122357   3.029   5.953   1.197  0.9825  0.9786  0.6569
  266TIP3    H222358   3.098   5.972   1.064 -1.2932 -0.2530 -0.7577
  267TIP3   OH222359   3.574   6.470   2.555  0.3330  0.3153  0.8982
  267TIP3    H122360   3.520   6.394   2.579  0.2373 -0.0098 -0.2864
  267TIP3    H222361   3.581   6.520   2.636  1.9433 -1.8754  2.2404
  268TIP3   OH222362   2.216   2.786   0.890  0.5601 -0.0174 -0.5669
  268TIP3    H122363   2.243   2.697   0.910 -0.2651 -0.1131  0.1424
  268TIP3    H222364   2.281   2.841   0.934 -0.1258 -0.2504  0.7738
  269TIP3   OH222365   0.708   0.264   2.664  0.1668  0.5523  0.3177
  269TIP3    H122366   0.625   0.238   2.624 -0.1612  0.0714  1.2978
  269TIP3    H222367   0.687   0.345   2.711 -0.0651 -0.2292  1.6029
  270TIP3   OH222368   0.786   0.838   7.255 -0.1850 -0.8189 -0.6425
  270TIP3    H122369   0.717   0.823   7.190  0.4402 -0.1903 -1.4735
  270TIP3    H222370   0.814   0.928   7.240  0.5231 -0.9327 -0.0293
  271TIP3   OH222371   3.163   5.685   1.714 -0.1094 -0.7410  0.1358
  271TIP3    H122372   3.255   5.703   1.696 -0.4559 -0.1498 -1.1993
  271TIP3    H222373   3.148   5.597   1.681 -0.0951 -0.7131  0.0549
  272TIP3   OH222374   5.743   3.183   2.552 -0.7737 -0.1812  0.0888
  272TIP3    H122375   5.730   3.275   2.575  2.4393  1.0744 -2.3731
  272TIP3    H222376   5.798   3.148   2.622  2.0546  1.2658 -1.2712
  273TIP3   OH222377   2.476   0.056   1.906  0.4237  0.1142  0.2001
  273TIP3    H122378   2.541   0.097   1.963  0.9275  0.2110 -0.4315
  273TIP3    H222379   2.435   0.129   1.861  0.0240  0.0374  0.4352
  274TIP3   OH222380   2.135   6.607   2.876 -0.2418 -0.3090  0.2110
  274TIP3    H122381   2.093   6.522   2.886 -2.3618  0.6359 -0.0517
  274TIP3    H222382   2.099   6.660   2.947  0.7420  0.4962  0.1364
  275TIP3   OH222383   0.057   0.214   1.418  0.1179  0.0795  0.4368
  275TIP3    H122384  -0.013   0.175   1.366  0.0887  0.2028  0.3829
  275TIP3    H222385   0.081   0.146   1.482  0.4552 -0.2407 -0.0203
  276TIP3   OH222386   0.909   3.080   0.981 -0.6965  0.0779  0.0210
  276TIP3    H122387   0.999   3.061   0.956 -0.3068  1.0104  0.6653
  276TIP3    H222388   0.876   3.136   0.911 -0.0661  1.5002  0.8107
  277TIP3   OH222389   4.344   0.485   1.942 -0.4625  0.1867  0.3016
  277TIP3    H122390   4.314   0.405   1.900 -1.1827 -0.9177  2.7673
  277TIP3    H222391   4.300   0.555   1.893  1.4642 -0.6542 -2.9762
  278TIP3   OH222392   4.894   1.028   0.758  0.5129  0.1214  0.6516
  278TIP3    H122393   4.823   1.047   0.820  1.5058  1.0026  1.5573
  278TIP3    H222394   4.870   1.077   0.679 -0.6136 -0.7756  0.4167
  279TIP3   OH222395   1.617   4.250   7.337 -0.5147 -0.0290  0.3108
  279TIP3    H122396   1.536   4.233   7.290 -1.4788 -0.7324  2.1256
  279TIP3    H222397   1.649   4.163   7.362  0.1288  0.3066  0.6778
  280TIP3   OH222398   5.137   2.035   0.328  0.2941  0.0932  0.1866
  280TIP3    H122399   5.230   2.025   0.347  1.0598 -2.4259 -3.6530
  280TIP3    H222400   5.107   1.947   0.306 -1.7176  1.4099 -3.2762
  281TIP3   OH222401   6.634   1.555   2.966  0.7038  0.0658  1.3434
  281TIP3    H122402   6.630   1.634   3.019  0.9224  1.9820 -1.2802
  281TIP3    H222403   6.544   1.537   2.941  0.8986  1.0703 -0.1654
  282TIP3   OH222404   2.786   1.145   0.881 -0.1681  0.2657 -0.9735
  282TIP3    H122405   2.750   1.205   0.816  1.7127  0.8243 -1.5678
  282TIP3    H222406   2.879   1.141   0.861  0.1634 -0.9578  0.5923
  283TIP3   OH222407   0.251   0.763   0.461  0.0077 -0.1775  0.0506
  283TIP3    H122408   0.238   0.856   0.479  1.6406  0.3332 -1.0953
  283TIP3    H222409   0.187   0.743   0.393 -0.2115  0.1584  0.1528
  284TIP3   OH222410   1.789   4.045   7.424 -0.4885 -0.8187 -0.0569
  284TIP3    H122411   1.806   4.012   7.512 -1.8227 -1.6175 -0.0636
  284TIP3    H222412   1.875   4.049   7.382 -0.0325 -2.1690  0.6979
  285TIP3   OH222413   0.520   3.244   0.110 -0.4185  0.2463 -0.1646
  285TIP3    H122414   0.426   3.227   0.120 -0.3311  0.7228  1.9676
  285TIP3    H222415   0.560   3.203   0.187  1.1739 -0.1177 -1.1255
  286TIP3   OH222416   3.140   5.522   0.352  0.5775 -0.3876 -0.8094
  286TIP3    H122417   3.167   5.518   0.444 -0.1171  1.3688 -0.4863
  286TIP3    H222418   3.212   5.569   0.309 -0.5748  1.8061 -0.4750
  287TIP3   OH222419   0.156   3.775   1.622 -0.0317  0.4122 -0.1401
  287TIP3    H122420   0.197   3.715   1.560 -1.3279  0.8029 -1.4526
  287TIP3    H222421   0.099   3.830   1.567  0.6525  2.4457  1.0711
  288TIP3   OH222422   3.049   0.207   7.504  0.3876  0.2292  0.3180
  288TIP3    H122423   3.067   0.275   7.440 -0.2130  1.7868  1.7314
  288TIP3    H222424   2.993   0.144   7.458  0.4035  1.0336 -0.8323
  289TIP3   OH222425   0.604   1.585   8.393  0.0445  0.3453 -0.1508
  289TIP3    H122426   0.647   1.555   8.474  1.7635  1.5284 -0.5665
  289TIP3    H222427   0.558   1.664   8.419 -1.2400 -0.4596  0.1068
  290TIP3   OH222428   6.742   2.866   8.120  0.6912  0.1275 -0.4789
  290TIP3    H122429   6.813   2.807   8.098 -1.0947 -2.9184  1.2971
  290TIP3    H222430   6.672   2.809   8.152 -1.3215  3.2018  1.0861
  291TIP3   OH222431   1.372   0.322   1.645  0.7061 -0.0978 -0.3028
  291TIP3    H122432   1.295   0.295   1.695  1.1400  0.5116  0.7360
  291TIP3    H222433   1.419   0.240   1.627  0.1213 -0.4079 -0.4315
  292TIP3   OH222434   1.783   2.290   8.104 -0.3498 -0.1435 -0.2095
  292TIP3    H122435   1.802   2.222   8.168 -0.2220 -0.9183 -1.0404
  292TIP3    H222436   1.740   2.359   8.154 -0.3952 -0.7900  0.6757
  293TIP3   OH222437   5.478   6.670   3.083  0.2993  0.1791  0.0168
  293TIP3    H122438   5.405   6.722   3.117 -0.6531  0.1339 -1.8166
  293TIP3    H222439   5.549   6.685   3.145 -1.3649 -0.1188  2.1166
  294TIP3   OH222440   0.626   6.180   0.536 -0.5135 -0.8827 -0.1898
  294TIP3    H122441   0.680   6.122   0.590  0.5050 -0.6426 -0.9300
  294TIP3    H222442   0.607   6.254   0.593 -1.5797 -1.7670  0.6677
  295TIP3   OH222443   6.700   2.986   1.198 -0.2726  0.0441 -0.4810
  295TIP3    H122444   6.648   2.908   1.179 -0.3745  0.7089 -3.2872
  295TIP3    H222445   6.697   2.994   1.293 -2.8142 -1.6233 -0.3419
  296TIP3   OH222446   3.410   2.069   0.111  0.6168 -0.3924 -0.0578
  296TIP3    H122447   3.366   2.058   0.027  1.0170 -0.3851 -0.2686
  296TIP3    H222448   3.422   1.979   0.144  2.7551 -0.5845 -1.2000
  297TIP3   OH222449   2.432   2.589   0.776  0.0113 -0.2749 -0.0729
  297TIP3    H122450   2.378   2.572   0.853  1.2710 -0.1238  0.8681
  297TIP3    H222451   2.506   2.640   0.809  0.4258  0.0425 -1.4338
  298TIP3   OH222452   0.529   3.192   8.104  0.2652 -0.6178  0.1037
  298TIP3    H122453   0.620   3.162   8.111 -0.1236 -2.0460 -0.5941
  298TIP3    H222454   0.524   3.228   8.015  0.5615  0.9994  0.7175
  299TIP3   OH222455   5.763   1.107   1.488  0.0881 -0.0219  0.0309
  299TIP3    H122456   5.673   1.141   1.486 -0.2294 -0.8395 -0.9997
  299TIP3    H222457   5.818   1.184   1.504 -0.7488  0.5990 -0.0037
  300TIP3   OH222458   4.314   5.398   2.214  0.1175 -0.4454 -0.0116
  300TIP3    H122459   4.342   5.477   2.168  1.4977 -0.7423  0.2856
  300TIP3    H222460   4.382   5.334   2.196  0.8483 -0.5064  2.5887
  301TIP3   OH222461   0.539   6.795   7.888  0.0579 -0.0155  0.0936
  301TIP3    H122462   0.496   6.735   7.949  0.4360 -0.6500 -0.2551
  301TIP3    H222463   0.479   6.802   7.814  0.1281 -0.1768  0.0194
  302TIP3   OH222464   6.315   3.870   8.253  0.0850  0.0396  0.0320
  302TIP3    H122465   6.336   3.780   8.228 -1.3895  0.4243 -3.1876
  302TIP3    H222466   6.220   3.875   8.249  0.1353  1.7521 -0.0213
  303TIP3   OH222467   4.567   0.367   2.086  0.4753  1.1139 -0.4018
  303TIP3    H122468   4.574   0.287   2.035  2.0341  0.7090  0.3901
  303TIP3    H222469   4.513   0.342   2.162  0.5854  0.9396 -0.3816
  304TIP3   OH222470   1.522   1.079   0.591 -0.4857  0.1441  0.0192
  304TIP3    H122471   1.433   1.044   0.584 -0.8811  0.6532  1.9833
  304TIP3    H222472   1.523   1.128   0.673  1.3940  0.8194 -0.3464
  305TIP3   OH222473   3.545   5.310   0.103  0.2309  0.2365  0.2876
  305TIP3    H122474   3.571   5.253   0.031  0.0016 -1.7047  1.6710
  305TIP3    H222475   3.459   5.278   0.129 -0.4680  2.0355  0.3428
  306TIP3   OH222476   2.861   5.510   1.966 -0.2715 -0.0707 -0.2888
  306TIP3    H122477   2.835   5.600   1.951  1.2414  0.2580 -1.0507
  306TIP3    H222478   2.883   5.506   2.059 -0.4062  0.3155 -0.2418
  307TIP3   OH222479   2.839   0.782   1.966 -0.5373 -0.1724 -0.2973
  307TIP3    H122480   2.835   0.713   1.900  0.8234 -1.3220  0.7583
  307TIP3    H222481   2.893   0.850   1.926  0.4846 -0.9682 -0.3123
  308TIP3   OH222482   0.111   5.962   2.288  0.0733 -0.0443 -0.0035
  308TIP3    H122483   0.039   5.995   2.342  0.6397 -0.5228  1.0954
  308TIP3    H222484   0.146   5.888   2.339  0.4714 -0.6808 -1.1714
  309TIP3   OH222485   2.151   4.820   7.321  0.4665  0.0219 -0.4753
  309TIP3    H122486   2.160   4.737   7.367  2.3776  0.4366 -0.0351
  309TIP3    H222487   2.068   4.812   7.274 -0.8684 -0.9560  1.8793
  310TIP3   OH222488   1.012   2.286   2.174 -0.5825 -0.0136 -0.1155
  310TIP3    H122489   1.019   2.265   2.267 -0.6997 -0.8889 -0.2998
  310TIP3    H222490   0.920   2.271   2.152  0.1516 -3.7119 -1.2526
  311TIP3   OH222491   3.227   4.372   7.761  0.8109 -0.3975  0.1507
  311TIP3    H122492   3.203   4.443   7.701  0.4902  0.6743  1.5109
  311TIP3    H222493   3.305   4.333   7.721 -0.1524 -0.6039 -1.6587
  312TIP3   OH222494   5.993   0.582   1.463 -0.3604  0.1627 -0.3293
  312TIP3    H122495   6.011   0.489   1.452 -0.6698 -0.1013  1.1371
  312TIP3    H222496   5.909   0.585   1.510 -0.8544  1.2151 -1.2122
  313TIP3   OH222497   5.683   1.503   0.177 -0.3618 -0.8073 -0.6865
  313TIP3    H122498   5.631   1.516   0.097 -1.2461  1.0918  0.1359
  313TIP3    H222499   5.619   1.507   0.248  0.7881  0.7393  0.3091
  314TIP3   OH222500   4.606   2.719   1.885 -0.0953 -0.4872  0.8066
  314TIP3    H122501   4.646   2.752   1.805 -3.0620  0.2667 -0.4902
  314TIP3    H222502   4.580   2.629   1.863 -0.4562 -0.4537  1.0894
  315TIP3   OH222503   6.253   2.610   1.235 -0.5948  0.8337 -0.1747
  315TIP3    H122504   6.307   2.682   1.202  0.5048  0.2711  0.3405
  315TIP3    H222505   6.290   2.590   1.321 -0.8838 -0.3319 -0.3042
  316TIP3   OH222506   5.500   5.639   1.257 -0.1934  0.3221  0.6242
  316TIP3    H122507   5.596   5.633   1.261 -0.2327 -1.1905 -0.1637
  316TIP3    H222508   5.472   5.553   1.228 -1.7184  1.2169 -0.6735
  317TIP3   OH222509   6.764   3.731   1.237  0.1374 -0.3434 -0.3415
  317TIP3    H122510   6.712   3.744   1.317 -0.1355  1.1399 -0.7390
  317TIP3    H222511   6.701   3.700   1.172 -0.2133  1.1165 -0.7262
  318TIP3   OH222512   1.134   4.893   1.193 -0.4284  0.6114 -0.3634
  318TIP3    H122513   1.222   4.868   1.222 -0.4569  2.0710  1.1536
  318TIP3    H222514   1.098   4.942   1.267 -1.6901  1.9251 -1.7816
  319TIP3   OH222515   3.324   6.214   2.917  0.4015 -0.4453 -0.1241
  319TIP3    H122516   3.288   6.279   2.978  0.4064 -1.8184  1.4176
  319TIP3    H222517   3.251   6.156   2.898  0.9425 -1.2923  0.3346
  320TIP3   OH222518   5.186   6.272   2.704  0.4595  0.1163  0.2356
  320TIP3    H122519   5.248   6.345   2.700  1.6180 -0.8914 -0.9731
  320TIP3    H222520   5.229   6.209   2.762  0.4983 -0.5088 -0.4632
  321TIP3   OH222521   0.049   0.288   7.416 -0.0496  0.1393 -0.1491
  321TIP3    H122522   0.005   0.282   7.331 -1.3936  0.7963  0.4538
  321TIP3    H222523   0.103   0.366   7.409  0.9914 -0.6124 -0.8648
  322TIP3   OH222524   2.292   1.854   2.157 -0.4533  0.0017  0.1416
  322TIP3    H122525   2.374   1.894   2.130 -0.6660  0.1328 -0.3153
  322TIP3    H222526   2.310   1.760   2.156 -0.4674  0.0018 -0.5001
  323TIP3   OH222527   5.750   3.148   7.950 -0.0331 -0.2297  0.2229
  323TIP3    H122528   5.670   3.155   8.002 -0.2588 -0.7154 -0.0486
  323TIP3    H222529   5.790   3.235   7.955 -0.8783  0.1867 -0.1085
  324TIP3   OH222530   6.395   1.972   8.284  0.4201 -0.0041  0.5105
  324TIP3    H122531   6.331   1.956   8.215 -0.3142 -0.4960  1.2812
  324TIP3    H222532   6.464   2.024   8.242  0.9388 -1.8785 -1.0816
  325TIP3   OH222533   0.780   3.689   0.571  0.0823 -0.0438  0.1447
  325TIP3    H122534   0.771   3.667   0.664 -1.3336  1.3020  0.3727
  325TIP3    H222535   0.806   3.607   0.529 -1.0890 -1.1372  1.4666
  326TIP3   OH222536   1.909   6.764   8.262 -0.3055 -0.3429 -0.2397
  326TIP3    H122537   1.878   6.800   8.345  1.7125  0.6060  0.1424
  326TIP3    H222538   1.863   6.680   8.254  1.7476 -2.0795  3.4931
  327TIP3   OH222539   1.743   2.135   1.043 -0.1372  0.1468 -0.0017
  327TIP3    H122540   1.768   2.043   1.038 -2.4295 -0.6996  2.1478
  327TIP3    H222541   1.796   2.178   0.976  1.2998 -2.6445 -0.7971
  328TIP3   OH222542   3.561   1.475   0.560  0.3963 -0.0740  0.9217
  328TIP3    H122543   3.599   1.440   0.641  0.4194 -1.8282  0.2159
  328TIP3    H222544   3.530   1.397   0.514 -2.3302  1.1204  0.5765
  329TIP3   OH222545   6.118   5.328   1.024  0.0535  1.0035 -0.4511
  329TIP3    H122546   6.070   5.368   0.952 -1.9604  2.1798  1.4463
  329TIP3    H222547   6.054   5.273   1.069  1.3277  0.0805  0.3139
  330TIP3   OH222548   4.493   3.156   0.525 -0.2678  0.2409  0.3170
  330TIP3    H122549   4.399   3.168   0.509 -0.3872 -0.3192  0.6015
  330TIP3    H222550   4.502   3.164   0.620 -0.0711  0.0029  0.3183
  331TIP3   OH222551   0.922   2.169   0.938  0.2174  0.7377  0.0820
  331TIP3    H122552   0.970   2.177   1.021  0.7048 -0.2168 -0.0985
  331TIP3    H222553   0.870   2.249   0.933 -1.9017 -0.3203  2.6221
  332TIP3   OH222554   5.552   0.359   7.271  0.5714 -0.1492  0.1663
  332TIP3    H122555   5.626   0.388   7.219  1.1261  0.7070  1.3888
  332TIP3    H222556   5.534   0.270   7.241  0.3422  0.5798 -2.0310
  333TIP3   OH222557   5.377   2.568   0.683 -0.2076  0.1919 -0.1310
  333TIP3    H122558   5.383   2.654   0.725 -1.5311  0.2684 -0.0525
  333TIP3    H222559   5.354   2.508   0.754 -2.0768  0.2596 -0.6152
  334TIP3   OH222560   5.406   2.033   8.151 -0.0484 -0.9194 -0.0500
  334TIP3    H122561   5.334   2.049   8.090 -1.4648 -0.8030  1.5907
  334TIP3    H222562   5.481   2.076   8.110 -0.7409 -1.5323 -2.0907
  335TIP3   OH222563   4.890   5.748   0.338 -0.0708  0.0960 -0.4093
  335TIP3    H122564   4.795   5.743   0.331 -0.3128  0.8064  1.6446
  335TIP3    H222565   4.922   5.666   0.302 -1.4444 -0.0633 -1.3147
  336TIP3   OH222566   4.230   4.947   1.062  0.7897  0.1619 -0.1078
  336TIP3    H122567   4.161   5.008   1.090  1.6014  1.3666 -0.6167
  336TIP3    H222568   4.183   4.880   1.012 -0.1503  0.2987  0.5573
  337TIP3   OH222569   2.879   5.133   0.880 -0.5383  0.3035 -0.0623
  337TIP3    H122570   2.917   5.046   0.868 -0.2272  0.6193 -1.6807
  337TIP3    H222571   2.861   5.139   0.974 -0.1340 -1.3155  0.1498
  338TIP3   OH222572   1.762   6.263   8.448 -0.1358  0.1905  0.1420
  338TIP3    H122573   1.850   6.232   8.424 -0.4628  0.2883 -1.2495
  338TIP3    H222574   1.717   6.185   8.481  0.3350  0.0609  0.4909
  339TIP3   OH222575   3.209   5.027   2.061  0.3191 -0.5652 -0.1752
  339TIP3    H122576   3.130   5.014   2.008  0.2248 -0.5503 -0.0393
  339TIP3    H222577   3.245   5.110   2.031  0.1875 -0.4863 -0.1162
  340TIP3   OH222578   5.137   6.660   8.406  0.2178 -0.1767 -0.2366
  340TIP3    H122579   5.146   6.565   8.415 -0.3748 -0.0769  2.0874
  340TIP3    H222580   5.043   6.675   8.397  0.3826  0.1614 -1.6298
  341TIP3   OH222581   6.400   4.044   2.692  0.3326  0.4296  0.1427
  341TIP3    H122582   6.476   4.048   2.750  0.3407 -0.3392  0.1963
  341TIP3    H222583   6.326   4.026   2.750  0.3371 -0.3178 -0.0667
  342TIP3   OH222584   3.900   0.634   0.495  0.1138  0.5440  0.4369
  342TIP3    H122585   3.805   0.642   0.504 -0.0034  0.2974 -0.4688
  342TIP3    H222586   3.916   0.540   0.495  0.1202  0.5118 -1.4260
  343TIP3   OH222587   0.718   0.288   0.287  0.3138  0.3762  0.2878
  343TIP3    H122588   0.722   0.364   0.345 -0.0132  1.4749 -1.0940
  343TIP3    H222589   0.745   0.321   0.202  1.6711 -1.4066 -0.0366
  344TIP3   OH222590   4.839   6.429   6.444 -0.2184  0.4196  0.5077
  344TIP3    H122591   4.812   6.377   6.519 -0.4297 -0.5027 -0.1923
  344TIP3    H222592   4.918   6.474   6.473  0.0029 -0.3456  1.1110
  345TIP3   OH222593   0.381   4.353   2.235 -0.1188 -0.5002  0.2170
  345TIP3    H122594   0.323   4.398   2.174  1.3884 -1.1626 -1.8347
  345TIP3    H222595   0.408   4.274   2.188  1.0125 -1.1306  1.8229
  346TIP3   OH222596   5.968   5.996   1.404 -0.2974 -0.3363 -0.1028
  346TIP3    H122597   5.984   5.960   1.491 -0.8969  0.9218  0.5571
  346TIP3    H222598   5.881   6.036   1.410  0.5533  1.7398 -0.5707
  347TIP3   OH222599   2.538   2.695   8.581  0.3419  0.6579 -0.0654
  347TIP3    H122600   2.555   2.637   8.507  0.2703 -1.9000  1.7854
  347TIP3    H222601   2.443   2.694   8.592  0.4685 -0.6334  1.2249
  348TIP3   OH222602   3.958   0.257   0.009 -0.7496 -0.3868 -0.0161
  348TIP3    H122603   3.882   0.299  -0.032 -0.0185  1.3414  0.3600
  348TIP3    H222604   4.012   0.329   0.041  0.8942 -1.5888  0.0485
  349TIP3   OH222605   4.913   2.843   0.547 -0.0048  0.4875 -0.2843
  349TIP3    H122606   4.911   2.882   0.460  0.3521  3.3791  0.8885
  349TIP3    H222607   4.870   2.758   0.536 -1.1994  1.3247 -2.9996
  350TIP3   OH222608   2.397   1.740   0.065  0.1190 -0.4973 -0.3970
  350TIP3    H122609   2.368   1.823   0.026 -1.2109 -0.2542  1.0004
  350TIP3    H222610   2.483   1.760   0.101  0.4087 -0.1267 -1.2629
  351TIP3   OH222611   3.781   1.350   2.139 -0.1193  0.0740  0.6836
  351TIP3    H122612   3.704   1.393   2.102  0.0418  2.2905  2.6755
  351TIP3    H222613   3.745   1.293   2.207 -0.1465 -1.0070 -0.2123
  352TIP3   OH222614   5.246   5.126   1.703  0.1650  0.3090 -0.0808
  352TIP3    H122615   5.240   5.112   1.797  0.7561  0.7618  0.0352
  352TIP3    H222616   5.158   5.111   1.670  0.2232 -1.1246  0.3615
  353TIP3   OH222617   2.719   2.807   1.146 -0.0921 -0.4666  0.2624
  353TIP3    H122618   2.703   2.724   1.192  0.0956 -0.7850 -0.2372
  353TIP3    H222619   2.795   2.844   1.190  1.4619 -1.8281 -1.1677
  354TIP3   OH222620   0.165   4.356   1.591  0.2824  0.2227  0.2109
  354TIP3    H122621   0.218   4.365   1.512 -0.9483  2.1484 -0.4714
  354TIP3    H222622   0.075   4.362   1.561 -0.2984 -0.9090  1.5783
  355TIP3   OH222623   0.692   1.294   2.490  0.3381  0.4545  0.2860
  355TIP3    H122624   0.724   1.263   2.574 -0.8924 -1.4219  0.1234
  355TIP3    H222625   0.701   1.219   2.431 -0.9253  0.9921 -0.6496
  356TIP3   OH222626   6.643   5.608   2.426 -0.1304  0.1561  0.3250
  356TIP3    H122627   6.608   5.544   2.487  0.7508 -0.1395  0.5361
  356TIP3    H222628   6.645   5.690   2.475 -0.0950  0.0721  0.4640
  357TIP3   OH222629   4.229   1.247   8.208  0.2703 -0.5586 -0.9499
  357TIP3    H122630   4.287   1.229   8.134  2.1340  0.1902  0.2612
  357TIP3    H222631   4.198   1.336   8.194 -2.2205 -1.5474 -2.5612
  358TIP3   OH222632   1.791   1.641   0.627 -0.0234 -0.6454  0.4091
  358TIP3    H122633   1.860   1.653   0.562  2.6497  0.1831  3.1267
  358TIP3    H222634   1.786   1.546   0.639 -0.0442 -0.7657 -0.4852
  359TIP3   OH222635   4.538   0.917   0.484  0.0586  0.0783  0.2870
  359TIP3    H122636   4.510   0.825   0.489  0.1303 -0.0723 -1.3432
  359TIP3    H222637   4.633   0.913   0.492 -0.0397  0.1979  1.8286
  360TIP3   OH222638   3.321   0.763   8.223 -0.3145 -0.3543  0.0663
  360TIP3    H122639   3.318   0.670   8.244 -1.3684 -0.6015 -1.0398
  360TIP3    H222640   3.231   0.794   8.238 -0.2289  0.2396 -0.5627
  361TIP3   OH222641   5.014   5.915   1.922  0.9486  0.3112 -0.1169
  361TIP3    H122642   5.052   5.994   1.960  0.8267 -0.0988  0.8873
  361TIP3    H222643   4.968   5.873   1.995 -1.2199  0.6480 -1.2055
  362TIP3   OH222644   3.425   2.271   8.421 -1.0034 -0.3158  0.1237
  362TIP3    H122645   3.479   2.211   8.472 -1.1296 -0.1824  0.4158
  362TIP3    H222646   3.485   2.340   8.393 -0.7553 -0.8183 -0.6119
  363TIP3   OH222647   4.924   0.041   0.299 -0.4365  0.0521  0.0547
  363TIP3    H122648   4.988   0.111   0.315  0.4391 -0.7323  0.0395
  363TIP3    H222649   4.924   0.030   0.205 -0.4695 -0.0741  0.0703
  364TIP3   OH222650   5.622   2.239   3.063 -0.1078  0.4658  0.0771
  364TIP3    H122651   5.585   2.184   3.132 -1.0717  0.4494 -0.4331
  364TIP3    H222652   5.579   2.323   3.073 -2.0038 -0.1697 -1.8529
  365TIP3   OH222653   5.553   5.519   1.548 -0.2337  0.1512 -0.1680
  365TIP3    H122654   5.529   5.574   1.473 -2.2765 -1.0188 -0.4396
  365TIP3    H222655   5.616   5.456   1.512 -1.1275 -0.3450 -0.8968
  366TIP3   OH222656   5.869   5.116   0.824  0.3488 -0.1167 -0.7857
  366TIP3    H122657   5.841   5.175   0.754  0.1661  0.4352 -0.2561
  366TIP3    H222658   5.907   5.174   0.890 -1.7975 -0.3423  0.7298
  367TIP3   OH222659   4.107   5.264   1.980  0.8665  0.3166  0.2940
  367TIP3    H122660   4.081   5.206   2.052 -0.2680  0.6275  0.1639
  367TIP3    H222661   4.131   5.204   1.909 -2.5412 -0.1458 -0.6583
  368TIP3   OH222662   1.746   6.133   8.157 -0.0261  0.0406 -0.2522
  368TIP3    H122663   1.702   6.080   8.223  0.3314  0.1894  0.1073
  368TIP3    H222664   1.834   6.148   8.192  0.4533 -0.5914 -1.1435
  369TIP3   OH222665   3.072   3.080   7.360 -0.3695 -0.2848  0.0841
  369TIP3    H122666   3.049   3.154   7.304 -1.8085  0.0288  1.0320
  369TIP3    H222667   3.131   3.026   7.306 -0.8573  0.5364 -1.3227
  370TIP3   OH222668   1.816   1.325   0.211 -0.0832  0.1757  0.0106
  370TIP3    H122669   1.784   1.252   0.264 -0.5493 -0.0714 -0.5889
  370TIP3    H222670   1.824   1.289   0.123 -1.5187  1.1586 -0.5600
  371TIP3   OH222671   3.808   3.447   1.382  0.1952  0.0290  0.2232
  371TIP3    H122672   3.875   3.455   1.315 -1.3795  0.7148 -1.3611
  371TIP3    H222673   3.780   3.355   1.378  1.0658 -0.2878  0.9696
  372TIP3   OH222674   5.326   4.104   8.727 -0.4753 -0.1423  0.0242
  372TIP3    H122675   5.411   4.060   8.725 -0.2255  0.3380 -0.3548
  372TIP3    H222676   5.348   4.197   8.723 -1.0152 -0.0129  0.0484
  373TIP3   OH222677   2.198   0.721   7.144 -0.0903  0.0354 -1.0125
  373TIP3    H122678   2.113   0.680   7.154 -1.6319  2.3861 -3.2495
  373TIP3    H222679   2.261   0.649   7.157 -2.1799 -1.3891  2.7380
  374TIP3   OH222680   2.599   0.802   8.347 -0.0999 -0.1488 -0.0267
  374TIP3    H122681   2.518   0.758   8.371  0.0993 -1.1106 -1.0089
  374TIP3    H222682   2.656   0.793   8.424 -0.6841 -0.0551  0.4193
  375TIP3   OH222683   2.727   2.382   7.248  0.3612  0.3699  0.2290
  375TIP3    H122684   2.731   2.403   7.155  1.3683 -1.0803 -0.0860
  375TIP3    H222685   2.718   2.467   7.291  1.0055  1.1566 -1.1223
  376TIP3   OH222686   5.395   4.727   0.119 -0.2628 -0.3333 -0.4677
  376TIP3    H122687   5.316   4.673   0.123 -0.8043  0.2275 -2.2810
  376TIP3    H222688   5.442   4.694   0.042  2.1002 -1.6580  1.4213
  377TIP3   OH222689   0.483   5.705   8.365  0.0996  0.0699 -0.4000
  377TIP3    H122690   0.495   5.634   8.302  0.7144  0.3500 -0.6061
  377TIP3    H222691   0.466   5.660   8.448 -0.4761 -0.3010 -0.7160
  378TIP3   OH222692   1.867   1.714   7.511  0.4035  0.4750  0.1511
  378TIP3    H122693   1.897   1.631   7.474  0.6364  0.1826  0.9636
  378TIP3    H222694   1.880   1.703   7.605 -0.6162  1.0133  0.3647
  379TIP3   OH222695   5.187   0.869   2.897  0.6538 -0.1555 -0.0391
  379TIP3    H122696   5.160   0.779   2.917  1.1247 -0.3444 -0.2277
  379TIP3    H222697   5.229   0.863   2.811  0.7674  0.2310 -0.0126
  380TIP3   OH222698   2.387   5.321   3.142 -0.2130 -0.6704  0.0383
  380TIP3    H122699   2.380   5.413   3.164 -0.5915 -0.0166 -2.4779
  380TIP3    H222700   2.432   5.319   3.057 -2.9044 -2.4883 -1.5409
  381TIP3   OH222701   3.485   2.991   7.811 -0.3304 -0.4347  0.6431
  381TIP3    H122702   3.475   2.907   7.765  0.0140 -0.7297  1.1009
  381TIP3    H222703   3.395   3.019   7.829 -0.4501 -0.6574  0.4028
  382TIP3   OH222704   6.115   5.966   0.943 -0.0589  0.0463 -1.0146
  382TIP3    H122705   6.065   5.953   0.862 -0.7649 -1.2653 -0.3852
  382TIP3    H222706   6.151   5.880   0.963  1.2081  0.6498 -0.6217
  383TIP3   OH222707   4.057   6.374   0.565  0.3372  0.4097 -0.4214
  383TIP3    H122708   3.988   6.313   0.537  0.3263  0.0524  0.3571
  383TIP3    H222709   4.116   6.320   0.618  0.8030  0.8890 -0.4539
  384TIP3   OH222710   6.812   2.070   8.591  0.0651  0.0408 -0.6631
  384TIP3    H122711   6.724   2.070   8.552  0.0569 -1.2294 -0.7169
  384TIP3    H222712   6.832   1.977   8.603  2.0686  0.2241 -2.1458
  385TIP3   OH222713   3.412   3.631   8.078 -0.5163  0.2976  0.1271
  385TIP3    H122714   3.447   3.661   7.994 -0.4169 -1.3386 -0.4450
  385TIP3    H222715   3.454   3.546   8.093 -0.2457  0.7142  2.0279
  386TIP3   OH222716   4.996   6.495   8.752  0.5648  0.0385 -0.3712
  386TIP3    H122717   5.016   6.471   8.661  1.9722 -0.0468 -0.0558
  386TIP3    H222718   5.073   6.542   8.783 -0.7813  2.1123  0.1003
  387TIP3   OH222719   5.857   1.588   7.859 -0.4003 -0.3376 -0.4443
  387TIP3    H122720   5.796   1.567   7.789 -2.3005  0.2635  0.9454
  387TIP3    H222721   5.939   1.608   7.814 -1.5076 -0.0701 -2.4859
  388TIP3   OH222722   6.636   3.812   0.487 -0.0874  0.0185 -0.4277
  388TIP3    H122723   6.684   3.786   0.566  2.7942  0.0370 -2.0127
  388TIP3    H222724   6.652   3.740   0.425 -0.0905  1.1396 -1.7852
  389TIP3   OH222725   6.243   5.022   1.101 -0.6909  0.0930 -0.4971
  389TIP3    H122726   6.229   5.056   1.013  0.7816  0.4109 -0.6376
  389TIP3    H222727   6.326   4.975   1.096  0.1912  1.3781  1.0414
  390TIP3   OH222728   1.535   4.845   1.233 -0.3114  0.6298  0.3922
  390TIP3    H122729   1.477   4.794   1.176 -0.2497 -0.1251  0.9955
  390TIP3    H222730   1.485   4.857   1.313  0.3807 -0.0931  0.9454
  391TIP3   OH222731   4.688   4.188   7.417 -0.2047  0.4729 -0.3573
  391TIP3    H122732   4.685   4.277   7.380 -2.1667  0.7135  0.2440
  391TIP3    H222733   4.685   4.130   7.340  1.9601  0.8678 -0.8002
  392TIP3   OH222734   3.180   4.558   1.947  0.1470 -0.4402  0.5316
  392TIP3    H122735   3.257   4.613   1.934  0.8119 -1.5308 -0.4080
  392TIP3    H222736   3.182   4.534   2.040  0.4811  0.1868  0.6880
  393TIP3   OH222737   4.240   0.936   0.162 -0.6586  0.2899  0.6370
  393TIP3    H122738   4.218   0.962   0.073 -2.0196 -1.7591  0.3167
  393TIP3    H222739   4.157   0.908   0.201  0.3955 -2.1021  1.3763
  394TIP3   OH222740   4.858   0.216   1.818 -0.4748 -0.1999  0.3468
  394TIP3    H122741   4.840   0.294   1.870 -1.2648  0.7386 -1.2650
  394TIP3    H222742   4.879   0.149   1.883  0.1709  1.3133  1.7766
  395TIP3   OH222743   3.704   5.556   1.834 -0.2550  0.5596 -0.4750
  395TIP3    H122744   3.616   5.571   1.868 -0.1136  0.0199  0.1397
  395TIP3    H222745   3.726   5.467   1.861  0.2217  0.4488 -1.1974
  396TIP3   OH222746   3.695   2.834   2.184 -0.5226  0.4177 -0.2926
  396TIP3    H122747   3.755   2.898   2.144  1.3347 -0.8002  0.3810
  396TIP3    H222748   3.750   2.758   2.201 -2.0108 -0.3190  1.5405
  397TIP3   OH222749   1.769   5.430   0.780 -0.0641 -0.1976  0.5112
  397TIP3    H122750   1.692   5.439   0.723  0.5498  1.4732 -0.1274
  397TIP3    H222751   1.804   5.519   0.786  0.7298 -0.6015  2.3484
  398TIP3   OH222752   0.122   6.659   1.520  0.3024 -0.2390 -0.0453
  398TIP3    H122753   0.175   6.699   1.451  0.0656 -2.8465 -1.8468
  398TIP3    H222754   0.037   6.642   1.479 -1.5016  2.2489  2.2783
  399TIP3   OH222755   6.297   3.190   7.429 -0.2104 -0.4176  0.2979
  399TIP3    H122756   6.277   3.270   7.380  0.3007  0.6836  1.7966
  399TIP3    H222757   6.299   3.121   7.363 -1.2306  0.7018 -0.9647
  400TIP3   OH222758   5.942   0.791   1.916 -0.1110 -0.2393 -0.3871
  400TIP3    H122759   5.915   0.781   1.824 -0.3349 -1.7534 -0.1823
  400TIP3    H222760   6.027   0.748   1.921 -0.0163 -0.0056  0.0912
  401TIP3   OH222761   5.160   1.052   8.003  0.2464  0.2441 -0.1959
  401TIP3    H122762   5.189   0.979   8.058 -2.1393 -2.2790 -2.0645
  401TIP3    H222763   5.109   1.108   8.062  1.5650  0.1334  1.1176
  402TIP3   OH222764   1.763   0.166   1.942 -0.0473  0.6457 -0.3317
  402TIP3    H122765   1.824   0.191   1.873  0.4285  0.1286 -0.1062
  402TIP3    H222766   1.717   0.248   1.964  1.0093  1.1980 -0.0686
  403TIP3   OH222767   1.288   2.867   1.701  0.5866  0.0153  0.1189
  403TIP3    H122768   1.300   2.886   1.608  1.9205 -1.2142  0.0079
  403TIP3    H222769   1.258   2.776   1.703 -0.4152  0.3448  0.8642
  404TIP3   OH222770   5.827   1.621   0.607 -0.9462 -0.0646 -0.2237
  404TIP3    H122771   5.800   1.695   0.551  1.2325 -0.0361 -1.3233
  404TIP3    H222772   5.811   1.544   0.553 -1.3510 -0.2668  0.1758
  405TIP3   OH222773   5.343   0.679   0.725  0.3171  0.1021  0.0727
  405TIP3    H122774   5.325   0.741   0.795  0.1131  1.5603 -1.2068
  405TIP3    H222775   5.339   0.732   0.645  2.1668 -1.1497 -0.9311
  406TIP3   OH222776   0.611   0.401   8.281  0.5431 -0.3476  0.1105
  406TIP3    H122777   0.629   0.487   8.245 -4.1807  0.7048 -0.4490
  406TIP3    H222778   0.586   0.348   8.205 -1.3905 -0.6299  0.8860
  407TIP3   OH222779   2.529   5.380   2.924  0.6499 -0.0057  0.4694
  407TIP3    H122780   2.516   5.370   2.830 -0.5116  0.2100  0.5940
  407TIP3    H222781   2.609   5.432   2.932  1.1961 -0.6961 -0.3716
  408TIP3   OH222782   4.500   0.789   7.452  0.1483  0.8294 -0.2856
  408TIP3    H122783   4.418   0.838   7.442 -2.7452 -3.4959 -0.5868
  408TIP3    H222784   4.529   0.771   7.363 -0.4565 -0.3323 -0.2651
  409TIP3   OH222785   2.812   5.063   7.825 -0.0715  0.0005 -0.3377
  409TIP3    H122786   2.728   5.040   7.784 -0.5655 -0.4442  0.8720
  409TIP3    H222787   2.850   4.979   7.851 -1.2527  0.2808  2.8829
  410TIP3   OH222788   3.444   2.935   0.166 -0.9766  0.0493 -0.9219
  410TIP3    H122789   3.518   2.875   0.173 -0.7200  0.4317 -0.1606
  410TIP3    H222790   3.394   2.920   0.246 -1.1501  0.5308 -0.9344
  411TIP3   OH222791   3.469   4.360   0.702  0.1983 -0.5127  0.4976
  411TIP3    H122792   3.394   4.300   0.694 -1.2368  1.3394 -1.2052
  411TIP3    H222793   3.441   4.426   0.766  0.1247  0.4388 -0.4694
  412TIP3   OH222794   0.793   4.632   1.452  0.0590 -0.3080  0.0191
  412TIP3    H122795   0.741   4.552   1.443  0.9291 -0.8491 -0.3690
  412TIP3    H222796   0.877   4.610   1.412  0.3611  0.7611  0.0399
  413TIP3   OH222797   3.071   3.170   8.025  0.3822  0.5630  0.4945
  413TIP3    H122798   3.011   3.195   8.095 -1.3027  2.4352 -1.5001
  413TIP3    H222799   3.149   3.222   8.041 -0.5866  2.1856  0.1554
  414TIP3   OH222800   0.453   5.258   0.681 -0.1102 -0.5330  0.2311
  414TIP3    H122801   0.471   5.347   0.711  2.0234 -1.0993  0.8357
  414TIP3    H222802   0.435   5.267   0.587 -1.0385  0.6351  0.5048
  415TIP3   OH222803   2.001   5.918   2.186 -0.3464  0.1088  0.2521
  415TIP3    H122804   2.015   5.928   2.091  2.1851  0.1723  0.5515
  415TIP3    H222805   1.906   5.912   2.196 -0.9056  3.0026 -2.0095
  416TIP3   OH222806   3.312   4.626   7.638 -0.0413  0.0443  0.2349
  416TIP3    H122807   3.309   4.640   7.543  1.5139 -0.5750  0.0680
  416TIP3    H222808   3.404   4.638   7.661  0.3267 -3.4504  1.0478
  417TIP3   OH222809   5.646   3.432   8.358  0.0025 -0.1620  0.2566
  417TIP3    H122810   5.652   3.339   8.376 -0.4698 -0.4543 -1.0324
  417TIP3    H222811   5.569   3.442   8.303  0.5940  0.8564 -0.4286
  418TIP3   OH222812   2.028   5.422   1.696  0.1849 -0.1099 -0.5948
  418TIP3    H122813   2.034   5.383   1.609  0.9133  0.7803 -0.9541
  418TIP3    H222814   2.081   5.364   1.752 -0.4522 -0.7981 -0.6830
  419TIP3   OH222815   2.648   1.217   1.411  0.5072 -0.6655 -0.2137
  419TIP3    H122816   2.731   1.178   1.386  0.4119 -1.1384  0.1874
  419TIP3    H222817   2.664   1.256   1.497  0.3748 -0.5698 -0.2319
  420TIP3   OH222818   1.899   1.903   1.028  0.1868 -0.0570  0.2431
  420TIP3    H122819   1.947   1.960   0.968 -1.6475 -0.2616 -1.5408
  420TIP3    H222820   1.966   1.861   1.081  1.9246  0.1652 -1.6603
  421TIP3   OH222821   4.287   4.145   8.217  0.7469  0.6555 -0.1048
  421TIP3    H122822   4.279   4.227   8.267  0.8699 -0.2736  1.5235
  421TIP3    H222823   4.367   4.157   8.165  0.1398  1.9997 -0.7840
  422TIP3   OH222824   0.633   2.958   0.005  0.6187  0.0183  0.0319
  422TIP3    H122825   0.615   2.941  -0.087 -0.6617 -0.8465  0.4116
  422TIP3    H222826   0.728   2.968   0.009  0.5937  1.2498 -1.5391
  423TIP3   OH222827   3.649   4.204   0.130 -0.6085 -0.0366 -0.6286
  423TIP3    H122828   3.559   4.192   0.100 -1.8956  0.6307  2.5516
  423TIP3    H222829   3.641   4.259   0.208  2.4553 -0.8650  0.3974
  424TIP3   OH222830   6.557   3.182   2.017 -0.2288  0.0877 -0.1214
  424TIP3    H122831   6.588   3.269   2.044  1.6030 -0.3354 -0.7002
  424TIP3    H222832   6.538   3.137   2.099  0.8247  0.3501  0.2810
  425TIP3   OH222833   2.698   2.976   0.938 -0.2975  0.1239 -0.4631
  425TIP3    H122834   2.765   3.029   0.894  0.4943 -0.6481 -0.2209
  425TIP3    H222835   2.734   2.960   1.025 -1.8216  1.5851  0.4810
  426TIP3   OH222836   4.976   5.000   2.208  0.2272  0.6879 -0.1859
  426TIP3    H122837   5.052   5.031   2.256  0.7755 -0.6535 -0.1683
  426TIP3    H222838   5.008   4.926   2.156 -1.4937 -1.4381  1.5777
  427TIP3   OH222839   5.599   4.160   2.717  0.1095  0.2086  0.2082
  427TIP3    H122840   5.630   4.073   2.739 -0.4338 -0.9055 -2.9717
  427TIP3    H222841   5.504   4.156   2.728  0.1540  0.7245  0.9076
  428TIP3   OH222842   6.082   1.490   7.165 -0.5725 -0.2971  0.4957
  428TIP3    H122843   6.149   1.536   7.113 -0.0071 -1.8886 -0.2541
  428TIP3    H222844   6.000   1.531   7.140 -0.1604 -0.1334 -0.6583
  429TIP3   OH222845   3.802   0.983   0.508 -0.2204  0.1200  0.3981
  429TIP3    H122846   3.825   1.076   0.515  1.1882 -0.0962 -0.8942
  429TIP3    H222847   3.865   0.939   0.565  0.7476 -0.2318 -0.9085
  430TIP3   OH222848   5.905   2.207   1.760  0.3154 -0.2256 -0.2261
  430TIP3    H122849   5.876   2.118   1.742 -1.7645  0.0766  1.1873
  430TIP3    H222850   5.874   2.258   1.684  3.2371 -0.9110 -2.0162
  431TIP3   OH222851   3.327   6.168   1.420 -0.0793  0.7853 -0.2808
  431TIP3    H122852   3.338   6.079   1.386  0.2899 -0.1879  2.1710
  431TIP3    H222853   3.390   6.220   1.371  0.9177 -0.6401 -0.5900
  432TIP3   OH222854   0.762   6.100   7.497  0.1437  0.3054  0.4119
  432TIP3    H122855   0.671   6.089   7.467  0.7224 -2.0270 -0.6995
  432TIP3    H222856   0.755   6.103   7.593 -1.0477 -0.7696  0.3873
  433TIP3   OH222857   5.009   3.479   1.980  0.4273 -0.5597 -0.4540
  433TIP3    H122858   5.032   3.498   2.071  0.1026  0.1955 -0.5225
  433TIP3    H222859   4.914   3.466   1.982  0.5171 -1.2672 -0.5675
  434TIP3   OH222860   5.434   1.815   3.097  0.3980 -0.2372  0.3944
  434TIP3    H122861   5.484   1.862   3.031 -0.2178 -0.9163 -0.5842
  434TIP3    H222862   5.496   1.754   3.137  0.6627 -0.1427  0.1241
  435TIP3   OH222863   6.737   5.747   7.313  0.3953  1.1533  0.0966
  435TIP3    H122864   6.776   5.664   7.284 -0.7425  0.7780 -0.3916
  435TIP3    H222865   6.666   5.763   7.252 -1.9545  0.4587  2.4404
  436TIP3   OH222866   3.033   6.690   0.348  0.1283  0.3596 -0.5698
  436TIP3    H122867   2.949   6.707   0.307 -1.3954  0.4118  2.3066
  436TIP3    H222868   3.059   6.773   0.387 -0.1091 -0.3586  1.2156
  437TIP3   OH222869   2.705   2.422   0.734  0.4124 -0.9683 -0.0804
  437TIP3    H122870   2.630   2.363   0.731  1.4726 -2.5100  1.6336
  437TIP3    H222871   2.677   2.495   0.790 -0.2682 -0.7678 -0.6639
  438TIP3   OH222872   0.804   5.539   2.309 -0.5094  0.0198 -0.5860
  438TIP3    H122873   0.876   5.556   2.370 -0.9772  0.0069 -0.0203
  438TIP3    H222874   0.836   5.571   2.225 -0.4401  1.4814 -0.0269
  439TIP3   OH222875   4.972   1.341   7.569 -0.4860 -0.3042 -0.1399
  439TIP3    H122876   4.975   1.395   7.490 -1.1208 -1.5957 -1.0853
  439TIP3    H222877   4.881   1.344   7.597 -0.2801  0.0815  0.5121
  440TIP3   OH222878   2.604   4.344   7.920 -0.5713 -0.0800  0.3885
  440TIP3    H122879   2.533   4.401   7.890 -1.6783 -1.5423  0.1103
  440TIP3    H222880   2.560   4.274   7.968  0.6243 -1.3850 -0.3416
  441TIP3   OH222881   6.357   3.609   7.844  0.4107  0.1525 -0.4297
  441TIP3    H122882   6.302   3.662   7.786  0.7893  0.6437 -0.3532
  441TIP3    H222883   6.427   3.577   7.788 -0.3939 -1.1685 -0.7136
  442TIP3   OH222884   3.347   2.545   1.475  0.1543 -0.3653  0.3230
  442TIP3    H122885   3.429   2.593   1.479 -0.0008 -0.0061 -0.5642
  442TIP3    H222886   3.280   2.613   1.467 -0.5908 -0.4136  4.1304
  443TIP3   OH222887   1.643   4.417   2.992 -0.1926 -0.2601  0.3065
  443TIP3    H122888   1.621   4.509   3.007  0.4081  0.0305 -0.5317
  443TIP3    H222889   1.735   4.411   3.017 -0.0004 -0.4364 -0.4234
  444TIP3   OH222890   2.864   4.156   6.980  0.0195  0.0731 -0.5208
  444TIP3    H122891   2.826   4.243   6.967  0.0391  0.0764 -0.5546
  444TIP3    H222892   2.958   4.172   6.988 -0.1269  0.2891  1.3947
  445TIP3   OH222893   5.256   2.624   0.419 -0.3690 -0.3310 -0.0349
  445TIP3    H122894   5.299   2.576   0.490  0.0680 -1.2324 -0.8865
  445TIP3    H222895   5.326   2.639   0.355 -0.6747  0.7863 -0.1354
  446TIP3   OH222896   1.338   1.067   0.221 -0.1431  0.3015  0.0784
  446TIP3    H122897   1.423   1.056   0.178  1.0789  2.0561  1.8907
  446TIP3    H222898   1.342   1.007   0.296 -1.7356 -1.7662 -1.3808
  447TIP3   OH222899   1.132   5.537   0.194  0.1661 -0.0591 -0.5637
  447TIP3    H122900   1.160   5.613   0.245 -0.1780  0.9113 -1.7500
  447TIP3    H222901   1.209   5.480   0.192  0.5321  0.3967  0.1010
  448TIP3   OH222902   5.736   0.278   0.457  0.4618 -0.2188 -0.1102
  448TIP3    H122903   5.697   0.191   0.469 -1.0952  0.2540 -1.4275
  448TIP3    H222904   5.665   0.331   0.422  1.7448  1.2769 -0.5313
  449TIP3   OH222905   5.835   4.992   6.626  0.4746  0.4941  0.4384
  449TIP3    H122906   5.884   4.944   6.693  2.6409  3.5171  1.2491
  449TIP3    H222907   5.747   5.001   6.662  0.6771 -0.8223  1.2963
  450TIP3   OH222908   4.257   6.169   0.283 -0.6034 -0.0322  0.0751
  450TIP3    H122909   4.290   6.228   0.351 -0.8053  3.0826 -2.2818
  450TIP3    H222910   4.259   6.222   0.203 -0.7704 -3.3253 -2.3079
  451TIP3   OH222911   3.380   5.089   1.044 -0.8158 -0.6066  0.1523
  451TIP3    H122912   3.440   5.115   1.115 -3.0531 -0.8702  2.2829
  451TIP3    H222913   3.354   5.172   1.004 -0.0479 -0.3934  0.0854
  452TIP3   OH222914   2.603   4.330   1.524 -0.7429 -0.1848  0.0003
  452TIP3    H122915   2.662   4.384   1.578 -0.0290 -0.8240 -0.1237
  452TIP3    H222916   2.543   4.393   1.485  0.1144  0.5377 -0.1977
  453TIP3   OH222917   3.905   1.777   7.272 -0.1411 -0.6219  0.0726
  453TIP3    H122918   3.940   1.692   7.297  0.8485 -0.0970  0.5190
  453TIP3    H222919   3.863   1.762   7.187  0.2593 -1.4944  0.0217
  454TIP3   OH222920   3.661   1.819   0.156  0.1742 -0.1618  0.7060
  454TIP3    H122921   3.565   1.816   0.151  0.2676 -2.2648 -1.8854
  454TIP3    H222922   3.684   1.750   0.218  0.0197 -1.0658 -0.2129
  455TIP3   OH222923   6.361   3.572   1.120 -0.0409 -0.3079  0.2080
  455TIP3    H122924   6.320   3.488   1.139 -0.9928  0.4965  1.9131
  455TIP3    H222925   6.450   3.550   1.092 -0.6697 -1.9259 -0.6664
  456TIP3   OH222926   6.425   0.984   1.795  0.5712  0.0846 -0.5366
  456TIP3    H122927   6.458   0.903   1.756 -0.7194 -0.8291  0.1874
  456TIP3    H222928   6.499   1.045   1.791  0.4231  0.2548 -4.7522
  457TIP3   OH222929   1.108   2.624   1.632  0.5133 -0.7583  0.2683
  457TIP3    H122930   1.088   2.673   1.552  1.9988 -0.3373  0.1121
  457TIP3    H222931   1.030   2.572   1.649 -0.2171 -0.0813 -0.8837
  458TIP3   OH222932   2.031   5.449   0.488 -0.1862  0.9174 -0.3864
  458TIP3    H122933   2.020   5.543   0.500 -0.6932  0.9691 -1.2076
  458TIP3    H222934   2.069   5.419   0.570 -2.1061  1.4825  0.7840
  459TIP3   OH222935   4.522   0.430   1.763 -0.5618 -0.5653  0.1897
  459TIP3    H122936   4.471   0.431   1.844  0.0052 -1.2993  0.5635
  459TIP3    H222937   4.612   0.411   1.791 -0.0954  0.5437 -0.4759
  460TIP3   OH222938   4.539   4.677   0.758  0.0501 -0.1881  0.0781
  460TIP3    H122939   4.446   4.701   0.764 -0.1726 -1.0116 -0.0513
  460TIP3    H222940   4.567   4.712   0.673 -0.4711 -1.0362 -0.4556
  461TIP3   OH222941   3.998   3.567   0.916 -0.3930 -0.3643  0.4147
  461TIP3    H122942   4.011   3.593   1.007 -0.8559  0.6764  0.2013
  461TIP3    H222943   4.018   3.474   0.914  0.8542 -0.1379  1.3302
  462TIP3   OH222944   4.157   2.186   6.488  0.2371 -0.2754 -0.1186
  462TIP3    H122945   4.249   2.183   6.465  0.9896  0.2638  2.5091
  462TIP3    H222946   4.140   2.102   6.531  0.6187  1.0851  2.9041
  463TIP3   OH222947   6.664   4.415   0.801  0.0693 -0.0015  0.1719
  463TIP3    H122948   6.743   4.419   0.855  1.5654  1.4982 -1.9543
  463TIP3    H222949   6.631   4.505   0.803 -0.2435 -0.0905 -0.8121
  464TIP3   OH222950   3.333   3.307   1.620 -0.1292  0.2731  0.4741
  464TIP3    H122951   3.294   3.376   1.566  1.4838  1.2824  0.5320
  464TIP3    H222952   3.276   3.303   1.697 -0.6873  0.9989  0.1224
  465TIP3   OH222953   3.840   3.011   7.166 -0.0647  0.3599  0.3219
  465TIP3    H122954   3.765   3.042   7.115 -1.0543 -0.6639  1.1160
  465TIP3    H222955   3.894   3.089   7.178 -1.6335  1.4145  0.8439
  466TIP3   OH222956   0.339   0.539   2.156  1.1362  0.8953  0.1462
  466TIP3    H122957   0.408   0.482   2.188 -0.1208 -0.6368  0.2439
  466TIP3    H222958   0.262   0.517   2.209  0.1227  1.3044 -1.0977
  467TIP3   OH222959   6.234   0.714   1.560  0.7751 -1.0929 -0.5167
  467TIP3    H122960   6.153   0.667   1.539 -0.4274  1.0939 -1.1402
  467TIP3    H222961   6.266   0.745   1.475  0.7983  0.2648 -0.0399
  468TIP3   OH222962   4.511   5.290   8.556 -0.2182  0.2402  0.2634
  468TIP3    H122963   4.497   5.303   8.649 -0.6686 -0.9044  0.3819
  468TIP3    H222964   4.565   5.211   8.550  0.1289  0.5208 -0.4275
  469TIP3   OH222965   1.734   6.523   8.568  0.2617 -0.4497  0.1886
  469TIP3    H122966   1.736   6.429   8.548 -0.0616 -0.1692 -1.3184
  469TIP3    H222967   1.766   6.529   8.658 -1.7735 -2.1837  1.1203
  470TIP3   OH222968   2.683   1.681   7.581  0.1094 -0.3142  0.5223
  470TIP3    H122969   2.648   1.762   7.544 -1.5381 -0.9512  0.5944
  470TIP3    H222970   2.619   1.614   7.557  1.3174 -1.5634  0.6646
  471TIP3   OH222971   6.017   1.989   2.020  0.1694  0.2992  0.0602
  471TIP3    H122972   5.990   1.940   2.098  2.1494 -1.5982 -0.3748
  471TIP3    H222973   6.102   2.026   2.044  1.0383 -0.7183 -1.3169
  472TIP3   OH222974   5.757   5.472   8.576  0.0808 -0.1331 -0.2193
  472TIP3    H122975   5.744   5.541   8.642  0.9537 -0.6915  0.5610
  472TIP3    H222976   5.673   5.427   8.571 -0.1289  0.2083  0.1865
  473TIP3   OH222977   0.668   1.420   2.184  0.3437  0.1057  0.7724
  473TIP3    H122978   0.740   1.364   2.155 -0.6749 -0.9770  0.2456
  473TIP3    H222979   0.708   1.506   2.194  1.1276  0.2307 -2.3791
  474TIP3   OH222980   6.113   6.528   1.884  0.1609  0.3208  0.3833
  474TIP3    H122981   6.072   6.485   1.958 -0.5309  4.0941  2.4326
  474TIP3    H222982   6.207   6.529   1.905 -0.1378  2.3790  1.9602
  475TIP3   OH222983   6.690   4.585   1.815  0.3576  0.3080  0.5210
  475TIP3    H122984   6.740   4.520   1.864 -0.6150 -2.4558 -1.8663
  475TIP3    H222985   6.634   4.627   1.881  0.0089 -2.3084  2.0414
  476TIP3   OH222986   5.705   2.801   8.426 -0.0737 -0.0868  0.1097
  476TIP3    H122987   5.621   2.778   8.467 -0.2837  1.9859  0.9393
  476TIP3    H222988   5.745   2.716   8.405 -1.7840 -1.1411  0.8883
  477TIP3   OH222989   6.503   4.983   8.632  0.3673  0.1108 -0.1362
  477TIP3    H122990   6.523   4.936   8.713 -1.7651  0.0232  0.3863
  477TIP3    H222991   6.427   4.937   8.596 -1.7881  3.0279  0.3439
  478TIP3   OH222992   1.221   4.175   7.610  0.4863  0.2018  0.4173
  478TIP3    H122993   1.286   4.217   7.555 -0.0014 -0.7251 -0.9098
  478TIP3    H222994   1.141   4.173   7.556 -0.0993 -0.4228  1.2773
  479TIP3   OH222995   3.062   6.477   1.957  0.2310  0.4758  0.0126
  479TIP3    H122996   2.981   6.449   1.999 -0.4393 -0.7703 -1.9599
  479TIP3    H222997   3.131   6.455   2.019 -0.6903 -1.2355  0.4804
  480TIP3   OH222998   6.548   4.174   1.867  0.1815 -0.2390  0.3208
  480TIP3    H122999   6.525   4.241   1.932 -0.1329 -0.7003  0.6963
  480TIP3    H223000   6.635   4.200   1.836 -0.0730  0.5175  0.2236
  481TIP3   OH223001   6.153   1.429   8.083  0.5774 -0.1252 -0.4943
  481TIP3    H123002   6.109   1.455   8.164  0.0286  1.9228 -1.3869
  481TIP3    H223003   6.083   1.396   8.027  0.6564  0.1747 -0.7733
  482TIP3   OH223004   5.005   2.764   2.499  0.6325  0.1800  0.6860
  482TIP3    H123005   5.029   2.800   2.585 -2.6699  0.1208  1.7417
  482TIP3    H223006   5.033   2.672   2.504  1.0404  0.3357  1.4573
  483TIP3   OH223007   3.685   3.862   8.402  0.0505 -0.1103  0.0451
  483TIP3    H123008   3.704   3.773   8.432  0.7017 -0.8397 -2.3686
  483TIP3    H223009   3.766   3.892   8.361  0.2431  2.1165  1.8110
  484TIP3   OH223010   4.626   1.243   0.665  0.8865  0.6210 -0.2801
  484TIP3    H123011   4.587   1.229   0.579  1.3219  0.9881 -0.5444
  484TIP3    H223012   4.559   1.215   0.727  1.2606 -1.4226 -0.7423
  485TIP3   OH223013   4.605   6.399   2.216  0.1919 -0.0835  0.2057
  485TIP3    H123014   4.619   6.339   2.143 -2.4889 -1.3648  0.6236
  485TIP3    H223015   4.513   6.425   2.208  0.6233  2.0313  1.4864
  486TIP3   OH223016   3.322   2.951   7.217  0.0216 -0.4385 -0.4922
  486TIP3    H123017   3.308   3.035   7.172 -2.3961 -0.3125  0.3256
  486TIP3    H223018   3.320   2.885   7.148 -2.0666 -0.1165 -0.7991
  487TIP3   OH223019   4.939   4.886   8.001 -0.1617  0.5419  0.1788
  487TIP3    H123020   4.879   4.897   7.927  0.9769 -1.0789 -1.0668
  487TIP3    H223021   5.004   4.955   7.991  0.9005 -0.6158 -1.3382
  488TIP3   OH223022   0.201   0.582   1.120  0.2375 -0.5084  0.0768
  488TIP3    H123023   0.158   0.598   1.036  1.8435 -3.0220 -1.3564
  488TIP3    H223024   0.153   0.508   1.158 -0.2164  0.3441  1.2358
  489TIP3   OH223025   4.629   2.756   0.623  0.2828  0.0422 -0.2148
  489TIP3    H123026   4.641   2.811   0.546  1.2393 -0.5048 -0.4747
  489TIP3    H223027   4.539   2.773   0.652  0.4423  1.4476 -0.5036
  490TIP3   OH223028   2.173   4.842   1.666 -0.1555 -0.6244 -0.2481
  490TIP3    H123029   2.117   4.845   1.743  0.8796 -0.0630  0.5079
  490TIP3    H223030   2.197   4.933   1.648  1.9078 -0.9444  0.5360
  491TIP3   OH223031   6.701   0.257   7.644 -0.5955  0.3960 -0.2314
  491TIP3    H123032   6.687   0.163   7.657  0.1177  0.3472  0.2589
  491TIP3    H223033   6.747   0.263   7.561 -0.7859  0.3265 -0.3435
  492TIP3   OH223034   0.575   1.048   1.516  0.6771 -0.0294 -0.5156
  492TIP3    H123035   0.553   1.140   1.533  0.7737 -0.2336  0.8349
  492TIP3    H223036   0.670   1.047   1.506  0.4890  0.3658 -3.1267
  493TIP3   OH223037   4.452   2.504   7.476  0.3633 -0.1579  0.0488
  493TIP3    H123038   4.398   2.514   7.398  1.4824  0.5780 -0.6629
  493TIP3    H223039   4.390   2.502   7.549 -0.5971  1.7863 -0.6481
  494TIP3   OH223040   1.744   6.216   0.945 -0.3264  0.0951  0.2058
  494TIP3    H123041   1.717   6.261   0.865 -1.3965  0.1535  0.5827
  494TIP3    H223042   1.757   6.285   1.009 -0.2845 -0.0040  0.3052
  495TIP3   OH223043   0.496   0.154   0.231 -0.4380 -0.7693  0.2350
  495TIP3    H123044   0.423   0.214   0.244 -0.7606 -0.7163 -1.5484
  495TIP3    H223045   0.574   0.209   0.240 -0.7208 -0.1494 -0.9060
  496TIP3   OH223046   4.343   2.729   1.655 -0.1176  1.2052 -0.2434
  496TIP3    H123047   4.315   2.768   1.738  0.3445  1.5791 -0.2580
  496TIP3    H223048   4.359   2.804   1.597  1.0062  1.0184 -0.2032
  497TIP3   OH223049   3.636   2.007   7.517  0.3561  0.3083 -0.4545
  497TIP3    H123050   3.545   1.981   7.528  0.8713 -2.2189 -1.4681
  497TIP3    H223051   3.661   2.043   7.603 -1.1512 -0.3723  0.3114
  498TIP3   OH223052   0.393   5.995   0.818 -0.0800  0.2648  0.2490
  498TIP3    H123053   0.420   5.944   0.741  1.1141 -0.0122  0.8348
  498TIP3    H223054   0.366   5.929   0.882  0.9163  0.3887  0.8040
  499TIP3   OH223055   4.416   3.830   7.868 -0.5058 -0.5280 -0.0296
  499TIP3    H123056   4.473   3.908   7.863 -1.0772 -0.1206 -0.3165
  499TIP3    H223057   4.339   3.860   7.917  0.3822 -1.6241  2.1580
  500TIP3   OH223058   1.760   5.302   0.304 -0.1889 -0.4891  0.0484
  500TIP3    H123059   1.742   5.238   0.373 -0.2529 -0.2351  0.2735
  500TIP3    H223060   1.727   5.262   0.224 -3.0270  0.4501  0.6155
  501TIP3   OH223061   1.321   2.794   6.989  0.4433 -0.7424  0.3034
  501TIP3    H123062   1.364   2.772   6.907 -0.9257 -0.3457 -0.5440
  501TIP3    H223063   1.319   2.890   6.991 -1.5994 -0.7326 -0.3589
  502TIP3   OH223064   0.008   4.022   0.725 -0.3468  0.0855  0.5141
  502TIP3    H123065   0.093   3.979   0.727 -1.1923 -2.1254 -2.4301
  502TIP3    H223066   0.023   4.103   0.676  0.0592 -0.3695 -0.1243
  503TIP3   OH223067   5.670   4.694   7.784  0.1157  0.2767 -0.6898
  503TIP3    H123068   5.604   4.674   7.850  0.4529 -1.0862 -0.7378
  503TIP3    H223069   5.629   4.670   7.701  1.2306 -2.3147 -0.5893
  504TIP3   OH223070   6.737   6.626   2.215 -0.2788  0.2368 -0.3805
  504TIP3    H123071   6.760   6.689   2.146  1.4328  0.0510 -0.0253
  504TIP3    H223072   6.709   6.680   2.289  1.6392  0.6741  0.0906
  505TIP3   OH223073   6.802   4.001   8.041  0.4370 -0.0417 -0.3912
  505TIP3    H123074   6.720   3.988   8.090  2.2168 -1.0348  2.5874
  505TIP3    H223075   6.841   4.079   8.079  1.9233 -0.8717 -0.1145
  506TIP3   OH223076   0.376   6.135   8.074 -0.0174  0.4489 -0.1813
  506TIP3    H123077   0.319   6.066   8.109 -2.0500  0.9822 -2.1982
  506TIP3    H223078   0.366   6.128   7.979  1.5397  2.0658 -0.5122
  507TIP3   OH223079   3.337   1.204   1.419  0.4714  0.2043  0.7283
  507TIP3    H123080   3.371   1.238   1.336  0.9554  0.6430  1.1008
  507TIP3    H223081   3.336   1.280   1.477 -0.5319  0.0575  0.9241
  508TIP3   OH223082   0.446   1.501   0.647 -0.4781 -0.4970 -0.0531
  508TIP3    H123083   0.499   1.424   0.624  0.5798  0.4272 -0.8051
  508TIP3    H223084   0.358   1.479   0.619 -0.2046 -1.4590 -0.1938
  509TIP3   OH223085   2.091   5.386   7.600  0.2936 -0.1503  0.3295
  509TIP3    H123086   2.151   5.374   7.674 -1.3971  3.3561  2.5501
  509TIP3    H223087   2.132   5.453   7.546 -0.5228  0.6534  0.6697
  510TIP3   OH223088   6.109   1.145   0.110 -0.2384 -0.2623  0.2638
  510TIP3    H123089   6.195   1.173   0.078 -0.5070  0.2416 -0.0236
  510TIP3    H223090   6.049   1.161   0.036 -0.4253 -1.4875  0.1288
  511TIP3   OH223091   3.398   3.863   7.655 -0.5469 -0.0174 -0.4106
  511TIP3    H123092   3.308   3.888   7.633  0.0627 -0.8006 -4.4000
  511TIP3    H223093   3.392   3.769   7.675 -0.6754  0.0985  0.1341
  512TIP3   OH223094   1.551   3.067   0.897  0.1555 -0.1200 -0.4885
  512TIP3    H123095   1.515   3.089   0.811 -0.2057  0.1049 -0.2792
  512TIP3    H223096   1.617   2.999   0.879  0.3740  0.2210 -0.9868
  513TIP3   OH223097   3.032   0.035   2.634 -0.5884 -0.2831  0.4742
  513TIP3    H123098   3.014   0.114   2.584  0.8552 -1.2302 -1.6763
  513TIP3    H223099   3.113   0.053   2.681 -0.2998 -0.4281  0.0421
  514TIP3   OH223100   2.344   4.743   0.516 -0.1923  0.0543 -0.0822
  514TIP3    H123101   2.396   4.790   0.581  0.9762 -3.4349  1.7765
  514TIP3    H223102   2.406   4.723   0.446 -0.7289  1.2689 -0.9501
  515TIP3   OH223103   4.359   0.548   2.205  0.3117  0.1973 -0.5355
  515TIP3    H123104   4.380   0.500   2.125 -3.6740 -2.7714 -0.0782
  515TIP3    H223105   4.432   0.529   2.264  2.2418  0.6276 -2.6480
  516TIP3   OH223106   1.585   1.961   8.124  0.3896 -0.1349 -0.5412
  516TIP3    H123107   1.599   1.966   8.030 -0.2853 -1.7191 -0.7541
  516TIP3    H223108   1.562   2.050   8.150  0.9547  0.3980 -1.7970
  517TIP3   OH223109   6.529   2.069   2.289 -0.2209  0.2686 -0.2976
  517TIP3    H123110   6.498   2.006   2.355  2.3170  0.7409  1.5099
  517TIP3    H223111   6.512   2.155   2.328 -1.1392  0.6547 -1.5117
  518TIP3   OH223112   6.501   0.654   8.389 -0.0370  0.0002 -0.3576
  518TIP3    H123113   6.436   0.707   8.343 -0.6375 -1.6230 -1.4750
  518TIP3    H223114   6.513   0.577   8.333  0.9950 -0.9161  1.0646
  519TIP3   OH223115   2.655   4.268   0.815  0.2380  0.0616  0.0124
  519TIP3    H123116   2.675   4.310   0.899  0.0335 -0.2375  0.2129
  519TIP3    H223117   2.736   4.223   0.791 -0.3697 -1.7813  1.1981
  520TIP3   OH223118   3.293   0.137   1.827  0.4413 -0.0398  0.0430
  520TIP3    H123119   3.322   0.127   1.736 -0.1143 -1.5014 -0.0026
  520TIP3    H223120   3.232   0.065   1.841  0.9301 -0.1796  1.7497
  521TIP3   OH223121   5.219   0.194   1.642 -0.3135 -0.6199 -0.2393
  521TIP3    H123122   5.137   0.230   1.608 -2.0886 -1.0733  3.0860
  521TIP3    H223123   5.256   0.265   1.694 -0.4394 -1.4490  1.0375
  522TIP3   OH223124   4.303   3.610   2.274 -0.3248 -0.6294  0.3838
  522TIP3    H123125   4.316   3.579   2.364  0.3073 -0.3662  0.3830
  522TIP3    H223126   4.323   3.534   2.220 -1.4223 -1.0094  0.4837
  523TIP3   OH223127   3.883   4.600   8.236  0.7110  0.1499 -0.4714
  523TIP3    H123128   3.902   4.639   8.150  1.1200 -0.3464 -0.6125
  523TIP3    H223129   3.827   4.525   8.216 -1.1464  1.3889 -0.0906
  524TIP3   OH223130   3.202   5.679   7.785  0.1671 -0.0762  0.7049
  524TIP3    H123131   3.199   5.642   7.873 -1.3469 -1.7105  0.0476
  524TIP3    H223132   3.295   5.681   7.763  0.4795 -0.8993  1.8395
  525TIP3   OH223133   2.323   2.430   6.450 -0.7280 -0.2809  0.2310
  525TIP3    H123134   2.386   2.445   6.520 -1.7890  1.0165  0.9433
  525TIP3    H223135   2.364   2.361   6.396  2.9235  2.7127 -1.2784
  526TIP3   OH223136   0.575   2.166   0.757  0.1393 -0.6574 -0.4575
  526TIP3    H123137   0.623   2.242   0.722  1.6986 -0.2816  2.1896
  526TIP3    H223138   0.516   2.204   0.822 -0.5292 -1.5702 -0.5193
  527TIP3   OH223139   4.815   1.081   0.213 -0.5180 -0.1797 -0.3432
  527TIP3    H123140   4.749   1.039   0.158 -0.7477  0.5174 -0.6116
  527TIP3    H223141   4.773   1.163   0.242 -0.6476 -0.8201  1.3844
  528TIP3   OH223142   2.449   3.173   7.862 -0.0246 -0.0637 -0.3348
  528TIP3    H123143   2.411   3.086   7.851 -0.1309  0.0798 -1.1850
  528TIP3    H223144   2.504   3.186   7.784 -1.7707  1.4987 -1.4014
  529TIP3   OH223145   3.804   5.318   8.092  0.3119  0.2147  0.4459
  529TIP3    H123146   3.808   5.243   8.034  1.9330 -0.3446  1.2220
  529TIP3    H223147   3.811   5.394   8.034  1.8775 -0.3308 -0.1335
  530TIP3   OH223148   4.483   3.695   8.713 -0.3876  0.2891  0.3197
  530TIP3    H123149   4.538   3.704   8.635 -0.3094  0.5925  0.4083
  530TIP3    H223150   4.397   3.671   8.679  0.0911 -1.4782  0.2420
  531TIP3   OH223151   2.919   0.492   1.470 -0.6489  0.3414  0.1010
  531TIP3    H123152   2.867   0.556   1.421 -2.0075  0.6626  1.8646
  531TIP3    H223153   2.874   0.484   1.554  1.5854 -0.1661  1.3279
  532TIP3   OH223154   6.137   5.230   1.835  0.2931  0.2874  0.0712
  532TIP3    H123155   6.046   5.224   1.863 -0.5267  2.4330 -1.8681
  532TIP3    H223156   6.133   5.271   1.749  3.1598  1.2158  0.2912
  533TIP3   OH223157   1.478   2.153   7.909  0.2461  0.2485 -0.3208
  533TIP3    H123158   1.399   2.198   7.880 -0.3314 -1.5735 -1.8125
  533TIP3    H223159   1.550   2.211   7.884 -0.4972  0.6976 -1.4790
  534TIP3   OH223160   5.930   5.714   0.961 -0.5051  0.0835 -0.4174
  534TIP3    H123161   6.023   5.700   0.980 -0.4029 -0.2647 -1.1534
  534TIP3    H223162   5.929   5.763   0.879 -0.9071  2.8949  1.1443
  535TIP3   OH223163   1.338   2.078   0.640 -0.4057 -0.0522 -0.3374
  535TIP3    H123164   1.414   2.053   0.693  1.5464  1.0889 -2.4187
  535TIP3    H223165   1.292   2.144   0.693  0.1947 -0.5390  0.8314
  536TIP3   OH223166   2.311   6.138   1.694 -0.8630  0.4943  0.2859
  536TIP3    H123167   2.273   6.050   1.690  0.4549 -0.0528 -0.9488
  536TIP3    H223168   2.380   6.138   1.628  0.3190  1.9233  1.4438
  537TIP3   OH223169   0.856   5.141   1.974 -0.1431 -0.5326 -0.5309
  537TIP3    H123170   0.808   5.209   2.021  0.6590 -0.8880  0.8664
  537TIP3    H223171   0.947   5.170   1.976  0.2938 -1.8472  0.5425
  538TIP3   OH223172   3.567   4.373   7.943  0.1743  0.5389  0.4366
  538TIP3    H123173   3.501   4.327   7.890  1.3201 -0.9827  0.2793
  538TIP3    H223174   3.558   4.465   7.918 -1.4779  0.2863 -0.0190
  539TIP3   OH223175   0.796   0.522   7.080 -0.4445  0.1394 -0.0466
  539TIP3    H123176   0.853   0.569   7.140  0.5942 -1.1773  0.0421
  539TIP3    H223177   0.846   0.444   7.055 -0.4997  0.9639 -3.1939
  540TIP3   OH223178   0.105   2.248   2.642 -0.2973 -0.3434  0.3545
  540TIP3    H123179   0.175   2.314   2.646 -0.4832 -0.1852  2.2271
  540TIP3    H223180   0.124   2.190   2.716 -0.0489 -2.5479 -1.3432
  541TIP3   OH223181   1.951   0.447   1.551  0.3110 -0.4575  0.4855
  541TIP3    H123182   1.900   0.528   1.551  0.2932 -0.4683  0.5386
  541TIP3    H223183   1.960   0.424   1.459  1.1363  0.1114  0.4135
  542TIP3   OH223184   1.356   3.996   6.967 -0.0326  0.2078 -0.1167
  542TIP3    H123185   1.387   4.071   7.018 -0.3305  1.2206 -1.3632
  542TIP3    H223186   1.337   4.033   6.880 -2.1037 -0.9112 -0.1862
  543TIP3   OH223187   1.206   0.958   7.953 -0.1532  0.0182 -0.1003
  543TIP3    H123188   1.157   0.878   7.932 -0.0776 -0.3591  1.0766
  543TIP3    H223189   1.215   1.004   7.869 -0.4828 -1.0450 -0.7342
  544TIP3   OH223190   6.668   0.010   2.378  0.2602  0.2919  0.2773
  544TIP3    H123191   6.591   0.037   2.428 -0.3119  0.4256 -0.6542
  544TIP3    H223192   6.705   0.092   2.343  0.8991  0.2418  0.8091
  545TIP3   OH223193   2.955   5.510   0.902  0.1317 -0.2214  0.5389
  545TIP3    H123194   2.861   5.499   0.917 -0.3487  1.4023 -0.9764
  545TIP3    H223195   2.989   5.541   0.987 -1.3143  2.3386  0.2555
  546TIP3   OH223196   1.183   6.643   8.691 -0.1785 -0.4007 -0.0188
  546TIP3    H123197   1.261   6.604   8.651 -0.6777 -1.4175 -0.0238
  546TIP3    H223198   1.213   6.672   8.777  0.4424  0.1384 -0.3964
  547TIP3   OH223199   6.099   3.342   0.920 -0.2037  0.0813  0.1430
  547TIP3    H123200   6.155   3.400   0.868  1.0858  0.1089  1.5058
  547TIP3    H223201   6.044   3.298   0.855  2.9568 -1.6879 -1.5941
  548TIP3   OH223202   4.149   2.789   6.999 -0.2676 -0.3956 -1.1137
  548TIP3    H123203   4.218   2.726   6.978 -1.5604 -2.3379  0.1690
  548TIP3    H223204   4.163   2.860   6.937  1.8085 -1.5038 -2.0453
  549TIP3   OH223205   1.997   2.925   0.530 -0.1435  0.2889  0.1676
  549TIP3    H123206   1.941   2.925   0.607 -0.0403  0.2915  0.2420
  549TIP3    H223207   2.086   2.932   0.564 -0.0220 -0.8303  0.1015
  550TIP3   OH223208   2.797   2.119   7.334 -0.2252  0.2769 -0.1451
  550TIP3    H123209   2.813   2.145   7.424 -0.6872 -2.4185  0.7999
  550TIP3    H223210   2.781   2.201   7.288  3.2482  2.0518  1.4524
  551TIP3   OH223211   2.598   5.287   0.042 -0.4983 -0.3971 -0.0465
  551TIP3    H123212   2.649   5.295  -0.039  0.4491 -1.4287  0.4177
  551TIP3    H223213   2.544   5.366   0.044  2.1352  1.5358  0.1238
  552TIP3   OH223214   2.465   4.061   2.558  0.9449  0.1422 -0.0919
  552TIP3    H123215   2.475   4.102   2.644 -0.1906  2.0769 -0.8097
  552TIP3    H223216   2.428   4.130   2.503  1.2523 -1.1672 -2.0412
  553TIP3   OH223217   2.504   1.232   1.670 -0.2430 -0.5185 -0.2747
  553TIP3    H123218   2.496   1.327   1.674  0.9940 -0.4260  0.4622
  553TIP3    H223219   2.414   1.201   1.656 -1.0164  0.6531  1.7319
  554TIP3   OH223220   1.553   3.160   8.604  0.0812 -0.2961 -0.4122
  554TIP3    H123221   1.602   3.086   8.641  0.2818  0.3109  0.5653
  554TIP3    H223222   1.473   3.120   8.569  1.2831 -1.3218 -2.1524
  555TIP3   OH223223   5.157   3.092   7.474  0.0984  0.3775 -0.3371
  555TIP3    H123224   5.109   3.013   7.446  0.7697  0.7707 -2.7387
  555TIP3    H223225   5.124   3.109   7.563  0.1406 -2.7508  0.3970
  556TIP3   OH223226   6.824   5.890   0.334 -0.5446  0.5497  0.2890
  556TIP3    H123227   6.738   5.921   0.362  0.0319  1.6660  0.8652
  556TIP3    H223228   6.845   5.943   0.258 -0.6737 -0.2297 -0.2986
  557TIP3   OH223229   1.388   3.319   0.343  0.3088  0.4629  0.1776
  557TIP3    H123230   1.348   3.261   0.408  2.6990 -1.0136  0.4415
  557TIP3    H223231   1.458   3.267   0.304  1.7161  2.7523 -0.5411
  558TIP3   OH223232   6.117   0.533   1.051  0.4733  0.0703 -0.1299
  558TIP3    H123233   6.141   0.571   0.967 -0.4356 -0.8303 -0.8157
  558TIP3    H223234   6.070   0.603   1.097  1.8627  0.9106  0.0855
  559TIP3   OH223235   1.183   1.801   0.221  0.0291 -0.5278 -0.0540
  559TIP3    H123236   1.226   1.867   0.167  0.6495 -0.3665  0.6242
  559TIP3    H223237   1.093   1.831   0.229 -0.1734 -0.7527 -1.3102
  560TIP3   OH223238   3.905   1.737   0.551  0.4359 -0.5382  0.2813
  560TIP3    H123239   3.962   1.661   0.542 -0.4712 -1.2169  0.1310
  560TIP3    H223240   3.831   1.718   0.494  1.7515  2.0271 -2.5813
  561TIP3   OH223241   0.599   1.727   2.358  0.4656 -0.0188 -0.0311
  561TIP3    H123242   0.594   1.817   2.389 -1.1998  0.5730 -1.8079
  561TIP3    H223243   0.577   1.732   2.265  1.3388 -2.1502 -0.4253
  562TIP3   OH223244   3.047   1.879   8.582 -0.6573 -0.3308  0.2692
  562TIP3    H123245   3.070   1.873   8.489  1.1276  0.2281  0.6216
  562TIP3    H223246   2.956   1.850   8.587 -0.3867 -1.6238 -1.4729
  563TIP3   OH223247   3.044   6.250   2.279 -0.2615  0.2574 -0.1424
  563TIP3    H123248   3.031   6.163   2.319  0.0219  1.5700  3.1257
  563TIP3    H223249   3.136   6.269   2.293 -0.1756  0.8429 -1.4382
  564TIP3   OH223250   3.008   0.624   0.517  0.6566 -0.2199 -1.2344
  564TIP3    H123251   2.996   0.694   0.581 -0.8592  1.0412 -2.8005
  564TIP3    H223252   2.971   0.546   0.560 -0.1304  0.5489 -0.4676
  565TIP3   OH223253   2.051   1.193   2.304 -0.1902  0.6099 -0.3621
  565TIP3    H123254   1.962   1.227   2.309 -0.9091 -1.0426 -0.9851
  565TIP3    H223255   2.092   1.221   2.385 -1.6297  0.5317  0.4347
  566TIP3   OH223256   4.855   1.844   2.548  0.7207 -0.3052 -0.2774
  566TIP3    H123257   4.836   1.922   2.599 -0.7064 -0.0929 -1.0499
  566TIP3    H223258   4.788   1.844   2.479  2.5581 -0.5452 -2.1748
  567TIP3   OH223259   4.521   4.648   0.288 -0.1703 -0.3680  0.3048
  567TIP3    H123260   4.541   4.567   0.335 -0.9248 -0.0123  1.2688
  567TIP3    H223261   4.515   4.715   0.356  2.0256  0.8479 -0.6246
  568TIP3   OH223262   5.149   0.985   0.843 -0.2055  0.4600  0.2667
  568TIP3    H123263   5.072   1.028   0.805  0.2219  0.6777 -0.3664
  568TIP3    H223264   5.200   1.057   0.881  0.3555  0.4939 -0.5180
  569TIP3   OH223265   4.968   6.186   8.748  0.7528  0.2414 -0.0008
  569TIP3    H123266   4.892   6.238   8.722  0.9401  0.1883 -0.6529
  569TIP3    H223267   5.010   6.238   8.817  0.6786  0.7428 -0.3280
  570TIP3   OH223268   6.116   3.142   0.646  0.0374 -0.0354  0.8949
  570TIP3    H123269   6.204   3.107   0.660  0.3480  0.7570  1.0105
  570TIP3    H223270   6.065   3.068   0.614  1.1091 -0.1662 -0.6359
  571TIP3   OH223271   3.478   3.766   6.715 -0.0669  0.2401 -0.5018
  571TIP3    H123272   3.499   3.680   6.751  1.1480  0.3057 -0.9991
  571TIP3    H223273   3.495   3.827   6.788 -1.2721  0.0439 -0.0387
  572TIP3   OH223274   4.855   5.325   0.147  0.8710  0.4313  0.3520
  572TIP3    H123275   4.922   5.347   0.082 -0.8236  0.8155 -1.4061
  572TIP3    H223276   4.901   5.321   0.230  3.1351  0.1209 -0.8428
  573TIP3   OH223277   4.250   2.360   1.838  0.2158  0.6631 -0.0018
  573TIP3    H123278   4.262   2.437   1.893 -2.0355  0.0926  1.4066
  573TIP3    H223279   4.302   2.291   1.880 -0.0549  0.6952  0.3910
  574TIP3   OH223280   1.870   1.766   1.412  0.5435  0.6302  0.1326
  574TIP3    H123281   1.919   1.816   1.477  0.7597 -0.0554  0.5042
  574TIP3    H223282   1.935   1.743   1.346  0.6149  0.1781  0.3564
  575TIP3   OH223283   1.116   4.725   8.497  0.3465  0.1199 -0.3950
  575TIP3    H123284   1.127   4.789   8.567 -6.1652  2.2945 -0.7427
  575TIP3    H223285   1.135   4.773   8.417 -0.5791  0.3657 -0.4718
  576TIP3   OH223286   5.438   2.219   0.879 -0.7116  0.1926 -0.5052
  576TIP3    H123287   5.410   2.308   0.900  0.3675  0.5588 -0.5381
  576TIP3    H223288   5.495   2.193   0.952 -0.0616 -0.0067 -1.0706
  577TIP3   OH223289   2.411   2.900   1.555  0.3410  0.3244  0.1200
  577TIP3    H123290   2.436   2.886   1.646 -0.5646 -0.9295  0.1943
  577TIP3    H223291   2.489   2.876   1.505  0.7231  0.6688  0.5396
  578TIP3   OH223292   1.578   1.208   0.861  0.1360 -0.4224  0.0607
  578TIP3    H123293   1.504   1.233   0.915 -1.9039  0.1418 -2.7569
  578TIP3    H223294   1.627   1.290   0.848 -0.1471 -0.2676 -0.0325
  579TIP3   OH223295   1.394   6.549   2.316  0.5002 -0.2876 -0.0253
  579TIP3    H123296   1.443   6.479   2.359 -1.0021 -1.2805  0.1534
  579TIP3    H223297   1.406   6.625   2.373  1.0890 -0.7481  0.4790
  580TIP3   OH223298   0.928   1.532   8.038 -0.2316  0.1903  0.3756
  580TIP3    H123299   0.958   1.609   8.088 -1.1578  0.6221  0.2790
  580TIP3    H223300   0.969   1.543   7.952  0.9873 -0.3075  0.8681
  581TIP3   OH223301   5.357   5.469   0.007 -0.7039 -0.1345  0.4168
  581TIP3    H123302   5.390   5.559   0.003 -0.6656 -0.1784 -1.0258
  581TIP3    H223303   5.324   5.452  -0.082  0.6395 -2.0372  0.2292
  582TIP3   OH223304   4.960   0.876   7.673  0.3132 -0.3002 -0.3589
  582TIP3    H123305   4.892   0.894   7.739 -0.3509 -0.4550 -0.9887
  582TIP3    H223306   5.033   0.840   7.724  0.3397  0.8394  0.4671
  583TIP3   OH223307   3.978   2.556   0.554  0.7630  0.1964  0.0864
  583TIP3    H123308   4.062   2.519   0.527 -0.0676 -0.4866 -1.6522
  583TIP3    H223309   3.983   2.648   0.529  0.8612  0.0776 -0.3264
  584TIP3   OH223310   5.800   5.693   8.731  0.1875  0.4239 -0.1393
  584TIP3    H123311   5.778   5.721   8.820 -0.0246 -0.5790  0.1369
  584TIP3    H223312   5.844   5.769   8.692  0.6088  0.7584  0.9417
  585TIP3   OH223313   6.683   4.480   8.639 -0.4468 -0.5138  0.4451
  585TIP3    H123314   6.679   4.575   8.633  0.2026 -0.5453 -1.3038
  585TIP3    H223315   6.658   4.459   8.729 -0.3386  1.3129  0.9222
  586TIP3   OH223316   0.275   2.960   1.332 -0.0385  0.5642  0.3923
  586TIP3    H123317   0.366   2.941   1.312 -0.0753  0.9531 -0.1587
  586TIP3    H223318   0.228   2.946   1.250 -0.7784 -1.4398  1.0861
  587TIP3   OH223319   6.251   5.331   2.205  0.0796 -0.5299 -0.5149
  587TIP3    H123320   6.280   5.242   2.188 -1.6081 -1.1518 -0.2500
  587TIP3    H223321   6.159   5.333   2.179  0.6114  1.7643 -2.7277
  588TIP3   OH223322   1.649   5.402   0.530 -0.0841 -0.0229  0.2465
  588TIP3    H123323   1.693   5.398   0.446 -0.2675 -3.1126  0.1859
  588TIP3    H223324   1.565   5.358   0.516 -0.9688  1.1549  1.5817
  589TIP3   OH223325   3.820   4.570   0.505  0.1015  0.0354 -0.0357
  589TIP3    H123326   3.885   4.511   0.544  0.3952 -0.7506 -1.6476
  589TIP3    H223327   3.844   4.575   0.413 -1.4114  0.7032 -0.4227
  590TIP3   OH223328   4.209   4.449   0.784  0.2284  0.1746 -0.4637
  590TIP3    H123329   4.194   4.409   0.870  0.5420  0.9363 -0.0513
  590TIP3    H223330   4.291   4.410   0.754 -0.6117 -1.2032 -1.0880
  591TIP3   OH223331   5.485   2.951   7.257  0.2551  0.2638  0.1340
  591TIP3    H123332   5.466   2.857   7.248 -1.4480  0.5476  0.3014
  591TIP3    H223333   5.495   2.964   7.351 -0.7443  0.4234  0.2373
  592TIP3   OH223334   0.043   6.354   1.247  0.5026 -0.0439  0.0192
  592TIP3    H123335   0.049   6.360   1.342  0.7646  2.4750 -0.0986
  592TIP3    H223336  -0.039   6.398   1.225  0.4120 -0.6601 -0.9341
  593TIP3   OH223337   1.041   1.857   8.456 -0.1158  0.3401 -0.3473
  593TIP3    H123338   1.060   1.764   8.440 -1.1642  0.2445 -1.1649
  593TIP3    H223339   0.995   1.858   8.540  0.0204  0.1443 -0.2688
  594TIP3   OH223340   4.352   1.541   1.805  0.0996 -0.2178 -0.0091
  594TIP3    H123341   4.303   1.460   1.813  1.5724 -1.0706  0.7483
  594TIP3    H223342   4.293   1.600   1.758 -1.2780 -1.4730  0.0767
  595TIP3   OH223343   4.018   0.863   0.641  0.2568  0.2691 -0.1366
  595TIP3    H123344   4.010   0.769   0.627 -0.8047  0.0883  1.4246
  595TIP3    H223345   4.063   0.871   0.725  1.5308  1.1903 -0.8748
  596TIP3   OH223346   6.002   4.035   1.213 -0.2403  0.1054  0.7189
  596TIP3    H123347   6.083   3.994   1.182  0.0057 -0.0336  1.5242
  596TIP3    H223348   5.999   4.119   1.167 -0.6787 -0.7316 -0.8399
  597TIP3   OH223349   3.942   5.832   8.748 -0.2354 -0.0873  0.1030
  597TIP3    H123350   4.013   5.846   8.811 -1.2092  0.3475  1.1468
  597TIP3    H223351   3.863   5.828   8.802 -0.9952 -0.6956 -1.0197
  598TIP3   OH223352   3.736   2.128   0.813  0.3367  0.5426 -0.3995
  598TIP3    H123353   3.793   2.204   0.829  2.0582 -0.8001  0.1553
  598TIP3    H223354   3.759   2.100   0.724  0.2697  0.1990 -0.3076
  599TIP3   OH223355   6.543   1.092   8.263 -0.4122 -0.8752  0.2346
  599TIP3    H123356   6.504   1.013   8.226 -2.7317 -0.0466  0.6963
  599TIP3    H223357   6.628   1.100   8.219 -1.4479 -1.9088 -2.1531
  600TIP3   OH223358   3.727   0.891   7.596 -0.4439  0.5410 -0.0376
  600TIP3    H123359   3.793   0.957   7.572 -2.7073  2.9050 -0.2650
  600TIP3    H223360   3.711   0.842   7.515  0.3626  0.5679 -0.2188
  601TIP3   OH223361   6.741   5.854   1.226 -0.0744  0.0095 -0.4841
  601TIP3    H123362   6.728   5.941   1.188  1.7917  1.5182  2.0322
  601TIP3    H223363   6.835   5.849   1.242 -0.2873 -2.0518  0.3892
  602TIP3   OH223364   1.920   1.607   6.741 -0.1464 -0.0044 -0.1855
  602TIP3    H123365   1.973   1.642   6.670 -1.9776 -0.5943 -1.9288
  602TIP3    H223366   1.941   1.514   6.744 -0.1072  0.0103  0.0231
  603TIP3   OH223367   4.743   3.125   2.605  0.1549 -0.0550  0.5877
  603TIP3    H123368   4.781   3.054   2.554  0.3918  0.8067 -0.4779
  603TIP3    H223369   4.784   3.204   2.570 -1.1480  0.7313  0.7661
  604TIP3   OH223370   5.807   6.374   0.613  0.3117 -0.5312 -0.2050
  604TIP3    H123371   5.878   6.417   0.661 -0.6891  2.0877 -0.8423
  604TIP3    H223372   5.728   6.422   0.640 -0.7165 -1.1356 -1.9894
  605TIP3   OH223373   1.564   0.877   1.937 -0.4483  0.3364 -0.6643
  605TIP3    H123374   1.618   0.956   1.946 -1.1883  0.7062  0.6293
  605TIP3    H223375   1.614   0.822   1.876  0.7291  1.2389 -0.5582
  606TIP3   OH223376   5.067   5.464   0.310  0.1449 -0.9047  0.7977
  606TIP3    H123377   5.092   5.377   0.281  2.0035 -0.3148  0.4951
  606TIP3    H223378   5.045   5.511   0.230  0.1569 -0.7854  0.8636
  607TIP3   OH223379   4.832   5.349   7.049  0.5701  0.5312 -0.7285
  607TIP3    H123380   4.919   5.359   7.087  0.1465  1.3835  0.0304
  607TIP3    H223381   4.848   5.350   6.954  1.7262 -2.4147 -0.6751
  608TIP3   OH223382   2.825   4.651   0.205  0.0975  0.1503  0.3102
  608TIP3    H123383   2.873   4.604   0.273 -2.7466 -1.7142  1.2371
  608TIP3    H223384   2.861   4.618   0.122  1.4377  0.0311  0.9259
  609TIP3   OH223385   6.774   2.226   0.680 -0.3532  0.4683 -0.3363
  609TIP3    H123386   6.746   2.135   0.678 -0.9563  0.6424 -0.0535
  609TIP3    H223387   6.852   2.229   0.624  1.0842 -0.6916  1.4841
  610TIP3   OH223388   2.665   6.109   0.784  0.1024  0.0004 -0.1291
  610TIP3    H123389   2.647   6.042   0.718 -1.8225 -0.1325  0.4578
  610TIP3    H223390   2.617   6.080   0.861  1.8050  0.4758  1.1677
  611TIP3   OH223391   3.148   1.327   7.916  0.3983 -0.1596  0.5005
  611TIP3    H123392   3.127   1.405   7.865  0.1290  0.4189  1.4629
  611TIP3    H223393   3.239   1.308   7.894 -0.3375 -1.2578 -1.8736
  612TIP3   OH223394   3.664   4.941   2.257 -0.5381 -0.2786 -0.1631
  612TIP3    H123395   3.569   4.949   2.268 -0.7123 -0.8820 -1.1623
  612TIP3    H223396   3.698   4.941   2.347 -1.5771 -1.2292  0.2476
  613TIP3   OH223397   4.631   2.375   1.180 -0.3618  0.3556 -0.1641
  613TIP3    H123398   4.688   2.331   1.243 -1.5118 -0.6530  0.2123
  613TIP3    H223399   4.586   2.442   1.232  0.6561  1.3642 -0.5268
  614TIP3   OH223400   6.401   1.976   7.527 -0.3786  0.6415  0.5310
  614TIP3    H123401   6.323   2.000   7.476 -0.5356  0.0964  0.4978
  614TIP3    H223402   6.420   2.052   7.580 -1.2689  0.5901  0.9387
  615TIP3   OH223403   4.102   5.029   7.354  0.3426 -1.0882 -0.0800
  615TIP3    H123404   4.121   4.989   7.269 -1.6059 -0.9400 -0.6233
  615TIP3    H223405   4.112   5.123   7.338  0.5684 -1.0924  0.0287
  616TIP3   OH223406   6.627   2.382   1.296  0.1272 -0.2571  0.0003
  616TIP3    H123407   6.703   2.330   1.271  0.7965  0.9776 -0.6223
  616TIP3    H223408   6.552   2.339   1.254  0.3742 -1.7705  1.0223
  617TIP3   OH223409   1.124   2.744   7.891  0.1066  0.1725  0.0652
  617TIP3    H123410   1.049   2.784   7.934  0.8254 -0.5072  2.0853
  617TIP3    H223411   1.200   2.774   7.942  1.1062 -0.0714 -1.2142
  618TIP3   OH223412   6.653   4.139   0.049  0.2884  0.5946 -0.5347
  618TIP3    H123413   6.560   4.139   0.073  0.2404  1.2143 -0.7024
  618TIP3    H223414   6.685   4.225   0.076  1.2640 -0.2533  1.1356
  619TIP3   OH223415   5.252   1.052   0.067  0.7700  0.1895  0.3650
  619TIP3    H123416   5.291   1.087   0.147  0.4176  0.3396  0.4732
  619TIP3    H223417   5.321   1.061   0.001  0.5129  1.6412  0.2487
  620TIP3   OH223418   5.759   6.469   7.325 -0.3088  0.6709 -0.4457
  620TIP3    H123419   5.837   6.417   7.345 -0.5810 -1.1698 -3.4581
  620TIP3    H223420   5.791   6.537   7.265 -0.6894  1.3106  0.0660
  621TIP3   OH223421   0.077   4.863   8.247  0.0394 -0.6611  0.6030
  621TIP3    H123422   0.051   4.805   8.176 -1.4630  0.3187  0.3124
  621TIP3    H223423   0.092   4.805   8.322  2.2684 -1.7702 -0.6228
  622TIP3   OH223424   0.112   4.794   1.320  0.2806  0.8932  0.0514
  622TIP3    H123425   0.122   4.758   1.232  0.1116  0.5854  0.1581
  622TIP3    H223426   0.202   4.808   1.350  0.3320  2.2464 -0.6760
  623TIP3   OH223427   0.165   5.693   7.650 -0.6624  0.4647  0.2558
  623TIP3    H123428   0.082   5.739   7.639 -0.5505  0.4476 -0.7028
  623TIP3    H223429   0.177   5.688   7.745 -0.9447  1.9245  0.3851
  624TIP3   OH223430   1.899   5.090   8.431 -0.1470 -0.3572 -0.2256
  624TIP3    H123431   1.811   5.118   8.453  0.1195  0.6494 -0.3946
  624TIP3    H223432   1.922   5.140   8.352  2.1341  2.7153  2.1274
  625TIP3   OH223433   6.079   6.292   8.360  0.2035  0.5776 -0.2576
  625TIP3    H123434   6.086   6.263   8.451 -0.3516 -3.5070 -1.3181
  625TIP3    H223435   5.988   6.320   8.350  0.0264  0.1976  0.2537
  626TIP3   OH223436   3.867   0.430   1.403  0.2699  0.5965 -0.4237
  626TIP3    H123437   3.829   0.342   1.410  0.1191  0.6074 -1.0004
  626TIP3    H223438   3.952   0.415   1.362  0.1825  0.7273 -0.6585
  627TIP3   OH223439   0.169   5.986   1.085 -0.0120  0.1460 -0.1880
  627TIP3    H123440   0.249   6.036   1.099  1.6507 -1.9910 -1.3353
  627TIP3    H223441   0.098   6.049   1.095  1.9194  2.8021 -2.0685
  628TIP3   OH223442   5.138   2.616   3.124  0.4317  0.1778  0.0405
  628TIP3    H123443   5.064   2.667   3.157  1.1246  0.3669  1.3971
  628TIP3    H223444   5.208   2.680   3.112  0.0174  0.2321 -2.5526
  629TIP3   OH223445   4.899   4.035   0.879  0.1589  0.1309  0.1850
  629TIP3    H123446   4.906   4.025   0.784 -0.7618  1.3103 -0.0252
  629TIP3    H223447   4.975   3.988   0.913  1.6245  1.3590 -1.2312
  630TIP3   OH223448   0.830   3.324   1.132  0.1932 -0.2351 -0.7357
  630TIP3    H123449   0.920   3.294   1.125  0.0612 -0.8974  0.1522
  630TIP3    H223450   0.836   3.419   1.143  0.8249 -0.3583  0.0252
  631TIP3   OH223451   4.906   6.269   3.160 -0.2775  0.2620  0.1321
  631TIP3    H123452   4.986   6.222   3.184 -1.0149 -0.5669  1.0843
  631TIP3    H223453   4.845   6.201   3.133 -0.4038  0.9579 -1.4671
  632TIP3   OH223454   3.570   4.267   2.715  0.0862 -0.1089  0.3257
  632TIP3    H123455   3.639   4.266   2.649  0.4862  1.4206  0.6870
  632TIP3    H223456   3.507   4.331   2.683  0.3522  0.7550  1.4753
  633TIP3   OH223457   3.563   3.113   7.032 -0.0610  0.3450 -0.3495
  633TIP3    H123458   3.484   3.125   7.085  0.5794  2.6451  0.1794
  633TIP3    H223459   3.561   3.020   7.008 -1.4758 -0.2997  1.9234
  634TIP3   OH223460   3.382   5.252   2.312 -0.0171  0.1445 -0.4939
  634TIP3    H123461   3.377   5.246   2.407  1.6566  0.7579 -0.3250
  634TIP3    H223462   3.401   5.163   2.284  0.6120  0.1603 -0.1416
  635TIP3   OH223463   4.555   1.557   8.449 -0.1039 -0.1074 -0.4685
  635TIP3    H123464   4.571   1.471   8.410 -0.6334 -1.1307  1.4491
  635TIP3    H223465   4.494   1.599   8.388  1.4841 -0.3721 -2.3149
  636TIP3   OH223466   4.261   4.095   7.876  0.9438  0.0876  0.0600
  636TIP3    H123467   4.175   4.110   7.915  0.8813 -2.8710  1.2918
  636TIP3    H223468   4.323   4.131   7.939  0.6895  1.6949 -0.5561
  637TIP3   OH223469   2.432   0.725   8.558  0.0081 -0.3252  0.0646
  637TIP3    H123470   2.424   0.635   8.526 -0.8923  0.0990 -0.9653
  637TIP3    H223471   2.342   0.754   8.570  0.2924 -0.4081  2.9496
  638TIP3   OH223472   0.702   2.788   0.275  0.4530 -0.0456 -0.3326
  638TIP3    H123473   0.676   2.723   0.341 -0.0297 -1.2390 -1.6644
  638TIP3    H223474   0.777   2.749   0.231 -0.2093  0.0216 -1.5503
  639TIP3   OH223475   3.498   3.578   2.029  0.0308  0.0495 -0.2077
  639TIP3    H123476   3.420   3.627   2.003 -1.8819 -2.4317  0.5013
  639TIP3    H223477   3.482   3.555   2.120  0.7022 -2.0739 -0.5769
  640TIP3   OH223478   3.538   4.549   0.487 -0.2289 -0.2100 -0.7525
  640TIP3    H123479   3.634   4.552   0.487 -0.1772 -1.0018 -1.9504
  640TIP3    H223480   3.517   4.458   0.510 -0.7360  0.2298  0.5987
  641TIP3   OH223481   1.361   4.991   1.443  0.3014 -0.1198  0.4537
  641TIP3    H123482   1.266   4.995   1.445  0.0832 -2.8952 -0.2602
  641TIP3    H223483   1.386   4.964   1.532  0.2089 -1.5206  0.0787
  642TIP3   OH223484   1.084   6.648   2.243  0.1283 -0.6531  0.8713
  642TIP3    H123485   1.000   6.686   2.268 -0.0726  1.9767 -2.9139
  642TIP3    H223486   1.148   6.717   2.260  0.3442  0.2124 -2.6431
  643TIP3   OH223487   4.623   1.771   7.071  0.1795 -0.1468 -0.3437
  643TIP3    H123488   4.652   1.862   7.073 -0.5997  0.1254  1.9552
  643TIP3    H223489   4.566   1.763   7.147  0.4954 -2.6667 -0.3001
  644TIP3   OH223490   6.760   3.202   0.346  0.1103  0.0069 -0.0956
  644TIP3    H123491   6.692   3.241   0.401  0.5641  0.9898 -0.2139
  644TIP3    H223492   6.800   3.276   0.300  1.3387 -0.5360  0.0592
  645TIP3   OH223493   5.425   0.432   1.818  0.4203 -0.2552 -0.0360
  645TIP3    H123494   5.496   0.490   1.789  1.2509 -0.7522  0.9145
  645TIP3    H223495   5.467   0.346   1.827 -0.5118 -0.7381 -0.2741
  646TIP3   OH223496   0.141   5.678   0.471 -0.1235  0.0150 -0.5768
  646TIP3    H123497   0.114   5.760   0.429  3.1622  0.6698 -1.7010
  646TIP3    H223498   0.117   5.610   0.408  0.2184  0.5017 -1.2537
  647TIP3   OH223499   6.375   4.198   1.185  0.3141 -0.3199  0.3156
  647TIP3    H123500   6.338   4.151   1.260  1.6332 -0.3742  0.9610
  647TIP3    H223501   6.432   4.264   1.225  0.8338 -0.1815 -0.6419
  648TIP3   OH223502   0.571   4.120   8.504  0.7364 -0.5691 -0.0388
  648TIP3    H123503   0.521   4.101   8.425  0.4489  0.1957 -0.0504
  648TIP3    H223504   0.558   4.213   8.519  0.2174 -0.8327  1.2936
  649TIP3   OH223505   4.546   3.663   1.803  0.4614  0.1791  0.6660
  649TIP3    H123506   4.519   3.746   1.842  0.5486 -0.9164  3.2690
  649TIP3    H223507   4.558   3.604   1.878 -0.1575 -2.3666 -1.1191
  650TIP3   OH223508   6.600   0.858   2.178 -0.2986  0.4000 -0.0847
  650TIP3    H123509   6.667   0.801   2.140  1.3096  0.9195  1.8663
  650TIP3    H223510   6.627   0.947   2.154  0.1065  0.6554  1.2513
  651TIP3   OH223511   3.727   2.000   8.570 -0.4620 -0.6444  0.3810
  651TIP3    H123512   3.802   1.949   8.600 -0.0378  0.8650  2.0686
  651TIP3    H223513   3.720   2.072   8.633 -1.9114  0.5627 -1.0638
  652TIP3   OH223514   4.772   0.917   7.858  0.5015 -0.2504  0.3664
  652TIP3    H123515   4.679   0.895   7.853  0.8904 -2.7780  2.1712
  652TIP3    H223516   4.774   1.008   7.887 -1.3378  0.6615 -2.0567
  653TIP3   OH223517   6.097   1.434   2.663  0.5636 -0.5988  1.4023
  653TIP3    H123518   6.002   1.428   2.654  0.6455  1.2882 -2.7007
  653TIP3    H223519   6.112   1.519   2.705  0.5280 -1.1934  2.6912
  654TIP3   OH223520   5.855   0.833   2.205 -0.2997  0.3232  0.2363
  654TIP3    H123521   5.936   0.785   2.223 -1.0550 -1.8148 -1.6304
  654TIP3    H223522   5.811   0.837   2.290  0.4879 -1.0193  0.7405
  655TIP3   OH223523   2.991   4.803   7.253  0.0841  0.6883  0.1138
  655TIP3    H123524   2.923   4.852   7.297 -2.1247  0.0375 -2.3067
  655TIP3    H223525   2.983   4.828   7.161  2.0892 -0.5957 -0.4876
  656TIP3   OH223526   0.770   4.128   7.719 -0.9769 -0.0953  0.0642
  656TIP3    H123527   0.812   4.096   7.799 -0.8856  0.0794  0.0863
  656TIP3    H223528   0.684   4.157   7.747 -0.5523  0.9784  0.2995
  657TIP3   OH223529   5.829   1.362   7.233 -0.2455  0.4591 -0.2046
  657TIP3    H123530   5.741   1.374   7.196 -0.6645 -0.5807  0.4209
  657TIP3    H223531   5.878   1.437   7.201 -1.9605  2.3052  1.2257
  658TIP3   OH223532   0.059   2.884   2.455 -0.2042  0.0127 -0.1910
  658TIP3    H123533  -0.036   2.875   2.442 -0.0552 -2.9772  0.1498
  658TIP3    H223534   0.088   2.797   2.482  2.4795  1.1595  0.9748
  659TIP3   OH223535   6.241   0.874   0.794 -0.2027  0.2780 -0.8693
  659TIP3    H123536   6.322   0.867   0.744 -0.5810 -1.5461 -1.3181
  659TIP3    H223537   6.172   0.866   0.728 -0.7089 -0.7008 -0.2511
  660TIP3   OH223538   3.770   4.829   1.086 -0.2609  0.2251  0.6073
  660TIP3    H123539   3.768   4.922   1.108 -4.3197  0.6659 -0.7999
  660TIP3    H223540   3.732   4.785   1.162  0.5474 -0.1606  0.7946
  661TIP3   OH223541   2.017   5.135   1.162 -0.5608 -0.0846  0.5058
  661TIP3    H123542   1.955   5.071   1.196 -0.5876 -1.3142 -1.7015
  661TIP3    H223543   1.967   5.185   1.098  0.5165 -0.7234 -0.8870
  662TIP3   OH223544   3.449   2.689   2.040  0.0393  0.5323 -0.9858
  662TIP3    H123545   3.367   2.646   2.013 -0.4585  0.5743  0.4038
  662TIP3    H223546   3.421   2.759   2.099  1.1252  0.0659  0.1236
  663TIP3   OH223547   3.524   0.479   0.321 -0.4691 -0.2182  0.3766
  663TIP3    H123548   3.507   0.423   0.245 -1.4640 -0.3795  0.7027
  663TIP3    H223549   3.509   0.568   0.289  2.0185  0.0102 -0.3993
  664TIP3   OH223550   1.508   5.153   1.724 -0.2862 -0.1570 -0.4564
  664TIP3    H123551   1.500   5.230   1.668 -2.1073 -0.0259 -0.0912
  664TIP3    H223552   1.485   5.185   1.812 -0.7614 -1.0374 -0.2462
  665TIP3   OH223553   5.353   3.468   1.837  0.3599  0.3055 -0.2071
  665TIP3    H123554   5.267   3.429   1.820  0.6865 -1.4657  1.8475
  665TIP3    H223555   5.362   3.467   1.932  2.2022  1.5258 -0.3195
  666TIP3   OH223556   1.941   1.915   1.630  0.0923 -0.0507 -0.5617
  666TIP3    H123557   1.854   1.953   1.623 -0.7066 -1.6654  0.2060
  666TIP3    H223558   1.967   1.928   1.721 -0.1967 -1.3036 -0.2854
  667TIP3   OH223559   4.922   2.058   3.072  0.3310  0.2183  0.1350
  667TIP3    H123560   4.832   2.035   3.098 -0.6940 -0.8485 -3.7238
  667TIP3    H223561   4.924   2.153   3.077 -0.5518  0.1922  1.5390
  668TIP3   OH223562   4.649   1.216   2.639  0.1367  0.4545 -0.8787
  668TIP3    H123563   4.730   1.235   2.592  0.8254 -0.6553 -0.1771
  668TIP3    H223564   4.632   1.295   2.691  1.5721  0.1845  0.0657
  669TIP3   OH223565   5.903   5.034   8.721 -0.3827 -0.0333  0.0244
  669TIP3    H123566   5.909   4.943   8.691  0.2380 -0.3670  1.1037
  669TIP3    H223567   5.916   5.086   8.642  2.1411 -0.8742 -0.1956
  670TIP3   OH223568   4.339   6.657   7.930 -0.2215  0.1671 -0.6226
  670TIP3    H123569   4.396   6.722   7.890 -1.0216  0.8106 -0.7282
  670TIP3    H223570   4.375   6.573   7.902 -0.7788  0.5746 -2.7547
  671TIP3   OH223571   0.684   4.684   7.822 -0.0485  0.4049 -0.6750
  671TIP3    H123572   0.592   4.706   7.807 -0.2891  0.1366  0.3697
  671TIP3    H223573   0.724   4.692   7.735 -1.0136  0.6973 -1.1133
  672TIP3   OH223574   2.271   4.518   1.923 -0.4461  0.6914  0.1630
  672TIP3    H123575   2.175   4.522   1.918 -0.3781  0.9387 -1.5357
  672TIP3    H223576   2.288   4.468   2.003 -2.0387 -0.8830 -0.3952
  673TIP3   OH223577   0.216   6.672   0.158  0.4034 -0.1221 -0.3431
  673TIP3    H123578   0.201   6.637   0.070 -0.1691  1.0760 -0.7617
  673TIP3    H223579   0.290   6.622   0.192  0.9333 -0.3087 -1.6870
  674TIP3   OH223580   5.855   2.357   8.148  0.9439 -0.0460 -0.5363
  674TIP3    H123581   5.931   2.381   8.095  0.1960 -0.8744 -2.0561
  674TIP3    H223582   5.787   2.335   8.084 -0.7414  1.0865  0.7793
  675TIP3   OH223583   3.824   6.028   2.615 -0.2580 -0.5115 -0.0846
  675TIP3    H123584   3.903   5.980   2.590 -2.2218 -3.3532 -1.3642
  675TIP3    H223585   3.790   6.064   2.533 -0.4187  0.5877  0.4347
  676TIP3   OH223586   4.205   0.982   0.900  0.7101  0.4180 -0.3729
  676TIP3    H123587   4.157   1.045   0.956  1.7035  0.7542  0.1227
  676TIP3    H223588   4.222   1.031   0.820 -1.8987 -0.4933 -1.5812
  677TIP3   OH223589   0.827   4.696   7.565  0.0506  0.7039 -0.3638
  677TIP3    H123590   0.858   4.606   7.555  1.9444  1.0045  1.9456
  677TIP3    H223591   0.750   4.701   7.508  0.8081 -1.8701 -1.7951
  678TIP3   OH223592   3.651   4.455   8.196  0.1383 -0.0359  0.2125
  678TIP3    H123593   3.604   4.447   8.113  1.2475  0.0845 -0.4456
  678TIP3    H223594   3.625   4.541   8.231 -0.1302  0.0229 -0.1328
  679TIP3   OH223595   0.936   6.598   1.208  0.1160  0.2642 -0.4288
  679TIP3    H123596   1.028   6.610   1.233  0.2295  1.0437 -1.1410
  679TIP3    H223597   0.898   6.545   1.277  1.1196 -0.0997 -0.1430
  680TIP3   OH223598   3.835   3.092   0.672 -0.7947 -0.6018 -0.4575
  680TIP3    H123599   3.849   3.081   0.766  0.2275  1.6912 -0.2634
  680TIP3    H223600   3.922   3.082   0.633 -0.7195  1.0581 -0.8032
  681TIP3   OH223601   2.175   2.622   8.282  0.5434 -0.2105 -0.3329
  681TIP3    H123602   2.162   2.544   8.227  1.2223 -0.3766 -0.2681
  681TIP3    H223603   2.210   2.688   8.221  2.4955 -0.7743  0.1140
  682TIP3   OH223604   4.352   2.722   7.708 -0.1525 -0.2991  0.0464
  682TIP3    H123605   4.438   2.684   7.726 -0.2889 -1.3271 -1.2743
  682TIP3    H223606   4.293   2.647   7.702 -0.6822  0.1796 -1.3304
  683TIP3   OH223607   0.051   3.384   1.830 -0.2380  0.1924  0.4585
  683TIP3    H123608   0.093   3.459   1.872 -0.3640  0.2634  0.4565
  683TIP3    H223609  -0.008   3.349   1.897 -0.8559  0.6412  0.1512
  684TIP3   OH223610   1.151   3.457   8.206 -0.5023  0.3064  0.1444
  684TIP3    H123611   1.183   3.460   8.116 -2.3367 -0.2372 -0.5843
  684TIP3    H223612   1.178   3.541   8.244  0.8399  0.2783 -0.6927
  685TIP3   OH223613   0.392   1.794   8.711  0.0969  0.4010  0.1282
  685TIP3    H123614   0.423   1.793   8.620  0.7153 -1.0436  0.3188
  685TIP3    H223615   0.302   1.762   8.706  1.1365 -3.0026  0.2550
  686TIP3   OH223616   3.011   5.407   1.737 -0.1197 -0.2601  0.0537
  686TIP3    H123617   2.941   5.452   1.784  0.8558 -1.6775  3.1041
  686TIP3    H223618   2.991   5.422   1.644 -0.9982  4.5919  0.7559
  687TIP3   OH223619   2.670   2.681   0.883 -0.3996  0.0170  0.2787
  687TIP3    H123620   2.746   2.694   0.826 -1.9855  0.0019 -1.9714
  687TIP3    H223621   2.690   2.731   0.962  1.4526  0.9206 -0.7061
  688TIP3   OH223622   0.306   6.665   8.111 -0.6376 -0.6649 -0.0794
  688TIP3    H123623   0.228   6.619   8.142 -0.6877  1.4622  3.4851
  688TIP3    H223624   0.378   6.606   8.130 -1.0812 -1.3265 -0.3993
  689TIP3   OH223625   4.289   3.257   7.370 -0.8891  0.3248  0.2731
  689TIP3    H123626   4.326   3.325   7.314 -1.3189 -1.1216 -1.8676
  689TIP3    H223627   4.360   3.195   7.382 -1.4137 -0.4380 -0.4770
  690TIP3   OH223628   0.280   2.432   1.104 -0.3810 -0.1207  0.6840
  690TIP3    H123629   0.228   2.511   1.088 -2.0173 -0.8704  1.9857
  690TIP3    H223630   0.334   2.453   1.180  0.4086  0.2669  0.0336
  691TIP3   OH223631   1.084   1.278   0.830 -0.0799 -0.0839  0.1446
  691TIP3    H123632   1.070   1.351   0.890  1.3967  0.8184 -0.5604
  691TIP3    H223633   1.178   1.280   0.811 -0.0814 -1.9117 -0.2192
  692TIP3   OH223634   1.352   6.354   0.036  0.0801  0.3291 -0.1915
  692TIP3    H123635   1.381   6.402   0.114 -0.2077  0.3226 -0.0788
  692TIP3    H223636   1.259   6.338   0.052  0.2514 -0.5820 -0.0694
  693TIP3   OH223637   6.303   5.038   2.213  0.3404 -0.0826  0.2549
  693TIP3    H123638   6.372   5.041   2.147  0.1289 -2.5847 -0.1562
  693TIP3    H223639   6.338   4.983   2.282 -0.9802 -0.8700  0.3227
  694TIP3   OH223640   1.854   4.362   0.831 -0.5226 -0.3703 -0.2290
  694TIP3    H123641   1.861   4.435   0.770 -1.1773  0.5809  0.7971
  694TIP3    H223642   1.944   4.343   0.857 -0.1076 -1.5691 -2.3355
  695TIP3   OH223643   4.140   3.987   8.544 -0.0918 -0.0918  0.1857
  695TIP3    H123644   4.100   4.061   8.500  1.5907  1.3074  0.8794
  695TIP3    H223645   4.108   3.991   8.634 -1.3075 -1.2493 -0.1660
  696TIP3   OH223646   0.560   2.902   1.285  0.0582 -0.0830 -0.4964
  696TIP3    H123647   0.588   2.833   1.345  0.5032 -0.2735 -0.9140
  696TIP3    H223648   0.639   2.953   1.269 -0.1095  0.1011 -0.7380
  697TIP3   OH223649   5.739   6.811   0.948 -0.3279 -0.1980  0.0084
  697TIP3    H123650   5.756   6.727   0.906  0.0393 -0.3739  0.4902
  697TIP3    H223651   5.646   6.827   0.934 -0.1298 -0.0506 -1.2046
  698TIP3   OH223652   1.235   2.448   0.666  0.2049  0.6076  0.3088
  698TIP3    H123653   1.248   2.425   0.574  1.7024 -2.0255  1.0507
  698TIP3    H223654   1.285   2.529   0.678  1.9795 -0.2505 -0.7454
  699TIP3   OH223655   4.816   6.120   0.964 -0.1962  0.8991 -0.4869
  699TIP3    H123656   4.761   6.079   0.898 -0.4041  1.2270 -0.5181
  699TIP3    H223657   4.778   6.206   0.977 -0.6881  0.5206  0.7107
  700TIP3   OH223658   5.684   5.094   8.459 -0.2682  0.4240  0.3546
  700TIP3    H123659   5.709   5.157   8.527  0.5611 -0.1943  0.6401
  700TIP3    H223660   5.644   5.148   8.391 -2.0839  0.9462  1.7418
  701TIP3   OH223661   0.304   4.875   0.736  0.5535 -0.5347 -0.1615
  701TIP3    H123662   0.219   4.915   0.751  0.2820 -1.1696  0.0205
  701TIP3    H223663   0.320   4.888   0.642 -0.1196 -1.1167 -0.3689
  702TIP3   OH223664   2.534   0.315   7.503 -0.3971 -0.5703  0.0855
  702TIP3    H123665   2.506   0.393   7.550 -0.2997  0.2749 -1.2309
  702TIP3    H223666   2.453   0.277   7.469 -0.4446 -1.0606  0.7228
  703TIP3   OH223667   2.779   0.278   7.625 -0.0604  0.1688 -0.0761
  703TIP3    H123668   2.724   0.341   7.578 -0.0796  0.6238  0.5463
  703TIP3    H223669   2.867   0.316   7.620 -0.0824  0.2779  0.3559
  704TIP3   OH223670   5.506   5.138   2.181  0.1258 -0.3769 -0.0764
  704TIP3    H123671   5.527   5.177   2.096  0.4774 -0.7894 -0.1774
  704TIP3    H223672   5.460   5.057   2.160 -5.6086  2.3049  0.0065
  705TIP3   OH223673   5.111   6.654   7.338  0.1566 -1.0266 -0.0975
  705TIP3    H123674   5.071   6.689   7.417 -1.1651 -1.1795 -0.6637
  705TIP3    H223675   5.076   6.708   7.267  1.4625 -0.7678 -0.5702
  706TIP3   OH223676   5.035   4.828   7.644 -0.1255  0.0984  0.0146
  706TIP3    H123677   4.986   4.894   7.596  0.4603  0.7077  0.2415
  706TIP3    H223678   4.984   4.748   7.634 -0.4019  0.3915 -0.9764
  707TIP3   OH223679   2.079   2.380   8.193 -0.1748 -0.2653 -0.2302
  707TIP3    H123680   2.127   2.300   8.215 -0.6586 -0.2711  0.8618
  707TIP3    H223681   2.003   2.349   8.144 -0.6949 -0.5490  0.7309
  708TIP3   OH223682   4.926   0.098   0.968  0.3002 -0.3270 -0.2990
  708TIP3    H123683   4.879   0.061   1.043  0.7373  2.6774  1.6230
  708TIP3    H223684   5.006   0.046   0.962 -0.1266 -1.1479  0.7566
  709TIP3   OH223685   4.262   3.210   0.433  0.3782  0.2278  0.0202
  709TIP3    H123686   4.328   3.204   0.364  0.2055 -1.2382 -0.0477
  709TIP3    H223687   4.255   3.304   0.451  1.0466  0.5676 -1.3421
  710TIP3   OH223688   0.521   1.849   8.460 -0.3939  0.0088 -0.3716
  710TIP3    H123689   0.437   1.853   8.413 -0.1144  1.5087 -0.8110
  710TIP3    H223690   0.542   1.941   8.477 -0.2246 -0.4589  2.2687
  711TIP3   OH223691   3.660   3.832   2.124 -0.4867 -0.0298 -0.1186
  711TIP3    H123692   3.599   3.759   2.134 -0.2979 -0.1605  0.0762
  711TIP3    H223693   3.706   3.837   2.208  1.2286 -1.2312 -0.9151
  712TIP3   OH223694   3.269   4.027   7.252 -0.0868 -0.0377 -0.4317
  712TIP3    H123695   3.231   4.045   7.338 -0.1323  2.1854 -0.8495
  712TIP3    H223696   3.347   3.974   7.270 -0.9434 -0.9337  0.8099
  713TIP3   OH223697   2.127   1.537   7.408  0.1883 -0.0637  0.3074
  713TIP3    H123698   2.209   1.490   7.421 -0.3835 -0.9760  0.6651
  713TIP3    H223699   2.073   1.478   7.355  0.0090  0.8248 -0.5479
  714TIP3   OH223700   6.137   1.348   2.067  0.4314  0.3974 -0.1639
  714TIP3    H123701   6.079   1.409   2.022  0.3246 -0.3731 -1.1129
  714TIP3    H223702   6.214   1.400   2.088 -0.2130  1.2017  0.2945
  715TIP3   OH223703   4.155   0.405   8.298  0.5378  0.1648 -0.7288
  715TIP3    H123704   4.243   0.438   8.314  0.3714  1.2731 -1.9024
  715TIP3    H223705   4.103   0.439   8.371  0.6037  1.6557 -1.3356
  716TIP3   OH223706   4.004   3.666   7.844  0.2907 -0.0714  0.0341
  716TIP3    H123707   4.088   3.686   7.802  0.9019 -1.1904  0.6649
  716TIP3    H223708   3.998   3.729   7.916  0.5613  0.0649 -0.0592
  717TIP3   OH223709   5.819   0.938   6.879  0.4950 -0.2260 -0.3865
  717TIP3    H123710   5.778   0.863   6.921  2.6208 -1.5058 -0.4804
  717TIP3    H223711   5.747   0.999   6.864 -0.6648 -0.4466  3.3959
  718TIP3   OH223712   2.537   4.675   1.171 -0.1386  0.0141 -0.9413
  718TIP3    H123713   2.514   4.736   1.101 -0.0583 -0.2443 -1.1977
  718TIP3    H223714   2.592   4.609   1.127  0.0352 -0.0654 -0.6030
  719TIP3   OH223715   5.413   6.320   7.761  0.3899 -0.0770 -0.6501
  719TIP3    H123716   5.379   6.393   7.813 -0.3895 -0.9883  0.1552
  719TIP3    H223717   5.342   6.298   7.701 -0.9932 -2.5995  1.6645
  720TIP3   OH223718   3.002   6.350   7.094 -0.0367  0.9227 -0.1570
  720TIP3    H123719   2.935   6.378   7.157 -1.1471 -0.1726 -0.8149
  720TIP3    H223720   3.053   6.284   7.142 -1.1446 -0.2212 -0.4940
  721TIP3   OH223721   5.383   1.094   1.013 -0.0689 -0.2914 -0.0708
  721TIP3    H123722   5.476   1.083   0.995 -0.4235 -0.9517 -1.6723
  721TIP3    H223723   5.371   1.189   1.022  0.9658 -0.2754  1.6263
  722TIP3   OH223724   3.107   2.887   1.805  0.1332  0.0983  0.5032
  722TIP3    H123725   3.195   2.904   1.771 -0.4156  0.1242 -0.9675
  722TIP3    H223726   3.105   2.792   1.819 -0.5051 -0.3793 -2.2674
  723TIP3   OH223727   2.926   3.219   7.791  0.2064 -0.3032 -0.2873
  723TIP3    H123728   2.965   3.154   7.732 -0.1239 -1.4174  0.6853
  723TIP3    H223729   2.972   3.208   7.873  0.1337  0.7059 -0.0998
  724TIP3   OH223730   4.237   6.576   7.648  0.1457  0.4322 -0.6206
  724TIP3    H123731   4.180   6.619   7.712 -0.0438  0.8500 -1.0676
  724TIP3    H223732   4.180   6.559   7.573 -0.4090 -2.6802  0.3628
  725TIP3   OH223733   1.381   1.796   8.210  0.5889  0.0928  0.4960
  725TIP3    H123734   1.443   1.840   8.152  1.7686 -1.2653  0.6666
  725TIP3    H223735   1.435   1.738   8.263 -0.8901 -1.6687  0.1810
  726TIP3   OH223736   6.622   4.249   0.412 -0.4249  0.2727 -0.6497
  726TIP3    H123737   6.564   4.173   0.403 -1.4493  1.2648 -3.1439
  726TIP3    H223738   6.693   4.232   0.350  0.0044  0.8012 -0.3103
  727TIP3   OH223739   1.895   1.897   0.061 -0.1432  0.0614 -0.6178
  727TIP3    H123740   1.958   1.863   0.126 -0.5134 -0.4512 -0.5160
  727TIP3    H223741   1.813   1.851   0.081 -0.1418 -0.4710 -1.7588
  728TIP3   OH223742   0.086   1.293   8.346  0.1844 -0.0415 -0.6058
  728TIP3    H123743   0.029   1.342   8.287  0.3595 -0.6133 -1.2720
  728TIP3    H223744   0.027   1.230   8.388 -0.0342  0.6973  0.2255
  729TIP3   OH223745   5.586   6.559   2.851  0.5174  0.1779 -0.3242
  729TIP3    H123746   5.661   6.521   2.896 -1.0074 -1.9821  0.6223
  729TIP3    H223747   5.550   6.621   2.914  1.2679  0.9198 -0.6192
  730TIP3   OH223748   4.308   1.549   0.364 -0.0740  0.0853  0.4002
  730TIP3    H123749   4.360   1.586   0.436 -0.1312 -1.4122  1.2513
  730TIP3    H223750   4.347   1.586   0.285  1.1060  0.4283  1.1157
  731TIP3   OH223751   4.102   3.539   7.284 -0.3337  0.3602 -0.6007
  731TIP3    H123752   4.189   3.501   7.272 -0.2862  0.9068 -2.2320
  731TIP3    H223753   4.061   3.484   7.350  1.5588  0.6247  0.8930
  732TIP3   OH223754   3.439   1.811   1.441 -0.4464 -0.0652  0.1763
  732TIP3    H123755   3.516   1.851   1.402 -0.9830 -1.2507 -2.2720
  732TIP3    H223756   3.448   1.829   1.535  2.1376  0.8795 -0.1664
  733TIP3   OH223757   4.180   5.684   8.587 -0.2199 -0.2355 -0.2679
  733TIP3    H123758   4.145   5.750   8.647  1.3707 -0.4542  0.9581
  733TIP3    H223759   4.266   5.717   8.563  0.1374 -1.3223 -0.5333
  734TIP3   OH223760   5.052   5.345   8.688 -0.0407 -0.1361  0.0528
  734TIP3    H123761   5.060   5.250   8.676  2.3888  0.1132 -0.8714
  734TIP3    H223762   5.114   5.366   8.758  1.0538  1.0004 -1.2065
  735TIP3   OH223763   0.177   5.350   1.480 -0.2896  0.0623  0.5035
  735TIP3    H123764   0.125   5.309   1.410 -0.1475 -1.1270  1.0642
  735TIP3    H223765   0.165   5.293   1.555  2.0285 -0.4255  0.5791
  736TIP3   OH223766   1.439   3.325   0.718 -0.7107  0.1038 -0.0564
  736TIP3    H123767   1.471   3.415   0.713  1.9285 -0.6733  1.2387
  736TIP3    H223768   1.506   3.273   0.675 -1.8084 -1.3664 -0.0742
  737TIP3   OH223769   4.085   2.623   7.950  0.5766 -0.3765  0.3511
  737TIP3    H123770   4.088   2.616   7.855 -0.0727 -2.4039  0.4478
  737TIP3    H223771   3.992   2.620   7.972  0.7428 -0.4150  1.0967
  738TIP3   OH223772   2.225   1.975   6.433 -0.5390 -0.2377 -0.5875
  738TIP3    H123773   2.321   1.969   6.432 -0.4271  1.3270 -0.4573
  738TIP3    H223774   2.206   2.066   6.411 -1.9698 -0.2199  0.5682
  739TIP3   OH223775   5.414   5.750   0.665 -0.2055 -0.0113 -0.2039
  739TIP3    H123776   5.459   5.674   0.628 -1.8980 -0.0249 -2.4831
  739TIP3    H223777   5.331   5.715   0.696 -0.8119  0.7893 -0.8683
  740TIP3   OH223778   2.941   1.124   8.644 -0.1736  0.5202 -0.0652
  740TIP3    H123779   2.904   1.078   8.719 -0.3983 -0.1841 -0.5888
  740TIP3    H223780   2.898   1.209   8.643 -0.7720  0.2241  0.1332
  741TIP3   OH223781   6.418   3.267   1.206  0.1253 -0.0513 -0.3458
  741TIP3    H123782   6.493   3.310   1.248 -1.2655  0.1182  2.2142
  741TIP3    H223783   6.411   3.183   1.251 -0.0469 -0.9425 -1.9745
  742TIP3   OH223784   1.596   0.934   0.197 -0.1239  0.3627 -0.6943
  742TIP3    H123785   1.640   0.930   0.111 -1.8150 -0.4287 -1.5719
  742TIP3    H223786   1.541   0.856   0.199  0.0547  0.2426  1.2529
  743TIP3   OH223787   4.025   0.117   8.501  0.5095  0.1869  0.3244
  743TIP3    H123788   4.118   0.099   8.517  0.6550 -1.2047 -1.7198
  743TIP3    H223789   3.999   0.176   8.572  2.5682 -0.5716  1.7791
  744TIP3   OH223790   5.042   1.536   1.479  0.3023 -0.0448  0.0934
  744TIP3    H123791   5.043   1.441   1.466 -1.3562  0.0289 -0.8649
  744TIP3    H223792   4.987   1.548   1.557 -2.0575  0.2082 -1.4922
  745TIP3   OH223793   0.277   0.734   2.449 -0.1602 -0.3691  0.1425
  745TIP3    H123794   0.250   0.761   2.537  2.6961 -0.1830  1.0784
  745TIP3    H223795   0.283   0.638   2.455 -0.5305 -0.4054 -0.0446
  746TIP3   OH223796   3.803   4.659   1.888  0.8475 -0.2473 -0.1851
  746TIP3    H123797   3.847   4.574   1.885  0.6265 -0.3335 -2.2899
  746TIP3    H223798   3.869   4.722   1.861  0.2311 -0.1538 -1.5816
  747TIP3   OH223799   2.281   3.814   2.364  0.1348 -0.2989 -0.4973
  747TIP3    H123800   2.375   3.796   2.370  0.0287 -0.9873 -0.7388
  747TIP3    H223801   2.240   3.738   2.406 -0.3083  0.1218 -0.1625
  748TIP3   OH223802   1.233   4.036   0.639  0.0539  0.0184  0.2420
  748TIP3    H123803   1.275   4.087   0.570 -0.6624  0.1561 -0.1020
  748TIP3    H223804   1.195   3.961   0.594  0.6084 -0.5313  0.6670
  749TIP3   OH223805   6.524   6.099   2.634  0.1144 -0.0106  0.0907
  749TIP3    H123806   6.535   6.178   2.688  0.0582  0.5441 -0.6907
  749TIP3    H223807   6.508   6.029   2.697 -2.0932  0.9671  0.7181
  750TIP3   OH223808   2.191   4.170   1.442  0.1610 -0.0536 -0.3665
  750TIP3    H123809   2.117   4.207   1.393  2.0860  2.0771 -1.8490
  750TIP3    H223810   2.158   4.164   1.532 -1.9297  0.4274 -1.0246
  751TIP3   OH223811   2.485   1.223   7.632  0.3824  0.4396 -0.0922
  751TIP3    H123812   2.414   1.258   7.578  0.9614  0.0716 -1.1243
  751TIP3    H223813   2.540   1.299   7.650  0.0280  0.6210  0.2384
  752TIP3   OH223814   5.847   1.582   7.043 -0.2019  0.3330 -0.0308
  752TIP3    H123815   5.827   1.665   7.000 -0.8733  0.1574 -0.0704
  752TIP3    H223816   5.762   1.538   7.051 -0.3386  0.9095  2.6431
  753TIP3   OH223817   6.021   3.708   1.789 -0.8703  0.1601 -0.0529
  753TIP3    H123818   5.971   3.737   1.865 -1.0537 -1.4161  0.4728
  753TIP3    H223819   6.113   3.722   1.814 -0.9165 -0.5776  0.5945
  754TIP3   OH223820   5.356   2.201   1.310 -0.2737  0.1396 -0.2191
  754TIP3    H123821   5.285   2.221   1.248  0.6100 -0.6989 -1.5697
  754TIP3    H223822   5.405   2.282   1.317 -1.5900  0.8629  1.0803
  755TIP3   OH223823   2.327   0.745   8.232  0.1855  0.1818  0.1477
  755TIP3    H123824   2.367   0.659   8.222  0.5661  0.5020 -1.3757
  755TIP3    H223825   2.287   0.762   8.146  0.2395  1.5744  0.3864
  756TIP3   OH223826   2.476   3.335   1.485  0.5550  0.0474 -0.9020
  756TIP3    H123827   2.486   3.326   1.579 -2.7019  1.3122 -0.2957
  756TIP3    H223828   2.454   3.247   1.454  0.7532 -0.2004 -0.3502
  757TIP3   OH223829   0.591   3.633   1.060 -0.5345 -0.4508  0.5059
  757TIP3    H123830   0.511   3.685   1.061  0.1001  0.5582  0.6445
  757TIP3    H223831   0.606   3.610   1.152  0.9981  2.0800  0.9954
  758TIP3   OH223832   5.063   5.332   8.384  0.3869  0.2190  0.2403
  758TIP3    H123833   5.078   5.260   8.323  1.1941 -0.5063  1.2696
  758TIP3    H223834   5.083   5.295   8.470 -1.0137  1.1281  0.9933
  759TIP3   OH223835   4.018   3.285   7.444  0.5787 -0.1317 -0.6963
  759TIP3    H123836   3.971   3.203   7.454  0.1313 -0.0907 -2.1759
  759TIP3    H223837   4.110   3.260   7.436  0.7251 -0.2869  1.2026
  760TIP3   OH223838   0.421   4.890   7.261  0.8915 -0.4362 -0.0449
  760TIP3    H123839   0.492   4.832   7.234  0.9944  0.1859 -1.1771
  760TIP3    H223840   0.443   4.974   7.222 -1.2368 -0.5879 -1.7545
  761TIP3   OH223841   2.237   2.322   1.119  0.3626 -0.5077  0.4996
  761TIP3    H123842   2.309   2.349   1.177 -0.2202 -1.2024  1.5843
  761TIP3    H223843   2.269   2.242   1.077  1.3437  0.7552 -1.2681
  762TIP3   OH223844   2.182   3.448   1.199 -0.4740  0.0125  0.4953
  762TIP3    H123845   2.257   3.483   1.248  1.4615 -2.3129 -0.5679
  762TIP3    H223846   2.168   3.512   1.129  3.2306 -1.2397 -1.6700
  763TIP3   OH223847   0.147   1.721   7.088 -0.2136  0.8058  0.7192
  763TIP3    H123848   0.229   1.756   7.053 -0.1172  1.5678  1.6408
  763TIP3    H223849   0.128   1.645   7.034  2.3796 -0.8932  1.9749
  764TIP3   OH223850   6.386   1.537   7.374  0.3617  0.2609 -0.6194
  764TIP3    H123851   6.409   1.582   7.293  0.5587  1.6850  0.2069
  764TIP3    H223852   6.457   1.473   7.387 -0.3255 -0.8964 -2.2045
  765TIP3   OH223853   4.910   5.657   7.569 -0.2402  0.0530 -0.0050
  765TIP3    H123854   4.918   5.737   7.518  0.8763  0.0344  0.1309
  765TIP3    H223855   4.832   5.614   7.533 -0.3621  0.7846 -0.6432
  766TIP3   OH223856   0.567   5.490   0.312 -0.5248 -0.3419  0.0300
  766TIP3    H123857   0.646   5.538   0.289  0.3443 -1.5865  0.3144
  766TIP3    H223858   0.521   5.547   0.373  0.6145  0.0280  0.5705
  767TIP3   OH223859   6.798   0.669   2.134  0.3033  0.7937  0.0475
  767TIP3    H123860   6.845   0.600   2.087 -1.4429 -0.8991  0.6301
  767TIP3    H223861   6.817   0.652   2.226 -1.4177  0.0533  0.2919
  768TIP3   OH223862   1.809   5.169   1.648 -0.5402  0.6295  0.1987
  768TIP3    H123863   1.856   5.177   1.731 -0.5618  1.0234  0.1761
  768TIP3    H223864   1.718   5.156   1.673 -0.1916 -2.1710  0.2838
  769TIP3   OH223865   2.239   4.593   0.715  0.6635  0.0909 -0.0381
  769TIP3    H123866   2.242   4.663   0.650 -4.5493  0.5458 -0.1742
  769TIP3    H223867   2.262   4.514   0.667 -0.9224  0.7329 -1.9950
  770TIP3   OH223868   1.462   2.577   1.926 -0.1853  0.1674 -0.0618
  770TIP3    H123869   1.518   2.514   1.972 -0.9915  0.8303  1.8987
  770TIP3    H223870   1.520   2.651   1.909 -0.5177  1.1367  2.5599
  771TIP3   OH223871   1.243   3.701   8.409  0.1727 -0.2838 -0.5798
  771TIP3    H123872   1.150   3.683   8.402  0.3511 -1.0768 -1.0483
  771TIP3    H223873   1.278   3.630   8.462  0.3148  0.7230  0.7194
  772TIP3   OH223874   5.657   6.000   7.416  0.3364 -0.0798 -0.2475
  772TIP3    H123875   5.678   6.072   7.476  0.6679  0.3286 -0.8473
  772TIP3    H223876   5.670   5.921   7.469  0.7335  0.2680  0.1892
  773TIP3   OH223877   1.524   4.910   8.467 -0.7827  0.1250  0.2889
  773TIP3    H123878   1.506   5.004   8.475  0.8022  0.5273 -0.4940
  773TIP3    H223879   1.517   4.892   8.373  2.8972  0.4041 -0.1818
  774TIP3   OH223880   2.654   6.250   7.578 -0.2111  0.2015 -0.0561
  774TIP3    H123881   2.694   6.163   7.587 -0.1650  0.3154  0.9707
  774TIP3    H223882   2.560   6.232   7.585 -0.2857  0.0802 -1.2261
  775TIP3   OH223883   3.815   0.266   8.060  0.1637 -0.0454 -0.2924
  775TIP3    H123884   3.862   0.202   8.114 -0.7951 -0.0644  0.5519
  775TIP3    H223885   3.884   0.316   8.017  0.9419 -1.3679 -0.6536
  776TIP3   OH223886   3.970   2.428   7.163 -0.2184 -0.0319 -0.1189
  776TIP3    H123887   3.959   2.523   7.167  1.7653  0.2320 -0.0033
  776TIP3    H223888   3.999   2.411   7.074  0.8829 -0.3326  0.2821
  777TIP3   OH223889   1.576   6.750   7.660  0.0506 -0.1050 -0.0356
  777TIP3    H123890   1.520   6.676   7.637  0.3798 -0.3629 -0.0216
  777TIP3    H223891   1.517   6.815   7.697 -0.1926 -0.4974  0.2700
  778TIP3   OH223892   0.724   3.746   0.276  0.0589 -0.3066  0.2860
  778TIP3    H123893   0.758   3.733   0.364  1.2724 -1.1400 -0.2843
  778TIP3    H223894   0.780   3.693   0.220 -0.7232  0.1624 -0.9915
  779TIP3   OH223895   0.733   0.366   7.767  0.3270 -0.3195 -0.4443
  779TIP3    H123896   0.680   0.378   7.846  1.0155  0.6789 -0.1103
  779TIP3    H223897   0.672   0.331   7.702 -0.6372  0.4031  0.0448
  780TIP3   OH223898   5.399   3.830   1.966  0.4068 -0.4027 -0.3135
  780TIP3    H123899   5.353   3.894   1.912 -0.0611 -0.5745 -0.1172
  780TIP3    H223900   5.332   3.767   1.992  0.8814 -1.0138 -0.5631
  781TIP3   OH223901   5.120   0.014   8.610  0.0188 -0.5753  0.3589
  781TIP3    H123902   5.201   0.065   8.608 -0.7693  0.7262 -0.7111
  781TIP3    H223903   5.133  -0.056   8.547 -0.6561  1.3284 -2.0496
  782TIP3   OH223904   1.196   1.827   0.564  0.1594  0.3812 -0.0431
  782TIP3    H123905   1.255   1.780   0.506  0.5835 -0.0798  0.7344
  782TIP3    H223906   1.229   1.916   0.565 -0.1687  0.5198 -0.9065
  783TIP3   OH223907   6.690   0.223   0.393 -0.1784 -0.8548 -0.3342
  783TIP3    H123908   6.781   0.196   0.391  0.2212  0.4218  0.1283
  783TIP3    H223909   6.641   0.141   0.407  0.8888 -1.5202 -0.3963
  784TIP3   OH223910   6.317   3.801   0.480  0.1876  0.1115  0.1416
  784TIP3    H123911   6.397   3.759   0.511 -0.0768 -0.7886 -0.3475
  784TIP3    H223912   6.247   3.744   0.514 -0.1713  0.0415 -0.7094
  785TIP3   OH223913   5.845   1.024   8.514  0.1462  0.2383 -0.1635
  785TIP3    H123914   5.877   1.114   8.528  0.6238  0.6556 -3.1696
  785TIP3    H223915   5.915   0.969   8.547  1.1587  1.0691 -0.8231
  786TIP3   OH223916   1.765   3.100   2.534 -0.2018  0.6833 -0.3527
  786TIP3    H123917   1.747   3.151   2.613  0.9036  0.2891  0.1757
  786TIP3    H223918   1.733   3.012   2.555 -1.5724  0.9811 -1.0473
  787TIP3   OH223919   5.154   5.622   0.702  0.4231  0.0015  0.0896
  787TIP3    H123920   5.066   5.607   0.738 -0.4148  0.1516 -1.7245
  787TIP3    H223921   5.207   5.552   0.738 -0.2285  0.3618  1.8598
  788TIP3   OH223922   6.163   1.427   1.200 -0.7306 -0.3780  0.1306
  788TIP3    H123923   6.101   1.499   1.216  1.0690  1.2257  0.3380
  788TIP3    H223924   6.144   1.363   1.269 -1.0155  0.9089  1.2987
  789TIP3   OH223925   3.802   4.438   1.148 -0.6030 -0.5326  0.2084
  789TIP3    H123926   3.809   4.346   1.124 -0.3400 -1.2121  2.6899
  789TIP3    H223927   3.722   4.468   1.103 -2.1380 -2.6576  1.3366
  790TIP3   OH223928   2.551   4.556   3.079 -0.3609 -0.4468  0.1318
  790TIP3    H123929   2.464   4.520   3.058 -1.4754  2.3517 -0.5616
  790TIP3    H223930   2.535   4.617   3.151  1.5304 -1.6706  1.6866
  791TIP3   OH223931   1.725   6.167   2.358 -0.2249  0.1103 -0.0346
  791TIP3    H123932   1.700   6.091   2.410  0.5410 -0.9121 -1.1241
  791TIP3    H223933   1.736   6.133   2.269 -1.5134  1.8135 -0.9046
  792TIP3   OH223934   6.247   1.102   1.325 -0.1016  0.5500  0.1813
  792TIP3    H123935   6.203   1.020   1.349  1.2180  0.0721  1.0876
  792TIP3    H223936   6.262   1.095   1.231  2.6210 -1.6309  0.6806
  793TIP3   OH223937   3.687   0.824   2.009  0.3640  0.5558  0.0787
  793TIP3    H123938   3.623   0.853   2.074 -0.6767 -0.2079 -0.5823
  793TIP3    H223939   3.743   0.762   2.057 -0.3487  0.0506  0.2745
  794TIP3   OH223940   0.666   2.132   1.879  0.4719  0.0432  0.1018
  794TIP3    H123941   0.760   2.136   1.864  0.6477 -0.6963  0.9286
  794TIP3    H223942   0.635   2.221   1.860  1.2131  0.1127 -0.8762
  795TIP3   OH223943   1.714   2.531   8.229 -0.4409 -0.1083  0.4235
  795TIP3    H123944   1.792   2.538   8.285  0.1045  0.2334 -0.3694
  795TIP3    H223945   1.705   2.618   8.190 -0.5915 -0.4577 -0.3206
  796TIP3   OH223946   4.256   4.783   1.492 -0.3462 -0.2911  0.3893
  796TIP3    H123947   4.339   4.828   1.474 -0.8342 -0.3346 -2.6504
  796TIP3    H223948   4.223   4.823   1.572  1.7891  0.9386  0.7204
  797TIP3   OH223949   4.512   6.230   7.584 -0.6514 -0.0393 -0.0739
  797TIP3    H123950   4.437   6.185   7.623 -1.3830 -0.8814 -2.2662
  797TIP3    H223951   4.475   6.307   7.540  0.1000  0.7649  0.6645
  798TIP3   OH223952   3.685   1.313   0.791  0.1913 -0.3817  0.2676
  798TIP3    H123953   3.781   1.318   0.789  0.1879  0.7756  1.6025
  798TIP3    H223954   3.660   1.362   0.869 -1.5015 -0.7048 -0.0352
  799TIP3   OH223955   5.257   5.311   7.858  0.8227  0.2360 -0.1595
  799TIP3    H123956   5.257   5.228   7.809  1.8527 -0.6912  1.3333
  799TIP3    H223957   5.285   5.376   7.794 -0.1368 -0.5295 -1.4033
  800TIP3   OH223958   3.237   5.394   0.583  0.2292 -0.4389 -0.8829
  800TIP3    H123959   3.294   5.421   0.656  1.8666 -0.6097 -2.0526
  800TIP3    H223960   3.281   5.319   0.545  0.3146  0.6693 -3.1055
  801TIP3   OH223961   2.596   5.708   2.874 -0.0948  0.4383 -0.2720
  801TIP3    H123962   2.613   5.779   2.813 -0.7364  0.1385 -0.8094
  801TIP3    H223963   2.663   5.718   2.942 -0.3352  1.7021 -0.1973
  802TIP3   OH223964   3.856   6.449   1.460  0.8661 -0.2560 -0.1589
  802TIP3    H123965   3.848   6.447   1.365  0.6929 -0.2394 -0.1437
  802TIP3    H223966   3.792   6.514   1.489  0.5454 -0.6471  0.0115
  803TIP3   OH223967   0.919   4.059   1.426 -0.4331 -0.1089 -0.2128
  803TIP3    H123968   0.989   4.113   1.463  0.2230 -0.6131 -0.7093
  803TIP3    H223969   0.888   4.109   1.351 -0.5090  0.0382 -0.0867
  804TIP3   OH223970   1.978   1.957   8.156  0.5778 -0.1658 -0.4159
  804TIP3    H123971   1.935   2.001   8.229  0.6174 -0.5940 -0.1345
  804TIP3    H223972   1.949   1.866   8.162  1.5921 -0.4835 -0.1698
  805TIP3   OH223973   1.295   4.663   1.329 -0.4366  0.2465  0.5567
  805TIP3    H123974   1.303   4.571   1.353 -0.6225  0.5937  2.0316
  805TIP3    H223975   1.363   4.707   1.379 -0.2245  0.8954 -0.2868
  806TIP3   OH223976   5.349   2.001   7.803  0.2540 -0.7600 -0.6377
  806TIP3    H123977   5.267   2.034   7.767 -0.4163 -0.9851  0.6493
  806TIP3    H223978   5.417   2.052   7.758 -0.6955  1.9035  0.7428
  807TIP3   OH223979   6.756   0.361   8.193  0.1934  0.3803  0.2280
  807TIP3    H123980   6.684   0.420   8.172  1.1867  0.8284 -2.3046
  807TIP3    H223981   6.727   0.275   8.164  0.5300  0.5071 -0.5099
  808TIP3   OH223982   1.774   6.797   8.489 -0.7771 -0.4891 -0.6463
  808TIP3    H123983   1.817   6.838   8.563 -0.3384 -0.5455 -0.8664
  808TIP3    H223984   1.771   6.704   8.511 -1.5574 -0.3829 -0.2527
  809TIP3   OH223985   3.253   6.290   7.943  0.2676 -0.2255  0.1102
  809TIP3    H123986   3.262   6.262   7.852  1.0284  0.5867 -0.0795
  809TIP3    H223987   3.211   6.216   7.986  1.9424 -1.5789 -0.4191
  810TIP3   OH223988   0.457   2.386   7.230 -0.0365 -0.2033  0.2192
  810TIP3    H123989   0.499   2.352   7.309  0.1198  1.4907  0.9010
  810TIP3    H223990   0.363   2.377   7.248 -0.0053  0.3926  0.7054
  811TIP3   OH223991   2.708   3.382   0.253 -0.0064 -0.3528 -0.2513
  811TIP3    H123992   2.662   3.361   0.172 -1.7890 -0.1144  0.6484
  811TIP3    H223993   2.745   3.469   0.238  0.8028 -0.8542 -1.2545
  812TIP3   OH223994   5.257   0.982   1.230 -0.1826 -0.5754 -0.2060
  812TIP3    H123995   5.307   1.018   1.157 -0.1424 -1.4347 -0.6149
  812TIP3    H223996   5.308   1.005   1.308  0.2273 -0.4071 -0.5221
  813TIP3   OH223997   4.076   0.152   1.493 -0.0292  0.0699  0.3454
  813TIP3    H123998   4.076   0.059   1.471 -0.6834  0.5219 -1.8276
  813TIP3    H223999   4.080   0.196   1.408 -0.4128  2.0328  1.3000
  814TIP3   OH224000   2.698   5.917   2.694  0.3941  0.4540  0.2544
  814TIP3    H124001   2.632   5.951   2.634  0.4348  0.0181 -0.0475
  814TIP3    H224002   2.781   5.940   2.653  0.4217  0.5035  0.3409
  815TIP3   OH224003   0.400   4.117   0.616  1.1371  0.2714 -0.0349
  815TIP3    H124004   0.355   4.149   0.538 -0.2582 -1.6503 -0.1070
  815TIP3    H224005   0.353   4.159   0.689  1.2131  0.6077 -0.1767
  816TIP3   OH224006   2.163   3.698   1.017 -0.3125 -0.0692  0.3032
  816TIP3    H124007   2.089   3.746   1.053  0.3593  0.1544  1.4389
  816TIP3    H224008   2.207   3.760   0.959 -1.3261 -0.3863 -0.8294
  817TIP3   OH224009   5.222   4.777   7.367  0.5604  0.3906  0.3476
  817TIP3    H124010   5.134   4.803   7.395  1.1204  1.0964  1.5484
  817TIP3    H224011   5.263   4.857   7.337  0.2537 -0.2250 -1.9040
  818TIP3   OH224012   3.605   6.296   2.934 -0.2203 -0.0344  0.0099
  818TIP3    H124013   3.528   6.238   2.936 -0.2618 -0.1016 -1.6325
  818TIP3    H224014   3.677   6.241   2.963 -0.5125 -0.4802 -0.0921
  819TIP3   OH224015   4.049   0.015   2.192  0.1423 -0.5434  0.3838
  819TIP3    H124016   3.973  -0.041   2.201  0.4182 -0.7813  1.3731
  819TIP3    H224017   4.121  -0.044   2.170  0.2999 -0.4985  0.7641
  820TIP3   OH224018   2.545   0.691   7.802 -0.0394  0.4889 -0.1908
  820TIP3    H124019   2.631   0.719   7.772 -0.2559  1.2410 -0.1323
  820TIP3    H224020   2.509   0.767   7.848 -1.2024  0.6076 -1.2272
  821TIP3   OH224021   3.198   4.461   2.212 -0.6725 -0.1278  0.1785
  821TIP3    H124022   3.152   4.508   2.282  0.9786 -1.8593  2.5857
  821TIP3    H224023   3.130   4.409   2.170 -1.9053  1.7910 -0.3358
  822TIP3   OH224024   4.349   5.377   8.056  0.6729  0.0260  0.0236
  822TIP3    H124025   4.253   5.379   8.060  0.5925  2.3058 -1.4189
  822TIP3    H224026   4.377   5.423   8.135  0.4673  1.4123 -0.6760
  823TIP3   OH224027   4.083   1.281   2.431  0.0774  0.2692 -0.2383
  823TIP3    H124028   4.017   1.350   2.425 -0.8380 -0.5691 -0.1652
  823TIP3    H224029   4.166   1.326   2.420 -0.5612  1.2156 -1.4055
  824TIP3   OH224030   3.818   3.119   7.454  0.2953  0.0669 -0.4573
  824TIP3    H124031   3.799   3.100   7.546 -1.7966  0.2337 -0.8195
  824TIP3    H224032   3.781   3.045   7.406 -1.0346  1.2481 -1.3241
  825TIP3   OH224033   1.524   3.846   8.519  0.1548 -0.3549  0.7410
  825TIP3    H124034   1.559   3.758   8.504  1.5949  0.4713 -1.1974
  825TIP3    H224035   1.594   3.893   8.563  0.0061  0.2369  0.3611
  826TIP3   OH224036   5.916   6.805   0.667 -0.7711  0.1161  0.7552
  826TIP3    H124037   5.942   6.890   0.702  1.8473  0.2712 -1.2286
  826TIP3    H224038   5.956   6.742   0.726 -0.2519  0.3059  0.6085
  827TIP3   OH224039   2.988   3.845   7.406  0.0728  0.3242 -0.0169
  827TIP3    H124040   3.006   3.847   7.312  0.1130  1.7242  0.0050
  827TIP3    H224041   2.893   3.833   7.412  0.2113 -0.9691 -0.2074
  828TIP3   OH224042   0.283   5.489   1.244  0.1968 -0.3313  0.3332
  828TIP3    H124043   0.204   5.530   1.209  0.6430  0.3940  0.1621
  828TIP3    H224044   0.256   5.452   1.328 -0.1784  0.4542  0.5658
  829TIP3   OH224045   5.291   4.619   6.989 -0.0033 -0.1573 -0.5721
  829TIP3    H124046   5.284   4.589   7.079 -0.8932 -0.7546 -0.8279
  829TIP3    H224047   5.363   4.682   6.990 -1.7149  1.9369  1.1278
  830TIP3   OH224048   1.611   3.164   3.050 -0.8277 -0.1105 -0.0900
  830TIP3    H124049   1.640   3.074   3.037 -0.7159 -0.3149  1.3644
  830TIP3    H224050   1.517   3.162   3.032 -0.7206 -0.3741 -0.6541
  831TIP3   OH224051   5.339   2.376   0.114 -0.3502 -0.0856 -0.1266
  831TIP3    H124052   5.369   2.367   0.204  1.3511  0.4543 -0.5901
  831TIP3    H224053   5.367   2.295   0.071  0.6858  0.5124 -0.6177
  832TIP3   OH224054   0.646   5.249   7.937  0.0517  0.1270 -0.2741
  832TIP3    H124055   0.700   5.261   8.016  0.4727 -1.1452 -0.3481
  832TIP3    H224056   0.556   5.255   7.969  0.2216 -0.1313  0.2644
  833TIP3   OH224057   1.696   1.733   2.709 -0.6706  0.2433  0.0950
  833TIP3    H124058   1.681   1.745   2.616  0.2067 -0.6373 -0.1708
  833TIP3    H224059   1.789   1.709   2.716 -1.0021 -0.8487  1.0713
  834TIP3   OH224060   0.228   0.291   7.769  0.6578  0.4022 -0.0754
  834TIP3    H124061   0.267   0.228   7.707 -0.0084  0.9311 -1.0612
  834TIP3    H224062   0.135   0.271   7.767  0.3666  1.7248 -0.7782
  835TIP3   OH224063   1.581   0.506   0.243 -0.2950  0.9075  0.0804
  835TIP3    H124064   1.641   0.537   0.311  0.1011 -1.0795  0.6787
  835TIP3    H224065   1.494   0.515   0.282 -0.0435 -0.6173  1.0561
  836TIP3   OH224066   2.021   3.683   2.132  0.5482  0.1523 -0.2623
  836TIP3    H124067   2.063   3.606   2.095  0.6542 -0.2651  0.6960
  836TIP3    H224068   1.961   3.648   2.198  1.5916  0.9398  1.1609
  837TIP3   OH224069   0.312   0.855   3.071  0.2266  0.2884 -0.0794
  837TIP3    H124070   0.229   0.816   3.044  0.9407 -0.2976 -1.5219
  837TIP3    H224071   0.310   0.852   3.167 -0.6218 -1.4485 -0.1145
  838TIP3   OH224072   0.967   1.405   7.511 -0.0534  0.6306  0.7264
  838TIP3    H124073   1.051   1.438   7.478 -0.7119  2.5230  0.8480
  838TIP3    H224074   0.901   1.459   7.467 -1.2344 -0.7787  0.6826
  839TIP3   OH224075   3.826   5.808   7.679  0.1013  0.3769 -0.5205
  839TIP3    H124076   3.791   5.787   7.766 -0.1826  0.4150 -0.6240
  839TIP3    H224077   3.813   5.728   7.628  0.5829  0.2380 -0.4346
  840TIP3   OH224078   1.631   1.586   2.093  0.3271  0.0945  0.5577
  840TIP3    H124079   1.612   1.542   2.175 -0.1018  0.1427  0.4871
  840TIP3    H224080   1.613   1.678   2.110 -1.3946 -0.0902 -0.0515
  841TIP3   OH224081   4.862   2.320   2.213  0.0327  0.0443  0.4583
  841TIP3    H124082   4.811   2.393   2.246  0.6946  0.8351 -0.2204
  841TIP3    H224083   4.886   2.269   2.291  0.2459  1.0019  1.0317
  842TIP3   OH224084   4.956   4.319   0.484  0.5051 -0.3476  0.1029
  842TIP3    H124085   4.931   4.232   0.516  1.1988 -0.4016  0.5442
  842TIP3    H224086   5.005   4.357   0.557  0.0784  0.4749 -0.0328
  843TIP3   OH224087   3.822   4.273   7.971 -0.4246  0.0935  0.2174
  843TIP3    H124088   3.886   4.344   7.969  0.5315 -0.7631 -0.2429
  843TIP3    H224089   3.737   4.318   7.972  0.1630  1.2406  0.6285
  844TIP3   OH224090   4.309   1.240   1.443 -0.0422 -0.6003  0.5092
  844TIP3    H124091   4.343   1.153   1.463 -1.4349 -1.1447  0.6332
  844TIP3    H224092   4.283   1.275   1.529 -1.1952 -0.8416  0.2861
  845TIP3   OH224093   1.390   2.449   8.177  0.3425  0.3983 -0.0497
  845TIP3    H124094   1.306   2.460   8.133  0.6689  1.2022 -0.4968
  845TIP3    H224095   1.415   2.538   8.203 -0.5593 -0.1496  3.1497
  846TIP3   OH224096   1.000   0.206   8.634  0.2415  0.5660 -0.1104
  846TIP3    H124097   0.995   0.300   8.651 -1.0941  0.8870 -1.9452
  846TIP3    H224098   1.088   0.181   8.662 -0.2291  1.7811  2.8579
  847TIP3   OH224099   2.370   6.110   0.525  0.2836 -1.1126  0.0829
  847TIP3    H124100   2.403   6.133   0.437 -2.3552  1.7501 -0.3442
  847TIP3    H224101   2.408   6.176   0.582  1.2278 -2.3994  0.9882
  848TIP3   OH224102   5.281   4.206   1.174  0.3849  0.2300  0.5665
  848TIP3    H124103   5.192   4.181   1.149  0.3760  1.8922 -1.3284
  848TIP3    H224104   5.329   4.124   1.178 -0.8914 -0.5631  0.1993
  849TIP3   OH224105   4.050   6.735   0.973  0.2563  0.4374 -0.1164
  849TIP3    H124106   4.137   6.715   0.937  0.2066 -0.2509  0.1376
  849TIP3    H224107   4.042   6.678   1.049 -1.4408 -1.4554 -1.6063
  850TIP3   OH224108   4.055   5.217   8.733  0.0675 -1.0466 -0.2833
  850TIP3    H124109   4.144   5.247   8.750  0.4067 -1.5599 -1.1140
  850TIP3    H224110   4.040   5.236   8.640 -1.3519  0.7046  0.2410
  851TIP3   OH224111   0.893   3.229   7.961  0.3190  0.0983 -0.3480
  851TIP3    H124112   0.920   3.209   7.871 -1.5693 -0.8992 -0.7398
  851TIP3    H224113   0.833   3.304   7.952 -0.7527 -0.7024 -0.0799
  852TIP3   OH224114   5.550   0.864   2.331 -0.0430 -0.0715  0.8665
  852TIP3    H124115   5.474   0.875   2.274  2.1975 -1.4704 -2.6972
  852TIP3    H224116   5.563   0.770   2.336  1.5549  0.1400  1.2558
  853TIP3   OH224117   2.703   0.521   2.938 -0.9671 -0.1827 -0.7136
  853TIP3    H124118   2.701   0.495   2.846 -1.9673 -0.9118 -0.5105
  853TIP3    H224119   2.694   0.439   2.986  1.5280 -0.0394  0.1159
  854TIP3   OH224120   3.775   5.505   1.512  0.1816 -0.3008  0.7872
  854TIP3    H124121   3.736   5.426   1.475 -0.7732  0.8495 -0.7962
  854TIP3    H224122   3.864   5.479   1.537  0.1992 -1.6491 -0.5654
  855TIP3   OH224123   3.421   1.061   0.855 -0.0680  0.1242  0.5998
  855TIP3    H124124   3.332   1.062   0.819  0.5255 -0.3449 -0.9512
  855TIP3    H224125   3.466   0.993   0.805  1.4019  0.9541  0.7588
  856TIP3   OH224126   0.220   3.444   8.269  0.2431 -0.0850 -0.0053
  856TIP3    H124127   0.202   3.483   8.184 -1.4612 -0.9659 -0.0948
  856TIP3    H224128   0.307   3.477   8.293  1.5643 -1.1174 -2.8283
  857TIP3   OH224129   2.336   6.384   7.290 -0.0310  0.8562  0.1276
  857TIP3    H124130   2.267   6.443   7.320 -0.9973  0.0163 -0.3899
  857TIP3    H224131   2.333   6.391   7.194  0.8497  1.0648  0.1018
  858TIP3   OH224132   0.478   5.710   1.265  0.1770 -0.2068 -0.3705
  858TIP3    H124133   0.396   5.661   1.275  0.6338 -1.0745 -0.7085
  858TIP3    H224134   0.546   5.645   1.283  0.8356  0.0338 -1.8397
  859TIP3   OH224135   6.310   2.534   0.739 -0.1700 -0.9367 -0.1034
  859TIP3    H124136   6.301   2.536   0.834 -1.2941 -1.7772 -0.1572
  859TIP3    H224137   6.402   2.550   0.722 -0.0615 -0.2142  1.1009
  860TIP3   OH224138   3.593   6.172   0.025  0.0728  1.3017 -0.3458
  860TIP3    H124139   3.650   6.099   0.001 -0.7484  0.2566  0.8347
  860TIP3    H224140   3.587   6.224  -0.056  1.0017  0.3221 -1.0791
  861TIP3   OH224141   4.722   2.582   2.615 -0.4261 -0.0085 -0.5451
  861TIP3    H124142   4.629   2.587   2.597 -1.0092  0.5584  2.2454
  861TIP3    H224143   4.764   2.589   2.529 -2.9528 -2.1506 -2.0716
  862TIP3   OH224144   3.441   2.628   8.690  0.0104  0.1513  0.0341
  862TIP3    H124145   3.391   2.657   8.767  0.3109 -1.8373  1.0402
  862TIP3    H224146   3.380   2.637   8.617 -0.7369  0.7925  0.7048
  863TIP3   OH224147   3.483   2.963   8.084 -0.1898  0.5720 -0.2060
  863TIP3    H124148   3.547   2.908   8.038 -0.3268  0.9939 -0.9128
  863TIP3    H224149   3.474   3.041   8.029  0.4258  1.5760  1.0428
  864TIP3   OH224150   2.467   2.630   7.163  0.1679  0.3995 -0.1399
  864TIP3    H124151   2.396   2.568   7.177  0.4540 -0.2897 -1.5988
  864TIP3    H224152   2.512   2.599   7.085  0.6752  2.1280 -0.5940
  865TIP3   OH224153   2.558   3.942   8.683 -0.0676  0.2973 -0.1001
  865TIP3    H124154   2.643   3.986   8.685 -0.1557  0.6761 -2.2307
  865TIP3    H224155   2.496   4.010   8.659 -0.7295 -0.3196 -0.1705
  866TIP3   OH224156   2.545   4.619   0.405  0.0986  0.2417 -0.4843
  866TIP3    H124157   2.604   4.695   0.407  0.9511 -0.4068  0.0692
  866TIP3    H224158   2.590   4.553   0.458 -0.5982 -0.6721 -0.9993
  867TIP3   OH224159   4.247   0.421   2.714 -0.4911  0.3904  0.4909
  867TIP3    H124160   4.295   0.502   2.730  1.7257 -0.9725  1.1631
  867TIP3    H224161   4.265   0.366   2.790  0.4165 -1.7708 -1.1697
  868TIP3   OH224162   1.806   0.099   1.248 -0.2609  0.1779 -0.4558
  868TIP3    H124163   1.848   0.061   1.171 -1.8939  0.9718 -1.8010
  868TIP3    H224164   1.780   0.187   1.220 -1.7738  0.1277  0.6624
  869TIP3   OH224165   5.925   0.969   0.965  0.5778 -0.1601 -0.5059
  869TIP3    H124166   5.884   0.984   1.050  1.6855 -0.3267  0.0675
  869TIP3    H224167   5.893   1.041   0.910  0.1564  0.1614  0.1518
  870TIP3   OH224168   4.546   1.249   7.478  0.0871  0.5774  0.4029
  870TIP3    H124169   4.606   1.177   7.497 -0.9661 -0.2469  0.6890
  870TIP3    H224170   4.476   1.210   7.427 -1.2087  1.0822  1.7202
  871TIP3   OH224171   0.070   3.493   2.228 -0.4915  0.2871  0.0895
  871TIP3    H124172   0.082   3.579   2.187 -0.6756 -0.6403 -2.0550
  871TIP3    H224173   0.155   3.472   2.267  0.0570  0.7436 -0.8248
  872TIP3   OH224174   3.768   2.662   8.266 -0.3940  0.4743  0.0991
  872TIP3    H124175   3.685   2.677   8.311 -0.1785 -0.1961  0.7274
  872TIP3    H224176   3.757   2.705   8.181 -1.5000  0.1197  0.0527
  873TIP3   OH224177   5.155   5.224   0.221 -0.1830  0.1366 -0.0020
  873TIP3    H124178   5.135   5.134   0.196 -0.6066 -0.1738  1.3929
  873TIP3    H224179   5.215   5.216   0.295  1.7681  1.0388 -1.3798
  874TIP3   OH224180   4.935   5.874   1.287 -0.0071  0.6056  0.3145
  874TIP3    H124181   4.979   5.904   1.366 -0.3674 -0.8277  1.0924
  874TIP3    H224182   4.853   5.923   1.285  0.0314  0.6945  0.8099
  875TIP3   OH224183   4.290   2.444   0.721  0.3132 -0.2046 -0.0856
  875TIP3    H124184   4.335   2.432   0.805 -1.0090 -0.7951  0.5761
  875TIP3    H224185   4.291   2.357   0.681  1.3576  0.1765 -0.9220
  876TIP3   OH224186   4.391   3.903   0.840  0.2654 -0.4265  0.0861
  876TIP3    H124187   4.395   3.912   0.935  0.7082  0.8352 -0.0239
  876TIP3    H224188   4.475   3.936   0.809 -0.7809  1.6032 -0.8509
  877TIP3   OH224189   0.583   3.887   8.108  0.3757 -0.2910 -0.0332
  877TIP3    H124190   0.523   3.903   8.035  0.3937 -0.1523 -0.0169
  877TIP3    H224191   0.664   3.857   8.067  0.5606  0.3002 -0.0972
  878TIP3   OH224192   5.536   5.547   7.657 -0.0264  0.4522  0.4233
  878TIP3    H124193   5.441   5.554   7.650 -0.4712 -2.2621  2.3504
  878TIP3    H224194   5.560   5.604   7.730 -0.1347  1.0683 -0.0088
  879TIP3   OH224195   5.442   4.214   7.376 -0.1992  0.0527 -0.0920
  879TIP3    H124196   5.397   4.131   7.389  1.2832 -0.4770  2.3304
  879TIP3    H224197   5.435   4.231   7.282 -0.7573 -2.6845 -0.6259
  880TIP3   OH224198   3.501   2.305   2.710 -0.3842 -0.1731  0.4110
  880TIP3    H124199   3.449   2.226   2.695 -0.7256 -0.7047  3.5717
  880TIP3    H224200   3.586   2.286   2.670 -0.5021 -2.1325  0.9593
  881TIP3   OH224201   0.470   2.493   8.159  0.2573  0.3005  0.2726
  881TIP3    H124202   0.546   2.550   8.149  0.8790 -0.7293 -1.2259
  881TIP3    H224203   0.438   2.480   8.070 -0.4299 -0.9230  0.6735
  882TIP3   OH224204   5.326   0.976   7.796  0.1052 -0.0127  0.2498
  882TIP3    H124205   5.285   1.007   7.716  0.6079 -1.4171 -0.5972
  882TIP3    H224206   5.268   1.004   7.866 -0.8281  0.4400 -0.6890
  883TIP3   OH224207   0.120   3.939   1.204 -0.2432  0.1958 -0.2406
  883TIP3    H124208   0.057   3.871   1.229  0.0020  0.8803  2.4948
  883TIP3    H224209   0.172   3.899   1.134 -1.5906 -1.5623 -0.3063
  884TIP3   OH224210   1.892   5.806   1.344  0.2949 -0.0447 -0.2055
  884TIP3    H124211   1.855   5.799   1.256 -0.9130  0.7843  0.1980
  884TIP3    H224212   1.986   5.816   1.331  0.1217  0.1432 -1.4045
  885TIP3   OH224213   4.258   1.739   6.808  0.3743 -0.1360  0.3043
  885TIP3    H124214   4.197   1.677   6.769 -1.5462  1.7666  0.0953
  885TIP3    H224215   4.335   1.735   6.751  0.2610 -2.1430  0.2083
  886TIP3   OH224216   2.736   1.945   7.979  0.1216 -0.0648  0.0457
  886TIP3    H124217   2.653   1.966   7.936  0.7420  0.0289 -1.1474
  886TIP3    H224218   2.735   1.849   7.987  0.6058 -0.2233 -1.5012
  887TIP3   OH224219   2.851   6.455   1.150  0.6389  0.1850  0.3172
  887TIP3    H124220   2.919   6.391   1.173  0.4361  0.4221  1.7129
  887TIP3    H224221   2.797   6.461   1.229 -1.2674 -0.2974 -0.8787
  888TIP3   OH224222   6.460   4.837   1.095  0.5414  0.1105  0.3934
  888TIP3    H124223   6.472   4.866   1.004 -0.0902 -0.1176  0.2369
  888TIP3    H224224   6.422   4.750   1.088 -0.9913  0.7040  0.8687
  889TIP3   OH224225   0.073   0.741   2.991  0.1901 -0.6294  0.2740
  889TIP3    H124226  -0.004   0.773   2.945  0.0587 -1.5222 -0.1490
  889TIP3    H224227   0.039   0.696   3.068  0.3746  0.2532  0.8830
  890TIP3   OH224228   1.626   1.818   7.290  0.2722  0.6010  0.1194
  890TIP3    H124229   1.663   1.736   7.257 -2.0366 -0.8413  0.8600
  890TIP3    H224230   1.672   1.887   7.241  2.3763 -1.0948 -0.4431
  891TIP3   OH224231   5.970   1.423   8.312 -0.2402  0.0880 -0.6844
  891TIP3    H124232   5.883   1.439   8.277 -0.1911 -0.3340 -1.0010
  891TIP3    H224233   5.954   1.368   8.389 -0.3784  1.3122  0.1919
  892TIP3   OH224234   5.896   1.516   7.469 -0.3997  0.0987  0.2885
  892TIP3    H124235   5.887   1.449   7.401  2.0693  0.6288 -0.6917
  892TIP3    H224236   5.991   1.522   7.483 -0.6164  2.6060  1.1266
  893TIP3   OH224237   1.017   2.775   1.424 -0.1219 -0.3155  0.0537
  893TIP3    H124238   1.038   2.776   1.330 -0.1739 -0.2077  0.0426
  893TIP3    H224239   0.922   2.775   1.428 -0.1848  2.1290  0.0944
  894TIP3   OH224240   1.854   2.943   1.866  0.1016 -0.3569  0.2270
  894TIP3    H124241   1.821   3.029   1.892  1.2540  0.9180 -2.2418
  894TIP3    H224242   1.925   2.925   1.928 -0.8381 -0.1038  1.4359
  895TIP3   OH224243   2.614   5.230   0.373  0.3134  0.0544 -0.0569
  895TIP3    H124244   2.543   5.195   0.319 -0.2894  1.0548  0.0557
  895TIP3    H224245   2.680   5.259   0.310  0.1579  0.0811 -0.2075
  896TIP3   OH224246   1.377   2.976   8.414  0.3469 -0.1558 -0.1160
  896TIP3    H124247   1.349   2.908   8.353  0.5709 -0.5627  0.2302
  896TIP3    H224248   1.371   3.057   8.364 -1.0811 -0.2699 -0.1699
  897TIP3   OH224249   5.776   4.178   8.010 -0.1701 -0.4004 -0.3339
  897TIP3    H124250   5.822   4.262   8.004  1.2994 -1.2190 -1.0948
  897TIP3    H224251   5.809   4.128   7.936 -0.8256 -1.7445  0.2587
  898TIP3   OH224252   0.377   0.102   1.559 -0.6208  0.2866 -0.0328
  898TIP3    H124253   0.345   0.055   1.482  0.3018  0.7214 -0.7049
  898TIP3    H224254   0.448   0.157   1.526 -0.1745  0.4547  1.1416
  899TIP3   OH224255   1.761   2.199   8.730 -0.5941  0.0822  0.0324
  899TIP3    H124256   1.754   2.264   8.660  0.4087  1.8032  1.4375
  899TIP3    H224257   1.850   2.209   8.763 -0.1030 -2.6330 -0.2007
  900TIP3   OH224258   2.374   4.884   0.120 -0.7030  0.5780  0.0341
  900TIP3    H124259   2.367   4.977   0.097 -0.3356  0.5442 -0.2272
  900TIP3    H224260   2.468   4.870   0.131 -0.4462 -0.3976 -2.6215
  901TIP3   OH224261   0.441   2.404   6.742  0.0298  0.2914 -0.3765
  901TIP3    H124262   0.358   2.404   6.790 -0.1329 -0.6393 -0.6333
  901TIP3    H224263   0.503   2.363   6.802  0.2648  0.8205 -0.2558
  902TIP3   OH224264   6.259   5.298   8.504  0.2114 -0.0791 -0.1489
  902TIP3    H124265   6.291   5.227   8.559 -1.5758  0.5615  1.8296
  902TIP3    H224266   6.319   5.371   8.520 -0.2230  0.0622  0.8653
  903TIP3   OH224267   4.086   0.083   1.891  0.0668  0.1189 -0.0514
  903TIP3    H124268   4.022   0.122   1.833  0.1214 -0.7947 -0.7561
  903TIP3    H224269   4.045   0.085   1.977 -0.6132  0.1837 -0.3685
  904TIP3   OH224270   0.396   5.263   8.608 -0.1573  0.5427  0.4496
  904TIP3    H124271   0.459   5.234   8.674 -0.1245  0.2844  0.3044
  904TIP3    H224272   0.388   5.189   8.548  1.7114  1.6274 -1.2611
  905TIP3   OH224273   6.171   2.857   8.046  0.0085 -0.1487  1.1415
  905TIP3    H124274   6.246   2.896   8.091 -0.7613  0.3923  2.0075
  905TIP3    H224275   6.123   2.932   8.011  0.6466 -0.5642 -0.7425
  906TIP3   OH224276   6.234   1.775   0.585  0.9306  0.2950 -0.2282
  906TIP3    H124277   6.180   1.775   0.664 -1.6893  3.3646 -1.7658
  906TIP3    H224278   6.294   1.848   0.598  1.8266 -0.4164 -0.3132
  907TIP3   OH224279   2.646   0.012   7.655  0.1672  0.0990  0.2482
  907TIP3    H124280   2.641  -0.058   7.590 -0.6478 -0.0172  0.4256
  907TIP3    H224281   2.679   0.087   7.607  0.9529 -0.3792  0.0310
  908TIP3   OH224282   2.719   0.392   0.486  0.5795  0.0033 -0.3733
  908TIP3    H124283   2.771   0.406   0.565 -0.8450  0.5736  0.5019
  908TIP3    H224284   2.748   0.307   0.453  1.1501 -0.2805  0.7966
  909TIP3   OH224285   3.419   3.312   1.941 -0.1290 -0.4415  0.7486
  909TIP3    H124286   3.339   3.353   1.908  0.4392 -0.0286 -0.1522
  909TIP3    H224287   3.468   3.384   1.980  0.0540 -0.5916  0.7945
  910TIP3   OH224288   3.576   5.016   8.443 -0.1258  0.0840 -0.3968
  910TIP3    H124289   3.650   4.971   8.404 -1.0568 -0.9559 -1.0114
  910TIP3    H224290   3.597   5.109   8.433  1.2075 -0.1850 -0.2997
  911TIP3   OH224291   0.659   3.789   2.259 -0.2058  0.4808  0.3259
  911TIP3    H124292   0.571   3.821   2.244 -0.7789 -0.9802  0.4438
  911TIP3    H224293   0.709   3.816   2.182 -1.2942 -0.5933 -0.7738
  912TIP3   OH224294   5.122   3.139   7.936  0.0571 -0.0321  0.6325
  912TIP3    H124295   5.069   3.134   7.856  1.3019 -1.1579 -0.1634
  912TIP3    H224296   5.174   3.219   7.925  2.5310 -1.7480 -1.2646
  913TIP3   OH224297   1.307   2.941   8.088  0.3558 -0.7933  0.2137
  913TIP3    H124298   1.368   2.986   8.029  0.9465 -0.2110  1.2396
  913TIP3    H224299   1.226   2.991   8.081  0.8148  0.0703  0.8560
  914TIP3   OH224300   6.056   2.276   8.385  0.2437 -0.1529  0.1623
  914TIP3    H124301   6.050   2.239   8.297  0.6500 -1.0766  0.5051
  914TIP3    H224302   5.997   2.222   8.438  0.0088  0.3884  0.4629
  915TIP3   OH224303   0.684   6.017   8.013 -0.5032  0.2737 -0.1232
  915TIP3    H124304   0.650   6.055   8.094  1.7119 -1.5688  1.8288
  915TIP3    H224305   0.641   5.932   8.007  1.9072 -1.1945  1.2760
  916TIP3   OH224306   2.424   0.085   0.455 -0.0388  0.1123 -0.4597
  916TIP3    H124307   2.471   0.165   0.430 -1.0475  1.8122  2.5084
  916TIP3    H224308   2.492   0.020   0.470  1.0752  1.3215 -0.0953
  917TIP3   OH224309   3.931   3.061   2.658  0.3356 -0.1475 -0.3612
  917TIP3    H124310   3.952   3.152   2.638 -1.2696 -0.1004 -2.1233
  917TIP3    H224311   4.006   3.011   2.625 -0.3358  0.3049 -2.7972
  918TIP3   OH224312   4.135   2.440   0.112 -0.5128 -0.2002 -0.3283
  918TIP3    H124313   4.157   2.531   0.134  0.1867 -0.5981  0.6609
  918TIP3    H224314   4.043   2.444   0.085 -0.6860  0.6979  0.3461
  919TIP3   OH224315   1.816   5.590   1.730 -0.2259  0.3273 -0.5087
  919TIP3    H124316   1.894   5.536   1.729  0.2445  0.9902 -0.0045
  919TIP3    H224317   1.750   5.536   1.774 -0.0723 -0.2399 -0.9558
  920TIP3   OH224318   5.533   0.470   0.388  0.0093  0.7433  0.3294
  920TIP3    H124319   5.585   0.546   0.360  0.0614  0.6120  0.0634
  920TIP3    H224320   5.507   0.490   0.478  0.7415  0.6925  0.5578
  921TIP3   OH224321   0.757   1.616   1.355  0.1341  0.2657 -0.3257
  921TIP3    H124322   0.712   1.687   1.309  0.9794 -0.9665 -3.2621
  921TIP3    H224323   0.700   1.540   1.346  2.3942 -1.3104 -4.0769
  922TIP3   OH224324   1.432   6.082   2.731 -0.9012 -0.1507  0.7703
  922TIP3    H124325   1.361   6.118   2.678  0.4083  1.2005 -0.1257
  922TIP3    H224326   1.408   6.104   2.821 -2.4587 -1.2666  0.6726
  923TIP3   OH224327   4.514   0.325   0.550  0.3758 -0.1165  0.3298
  923TIP3    H124328   4.580   0.311   0.482  0.2902  1.3609 -0.1020
  923TIP3    H224329   4.461   0.246   0.549 -0.4778  0.3808 -2.3001
  924TIP3   OH224330   5.247   6.399   1.932  0.2952 -0.0773 -0.3605
  924TIP3    H124331   5.166   6.348   1.932  0.4836 -0.4893 -2.7088
  924TIP3    H224332   5.225   6.479   1.978 -1.8543  0.3687 -2.0217
  925TIP3   OH224333   2.886   1.908   7.600  0.2464 -0.8956  0.3972
  925TIP3    H124334   2.812   1.963   7.626  1.6915  0.8211  1.0418
  925TIP3    H224335   2.848   1.821   7.589 -2.1046  0.1759 -0.5746
  926TIP3   OH224336   3.435   5.328   0.816  0.1017 -0.1418  0.4319
  926TIP3    H124337   3.459   5.242   0.780  1.8112  0.5074 -0.0976
  926TIP3    H224338   3.505   5.386   0.786 -1.0063  1.4406  0.8093
  927TIP3   OH224339   0.656   4.223   8.063 -0.5552 -0.2593 -0.0716
  927TIP3    H124340   0.659   4.298   8.004 -0.3009 -0.1002  0.1433
  927TIP3    H224341   0.729   4.168   8.036 -1.3814 -0.9690 -0.9363
  928TIP3   OH224342   0.389   6.333   1.755  0.4282  0.0373 -0.0942
  928TIP3    H124343   0.294   6.321   1.760  0.7855 -3.4237  0.9869
  928TIP3    H224344   0.417   6.342   1.846  1.2594 -0.1754 -0.3217
  929TIP3   OH224345   5.954   6.183   1.984  0.1656  0.0407  0.0037
  929TIP3    H124346   5.891   6.127   2.029  0.2745 -0.6920 -0.7389
  929TIP3    H224347   5.951   6.266   2.032 -0.3385 -0.4433  0.8277
  930TIP3   OH224348   0.242   3.349   0.052 -0.1442 -0.6569 -0.0612
  930TIP3    H124349   0.292   3.423   0.018 -1.1414  0.4617  0.8144
  930TIP3    H224350   0.262   3.277  -0.008 -0.6572  0.8217 -2.1177
  931TIP3   OH224351   0.140   4.928   8.638  0.0748 -0.2575 -0.3067
  931TIP3    H124352   0.141   4.879   8.556 -0.2685 -0.6043 -0.1089
  931TIP3    H224353   0.206   4.886   8.692 -2.2549 -2.5323  0.9979
  932TIP3   OH224354   5.302   3.181   2.235 -0.0024 -0.4466 -0.3975
  932TIP3    H124355   5.272   3.263   2.273  1.7799  0.3801 -0.6633
  932TIP3    H224356   5.227   3.149   2.185 -1.0102  0.5618  0.4039
  933TIP3   OH224357   5.154   4.366   6.983 -0.3295  0.4089 -0.1357
  933TIP3    H124358   5.209   4.383   6.907  0.3524  1.2036  0.5107
  933TIP3    H224359   5.094   4.440   6.986 -0.2920  0.4265  0.1589
  934TIP3   OH224360   0.249   6.403   8.472 -0.0519 -0.4972 -0.1574
  934TIP3    H124361   0.161   6.367   8.480 -0.8204  0.9316 -1.6516
  934TIP3    H224362   0.298   6.336   8.425 -0.0742 -1.6279  1.3233
  935TIP3   OH224363   6.759   5.032   1.622  0.2327  0.0856  0.3700
  935TIP3    H124364   6.693   4.975   1.661  0.5669  0.0864  0.9390
  935TIP3    H224365   6.754   5.014   1.528  1.0590 -1.6491  0.6335
  936TIP3   OH224366   2.787   1.251   7.991  0.4952  0.4251 -0.2072
  936TIP3    H124367   2.795   1.184   7.922  0.2266 -0.1948  0.3598
  936TIP3    H224368   2.833   1.327   7.955  1.7433 -0.4036 -0.4326
  937TIP3   OH224369   3.808   0.824   8.190  0.1984 -0.5191 -0.0379
  937TIP3    H124370   3.714   0.837   8.180  0.6761  2.6201 -1.9059
  937TIP3    H224371   3.834   0.778   8.110  0.4569  0.1507 -0.3429
  938TIP3   OH224372   1.241   0.030   0.783  0.7043 -0.6707 -0.3253
  938TIP3    H124373   1.260   0.068   0.697 -2.4977  0.1994 -0.7445
  938TIP3    H224374   1.257   0.101   0.845  0.8303 -0.6127 -0.4232
  939TIP3   OH224375   0.148   0.642   0.681 -0.0911 -0.7510 -0.9747
  939TIP3    H124376   0.180   0.552   0.677 -0.8378 -1.0021 -1.4483
  939TIP3    H224377   0.194   0.686   0.610  1.0352 -0.4967 -0.1116
  940TIP3   OH224378   1.123   0.966   1.446  0.1234 -0.0739  0.3277
  940TIP3    H124379   1.181   0.941   1.374  0.7984 -0.3213  0.9467
  940TIP3    H224380   1.123   0.889   1.504 -2.1039 -0.7318 -0.4467
  941TIP3   OH224381   2.640   4.674   7.718 -0.1285 -0.1576  0.4623
  941TIP3    H124382   2.701   4.652   7.788 -0.1699  2.0056  1.2747
  941TIP3    H224383   2.555   4.644   7.749  0.0245 -0.2201  0.8222
  942TIP3   OH224384   2.820   3.935   2.439  0.3139 -0.3294  0.4449
  942TIP3    H124385   2.834   4.005   2.503 -3.2635  0.6062  0.3683
  942TIP3    H224386   2.869   3.963   2.362  1.5355  0.4413  1.4549
  943TIP3   OH224387   4.626   6.085   2.178  0.6308 -0.1900 -0.5101
  943TIP3    H124388   4.618   5.993   2.151  1.7282 -0.5620  0.3632
  943TIP3    H224389   4.549   6.101   2.232 -0.3725 -0.1179 -1.8997
  944TIP3   OH224390   0.896   4.381   2.378 -0.7111  0.2352  0.1001
  944TIP3    H124391   0.954   4.333   2.437 -0.3848  0.6732  0.1388
  944TIP3    H224392   0.808   4.358   2.407 -0.5698  1.1000  1.3087
  945TIP3   OH224393   2.510   2.832   0.435 -0.0457 -0.2641  0.5297
  945TIP3    H124394   2.541   2.857   0.522  0.2121 -0.4094  0.4799
  945TIP3    H224395   2.588   2.799   0.390 -0.3019 -0.7705  0.4548
  946TIP3   OH224396   4.381   5.538   7.456  0.3345  0.3393 -0.3101
  946TIP3    H124397   4.366   5.605   7.523 -2.3974 -0.9487  0.5063
  946TIP3    H224398   4.470   5.506   7.473  1.1777  2.6975  0.1522
  947TIP3   OH224399   2.039   0.360   1.298 -0.0574  0.6525  0.1286
  947TIP3    H124400   1.974   0.346   1.229  0.3368  0.5540 -0.2213
  947TIP3    H224401   2.076   0.273   1.313 -0.4888  0.5749  0.8162
  948TIP3   OH224402   1.897   1.561   1.216  0.4514  0.3777 -0.1675
  948TIP3    H124403   1.952   1.593   1.145  1.4522 -1.0659 -0.0753
  948TIP3    H224404   1.959   1.526   1.281 -0.4820  0.7782  0.9867
  949TIP3   OH224405   1.277   1.089   7.736  0.3932 -0.2038  0.5563
  949TIP3    H124406   1.209   1.128   7.681 -1.1616  0.1128  2.5929
  949TIP3    H224407   1.357   1.094   7.683 -1.0417 -0.1565 -1.7289
  950TIP3   OH224408   3.859   0.174   1.729  0.1665 -0.2201  0.0692
  950TIP3    H124409   3.772   0.197   1.763  0.1616  1.4078 -0.9270
  950TIP3    H224410   3.847   0.168   1.634  0.9085 -1.1826  0.0223
  951TIP3   OH224411   0.499   5.595   7.724 -0.1559 -0.0601  0.3454
  951TIP3    H124412   0.567   5.558   7.668  0.2977  0.6804  0.3841
  951TIP3    H224413   0.426   5.533   7.719  0.2759 -0.5275 -0.2257
  952TIP3   OH224414   6.580   3.053   7.601  0.0051 -0.5362  0.3170
  952TIP3    H124415   6.628   3.001   7.665  0.5693 -0.9258 -0.4121
  952TIP3    H224416   6.619   3.030   7.517  0.1203  0.9078 -0.0539
  953TIP3   OH224417   6.202   3.058   7.210  0.3817 -0.2283 -0.0247
  953TIP3    H124418   6.227   3.023   7.124 -0.4145  1.6885 -1.0965
  953TIP3    H224419   6.109   3.037   7.218  0.0952  0.8432 -0.3223
  954TIP3   OH224420   3.943   4.709   6.923  0.3703 -0.1582  0.2043
  954TIP3    H124421   3.962   4.704   7.017 -0.8372  0.1945  0.4829
  954TIP3    H224422   3.856   4.669   6.915  1.7527 -3.2033 -1.2218
  955TIP3   OH224423   0.675   2.409   0.135  0.1690  0.7014 -0.0776
  955TIP3    H124424   0.671   2.384   0.227 -1.3067  1.8654  0.2112
  955TIP3    H224425   0.586   2.439   0.114 -0.1430 -1.4724 -2.4668
  956TIP3   OH224426   6.805   0.828   0.074 -0.5469 -0.1916 -0.2769
  956TIP3    H124427   6.900   0.833   0.068 -0.4342 -1.6592 -0.1356
  956TIP3    H224428   6.781   0.892   0.140  0.4171 -0.2830  0.1734
  957TIP3   OH224429   0.564   4.381   8.568  0.5507  0.0238 -0.0835
  957TIP3    H124430   0.592   4.332   8.646  1.3822 -1.6984 -1.3962
  957TIP3    H224431   0.641   4.430   8.542 -0.1711  1.8217  1.0020
  958TIP3   OH224432   6.255   4.581   7.653  0.1848 -0.0317  0.5650
  958TIP3    H124433   6.180   4.586   7.712  0.4853 -2.8395  1.3411
  958TIP3    H224434   6.329   4.561   7.710  1.0164  0.0427 -0.4635
  959TIP3   OH224435   5.570   5.087   0.919 -0.3471  0.5937 -0.0846
  959TIP3    H124436   5.603   5.177   0.919 -0.5499  0.6686 -0.3309
  959TIP3    H224437   5.481   5.094   0.885 -0.0328  0.1797 -1.0078
  960TIP3   OH224438   2.603   6.099   2.006 -0.1836 -0.1653  0.0940
  960TIP3    H124439   2.613   6.141   1.921 -2.4879  0.4838  0.0698
  960TIP3    H224440   2.687   6.056   2.022  1.3555  2.2057 -1.1080
  961TIP3   OH224441   5.294   6.455   3.012 -0.5676  0.1470  0.2282
  961TIP3    H124442   5.209   6.490   3.037  0.3520  1.8894  1.1878
  961TIP3    H224443   5.352   6.531   3.013  1.1368 -1.0837  0.2393
  962TIP3   OH224444   1.933   0.808   0.438  0.6146  0.0897 -1.1245
  962TIP3    H124445   2.028   0.802   0.445  0.4890 -0.2218  0.5025
  962TIP3    H224446   1.914   0.902   0.443  0.6437  0.0365  2.2765
  963TIP3   OH224447   3.681   1.929   1.339  0.1719 -0.3465  0.4136
  963TIP3    H124448   3.675   2.000   1.275  0.9513  1.1899  1.9505
  963TIP3    H224449   3.774   1.910   1.344  0.4739  1.2619  2.7422
  964TIP3   OH224450   4.060   6.552   8.418 -0.5449 -0.0403  0.5194
  964TIP3    H124451   4.151   6.575   8.437 -0.3136  1.0609 -1.6457
  964TIP3    H224452   4.008   6.617   8.466 -0.1091  0.5678  0.1800
  965TIP3   OH224453   3.529   5.221   1.251  0.3671 -0.0097  0.2727
  965TIP3    H124454   3.577   5.304   1.255  1.2514 -0.5409  2.1055
  965TIP3    H224455   3.598   5.154   1.253 -0.3711 -0.7785  1.1032
  966TIP3   OH224456   6.394   2.257   7.585 -0.4872 -0.1208  0.1131
  966TIP3    H124457   6.437   2.297   7.510  0.1769  1.4156  1.2503
  966TIP3    H224458   6.422   2.311   7.660 -0.9862 -1.6816  1.4820
  967TIP3   OH224459   4.266   5.549   0.364  0.2895  0.0207 -0.3702
  967TIP3    H124460   4.242   5.549   0.271 -0.1411 -0.8951 -0.2725
  967TIP3    H224461   4.329   5.478   0.372  0.2454  0.0282  0.0519
  968TIP3   OH224462   5.354   1.784   0.102 -0.0801  0.4389 -0.0181
  968TIP3    H124463   5.329   1.841   0.030  2.8696  2.1276  0.1167
  968TIP3    H224464   5.363   1.698   0.062 -0.1296  1.0050 -1.2990
  969TIP3   OH224465   1.774   5.476   1.467 -0.3882  0.1087  0.1100
  969TIP3    H124466   1.767   5.420   1.543 -0.1165 -0.3019 -0.1633
  969TIP3    H224467   1.709   5.442   1.405 -0.2174  0.0870 -0.0598
  970TIP3   OH224468   4.978   3.158   1.571 -0.1842  0.2015 -0.6009
  970TIP3    H124469   4.905   3.095   1.577  1.0382 -1.3363 -1.2059
  970TIP3    H224470   4.937   3.239   1.542 -1.9773  0.0083  1.1775
  971TIP3   OH224471   6.173   4.266   7.721  0.1281 -0.4714 -0.3783
  971TIP3    H124472   6.161   4.358   7.743  1.6236 -0.2263 -0.4832
  971TIP3    H224473   6.252   4.265   7.666  1.9810 -2.1001  2.0812
  972TIP3   OH224474   5.831   4.073   7.446 -0.2834  0.4197  0.2961
  972TIP3    H124475   5.815   4.167   7.433 -1.7126  0.3149  1.1258
  972TIP3    H224476   5.744   4.035   7.457  0.3047 -0.9506  0.3964
  973TIP3   OH224477   3.828   1.456   1.809  0.1151 -0.6003  0.7242
  973TIP3    H124478   3.836   1.364   1.834  0.0512 -0.3716  1.6457
  973TIP3    H224479   3.823   1.455   1.714  0.9414 -1.4893  0.6730
  974TIP3   OH224480   1.796   2.869   7.599 -0.2328 -0.9197 -0.6265
  974TIP3    H124481   1.779   2.775   7.595  2.7376 -1.5733 -0.2529
  974TIP3    H224482   1.870   2.877   7.660 -0.5781  1.6996 -0.4591
  975TIP3   OH224483   0.617   5.128   2.370 -0.3014  0.6529 -0.2881
  975TIP3    H124484   0.572   5.062   2.317  1.3090 -0.3047 -0.5601
  975TIP3    H224485   0.558   5.145   2.443 -1.9448  0.9318 -1.6217
  976TIP3   OH224486   5.642   6.059   0.045  0.0107 -0.7280  0.0779
  976TIP3    H124487   5.702   6.100  -0.018  1.3716  0.5324  2.0577
  976TIP3    H224488   5.601   6.134   0.090 -2.8838 -1.5423 -0.9297
  977TIP3   OH224489   1.548   4.485   0.333 -0.0543 -0.2494  0.0903
  977TIP3    H124490   1.550   4.517   0.243  0.9189 -0.7955 -0.0983
  977TIP3    H224491   1.608   4.542   0.380  0.3761 -0.7256  0.1225
  978TIP3   OH224492   3.496   4.266   7.395 -0.2950 -0.3451 -0.0731
  978TIP3    H124493   3.565   4.214   7.355  0.0793  0.8503 -1.0421
  978TIP3    H224494   3.513   4.356   7.365 -0.5850  0.4549  1.9755
  979TIP3   OH224495   1.536   6.568   7.215 -0.6231  0.5658 -0.2696
  979TIP3    H124496   1.582   6.635   7.164  0.7881  0.1454  0.3924
  979TIP3    H224497   1.452   6.608   7.237 -0.4956  1.4594 -1.3171
  980TIP3   OH224498   3.786   2.271   0.224 -0.2024 -0.2141 -0.1500
  980TIP3    H124499   3.825   2.262   0.311  0.4502 -1.6383 -0.5793
  980TIP3    H224500   3.826   2.351   0.189  0.5691 -0.3732  0.3304
  981TIP3   OH224501   1.024   1.187   2.585  0.6348 -0.6887 -0.9278
  981TIP3    H124502   1.003   1.138   2.505 -0.3589 -1.3004 -0.3232
  981TIP3    H224503   1.101   1.144   2.621 -0.0298 -1.6149 -0.5827
  982TIP3   OH224504   3.836   4.947   8.336  0.3062 -0.5481 -0.3346
  982TIP3    H124505   3.880   5.018   8.383  0.3963  1.1204 -2.7598
  982TIP3    H224506   3.908   4.897   8.296  0.1685 -0.1564 -1.0965
  983TIP3   OH224507   6.679   1.394   0.581  0.3692  0.1396 -0.3434
  983TIP3    H124508   6.685   1.463   0.515 -0.1521  1.4243  0.9058
  983TIP3    H224509   6.755   1.406   0.638  0.0419 -0.0370  0.1429
  984TIP3   OH224510   0.722   6.239   8.675 -0.4440 -0.5216 -0.5884
  984TIP3    H124511   0.794   6.255   8.736 -0.8679 -1.6330  0.2418
  984TIP3    H224512   0.704   6.324   8.635 -0.9659  0.5121  1.7364
  985TIP3   OH224513   2.584   2.349   7.924  0.2797 -0.1688 -0.3205
  985TIP3    H124514   2.605   2.295   8.000  1.1579 -0.3737 -0.6959
  985TIP3    H224515   2.507   2.399   7.951 -0.0016 -0.9414  0.3511
  986TIP3   OH224516   5.386   1.954   7.198  0.0159 -0.3472  0.1589
  986TIP3    H124517   5.433   1.881   7.239  0.3667 -1.2482 -1.7657
  986TIP3    H224518   5.453   2.021   7.184  0.2759 -0.7546 -0.5719
  987TIP3   OH224519   5.732   0.565   1.563  0.3691 -0.4675  0.3868
  987TIP3    H124520   5.676   0.536   1.492 -1.0858 -1.5122  1.9107
  987TIP3    H224521   5.750   0.487   1.615  1.5591  0.2233  1.0905
  988TIP3   OH224522   5.870   3.702   1.370 -0.3007  0.0699 -0.3775
  988TIP3    H124523   5.792   3.697   1.315  0.0320 -2.1337 -0.7465
  988TIP3    H224524   5.881   3.613   1.404  2.1426  0.2604 -0.4938
  989TIP3   OH224525   5.601   0.269   8.529 -0.1853  0.1583 -0.0746
  989TIP3    H124526   5.630   0.208   8.596  0.8712  0.1161 -0.5451
  989TIP3    H224527   5.505   0.262   8.530 -0.1602 -0.2144  1.0569
  990TIP3   OH224528   0.110   5.388   1.921 -0.0157 -0.0992 -0.0669
  990TIP3    H124529   0.103   5.403   2.015  0.2387 -2.5957  0.4271
  990TIP3    H224530   0.203   5.403   1.902 -0.1990  1.0946 -0.0897
  991TIP3   OH224531   5.641   2.377   0.217  0.1213 -0.4526 -0.2422
  991TIP3    H124532   5.579   2.450   0.219 -0.5652 -0.9439 -1.7706
  991TIP3    H224533   5.608   2.315   0.283  0.4411  0.3948  0.7288
  992TIP3   OH224534   5.500   4.637   8.647  0.3918 -0.4730 -0.3869
  992TIP3    H124535   5.500   4.689   8.567  1.0433  0.9457  0.4972
  992TIP3    H224536   5.585   4.594   8.648  0.6461  0.0199 -0.1633
  993TIP3   OH224537   5.458   1.483   8.751 -0.7322  0.1241 -1.1313
  993TIP3    H124538   5.490   1.427   8.680  0.5860 -0.5832 -0.0327
  993TIP3    H224539   5.365   1.460   8.760 -0.1556 -2.3095 -0.4314
  994TIP3   OH224540   5.223   1.099   3.189 -0.6994 -0.5044 -0.3512
  994TIP3    H124541   5.224   1.165   3.258 -1.0925 -0.7374 -0.1165
  994TIP3    H224542   5.134   1.103   3.153 -0.4353 -0.2391 -0.9898
  995TIP3   OH224543   3.798   6.438   0.822  0.0102  0.4920 -0.4076
  995TIP3    H124544   3.890   6.445   0.796  0.2360  0.3267  0.3033
  995TIP3    H224545   3.802   6.406   0.912 -0.7026  1.5234  0.0140
  996TIP3   OH224546   5.008   1.220   2.266 -0.0865 -0.5255 -0.5099
  996TIP3    H124547   5.012   1.301   2.215  1.5492 -1.5860 -2.1913
  996TIP3    H224548   4.971   1.156   2.206  2.1111 -1.8771 -0.5238
  997TIP3   OH224549   2.461   0.750   1.379  0.0604 -0.2698  0.4159
  997TIP3    H124550   2.389   0.721   1.435 -3.6104  2.4409 -2.3952
  997TIP3    H224551   2.460   0.845   1.385  2.2796 -0.0663 -1.1241
  998TIP3   OH224552   1.392   6.604   2.048  0.1173  0.2023 -0.4801
  998TIP3    H124553   1.465   6.665   2.045  1.8174 -1.6595  0.7937
  998TIP3    H224554   1.378   6.587   2.141 -1.9099  0.4178 -0.6891
  999TIP3   OH224555   4.498   0.987   1.898  0.6559 -0.0845 -0.5056
  999TIP3    H124556   4.515   0.893   1.906  0.3968 -0.2785 -1.8960
  999TIP3    H224557   4.420   0.992   1.843 -0.6397  0.9127  1.3503
 1000TIP3   OH224558   5.154   6.031   8.637  0.2331 -0.1776 -0.2330
 1000TIP3    H124559   5.138   6.064   8.549  0.9020 -0.4767 -0.4759
 1000TIP3    H224560   5.104   6.089   8.694  1.4795  1.3745 -0.6347
 1001TIP3   OH224561   4.584   2.508   0.917 -0.1258  0.3119  0.2366
 1001TIP3    H124562   4.663   2.562   0.916  0.0858  0.0234  0.8670
 1001TIP3    H224563   4.565   2.494   1.010 -0.0734 -0.8491  0.0807
 1002TIP3   OH224564   0.832   2.959   6.636 -0.1587  0.2063  0.2091
 1002TIP3    H124565   0.900   2.931   6.697 -0.2812  1.3587  0.8995
 1002TIP3    H224566   0.839   3.054   6.635 -1.0875  0.2772 -0.5176
 1003TIP3   OH224567   0.059   4.619   0.884 -0.2193  0.2412 -0.3309
 1003TIP3    H124568   0.053   4.674   0.806  1.9291 -0.7388 -1.2723
 1003TIP3    H224569   0.123   4.664   0.940 -0.7397  0.2457  0.2743
 1004TIP3   OH224570   3.074   3.899   7.913  0.2380 -0.0314  0.3937
 1004TIP3    H124571   3.012   3.890   7.841 -0.2941 -1.0826  0.9577
 1004TIP3    H224572   3.051   3.982   7.955  0.7841  0.7674 -0.8355
 1005TIP3   OH224573   6.635   6.454   0.821 -0.3346  0.1086  0.0138
 1005TIP3    H124574   6.552   6.498   0.841 -0.5832 -0.1579 -0.4339
 1005TIP3    H224575   6.670   6.503   0.747  0.5524  1.0445  1.0089
 1006TIP3   OH224576   4.724   1.383   7.626  0.2667 -0.3774  0.4758
 1006TIP3    H124577   4.706   1.477   7.626 -0.5501 -0.5240  0.6235
 1006TIP3    H224578   4.638   1.342   7.616  0.6802 -1.1050 -0.2824
 1007TIP3   OH224579   1.840   3.034   1.597 -0.1120 -0.2545  0.3555
 1007TIP3    H124580   1.823   2.993   1.682  1.4600 -0.4819  0.5932
 1007TIP3    H224581   1.933   3.018   1.581  0.1414  1.6590 -0.3926
 1008TIP3   OH224582   2.161   0.315   7.768  0.2690 -0.4418  0.4418
 1008TIP3    H124583   2.189   0.291   7.680  0.3372  1.5006 -0.1035
 1008TIP3    H224584   2.228   0.375   7.799 -1.1751  1.1185  0.6858
 1009TIP3   OH224585   5.940   1.195   0.601  0.0792 -0.2319 -0.1690
 1009TIP3    H124586   5.910   1.267   0.547  0.1426 -0.2277 -0.1984
 1009TIP3    H224587   5.862   1.167   0.649 -0.1449 -0.7075 -0.7939
 1010TIP3   OH224588   3.451   4.326   2.363  0.0339  0.3846  0.3688
 1010TIP3    H124589   3.411   4.377   2.433 -0.0172 -0.1941  0.7685
 1010TIP3    H224590   3.545   4.331   2.381 -0.0493 -2.3448  2.3963
 1011TIP3   OH224591   3.872   1.542   8.280  0.3160 -0.5838  0.8058
 1011TIP3    H124592   3.901   1.470   8.223 -0.0529  0.2475 -0.4783
 1011TIP3    H224593   3.847   1.499   8.362 -2.6720 -2.3952 -0.8502
 1012TIP3   OH224594   3.431   6.070   0.781  0.2570 -0.0928  0.3821
 1012TIP3    H124595   3.525   6.080   0.793  0.1575 -0.3400  1.4813
 1012TIP3    H224596   3.409   5.991   0.830 -0.5149 -0.0757  0.0721
 1013TIP3   OH224597   0.606   4.402   1.089  0.3665 -0.2585 -0.3968
 1013TIP3    H124598   0.647   4.337   1.032 -0.0776  0.4354 -1.5492
 1013TIP3    H224599   0.626   4.486   1.047 -0.7769  0.2072 -0.0589
 1014TIP3   OH224600   3.384   0.651   7.120  0.0861 -0.0700  0.4302
 1014TIP3    H124601   3.290   0.650   7.135  0.0584 -0.0366  0.2533
 1014TIP3    H224602   3.401   0.574   7.066  0.1744 -0.1334  0.5471
 1015TIP3   OH224603   6.170   4.453   8.116  0.2276 -0.3718 -0.0752
 1015TIP3    H124604   6.180   4.369   8.162 -3.1512  0.3452  2.3739
 1015TIP3    H224605   6.088   4.443   8.067  0.7689  0.8812 -1.2792
 1016TIP3   OH224606   6.497   2.204   0.805  0.5054  0.4640  0.4195
 1016TIP3    H124607   6.544   2.273   0.760 -2.3561  2.9287  0.8978
 1016TIP3    H224608   6.484   2.238   0.894  0.0018 -1.1926  1.0170
 1017TIP3   OH224609   6.522   2.162   2.044  0.0921 -0.4371  0.0292
 1017TIP3    H124610   6.428   2.144   2.037 -0.0988  0.0675  1.0980
 1017TIP3    H224611   6.551   2.111   2.120  0.6433 -0.4406 -0.1782
 1018TIP3   OH224612   5.409   6.734   2.348 -0.2765 -0.3107 -0.0796
 1018TIP3    H124613   5.359   6.804   2.307 -0.6293  0.1153  1.0374
 1018TIP3    H224614   5.478   6.779   2.397  2.2981 -0.9078 -2.8394
 1019TIP3   OH224615   3.700   3.217   2.476 -0.1755 -0.1633  0.2771
 1019TIP3    H124616   3.621   3.216   2.421 -0.6257  1.6264  0.8551
 1019TIP3    H224617   3.772   3.227   2.413 -0.3082 -2.3015 -0.3001
 1020TIP3   OH224618   6.346   3.564   6.940  0.0587  0.0263  0.4384
 1020TIP3    H124619   6.361   3.658   6.950 -0.1052 -0.0770  1.9296
 1020TIP3    H224620   6.251   3.554   6.940  0.0773 -0.2087  1.2174
 1021TIP3   OH224621   5.815   6.653   7.581  0.2641 -0.4016 -0.4054
 1021TIP3    H124622   5.838   6.560   7.587 -0.6567 -0.5700  0.9650
 1021TIP3    H224623   5.888   6.698   7.624 -0.1267 -0.6552  0.5651
 1022TIP3   OH224624   3.472   5.052   7.860  0.5256  0.1499  0.1538
 1022TIP3    H124625   3.473   5.095   7.775  0.9529  2.3359  1.2003
 1022TIP3    H224626   3.381   5.026   7.873  0.4929 -0.3843 -1.0268
 1023TIP3   OH224627   4.231   5.520   0.079 -0.2287 -0.2082 -0.0974
 1023TIP3    H124628   4.139   5.529   0.106 -0.3339 -1.9120  0.2177
 1023TIP3    H224629   4.232   5.550  -0.012 -0.9272  0.5645  0.1276
 1024TIP3   OH224630   0.834   3.027   8.500  0.0025 -0.0152 -0.0335
 1024TIP3    H124631   0.851   3.053   8.591 -0.7476  0.6062 -0.0617
 1024TIP3    H224632   0.917   3.042   8.455  0.9431 -2.0448  0.8973
 1025TIP3   OH224633   6.595   3.260   7.801  0.0899  0.2337  0.3014
 1025TIP3    H124634   6.520   3.210   7.769  0.3783 -0.3708  0.5635
 1025TIP3    H224635   6.609   3.328   7.735  0.4780 -0.7854 -0.6878
 1026TIP3   OH224636   5.339   3.874   0.393  0.0092 -1.0637 -0.6033
 1026TIP3    H124637   5.327   3.786   0.427 -4.8040 -0.8454 -0.9389
 1026TIP3    H224638   5.328   3.931   0.469 -0.2393 -0.7586 -0.8593
 1027TIP3   OH224639   4.834   0.777   8.426 -0.0763 -0.2937 -0.0081
 1027TIP3    H124640   4.912   0.814   8.469 -0.1053  0.9343 -0.9605
 1027TIP3    H224641   4.807   0.705   8.484  1.7215 -0.7125  0.3795
 1028TIP3   OH224642   4.309   0.023   1.176 -0.4546 -1.0596  0.1985
 1028TIP3    H124643   4.277   0.082   1.244  2.5881  1.5459 -0.3840
 1028TIP3    H224644   4.245   0.030   1.105 -1.7451 -0.9288  1.3332
 1029TIP3   OH224645   3.279   0.166   7.033 -0.7778  0.5729  0.1206
 1029TIP3    H124646   3.224   0.222   7.087 -3.5293 -3.0027  1.3811
 1029TIP3    H224647   3.357   0.151   7.086  0.7851  4.1035 -0.8620
 1030TIP3   OH224648   4.349   1.987   7.749 -0.2933 -0.7626  0.2465
 1030TIP3    H124649   4.256   1.974   7.733 -0.3118 -0.1933 -0.1365
 1030TIP3    H224650   4.374   2.059   7.691  0.3044 -0.6699  0.6050
 1031TIP3   OH224651   1.299   3.524   8.653  0.0093 -0.2790 -0.4159
 1031TIP3    H124652   1.267   3.527   8.744  1.5415  0.1734  0.1454
 1031TIP3    H224653   1.385   3.565   8.657  0.8367 -1.7676 -1.7806
 1032TIP3   OH224654   4.215   2.763   8.151  0.1501 -0.4990 -0.6376
 1032TIP3    H124655   4.169   2.723   8.077 -1.1596  0.3081 -0.2970
 1032TIP3    H224656   4.249   2.689   8.201  2.6326 -1.0842 -2.9110
 1033TIP3   OH224657   5.416   1.886   0.353 -0.0775  0.1468 -0.1169
 1033TIP3    H124658   5.414   1.855   0.263 -0.1815 -1.3356  0.3645
 1033TIP3    H224659   5.383   1.812   0.405  0.7164  0.6751  1.2089
 1034TIP3   OH224660   5.394   1.054   2.481 -0.2778  0.3300 -0.1585
 1034TIP3    H124661   5.439   1.134   2.510  0.2819  0.7613 -2.0493
 1034TIP3    H224662   5.465   0.996   2.453 -0.7450 -0.3841  0.1059
 1035TIP3   OH224663   2.013   5.019   0.503 -0.5333  0.3456  1.2989
 1035TIP3    H124664   2.035   5.096   0.450 -1.0612  0.1231  0.7360
 1035TIP3    H224665   1.928   5.039   0.541 -0.0162  0.6239  2.3177
 1036TIP3   OH224666   2.560   2.929   8.362 -0.2178  0.0076 -0.5358
 1036TIP3    H124667   2.531   2.921   8.271 -1.1154  1.5414 -0.4115
 1036TIP3    H224668   2.482   2.910   8.414  0.0992 -0.0993 -0.0936
 1037TIP3   OH224669   3.339   2.032   1.209 -0.5781 -0.3395 -0.2384
 1037TIP3    H124670   3.287   2.090   1.154 -1.1225  0.2639  0.9087
 1037TIP3    H224671   3.368   1.963   1.149 -1.1699  0.2953 -1.2799
 1038TIP3   OH224672   4.090   5.371   8.014  0.4484 -0.3507  0.7145
 1038TIP3    H124673   4.131   5.342   7.932  0.8986  0.5647  0.6097
 1038TIP3    H224674   4.012   5.419   7.986 -1.7013 -3.4013  0.9325
 1039TIP3   OH224675   3.170   2.325   8.525  0.4003 -0.3548 -0.0117
 1039TIP3    H124676   3.256   2.284   8.519 -0.0116 -1.1194 -1.2975
 1039TIP3    H224677   3.188   2.418   8.536  1.4126 -0.3991 -1.1208
 1040TIP3   OH224678   5.246   5.026   2.341  0.1460 -0.1738  0.0856
 1040TIP3    H124679   5.267   5.119   2.328  1.8232 -0.2650  1.8502
 1040TIP3    H224680   5.282   5.004   2.426 -1.0678 -2.2408  0.1399
 1041TIP3   OH224681   2.473   2.273   8.302 -0.4820 -0.2681  0.2258
 1041TIP3    H124682   2.554   2.226   8.282 -1.3755 -3.5061  3.2318
 1041TIP3    H224683   2.415   2.253   8.228  0.4869 -0.4593 -0.4952
 1042TIP3   OH224684   5.743   4.004   2.060 -0.2013  0.1307 -0.0930
 1042TIP3    H124685   5.655   4.012   2.024 -0.2441 -1.4607 -0.3940
 1042TIP3    H224686   5.738   4.044   2.147 -1.6185 -1.3060  0.5202
 1043TIP3   OH224687   5.351   3.516   0.838  0.3493  0.2094  0.7816
 1043TIP3    H124688   5.352   3.423   0.860  1.6832  0.3081  1.2537
 1043TIP3    H224689   5.418   3.525   0.770  0.4600  0.8716  0.9659
 1044TIP3   OH224690   5.420   2.972   8.494 -0.5612  0.6033  0.3337
 1044TIP3    H124691   5.380   3.038   8.551  0.3673 -0.4171  2.2557
 1044TIP3    H224692   5.504   2.952   8.535  0.7317  0.6797 -2.0914
 1045TIP3   OH224693   5.609   4.966   0.234 -0.1753  0.0176  0.0843
 1045TIP3    H124694   5.578   4.977   0.144  0.4315 -0.1981 -0.1552
 1045TIP3    H224695   5.617   5.055   0.268  0.5677  0.1547 -0.4173
 1046TIP3   OH224696   3.358   4.110   2.061 -0.0410 -0.4191 -0.2682
 1046TIP3    H124697   3.298   4.160   2.006 -0.1633 -1.2243 -0.8807
 1046TIP3    H224698   3.316   4.109   2.147  0.2564  1.0248 -0.0764
 1047TIP3   OH224699   4.720   5.757   8.220 -0.1307 -0.1517 -0.0679
 1047TIP3    H124700   4.757   5.818   8.155  0.9947 -1.3945 -0.6307
 1047TIP3    H224701   4.689   5.814   8.290  1.3477  1.0718 -0.3446
 1048TIP3   OH224702   0.473   1.777   1.181 -0.3728  0.0450  0.2415
 1048TIP3    H124703   0.524   1.829   1.118 -0.1091  1.0483  1.2428
 1048TIP3    H224704   0.453   1.696   1.135 -1.3410  1.2655 -1.6175
 1049TIP3   OH224705   4.038   0.390   1.908  0.1074 -1.0271 -0.0890
 1049TIP3    H124706   3.953   0.362   1.944 -0.2455 -1.3319 -1.1196
 1049TIP3    H224707   4.102   0.362   1.974 -0.6285 -0.2835  0.9785
 1050TIP3   OH224708   3.411   0.925   1.457 -0.0733 -0.6009  0.5512
 1050TIP3    H124709   3.384   1.012   1.428  0.6817 -0.8616 -1.0339
 1050TIP3    H224710   3.348   0.902   1.526 -2.2681 -0.1146 -1.1708
 1051TIP3   OH224711   4.147   0.271   2.153 -0.5653 -0.3856  0.2555
 1051TIP3    H124712   4.071   0.319   2.186 -1.1886 -0.3208 -1.2112
 1051TIP3    H224713   4.140   0.184   2.192 -0.6272  0.0340  1.2078
 1052TIP3   OH224714   2.911   0.426   0.698 -0.1318  0.0141  0.4433
 1052TIP3    H124715   2.980   0.462   0.754 -0.0975  0.2094  0.2746
 1052TIP3    H224716   2.834   0.420   0.756 -0.4164  1.2818  0.2275
 1053TIP3   OH224717   5.389   4.842   1.069 -0.5957 -0.1490  0.2212
 1053TIP3    H124718   5.407   4.748   1.077 -1.2943 -0.4122 -1.0680
 1053TIP3    H224719   5.447   4.872   0.999 -0.6355  0.3144  0.3808
 1054TIP3   OH224720   4.410   5.567   1.051  0.2307 -0.6136 -0.2996
 1054TIP3    H124721   4.343   5.582   0.984 -0.1561  1.4407  0.4734
 1054TIP3    H224722   4.429   5.654   1.086  2.5138 -1.2788  0.2966
 1055TIP3   OH224723   1.106   1.195   7.131  0.8926 -0.5102  0.2788
 1055TIP3    H124724   1.195   1.166   7.148  1.1746 -0.0280 -0.3683
 1055TIP3    H224725   1.079   1.147   7.053  1.3509  0.8975 -0.7871
 1056TIP3   OH224726   3.608   0.571   0.570 -0.1424  0.1353 -0.1090
 1056TIP3    H124727   3.599   0.521   0.489 -1.1129 -0.7079  0.4916
 1056TIP3    H224728   3.524   0.617   0.579 -0.0442  0.2239  0.4127
 1057TIP3   OH224729   6.330   3.767   2.308  0.1265 -0.2006 -0.1072
 1057TIP3    H124730   6.260   3.812   2.261  1.1507 -0.0143 -1.5357
 1057TIP3    H224731   6.383   3.727   2.239  1.6216 -0.0324  0.8950
 1058TIP3   OH224732   5.655   1.021   0.822  0.4926  0.2084  0.3396
 1058TIP3    H124733   5.691   0.952   0.766 -1.3301 -1.0271  0.6248
 1058TIP3    H224734   5.666   0.988   0.911  0.0910  0.5218  0.5091
 1059TIP3   OH224735   2.623   1.466   0.980 -0.2146 -0.6328  0.1403
 1059TIP3    H124736   2.580   1.441   1.062  1.3658 -0.1334  1.1739
 1059TIP3    H224737   2.623   1.386   0.927 -1.0803 -1.0234  0.7141
 1060TIP3   OH224738   2.025   1.977   8.571 -0.0198  0.1656 -0.4578
 1060TIP3    H124739   2.018   1.972   8.667  2.6772 -1.1079 -0.2239
 1060TIP3    H224740   1.964   1.910   8.539  0.4257 -0.7363  0.5038
 1061TIP3   OH224741   4.923   1.665   2.018  0.4576 -0.2368  0.1372
 1061TIP3    H124742   4.862   1.725   1.975  2.4005  0.4699 -1.7970
 1061TIP3    H224743   4.986   1.722   2.062  1.0806 -0.9151  0.1374
 1062TIP3   OH224744   4.442   2.957   2.166  0.1540  0.1863  0.4032
 1062TIP3    H124745   4.372   2.969   2.230  0.9852 -1.3073  1.6603
 1062TIP3    H224746   4.472   3.046   2.147 -0.6311  0.7051  1.4821
 1063TIP3   OH224747   5.643   0.912   1.077  0.3678 -0.1638 -0.0728
 1063TIP3    H124748   5.605   0.824   1.073 -0.4298  0.2154 -1.6072
 1063TIP3    H224749   5.703   0.909   1.152  0.2130 -1.9503  0.0195
 1064TIP3   OH224750   6.077   3.690   0.526 -0.3011 -0.3577  0.0896
 1064TIP3    H124751   6.082   3.602   0.489  1.5149  0.0447 -0.7082
 1064TIP3    H224752   6.029   3.679   0.608 -0.3852 -2.0226 -0.1547
 1065TIP3   OH224753   4.118   5.044   8.410  0.3444 -0.5782  0.1232
 1065TIP3    H124754   4.200   5.017   8.368  0.5021 -0.7195  0.5225
 1065TIP3    H224755   4.086   5.116   8.355 -0.7059 -2.3317 -1.6823
 1066TIP3   OH224756   0.193   3.125   8.629  0.4220  0.0821 -0.0880
 1066TIP3    H124757   0.175   3.143   8.536 -0.0713  0.8848  0.1542
 1066TIP3    H224758   0.107   3.120   8.669  0.6489  0.4474  0.4555
 1067TIP3   OH224759   0.865   4.552   1.860 -0.4174 -0.1378  0.3214
 1067TIP3    H124760   0.890   4.463   1.836  2.0847  0.0533  1.8526
 1067TIP3    H224761   0.812   4.542   1.939  1.2483 -0.3027  1.4952
 1068TIP3   OH224762   4.494   5.979   8.674 -0.3662 -0.2323 -0.3025
 1068TIP3    H124763   4.424   6.018   8.622  0.5822  0.2541 -1.2460
 1068TIP3    H224764   4.451   5.952   8.755 -1.8906 -1.0768 -1.3491
 1069TIP3   OH224765   6.304   6.396   7.782  0.1807  0.7827 -0.0613
 1069TIP3    H124766   6.355   6.465   7.823  1.3136  0.7511 -1.3556
 1069TIP3    H224767   6.337   6.391   7.692 -0.2233 -1.0857 -0.1561
 1070TIP3   OH224768   4.896   5.654   1.953  1.2959  0.1966  0.3371
 1070TIP3    H124769   4.889   5.709   1.875 -0.2665  1.1861  1.1248
 1070TIP3    H224770   4.907   5.565   1.918  0.9114  0.6470 -1.0072
 1071TIP3   OH224771   0.754   3.665   1.974  0.2401  0.3823  0.5136
 1071TIP3    H124772   0.849   3.670   1.979  0.3058 -0.4679  0.1847
 1071TIP3    H224773   0.730   3.734   1.912  0.7677 -0.3529 -0.5331
 1072TIP3   OH224774   0.043   4.390   7.598  0.1836 -0.1866 -0.1808
 1072TIP3    H124775   0.120   4.446   7.599 -0.5255  0.8057  0.4536
 1072TIP3    H224776   0.078   4.301   7.595  1.3290  0.2666 -2.8794
 1073TIP3   OH224777   5.469   4.160   8.029  0.1130  0.0506  0.0906
 1073TIP3    H124778   5.530   4.112   8.085  0.1612 -1.4434 -1.1783
 1073TIP3    H224779   5.525   4.211   7.971  0.1308 -0.2976 -0.2009
 1074TIP3   OH224780   1.348   1.548   1.425  0.5665  0.0235  0.2775
 1074TIP3    H124781   1.272   1.588   1.383  2.1240  2.8354 -0.1528
 1074TIP3    H224782   1.345   1.456   1.400 -2.0232  0.2968 -0.6698
 1075TIP3   OH224783   2.081   2.371   1.828  0.4571  0.3164 -0.3926
 1075TIP3    H124784   1.993   2.335   1.818  1.5525 -2.5064 -0.6195
 1075TIP3    H224785   2.102   2.357   1.920  1.1759 -0.2844 -0.6448
 1076TIP3   OH224786   3.675   2.632   1.881  0.0025  0.0245 -0.4681
 1076TIP3    H124787   3.743   2.581   1.925  1.4198  0.0555 -2.4855
 1076TIP3    H224788   3.619   2.663   1.952  2.9883  1.3734  1.5522
 1077TIP3   OH224789   0.918   0.520   1.045 -0.9290 -0.4301 -0.7534
 1077TIP3    H124790   0.875   0.542   0.962 -2.5133  0.4619  0.2726
 1077TIP3    H224791   0.952   0.603   1.077  2.5622 -1.1792 -1.9468
 1078TIP3   OH224792   6.704   5.982   0.083 -0.0464 -0.4185  0.8652
 1078TIP3    H124793   6.642   6.029   0.140  0.3345 -0.0530  0.9857
 1078TIP3    H224794   6.734   6.049   0.021 -0.7099 -0.8872  0.0107
 1079TIP3   OH224795   5.914   3.020   2.124 -0.8293  0.1161 -0.2220
 1079TIP3    H124796   5.980   3.083   2.155 -1.0487 -0.4741  1.5332
 1079TIP3    H224797   5.919   3.026   2.028 -0.8868  2.8506 -0.1533
 1080TIP3   OH224798   4.778   0.259   2.861 -0.0045 -0.2805  0.2605
 1080TIP3    H124799   4.772   0.168   2.888  0.4102 -0.5062 -0.3756
 1080TIP3    H224800   4.712   0.305   2.913  1.0906 -0.6045  1.9971
 1081TIP3   OH224801   0.231   0.891   8.711  0.4108  0.2492 -0.1760
 1081TIP3    H124802   0.315   0.851   8.733  0.2632  0.2114  0.3191
 1081TIP3    H224803   0.252   0.984   8.700  0.6140  0.1581 -0.5882
 1082TIP3   OH224804   1.734   4.158   6.563 -0.0123  0.2174  0.4548
 1082TIP3    H124805   1.806   4.100   6.589  0.7666  1.0135  0.1018
 1082TIP3    H224806   1.662   4.098   6.543  0.6616 -0.6160  0.4580
 1083TIP3   OH224807   6.171   6.382   1.545  0.2181 -0.1077  0.2875
 1083TIP3    H124808   6.218   6.389   1.462 -0.4892 -1.9058 -0.3093
 1083TIP3    H224809   6.094   6.437   1.533  0.6347  0.4553  0.1484
 1084TIP3   OH224810   3.067   6.701   0.891  0.2772  0.2554  0.2043
 1084TIP3    H124811   3.152   6.690   0.933  0.3501  0.1070  0.0177
 1084TIP3    H224812   3.055   6.796   0.884  1.6751  0.3337 -2.2635
 1085TIP3   OH224813   4.820   2.802   8.610  0.2530  0.4092  0.1872
 1085TIP3    H124814   4.811   2.849   8.693  2.6300 -0.1635  0.8609
 1085TIP3    H224815   4.751   2.736   8.612 -2.6709  3.2519 -0.4484
 1086TIP3   OH224816   6.256   5.961   1.614  0.0952 -0.6148 -0.0131
 1086TIP3    H124817   6.310   6.024   1.662  1.4155  0.4016 -2.6291
 1086TIP3    H224818   6.167   5.997   1.617  0.4831  0.3401  0.1799
 1087TIP3   OH224819   5.934   0.627   0.473  0.0422  0.6023 -0.0821
 1087TIP3    H124820   5.976   0.549   0.437  0.0206  1.1047 -1.2338
 1087TIP3    H224821   6.005   0.675   0.516  0.2152  0.3598 -0.0969
 1088TIP3   OH224822   5.098   3.688   0.002  0.1994  0.2960 -0.4818
 1088TIP3    H124823   5.031   3.753  -0.018  0.2855  0.8864  1.0134
 1088TIP3    H224824   5.068   3.646   0.082  0.5908 -0.8980 -0.9384
 1089TIP3   OH224825   5.327   0.473   8.551  0.5235 -0.1126 -0.4000
 1089TIP3    H124826   5.392   0.523   8.599  0.7667  0.3467 -1.2028
 1089TIP3    H224827   5.297   0.531   8.481 -1.6378  0.1489  0.6610
 1090TIP3   OH224828   2.716   5.751   2.162 -0.0337 -0.4814 -0.0780
 1090TIP3    H124829   2.727   5.679   2.223 -0.1376 -0.4848 -0.0634
 1090TIP3    H224830   2.647   5.805   2.200  0.7006  0.1475  0.4115
 1091TIP3   OH224831   4.660   1.988   7.661  0.5513 -0.1735  0.7452
 1091TIP3    H124832   4.699   1.940   7.587  3.2768  0.1165  1.8818
 1091TIP3    H224833   4.582   2.030   7.623  0.8706 -1.4296 -1.5102
 1092TIP3   OH224834   0.296   1.386   7.052 -0.0428 -0.0843 -0.0161
 1092TIP3    H124835   0.241   1.329   7.106  0.2864 -1.0205 -0.6559
 1092TIP3    H224836   0.235   1.428   6.992  0.0970 -2.8899 -2.3343
 1093TIP3   OH224837   4.078   0.384   8.019 -0.5097 -0.0893  0.2342
 1093TIP3    H124838   4.166   0.398   7.983 -0.4404  0.2817  0.5356
 1093TIP3    H224839   4.091   0.382   8.114 -0.5163 -2.3454  0.2370
 1094TIP3   OH224840   0.446   0.070   1.816  0.1962  0.0454  0.3933
 1094TIP3    H124841   0.429   0.087   1.724  0.7126  0.0340  0.2893
 1094TIP3    H224842   0.360   0.055   1.855 -0.0385  0.2346 -0.0484
 1095TIP3   OH224843   4.705   4.814   0.960 -0.3170  0.4893  0.2641
 1095TIP3    H124844   4.657   4.767   0.892  1.9470 -0.9382 -0.4424
 1095TIP3    H224845   4.642   4.824   1.031 -1.7427 -1.0122 -0.7181
 1096TIP3   OH224846   4.469   1.997   8.390  0.0190 -0.1813  0.6059
 1096TIP3    H124847   4.543   2.058   8.388 -1.0022  1.0954  0.6792
 1096TIP3    H224848   4.414   2.024   8.317 -0.0323 -1.5985  0.0927
 1097TIP3   OH224849   0.523   1.659   0.879  0.2203  0.1407  0.1267
 1097TIP3    H124850   0.529   1.627   0.789 -0.0529 -0.4746  0.3177
 1097TIP3    H224851   0.604   1.629   0.920 -1.0100 -2.4346  0.9380
 1098TIP3   OH224852   2.882   4.195   0.432 -0.3702  0.0070  0.4057
 1098TIP3    H124853   2.837   4.132   0.376  0.4682  0.3872 -0.7380
 1098TIP3    H224854   2.946   4.143   0.481  0.8095  0.0245 -1.0517
 1099TIP3   OH224855   1.844   4.893   0.244 -0.5127  0.6386 -0.0185
 1099TIP3    H124856   1.934   4.861   0.247 -0.4185  0.8395 -0.5402
 1099TIP3    H224857   1.844   4.958   0.174 -1.1201  0.4679 -0.1878
 1100TIP3   OH224858   1.918   0.368   7.412 -0.0897  0.3993  0.7044
 1100TIP3    H124859   2.001   0.398   7.374  1.4018 -1.7170  2.0268
 1100TIP3    H224860   1.851   0.409   7.359  1.8201  1.1884 -1.2581
 1101TIP3   OH224861   1.287   5.521   7.995 -0.2830 -0.1421  0.8520
 1101TIP3    H124862   1.339   5.580   7.941 -2.6193  0.8678 -0.4831
 1101TIP3    H224863   1.342   5.501   8.070  1.2252  2.4762  0.5486
 1102TIP3   OH224864   6.296   3.479   2.554  0.0965  0.3831  0.0437
 1102TIP3    H124865   6.274   3.549   2.616  0.8008  0.7329 -0.1028
 1102TIP3    H224866   6.377   3.442   2.588 -0.6067 -0.8170  0.4990
 1103TIP3   OH224867   4.337   1.826   2.763  0.0941  0.4685  0.0459
 1103TIP3    H124868   4.250   1.791   2.743  0.9721 -1.0162 -1.4340
 1103TIP3    H224869   4.320   1.916   2.793 -1.9594  0.0788  0.2339
 1104TIP3   OH224870   2.522   1.844   8.222 -0.1144 -0.1024  0.0326
 1104TIP3    H124871   2.521   1.940   8.231  0.0326  0.0425 -1.3081
 1104TIP3    H224872   2.614   1.821   8.218 -0.1090 -0.4581  1.6126
 1105TIP3   OH224873   5.514   6.298   1.955  0.0038 -0.1928  0.2002
 1105TIP3    H124874   5.546   6.363   1.893 -0.5739  0.2907  0.4024
 1105TIP3    H224875   5.418   6.307   1.953 -0.0440 -0.4812  0.8260
 1106TIP3   OH224876   3.541   2.726   1.514 -0.4149 -0.5619 -0.3075
 1106TIP3    H124877   3.627   2.723   1.473 -0.0511 -1.6148  0.4868
 1106TIP3    H224878   3.550   2.790   1.584 -0.5321 -0.0512 -0.7528
 1107TIP3   OH224879   4.624   4.144   1.985  0.3788  0.2891  0.3850
 1107TIP3    H124880   4.531   4.130   1.966  0.6672 -1.8391  0.3420
 1107TIP3    H224881   4.627   4.232   2.023 -2.0991 -0.6878  3.2348
 1108TIP3   OH224882   5.693   1.587   7.640 -0.8955 -0.5183 -0.2623
 1108TIP3    H124883   5.657   1.503   7.669  0.9380 -1.3660 -0.3420
 1108TIP3    H224884   5.749   1.565   7.565 -0.6847  0.8304 -0.5220
 1109TIP3   OH224885   1.926   6.767   2.011 -0.5868 -0.1834 -0.1060
 1109TIP3    H124886   1.877   6.849   2.011  1.3241  1.0103 -0.6877
 1109TIP3    H224887   1.999   6.782   1.951  1.3483 -1.3408  1.8168
 1110TIP3   OH224888   5.436   4.310   0.348 -0.3618 -0.0870  0.0041
 1110TIP3    H124889   5.461   4.224   0.316 -0.6116  0.3763 -1.5085
 1110TIP3    H224890   5.462   4.310   0.440  0.8753 -1.2899 -0.3174
 1111TIP3   OH224891   0.282   2.620   0.857  0.2107 -0.2496  0.4185
 1111TIP3    H124892   0.316   2.709   0.858 -0.3458  0.0852 -2.3518
 1111TIP3    H224893   0.355   2.566   0.827 -0.5373 -0.0870 -1.8206
 1112TIP3   OH224894   1.126   4.454   0.996  0.2764 -0.6556 -0.0424
 1112TIP3    H124895   1.175   4.506   1.059  0.1612 -1.5561  0.8117
 1112TIP3    H224896   1.034   4.474   1.014  0.2753  0.1111 -0.8381
 1113TIP3   OH224897   1.994   5.737   7.504  0.3146  0.1619  0.0951
 1113TIP3    H124898   2.036   5.785   7.432 -0.2881 -0.0529 -0.4100
 1113TIP3    H224899   2.046   5.656   7.511  0.6828  0.4101  0.2381
 1114TIP3   OH224900   2.831   3.197   1.521 -0.5023  0.0051  0.0510
 1114TIP3    H124901   2.819   3.292   1.527 -1.7041 -0.0746 -0.6430
 1114TIP3    H224902   2.878   3.173   1.600 -0.1718  1.1823  0.2311
 1115TIP3   OH224903   6.718   0.579   7.366  0.1608  0.0795 -0.0937
 1115TIP3    H124904   6.770   0.562   7.444  0.7711  1.1404 -0.2551
 1115TIP3    H224905   6.756   0.522   7.299 -1.6258 -2.3852  0.7967
 1116TIP3   OH224906   3.630   3.260   0.615 -0.4106 -0.3645  0.0333
 1116TIP3    H124907   3.689   3.186   0.627 -1.0356 -0.8477  0.2235
 1116TIP3    H224908   3.667   3.309   0.542 -0.0016 -0.8793 -0.1141
 1117TIP3   OH224909   2.025   0.753   1.494  0.4649  0.4465 -0.5645
 1117TIP3    H124910   1.964   0.827   1.498  0.1155  0.2132 -1.4377
 1117TIP3    H224911   2.111   0.792   1.514  0.0624  0.7888  0.5672
 1118TIP3   OH224912   5.723   5.082   8.071  0.2583 -0.2657 -0.4066
 1118TIP3    H124913   5.722   5.009   8.009  0.9181 -1.2197  0.6727
 1118TIP3    H224914   5.812   5.082   8.107 -0.5680 -0.8953  1.8259
 1119TIP3   OH224915   1.131   5.865   1.465  0.2843  0.6378 -0.1434
 1119TIP3    H124916   1.106   5.923   1.393 -0.3574 -1.0816 -1.3674
 1119TIP3    H224917   1.051   5.853   1.515 -0.4818 -1.6731 -1.7580
 1120TIP3   OH224918   2.370   1.587   7.722  0.4733  0.4561 -0.0955
 1120TIP3    H124919   2.332   1.672   7.703 -0.4785  0.2004  0.5679
 1120TIP3    H224920   2.388   1.548   7.637 -2.6229 -0.2099 -0.5299
 1121TIP3   OH224921   1.355   3.215   8.282 -0.9754  0.3651 -0.0242
 1121TIP3    H124922   1.405   3.272   8.223 -2.3881 -0.1844 -1.8380
 1121TIP3    H224923   1.305   3.276   8.337 -0.4975  0.8905 -0.1636
 1122TIP3   OH224924   2.635   6.671   0.893 -0.3351 -0.6011 -0.4394
 1122TIP3    H124925   2.688   6.593   0.877 -0.4960 -0.7616 -0.1969
 1122TIP3    H224926   2.698   6.743   0.889 -0.5025 -0.5310 -2.6290
 1123TIP3   OH224927   1.046   1.360   1.465  0.7088  0.1366  0.2637
 1123TIP3    H124928   1.119   1.329   1.519  0.7751  1.4241  0.9666
 1123TIP3    H224929   0.968   1.341   1.518  0.5569 -0.7969 -0.2738
 1124TIP3   OH224930   3.586   1.503   0.241  0.0936  0.0770  0.1928
 1124TIP3    H124931   3.602   1.551   0.322 -0.9053  1.6562 -0.5012
 1124TIP3    H224932   3.501   1.461   0.254 -1.6358  2.8997 -1.0960
 1125TIP3   OH224933   5.086   2.620   8.141  0.3760  0.3474 -0.1456
 1125TIP3    H124934   5.089   2.714   8.124 -1.4857  0.2914 -0.9782
 1125TIP3    H224935   5.117   2.580   8.060 -0.5859  0.2192 -0.4542
 1126TIP3   OH224936   2.632   6.330   0.285 -0.1340  0.3923  0.1458
 1126TIP3    H124937   2.624   6.366   0.373 -1.9584 -1.4513  0.8115
 1126TIP3    H224938   2.542   6.309   0.259  0.3992  0.5084 -2.0158
 1127TIP3   OH224939   5.666   3.378   1.954 -0.2316  0.8226 -0.1417
 1127TIP3    H124940   5.733   3.397   1.887 -1.3230  2.0310 -0.9476
 1127TIP3    H224941   5.642   3.464   1.988 -1.6765  0.4627 -0.1865
 1128TIP3   OH224942   6.197   0.248   0.450  0.6715 -0.2986 -0.1371
 1128TIP3    H124943   6.151   0.273   0.530  1.8715  0.2156  0.4155
 1128TIP3    H224944   6.274   0.200   0.480  0.4683 -1.2263 -1.0432
 1129TIP3   OH224945   0.187   2.698   2.828  0.0689  0.9501 -0.2937
 1129TIP3    H124946   0.171   2.684   2.734 -0.3268  0.9349 -0.2272
 1129TIP3    H224947   0.211   2.611   2.861  0.8464  1.0803 -0.5002
 1130TIP3   OH224948   0.614   0.542   2.294  0.0668 -0.2530 -0.1142
 1130TIP3    H124949   0.675   0.470   2.309  0.6912 -0.1304 -1.9410
 1130TIP3    H224950   0.618   0.559   2.200 -0.2592  2.0102  0.2283
 1131TIP3   OH224951   0.280   0.205   2.155  0.4875  0.2472 -0.0578
 1131TIP3    H124952   0.375   0.215   2.166  0.4292  1.4724 -0.5231
 1131TIP3    H224953   0.249   0.176   2.241  1.3214 -0.6055 -0.0179
 1132TIP3   OH224954   1.490   0.401   6.902  0.1715 -0.1277 -0.1357
 1132TIP3    H124955   1.574   0.406   6.857 -0.6843  0.5306 -1.7642
 1132TIP3    H224956   1.508   0.429   6.991  1.3915  1.5770 -0.8617
 1133TIP3   OH224957   2.391   6.441   8.666 -0.7368  0.2680 -0.1955
 1133TIP3    H124958   2.343   6.359   8.659 -1.9788  0.9188  0.2382
 1133TIP3    H224959   2.379   6.467   8.758  1.0653  0.1084  0.1161
 1134TIP3   OH224960   0.211   0.662   7.782 -0.1589 -0.3990  0.0805
 1134TIP3    H124961   0.256   0.671   7.699  1.2877 -2.8623  0.5211
 1134TIP3    H224962   0.263   0.599   7.832 -0.7208  1.2738  3.0573
 1135TIP3   OH224963   6.354   3.877   7.547 -0.3654  0.1019  0.0542
 1135TIP3    H124964   6.300   3.955   7.558  1.6506  2.0874 -2.7403
 1135TIP3    H224965   6.315   3.830   7.474 -0.7956 -0.8521  0.8711
 1136TIP3   OH224966   3.504   4.091   1.363 -0.6575  0.3771 -0.5985
 1136TIP3    H124967   3.586   4.094   1.412  0.3745  0.7012 -2.2401
 1136TIP3    H224968   3.473   4.002   1.372 -0.9565  0.6478  1.3156
 1137TIP3   OH224969   1.793   5.145   1.386  0.7467  0.1986  0.2289
 1137TIP3    H124970   1.820   5.184   1.468  1.5225  0.7268 -0.2659
 1137TIP3    H224971   1.798   5.217   1.322 -0.1984 -0.1065 -0.2071
 1138TIP3   OH224972   4.506   2.013   0.294 -0.0510  0.1519 -0.1480
 1138TIP3    H124973   4.486   2.058   0.212 -2.2220 -2.2427 -1.0869
 1138TIP3    H224974   4.487   1.921   0.276  1.7188 -0.8401  2.3775
 1139TIP3   OH224975   6.423   4.955   0.335 -0.3410 -0.2444 -0.4175
 1139TIP3    H124976   6.353   5.011   0.301 -1.3301 -0.9064  0.4798
 1139TIP3    H224977   6.385   4.868   0.336 -0.4684 -0.2526  2.5426
 1140TIP3   OH224978   6.770   4.992   1.355 -0.2503  0.2277  0.5676
 1140TIP3    H124979   6.830   4.918   1.354  0.0094  0.4245  1.4506
 1140TIP3    H224980   6.811   5.057   1.298 -0.4423 -0.2625 -0.1513
 1141TIP3   OH224981   1.076   2.615   0.473  0.3457 -0.0894  0.2020
 1141TIP3    H124982   1.152   2.559   0.459 -0.5304 -0.8779 -1.7257
 1141TIP3    H224983   1.069   2.667   0.393 -0.8011  0.4212  0.6050
 1142TIP3   OH224984   3.512   6.299   2.079 -0.7490 -0.1948  0.6345
 1142TIP3    H124985   3.444   6.358   2.113 -1.6884 -0.5624 -0.5445
 1142TIP3    H224986   3.571   6.355   2.030 -1.2144 -0.1045  0.1639
 1143TIP3   OH224987   5.531   4.086   7.732  0.0572 -0.0647 -0.2076
 1143TIP3    H124988   5.611   4.045   7.765  1.5976  0.9813 -2.4101
 1143TIP3    H224989   5.530   4.173   7.771  0.5583  0.2747 -0.9208
 1144TIP3   OH224990   2.789   4.793   0.466 -0.1380 -0.2454  0.3070
 1144TIP3    H124991   2.816   4.883   0.451 -0.5896 -0.3914 -1.6995
 1144TIP3    H224992   2.859   4.740   0.429 -0.7869 -0.6672 -0.3620
 1145TIP3   OH224993   0.704   6.233   7.160  0.0574  0.5701 -0.6932
 1145TIP3    H124994   0.698   6.138   7.162  0.7589  0.5281 -0.4042
 1145TIP3    H224995   0.708   6.255   7.067 -1.9672  0.4569 -0.8521
 1146TIP3   OH224996   3.866   1.454   2.401 -0.4350 -0.2276 -0.5720
 1146TIP3    H124997   3.866   1.505   2.320  1.7224 -0.2891 -0.6599
 1146TIP3    H224998   3.819   1.373   2.378  0.7620 -0.5643 -2.0032
 1147TIP3   OH224999   2.855   1.765   1.538 -0.4716  0.4552 -0.4784
 1147TIP3    H125000   2.936   1.810   1.514  0.2529 -0.5683 -0.0615
 1147TIP3    H225001   2.856   1.764   1.634 -0.3737 -0.5618 -0.4737
 1148TIP3   OH225002   0.026   6.577   1.787  0.2278 -0.5416  0.0822
 1148TIP3    H125003   0.015   6.651   1.847 -0.4525 -1.0572  0.6155
 1148TIP3    H225004   0.061   6.616   1.707  0.3256  0.2867  0.5113
 1149TIP3   OH225005   4.205   4.037   0.072  0.9815  0.7133  0.3445
 1149TIP3    H125006   4.290   3.999   0.091  0.1514 -1.4328  0.0184
 1149TIP3    H225007   4.219   4.089  -0.007  1.5836 -1.3309 -0.9610
 1150TIP3   OH225008   2.381   4.133   1.211  0.3520 -1.0010 -0.0939
 1150TIP3    H125009   2.456   4.113   1.267  0.2178  0.9280  0.8874
 1150TIP3    H225010   2.306   4.134   1.271 -0.2762 -1.7558 -0.8503
 1151TIP3   OH225011   2.536   1.033   7.907 -0.4989 -0.1735 -0.0179
 1151TIP3    H125012   2.469   0.967   7.889 -1.4100  0.8138 -0.3931
 1151TIP3    H225013   2.487   1.115   7.913  0.6571  0.5430 -0.0539
 1152TIP3   OH225014   4.083   1.982   7.746  0.2949  0.2804 -0.3897
 1152TIP3    H125015   4.062   1.994   7.838  2.4919 -0.9554  0.3340
 1152TIP3    H225016   4.006   1.936   7.710 -0.9102  1.4424  0.6000
 1153TIP3   OH225017   5.109   4.748   0.807  0.2472 -0.5033 -0.2839
 1153TIP3    H125018   5.047   4.706   0.747  0.6837 -0.8688 -0.4776
 1153TIP3    H225019   5.054   4.808   0.858 -0.1234 -0.1445 -1.0819
 1154TIP3   OH225020   4.132   3.955   7.674 -0.8321  0.8844  0.1446
 1154TIP3    H125021   4.178   3.987   7.752  0.3577  1.2955 -0.7008
 1154TIP3    H225022   4.040   3.975   7.692 -0.5168  1.5245  1.1889
 1155TIP3   OH225023   5.625   1.372   1.157 -0.0607  0.1750 -0.6081
 1155TIP3    H125024   5.630   1.423   1.238 -0.3830  1.3622 -1.3231
 1155TIP3    H225025   5.534   1.340   1.155  0.1946 -0.6193 -0.0625
 1156TIP3   OH225026   0.028   4.167   1.300 -0.2090  0.1456 -1.0430
 1156TIP3    H125027   0.058   4.087   1.258  0.6275  0.7992 -1.7350
 1156TIP3    H225028  -0.051   4.191   1.253 -0.4885 -0.2928 -0.8021
 1157TIP3   OH225029   2.161   4.654   8.462  0.0020  0.1958 -0.4788
 1157TIP3    H125030   2.096   4.707   8.416 -0.7528 -0.5463 -0.3084
 1157TIP3    H225031   2.190   4.709   8.535 -0.8889  0.3336 -0.2047
 1158TIP3   OH225032   1.896   3.437   0.213  0.4243 -0.2713  0.0818
 1158TIP3    H125033   1.812   3.439   0.167  0.9237  0.6430 -0.8250
 1158TIP3    H225034   1.891   3.360   0.269 -0.6785 -0.7241 -0.6173
 1159TIP3   OH225035   6.649   3.525   7.348 -0.1762  0.3770 -0.4712
 1159TIP3    H125036   6.629   3.495   7.260 -1.4885  0.3866 -0.2021
 1159TIP3    H225037   6.615   3.457   7.405 -0.9434  1.1834  0.0672
 1160TIP3   OH225038   2.155   1.318   7.146 -0.1462  0.4775  0.7999
 1160TIP3    H125039   2.061   1.335   7.154 -0.5555 -0.7622 -0.7190
 1160TIP3    H225040   2.178   1.354   7.060  0.6050  0.1190  0.8434
 1161TIP3   OH225041   6.358   6.698   7.797 -0.1753 -1.0098  0.0886
 1161TIP3    H125042   6.342   6.688   7.703 -0.8418 -2.2328  0.3007
 1161TIP3    H225043   6.451   6.680   7.808  0.2069  0.5068 -0.4899
 1162TIP3   OH225044   0.638   2.065   8.110 -0.4740 -0.4663 -0.5204
 1162TIP3    H125045   0.714   2.057   8.167  0.7456 -0.7309 -2.1026
 1162TIP3    H225046   0.609   1.974   8.096 -0.2289 -0.4772 -0.9869
 1163TIP3   OH225047   2.833   6.111   7.955 -0.0425 -0.3426 -0.2320
 1163TIP3    H125048   2.766   6.179   7.960  0.4188  0.2006 -1.2706
 1163TIP3    H225049   2.790   6.038   7.910  0.0213 -0.0505 -0.7644
 1164TIP3   OH225050   3.771   5.768   2.451 -0.1838 -0.1194 -0.4936
 1164TIP3    H125051   3.820   5.692   2.480 -1.7711 -0.4396  1.6236
 1164TIP3    H225052   3.837   5.829   2.420  1.4326 -1.0983  0.8602
 1165TIP3   OH225053   5.935   6.697   8.055  0.1827  0.0618  0.0208
 1165TIP3    H125054   5.898   6.674   8.141 -0.3996  0.2170 -0.1817
 1165TIP3    H225055   5.895   6.634   7.995  0.1684  0.2986 -0.2186
 1166TIP3   OH225056   6.724   3.118   8.236 -0.0638  0.4723 -0.1012
 1166TIP3    H125057   6.711   3.178   8.162  0.9749  0.2369 -0.4860
 1166TIP3    H225058   6.737   3.033   8.195 -1.9885 -0.1428  0.4484
 1167TIP3   OH225059   0.244   5.615   2.765  0.1006 -0.1084  0.2671
 1167TIP3    H125060   0.167   5.658   2.804 -0.1142 -1.6742  1.6759
 1167TIP3    H225061   0.316   5.634   2.825  0.1162 -1.1909  0.6277
 1168TIP3   OH225062   4.450   3.512   0.621  0.0723  1.1171 -0.4401
 1168TIP3    H125063   4.390   3.540   0.690 -0.6645 -2.0355  0.3229
 1168TIP3    H225064   4.393   3.480   0.551  0.8612  1.1538 -1.1130
 1169TIP3   OH225065   2.179   1.767   7.567 -0.5575  0.3047 -0.0466
 1169TIP3    H125066   2.174   1.700   7.498  0.9771 -1.0789  1.1012
 1169TIP3    H225067   2.119   1.735   7.635 -1.7571  1.4519 -0.5346
 1170TIP3   OH225068   1.866   5.217   7.568  0.1137 -0.5635 -0.5865
 1170TIP3    H125069   1.932   5.282   7.590  0.5848 -1.2153  0.0014
 1170TIP3    H225070   1.803   5.263   7.513  0.3498  0.4236 -0.0525
 1171TIP3   OH225071   0.113   4.335   0.256  0.3497  0.4543  0.4327
 1171TIP3    H125072   0.134   4.322   0.163  0.0089 -0.5957  0.4920
 1171TIP3    H225073   0.193   4.374   0.292  0.5121  0.8123 -0.2870
 1172TIP3   OH225074   2.092   4.546   7.086  0.0818 -0.0790  0.4043
 1172TIP3    H125075   2.102   4.477   7.151  2.2368 -0.0383  0.1878
 1172TIP3    H225076   2.031   4.608   7.127 -1.1987 -1.6297  0.9592
 1173TIP3   OH225077   1.935   3.305   7.177 -0.0236  0.6363 -0.0727
 1173TIP3    H125078   1.901   3.294   7.088 -2.0429  1.6740  0.4864
 1173TIP3    H225079   1.999   3.376   7.170  0.3674  0.2208 -0.8003
 1174TIP3   OH225080   0.706   0.926   0.909 -0.5517  0.1925 -0.4763
 1174TIP3    H125081   0.723   0.890   0.996 -2.0389 -1.0686 -0.6796
 1174TIP3    H225082   0.792   0.926   0.866  0.2148  0.9351  1.0075
 1175TIP3   OH225083   0.211   6.219   0.766 -0.1367 -0.4710 -0.2733
 1175TIP3    H125084   0.235   6.148   0.826  2.8814  0.1981 -0.5272
 1175TIP3    H225085   0.173   6.286   0.822  0.5814 -0.7574  0.5880
 1176TIP3   OH225086   5.493   0.116   7.140  0.1848  0.4540 -0.1675
 1176TIP3    H125087   5.583   0.088   7.155  0.0175  0.9940  2.3719
 1176TIP3    H225088   5.454   0.047   7.087  1.1694 -1.5949  1.6309
 1177TIP3   OH225089   5.941   2.718   7.965 -0.3520 -0.1453 -0.1175
 1177TIP3    H125090   6.034   2.738   7.973 -0.5540  0.5263  0.7884
 1177TIP3    H225091   5.911   2.710   8.056 -1.4262  0.8600 -0.3572
 1178TIP3   OH225092   6.271   5.701   1.763  0.5430 -0.2942  0.2405
 1178TIP3    H125093   6.274   5.793   1.790 -0.1403  0.0552 -0.8493
 1178TIP3    H225094   6.218   5.700   1.684 -0.4814 -1.7917  0.8913
 1179TIP3   OH225095   4.738   2.328   1.629  0.5504 -0.4997  0.0532
 1179TIP3    H125096   4.776   2.373   1.554 -0.1536  0.2008  0.1138
 1179TIP3    H225097   4.650   2.303   1.601 -0.9882  2.5918  1.6337
 1180TIP3   OH225098   0.785   1.931   1.392 -0.0218 -0.4247  0.4537
 1180TIP3    H125099   0.771   1.895   1.480  0.3863 -3.6134 -0.6763
 1180TIP3    H225100   0.879   1.951   1.390  0.5667 -2.9005 -0.0253
 1181TIP3   OH225101   1.447   4.196   8.550 -0.0370 -0.4516  0.2266
 1181TIP3    H125102   1.432   4.222   8.459  0.2940  1.5060  0.6998
 1181TIP3    H225103   1.521   4.135   8.545  0.4223  0.1579 -0.7445
 1182TIP3   OH225104   3.647   2.169   0.001 -0.4281 -0.3408 -0.4548
 1182TIP3    H125105   3.567   2.130   0.037 -1.6857  1.1529 -1.5193
 1182TIP3    H225106   3.698   2.193   0.079 -0.4230 -2.3662  0.2358
 1183TIP3   OH225107   5.855   5.226   1.099 -0.2021  0.3082 -0.0206
 1183TIP3    H125108   5.843   5.184   1.184  0.5303  0.3265  0.1021
 1183TIP3    H225109   5.788   5.294   1.096  0.5330  1.1217  1.0871
 1184TIP3   OH225110   2.875   0.584   1.723 -0.2369  0.4174  0.3656
 1184TIP3    H125111   2.946   0.560   1.782  0.4477 -0.6626 -0.8429
 1184TIP3    H225112   2.916   0.640   1.657 -0.1449 -1.2585 -1.0852
 1185TIP3   OH225113   3.534   3.478   2.284 -0.1619 -0.2466  0.1383
 1185TIP3    H125114   3.516   3.389   2.317  0.6367 -0.2771  0.5313
 1185TIP3    H225115   3.619   3.501   2.324 -0.4353  0.7553  0.1645
 1186TIP3   OH225116   6.675   3.353   8.074  0.4861 -0.2539 -0.8087
 1186TIP3    H125117   6.668   3.292   8.001 -1.4388 -0.5173 -0.4666
 1186TIP3    H225118   6.702   3.435   8.034  0.2335 -0.5929 -1.7064
 1187TIP3   OH225119   6.677   3.389   8.572 -0.0003 -0.1622  0.3576
 1187TIP3    H125120   6.702   3.324   8.638 -1.1101 -1.0656 -0.0804
 1187TIP3    H225121   6.753   3.446   8.565  0.7013 -0.9373  1.3428
 1188TIP3   OH225122   4.518   5.666   6.778  0.1645 -0.1816  0.3134
 1188TIP3    H125123   4.483   5.714   6.702  0.4301  0.3435  0.5207
 1188TIP3    H225124   4.443   5.656   6.837 -0.2732 -1.3901 -0.4015
 1189TIP3   OH225125   2.442   1.448   0.588 -0.2630 -0.4214 -0.1227
 1189TIP3    H125126   2.498   1.517   0.624  0.3207 -1.0904  0.2727
 1189TIP3    H225127   2.471   1.369   0.632 -0.8660 -0.9389 -0.6457
 1190TIP3   OH225128   2.271   5.138   2.056  0.0323  0.2103 -0.6735
 1190TIP3    H125129   2.254   5.215   2.002 -0.1352  0.0691 -0.8259
 1190TIP3    H225130   2.284   5.173   2.144 -2.8259  0.2558 -0.1486
 1191TIP3   OH225131   2.176   3.262   1.445  0.3383  0.0134  0.0377
 1191TIP3    H125132   2.105   3.289   1.504 -1.0692 -1.5276 -0.8343
 1191TIP3    H225133   2.161   3.312   1.365  0.1870 -0.3521 -0.1657
 1192TIP3   OH225134   0.780   6.070   2.353 -0.1557  0.4451  0.0130
 1192TIP3    H125135   0.686   6.062   2.371 -0.7041  1.7191 -1.8798
 1192TIP3    H225136   0.804   6.157   2.386 -0.0512  0.7878 -0.9244
 1193TIP3   OH225137   4.833   6.503   3.016  0.2574 -0.2324 -0.5813
 1193TIP3    H125138   4.862   6.420   3.054 -0.2603 -1.2290 -2.2878
 1193TIP3    H225139   4.907   6.563   3.028  0.8906 -1.1238  0.0541
 1194TIP3   OH225140   0.290   1.961   0.286 -0.5662  0.3327 -0.3117
 1194TIP3    H125141   0.256   1.933   0.372 -1.3163  1.3520 -0.2623
 1194TIP3    H225142   0.281   2.056   0.286  0.3683  0.4368 -1.1423
 1195TIP3   OH225143   1.577   5.670   0.923 -0.2918 -0.3579  0.2683
 1195TIP3    H125144   1.524   5.746   0.947  0.7765  0.2846  0.6954
 1195TIP3    H225145   1.533   5.596   0.964 -0.4424  0.2631  1.2888
 1196TIP3   OH225146   3.348   3.825   0.868 -0.4409  0.5599 -0.2548
 1196TIP3    H125147   3.328   3.918   0.872 -0.8384  0.4349  0.9731
 1196TIP3    H225148   3.422   3.814   0.928  0.0206  0.1856 -0.8849
 1197TIP3   OH225149   2.553   1.931   1.327  0.2748  0.0817 -0.6625
 1197TIP3    H125150   2.640   1.969   1.321  0.4480 -0.1652  0.2136
 1197TIP3    H225151   2.501   1.994   1.377  0.0582  0.0449 -0.8365
 1198TIP3   OH225152   6.779   6.321   7.983  0.7161 -0.2366 -0.5422
 1198TIP3    H125153   6.836   6.320   8.060 -0.3648 -1.2442  0.2750
 1198TIP3    H225154   6.839   6.332   7.909  1.7947  0.5579  0.4052
 1199TIP3   OH225155   2.225   0.745   2.371  0.2540 -0.2927 -0.4241
 1199TIP3    H125156   2.198   0.816   2.429 -2.3846 -0.0866 -1.7923
 1199TIP3    H225157   2.217   0.781   2.283 -2.2602 -2.5313 -1.2407
 1200TIP3   OH225158   3.913   6.637   7.065  0.1803 -0.0140  0.7723
 1200TIP3    H125159   3.999   6.599   7.046 -0.8831 -1.0987 -2.5949
 1200TIP3    H225160   3.916   6.723   7.023 -0.7839 -0.6534 -0.6878
 1201TIP3   OH225161   1.726   3.774   0.631 -0.2982  0.3495 -0.2622
 1201TIP3    H125162   1.811   3.756   0.590 -0.4621 -0.2555 -0.3474
 1201TIP3    H225163   1.700   3.690   0.670  0.2963  1.0987  1.9173
 1202TIP3   OH225164   2.654   1.019   7.662  0.6129  0.4704 -0.3436
 1202TIP3    H125165   2.618   1.012   7.751 -3.3934 -1.2306 -1.8596
 1202TIP3    H225166   2.597   1.083   7.618  0.7341 -0.7465 -2.3912
 1203TIP3   OH225167   4.989   6.725   2.434 -0.2780 -0.0206  0.4743
 1203TIP3    H125168   4.933   6.742   2.358 -0.1393  0.9912  0.5827
 1203TIP3    H225169   5.061   6.672   2.399 -0.1215  0.5822 -0.1559
 1204TIP3   OH225170   3.121   2.289   0.163 -0.5720  0.4772 -0.2290
 1204TIP3    H125171   3.132   2.338   0.082  0.3237  0.5955 -0.0493
 1204TIP3    H225172   3.036   2.247   0.154 -0.9610  1.3414 -0.7715
 1205TIP3   OH225173   6.182   0.921   1.049  0.2918  0.5766 -0.1860
 1205TIP3    H125174   6.092   0.943   1.025 -0.1506 -1.6135 -0.7066
 1205TIP3    H225175   6.224   0.896   0.967  1.3744  1.4214  0.0774
 1206TIP3   OH225176   2.503   4.634   8.520  0.4252 -0.0308  0.0080
 1206TIP3    H125177   2.466   4.722   8.527 -0.5748 -0.4157 -0.3106
 1206TIP3    H225178   2.438   4.584   8.471  1.1811 -0.8413 -0.1946
 1207TIP3   OH225179   4.859   5.072   7.525  0.4745 -0.0723 -0.3744
 1207TIP3    H125180   4.856   5.002   7.459 -0.3683 -0.8423  0.4521
 1207TIP3    H225181   4.800   5.139   7.490 -0.9041 -0.9877  0.1226
 1208TIP3   OH225182   0.235   3.002   1.759 -0.2789  0.3072 -0.0290
 1208TIP3    H125183   0.195   3.042   1.682  3.4523  2.4567 -1.0899
 1208TIP3    H225184   0.203   3.056   1.832 -1.7580 -0.0861 -0.3448
 1209TIP3   OH225185   2.205   2.190   7.229 -0.4038 -0.5412 -0.6180
 1209TIP3    H125186   2.126   2.141   7.205  0.7768 -3.1182  0.4494
 1209TIP3    H225187   2.186   2.225   7.317 -0.4790 -0.8557 -0.5095
 1210TIP3   OH225188   5.789   5.691   2.585 -0.2697  0.1035  0.2648
 1210TIP3    H125189   5.761   5.726   2.501 -0.3082 -0.1534  0.1704
 1210TIP3    H225190   5.825   5.767   2.632 -0.9663  0.4063  0.3242
 1211TIP3   OH225191   3.380   4.182   0.067 -0.0857 -0.3706 -0.2251
 1211TIP3    H125192   3.363   4.265   0.022  0.2437 -0.1704  0.0183
 1211TIP3    H225193   3.299   4.164   0.116  0.1441  0.2276  0.3826
 1212TIP3   OH225194   0.349   1.563   7.632 -0.2189 -0.0027 -0.1086
 1212TIP3    H125195   0.365   1.604   7.716 -0.8354 -1.0813  0.5578
 1212TIP3    H225196   0.353   1.636   7.569  1.8744  0.5761  0.6055
 1213TIP3   OH225197   1.981   1.590   2.310  0.1131 -0.1274  0.1496
 1213TIP3    H125198   2.002   1.612   2.400 -1.0072 -0.4060  0.4983
 1213TIP3    H225199   1.926   1.511   2.316  0.5014 -0.4958 -0.8074
 1214TIP3   OH225200   2.501   4.825   2.067 -0.8798 -0.4618 -0.1935
 1214TIP3    H125201   2.467   4.912   2.090 -0.3910  0.6398 -3.2546
 1214TIP3    H225202   2.497   4.776   2.149 -0.0943  2.7646  1.9581
 1215TIP3   OH225203   1.148   2.802   7.630 -0.0719  0.1732 -0.4104
 1215TIP3    H125204   1.116   2.803   7.720 -0.3864 -1.7985 -0.4767
 1215TIP3    H225205   1.239   2.834   7.637  0.2487 -0.9115  0.7590
 1216TIP3   OH225206   6.500   2.423   7.244  0.5371  0.0003  0.1032
 1216TIP3    H125207   6.449   2.378   7.176 -0.6264  0.3552  0.7068
 1216TIP3    H225208   6.590   2.417   7.215  0.3468 -2.1113 -0.2096
 1217TIP3   OH225209   5.519   4.804   7.096 -0.2618  0.2462  0.1600
 1217TIP3    H125210   5.608   4.803   7.130  0.3408  1.9301 -1.2552
 1217TIP3    H225211   5.509   4.890   7.057 -2.8402  0.4444  1.0925
 1218TIP3   OH225212   4.689   6.007   1.322  0.4921 -0.3221 -0.3154
 1218TIP3    H125213   4.715   6.080   1.378 -1.0319  0.1787 -0.2338
 1218TIP3    H225214   4.666   5.937   1.383  0.4368 -0.3421 -0.3595
 1219TIP3   OH225215   4.016   5.612   8.349 -0.2871  0.3506  0.6009
 1219TIP3    H125216   4.043   5.638   8.437 -1.5546 -1.2894  1.5415
 1219TIP3    H225217   3.920   5.621   8.350 -0.6094 -2.3381  0.3795
 1220TIP3   OH225218   0.505   0.444   0.856 -0.3573 -0.1561 -0.2403
 1220TIP3    H125219   0.493   0.500   0.932 -2.0272  0.1300 -0.6757
 1220TIP3    H225220   0.516   0.506   0.783  1.1063 -0.4256 -0.2725
 1221TIP3   OH225221   1.964   6.343   1.654 -0.0294  0.1765  0.0290
 1221TIP3    H125222   1.877   6.309   1.676  0.2858 -1.2647 -0.7910
 1221TIP3    H225223   1.968   6.428   1.697 -1.9796  0.4448 -0.1993
 1222TIP3   OH225224   2.368   5.242   2.294  0.3918  0.2852 -0.7205
 1222TIP3    H125225   2.374   5.335   2.275 -1.7041  0.0984 -2.8872
 1222TIP3    H225226   2.327   5.237   2.380 -0.9686  1.4214 -1.2622
 1223TIP3   OH225227   4.941   0.569   7.579 -0.3311 -0.0654 -0.4492
 1223TIP3    H125228   4.951   0.491   7.633 -0.1983 -1.6177 -2.5938
 1223TIP3    H225229   4.973   0.641   7.634 -1.3204 -1.3397  1.9213
 1224TIP3   OH225230   5.721   2.660   2.321  0.0721  0.3999  0.3671
 1224TIP3    H125231   5.746   2.749   2.345  1.1110 -0.0077  0.8473
 1224TIP3    H225232   5.639   2.671   2.273 -0.5979  1.4915  1.6715
 1225TIP3   OH225233   3.935   3.844   0.809  0.4432  0.3864  0.2974
 1225TIP3    H125234   3.954   3.756   0.841  1.6707  0.4495 -0.2105
 1225TIP3    H225235   3.856   3.834   0.756  0.6295 -0.4292  0.1616
 1226TIP3   OH225236   0.941   6.788   0.884  0.3451  0.3732 -0.2731
 1226TIP3    H125237   1.001   6.862   0.877  0.3085  0.3459 -0.8719
 1226TIP3    H225238   0.889   6.791   0.804  0.9495 -0.8286 -0.7257
 1227TIP3   OH225239   3.603   1.693   8.234  0.2139  0.1154 -0.1517
 1227TIP3    H125240   3.590   1.652   8.320 -0.4999 -1.0477 -0.7851
 1227TIP3    H225241   3.677   1.645   8.196  0.4740  0.5697 -0.2258
 1228TIP3   OH225242   5.748   2.100   2.702  0.2289 -0.5628  0.2582
 1228TIP3    H125243   5.727   2.167   2.767 -1.5577 -1.3268  0.5242
 1228TIP3    H225244   5.787   2.029   2.753 -1.0325 -1.0990  0.5329
 1229TIP3   OH225245   3.016   4.308   2.064 -0.0043 -0.3932 -0.1559
 1229TIP3    H125246   3.039   4.310   1.971  0.6291 -0.7458 -0.0150
 1229TIP3    H225247   2.924   4.282   2.065  0.2634 -1.4443 -0.6560
 1230TIP3   OH225248   0.221   2.514   0.516  0.4852 -1.1267  0.3306
 1230TIP3    H125249   0.258   2.537   0.431 -1.7575  0.2944 -0.3446
 1230TIP3    H225250   0.185   2.427   0.504 -0.0706 -0.8198 -0.2867
 1231TIP3   OH225251   2.708   2.551   7.652  0.0123 -0.4800  0.2215
 1231TIP3    H125252   2.676   2.465   7.626 -0.7150 -0.4758  1.0519
 1231TIP3    H225253   2.708   2.603   7.572 -2.1198 -0.4690  0.1690
 1232TIP3   OH225254   5.722   3.100   1.424  0.4272 -0.0913 -0.0057
 1232TIP3    H125255   5.635   3.082   1.458 -0.7134  0.0873 -2.6025
 1232TIP3    H225256   5.707   3.132   1.335  3.0454  1.8789  0.1353
 1233TIP3   OH225257   4.742   1.081   8.126 -0.0375 -0.8074  0.4471
 1233TIP3    H125258   4.795   1.116   8.055  0.6671  0.6149  1.6079
 1233TIP3    H225259   4.769   0.989   8.133  0.0937 -0.8887 -0.8948
 1234TIP3   OH225260   2.842   2.690   2.022  0.4374 -0.1378  0.0495
 1234TIP3    H125261   2.843   2.655   1.933 -1.0981  0.1899 -0.1294
 1234TIP3    H225262   2.774   2.758   2.020 -1.3293 -1.7088  2.0437
 1235TIP3   OH225263   0.463   0.879   0.121  0.1128 -0.7013 -0.4606
 1235TIP3    H125264   0.532   0.945   0.111 -0.4501  0.3960  2.1328
 1235TIP3    H225265   0.511   0.796   0.126  1.0324 -0.2406 -1.0968
 1236TIP3   OH225266   3.201   2.794   1.381 -0.1636  0.3580  0.8221
 1236TIP3    H125267   3.219   2.887   1.393 -1.9225  0.9067 -0.4302
 1236TIP3    H225268   3.231   2.775   1.292 -0.8658  0.0076  0.6561
 1237TIP3   OH225269   3.246   3.064   1.378  0.3961 -0.2732  0.0082
 1237TIP3    H125270   3.180   3.121   1.339  1.2321  0.9164  0.2774
 1237TIP3    H225271   3.291   3.119   1.442  1.1335 -1.2817  0.3853
 1238TIP3   OH225272   1.055   3.130   8.321  0.3521  0.2952  0.5891
 1238TIP3    H125273   1.088   3.041   8.333  0.6570  0.0939 -1.4050
 1238TIP3    H225274   1.133   3.186   8.325  0.6167  0.1234 -1.0753
 1239TIP3   OH225275   2.858   5.040   0.399 -1.3016 -0.1199 -0.0555
 1239TIP3    H125276   2.889   5.100   0.467  1.7266 -1.4839 -0.0860
 1239TIP3    H225277   2.832   5.098   0.327  1.3795  1.2512 -0.0305
 1240TIP3   OH225278   1.970   2.015   0.586  0.2864  0.0597 -0.2026
 1240TIP3    H125279   1.962   1.982   0.496  0.6519  2.0334 -0.9933
 1240TIP3    H225280   1.882   2.001   0.623 -1.0316  2.5192 -2.0910
 1241TIP3   OH225281   6.787   1.970   8.041  0.1574  0.0524  0.0541
 1241TIP3    H125282   6.742   1.888   8.063  0.8769 -0.0128  1.3623
 1241TIP3    H225283   6.859   1.943   7.983 -1.1578  0.1102 -1.7142
 1242TIP3   OH225284   3.022   4.138   1.028  0.1723 -0.1411  0.0437
 1242TIP3    H125285   2.986   4.098   1.108 -2.9987  1.0087 -0.6365
 1242TIP3    H225286   2.969   4.217   1.016  1.9743  0.8303 -2.0843
 1243TIP3   OH225287   0.379   1.385   7.450  0.9182  0.0782  0.2269
 1243TIP3    H125288   0.396   1.297   7.486  0.6541 -0.2336 -0.3998
 1243TIP3    H225289   0.395   1.444   7.524  0.6711 -0.5312  0.7800
 1244TIP3   OH225290   0.718   1.872   0.743 -0.2422 -0.3303  0.0489
 1244TIP3    H125291   0.773   1.799   0.772 -0.2842  0.4085  2.1573
 1244TIP3    H225292   0.645   1.829   0.698  0.9739 -1.4280 -0.9564
 1245TIP3   OH225293   6.623   4.970   2.555  0.4399  0.1948  0.0416
 1245TIP3    H125294   6.624   4.947   2.648 -1.8675  1.0881  0.3490
 1245TIP3    H225295   6.576   5.053   2.551 -0.3403 -0.2744 -2.0061
 1246TIP3   OH225296   4.161   3.606   0.145 -0.4061 -0.0738 -0.1189
 1246TIP3    H125297   4.156   3.653   0.062 -1.4899  0.7872  0.4025
 1246TIP3    H225298   4.176   3.674   0.210  0.9838 -0.8070  0.3501
 1247TIP3   OH225299   6.542   6.420   1.493 -0.2692  0.2608 -0.0460
 1247TIP3    H125300   6.471   6.408   1.431  0.0329 -0.4589 -0.2614
 1247TIP3    H225301   6.499   6.448   1.574 -0.9410 -1.3001  0.1766
 1248TIP3   OH225302   1.160   3.464   0.544  0.5935 -0.2855  0.6676
 1248TIP3    H125303   1.093   3.411   0.499 -0.3741 -0.0200  1.7417
 1248TIP3    H225304   1.240   3.413   0.536  0.2159 -0.7590 -0.4011
 1249TIP3   OH225305   5.711   5.819   0.188  0.4745 -0.7300  0.5913
 1249TIP3    H125306   5.649   5.841   0.257  0.5613 -1.8631  1.0481
 1249TIP3    H225307   5.721   5.900   0.138  0.1796  0.0191  1.7209
 1250TIP3   OH225308   5.088   3.616   7.703 -0.4602  0.0169  0.0099
 1250TIP3    H125309   5.056   3.529   7.728  2.2505 -0.5877  1.8462
 1250TIP3    H225310   5.163   3.598   7.645  1.7935  0.8848  2.4576
 1251TIP3   OH225311   4.224   2.564   0.431 -0.2559  0.2483 -0.4443
 1251TIP3    H125312   4.299   2.510   0.459 -1.0863 -0.4859  0.4209
 1251TIP3    H225313   4.226   2.558   0.336 -0.9058 -2.1899 -0.3717
 1252TIP3   OH225314   1.946   5.756   2.478 -0.0158  0.1560 -0.6582
 1252TIP3    H125315   2.032   5.715   2.492  0.6107  0.9239 -2.0484
 1252TIP3    H225316   1.885   5.697   2.522  1.0682 -1.1913 -0.8639
 1253TIP3   OH225317   6.521   6.742   2.875  0.1864 -0.4007 -0.1998
 1253TIP3    H125318   6.573   6.661   2.881 -1.0050 -1.4732 -3.0168
 1253TIP3    H225319   6.460   6.735   2.948  0.6414 -1.6267  0.1015
 1254TIP3   OH225320   4.615   2.650   1.561 -0.2000  0.2601 -0.0503
 1254TIP3    H125321   4.531   2.653   1.606 -0.7957 -1.3469 -0.9618
 1254TIP3    H225322   4.596   2.606   1.478  1.4891  0.0706 -0.3745
 1255TIP3   OH225323   2.149   5.283   8.527  0.1549 -0.0783 -0.1683
 1255TIP3    H125324   2.156   5.188   8.540 -1.3193 -0.1001  0.6918
 1255TIP3    H225325   2.240   5.315   8.532  0.4852 -1.1855  1.7584
 1256TIP3   OH225326   0.672   3.218   0.349  0.3186  0.1839 -0.4874
 1256TIP3    H125327   0.719   3.165   0.285  0.6727  0.8479 -0.7819
 1256TIP3    H225328   0.620   3.155   0.398  1.2258 -0.5184 -0.4005
 1257TIP3   OH225329   0.337   6.769   3.382 -0.3587 -0.3579  0.1407
 1257TIP3    H125330   0.309   6.857   3.404 -0.6630 -0.8351  1.8307
 1257TIP3    H225331   0.387   6.779   3.301 -1.0060  1.2409 -0.0988
 1258TIP3   OH225332   4.892   6.259   2.210  0.0898  0.4469  0.8548
 1258TIP3    H125333   4.893   6.192   2.278 -1.8937 -0.4001  0.1378
 1258TIP3    H225334   4.831   6.226   2.144 -0.7747  2.8149  0.3441
 1259TIP3   OH225335   6.466   4.537   8.058 -0.1334  0.1503  0.1131
 1259TIP3    H125336   6.473   4.447   8.027 -0.9403 -0.0353  0.4372
 1259TIP3    H225337   6.456   4.528   8.153 -0.4606  0.5731  0.1183
 1260TIP3   OH225338   6.711   1.819   1.145 -0.5103  0.5086  0.0121
 1260TIP3    H125339   6.804   1.815   1.122 -0.3191 -0.2726  0.8602
 1260TIP3    H225340   6.667   1.765   1.080 -0.1220 -0.7284  0.7593
 1261TIP3   OH225341   6.520   5.525   0.759 -0.1601  0.0682  0.5412
 1261TIP3    H125342   6.547   5.548   0.847  3.1121 -1.8739  0.2148
 1261TIP3    H225343   6.566   5.588   0.702 -2.0387  1.1470  0.1310
 1262TIP3   OH225344   6.648   0.723   1.734  0.2157 -0.0961  0.5002
 1262TIP3    H125345   6.706   0.688   1.802  1.7149  0.1780 -0.5798
 1262TIP3    H225346   6.579   0.658   1.724  1.5156 -1.4956  0.3455
 1263TIP3   OH225347   4.274   1.836   1.891  0.1895 -0.0637 -0.2345
 1263TIP3    H125348   4.258   1.771   1.822  2.0512 -2.6689  1.5828
 1263TIP3    H225349   4.265   1.787   1.973  0.7877  2.2143  1.2870
 1264TIP3   OH225350   6.300   4.123   2.072 -0.3061  0.6737  0.5944
 1264TIP3    H125351   6.337   4.211   2.079  0.5945  0.2393  1.5361
 1264TIP3    H225352   6.333   4.076   2.149 -0.3834 -0.6255 -0.1237
 1265TIP3   OH225353   0.760   2.232   1.563 -0.3182  0.2973 -0.4405
 1265TIP3    H125354   0.695   2.232   1.492 -0.2059 -1.4293 -0.5696
 1265TIP3    H225355   0.751   2.146   1.603  1.1187  0.4690  0.2811
 1266TIP3   OH225356   2.728   1.411   0.442 -0.3334 -0.4455 -0.0874
 1266TIP3    H125357   2.741   1.404   0.537  0.5502 -1.2582 -0.2587
 1266TIP3    H225358   2.781   1.486   0.416 -3.3624  2.1224  0.5371
 1267TIP3   OH225359   4.131   0.458   7.139 -0.4351  0.2115  0.3664
 1267TIP3    H125360   4.090   0.463   7.225 -3.6161  2.2647 -1.0462
 1267TIP3    H225361   4.225   0.464   7.156 -0.9769  1.4552  3.6183
 1268TIP3   OH225362   2.658   0.390   1.203  0.1612 -0.4298 -0.3234
 1268TIP3    H125363   2.684   0.327   1.271  0.2610  1.3025  1.3317
 1268TIP3    H225364   2.563   0.395   1.211  0.1710 -0.2401 -0.3320
 1269TIP3   OH225365   1.221   0.081   8.004  0.2199  0.3243  0.6755
 1269TIP3    H125366   1.130   0.090   8.033  0.0824  2.1227 -0.1422
 1269TIP3    H225367   1.273   0.109   8.079  0.0279  0.5915  0.7136
 1270TIP3   OH225368   5.584   2.373   8.527 -0.3535  0.4212  0.4727
 1270TIP3    H125369   5.673   2.406   8.541 -0.2825  0.5940 -0.3106
 1270TIP3    H225370   5.562   2.326   8.608  0.6167 -0.0046  0.5025
 1271TIP3   OH225371   4.058   1.232   0.228  0.2186 -0.3945 -0.2503
 1271TIP3    H125372   3.993   1.239   0.299 -1.0841 -1.4666 -1.2727
 1271TIP3    H225373   4.030   1.298   0.164  0.2937 -0.6741 -0.5732
 1272TIP3   OH225374   1.036   1.876   1.143  0.1845  0.7592  0.1827
 1272TIP3    H125375   0.946   1.871   1.175 -0.5579 -1.3905 -1.9430
 1272TIP3    H225376   1.052   1.970   1.133 -2.1600  1.1922 -0.1925
 1273TIP3   OH225377   2.475   0.958   0.991  0.0302  0.1849  0.0737
 1273TIP3    H125378   2.539   0.983   1.058  1.7304 -2.5315 -0.3561
 1273TIP3    H225379   2.410   1.028   0.992  2.8041  2.9842  0.7835
 1274TIP3   OH225380   2.165   4.803   8.702  0.4021 -0.0144 -0.4879
 1274TIP3    H125381   2.123   4.743   8.764  0.0156 -0.4661 -1.1639
 1274TIP3    H225382   2.228   4.852   8.754 -0.5926  0.3062  0.4507
 1275TIP3   OH225383   3.865   6.637   2.167  0.1678 -0.1670 -0.5648
 1275TIP3    H125384   3.808   6.666   2.096 -1.5343 -0.4452  0.6224
 1275TIP3    H225385   3.824   6.558   2.201  1.7931 -0.9212 -0.2476
 1276TIP3   OH225386   5.268   6.319   1.462 -0.3468  0.6158  0.1465
 1276TIP3    H125387   5.178   6.332   1.431  0.1820  1.0494 -1.2748
 1276TIP3    H225388   5.273   6.373   1.541 -1.6189 -0.2129  0.8278
 1277TIP3   OH225389   2.957   4.226   0.098  0.1998  0.5244 -0.2475
 1277TIP3    H125390   2.965   4.190   0.186 -1.0111  2.9345  0.9363
 1277TIP3    H225391   3.021   4.296   0.094  1.7379 -0.8640 -2.1163
 1278TIP3   OH225392   4.922   2.734   7.258  0.3163  0.0175  1.0152
 1278TIP3    H125393   4.926   2.807   7.320  0.3389 -0.1222  1.1782
 1278TIP3    H225394   4.964   2.661   7.304  0.2083 -0.1251  0.8877
 1279TIP3   OH225395   6.494   5.033   1.292 -0.4695 -0.1816 -0.3335
 1279TIP3    H125396   6.590   5.035   1.299 -0.4868 -0.4604 -0.0180
 1279TIP3    H225397   6.477   4.963   1.229 -0.5386 -1.4408  1.0444
 1280TIP3   OH225398   1.706   2.047   1.658  0.4016 -0.2739 -0.2463
 1280TIP3    H125399   1.677   2.063   1.568 -0.7664  0.5113  0.2342
 1280TIP3    H225400   1.624   2.034   1.707  1.0032 -0.4237  0.7407
 1281TIP3   OH225401   6.093   1.642   7.734 -0.2130  0.1739  0.0439
 1281TIP3    H125402   6.084   1.567   7.675 -2.4517  0.4809 -0.0887
 1281TIP3    H225403   6.178   1.679   7.713  0.3753 -1.5532 -0.7944
 1282TIP3   OH225404   3.597   1.752   7.344  0.6088 -0.4255  0.0566
 1282TIP3    H125405   3.602   1.836   7.300  1.9373 -0.0075  0.9228
 1282TIP3    H225406   3.624   1.688   7.278  0.8301 -0.0204 -0.2490
 1283TIP3   OH225407   0.782   2.520   2.140 -0.7207  0.3325  0.2767
 1283TIP3    H125408   0.824   2.490   2.059 -0.9715 -1.7957  0.8899
 1283TIP3    H225409   0.839   2.590   2.171  0.4487 -0.1255 -0.7356
 1284TIP3   OH225410   3.660   0.040   8.620  0.0455  0.4844 -0.0443
 1284TIP3    H125411   3.673   0.030   8.715 -0.0014 -0.7235 -0.1425
 1284TIP3    H225412   3.725   0.104   8.593 -0.1015  1.0196  0.8492
 1285TIP3   OH225413   6.646   3.624   0.270  0.2818 -0.4296  0.0747
 1285TIP3    H125414   6.578   3.661   0.214  0.2727  0.0031  0.3652
 1285TIP3    H225415   6.726   3.627   0.217  0.1221 -0.7281 -0.1851
 1286TIP3   OH225416   6.096   4.141   0.886 -0.3420 -0.7557  0.1378
 1286TIP3    H125417   6.160   4.084   0.845 -0.6465 -1.1421  0.1985
 1286TIP3    H225418   6.011   4.105   0.861 -0.5317 -0.7419  0.7438
 1287TIP3   OH225419   1.463   2.800   7.833 -0.4279  0.0636  0.3759
 1287TIP3    H125420   1.539   2.816   7.889  0.2762 -0.3889 -0.4382
 1287TIP3    H225421   1.464   2.872   7.770 -0.8762  0.2440  0.5703
 1288TIP3   OH225422   0.146   3.237   1.097  0.5102  0.0871 -0.6633
 1288TIP3    H125423   0.191   3.318   1.076  0.2418  0.6354  0.7563
 1288TIP3    H225424   0.193   3.170   1.047 -0.3953  1.2987 -3.3328
 1289TIP3   OH225425   0.396   4.613   8.642  0.0486  0.5167  0.1835
 1289TIP3    H125426   0.375   4.577   8.728  0.8022  0.9719  0.5767
 1289TIP3    H225427   0.422   4.538   8.589 -1.9574  0.0014 -0.1736
 1290TIP3   OH225428   1.848   3.122   7.503  0.0920 -0.0201  0.0520
 1290TIP3    H125429   1.815   3.174   7.577 -1.3542 -0.4728 -0.2384
 1290TIP3    H225430   1.812   3.035   7.518 -0.9409  0.0812 -1.6114
 1291TIP3   OH225431   3.753   3.162   8.054 -0.5509 -0.0078  0.9528
 1291TIP3    H125432   3.736   3.220   8.129  0.6628  1.4540  0.1415
 1291TIP3    H225433   3.844   3.178   8.031 -1.3136  0.8058 -1.8625
 1292TIP3   OH225434   0.055   6.740   2.616 -0.1533 -0.2890  0.6675
 1292TIP3    H125435   0.114   6.815   2.631  0.9468 -1.0338  0.1952
 1292TIP3    H225436   0.074   6.713   2.526 -2.0222  0.1190  0.1163
 1293TIP3   OH225437   6.624   4.195   2.529 -0.0309  0.2130  0.5614
 1293TIP3    H125438   6.657   4.218   2.616  1.6568 -2.5433  0.7517
 1293TIP3    H225439   6.548   4.139   2.546  0.3100 -0.3404  0.2702
 1294TIP3   OH225440   6.219   4.005   2.867 -0.2059  0.5522 -0.3236
 1294TIP3    H125441   6.140   4.044   2.905 -1.5914 -3.3006  1.2544
 1294TIP3    H225442   6.267   3.970   2.942  2.4241  1.6494 -1.3770
 1295TIP3   OH225443   4.509   0.236   1.051  0.4207 -0.4270  0.0361
 1295TIP3    H125444   4.512   0.150   1.093 -0.4512 -0.7422 -0.5304
 1295TIP3    H225445   4.419   0.247   1.023  0.6802  0.3721 -0.5434
 1296TIP3   OH225446   0.406   4.431   7.627 -0.2868  1.1007 -0.2907
 1296TIP3    H125447   0.427   4.343   7.598 -0.4800  0.9253  0.0904
 1296TIP3    H225448   0.410   4.426   7.723 -0.8310  1.3719 -0.2509
 1297TIP3   OH225449   3.062   4.532   8.722 -0.1909 -0.3161  0.2636
 1297TIP3    H125450   3.114   4.488   8.655 -0.3701 -0.4280  0.1961
 1297TIP3    H225451   3.058   4.623   8.692 -1.5751 -0.6652 -0.7164
 1298TIP3   OH225452   2.253   1.231   1.275  0.4143  0.4294  0.2932
 1298TIP3    H125453   2.244   1.187   1.191  1.5021 -0.1243  0.4521
 1298TIP3    H225454   2.167   1.270   1.291 -0.7064 -1.9257  0.3198
 1299TIP3   OH225455   4.315   4.404   1.345  0.0461 -0.2636 -0.2025
 1299TIP3    H125456   4.351   4.401   1.257  2.1093  2.0371  0.4483
 1299TIP3    H225457   4.221   4.415   1.333  0.3381  0.3910 -2.1306
 1300TIP3   OH225458   5.850   5.662   1.505 -0.0143 -0.9069 -0.4136
 1300TIP3    H125459   5.859   5.596   1.436  0.3982 -1.2969  0.0050
 1300TIP3    H225460   5.782   5.722   1.473 -0.0228 -1.2426 -1.0283
 1301TIP3   OH225461   3.564   5.868   2.250 -0.4586  0.1986 -0.6354
 1301TIP3    H125462   3.612   5.813   2.311 -2.2190  0.1807  0.8353
 1301TIP3    H225463   3.612   5.862   2.168  2.2519  0.5440  0.8075
 1302TIP3   OH225464   0.901   3.885   2.447  0.7870  0.2707  0.2049
 1302TIP3    H125465   0.860   3.899   2.362  2.5283 -1.7126 -1.0791
 1302TIP3    H225466   0.845   3.931   2.509 -0.8173  1.3880 -1.9394
 1303TIP3   OH225467   0.036   1.205   0.781 -0.1640  0.0373  0.1880
 1303TIP3    H125468  -0.001   1.290   0.806 -3.3748 -1.0111 -0.5260
 1303TIP3    H225469  -0.033   1.142   0.803  1.8871 -2.3529  0.1649
 1304TIP3   OH225470   2.052   1.207   8.640  0.0299  0.1336 -0.1285
 1304TIP3    H125471   2.119   1.181   8.577  0.4032  1.2243 -0.2151
 1304TIP3    H225472   2.064   1.302   8.650 -0.7786  0.1683  0.7037
 1305TIP3   OH225473   4.068   6.425   2.316 -0.0807 -0.6184 -0.4082
 1305TIP3    H125474   3.982   6.465   2.330 -0.5365 -1.6388 -0.1098
 1305TIP3    H225475   4.057   6.335   2.349  1.6321 -0.2378  1.3251
 1306TIP3   OH225476   5.437   2.880   7.566  0.2920 -0.0676 -0.0444
 1306TIP3    H125477   5.357   2.833   7.543  0.4311  0.7129 -2.2955
 1306TIP3    H225478   5.415   2.972   7.553  1.8799  0.0990 -1.8645
 1307TIP3   OH225479   1.702   1.819   8.590  0.3122 -0.3558 -0.7894
 1307TIP3    H125480   1.732   1.874   8.663 -1.3408  0.8298 -0.9302
 1307TIP3    H225481   1.665   1.882   8.527  0.5518 -1.4610 -2.0699
 1308TIP3   OH225482   6.208   3.743   7.364 -0.9144 -0.3322  0.2341
 1308TIP3    H125483   6.204   3.819   7.306  1.9299 -1.3822 -1.5614
 1308TIP3    H225484   6.171   3.671   7.312  0.5978 -1.0569  0.1199
 1309TIP3   OH225485   5.847   4.549   1.094  0.2227  0.1246 -0.7519
 1309TIP3    H125486   5.753   4.542   1.076 -0.1662  1.6273  0.4129
 1309TIP3    H225487   5.863   4.644   1.097  1.8059 -0.1096 -1.0447
 1310TIP3   OH225488   1.839   0.478   1.851  0.2633 -0.4130  0.0576
 1310TIP3    H125489   1.790   0.426   1.914  0.5208 -0.2538  0.3934
 1310TIP3    H225490   1.848   0.421   1.774  2.1170 -1.5730  1.0674
 1311TIP3   OH225491   0.518   0.113   1.001 -0.3268 -0.1656 -0.5007
 1311TIP3    H125492   0.593   0.091   0.945  0.4615 -2.9199  1.4533
 1311TIP3    H225493   0.543   0.196   1.042  1.8348 -1.1050  0.2557
 1312TIP3   OH225494   2.304   4.937   8.461  0.2996 -0.5373 -0.2315
 1312TIP3    H125495   2.377   4.893   8.417  0.7671  0.4154 -0.4328
 1312TIP3    H225496   2.346   5.007   8.511 -0.5885  0.7752 -1.2996
 1313TIP3   OH225497   6.555   0.346   1.912  0.0327  0.3749  0.3527
 1313TIP3    H125498   6.640   0.317   1.881  0.3142 -0.2556  1.6118
 1313TIP3    H225499   6.501   0.353   1.834  0.8935 -0.4278 -0.3321
 1314TIP3   OH225500   4.916   4.713   2.869  0.2550  0.1044  0.5253
 1314TIP3    H125501   4.930   4.801   2.834 -1.1870  0.9246  1.8565
 1314TIP3    H225502   4.973   4.709   2.946 -1.0345  0.6337  1.5598
 1315TIP3   OH225503   4.019   4.361   0.586 -0.1215  0.0027 -0.3738
 1315TIP3    H125504   4.008   4.276   0.544  0.9496 -0.4996  0.2949
 1315TIP3    H225505   4.029   4.340   0.679  0.6801  0.8020 -0.2680
 1316TIP3   OH225506   5.565   2.227   2.114  0.8398  0.4084 -0.0440
 1316TIP3    H125507   5.556   2.133   2.127  0.3373  0.6539  1.5014
 1316TIP3    H225508   5.653   2.247   2.145  1.2194  0.3650 -1.0379
 1317TIP3   OH225509   6.294   3.335   8.733 -0.0923 -0.1069 -0.3309
 1317TIP3    H125510   6.350   3.408   8.708  0.8197 -0.7991 -0.3494
 1317TIP3    H225511   6.344   3.257   8.710 -0.4352 -0.7579  1.0291
 1318TIP3   OH225512   3.442   6.120   2.273  0.5061 -0.5338 -0.2407
 1318TIP3    H125513   3.464   6.027   2.275  3.2026  0.0410  1.4745
 1318TIP3    H225514   3.453   6.145   2.181  0.7238 -1.6901 -0.5446
 1319TIP3   OH225515   2.578   4.516   2.821 -0.0833  0.9642  0.6219
 1319TIP3    H125516   2.581   4.532   2.915  2.4783 -0.2552  0.8477
 1319TIP3    H225517   2.583   4.421   2.813 -1.9785  0.9324 -0.7767
 1320TIP3   OH225518   0.248   0.359   0.757  0.1963 -0.1462 -0.2007
 1320TIP3    H125519   0.290   0.299   0.695 -0.8438 -0.3830 -0.6965
 1320TIP3    H225520   0.318   0.386   0.816  1.3595  0.6006 -1.8695
 1321TIP3   OH225521   6.291   2.778   8.620 -0.0646  0.1885  0.2856
 1321TIP3    H125522   6.345   2.784   8.699  0.1378  1.5823  0.0680
 1321TIP3    H225523   6.344   2.727   8.559  0.3213  0.1757  0.6251
 1322TIP3   OH225524   2.894   1.073   1.368 -0.3446 -0.4907 -0.7678
 1322TIP3    H125525   2.952   1.000   1.345  0.4301  0.2207 -1.0986
 1322TIP3    H225526   2.948   1.151   1.357  0.0326 -0.0088  3.1415
 1323TIP3   OH225527   6.661   1.468   7.096  0.0219  0.4310  0.4616
 1323TIP3    H125528   6.641   1.390   7.147  0.2111  0.2510  0.2602
 1323TIP3    H225529   6.578   1.515   7.091 -0.3676 -0.3122 -0.3658
 1324TIP3   OH225530   4.787   0.837   1.486 -0.4326 -0.0515  0.0676
 1324TIP3    H125531   4.831   0.776   1.544 -0.8920  1.5961  2.2917
 1324TIP3    H225532   4.694   0.825   1.504 -0.5533  0.9312  0.1721
 1325TIP3   OH225533   3.803   1.192   1.716 -0.4987 -0.0202  0.2398
 1325TIP3    H125534   3.774   1.156   1.633 -0.4131 -0.8553  0.5595
 1325TIP3    H225535   3.725   1.187   1.773 -0.8272  1.4027 -0.0403
 1326TIP3   OH225536   6.678   0.111   0.733 -0.1071  0.0165 -0.3526
 1326TIP3    H125537   6.615   0.107   0.661 -1.8965 -1.3422  1.1584
 1326TIP3    H225538   6.730   0.031   0.724  0.3662  0.3582 -0.7023
 1327TIP3   OH225539   3.951   0.564   2.790 -0.2475 -0.0880  0.5444
 1327TIP3    H125540   3.911   0.518   2.863  0.8630 -1.4286  0.3492
 1327TIP3    H225541   4.010   0.500   2.750 -2.2623 -0.0882 -2.7776
 1328TIP3   OH225542   1.701   2.416   2.136 -0.2037 -0.6545  0.8241
 1328TIP3    H125543   1.649   2.440   2.213 -0.8720 -0.4943  0.3293
 1328TIP3    H225544   1.749   2.495   2.113 -2.3684  0.2519 -0.7798
 1329TIP3   OH225545   0.228   6.395   8.064 -0.1796 -0.1021  0.0281
 1329TIP3    H125546   0.290   6.440   8.005 -0.7183  0.2548 -0.2776
 1329TIP3    H225547   0.273   6.314   8.089  0.0964 -0.2128 -0.8011
 1330TIP3   OH225548   4.347   4.918   1.727  0.4015 -0.2451 -0.8086
 1330TIP3    H125549   4.416   4.867   1.769  0.0454  0.7391  1.0978
 1330TIP3    H225550   4.366   5.009   1.752 -2.6135 -0.0889  1.5589
 1331TIP3   OH225551   5.186   6.636   2.089  0.4524 -0.3829  0.5058
 1331TIP3    H125552   5.163   6.592   2.170  1.0000  0.2420  1.0125
 1331TIP3    H225553   5.228   6.717   2.117  0.0674  0.1454 -0.4030
 1332TIP3   OH225554   1.842   5.626   0.311 -0.3447  0.3285 -0.2134
 1332TIP3    H125555   1.857   5.532   0.310 -0.3545  0.3122  0.6759
 1332TIP3    H225556   1.900   5.659   0.380  0.2636  1.0871 -1.0572
 1333TIP3   OH225557   3.399   5.002   7.441 -0.3173 -0.2018 -0.8963
 1333TIP3    H125558   3.352   4.918   7.447 -1.6937  0.5455 -0.7725
 1333TIP3    H225559   3.439   5.000   7.354  0.4111 -1.3570 -0.5488
 1334TIP3   OH225560   1.970   0.947   7.417  0.1254  0.2199  0.3003
 1334TIP3    H125561   2.044   1.005   7.403  0.8688 -0.8710 -0.4140
 1334TIP3    H225562   1.908   0.971   7.347 -0.1400  0.9932  0.7784
 1335TIP3   OH225563   0.808   5.667   0.256 -0.0685 -0.1174  0.6851
 1335TIP3    H125564   0.779   5.757   0.244  0.1380 -0.2481 -1.0709
 1335TIP3    H225565   0.899   5.667   0.228  0.0076 -0.8296  0.9078
 1336TIP3   OH225566   6.535   3.806   0.013 -0.2605 -0.5306 -0.3274
 1336TIP3    H125567   6.472   3.752   0.062 -1.9622  1.8650  0.3133
 1336TIP3    H225568   6.521   3.783  -0.078 -2.2117  0.0092 -0.2075
 1337TIP3   OH225569   2.809   5.495   2.819 -0.5975  0.2883 -0.4525
 1337TIP3    H125570   2.847   5.559   2.880 -1.2270 -0.8804  1.2327
 1337TIP3    H225571   2.871   5.422   2.820  0.0392  0.7375 -2.2497
 1338TIP3   OH225572   2.554   5.004   0.581 -0.2291 -0.3803 -0.2448
 1338TIP3    H125573   2.606   5.046   0.513  2.4126 -2.0585  0.6086
 1338TIP3    H225574   2.466   5.039   0.568  1.1285  3.0703 -1.4184
 1339TIP3   OH225575   2.570   2.678   7.876  0.0924  0.2503  0.0977
 1339TIP3    H125576   2.611   2.628   7.946 -1.4042 -1.8050 -0.4007
 1339TIP3    H225577   2.618   2.651   7.797  0.9593  1.6262  0.1072
 1340TIP3   OH225578   0.898   0.788   2.335 -0.1337  0.4676 -0.4953
 1340TIP3    H125579   0.803   0.772   2.335 -0.8126  3.6896 -0.0756
 1340TIP3    H225580   0.919   0.810   2.426  0.4072  2.3240 -1.0119
 1341TIP3   OH225581   2.722   5.411   7.055 -0.1594  0.0125 -0.2120
 1341TIP3    H125582   2.811   5.376   7.064 -1.0052 -2.3106 -0.2785
 1341TIP3    H225583   2.681   5.357   6.987 -1.5366  1.2812 -0.4629
 1342TIP3   OH225584   6.731   2.343   0.936 -0.0755 -0.2186  0.0758
 1342TIP3    H125585   6.748   2.437   0.924 -2.3820  0.3304  0.5504
 1342TIP3    H225586   6.749   2.305   0.850  0.4627  0.7318 -0.2507
 1343TIP3   OH225587   0.565   3.269   7.846 -0.8204  0.4414 -0.1301
 1343TIP3    H125588   0.609   3.353   7.832 -2.1573  1.0228 -1.0678
 1343TIP3    H225589   0.486   3.275   7.793 -1.3531 -1.0992  0.4529
 1344TIP3   OH225590   3.666   1.074   1.495  0.0850 -0.3216  0.1686
 1344TIP3    H125591   3.710   1.019   1.430 -0.4507 -0.8924  0.2802
 1344TIP3    H225592   3.590   1.023   1.522 -0.5684  0.5912  0.0841
 1345TIP3   OH225593   1.580   2.314   0.853 -0.5564 -0.5394 -0.1359
 1345TIP3    H125594   1.596   2.318   0.759 -0.8238 -0.0689 -0.1632
 1345TIP3    H225595   1.579   2.220   0.873  3.4966 -0.6949  0.1193
 1346TIP3   OH225596   4.082   1.406   7.953  0.0549  0.4615  0.0814
 1346TIP3    H125597   4.005   1.362   7.990 -0.7178  2.6628  1.2377
 1346TIP3    H225598   4.067   1.499   7.970  1.0903  1.3688 -3.2189
 1347TIP3   OH225599   3.895   5.116   2.753  0.0345 -0.2063  0.1808
 1347TIP3    H125600   3.983   5.147   2.735  0.9069 -2.2334  0.6633
 1347TIP3    H225601   3.837   5.179   2.709  1.6901  1.2743  0.0427
 1348TIP3   OH225602   5.953   6.487   1.148  0.1803  0.2623  0.0453
 1348TIP3    H125603   5.987   6.530   1.227 -1.0019 -0.1546  0.8121
 1348TIP3    H225604   5.859   6.482   1.162  0.1148 -1.1937 -0.7088
 1349TIP3   OH225605   4.555   2.215   0.772 -0.3384  0.1699  0.7737
 1349TIP3    H125606   4.604   2.283   0.725 -0.7007 -0.4962 -0.6006
 1349TIP3    H225607   4.621   2.153   0.802 -0.0373  0.9432  1.7643
 1350TIP3   OH225608   1.267   4.199   6.694  0.4590 -0.4952  0.0329
 1350TIP3    H125609   1.339   4.141   6.668 -0.2347 -1.5899  0.4454
 1350TIP3    H225610   1.201   4.139   6.731 -0.3147  0.5662  0.4131
 1351TIP3   OH225611   0.437   4.809   8.390 -0.2733  0.3460  0.0138
 1351TIP3    H125612   0.483   4.759   8.459 -1.2424  1.7195  1.7391
 1351TIP3    H225613   0.447   4.755   8.312 -0.0509 -1.8586  1.4485
 1352TIP3   OH225614   4.011   6.364   1.133 -0.0058  0.4354 -0.8562
 1352TIP3    H125615   4.098   6.363   1.092  1.7762 -0.3740  2.5520
 1352TIP3    H225616   3.960   6.300   1.082  3.2708 -3.5346  0.2482
 1353TIP3   OH225617   5.679   6.503   6.977  0.0547 -0.7436 -0.3130
 1353TIP3    H125618   5.740   6.531   7.046 -1.0056 -0.0476  0.3838
 1353TIP3    H225619   5.704   6.554   6.900  0.7205 -0.9023 -0.2034
 1354TIP3   OH225620   4.874   3.304   2.445  0.2070 -0.5826  0.1994
 1354TIP3    H125621   4.905   3.395   2.453 -2.2482  0.1968  1.7882
 1354TIP3    H225622   4.950   3.251   2.469  1.8205  0.9914 -1.1336
 1355TIP3   OH225623   0.816   0.814   0.300 -0.1623 -0.1228  0.4197
 1355TIP3    H125624   0.907   0.788   0.287  0.1718  0.7816  0.8575
 1355TIP3    H225625   0.779   0.815   0.212  0.0595 -1.1341  0.3014
 1356TIP3   OH225626   1.534   6.313   8.241 -0.9096  0.7524 -0.1718
 1356TIP3    H125627   1.532   6.280   8.152 -0.5763  0.2764 -0.0107
 1356TIP3    H225628   1.614   6.276   8.278 -1.0575  0.9262  0.3316
 1357TIP3   OH225629   6.544   4.752   8.281  0.4548  0.0658  0.0600
 1357TIP3    H125630   6.592   4.744   8.198  1.5158 -1.4676  0.7758
 1357TIP3    H225631   6.588   4.824   8.327  1.1090 -0.3366  0.0787
 1358TIP3   OH225632   0.144   3.997   8.631  0.4345  0.0593 -0.1614
 1358TIP3    H125633   0.223   4.046   8.654  0.1874 -0.2190  1.3407
 1358TIP3    H225634   0.103   3.976   8.714 -0.7229 -0.6544 -0.8805
 1359TIP3   OH225635   5.409   1.113   2.782 -0.6287  0.0007 -0.2354
 1359TIP3    H125636   5.432   1.200   2.748  0.2589  0.0798  0.5417
 1359TIP3    H225637   5.314   1.117   2.796 -0.2638  1.8805  2.5327
 1360TIP3   OH225638   3.738   6.644   1.228 -0.0948 -0.2803 -0.1003
 1360TIP3    H125639   3.697   6.617   1.310 -0.1017 -0.6720 -0.2295
 1360TIP3    H225640   3.737   6.565   1.174  0.1875 -0.1052 -0.3643
 1361TIP3   OH225641   3.700   1.240   2.377 -0.5828 -0.7077 -0.6096
 1361TIP3    H125642   3.627   1.203   2.426 -1.3312 -0.1477 -1.2858
 1361TIP3    H225643   3.754   1.164   2.354  0.0798 -0.9355  1.5064
 1362TIP3   OH225644   3.177   3.825   1.197 -0.4474 -0.4727  0.3288
 1362TIP3    H125645   3.135   3.876   1.128 -0.9806 -0.1117  0.8962
 1362TIP3    H225646   3.131   3.741   1.196  0.6133 -1.0680 -0.7851
 1363TIP3   OH225647   2.643   0.540   8.067  0.3529 -0.1783  0.2136
 1363TIP3    H125648   2.620   0.609   8.004  3.2397  0.8506  0.1241
 1363TIP3    H225649   2.561   0.521   8.112 -0.7030  3.0278 -0.0625
 1364TIP3   OH225650   6.275   0.918   0.370  0.0366 -0.4604 -0.1190
 1364TIP3    H125651   6.212   0.885   0.307 -0.0242 -0.0664 -0.2627
 1364TIP3    H225652   6.348   0.950   0.317  0.2117 -0.6088  0.0316
 1365TIP3   OH225653   2.512   3.957   0.595 -0.3173 -0.1831  0.0803
 1365TIP3    H125654   2.433   3.963   0.649 -1.3563 -1.8137 -1.1589
 1365TIP3    H225655   2.584   3.951   0.658 -1.0201  2.3963  1.2529
 1366TIP3   OH225656   2.744   0.225   7.924 -0.1217 -0.5723  0.3087
 1366TIP3    H125657   2.781   0.213   7.837  0.2239  1.7759  0.0651
 1366TIP3    H225658   2.651   0.208   7.913 -0.3091  0.9814 -0.8652
 1367TIP3   OH225659   0.451   4.469   0.117 -0.4333  0.5425  0.2915
 1367TIP3    H125660   0.409   4.415   0.184 -0.5720 -0.1490 -0.3403
 1367TIP3    H225661   0.528   4.418   0.090 -0.2829  0.8986  0.0425
 1368TIP3   OH225662   6.470   6.011   0.762  1.0111 -0.6122 -0.5466
 1368TIP3    H125663   6.533   6.009   0.690  2.5419 -0.0053  0.7098
 1368TIP3    H225664   6.384   6.010   0.720  1.8554  0.7946 -2.4163
 1369TIP3   OH225665   2.405   5.127   7.687  0.4535  0.2752 -0.2993
 1369TIP3    H125666   2.397   5.160   7.777  0.8287 -1.3376  0.3701
 1369TIP3    H225667   2.316   5.100   7.664  0.0705  2.0108 -0.9910
 1370TIP3   OH225668   2.361   5.391   0.415  0.4977 -0.8943 -0.1204
 1370TIP3    H125669   2.409   5.320   0.372  0.4601  0.2061 -2.1477
 1370TIP3    H225670   2.269   5.364   0.410  0.2235  0.1831 -2.9766
 1371TIP3   OH225671   5.094   0.646   1.522  0.4599  0.0246  0.1969
 1371TIP3    H125672   5.099   0.551   1.513  0.7881  0.1046 -0.5029
 1371TIP3    H225673   5.127   0.680   1.439 -0.3170  0.7442  0.1722
 1372TIP3   OH225674   2.075   5.042   8.628  0.6238 -0.5396  0.1677
 1372TIP3    H125675   1.998   5.059   8.574  0.2776 -0.0864  0.7943
 1372TIP3    H225676   2.094   4.949   8.614 -0.5237 -0.8621  0.6206
 1373TIP3   OH225677   1.409   4.339   7.501 -0.7447 -0.0769  0.1862
 1373TIP3    H125678   1.403   4.354   7.407 -0.8978 -1.2134 -0.0074
 1373TIP3    H225679   1.478   4.273   7.510 -0.4387  0.3317  0.9112
 1374TIP3   OH225680   1.106   1.009   2.401 -0.0273  0.1553  0.3244
 1374TIP3    H125681   1.169   0.954   2.448 -0.2268 -0.5218 -0.1803
 1374TIP3    H225682   1.131   1.000   2.309  0.5378  1.6911  0.2902
 1375TIP3   OH225683   5.374   0.555   7.093 -0.0061 -0.0627  0.8597
 1375TIP3    H125684   5.288   0.567   7.052  0.3892 -1.2496 -0.3743
 1375TIP3    H225685   5.416   0.641   7.084 -1.1928  0.6593  1.8643
 1376TIP3   OH225686   5.233   4.539   1.591 -0.1619 -0.4526 -0.0716
 1376TIP3    H125687   5.160   4.558   1.532  0.3918 -1.2102 -1.0335
 1376TIP3    H225688   5.241   4.443   1.588 -0.1929 -0.5108  1.3297
 1377TIP3   OH225689   3.213   2.529   2.018  0.1136  0.0311 -0.1654
 1377TIP3    H125690   3.236   2.474   1.943 -0.4938 -1.0787  0.4435
 1377TIP3    H225691   3.128   2.496   2.047  0.5494  0.1424  1.2960
 1378TIP3   OH225692   0.140   3.544   7.731  0.3161 -0.3139 -0.2355
 1378TIP3    H125693   0.163   3.612   7.667 -0.4010  0.2333  0.0759
 1378TIP3    H225694   0.073   3.492   7.687  1.4443 -1.3526 -0.7930
 1379TIP3   OH225695   6.790   1.060   8.140  0.0992  0.4080  0.8273
 1379TIP3    H125696   6.831   0.987   8.094 -3.9815 -1.8284  0.2486
 1379TIP3    H225697   6.792   1.133   8.077 -0.9510 -1.0935 -1.0556
 1380TIP3   OH225698   2.413   2.898   7.787  0.5427  0.6177  0.0790
 1380TIP3    H125699   2.450   2.903   7.698 -0.7098  0.2786 -0.4897
 1380TIP3    H225700   2.464   2.830   7.830 -0.5885 -1.2547 -1.3260
 1381TIP3   OH225701   6.313   6.106   3.288 -0.0931 -0.1896 -0.4728
 1381TIP3    H125702   6.291   6.034   3.346 -0.7342 -0.1658 -0.6851
 1381TIP3    H225703   6.408   6.115   3.297 -0.1614 -0.2872  0.4511
 1382TIP3   OH225704   1.672   0.803   1.355  0.0519  0.2817 -0.0289
 1382TIP3    H125705   1.635   0.738   1.414  1.0081  0.7488  1.1381
 1382TIP3    H225706   1.725   0.753   1.293 -1.4284 -0.2681 -0.9030
 1383TIP3   OH225707   0.317   1.286   1.289 -0.0624 -0.5830 -0.0381
 1383TIP3    H125708   0.343   1.194   1.285 -0.3275 -0.7711  1.6505
 1383TIP3    H225709   0.290   1.299   1.380  1.4055  1.5643  0.1527
 1384TIP3   OH225710   1.643   2.429   0.109  0.4949 -0.2795 -0.2484
 1384TIP3    H125711   1.547   2.437   0.107  0.5728  0.7869 -0.0869
 1384TIP3    H225712   1.661   2.354   0.051 -0.3596  0.3027 -1.3077
 1385TIP3   OH225713   0.634   2.522   6.578 -0.0709 -0.3305  0.1673
 1385TIP3    H125714   0.629   2.617   6.594  0.4739 -0.2174 -0.3046
 1385TIP3    H225715   0.551   2.488   6.612  0.6070  0.0160  2.3314
 1386TIP3   OH225716   0.969   4.235   1.225 -0.6145 -0.6573  0.1172
 1386TIP3    H125717   0.920   4.233   1.143  0.5403  3.0292 -0.8368
 1386TIP3    H225718   1.044   4.178   1.209 -1.1597 -1.1493 -0.7974
 1387TIP3   OH225719   1.460   0.305   0.039  0.0990  0.4318 -0.5240
 1387TIP3    H125720   1.524   0.268   0.099  0.3803  2.9493  0.8749
 1387TIP3    H225721   1.504   0.382   0.002 -1.6497  1.5049 -0.4909
 1388TIP3   OH225722   1.388   1.353   7.973  0.5969  0.3369  0.2137
 1388TIP3    H125723   1.418   1.444   7.982 -0.2134  0.5021  1.5350
 1388TIP3    H225724   1.447   1.315   7.908  0.5088  1.9948 -0.9015
 1389TIP3   OH225725   1.968   0.811   0.715  0.0630 -0.5564 -0.1541
 1389TIP3    H125726   1.914   0.881   0.752  1.8452  1.0948 -0.5140
 1389TIP3    H225727   1.935   0.799   0.626 -1.0862 -1.1174  0.3308
 1390TIP3   OH225728   1.500   5.918   0.524  0.6415  0.0758 -0.0364
 1390TIP3    H125729   1.554   5.839   0.521 -0.2304 -0.7013  2.1750
 1390TIP3    H225730   1.495   5.947   0.434  0.3732 -2.8623 -1.0886
 1391TIP3   OH225731   4.670   5.862   6.895 -0.3503 -0.5940 -0.4662
 1391TIP3    H125732   4.603   5.810   6.851  0.1569 -2.2476  0.6281
 1391TIP3    H225733   4.638   5.870   6.985  0.0657  0.1516 -0.3817
 1392TIP3   OH225734   4.619   4.021   0.365 -0.2258  0.2386  0.3433
 1392TIP3    H125735   4.687   4.031   0.432 -1.0390  0.8041  1.1200
 1392TIP3    H225736   4.627   4.099   0.311  0.2026 -0.0437 -0.0000
 1393TIP3   OH225737   1.622   0.168   2.262 -0.5008  0.0971  0.2994
 1393TIP3    H125738   1.609   0.222   2.340  1.3089  1.5392 -0.3321
 1393TIP3    H225739   1.714   0.181   2.239 -0.4193 -2.0377 -0.8195
 1394TIP3   OH225740   6.478   2.890   7.903 -0.2804  0.0108  0.3463
 1394TIP3    H125741   6.444   2.941   7.977 -1.4059  1.7397 -1.2471
 1394TIP3    H225742   6.573   2.899   7.909 -0.3343 -0.1528  1.7365
 1395TIP3   OH225743   2.227   3.894   0.088 -0.4139  0.1974 -0.0620
 1395TIP3    H125744   2.295   3.939   0.036  0.6488 -0.3191  0.8319
 1395TIP3    H225745   2.276   3.839   0.149 -1.6816 -1.6563 -0.6442
 1396TIP3   OH225746   3.805   1.790   0.874 -0.0898 -0.0865 -0.0985
 1396TIP3    H125747   3.866   1.762   0.805  0.2554  1.2803 -0.3946
 1396TIP3    H225748   3.718   1.778   0.835 -0.0102 -1.5372  0.1253
 1397TIP3   OH225749   4.233   2.924   6.623 -0.7786 -0.1297 -0.4351
 1397TIP3    H125750   4.289   3.001   6.635 -1.3076  0.1514  0.2727
 1397TIP3    H225751   4.213   2.925   6.529 -0.3125  0.2649 -0.5371
 1398TIP3   OH225752   1.320   1.677   1.678 -0.5864 -0.9041 -0.2839
 1398TIP3    H125753   1.331   1.620   1.602  1.7607 -1.9185  0.7073
 1398TIP3    H225754   1.364   1.630   1.749  1.8445  2.2572  0.5181
 1399TIP3   OH225755   6.509   3.224   1.538 -0.0344  0.1209  0.3238
 1399TIP3    H125756   6.436   3.273   1.499 -0.7024  1.2246  2.7904
 1399TIP3    H225757   6.567   3.291   1.573  1.2325 -0.8052  0.0899
 1400TIP3   OH225758   4.793   2.675   0.812  0.2666  0.6356 -0.4446
 1400TIP3    H125759   4.847   2.617   0.758  0.7768 -0.3073  1.0170
 1400TIP3    H225760   4.728   2.711   0.751  0.7706 -0.4318 -1.6615
 1401TIP3   OH225761   2.873   2.343   0.159 -0.0241 -0.6591 -0.2648
 1401TIP3    H125762   2.847   2.430   0.189 -2.8049 -1.9558  1.4763
 1401TIP3    H225763   2.863   2.346   0.064 -0.3849  0.8376 -0.1947
 1402TIP3   OH225764   0.018   0.601   1.546 -0.3984  0.1076  0.1255
 1402TIP3    H125765   0.007   0.510   1.574 -0.5926  0.5125  1.4267
 1402TIP3    H225766  -0.043   0.650   1.600  0.2744  1.1117 -0.0096
 1403TIP3   OH225767   4.421   3.247   8.165 -0.0149  0.2711  0.1045
 1403TIP3    H125768   4.437   3.153   8.154 -0.0818  0.1892  0.6610
 1403TIP3    H225769   4.343   3.252   8.220  0.8402  0.6353  1.3276
 1404TIP3   OH225770   2.311   4.439   2.976 -0.1155 -0.1250 -1.1386
 1404TIP3    H125771   2.247   4.369   2.966 -1.9476  1.0464  1.1576
 1404TIP3    H225772   2.276   4.512   2.924 -0.7094  0.5131  0.1069
 1405TIP3   OH225773   5.763   1.641   2.240 -0.2979  0.6298  0.1902
 1405TIP3    H125774   5.720   1.616   2.321  0.6426 -0.8397  0.2768
 1405TIP3    H225775   5.696   1.631   2.173 -0.3699 -0.7900  0.4398
 1406TIP3   OH225776   3.270   4.771   2.393 -0.0008  0.0837 -0.3478
 1406TIP3    H125777   3.310   4.714   2.459 -0.0276 -1.8221 -1.8998
 1406TIP3    H225778   3.189   4.727   2.369 -0.8473  1.6374 -0.4315
 1407TIP3   OH225779   1.545   0.523   2.250 -0.0263 -0.6181 -0.0216
 1407TIP3    H125780   1.534   0.465   2.326 -0.0685 -1.6247 -0.7874
 1407TIP3    H225781   1.459   0.523   2.208 -0.4908  1.2207  0.7851
 1408TIP3   OH225782   3.520   6.473   3.160 -0.5187  0.1245  0.3514
 1408TIP3    H125783   3.551   6.396   3.112 -1.1819  1.6553 -2.7953
 1408TIP3    H225784   3.570   6.546   3.122 -2.3035  1.6353  0.7698
 1409TIP3   OH225785   1.326   3.226   1.848 -0.1868 -0.0973  0.2236
 1409TIP3    H125786   1.358   3.303   1.802 -1.2349  0.4216  0.3342
 1409TIP3    H225787   1.265   3.261   1.913 -0.1953 -0.9710  0.6989
 1410TIP3   OH225788   2.658   5.348   2.227 -0.3376  0.2176 -0.1069
 1410TIP3    H125789   2.743   5.388   2.243  0.3625 -1.1915 -0.1589
 1410TIP3    H225790   2.606   5.417   2.187  1.5859  0.4268 -2.4811
 1411TIP3   OH225791   3.382   0.374   8.630  0.2377 -0.4177 -0.2206
 1411TIP3    H125792   3.428   0.458   8.629 -0.3591 -0.0560  1.0384
 1411TIP3    H225793   3.404   0.334   8.545  1.5191  0.4555 -0.3355
 1412TIP3   OH225794   1.459   4.227   0.087  0.0886 -0.1659  0.8789
 1412TIP3    H125795   1.537   4.215   0.141  0.8521  2.1772  0.3994
 1412TIP3    H225796   1.491   4.219  -0.003 -0.5315 -0.7068  0.6988
 1413TIP3   OH225797   3.585   3.302   1.175 -0.0698  0.6152  0.2681
 1413TIP3    H125798   3.667   3.257   1.196 -1.5120 -1.5345  1.7414
 1413TIP3    H225799   3.519   3.233   1.178 -2.0874  2.4384  0.1463
 1414TIP3   OH225800   2.232   6.431   1.589 -0.5839 -0.1493  0.7138
 1414TIP3    H125801   2.156   6.486   1.571 -0.4313 -0.0789  0.2939
 1414TIP3    H225802   2.194   6.345   1.608 -0.6875 -0.5834 -1.2845
 1415TIP3   OH225803   5.581   5.588   2.706 -0.6769 -0.0439  0.3098
 1415TIP3    H125804   5.558   5.510   2.657 -1.6906  1.0896 -1.0983
 1415TIP3    H225805   5.653   5.627   2.657 -0.3330  0.0487  0.8735
 1416TIP3   OH225806   5.355   4.987   1.297 -0.5720 -0.3871  0.0962
 1416TIP3    H125807   5.429   4.960   1.350 -1.5868 -0.8175  1.3522
 1416TIP3    H225808   5.351   4.921   1.227 -0.3944 -0.9741  0.6237
 1417TIP3   OH225809   3.181   1.005   7.115 -0.5093  0.4769 -0.0057
 1417TIP3    H125810   3.116   0.939   7.090 -0.0054  0.8610 -2.5857
 1417TIP3    H225811   3.262   0.976   7.072  0.2030  1.7623  0.4196
 1418TIP3   OH225812   6.559   4.853   0.117 -0.1729  0.2024  0.1100
 1418TIP3    H125813   6.508   4.907   0.176  1.9042  1.1291  1.1781
 1418TIP3    H225814   6.606   4.792   0.175  0.0046 -0.5441 -0.7980
 1419TIP3   OH225815   3.150   5.845   0.030 -0.1233  0.0588 -0.1298
 1419TIP3    H125816   3.201   5.776  -0.012 -1.7962  0.5764 -3.3366
 1419TIP3    H225817   3.094   5.879  -0.040 -2.0699  2.1106  2.2476
 1420TIP3   OH225818   2.435   4.531   1.439  0.3947  0.7006 -0.2139
 1420TIP3    H125819   2.387   4.469   1.384  0.8435  0.5147 -0.4037
 1420TIP3    H225820   2.372   4.559   1.505  1.0842 -2.7590  2.1944
 1421TIP3   OH225821   0.664   0.200   1.620 -0.1524  0.8157  0.4652
 1421TIP3    H125822   0.656   0.295   1.617  2.2063  1.1075  1.2734
 1421TIP3    H225823   0.738   0.180   1.562 -0.4203 -0.4776  0.5350
 1422TIP3   OH225824   0.096   0.976   0.560  0.0777 -0.3534 -0.1893
 1422TIP3    H125825   0.017   0.922   0.557  0.4051 -0.8728  0.2960
 1422TIP3    H225826   0.073   1.050   0.615  0.1657 -0.9173  0.6297
 1423TIP3   OH225827   0.857   1.964   7.367  0.2162 -0.5193  0.1686
 1423TIP3    H125828   0.790   1.958   7.299 -0.7002  0.8334  0.9152
 1423TIP3    H225829   0.929   1.909   7.334  0.1487  0.7106 -2.2655
 1424TIP3   OH225830   1.324   2.909   2.025  0.3234  0.6586  0.1466
 1424TIP3    H125831   1.241   2.863   2.023  0.4847  0.3905 -0.5724
 1424TIP3    H225832   1.388   2.843   2.052  0.8854 -0.1210 -2.7829
 1425TIP3   OH225833   3.037   1.243   0.259 -0.0426 -0.1934  0.3204
 1425TIP3    H125834   3.020   1.319   0.315  0.0645  1.3262 -1.6274
 1425TIP3    H225835   3.122   1.210   0.288  0.7209  1.4901  0.0909
 1426TIP3   OH225836   3.385   1.233   0.009 -0.0231 -0.6973 -0.5254
 1426TIP3    H125837   3.452   1.201  -0.050 -0.2624 -0.7318 -0.7806
 1426TIP3    H225838   3.325   1.282  -0.048  1.2547  1.7169  0.0632
 1427TIP3   OH225839   5.307   5.483   8.484 -0.4974  0.0586 -0.2786
 1427TIP3    H125840   5.326   5.396   8.448 -0.9307 -0.5345  0.8607
 1427TIP3    H225841   5.231   5.513   8.436 -0.7359 -0.4800 -0.2455
 1428TIP3   OH225842   2.111   5.877   0.217 -0.3040  0.2367 -0.0061
 1428TIP3    H125843   2.045   5.815   0.186  0.3385  0.0045 -0.9489
 1428TIP3    H225844   2.191   5.853   0.169  0.1423  1.3150  0.1692
 1429TIP3   OH225845   1.416   5.298   1.951 -0.6382 -0.0571 -0.0263
 1429TIP3    H125846   1.337   5.245   1.938  0.8322 -2.3649  0.0019
 1429TIP3    H225847   1.436   5.289   2.044  0.5723 -0.9043 -0.3448
 1430TIP3   OH225848   5.425   0.412   7.537  0.3562  0.1556  0.4956
 1430TIP3    H125849   5.393   0.383   7.622 -1.0357  1.2609  0.3786
 1430TIP3    H225850   5.514   0.377   7.531 -0.4270 -2.1520  1.2960
 1431TIP3   OH225851   0.315   1.613   1.335 -0.5231 -0.3191  0.9966
 1431TIP3    H125852   0.341   1.699   1.303  1.1397 -0.7364  1.1172
 1431TIP3    H225853   0.370   1.552   1.285 -1.8513 -1.3345  0.7299
 1432TIP3   OH225854   4.812   3.138   8.347 -0.0094  0.4110  0.6191
 1432TIP3    H125855   4.765   3.057   8.328 -2.6604  1.8954  0.3778
 1432TIP3    H225856   4.896   3.127   8.303 -0.8786 -1.6007 -0.7041
 1433TIP3   OH225857   6.261   3.469   8.412  0.0154 -0.0378 -0.5392
 1433TIP3    H125858   6.283   3.515   8.494  0.3288  0.2084 -0.7577
 1433TIP3    H225859   6.346   3.447   8.374 -0.1238  0.1455 -0.9659
 1434TIP3   OH225860   4.425   0.478   7.598 -0.0036 -0.2327 -0.9760
 1434TIP3    H125861   4.508   0.506   7.559 -1.0175  0.8518 -2.5088
 1434TIP3    H225862   4.423   0.383   7.585  0.8281 -0.2272 -1.2260
 1435TIP3   OH225863   0.573   4.867   0.796  0.1635  0.5113  0.0776
 1435TIP3    H125864   0.595   4.947   0.844  0.5736  0.4314  0.0262
 1435TIP3    H225865   0.477   4.861   0.801  0.2679 -0.3029  2.1759
 1436TIP3   OH225866   4.925   5.367   0.528 -0.5151 -0.3536 -0.3222
 1436TIP3    H125867   4.853   5.427   0.546 -1.3974 -1.5220  0.1658
 1436TIP3    H225868   4.985   5.417   0.473 -0.5134  1.4477  1.2484
 1437TIP3   OH225869   1.698   3.525   2.108  0.0230  0.6109  0.1101
 1437TIP3    H125870   1.689   3.612   2.146 -1.0389  0.3116  0.5900
 1437TIP3    H225871   1.740   3.539   2.023 -1.6332  1.7864 -0.5656
 1438TIP3   OH225872   2.363   3.215   0.277 -0.0505 -0.3980  0.0823
 1438TIP3    H125873   2.427   3.182   0.340  1.6661  1.5515 -0.5076
 1438TIP3    H225874   2.406   3.204   0.192 -0.7248  0.4306 -0.3761
 1439TIP3   OH225875   6.498   5.942   8.099  1.2530  0.5499 -0.1919
 1439TIP3    H125876   6.581   5.988   8.094  1.9000 -0.6252 -0.7724
 1439TIP3    H225877   6.435   6.001   8.057  1.4051  2.2007  1.7673
 1440TIP3   OH225878   6.357   4.100   0.077  0.1946 -0.4253 -0.2681
 1440TIP3    H125879   6.334   4.010   0.099 -2.3868 -0.0212 -0.9665
 1440TIP3    H225880   6.317   4.153   0.146  0.6043  0.2460 -0.5322
 1441TIP3   OH225881   6.678   3.398   1.639  0.6137 -0.1954 -0.1521
 1441TIP3    H125882   6.753   3.405   1.698  0.6040 -0.1063 -0.1512
 1441TIP3    H225883   6.641   3.486   1.635  0.4972 -0.2424 -0.1382
 1442TIP3   OH225884   4.279   2.865   1.893  0.7427 -0.0948 -0.0716
 1442TIP3    H125885   4.213   2.927   1.863 -1.3222 -1.9888  0.2660
 1442TIP3    H225886   4.323   2.909   1.965  0.3528  1.4913 -0.7601
 1443TIP3   OH225887   4.297   4.452   8.192 -0.0540  0.2731 -0.8585
 1443TIP3    H125888   4.344   4.452   8.109 -1.1184  1.3483 -1.4992
 1443TIP3    H225889   4.351   4.505   8.251 -0.0501  0.8223 -1.3466
 1444TIP3   OH225890   6.305   1.307   0.998  0.0578 -0.6230 -0.0252
 1444TIP3    H125891   6.234   1.258   0.957 -0.6920 -1.2914  1.9874
 1444TIP3    H225892   6.261   1.371   1.054  1.0235 -1.1450  1.3722
 1445TIP3   OH225893   3.323   1.935   0.811  0.4192  0.0139  0.1413
 1445TIP3    H125894   3.252   1.908   0.869  0.0661 -0.5305 -0.5248
 1445TIP3    H225895   3.318   2.031   0.809 -1.0302 -0.0391 -0.7621
 1446TIP3   OH225896   1.984   5.544   2.744  0.2090 -0.2171  0.1039
 1446TIP3    H125897   1.967   5.620   2.799  0.5920 -0.5030  0.6209
 1446TIP3    H225898   1.917   5.549   2.675  0.2845  0.6315  0.0789
 1447TIP3   OH225899   1.757   0.859   7.998 -0.0708  0.0575  0.1541
 1447TIP3    H125900   1.814   0.861   8.074 -0.1314  0.6413  0.1890
 1447TIP3    H225901   1.733   0.951   7.983 -1.7355 -0.2521  0.7032
 1448TIP3   OH225902   1.834   5.223   0.964 -0.2105 -0.6240 -0.6153
 1448TIP3    H125903   1.815   5.303   0.916  0.0195  0.0506  0.3946
 1448TIP3    H225904   1.749   5.195   0.999  0.0668  0.6066  1.1697
 1449TIP3   OH225905   0.736   5.364   0.840  0.3177  0.4560  0.1645
 1449TIP3    H125906   0.812   5.416   0.865  0.2992  0.8290 -0.5275
 1449TIP3    H225907   0.682   5.423   0.788  0.0583 -0.1084 -0.2199
 1450TIP3   OH225908   5.230   2.486   8.533  0.0971 -0.3182  0.3420
 1450TIP3    H125909   5.292   2.482   8.460 -0.6821 -1.4136 -0.3001
 1450TIP3    H225910   5.165   2.551   8.506 -1.0021 -1.7662 -0.6536
 1451TIP3   OH225911   3.626   2.521   7.515 -0.1361  0.3088 -0.0311
 1451TIP3    H125912   3.617   2.464   7.439  0.2899 -0.4849  0.5038
 1451TIP3    H225913   3.595   2.469   7.589 -1.3790  1.3761  0.2306
 1452TIP3   OH225914   0.118   3.207   8.386 -0.1575 -0.0064  0.6322
 1452TIP3    H125915   0.038   3.199   8.335  0.0302 -0.0736  0.3466
 1452TIP3    H225916   0.163   3.284   8.349  0.7623 -1.0055 -0.3958
 1453TIP3   OH225917   2.177   6.191   0.178  0.3161 -0.6219  0.1538
 1453TIP3    H125918   2.135   6.154   0.101 -1.1652 -0.3363  0.7924
 1453TIP3    H225919   2.254   6.136   0.192  1.4552  0.2090 -2.3485
 1454TIP3   OH225920   6.760   0.189   0.076  0.6185 -0.6700  0.1560
 1454TIP3    H125921   6.820   0.135   0.025 -0.2762 -0.6321 -0.9847
 1454TIP3    H225922   6.771   0.278   0.041 -0.2313 -0.6989 -0.2141
 1455TIP3   OH225923   1.606   0.818   8.377  0.0060 -0.0055 -0.1179
 1455TIP3    H125924   1.543   0.855   8.315  0.2062 -0.1053 -0.3841
 1455TIP3    H225925   1.657   0.756   8.325  1.4617  1.3091 -0.3284
 1456TIP3   OH225926   0.783   1.679   2.116 -0.4950  0.4603  0.0894
 1456TIP3    H125927   0.812   1.756   2.166  0.2250  0.2909 -0.0578
 1456TIP3    H225928   0.861   1.652   2.068 -0.9121 -0.0028 -0.3244
 1457TIP3   OH225929   3.106   0.027   1.505  0.6837 -0.3648 -0.3881
 1457TIP3    H125930   3.081   0.065   1.421  1.1324 -1.1623 -0.9012
 1457TIP3    H225931   3.201   0.038   1.509  0.5753  0.3468  0.3663
 1458TIP3   OH225932   3.036   2.010   7.215 -0.5957  0.2246  0.0418
 1458TIP3    H125933   3.081   2.095   7.207 -0.9377  0.6821  2.2565
 1458TIP3    H225934   2.950   2.032   7.252 -0.7173 -1.0836  0.5847
 1459TIP3   OH225935   0.482   5.127   2.606 -0.3115 -0.4454  0.6038
 1459TIP3    H125936   0.429   5.057   2.645 -1.6831  1.1255  1.7329
 1459TIP3    H225937   0.418   5.194   2.582  0.8014 -0.1347 -1.8040
 1460TIP3   OH225938   1.466   5.889   7.688 -0.2291 -0.0536  0.4260
 1460TIP3    H125939   1.488   5.814   7.631  2.3486  0.2782  0.8377
 1460TIP3    H225940   1.545   5.943   7.686 -1.4286  1.8188  1.4798
 1461TIP3   OH225941   0.739   0.876   2.853 -0.2627  0.2218  0.0979
 1461TIP3    H125942   0.776   0.887   2.940 -2.5437  0.0730  1.1646
 1461TIP3    H225943   0.644   0.879   2.867 -0.7049 -0.7263 -2.2545
 1462TIP3   OH225944   0.143   2.926   1.087  0.4190  0.0304  0.3231
 1462TIP3    H125945   0.119   2.913   0.996  1.0438 -0.8183  0.2720
 1462TIP3    H225946   0.067   2.971   1.125 -0.1017 -0.1575 -0.4682
 1463TIP3   OH225947   3.288   3.348   8.028 -0.4867  0.0527  0.4760
 1463TIP3    H125948   3.317   3.335   8.118 -0.0285 -0.9570  0.1951
 1463TIP3    H225949   3.369   3.368   7.980 -0.7999  1.1504  0.3770
 1464TIP3   OH225950   3.296   4.251   2.856 -0.7485 -0.1476  0.1630
 1464TIP3    H125951   3.218   4.265   2.802 -0.3654 -1.7495 -0.8833
 1464TIP3    H225952   3.347   4.331   2.844 -1.0330 -0.1473 -1.2822
 1465TIP3   OH225953   5.254   5.549   7.649  0.6464 -0.0050  0.2770
 1465TIP3    H125954   5.183   5.516   7.594  0.0985 -1.8219  1.9876
 1465TIP3    H225955   5.230   5.641   7.666 -1.5500 -0.6732  1.1257
 1466TIP3   OH225956   2.386   2.243   0.546  0.2879  0.1795  0.0937
 1466TIP3    H125957   2.292   2.227   0.552  0.4747 -1.4275 -0.8201
 1466TIP3    H225958   2.394   2.336   0.523 -1.0376  0.4898  0.8184
 1467TIP3   OH225959   1.477   4.170   2.363  0.2043  0.6086 -0.4372
 1467TIP3    H125960   1.554   4.114   2.356 -0.9039 -0.8721 -1.3538
 1467TIP3    H225961   1.473   4.216   2.279  0.6395  1.4691 -0.0018
 1468TIP3   OH225962   1.713   5.531   8.658  1.0127  0.4849  0.2001
 1468TIP3    H125963   1.649   5.565   8.720  0.6396  0.8510 -0.3810
 1468TIP3    H225964   1.729   5.603   8.597  0.9836 -0.0288 -0.4358
 1469TIP3   OH225965   1.676   4.055   8.612  0.1024  0.4404 -0.2196
 1469TIP3    H125966   1.749   4.114   8.595 -1.2324  1.8817 -1.2086
 1469TIP3    H225967   1.707   3.997   8.682  1.6126  2.0601  0.5175
 1470TIP3   OH225968   1.169   0.249   2.990 -0.4749 -0.6827  0.0409
 1470TIP3    H125969   1.186   0.343   2.989 -0.2206 -0.7159 -1.5569
 1470TIP3    H225970   1.083   0.239   2.950 -1.3141 -1.0343  1.8326
 1471TIP3   OH225971   5.621   6.320   8.235 -0.0754 -0.2922  0.1767
 1471TIP3    H125972   5.564   6.382   8.280  0.3782  0.4397 -0.2376
 1471TIP3    H225973   5.632   6.357   8.147  1.1541 -0.3291  0.2941
 1472TIP3   OH225974   4.572   4.378   2.106  0.2440  0.4890  0.6496
 1472TIP3    H125975   4.488   4.334   2.119  0.1096  0.5892  0.1413
 1472TIP3    H225976   4.549   4.462   2.066  0.6020  0.4154  0.2842
 1473TIP3   OH225977   2.345   4.834   7.955 -0.1800 -0.1699 -0.9414
 1473TIP3    H125978   2.372   4.755   7.909  0.0806  0.3635 -1.7372
 1473TIP3    H225979   2.275   4.871   7.901 -1.4799 -0.7188  0.2978
 1474TIP3   OH225980   2.031   1.720   2.572  0.2665 -0.1779 -0.1240
 1474TIP3    H125981   2.011   1.673   2.654  3.2327  0.4008  1.0373
 1474TIP3    H225982   2.048   1.810   2.599  0.2148  0.2890 -1.5623
 1475TIP3   OH225983   3.423   6.676   1.996 -0.4234  0.0533  0.1022
 1475TIP3    H125984   3.517   6.667   1.978 -0.3052 -1.5073  1.3208
 1475TIP3    H225985   3.383   6.674   1.909  0.6115 -0.2577 -0.3917
 1476TIP3   OH225986   1.564   0.011   0.012 -0.0182  0.1859 -0.4795
 1476TIP3    H125987   1.544   0.046   0.099 -0.0123 -1.4255  0.2241
 1476TIP3    H225988   1.625   0.074  -0.026  2.9993 -0.7880  2.2010
 1477TIP3   OH225989   4.925   2.135   1.706  0.2110  0.5555  1.0864
 1477TIP3    H125990   4.943   2.121   1.799 -0.3793 -0.1767  1.0919
 1477TIP3    H225991   4.857   2.202   1.704 -2.1089 -1.6244  1.3418
 1478TIP3   OH225992   4.990   5.501   3.014  0.1520 -0.1958 -0.1014
 1478TIP3    H125993   4.908   5.550   3.001  0.2308 -0.1879 -0.5827
 1478TIP3    H225994   4.961   5.411   3.031 -0.1613  0.4404  3.6755
 1479TIP3   OH225995   3.919   1.103   2.557 -0.7161  0.3942 -0.4909
 1479TIP3    H125996   3.894   1.048   2.483 -3.5726  1.1308 -0.1926
 1479TIP3    H225997   3.982   1.165   2.521 -1.6652  0.4206 -2.2044
 1480TIP3   OH225998   5.088   3.742   1.166 -0.3299  0.1107  0.2687
 1480TIP3    H125999   5.171   3.700   1.144  1.7581  2.5919  2.5451
 1480TIP3    H226000   5.050   3.686   1.234 -0.4054 -0.8938 -0.5813
 1481TIP3   OH226001   5.567   0.964   7.926 -0.2737 -0.3713 -0.5516
 1481TIP3    H126002   5.542   1.000   8.011 -0.2513  0.6292 -0.9497
 1481TIP3    H226003   5.487   0.968   7.874  0.0560  0.4454 -1.0314
 1482TIP3   OH226004   4.600   2.670   8.611 -0.2632  0.4796 -0.2603
 1482TIP3    H126005   4.538   2.610   8.653 -0.5108  1.0418  0.2029
 1482TIP3    H226006   4.552   2.707   8.537 -0.0617  0.0093 -0.6342
 1483TIP3   OH226007   4.324   0.700   8.012  0.1879 -0.2330 -0.0110
 1483TIP3    H126008   4.402   0.698   8.067  1.5686 -1.3723 -1.8953
 1483TIP3    H226009   4.289   0.788   8.023  1.7187  0.2940  0.9110
 1484TIP3   OH226010   0.405   1.768   1.787 -0.3059  0.0967  0.0887
 1484TIP3    H126011   0.446   1.715   1.719  0.8459 -0.1178  0.9329
 1484TIP3    H226012   0.443   1.737   1.869 -1.5311  0.4793  0.8322
 1485TIP3   OH226013   3.011   3.836   0.020 -0.0443  0.4044 -0.2110
 1485TIP3    H126014   2.958   3.898  -0.031 -1.3927 -0.3985  0.1455
 1485TIP3    H226015   3.028   3.764  -0.041 -0.1336  0.2573 -0.0625
 1486TIP3   OH226016   6.139   4.637   3.015  0.2427  0.3750  0.0270
 1486TIP3    H126017   6.079   4.616   2.944  1.6661 -1.9401 -0.5894
 1486TIP3    H226018   6.212   4.683   2.972  0.0631  1.0100  0.3842
 1487TIP3   OH226019   5.419   1.945   2.283 -0.0875  0.1217  0.2051
 1487TIP3    H126020   5.339   1.991   2.306  0.4277  0.5812  1.1368
 1487TIP3    H226021   5.489   2.008   2.301  0.4881 -0.2698 -0.5890
 1488TIP3   OH226022   0.744   1.671   8.717  0.4396  0.6530 -0.3405
 1488TIP3    H126023   0.757   1.590   8.667  1.3800  0.4815  0.1633
 1488TIP3    H226024   0.654   1.664   8.750 -0.2192  0.7786 -1.9788
 1489TIP3   OH226025   3.946   3.430   0.682 -0.0977  0.7677 -0.1218
 1489TIP3    H126026   3.976   3.495   0.745  1.3919 -1.1814  1.2831
 1489TIP3    H226027   3.974   3.346   0.717 -1.9498 -0.7052 -1.8529
 1490TIP3   OH226028   2.233   1.062   1.786 -0.6538 -0.0935  0.2913
 1490TIP3    H126029   2.219   1.151   1.754  0.3508  0.2271  0.6970
 1490TIP3    H226030   2.178   1.057   1.864  1.2142  1.1050  1.7913
 1491TIP3   OH226031   3.882   2.472   0.026 -0.2341  0.3632  0.8589
 1491TIP3    H126032   3.806   2.438  -0.023  0.5486 -2.0042  1.1256
 1491TIP3    H226033   3.862   2.563   0.043 -2.6980 -0.0147  0.2856
 1492TIP3   OH226034   5.605   5.250   8.234 -0.4015 -0.6088  0.6529
 1492TIP3    H126035   5.521   5.261   8.190 -0.0104  0.5413  0.1804
 1492TIP3    H226036   5.653   5.189   8.177 -0.6581 -0.7509  0.5820
 1493TIP3   OH226037   5.150   4.479   0.610  1.0984  0.2786 -0.2294
 1493TIP3    H126038   5.223   4.417   0.616 -0.5085 -1.6221  1.3541
 1493TIP3    H226039   5.127   4.498   0.700 -2.5250 -2.0296 -0.4619
 1494TIP3   OH226040   3.694   4.867   1.428 -0.5014  0.1063  0.2398
 1494TIP3    H126041   3.728   4.782   1.401 -0.2449  0.3108 -0.0908
 1494TIP3    H226042   3.738   4.930   1.371  0.4844  0.6136  1.5153
 1495TIP3   OH226043   2.503   3.313   1.151  0.4826 -0.3807  0.0800
 1495TIP3    H126044   2.409   3.318   1.137  0.5387 -1.2223 -0.7416
 1495TIP3    H226045   2.515   3.240   1.211  0.6077 -0.3157  0.1347
 1496TIP3   OH226046   1.166   3.386   7.660 -0.0788  0.3142 -0.4033
 1496TIP3    H126047   1.170   3.471   7.618 -1.8381 -0.0047 -1.2855
 1496TIP3    H226048   1.243   3.339   7.628 -1.8254 -0.2897 -4.2418
 1497TIP3   OH226049   1.432   3.692   8.197 -0.2787 -0.0366  0.1810
 1497TIP3    H126050   1.493   3.765   8.210 -0.7737  0.7728 -1.6812
 1497TIP3    H226051   1.378   3.692   8.276  0.7798  0.5586  0.9365
 1498TIP3   OH226052   6.748   0.995   1.743 -0.3185  0.3726 -0.1344
 1498TIP3    H126053   6.843   0.999   1.749 -0.2516 -1.0552  0.1784
 1498TIP3    H226054   6.728   0.901   1.739 -1.7442  0.6274  0.3216
 1499TIP3   OH226055   1.541   1.444   1.840 -0.3163  0.4890 -0.3828
 1499TIP3    H126056   1.595   1.499   1.898 -1.8120  0.9625  0.6387
 1499TIP3    H226057   1.598   1.422   1.767  1.8057 -0.4615  1.4446
 1500TIP3   OH226058   3.766   2.298   2.889 -0.3187 -0.2777  0.5244
 1500TIP3    H126059   3.681   2.325   2.924 -0.7135  0.2463 -0.7956
 1500TIP3    H226060   3.773   2.343   2.805  1.8608  0.7636  1.1864
 1501TIP3   OH226061   0.848   3.629   2.339  0.3806 -0.0995  0.3502
 1501TIP3    H126062   0.864   3.654   2.430 -0.1753  3.7291 -0.4590
 1501TIP3    H226063   0.794   3.700   2.304  1.0190 -1.1648 -3.1377
 1502TIP3   OH226064   2.072   2.990   0.798 -0.0001 -0.3767  0.2034
 1502TIP3    H126065   2.125   2.920   0.836  0.8171  0.6515  1.0366
 1502TIP3    H226066   2.115   3.071   0.827 -0.8465  0.4761 -0.8168
 1503TIP3   OH226067   3.258   0.792   1.706 -0.0464 -0.2662  0.0854
 1503TIP3    H126068   3.322   0.838   1.760  0.0189 -0.7131  0.3938
 1503TIP3    H226069   3.218   0.729   1.765 -0.5766 -0.1835 -0.1763
 1504TIP3   OH226070   0.318   3.268   7.719 -0.0655  0.3647 -0.2664
 1504TIP3    H126071   0.258   3.216   7.666  1.5546 -1.4182 -0.4327
 1504TIP3    H226072   0.290   3.253   7.809 -1.7188  2.0113 -0.4277
 1505TIP3   OH226073   2.790   6.795   0.246  0.5137  0.3134  0.4993
 1505TIP3    H126074   2.715   6.817   0.302  1.1593  0.1231  1.4673
 1505TIP3    H226075   2.752   6.784   0.159 -0.4905  0.8298  0.8468
 1506TIP3   OH226076   2.914   1.575   2.918  0.4403 -0.0226 -0.2292
 1506TIP3    H126077   2.966   1.565   2.838 -1.1997 -0.6062 -1.2563
 1506TIP3    H226078   2.879   1.664   2.913  0.5917  0.0528  0.0144
 1507TIP3   OH226079   3.929   0.341   2.302  0.8870 -0.5017 -0.7789
 1507TIP3    H126080   3.887   0.268   2.348  0.9728  0.0191  0.1496
 1507TIP3    H226081   3.974   0.390   2.371 -0.7153  1.5054 -1.0559
 1508TIP3   OH226082   2.707   6.384   0.746  0.6140  0.1336 -0.0538
 1508TIP3    H126083   2.778   6.417   0.801  1.8271  0.1346 -1.5365
 1508TIP3    H226084   2.711   6.289   0.756  0.7388  0.1439  0.0030
 1509TIP3   OH226085   0.767   0.300   1.117  0.6951 -0.9514  0.4216
 1509TIP3    H126086   0.820   0.378   1.101 -0.3154 -0.3892 -0.3283
 1509TIP3    H226087   0.732   0.313   1.205 -1.2516  0.5783 -0.5040
 1510TIP3   OH226088   3.158   3.443   1.452  0.0653  0.8987  0.2213
 1510TIP3    H126089   3.102   3.518   1.432 -0.5664  0.8663  1.7518
 1510TIP3    H226090   3.134   3.377   1.387  0.2022  1.7874 -0.7672
 1511TIP3   OH226091   1.359   5.487   0.668 -0.5378  0.0326 -0.8361
 1511TIP3    H126092   1.280   5.443   0.701 -0.6947  1.3605  0.7057
 1511TIP3    H226093   1.381   5.440   0.588 -1.0060 -2.4482  0.3995
 1512TIP3   OH226094   0.601   0.707   1.666  0.1553 -0.5358 -0.5486
 1512TIP3    H126095   0.572   0.767   1.735  1.0512 -0.1326 -0.5077
 1512TIP3    H226096   0.522   0.658   1.642 -0.2085 -0.5820  0.6562
 1513TIP3   OH226097   6.259   4.203   7.359 -0.1954 -0.2191 -0.3616
 1513TIP3    H126098   6.315   4.240   7.426  0.5269 -2.1455  0.1824
 1513TIP3    H226099   6.208   4.277   7.325  1.6033  1.3301  0.1570
 1514TIP3   OH226100   1.978   5.059   7.368  0.0608  0.0930 -0.1857
 1514TIP3    H126101   1.926   5.105   7.434 -0.6310 -2.2497  0.9817
 1514TIP3    H226102   1.914   5.026   7.305  0.6587  1.6948 -1.7467
 1515TIP3   OH226103   6.129   2.339   0.242  0.0411  0.5088 -0.5951
 1515TIP3    H126104   6.139   2.337   0.337 -1.7354  0.4565 -0.3608
 1515TIP3    H226105   6.109   2.248   0.218  0.0003  0.6071 -0.9383
 1516TIP3   OH226106   6.205   6.044   0.598  0.3256 -0.0082  0.0175
 1516TIP3    H126107   6.112   6.052   0.615  0.2231 -2.3092  0.8653
 1516TIP3    H226108   6.218   6.086   0.513 -1.2245  1.4918  0.4889
 1517TIP3   OH226109   5.534   0.182   1.872  0.1661 -0.5859  0.2673
 1517TIP3    H126110   5.503   0.092   1.882 -0.0655 -0.2632  3.5962
 1517TIP3    H226111   5.612   0.175   1.817  0.2893 -2.8384  0.6433
 1518TIP3   OH226112   1.585   4.952   1.999  0.1531  0.2404  0.2572
 1518TIP3    H126113   1.535   4.962   2.080 -0.4865  0.9005 -0.2025
 1518TIP3    H226114   1.537   4.886   1.949  0.6813 -0.3424  0.5098
 1519TIP3   OH226115   0.365   0.026   0.615  0.3697  0.0899 -0.1021
 1519TIP3    H126116   0.353  -0.026   0.695  1.4304  0.5745  0.3895
 1519TIP3    H226117   0.283   0.016   0.568  0.0658 -0.9696  0.6036
 1520TIP3   OH226118   2.568   5.787   7.672 -0.3007  0.1508 -0.0120
 1520TIP3    H126119   2.540   5.700   7.698  1.3710 -0.9591 -1.6293
 1520TIP3    H226120   2.575   5.783   7.576  1.8445  1.3486  0.0136
 1521TIP3   OH226121   1.261   2.319   1.225 -0.2029  0.1824  0.2644
 1521TIP3    H126122   1.256   2.226   1.200  0.8788 -0.2179  1.4218
 1521TIP3    H226123   1.183   2.334   1.279 -1.6412  0.6099 -1.7944
 1522TIP3   OH226124   3.594   3.721   7.875  0.0800  0.2314 -0.3803
 1522TIP3    H126125   3.603   3.802   7.927  0.3686  0.8750 -1.4011
 1522TIP3    H226126   3.546   3.748   7.797 -1.3635 -0.9732  0.0494
 1523TIP3   OH226127   2.162   0.476   2.330  0.2716  0.1669  0.1362
 1523TIP3    H126128   2.214   0.550   2.362 -0.3430  1.6261 -1.9977
 1523TIP3    H226129   2.075   0.489   2.368  0.4802 -0.1154  0.7017
 1524TIP3   OH226130   2.203   1.150   0.109 -0.2634  0.4221  0.1127
 1524TIP3    H126131   2.128   1.137   0.052 -0.3546 -0.6448  0.4720
 1524TIP3    H226132   2.178   1.223   0.166 -0.7550  0.4928 -0.1919
 1525TIP3   OH226133   5.892   6.579   1.413  0.0536 -0.3430  0.0500
 1525TIP3    H126134   5.978   6.620   1.407 -0.1098  0.1683  0.9161
 1525TIP3    H226135   5.895   6.530   1.496 -0.3139 -0.7332 -0.1658
 1526TIP3   OH226136   1.997   0.671   0.074  0.2816 -0.3519 -0.2048
 1526TIP3    H126137   1.939   0.637   0.143  0.1520  1.1993  0.5063
 1526TIP3    H226138   2.033   0.751   0.112  1.0027 -0.0105 -1.5791
 1527TIP3   OH226139   0.947   2.734   2.194 -0.4086 -0.1458  0.0243
 1527TIP3    H126140   0.979   2.734   2.285 -0.6165 -1.1023  0.1171
 1527TIP3    H226141   1.018   2.773   2.144 -0.4996  0.8732  0.6601
 1528TIP3   OH226142   4.905   5.402   8.180  0.7091  0.3536  0.1948
 1528TIP3    H126143   4.826   5.353   8.158  0.0803  1.4469 -0.0339
 1528TIP3    H226144   4.939   5.357   8.258  0.5417 -0.8558 -0.4013
 1529TIP3   OH226145   0.701   2.407   0.836 -0.3058 -0.3584 -0.1687
 1529TIP3    H126146   0.637   2.464   0.794  0.6724  1.4180  0.6304
 1529TIP3    H226147   0.662   2.384   0.920  0.4564  1.5819  0.7780
 1530TIP3   OH226148   3.297   6.485   2.134 -0.2174 -0.2000  0.2043
 1530TIP3    H126149   3.336   6.562   2.094 -1.4879  1.3626  1.7730
 1530TIP3    H226150   3.297   6.504   2.228 -0.3553 -2.2350  0.6732
 1531TIP3   OH226151   4.932   3.516   0.581 -0.2903 -0.0416  0.0921
 1531TIP3    H126152   4.980   3.541   0.661  1.6453 -0.2812 -0.9311
 1531TIP3    H226153   4.940   3.593   0.524 -1.4969  0.0557  0.0373
 1532TIP3   OH226154   0.383   2.086   0.538  0.0836  0.1885  0.3305
 1532TIP3    H126155   0.352   1.996   0.543 -1.7426  0.6600 -1.4701
 1532TIP3    H226156   0.454   2.090   0.602  2.2504 -3.3181 -1.5307
 1533TIP3   OH226157   1.365   3.479   1.716 -0.3530  0.3885 -0.3714
 1533TIP3    H126158   1.357   3.551   1.654  0.3092  0.2291 -0.6493
 1533TIP3    H226159   1.397   3.519   1.797 -2.7611  0.8622  0.4166
 1534TIP3   OH226160   0.634   1.980   2.506 -0.2660  0.3659 -0.1240
 1534TIP3    H126161   0.692   1.971   2.582 -1.1965 -2.0177  0.3953
 1534TIP3    H226162   0.546   1.967   2.542 -0.7512 -0.4113 -1.5205
 1535TIP3   OH226163   6.330   6.541   3.352  0.2231  0.2129  0.0179
 1535TIP3    H126164   6.280   6.583   3.422 -0.5447 -0.2180 -0.2602
 1535TIP3    H226165   6.373   6.614   3.306  1.2425  0.4561  1.2983
 1536TIP3   OH226166   5.922   2.057   1.028 -0.0415 -0.0437  0.5778
 1536TIP3    H126167   6.007   2.031   0.993 -0.2476  1.3018 -1.0244
 1536TIP3    H226168   5.932   2.049   1.123  2.5034  1.7516  0.5764
 1537TIP3   OH226169   6.803   0.610   2.699 -0.1964 -0.1232  0.2759
 1537TIP3    H126170   6.849   0.693   2.706 -0.1630 -0.0132 -1.0313
 1537TIP3    H226171   6.840   0.556   2.769  0.6759  0.5416  0.3473
 1538TIP3   OH226172   0.728   0.666   1.435 -0.7026  0.3476 -0.3242
 1538TIP3    H126173   0.700   0.690   1.523  1.2882  2.7539 -0.2447
 1538TIP3    H226174   0.695   0.736   1.379 -0.5831 -0.3141 -1.2444
 1539TIP3   OH226175   2.855   0.871   8.514  0.1406  0.1668 -0.6252
 1539TIP3    H126176   2.831   0.963   8.521  0.4561  0.2443 -0.5336
 1539TIP3    H226177   2.830   0.834   8.599  1.1980  0.4548 -0.1652
 1540TIP3   OH226178   3.707   4.551   2.191  0.1182  0.1225  0.4876
 1540TIP3    H126179   3.713   4.589   2.103 -0.2908 -0.0887  0.3656
 1540TIP3    H226180   3.614   4.555   2.212  0.3948  1.6748  1.5780
 1541TIP3   OH226181   4.134   6.357   1.431 -0.0361  0.2488  0.4484
 1541TIP3    H126182   4.043   6.339   1.457  0.5103 -1.5166  1.3166
 1541TIP3    H226183   4.132   6.359   1.336 -0.9847  0.2105  0.4540
 1542TIP3   OH226184   1.793   6.558   7.572  0.4466 -0.0745 -0.3699
 1542TIP3    H126185   1.814   6.578   7.664 -0.7071  0.5170 -0.2228
 1542TIP3    H226186   1.750   6.637   7.539  2.3656  0.3906 -1.9545
 1543TIP3   OH226187   4.454   3.700   1.180  0.0430  0.1196  0.0176
 1543TIP3    H126188   4.507   3.741   1.248 -0.8088 -0.2738  0.9380
 1543TIP3    H226189   4.455   3.762   1.107  0.2816  0.9296  0.7040
 1544TIP3   OH226190   2.621   2.093   1.040  0.1934  0.5186 -0.0870
 1544TIP3    H126191   2.653   2.154   0.973 -0.1542  1.9437  0.9795
 1544TIP3    H226192   2.661   2.009   1.018 -1.1158  0.5134 -2.9872
 1545TIP3   OH226193   2.166   5.055   7.587 -0.1643  0.3057 -0.4478
 1545TIP3    H126194   2.101   5.121   7.565 -0.7771  0.9633  2.8500
 1545TIP3    H226195   2.152   4.985   7.523 -1.8872  1.8119 -1.8187
 1546TIP3   OH226196   3.066   1.891   1.226 -0.2627  0.7970  0.0650
 1546TIP3    H126197   3.156   1.922   1.217 -0.7105  1.6738 -1.8195
 1546TIP3    H226198   3.061   1.859   1.317  2.2485 -0.3714 -0.1039
 1547TIP3   OH226199   5.450   3.976   2.950 -0.3812 -0.2344 -0.3242
 1547TIP3    H126200   5.383   3.918   2.986  0.3358 -0.1235  1.2761
 1547TIP3    H226201   5.407   4.021   2.877 -1.1245 -2.3262 -1.2409
 1548TIP3   OH226202   6.696   6.614   1.380 -0.2170  0.5034  0.8230
 1548TIP3    H126203   6.648   6.534   1.402  0.1351 -0.4460 -1.5330
 1548TIP3    H226204   6.694   6.617   1.284  0.8135  2.7051  0.8129
 1549TIP3   OH226205   6.763   2.610   0.983 -0.3670 -0.0612  0.0488
 1549TIP3    H126206   6.839   2.626   1.039 -1.0494  0.6147  0.8307
 1549TIP3    H226207   6.776   2.668   0.908 -1.3180  2.0488  1.4025
 1550TIP3   OH226208   1.255   5.116   1.046  0.0591 -0.3492  0.1359
 1550TIP3    H126209   1.192   5.048   1.068 -1.0184  0.6230  0.1385
 1550TIP3    H226210   1.320   5.112   1.117 -0.5182 -0.7381  0.6527
 1551TIP3   OH226211   3.999   6.033   0.700 -0.1466  0.0095  0.2257
 1551TIP3    H126212   3.913   6.071   0.684  1.0714  2.4238 -1.0663
 1551TIP3    H226213   4.035   6.084   0.772  0.9911  0.4315 -0.6190
 1552TIP3   OH226214   2.175   6.163   7.690  0.2780  0.7223  0.2713
 1552TIP3    H126215   2.220   6.244   7.664  0.0887  0.1558 -2.0924
 1552TIP3    H226216   2.090   6.192   7.723  0.2636  1.5045 -0.4327
 1553TIP3   OH226217   3.743   1.997   0.592  0.3835  0.3530 -0.2877
 1553TIP3    H126218   3.782   1.917   0.555 -2.3450 -0.8279 -0.8045
 1553TIP3    H226219   3.707   2.043   0.516 -1.0658  0.3473  0.3799
 1554TIP3   OH226220   4.830   6.061   8.449  0.1827  0.0097  0.1451
 1554TIP3    H126221   4.747   6.040   8.408 -0.4718 -0.9987  1.8708
 1554TIP3    H226222   4.892   5.998   8.413  0.5925  1.5641 -2.1178
 1555TIP3   OH226223   5.439   6.718   1.888 -0.4249 -0.2748  0.7912
 1555TIP3    H126224   5.365   6.706   1.829  0.7205 -0.5288 -0.6398
 1555TIP3    H226225   5.400   6.745   1.971 -2.0689  0.0650 -0.0706
 1556TIP3   OH226226   0.188   3.740   0.230  0.5031  0.3848  0.1108
 1556TIP3    H126227   0.211   3.766   0.141  0.1079 -0.0320 -0.1201
 1556TIP3    H226228   0.117   3.677   0.219 -0.5291  1.3806  0.7824
 1557TIP3   OH226229   1.301   6.676   0.186 -0.0664 -0.5252  0.5198
 1557TIP3    H126230   1.286   6.722   0.268  0.8561 -1.5174  1.2729
 1557TIP3    H226231   1.352   6.599   0.211 -1.3366 -1.8170 -0.7204
 1558TIP3   OH226232   2.575   1.642   1.493 -0.1021  0.0709  0.2601
 1558TIP3    H126233   2.581   1.727   1.450  1.2866 -0.6795 -1.1254
 1558TIP3    H226234   2.660   1.631   1.536 -0.0300 -0.8745 -0.1043
 1559TIP3   OH226235   2.565   6.474   8.131 -0.1586 -0.6708 -0.0480
 1559TIP3    H126236   2.564   6.465   8.226 -1.8271 -0.8630 -0.0473
 1559TIP3    H226237   2.595   6.564   8.116  1.4117 -1.0599  0.5812
 1560TIP3   OH226238   5.617   1.279   1.896  0.5468 -0.2655  0.0948
 1560TIP3    H126239   5.655   1.367   1.891  1.1538 -0.5194  0.2022
 1560TIP3    H226240   5.547   1.287   1.961  1.4601 -0.1719  1.0832
 1561TIP3   OH226241   1.335   4.752   1.010 -0.0562 -0.0875 -0.5435
 1561TIP3    H126242   1.240   4.757   1.001 -0.1545 -1.5474 -0.6130
 1561TIP3    H226243   1.361   4.678   0.955  1.1436  0.3733 -0.6343
 1562TIP3   OH226244   3.221   2.581   8.541 -0.6997 -1.1093 -0.4735
 1562TIP3    H126245   3.183   2.641   8.478 -0.1678  0.9903  1.0650
 1562TIP3    H226246   3.160   2.581   8.615  1.2494  0.9301  1.2829
 1563TIP3   OH226247   1.261   3.152   2.156 -0.6985 -0.4520  0.1136
 1563TIP3    H126248   1.218   3.224   2.111 -0.8156 -0.2144  0.6023
 1563TIP3    H226249   1.272   3.085   2.089  0.9097  0.6331 -0.7781
 1564TIP3   OH226250   1.695   4.469   8.388  0.2660  0.0545 -0.2309
 1564TIP3    H126251   1.750   4.525   8.333  0.4396  1.1460  1.0042
 1564TIP3    H226252   1.628   4.528   8.422  0.1545 -0.5927  0.7071
 1565TIP3   OH226253   2.981   2.672   1.516  0.5220  0.2985  0.4195
 1565TIP3    H126254   3.057   2.724   1.489 -0.2295  1.0819 -0.2796
 1565TIP3    H226255   2.929   2.664   1.436 -0.9903  1.2896  1.2624
 1566TIP3   OH226256   4.509   1.495   0.698  0.4394 -0.4404  0.3123
 1566TIP3    H126257   4.490   1.432   0.768  0.7357 -0.5695  0.2775
 1566TIP3    H226258   4.601   1.481   0.678  0.0586 -1.2677 -0.9713
 1567TIP3   OH226259   6.449   2.240   7.044  0.2993  0.4016  0.1529
 1567TIP3    H126260   6.491   2.293   6.977 -0.5418 -1.3493 -1.8774
 1567TIP3    H226261   6.472   2.150   7.022 -1.4252 -0.3458  1.1736
 1568TIP3   OH226262   6.251   3.740   2.722  0.1578  0.1237 -0.0203
 1568TIP3    H126263   6.247   3.834   2.742  0.9775 -0.1297  1.4921
 1568TIP3    H226264   6.232   3.697   2.805  0.9745 -1.0526 -0.4150
 1569TIP3   OH226265   1.429   5.335   7.789 -0.1895 -0.8201 -0.4578
 1569TIP3    H126266   1.472   5.420   7.785 -0.0566 -0.9044 -0.8348
 1569TIP3    H226267   1.335   5.356   7.795 -0.0825 -0.6319  0.8389
 1570TIP3   OH226268   4.454   5.645   1.474 -0.3150 -0.0157  0.5528
 1570TIP3    H126269   4.369   5.605   1.492  0.0537 -1.3717 -0.5079
 1570TIP3    H226270   4.517   5.584   1.512  0.2744 -0.5811 -1.2178
 1571TIP3   OH226271   0.469   4.169   8.238  0.0332  0.2454 -0.3275
 1571TIP3    H126272   0.545   4.194   8.186  1.8096 -0.5843  1.6764
 1571TIP3    H226273   0.422   4.106   8.184  1.7673 -0.5448 -1.0017
 1572TIP3   OH226274   1.180   4.353   2.214 -0.0064 -0.3101  0.2046
 1572TIP3    H126275   1.264   4.328   2.175  1.0593  1.9027  0.8936
 1572TIP3    H226276   1.187   4.328   2.306 -1.6429 -3.4690 -0.3831
 1573TIP3   OH226277   2.434   3.457   8.474  0.4746  0.6574 -0.5276
 1573TIP3    H126278   2.469   3.413   8.397 -1.5763 -0.6901 -0.7578
 1573TIP3    H226279   2.431   3.549   8.450  2.3416  0.6251 -1.0331
 1574TIP3   OH226280   2.802   0.123   0.507  0.0282 -0.2832  0.1868
 1574TIP3    H126281   2.745   0.050   0.528  0.5747 -0.2353  2.0020
 1574TIP3    H226282   2.889   0.084   0.497  0.0066 -0.1174 -0.7451
 1575TIP3   OH226283   5.125   3.880   7.051  0.6227 -0.2291 -0.6659
 1575TIP3    H126284   5.143   3.796   7.009 -0.9294  0.0030 -1.8803
 1575TIP3    H226285   5.149   3.946   6.986 -0.1272  0.1867 -0.5418
 1576TIP3   OH226286   2.812   0.228   0.022  0.4676 -0.4292  0.4007
 1576TIP3    H126287   2.743   0.185   0.073 -0.3081 -2.2324 -1.9439
 1576TIP3    H226288   2.789   0.321   0.023 -1.3346 -0.8444  0.6800
 1577TIP3   OH226289   6.230   4.782   1.271  0.0605 -0.8622 -0.1358
 1577TIP3    H126290   6.221   4.866   1.226 -1.0445 -0.3723  0.9350
 1577TIP3    H226291   6.210   4.716   1.204 -2.7215 -0.1161 -0.1623
 1578TIP3   OH226292   3.464   3.549   7.177 -0.2952 -0.0624  0.3617
 1578TIP3    H126293   3.522   3.473   7.165  0.9967  1.0281 -0.6482
 1578TIP3    H226294   3.379   3.518   7.147  0.3509 -0.9539 -0.6492
 1579TIP3   OH226295   3.991   0.992   1.774 -0.0958  0.0758 -0.3055
 1579TIP3    H126296   3.965   0.925   1.711  2.1638  0.8246 -2.2284
 1579TIP3    H226297   3.936   1.067   1.753 -0.9985 -0.4201  0.2519
 1580TIP3   OH226298   2.022   0.966   1.952  0.8255 -0.2134 -0.1734
 1580TIP3    H126299   1.965   1.043   1.964  2.0393  0.7029 -0.0964
 1580TIP3    H226300   1.969   0.893   1.984 -0.2871  0.6099 -0.0331
 1581TIP3   OH226301   1.182   2.983   0.846  0.0505 -0.1674  0.1685
 1581TIP3    H126302   1.187   2.890   0.866  0.2576 -0.4617 -1.1131
 1581TIP3    H226303   1.223   3.027   0.920  0.9246 -1.1710  0.2926
 1582TIP3   OH226304   2.125   1.333   0.272  0.3402  0.4569 -0.1115
 1582TIP3    H126305   2.090   1.315   0.359  0.1430 -0.9531 -0.4502
 1582TIP3    H226306   2.048   1.334   0.215  0.6310 -0.9943 -0.6016
 1583TIP3   OH226307   2.417   4.140   0.856 -0.2292  0.0113 -0.0479
 1583TIP3    H126308   2.384   4.218   0.901 -0.5314  0.5065 -1.0919
 1583TIP3    H226309   2.512   4.149   0.858 -0.2383 -0.0249  0.5773
 1584TIP3   OH226310   5.542   4.881   1.886 -0.4203  0.3846  0.3025
 1584TIP3    H126311   5.589   4.834   1.956 -0.2780 -0.6268 -0.4434
 1584TIP3    H226312   5.452   4.888   1.919 -0.4692 -0.5159  0.3934
 1585TIP3   OH226313   2.373   5.705   7.931  0.1765 -0.3557 -0.4160
 1585TIP3    H126314   2.433   5.658   7.989  1.1102  0.9245 -0.3119
 1585TIP3    H226315   2.347   5.783   7.980 -2.9700 -1.6544  0.2377
 1586TIP3   OH226316   4.002   4.891   8.622  0.0516  0.1868 -0.0619
 1586TIP3    H126317   4.079   4.841   8.647  0.4246  1.2589  1.0565
 1586TIP3    H226318   4.036   4.964   8.571 -0.1297  0.9375  0.8511
 1587TIP3   OH226319   4.074   4.717   7.165  0.3728  0.1002 -0.0993
 1587TIP3    H126320   4.080   4.623   7.182 -0.9691 -0.0587 -0.4366
 1587TIP3    H226321   4.162   4.750   7.184  1.5248 -1.5620 -2.1072
 1588TIP3   OH226322   0.563   0.621   8.584 -0.3450 -0.2480 -0.9056
 1588TIP3    H126323   0.486   0.615   8.528  0.1805 -0.9983 -1.5651
 1588TIP3    H226324   0.544   0.562   8.658 -0.2264 -0.7526 -1.2774
 1589TIP3   OH226325   0.310   1.198   0.755 -0.5465  1.1518  0.3019
 1589TIP3    H126326   0.289   1.226   0.666 -1.9363  0.5156  0.4057
 1589TIP3    H226327   0.231   1.214   0.806  0.2811  1.6705  1.4895
 1590TIP3   OH226328   1.501   0.895   8.139 -0.9158 -0.0083  0.4844
 1590TIP3    H126329   1.442   0.924   8.069  0.3120 -0.8828 -0.9534
 1590TIP3    H226330   1.583   0.940   8.121 -0.6505 -0.0396  1.5444
 1591TIP3   OH226331   2.562   4.997   1.400 -0.1769  0.6125  0.7114
 1591TIP3    H126332   2.559   5.036   1.312  1.8932 -2.8536 -1.1107
 1591TIP3    H226333   2.644   5.031   1.438  0.1904  0.2292  0.2748
 1592TIP3   OH226334   2.551   0.288   8.564 -0.1481 -0.2408  0.3101
 1592TIP3    H126335   2.543   0.193   8.570  0.3921 -0.4601 -1.5671
 1592TIP3    H226336   2.596   0.313   8.644  2.6730 -2.0206 -0.5558
 1593TIP3   OH226337   2.453   1.035   7.077 -0.8770  0.6486  0.2964
 1593TIP3    H126338   2.485   1.077   6.997 -0.0963 -0.3168  0.0786
 1593TIP3    H226339   2.524   1.049   7.141 -1.4062  1.2317  0.7767
 1594TIP3   OH226340   2.593   3.106   1.318 -0.0622 -0.3554 -0.4470
 1594TIP3    H126341   2.642   3.144   1.391  0.6932 -1.3976 -0.3794
 1594TIP3    H226342   2.571   3.017   1.347 -0.1642 -0.6216 -1.3007
 1595TIP3   OH226343   2.099   3.063   0.286  0.2631 -0.1418 -0.1597
 1595TIP3    H126344   2.167   3.040   0.224 -0.8763 -0.1114 -1.4792
 1595TIP3    H226345   2.133   3.037   0.372  1.3522 -1.3575 -0.9386
 1596TIP3   OH226346   0.615   1.120   0.066 -0.0095  0.2886 -0.3705
 1596TIP3    H126347   0.700   1.155   0.038 -0.4255  1.4625 -0.1938
 1596TIP3    H226348   0.605   1.151   0.157 -1.3157  1.4907 -0.8886
 1597TIP3   OH226349   2.074   3.254   8.149  0.3066  0.7710 -0.6670
 1597TIP3    H126350   2.124   3.200   8.210  0.9118  0.8758 -1.0640
 1597TIP3    H226351   2.013   3.193   8.108 -0.2320  0.7337  0.1623
 1598TIP3   OH226352   6.187   4.723   0.769  0.0107  0.1960  0.0662
 1598TIP3    H126353   6.183   4.631   0.742 -0.1484 -0.6383  2.6859
 1598TIP3    H226354   6.098   4.756   0.754 -0.0480 -0.1955 -0.4781
 1599TIP3   OH226355   3.019   5.806   0.850  0.4018 -0.7365 -0.1306
 1599TIP3    H126356   2.944   5.809   0.908 -0.6928  1.0747 -1.5176
 1599TIP3    H226357   3.003   5.730   0.793 -1.8558  1.0725 -2.1280
 1600TIP3   OH226358   0.989   1.016   6.983 -0.0123 -0.6588 -0.0245
 1600TIP3    H126359   0.895   1.037   6.978 -0.0179  0.1432  2.3416
 1600TIP3    H226360   0.991   0.923   7.004 -0.2965 -0.5280  0.5868
 1601TIP3   OH226361   1.702   5.737   2.302  0.1296  0.4634  0.3431
 1601TIP3    H126362   1.632   5.718   2.365  0.4404  0.4906  0.7025
 1601TIP3    H226363   1.783   5.725   2.352  0.4501 -1.2669 -0.5090
 1602TIP3   OH226364   1.859   1.208   1.877  0.2481 -0.7260 -0.6396
 1602TIP3    H126365   1.911   1.233   1.800  0.1576 -0.7354 -0.7033
 1602TIP3    H226366   1.854   1.289   1.929  0.5053 -0.7788 -0.5301
 1603TIP3   OH226367   6.136   2.456   8.648 -0.3809 -0.4101  0.2028
 1603TIP3    H126368   6.133   2.492   8.559 -0.6025 -0.7531  0.0707
 1603TIP3    H226369   6.133   2.361   8.635  0.5560 -0.4941  0.5357
 1604TIP3   OH226370   0.621   5.221   1.128 -0.4308  0.0572 -0.4749
 1604TIP3    H126371   0.602   5.165   1.053 -0.7913  0.3552 -0.6097
 1604TIP3    H226372   0.690   5.174   1.176  0.0484  0.0285 -1.1704
 1605TIP3   OH226373   5.284   2.437   7.664 -0.1865 -0.4501  0.6074
 1605TIP3    H126374   5.221   2.370   7.639 -0.8909  0.5510 -0.3867
 1605TIP3    H226375   5.294   2.491   7.586 -0.0423  0.9109  1.5287
 1606TIP3   OH226376   2.320   4.393   1.218  0.0956  0.4249 -0.4894
 1606TIP3    H126377   2.353   4.460   1.157  2.3102 -0.3732 -0.2251
 1606TIP3    H226378   2.346   4.310   1.179 -1.4563 -0.2708 -0.1244
 1607TIP3   OH226379   6.288   5.408   0.158  0.3985  0.1953 -0.2460
 1607TIP3    H126380   6.214   5.465   0.139  0.7068  0.4811 -0.6194
 1607TIP3    H226381   6.315   5.375   0.072  1.2669  0.8093 -0.2227
 1608TIP3   OH226382   1.457   4.347   8.283 -0.0163  0.3798 -0.7857
 1608TIP3    H126383   1.495   4.281   8.225 -2.9944 -2.6683  0.3768
 1608TIP3    H226384   1.527   4.368   8.344  1.5204 -0.5171 -2.1451
 1609TIP3   OH226385   4.200   0.994   8.459  0.0606  0.3467 -0.5391
 1609TIP3    H126386   4.264   1.051   8.501  1.3612 -0.7587 -0.9229
 1609TIP3    H226387   4.116   1.036   8.474  0.6875  0.9688  1.4916
 1610TIP3   OH226388   4.612   2.946   0.420  0.2002  0.2128 -0.9811
 1610TIP3    H126389   4.557   3.019   0.449  0.2770 -0.0950 -0.0162
 1610TIP3    H226390   4.695   2.986   0.396  1.0639  0.2701  1.7429
 1611TIP3   OH226391   1.094   1.548   8.483  0.0918  0.2264 -0.3528
 1611TIP3    H126392   1.127   1.470   8.439  0.3489 -2.0682  3.4418
 1611TIP3    H226393   1.116   1.534   8.575 -0.9370  4.2903  0.6966
 1612TIP3   OH226394   2.126   6.052   6.733  0.6541  0.0738  0.0243
 1612TIP3    H126395   2.121   5.969   6.781  1.5886 -1.1150 -1.8328
 1612TIP3    H226396   2.207   6.092   6.762  1.1943 -0.6185 -0.5062
 1613TIP3   OH226397   3.818   4.374   1.940  0.0584  0.2632 -0.3640
 1613TIP3    H126398   3.898   4.345   1.896 -0.5932 -1.8007 -0.2912
 1613TIP3    H226399   3.753   4.383   1.870 -0.5674 -1.5562 -0.0817
 1614TIP3   OH226400   4.762   4.475   1.675  0.7378  0.5670  0.4304
 1614TIP3    H126401   4.670   4.460   1.698  0.1429  1.5483 -1.1354
 1614TIP3    H226402   4.786   4.555   1.721  0.7030  0.4969  0.5707
 1615TIP3   OH226403   4.220   0.699   0.601 -0.6381  0.0541  0.3120
 1615TIP3    H126404   4.309   0.712   0.569 -0.6539  0.6361  0.4794
 1615TIP3    H226405   4.230   0.642   0.678 -0.7861 -2.9941 -1.7611
 1616TIP3   OH226406   0.829   4.995   1.179  0.2969 -0.6009 -0.4084
 1616TIP3    H126407   0.887   5.019   1.108  0.5921  2.3446  0.6907
 1616TIP3    H226408   0.852   5.054   1.251  1.0772 -4.3446  2.8014
 1617TIP3   OH226409   1.727   6.239   7.912  0.1752 -0.3173 -0.5187
 1617TIP3    H126410   1.728   6.193   7.996  1.0481 -0.3302 -0.5318
 1617TIP3    H226411   1.711   6.330   7.935 -1.7832 -0.6253 -0.5082
 1618TIP3   OH226412   4.594   0.603   8.118  0.2544 -0.4266  0.0037
 1618TIP3    H126413   4.585   0.629   8.027 -0.3164 -0.7846 -0.0420
 1618TIP3    H226414   4.588   0.508   8.117  1.4465 -0.5227  0.2766
 1619TIP3   OH226415   5.785   6.133   8.576 -0.2199 -0.4041  0.7322
 1619TIP3    H126416   5.729   6.158   8.503  1.0038  0.1316 -0.0592
 1619TIP3    H226417   5.837   6.211   8.594  0.6650 -1.0507  1.0496
 1620TIP3   OH226418   4.136   4.028   1.218 -0.0106  0.0151  0.2588
 1620TIP3    H126419   4.103   4.096   1.277 -1.3090 -1.1535  0.9295
 1620TIP3    H226420   4.100   4.050   1.132 -2.2417 -0.9524  0.8793
 1621TIP3   OH226421   5.066   2.537   2.866  0.2424 -0.2802  0.4000
 1621TIP3    H126422   5.077   2.538   2.961 -1.9841  1.0898  0.7326
 1621TIP3    H226423   5.124   2.607   2.835 -0.0281  0.1954  0.9324
 1622TIP3   OH226424   6.724   4.646   0.291  0.3026 -0.1600  0.2811
 1622TIP3    H126425   6.814   4.674   0.310  0.4341 -0.4742  0.1251
 1622TIP3    H226426   6.681   4.645   0.376 -0.2398  2.3272  0.1101
 1623TIP3   OH226427   4.104   5.040   1.681  0.1025 -0.0669  0.1978
 1623TIP3    H126428   4.171   4.988   1.725 -0.2180 -1.1709 -0.5808
 1623TIP3    H226429   4.151   5.115   1.645  0.5387  0.3000  1.4820
 1624TIP3   OH226430   0.530   1.710   3.162  0.0480 -0.6074 -0.2442
 1624TIP3    H126431   0.573   1.665   3.235 -0.6717  2.1041  2.0404
 1624TIP3    H226432   0.439   1.719   3.190 -1.1667 -2.5337 -3.1199
 1625TIP3   OH226433   6.093   2.260   0.563  0.0673  0.0551  0.4394
 1625TIP3    H126434   6.167   2.202   0.545  1.0351  1.7713 -1.4241
 1625TIP3    H226435   6.102   2.284   0.655  0.7538 -1.1911  0.7162
 1626TIP3   OH226436   3.163   2.465   1.076  0.5205 -0.0179 -0.2663
 1626TIP3    H126437   3.150   2.537   1.014  1.3473 -0.1214 -0.5715
 1626TIP3    H226438   3.251   2.480   1.112 -0.7695  1.3060  2.5554
 1627TIP3   OH226439   4.655   3.670   7.914 -0.1910 -0.1593  0.0282
 1627TIP3    H126440   4.570   3.706   7.938 -0.2618 -0.7552  0.6976
 1627TIP3    H226441   4.701   3.659   7.998  1.1106  1.5086 -0.4057
 1628TIP3   OH226442   6.683   0.064   1.300 -0.2530 -0.2200  0.0403
 1628TIP3    H126443   6.683  -0.011   1.360  2.0296 -1.1249 -0.9697
 1628TIP3    H226444   6.591   0.075   1.276 -0.8659 -1.5876  1.5237
 1629TIP3   OH226445   3.146   5.254   1.286 -0.6370  0.2219  0.3099
 1629TIP3    H126446   3.239   5.247   1.305 -0.8473  0.1665  1.3720
 1629TIP3    H226447   3.119   5.338   1.324 -1.0821  0.0904  0.2946
 1630TIP3   OH226448   3.840   3.873   1.922  0.0513 -0.3305  0.8417
 1630TIP3    H126449   3.790   3.844   1.998  0.7592  0.9309  1.8390
 1630TIP3    H226450   3.778   3.925   1.871 -0.9777 -2.7779 -0.5158
 1631TIP3   OH226451   2.935   3.713   1.624 -0.2415  0.6246  0.2267
 1631TIP3    H126452   2.889   3.647   1.675 -2.3973  2.6669  1.1082
 1631TIP3    H226453   2.933   3.679   1.534  0.7388 -1.5018  0.9513
 1632TIP3   OH226454   5.188   4.058   0.583 -0.5625 -0.5247  0.3593
 1632TIP3    H126455   5.229   4.125   0.637  0.1656 -0.4855 -0.2303
 1632TIP3    H226456   5.095   4.065   0.603 -0.8682  2.3994 -1.5203
 1633TIP3   OH226457   1.843   6.600   2.839  0.2064  0.1504 -0.7581
 1633TIP3    H126458   1.834   6.695   2.849  0.5375  0.0808  0.3987
 1633TIP3    H226459   1.937   6.586   2.824  0.5832 -0.1274  1.4483
 1634TIP3   OH226460   2.597   6.100   0.014 -0.0228 -0.5188  0.4747
 1634TIP3    H126461   2.633   6.023  -0.031 -0.5907 -0.1831 -0.5916
 1634TIP3    H226462   2.647   6.173  -0.021 -1.2103 -0.1274 -0.4809
 1635TIP3   OH226463   5.220   5.022   8.513  0.3533  0.7892 -0.1551
 1635TIP3    H126464   5.295   5.081   8.506  0.5843  0.5734  0.4113
 1635TIP3    H226465   5.253   4.938   8.479  0.0823  0.9293 -0.7848
 1636TIP3   OH226466   5.031   3.030   8.191  0.1484  0.0635  0.0175
 1636TIP3    H126467   5.054   3.072   8.108  0.1122  2.2452  1.0182
 1636TIP3    H226468   5.112   2.988   8.220  0.7987  1.1593 -0.1231
 1637TIP3   OH226469   1.642   2.738   1.068  0.0853  0.2539 -0.7064
 1637TIP3    H126470   1.628   2.646   1.049  2.3815 -0.4631  0.7518
 1637TIP3    H226471   1.729   2.757   1.032  1.0193  0.9664  1.7266
 1638TIP3   OH226472   5.886   2.738   7.633 -0.2314  0.6345  0.2547
 1638TIP3    H126473   5.974   2.703   7.618 -0.1449  0.4293  1.2139
 1638TIP3    H226474   5.900   2.812   7.692 -0.2563  3.1917 -2.6871
 1639TIP3   OH226475   4.787   0.539   0.296  0.1425  0.1509  0.8237
 1639TIP3    H126476   4.817   0.629   0.302  2.8599 -0.3419 -2.3560
 1639TIP3    H226477   4.860   0.487   0.328 -0.9827 -0.9896  1.6339
 1640TIP3   OH226478   0.647   1.602   8.109 -0.2017 -0.2714  0.3625
 1640TIP3    H126479   0.740   1.619   8.101 -0.0616 -1.2742 -0.3515
 1640TIP3    H226480   0.636   1.572   8.199  0.0716  0.3824  0.6151
 1641TIP3   OH226481   6.735   2.878   7.773 -0.1642 -0.2527  0.2334
 1641TIP3    H126482   6.747   2.790   7.810  1.1506 -0.9801 -1.7729
 1641TIP3    H226483   6.792   2.880   7.696 -1.3394  1.8382 -0.6670
 1642TIP3   OH226484   4.699   6.353   7.380  0.0866  0.0733 -0.3193
 1642TIP3    H126485   4.735   6.378   7.465 -0.6787  0.8222 -0.1981
 1642TIP3    H226486   4.614   6.314   7.401 -2.2954  4.3627 -0.8970
 1643TIP3   OH226487   1.698   4.300   8.112  0.0724 -0.0316 -0.4360
 1643TIP3    H126488   1.744   4.273   8.032  2.7187  1.0234  0.6221
 1643TIP3    H226489   1.757   4.276   8.183 -0.2279  2.8647  0.9251
 1644TIP3   OH226490   3.940   0.776   2.611 -0.4436  0.1209  0.3552
 1644TIP3    H126491   4.017   0.828   2.632  1.0076 -1.0426 -1.7350
 1644TIP3    H226492   3.939   0.706   2.677 -0.4769  0.8583  1.1495
 1645TIP3   OH226493   0.494   0.567   1.131  0.3666  0.1737  0.2932
 1645TIP3    H126494   0.480   0.488   1.184  1.2376 -1.6692 -2.0848
 1645TIP3    H226495   0.410   0.613   1.135 -1.4577 -2.7280 -1.1309
 1646TIP3   OH226496   1.167   5.373   7.586  0.2859 -0.0073  0.6102
 1646TIP3    H126497   1.145   5.384   7.493 -1.8189  0.9424  1.1526
 1646TIP3    H226498   1.143   5.282   7.605  2.7062 -0.8999 -0.1941
 1647TIP3   OH226499   2.416   4.001   2.053  0.1009 -0.6497  0.1874
 1647TIP3    H126500   2.374   3.928   2.007 -0.8632 -0.2065  0.3300
 1647TIP3    H226501   2.368   4.079   2.022 -2.9372 -0.5472  4.2919
 1648TIP3   OH226502   0.357   5.763   2.293 -0.1857 -0.2002  0.0451
 1648TIP3    H126503   0.293   5.724   2.234 -0.1247  1.0616 -0.8665
 1648TIP3    H226504   0.321   5.747   2.381  0.2861 -3.1165 -0.1832
 1649TIP3   OH226505   1.007   3.862   0.980  0.4194 -0.0734  0.3753
 1649TIP3    H126506   0.936   3.880   1.042 -0.2050 -0.8368 -0.1053
 1649TIP3    H226507   1.002   3.934   0.917 -0.4464 -0.5645 -0.1158
 1650TIP3   OH226508   3.901   1.046   2.821  0.8093 -0.3209  0.0705
 1650TIP3    H126509   3.809   1.061   2.799  0.8219  2.0521  1.2753
 1650TIP3    H226510   3.944   1.033   2.736 -0.7884 -3.0440 -0.4317
 1651TIP3   OH226511   0.585   0.066   1.330  0.2746  0.6237 -0.3484
 1651TIP3    H126512   0.575  -0.024   1.301 -0.9973  0.2480  1.1325
 1651TIP3    H226513   0.636   0.061   1.410  0.3544  1.2311 -0.3567
 1652TIP3   OH226514   0.032   1.578   0.991 -0.4155 -0.3378  0.0406
 1652TIP3    H126515  -0.006   1.576   1.079  2.7811 -1.2805  1.5705
 1652TIP3    H226516   0.092   1.503   0.990 -0.8396 -0.7412 -3.2307
 1653TIP3   OH226517   3.013   1.082   7.885  0.4498 -0.3263  0.4523
 1653TIP3    H126518   3.054   1.168   7.895 -0.2684 -0.0901  1.5901
 1653TIP3    H226519   3.070   1.022   7.934  1.1320 -0.5765 -0.6189
 1654TIP3   OH226520   3.160   2.300   0.512 -0.0002 -0.1745  0.4328
 1654TIP3    H126521   3.234   2.359   0.498 -1.2563  1.1411 -0.9952
 1654TIP3    H226522   3.089   2.357   0.543 -0.4263 -1.4156  1.8905
 1655TIP3   OH226523   3.302   6.378   7.266 -0.1100 -0.1897 -0.0795
 1655TIP3    H126524   3.249   6.302   7.241  1.0544 -0.6563 -1.2583
 1655TIP3    H226525   3.374   6.379   7.203 -0.3395  2.1929 -0.3823
 1656TIP3   OH226526   6.469   0.407   7.625 -0.1671  0.0690  0.2030
 1656TIP3    H126527   6.541   0.373   7.573 -0.9319  0.2826 -1.0404
 1656TIP3    H226528   6.471   0.356   7.706  0.3991 -1.0140 -0.4747
 1657TIP3   OH226529   0.732   6.814   7.587 -0.0535  0.5064  0.3867
 1657TIP3    H126530   0.709   6.748   7.522 -1.0191 -0.4525  1.6434
 1657TIP3    H226531   0.673   6.887   7.569 -0.1083  0.3701  0.0003
 1658TIP3   OH226532   0.249   2.041   8.692 -0.1413 -0.1649  0.1451
 1658TIP3    H126533   0.202   1.973   8.643  0.0302  1.5318 -2.5300
 1658TIP3    H226534   0.331   1.999   8.719 -0.0818 -1.0750 -1.3590
 1659TIP3   OH226535   2.160   2.414   8.502  0.0823 -0.4646  0.2128
 1659TIP3    H126536   2.134   2.450   8.417 -0.6674  1.2716  1.1165
 1659TIP3    H226537   2.087   2.358   8.528 -1.6217  2.1364  1.4422
 1660TIP3   OH226538   1.411   4.653   7.540  0.4385  0.0872 -0.1646
 1660TIP3    H126539   1.340   4.624   7.598  1.3735  0.5726  1.2975
 1660TIP3    H226540   1.490   4.646   7.595  1.4966 -0.2349 -1.6683
 1661TIP3   OH226541   3.667   4.191   8.255  0.2091 -0.2277 -0.1076
 1661TIP3    H126542   3.578   4.175   8.225 -0.4778  1.7597  0.7028
 1661TIP3    H226543   3.680   4.285   8.242  0.8949  0.2250  2.9524
 1662TIP3   OH226544   0.939   4.194   2.593 -0.1412  0.2933  0.1974
 1662TIP3    H126545   0.863   4.149   2.631  0.2610  0.6277  1.4750
 1662TIP3    H226546   1.012   4.136   2.612  0.3326  1.2857  1.5708
 1663TIP3   OH226547   5.075   5.204   0.908  0.2555  0.5628 -0.2339
 1663TIP3    H126548   5.081   5.181   0.815  0.1811 -0.8262  0.0800
 1663TIP3    H226549   5.102   5.125   0.954 -0.3612  1.0080  0.9390
 1664TIP3   OH226550   3.927   3.600   1.809 -0.6984 -0.3291 -0.1352
 1664TIP3    H126551   3.909   3.691   1.833 -1.0010 -0.5685  0.5552
 1664TIP3    H226552   3.893   3.549   1.882  2.2118 -0.8469  0.9796
 1665TIP3   OH226553   6.616   3.653   2.390 -0.0782 -0.1723  0.5155
 1665TIP3    H126554   6.619   3.561   2.417  1.4422 -0.7799 -1.4896
 1665TIP3    H226555   6.522   3.675   2.390 -0.5706 -2.0706 -0.0339
 1666TIP3   OH226556   5.032   6.365   7.725 -0.2718  0.1366  0.0801
 1666TIP3    H126557   5.068   6.432   7.666 -1.5579  1.5498  0.8057
 1666TIP3    H226558   5.096   6.294   7.723  2.4646  2.3856  1.1194
 1667TIP3   OH226559   2.950   2.908   1.293  0.6617  0.2268 -0.0108
 1667TIP3    H126560   3.002   2.954   1.228  1.4415 -0.7277 -0.0994
 1667TIP3    H226561   3.007   2.903   1.370  0.0967  0.5505  0.4316
 1668TIP3   OH226562   6.210   2.158   1.451  0.2068 -0.0270 -0.1229
 1668TIP3    H126563   6.190   2.138   1.359  0.7448  0.9623 -0.4640
 1668TIP3    H226564   6.303   2.140   1.459  0.1542 -0.1380  0.2406
 1669TIP3   OH226565   4.569   2.566   7.832  0.2098  0.1565 -0.8031
 1669TIP3    H126566   4.530   2.479   7.827  0.2760  0.0679  0.1923
 1669TIP3    H226567   4.663   2.550   7.842 -0.0219  0.2265  2.5311
 1670TIP3   OH226568   5.672   5.248   2.415  0.1776  0.0633 -0.2995
 1670TIP3    H126569   5.637   5.210   2.496  0.4232 -2.5618 -1.3435
 1670TIP3    H226570   5.612   5.218   2.347  1.1737  0.4502 -1.3660
 1671TIP3   OH226571   3.148   3.658   0.300  0.1557  0.3209 -0.2262
 1671TIP3    H126572   3.143   3.753   0.289  2.6748  0.8777  2.3497
 1671TIP3    H226573   3.066   3.635   0.344  1.0793  2.0374  2.6545
 1672TIP3   OH226574   3.469   1.769   1.717  0.2542 -0.2152 -0.5522
 1672TIP3    H126575   3.380   1.772   1.754 -0.4377 -0.0253 -2.1781
 1672TIP3    H226576   3.507   1.690   1.757 -1.6025 -1.8854 -1.8547
 1673TIP3   OH226577   0.461   1.534   7.219  0.4046 -0.5431  0.3872
 1673TIP3    H126578   0.395   1.520   7.287  1.3565 -3.0501  0.9224
 1673TIP3    H226579   0.419   1.502   7.139  0.0560  0.3400  0.2140
 1674TIP3   OH226580   4.066   2.160   8.543  0.2482  0.2721  0.2164
 1674TIP3    H126581   4.092   2.247   8.510  1.3207 -0.0644  0.1290
 1674TIP3    H226582   4.149   2.112   8.551 -0.4526 -1.2214 -1.0693
 1675TIP3   OH226583   0.362   1.254   2.082  0.2375  0.3391 -0.7321
 1675TIP3    H126584   0.349   1.348   2.069 -1.5505  0.0978 -0.8575
 1675TIP3    H226585   0.312   1.233   2.160  0.9942 -0.4482 -0.4409
 1676TIP3   OH226586   2.712   2.616   1.324  0.4417  0.2050 -0.2232
 1676TIP3    H126587   2.620   2.626   1.347  0.2583 -0.3815 -0.6639
 1676TIP3    H226588   2.723   2.522   1.310  1.1127  0.2692 -0.1558
 1677TIP3   OH226589   6.373   0.349   3.264  0.1462 -0.1494 -0.0783
 1677TIP3    H126590   6.337   0.302   3.189  0.0679  0.1778 -0.2456
 1677TIP3    H226591   6.320   0.428   3.271 -0.7780 -0.8339  1.1899
 1678TIP3   OH226592   4.973   2.544   8.375 -0.1420  0.1876  0.2440
 1678TIP3    H126593   5.026   2.569   8.299 -0.2493  0.6617  0.3229
 1678TIP3    H226594   4.930   2.625   8.402 -0.7232 -0.1408  0.3270
 1679TIP3   OH226595   6.622   5.165   7.753  0.0633 -0.2871 -0.5516
 1679TIP3    H126596   6.664   5.082   7.730 -2.2587 -1.3280 -1.4255
 1679TIP3    H226597   6.556   5.141   7.819  1.3920  1.4272  1.5307
 1680TIP3   OH226598   3.078   2.113   7.686  0.8897  0.0928  0.5593
 1680TIP3    H126599   3.045   2.172   7.619 -0.1031  1.5287  2.2328
 1680TIP3    H226600   3.017   2.039   7.686 -0.0776  0.8730  0.9713
 1681TIP3   OH226601   1.985   5.927   7.765 -0.2723  0.9738 -0.3545
 1681TIP3    H126602   2.055   5.987   7.793  0.4605 -1.1230  2.9376
 1681TIP3    H226603   2.017   5.889   7.683  2.1894  0.6601  0.6626
 1682TIP3   OH226604   0.805   4.924   2.478  0.0476 -0.1079  0.6611
 1682TIP3    H126605   0.808   4.829   2.468  0.1329 -0.1068  0.6755
 1682TIP3    H226606   0.742   4.953   2.412 -0.4228 -0.2293  1.0503
 1683TIP3   OH226607   6.428   5.117   7.951 -0.0172 -0.0409  0.0284
 1683TIP3    H126608   6.336   5.093   7.963 -0.3595  0.3924 -1.5334
 1683TIP3    H226609   6.434   5.207   7.982  0.0747 -0.3231  0.8629
 1684TIP3   OH226610   0.010   1.715   0.244 -0.3450  0.4060  0.2727
 1684TIP3    H126611   0.064   1.716   0.165 -1.7958  0.0695 -0.7697
 1684TIP3    H226612   0.065   1.675   0.311  0.9192  0.7054 -0.5581
 1685TIP3   OH226613   4.913   5.402   1.861 -0.5083  0.0345 -0.5980
 1685TIP3    H126614   4.915   5.358   1.946  0.6876 -1.8762 -1.5560
 1685TIP3    H226615   4.846   5.355   1.811 -1.5175  1.4193 -0.6248
 1686TIP3   OH226616   6.314   6.283   0.769 -0.4037 -0.4302  0.2649
 1686TIP3    H126617   6.289   6.191   0.771 -1.8077 -0.1110 -0.7677
 1686TIP3    H226618   6.387   6.287   0.708 -1.2560 -0.6979 -0.8054
 1687TIP3   OH226619   3.932   2.365   0.832  0.2019  0.2367 -0.3269
 1687TIP3    H126620   4.001   2.390   0.894 -0.9193 -0.1185  1.1164
 1687TIP3    H226621   3.977   2.312   0.766  1.4227  0.6095  0.1752
 1688TIP3   OH226622   5.846   4.318   8.493  0.7014  0.1147 -0.2817
 1688TIP3    H126623   5.892   4.250   8.541 -0.0633 -0.9215 -0.9649
 1688TIP3    H226624   5.780   4.350   8.555 -0.3149 -1.2479 -0.6013
 1689TIP3   OH226625   0.054   3.554   0.050 -0.1122 -0.2533 -0.1074
 1689TIP3    H126626   0.062   3.569  -0.044  2.7842 -0.4113  0.0293
 1689TIP3    H226627   0.099   3.471   0.065 -1.2135 -0.6247  1.3481
 1690TIP3   OH226628   0.583   3.311   2.851 -0.1998 -0.2984 -0.4206
 1690TIP3    H126629   0.536   3.229   2.866  0.1299 -0.2965  0.7128
 1690TIP3    H226630   0.521   3.365   2.802 -0.8437 -0.8173 -0.1944
 1691TIP3   OH226631   2.835   1.495   1.557 -0.3524  0.0531  0.2822
 1691TIP3    H126632   2.873   1.449   1.483  0.9419 -0.7434  1.3825
 1691TIP3    H226633   2.889   1.573   1.567 -0.3328  0.0052  0.5586
 1692TIP3   OH226634   2.827   2.245   8.385  0.4050 -0.2538  0.8074
 1692TIP3    H126635   2.912   2.289   8.381 -0.5117  1.6833  1.3056
 1692TIP3    H226636   2.798   2.241   8.293  0.2776  0.6885  0.7999
 1693TIP3   OH226637   2.703   5.340   7.850 -0.3759 -0.2734  0.0984
 1693TIP3    H126638   2.736   5.404   7.787 -2.4155  0.0855 -0.6680
 1693TIP3    H226639   2.761   5.264   7.839  0.3227  0.3923 -0.9967
 1694TIP3   OH226640   3.756   2.353   6.489  0.6336 -0.1103  0.6158
 1694TIP3    H126641   3.818   2.382   6.556  0.7159  0.1053  0.4449
 1694TIP3    H226642   3.743   2.260   6.507  2.4678 -0.6291 -0.5099
 1695TIP3   OH226643   5.033   1.477   8.481  0.0462 -0.1455  0.0995
 1695TIP3    H126644   4.991   1.438   8.558 -0.0210 -1.6238 -0.6437
 1695TIP3    H226645   5.059   1.565   8.509 -0.5917 -0.4075  1.5875
 1696TIP3   OH226646   1.790   0.793   1.725  0.5423 -0.3944  0.2820
 1696TIP3    H126647   1.739   0.719   1.693  0.9206 -0.9282  0.8831
 1696TIP3    H226648   1.868   0.753   1.765  0.8810  0.3401  0.3777
 1697TIP3   OH226649   2.640   5.838   8.193 -0.2464 -0.6280  0.1091
 1697TIP3    H126650   2.605   5.750   8.181 -2.7566  0.4271 -0.9023
 1697TIP3    H226651   2.664   5.867   8.105 -2.7598  0.8948 -0.1936
 1698TIP3   OH226652   6.351   3.320   2.322  0.4485  0.2866 -0.6471
 1698TIP3    H126653   6.432   3.269   2.319  0.5397  0.3328  0.5223
 1698TIP3    H226654   6.339   3.340   2.415 -1.2322 -0.2376 -0.7103
 1699TIP3   OH226655   3.280   0.708   0.966  0.3271  0.0423 -0.4483
 1699TIP3    H126656   3.262   0.769   1.037 -1.6814 -1.0300  0.0340
 1699TIP3    H226657   3.372   0.723   0.944  0.3683  1.9726  0.8281
 1700TIP3   OH226658   0.901   3.669   2.639  0.1596  0.4504  0.0255
 1700TIP3    H126659   0.969   3.736   2.648 -0.8600  2.4913 -4.4913
 1700TIP3    H226660   0.819   3.716   2.651 -0.5732 -0.9673  0.8205
 1701TIP3   OH226661   0.449   6.446   1.498 -0.0963  0.2829 -0.3889
 1701TIP3    H126662   0.404   6.412   1.575 -0.8838  1.4724 -0.2955
 1701TIP3    H226663   0.396   6.416   1.424  0.0415  0.0624 -0.3980
 1702TIP3   OH226664   5.956   4.818   6.797 -0.0745 -0.4575 -0.2828
 1702TIP3    H126665   6.017   4.845   6.865  0.3115  1.0542 -1.1879
 1702TIP3    H226666   5.932   4.728   6.821  1.7327 -0.7498  0.6218
 1703TIP3   OH226667   4.573   2.335   2.301  0.1814 -0.3697 -0.3352
 1703TIP3    H126668   4.592   2.412   2.355 -0.0823  0.0352 -0.8090
 1703TIP3    H226669   4.554   2.371   2.214  0.0362 -0.9714 -0.5568
 1704TIP3   OH226670   0.943   6.416   1.436  0.1433  0.4955 -0.6874
 1704TIP3    H126671   1.026   6.417   1.388  0.2543 -0.8095 -0.5332
 1704TIP3    H226672   0.967   6.391   1.526 -0.5733 -1.4448 -0.9974
 1705TIP3   OH226673   2.266   2.986   0.519  0.2778  0.1675  0.1326
 1705TIP3    H126674   2.330   2.979   0.448  0.5987 -2.1575  0.5850
 1705TIP3    H226675   2.313   3.031   0.589  1.4539 -1.4205  0.4227
 1706TIP3   OH226676   3.763   1.367   7.496 -0.1993  0.1803 -0.4899
 1706TIP3    H126677   3.841   1.421   7.509  0.1117 -0.5806  1.0456
 1706TIP3    H226678   3.778   1.326   7.410  0.0959  1.5906 -1.1541
 1707TIP3   OH226679   2.506   5.930   2.202  0.0678  0.3658 -0.3454
 1707TIP3    H126680   2.493   5.992   2.131  0.0712 -0.5501 -1.1799
 1707TIP3    H226681   2.419   5.894   2.220  0.1377  0.2664 -0.1932
 1708TIP3   OH226682   3.681   5.283   8.416 -0.1856  0.0171  0.2235
 1708TIP3    H126683   3.699   5.296   8.510  1.6543  0.2586 -0.1220
 1708TIP3    H226684   3.716   5.362   8.375  0.3397 -0.7333 -0.7969
 1709TIP3   OH226685   1.360   3.065   7.006 -0.0290  0.5345  0.7489
 1709TIP3    H126686   1.351   3.158   6.988 -1.6883  0.2689  0.0799
 1709TIP3    H226687   1.455   3.051   7.011  0.3364  1.8608 -1.3428
 1710TIP3   OH226688   2.539   2.891   1.788 -0.1670 -0.0086  0.2228
 1710TIP3    H126689   2.624   2.884   1.743  0.4080 -0.2002  1.2983
 1710TIP3    H226690   2.558   2.864   1.878 -1.6562 -1.4462  0.1613
 1711TIP3   OH226691   1.143   4.616   1.895  0.7222 -0.3240 -0.2966
 1711TIP3    H126692   1.205   4.549   1.867  0.9763 -0.4197  0.4755
 1711TIP3    H226693   1.059   4.571   1.900  1.0554 -0.8240  1.1047
 1712TIP3   OH226694   4.483   2.766   8.385  0.4806  0.8191  0.9910
 1712TIP3    H126695   4.455   2.694   8.329 -0.6532  0.3898  2.0809
 1712TIP3    H226696   4.402   2.810   8.410  0.7300 -0.2077  3.8899
 1713TIP3   OH226697   0.261   2.942   8.137 -0.4529  0.2576 -0.2206
 1713TIP3    H126698   0.202   2.948   8.213  1.0995  0.0370  1.0398
 1713TIP3    H226699   0.211   2.892   8.073 -2.0617  1.0030  0.3862
 1714TIP3   OH226700   5.358   3.189   8.331  0.0559  0.1456 -0.4936
 1714TIP3    H126701   5.411   3.112   8.352 -0.2581 -0.3093 -1.3035
 1714TIP3    H226702   5.330   3.224   8.415  0.7850 -0.2133 -0.0948
 1715TIP3   OH226703   1.763   0.102   0.879 -0.2400  0.1706  0.1979
 1715TIP3    H126704   1.715   0.129   0.958 -0.1494  2.0414 -0.3614
 1715TIP3    H226705   1.802   0.182   0.845  0.2745 -0.7149 -1.4078
 1716TIP3   OH226706   3.809   6.421   7.986 -0.1359  0.4892  0.5671
 1716TIP3    H126707   3.798   6.436   8.080  1.1301 -1.0537  1.0023
 1716TIP3    H226708   3.901   6.399   7.975  0.0326  1.8138 -1.2480
 1717TIP3   OH226709   4.252   0.333   1.308 -0.1057 -0.3538 -0.3098
 1717TIP3    H126710   4.211   0.294   1.231  1.1936 -0.0473 -1.2008
 1717TIP3    H226711   4.281   0.419   1.278  0.6767 -0.3450  0.4361
 1718TIP3   OH226712   0.970   1.106   8.356  0.6849 -0.2639 -0.1658
 1718TIP3    H126713   0.968   1.197   8.384 -0.9943  0.1792 -1.5289
 1718TIP3    H226714   0.955   1.110   8.261 -2.3293 -2.0383  0.1079
 1719TIP3   OH226715   1.541   4.320   1.816  0.7635 -0.0907  0.0459
 1719TIP3    H126716   1.580   4.360   1.894 -0.1404 -0.7375  0.8532
 1719TIP3    H226717   1.461   4.370   1.801  0.7006 -0.2575 -0.1810
 1720TIP3   OH226718   3.430   6.224   1.105  0.3474 -0.1543 -0.0352
 1720TIP3    H126719   3.338   6.245   1.088  0.2902  0.2814  0.7561
 1720TIP3    H226720   3.437   6.130   1.088 -0.3937 -0.3153  0.4957
 1721TIP3   OH226721   5.545   5.255   8.658  0.3442 -0.4742  0.1622
 1721TIP3    H126722   5.467   5.298   8.694  1.2854  3.1783 -1.7040
 1721TIP3    H226723   5.562   5.182   8.718 -2.3887  0.7732  2.7041
 1722TIP3   OH226724   1.153   6.240   0.213  0.1604  0.1135  0.1168
 1722TIP3    H126725   1.172   6.213   0.302 -1.3141 -2.3736 -0.2359
 1722TIP3    H226726   1.160   6.160   0.161 -0.5622  1.1821 -1.7360
 1723TIP3   OH226727   4.914   2.181   0.309 -0.0081  0.4698 -0.5263
 1723TIP3    H126728   4.999   2.145   0.283  1.1969  1.6457  1.4952
 1723TIP3    H226729   4.924   2.275   0.299 -1.2684  0.6099 -0.6734
 1724TIP3   OH226730   4.741   1.953   7.389  0.4488  0.2313  0.5641
 1724TIP3    H126731   4.734   2.014   7.315 -1.4353  0.0778  0.5586
 1724TIP3    H226732   4.777   1.873   7.351 -0.1855  0.2649 -0.1209
 1725TIP3   OH226733   4.983   1.257   1.579 -0.0325  0.2958 -0.3335
 1725TIP3    H126734   5.057   1.197   1.570 -1.5675 -1.6086 -0.9485
 1725TIP3    H226735   4.990   1.289   1.669  1.6423  0.3726 -0.4448
 1726TIP3   OH226736   4.553   2.873   7.862 -0.3235 -0.7157  0.9537
 1726TIP3    H126737   4.513   2.880   7.948  0.7564 -1.1069  1.5023
 1726TIP3    H226738   4.611   2.797   7.868  2.2581  1.1063  0.9613
 1727TIP3   OH226739   5.268   0.968   8.417  0.7239 -0.1256 -0.2537
 1727TIP3    H126740   5.267   0.957   8.322  0.7210 -0.2324 -0.2418
 1727TIP3    H226741   5.238   1.057   8.431  2.6671  0.6056 -0.4583
 1728TIP3   OH226742   2.734   2.424   6.973  0.0389  0.2116  0.4546
 1728TIP3    H126743   2.669   2.493   6.959 -0.2911  0.2881  2.1754
 1728TIP3    H226744   2.807   2.448   6.915 -0.6282  1.2456  0.0109
 1729TIP3   OH226745   3.847   2.640   1.236 -0.2399 -0.6394 -0.3601
 1729TIP3    H126746   3.836   2.696   1.313 -1.4953 -0.6448 -0.5123
 1729TIP3    H226747   3.770   2.657   1.183  0.9990 -0.0253 -2.0354
 1730TIP3   OH226748   5.253   5.667   1.041  0.4100 -0.0715  0.0349
 1730TIP3    H126749   5.326   5.605   1.037  0.6805  0.3146 -2.7304
 1730TIP3    H226750   5.208   5.657   0.958 -1.8430  0.7905  1.0669
 1731TIP3   OH226751   5.308   2.940   1.776 -0.0501 -0.2025  0.4844
 1731TIP3    H126752   5.232   2.996   1.794  0.2507  0.3268  0.1413
 1731TIP3    H226753   5.272   2.867   1.724 -0.4948 -0.4892  1.1783
 1732TIP3   OH226754   3.951   4.265   0.025  0.5142 -0.3756  0.0590
 1732TIP3    H126755   3.968   4.240   0.115 -1.0288  2.9373  1.4559
 1732TIP3    H226756   3.863   4.232   0.007  0.7225 -0.8188 -0.1543
 1733TIP3   OH226757   3.170   1.721   6.739  1.0782 -0.3179  0.1324
 1733TIP3    H126758   3.171   1.817   6.747  0.2470 -0.2825 -0.1116
 1733TIP3    H226759   3.262   1.696   6.746  1.2656  0.4622  0.6700
 1734TIP3   OH226760   0.187   5.677   0.175 -0.1467  0.4297  0.0089
 1734TIP3    H126761   0.154   5.762   0.147  0.0145  0.5329  0.1331
 1734TIP3    H226762   0.281   5.681   0.158 -0.1739  0.1907 -0.2046
 1735TIP3   OH226763   0.998   3.486   8.448  0.3539 -0.0657 -0.0303
 1735TIP3    H126764   0.983   3.561   8.390  1.1411  1.2103  1.3782
 1735TIP3    H226765   1.058   3.430   8.398  0.6448  0.7715 -0.6513
 1736TIP3   OH226766   5.582   6.351   0.386  0.1978 -0.0815  0.1201
 1736TIP3    H126767   5.659   6.357   0.442  1.9479 -1.2234 -1.9859
 1736TIP3    H226768   5.510   6.328   0.446  1.5057  0.7638  2.1142
 1737TIP3   OH226769   3.925   3.852   8.052 -0.3639 -0.2453 -0.4491
 1737TIP3    H126770   3.830   3.862   8.047 -0.3249  1.2465  1.0358
 1737TIP3    H226771   3.957   3.938   8.080  1.1790 -1.3994  1.5880
 1738TIP3   OH226772   3.304   3.913   1.417 -0.2834 -0.2836 -0.0322
 1738TIP3    H126773   3.254   3.887   1.339  1.8678  0.1272 -1.6546
 1738TIP3    H226774   3.295   4.008   1.421  1.0384 -0.0848 -0.9144
 1739TIP3   OH226775   6.676   1.198   8.463  0.1782 -0.4577 -0.0016
 1739TIP3    H126776   6.624   1.167   8.389  1.8732  1.6100 -2.2106
 1739TIP3    H226777   6.642   1.149   8.538 -2.3694 -1.8725 -1.9143
 1740TIP3   OH226778   1.185   5.815   8.365  0.5354  0.2085  0.3018
 1740TIP3    H126779   1.244   5.842   8.435 -0.0455  1.5305  0.3291
 1740TIP3    H226780   1.238   5.818   8.285  0.3774  2.2075  0.1987
 1741TIP3   OH226781   5.190   1.444   8.267 -0.1942  0.4303  0.0568
 1741TIP3    H126782   5.230   1.529   8.250  0.3746  0.7901  2.7388
 1741TIP3    H226783   5.104   1.465   8.303 -0.0365 -0.1176  0.7732
 1742TIP3   OH226784   0.822   3.347   2.114 -0.1591 -0.2149  0.2283
 1742TIP3    H126785   0.745   3.401   2.097 -0.3769 -0.7447 -0.5312
 1742TIP3    H226786   0.896   3.406   2.102 -0.3985 -0.0589 -0.5497
 1743TIP3   OH226787   4.164   2.145   7.528  0.3618 -0.4025 -0.7394
 1743TIP3    H126788   4.186   2.067   7.477  0.0747 -0.8915 -0.1346
 1743TIP3    H226789   4.109   2.112   7.600  1.0484  0.2126  0.0881
 1744TIP3   OH226790   6.387   0.545   1.266 -0.0324  0.1835  0.0292
 1744TIP3    H126791   6.418   0.542   1.175  1.0145 -0.4433  0.3838
 1744TIP3    H226792   6.349   0.632   1.275  1.9249  1.1393 -0.3771
 1745TIP3   OH226793   3.743   1.973   2.894  0.0433  0.1071  0.5059
 1745TIP3    H126794   3.797   1.910   2.847  0.5626 -0.8328  2.2652
 1745TIP3    H226795   3.776   2.059   2.867 -0.0901 -0.3487 -1.2477
 1746TIP3   OH226796   1.773   1.049   1.354 -0.3007  0.3954  0.1740
 1746TIP3    H126797   1.800   1.054   1.446 -4.2634  1.4021  1.5238
 1746TIP3    H226798   1.746   0.957   1.342  1.4967 -0.0781 -0.4889
 1747TIP3   OH226799   0.710   1.507   0.289  0.5034  0.3032 -0.6208
 1747TIP3    H126800   0.706   1.600   0.269 -1.0490  0.1434 -1.2186
 1747TIP3    H226801   0.618   1.480   0.298  0.9009 -1.2266 -0.7891
 1748TIP3   OH226802   4.216   1.523   0.829  0.2399 -0.0661 -0.0290
 1748TIP3    H126803   4.292   1.482   0.870 -1.0230 -0.1585  2.4078
 1748TIP3    H226804   4.230   1.617   0.843  1.1709  0.1401 -2.0249
 1749TIP3   OH226805   6.171   0.841   2.167 -0.1230  0.4276 -0.0863
 1749TIP3    H126806   6.160   0.936   2.164  0.2206  0.4603 -0.6949
 1749TIP3    H226807   6.207   0.819   2.080 -1.0879 -0.3702 -0.3029
 1750TIP3   OH226808   5.056   5.918   8.313 -0.2387  0.4528 -0.1536
 1750TIP3    H126809   5.062   5.823   8.321 -1.4494  0.3459 -0.3476
 1750TIP3    H226810   5.147   5.947   8.306  0.1743 -0.6270  0.5285
 1751TIP3   OH226811   1.359   2.739   8.255 -0.4364 -0.0772  0.3313
 1751TIP3    H126812   1.348   2.813   8.195  2.1069  2.5548  2.7912
 1751TIP3    H226813   1.269   2.712   8.276 -1.4264  0.9695 -2.1600
 1752TIP3   OH226814   1.341   1.216   1.375 -0.4931 -0.5028  0.2076
 1752TIP3    H126815   1.420   1.245   1.329 -1.3974  0.8033 -0.5622
 1752TIP3    H226816   1.342   1.120   1.365  0.5398 -0.4365 -0.5162
 1753TIP3   OH226817   3.762   6.088   2.092  0.7258  0.5532  0.4824
 1753TIP3    H126818   3.757   5.997   2.062  1.7729  0.4009  0.7147
 1753TIP3    H226819   3.683   6.130   2.056 -0.0690 -0.5770  0.8544
 1754TIP3   OH226820   4.928   5.320   1.490  0.6551  0.4860  0.0239
 1754TIP3    H126821   4.857   5.297   1.430  0.8563 -0.6531  0.1987
 1754TIP3    H226822   5.003   5.338   1.434  1.1742 -1.7264 -0.0789
 1755TIP3   OH226823   4.452   2.404   8.453  0.0692  0.5334 -0.0442
 1755TIP3    H126824   4.423   2.424   8.542 -1.6843 -0.9120 -0.2199
 1755TIP3    H226825   4.539   2.367   8.464 -0.9414 -1.6633  1.3949
 1756TIP3   OH226826   2.044   5.011   2.606 -0.3159  0.6041  0.0124
 1756TIP3    H126827   2.021   4.965   2.687 -0.1591  0.8724  0.2129
 1756TIP3    H226828   1.995   5.094   2.611  0.4402  1.0440  0.2950
 1757TIP3   OH226829   3.213   2.375   7.769 -0.3510 -0.6811  0.6601
 1757TIP3    H126830   3.135   2.324   7.788 -0.0368 -2.0501 -1.3665
 1757TIP3    H226831   3.200   2.408   7.680  0.3473  1.1545  1.1765
 1758TIP3   OH226832   5.515   4.633   7.554 -0.3917 -0.3418  0.4476
 1758TIP3    H126833   5.498   4.652   7.461  2.1312  1.0319  0.1909
 1758TIP3    H226834   5.534   4.539   7.555 -1.4623 -0.5903 -0.2271
 1759TIP3   OH226835   0.136   5.783   7.931 -0.1611  0.4029 -0.1741
 1759TIP3    H126836   0.190   5.716   7.973  1.1448  1.9403  0.7309
 1759TIP3    H226837   0.047   5.751   7.939  0.2337 -0.2702  2.0969
 1760TIP3   OH226838   0.351   3.556   2.243 -0.5161 -0.7021  0.3707
 1760TIP3    H126839   0.440   3.538   2.213  0.0963  0.1531  1.5847
 1760TIP3    H226840   0.352   3.649   2.266 -2.1587 -0.2775 -0.9895
 1761TIP3   OH226841   4.269   2.133   8.193 -0.6374 -0.2618 -0.2497
 1761TIP3    H126842   4.273   2.222   8.157 -1.1897 -0.0856  0.1092
 1761TIP3    H226843   4.176   2.118   8.209 -0.6606 -1.3177 -1.3043
 1762TIP3   OH226844   5.731   1.259   8.186  0.4993  0.1990 -0.2679
 1762TIP3    H126845   5.715   1.351   8.163  0.4942  0.8406  1.9928
 1762TIP3    H226846   5.644   1.222   8.199  0.4950  0.8149  1.9034
 1763TIP3   OH226847   5.595   0.401   8.274 -0.0073 -0.2632 -0.1923
 1763TIP3    H126848   5.505   0.434   8.270  0.6771  1.6944 -0.1413
 1763TIP3    H226849   5.603   0.365   8.363 -0.4542  0.4160  0.1272
 1764TIP3   OH226850   4.459   5.913   0.949  0.2490 -0.5747 -0.3878
 1764TIP3    H126851   4.399   5.909   0.875  1.3405 -0.4188 -1.3133
 1764TIP3    H226852   4.531   5.856   0.924  1.2828  0.5436 -0.0620
 1765TIP3   OH226853   4.021   1.210   1.444 -0.2144  0.3934 -0.9555
 1765TIP3    H126854   4.106   1.248   1.467  0.2775 -0.8247 -0.6749
 1765TIP3    H226855   4.041   1.118   1.423 -1.3071  0.3561 -1.9305
 1766TIP3   OH226856   6.104   2.057   0.274 -0.2796  0.3008  0.8149
 1766TIP3    H126857   6.014   2.080   0.250 -0.1195  0.6924  0.5874
 1766TIP3    H226858   6.118   1.972   0.232 -0.9126 -0.2973  1.7738
 1767TIP3   OH226859   5.914   6.117   0.737  0.7207 -0.5249 -0.4485
 1767TIP3    H126860   5.875   6.187   0.685  0.1369 -1.0885 -0.7820
 1767TIP3    H226861   5.938   6.159   0.820  0.7346  0.1495 -0.7813
 1768TIP3   OH226862   4.317   0.275   2.950 -0.2692  0.2163  0.2810
 1768TIP3    H126863   4.279   0.202   2.900 -0.1055 -0.9798  1.8179
 1768TIP3    H226864   4.309   0.248   3.041  0.6634  1.7293  0.8509
 1769TIP3   OH226865   5.376   5.222   8.385 -0.0651  0.3818  0.2331
 1769TIP3    H126866   5.337   5.205   8.299  1.2505 -0.3060 -0.2511
 1769TIP3    H226867   5.470   5.214   8.371  0.1770  0.2606  1.7489
 1770TIP3   OH226868   4.993   2.564   0.667  0.3288  0.2489 -0.0813
 1770TIP3    H126869   5.027   2.476   0.685  0.1630 -0.3733 -2.4433
 1770TIP3    H226870   5.072   2.619   0.662  0.6492 -0.2850 -1.0779
 1771TIP3   OH226871   6.779   6.804   1.971 -0.2598  0.8316  0.1597
 1771TIP3    H126872   6.706   6.845   1.924  0.0283 -0.1783 -1.2329
 1771TIP3    H226873   6.827   6.877   2.009 -0.2526  1.7517 -1.5250
 1772TIP3   OH226874   3.480   5.287   0.515 -0.1346 -0.2523 -0.0576
 1772TIP3    H126875   3.521   5.315   0.433 -1.1440  0.6805 -0.2592
 1772TIP3    H226876   3.524   5.339   0.583 -1.4213  1.2919 -0.3475
 1773TIP3   OH226877   2.375   5.952   8.474  0.0507  0.2480  0.4955
 1773TIP3    H126878   2.443   5.884   8.469 -0.4583 -0.2656  0.4249
 1773TIP3    H226879   2.316   5.932   8.402  0.2621  1.1830  0.0494
 1774TIP3   OH226880   3.613   1.575   8.498 -0.2242  0.5140 -0.0649
 1774TIP3    H126881   3.525   1.542   8.514 -0.3583  1.4576  1.3823
 1774TIP3    H226882   3.670   1.498   8.500 -0.8718  0.0437  0.2913
 1775TIP3   OH226883   1.280   2.052   7.450 -0.6353 -0.7300 -0.8404
 1775TIP3    H126884   1.359   2.069   7.399 -0.1768 -0.9154 -0.2055
 1775TIP3    H226885   1.304   2.072   7.540 -2.4527  3.1405 -1.0006
 1776TIP3   OH226886   5.496   6.008   2.484 -0.3633  0.8766  0.3904
 1776TIP3    H126887   5.531   6.097   2.488  1.3033  0.2944 -0.4032
 1776TIP3    H226888   5.558   5.960   2.430 -0.7245 -1.0161  1.5678
 1777TIP3   OH226889   4.927   4.972   2.767  0.3742 -1.0018 -0.1312
 1777TIP3    H126890   4.978   5.035   2.817 -1.0127 -1.2188  1.6288
 1777TIP3    H226891   4.941   4.998   2.675  1.8129  0.2938  0.4137
 1778TIP3   OH226892   2.409   4.770   7.494 -0.2746  0.2125  0.0329
 1778TIP3    H126893   2.348   4.698   7.481 -1.4073  0.9543  0.9698
 1778TIP3    H226894   2.388   4.832   7.425 -0.1814  0.2117  0.0039
 1779TIP3   OH226895   0.865   6.643   1.594  0.5016 -0.7395 -0.6057
 1779TIP3    H126896   0.771   6.660   1.607  0.3800 -1.6076 -0.3225
 1779TIP3    H226897   0.868   6.566   1.537  1.0230 -1.7573  0.7461
 1780TIP3   OH226898   4.698   3.327   8.157 -0.1527  0.1947 -0.3140
 1780TIP3    H126899   4.610   3.296   8.134 -0.2904 -0.3392  0.8514
 1780TIP3    H226900   4.718   3.283   8.239  1.5545 -0.3444 -0.9691
 1781TIP3   OH226901   4.003   6.183   7.751 -0.3552 -0.6263 -0.2897
 1781TIP3    H126902   3.962   6.117   7.808 -0.8761 -0.0798 -0.0273
 1781TIP3    H226903   4.026   6.255   7.810 -0.2102 -0.3732 -0.6502
 1782TIP3   OH226904   2.786   6.426   7.250  0.2167  0.6784  0.1956
 1782TIP3    H126905   2.745   6.351   7.294  0.5540  1.8643  2.7032
 1782TIP3    H226906   2.713   6.476   7.214 -0.5655  1.8198  3.0664
 1783TIP3   OH226907   3.135   6.527   7.998 -0.1242  0.4967  0.0033
 1783TIP3    H126908   3.167   6.440   7.973 -2.1568  0.0109 -1.1223
 1783TIP3    H226909   3.092   6.513   8.082  0.8404  0.7416  0.5483
 1784TIP3   OH226910   5.917   5.699   7.478  0.0990  0.2008 -0.2065
 1784TIP3    H126911   5.889   5.719   7.388  1.5657 -1.0654 -0.9933
 1784TIP3    H226912   5.996   5.647   7.467 -0.7111 -1.5757  1.7965
 1785TIP3   OH226913   3.308   0.848   7.577 -0.1279 -0.2002 -0.2476
 1785TIP3    H126914   3.373   0.818   7.514  0.3928  0.3109  0.0420
 1785TIP3    H226915   3.266   0.923   7.533  0.7885  0.6691  0.3201
 1786TIP3   OH226916   2.977   3.973   0.263 -0.4505 -0.5485 -0.0224
 1786TIP3    H126917   3.003   3.937   0.179  1.5497 -0.9820  0.7118
 1786TIP3    H226918   2.888   3.942   0.277  0.8622 -4.8395  0.2489
 1787TIP3   OH226919   3.794   2.868   8.062  0.0298  0.5048  0.0232
 1787TIP3    H126920   3.784   2.957   8.095  0.2995  0.8706 -0.8519
 1787TIP3    H226921   3.844   2.878   7.981 -2.1881 -0.1610 -1.5178
 1788TIP3   OH226922   6.821   6.280   0.286  0.0040 -0.5794 -0.2716
 1788TIP3    H126923   6.795   6.318   0.370 -0.5548 -0.1162 -0.6457
 1788TIP3    H226924   6.916   6.284   0.286 -0.0363  0.9005 -0.3228
 1789TIP3   OH226925   3.285   1.950   7.871 -0.1483 -0.1683  0.0626
 1789TIP3    H126926   3.346   1.999   7.815 -0.3976  1.9077  1.4767
 1789TIP3    H226927   3.204   2.000   7.868 -0.2191 -0.0758  2.0971
 1790TIP3   OH226928   1.926   2.649   8.401 -0.2717  0.2098 -0.2411
 1790TIP3    H126929   2.018   2.634   8.376 -0.7270  0.5110 -2.3062
 1790TIP3    H226930   1.917   2.606   8.486  1.4436 -1.0292 -0.6170
 1791TIP3   OH226931   3.449   2.046   2.632 -0.9218 -0.4389  0.2079
 1791TIP3    H126932   3.373   1.999   2.598 -0.9179 -0.4785  0.2548
 1791TIP3    H226933   3.516   2.036   2.565 -0.6780 -1.1242  0.5509
 1792TIP3   OH226934   0.761   6.206   1.376 -0.1499 -0.2195 -0.4149
 1792TIP3    H126935   0.725   6.261   1.306  0.3138  0.3918 -0.1818
 1792TIP3    H226936   0.805   6.267   1.434  0.9701 -0.9070 -0.5095
 1793TIP3   OH226937   2.122   1.772   0.767  0.2438 -0.8695  0.6348
 1793TIP3    H126938   2.214   1.777   0.739  0.5033  0.7898  1.6488
 1793TIP3    H226939   2.076   1.734   0.692  1.6259 -0.9418 -0.2124
 1794TIP3   OH226940   6.554   3.721   7.703 -0.2287 -0.1589  0.7070
 1794TIP3    H126941   6.601   3.684   7.628  2.6776  3.3871  0.5096
 1794TIP3    H226942   6.488   3.779   7.665  0.7099  1.0210  0.8136
 1795TIP3   OH226943   0.987   2.174   7.767  0.0341 -0.3801  0.1627
 1795TIP3    H126944   1.014   2.127   7.688  0.0273  0.8963 -0.6248
 1795TIP3    H226945   0.926   2.241   7.736  0.2064  0.2941  1.2166
 1796TIP3   OH226946   3.559   0.629   8.513  0.0487 -0.1214  0.1493
 1796TIP3    H126947   3.618   0.702   8.533  0.5124 -0.8615  1.6350
 1796TIP3    H226948   3.570   0.613   8.419 -0.3217  1.9147 -0.2812
 1797TIP3   OH226949   0.503   0.895   8.571  0.2349  0.4738 -0.1428
 1797TIP3    H126950   0.547   0.810   8.577  0.7921  0.8444  1.6627
 1797TIP3    H226951   0.573   0.960   8.577 -0.1509  1.0989 -1.8570
 1798TIP3   OH226952   2.208   5.896   1.616 -1.0452  0.1062  0.5688
 1798TIP3    H126953   2.138   5.831   1.623 -0.7776 -0.2438  0.0508
 1798TIP3    H226954   2.184   5.949   1.540 -0.8083  0.0583  0.4591
 1799TIP3   OH226955   2.540   3.668   8.712 -0.5310  0.5980 -0.4756
 1799TIP3    H126956   2.551   3.761   8.691  1.5615 -0.0611 -2.6432
 1799TIP3    H226957   2.602   3.623   8.656 -0.8473 -2.0875  1.1763
 1800TIP3   OH226958   6.567   1.989   1.787 -0.0463 -0.1026 -0.1994
 1800TIP3    H126959   6.475   1.984   1.814 -0.5532 -1.7875 -2.0305
 1800TIP3    H226960   6.604   2.057   1.843 -2.3719  0.5608  0.6699
 1801TIP3   OH226961   1.436   3.346   8.053 -0.3449  0.1189  0.4812
 1801TIP3    H126962   1.349   3.348   8.014 -1.0377  4.1468  1.7811
 1801TIP3    H226963   1.496   3.355   7.978 -1.2774  1.1193 -0.1708
 1802TIP3   OH226964   4.473   1.034   1.014 -0.4383  0.1436 -0.6159
 1802TIP3    H126965   4.428   1.083   1.082 -0.3002  0.0630 -0.4678
 1802TIP3    H226966   4.402   1.004   0.956 -0.6057 -0.2232 -0.2276
 1803TIP3   OH226967   3.892   2.992   6.871 -0.5368  0.2389 -0.1507
 1803TIP3    H126968   3.867   2.902   6.892  0.4759  0.3298  1.6309
 1803TIP3    H226969   3.816   3.027   6.824 -0.5095 -1.8524 -1.9821
 1804TIP3   OH226970   2.434   6.037   7.592  0.1016  0.0276 -0.1327
 1804TIP3    H126971   2.435   5.944   7.569 -0.3593  0.3088 -1.3519
 1804TIP3    H226972   2.345   6.052   7.626  0.4304 -0.1354  0.8513
 1805TIP3   OH226973   2.166   1.460   8.182 -0.0186 -0.1255  0.6560
 1805TIP3    H126974   2.183   1.480   8.090 -0.8395  0.7431  0.6788
 1805TIP3    H226975   2.234   1.508   8.230 -1.0327  1.4031  0.6191
 1806TIP3   OH226976   0.523   0.711   0.731  0.3484 -0.0868  0.1154
 1806TIP3    H126977   0.531   0.721   0.636  3.2181 -1.4684  0.1057
 1806TIP3    H226978   0.475   0.789   0.759 -1.5520 -0.1705 -2.5222
 1807TIP3   OH226979   5.915   1.889   2.245 -0.3048  0.8025  0.3967
 1807TIP3    H126980   5.980   1.862   2.310 -0.2353  0.0009  0.0071
 1807TIP3    H226981   5.835   1.844   2.271  0.2519 -1.2942 -1.2767
 1808TIP3   OH226982   4.481   6.277   1.872 -0.0864  0.6275  0.2266
 1808TIP3    H126983   4.424   6.252   1.944 -1.5488  0.3052 -0.9939
 1808TIP3    H226984   4.425   6.274   1.794  1.9014 -1.1812 -1.2927
 1809TIP3   OH226985   2.136   6.002   2.762  0.1245  0.2198  0.4562
 1809TIP3    H126986   2.171   5.913   2.765  0.7771  0.4711  0.5194
 1809TIP3    H226987   2.169   6.043   2.842 -0.9566  0.2410  0.9065
 1810TIP3   OH226988   3.536   3.170   2.749 -0.2691 -0.1861 -0.2929
 1810TIP3    H126989   3.544   3.265   2.736  0.3243  0.0141  1.3110
 1810TIP3    H226990   3.463   3.161   2.810 -1.1750 -0.8811 -1.4248
 1811TIP3   OH226991   4.024   3.236   8.023  0.0357  0.0632 -0.0199
 1811TIP3    H126992   4.066   3.161   8.067  1.6797  0.8649 -0.1425
 1811TIP3    H226993   4.044   3.223   7.930  2.6614  1.9315  0.1643
 1812TIP3   OH226994   5.230   3.077   6.921 -0.2396 -0.1264 -0.4171
 1812TIP3    H126995   5.251   3.109   6.834  0.1690  0.6249 -0.0517
 1812TIP3    H226996   5.168   3.005   6.906 -2.4498  1.8090 -1.2145
 1813TIP3   OH226997   5.322   3.504   0.140 -0.3696  0.3381 -0.1002
 1813TIP3    H126998   5.340   3.582   0.088 -0.5986 -0.5905 -1.6123
 1813TIP3    H226999   5.248   3.528   0.195  0.3427  1.5729  0.3519
 1814TIP3   OH227000   0.217   3.691   2.652 -0.4205  0.3017 -0.5214
 1814TIP3    H127001   0.193   3.772   2.696 -1.6337 -1.4735  2.3768
 1814TIP3    H227002   0.181   3.700   2.564 -3.0971  1.7540  0.6158
 1815TIP3   OH227003   1.455   1.247   8.294 -0.3424 -0.1470  0.0690
 1815TIP3    H127004   1.412   1.169   8.259  0.3524 -1.0977  1.2602
 1815TIP3    H227005   1.500   1.286   8.219  1.3705 -2.2930 -0.1122
 1816TIP3   OH227006   1.376   6.238   7.838 -0.6351 -0.3689 -0.1314
 1816TIP3    H127007   1.463   6.277   7.840 -1.1750  0.9247 -0.4836
 1816TIP3    H227008   1.326   6.287   7.903 -0.7653 -2.0456  1.1144
 1817TIP3   OH227009   0.965   5.927   2.746 -0.0370  0.0387 -0.2671
 1817TIP3    H127010   0.890   5.922   2.804  0.8226  1.0181  0.9695
 1817TIP3    H227011   0.936   5.884   2.665 -1.5197 -0.6206  0.5845
 1818TIP3   OH227012   4.848   0.792   0.065  0.1386  0.1843  0.4707
 1818TIP3    H127013   4.919   0.744   0.023 -0.9105 -0.1741 -0.9626
 1818TIP3    H227014   4.887   0.828   0.145  2.3471  1.2875 -1.0172
 1819TIP3   OH227015   2.691   0.849   8.060 -0.2025  0.0085 -0.2269
 1819TIP3    H127016   2.648   0.827   8.143 -1.3133 -3.6239 -1.5366
 1819TIP3    H227017   2.635   0.916   8.021  0.1780  1.5615  1.7162
 1820TIP3   OH227018   3.988   5.134   1.119 -0.1043 -0.1071 -0.2376
 1820TIP3    H127019   4.033   5.133   1.203  0.4671 -1.2673 -0.5371
 1820TIP3    H227020   4.042   5.191   1.063 -0.4398  0.5961  0.1401
 1821TIP3   OH227021   1.345   5.669   0.360 -0.4210 -0.9412  0.0598
 1821TIP3    H127022   1.348   5.646   0.453 -1.8294 -0.4770  0.2481
 1821TIP3    H227023   1.330   5.763   0.359  0.5667 -0.7796 -0.6584
 1822TIP3   OH227024   3.866   1.752   8.672 -0.5745 -0.6388 -0.7187
 1822TIP3    H127025   3.796   1.696   8.639 -0.5559 -2.0119  1.3885
 1822TIP3    H227026   3.836   1.778   8.759  1.0650 -0.3638 -0.2051
 1823TIP3   OH227027   0.955   1.743   7.050  0.1013 -0.8513 -0.2466
 1823TIP3    H127028   1.038   1.772   7.088  0.6654 -0.4931 -1.6958
 1823TIP3    H227029   0.916   1.688   7.118  1.5054 -1.0009  0.4782
 1824TIP3   OH227030   5.949   0.139   8.537 -0.0667 -0.0354  0.2898
 1824TIP3    H127031   5.915   0.101   8.618  0.0344 -0.1125  0.2956
 1824TIP3    H227032   5.884   0.115   8.471  0.0729 -0.3426  0.2660
 1825TIP3   OH227033   5.094   2.033   2.636 -0.6238 -0.1991 -0.2412
 1825TIP3    H127034   5.169   2.073   2.681 -0.7770  0.0031 -0.1651
 1825TIP3    H227035   5.019   2.051   2.692 -0.8961  0.4523 -0.7896
 1826TIP3   OH227036   0.179   3.064   0.587  0.5043 -0.1377 -0.2726
 1826TIP3    H127037   0.235   2.987   0.579  0.5777 -0.0590 -0.5062
 1826TIP3    H227038   0.227   3.134   0.544  0.4685  0.0564  0.0016
 1827TIP3   OH227039   3.231   0.982   8.567  0.3056 -0.9621 -0.5848
 1827TIP3    H127040   3.143   1.013   8.585  0.7708 -0.1409  0.3318
 1827TIP3    H227041   3.238   0.899   8.615  0.3010 -0.6278 -0.0049
 1828TIP3   OH227042   0.661   5.638   2.728  0.8139 -0.4202 -0.0538
 1828TIP3    H127043   0.578   5.651   2.774 -0.0195 -0.2924 -1.5287
 1828TIP3    H227044   0.637   5.640   2.636  2.1021 -2.8310 -0.5013
 1829TIP3   OH227045   1.195   4.114   1.165  0.0203 -0.1136  0.0976
 1829TIP3    H127046   1.225   4.146   1.079  1.8777 -0.9358  0.3933
 1829TIP3    H227047   1.248   4.036   1.181 -1.7269 -1.1503  1.1141
 1830TIP3   OH227048   3.556   3.003   0.954  0.0024  0.1157 -0.6653
 1830TIP3    H127049   3.547   3.096   0.934  0.4376 -0.0442 -1.6204
 1830TIP3    H227050   3.512   2.993   1.039 -1.0904  0.9667 -1.1085
 1831TIP3   OH227051   6.459   3.709   0.818 -0.3307 -0.0271 -0.4777
 1831TIP3    H127052   6.513   3.642   0.858 -2.0782 -1.1167  0.2005
 1831TIP3    H227053   6.520   3.765   0.770  1.8023  0.8131  2.9043
 1832TIP3   OH227054   1.739   4.343   7.764  0.1114  0.0138  0.6183
 1832TIP3    H127055   1.729   4.266   7.820  0.3632  0.4581  1.2884
 1832TIP3    H227056   1.774   4.411   7.822  1.2297  0.2321 -0.2843
 1833TIP3   OH227057   4.582   0.197   8.395 -0.2517 -0.3588 -0.0183
 1833TIP3    H127058   4.588   0.290   8.416  1.8778 -0.6875  1.0443
 1833TIP3    H227059   4.497   0.188   8.351 -0.3567  2.1227 -0.4552
 1834TIP3   OH227060   1.222   6.173   1.651  0.5665  0.0116 -0.9217
 1834TIP3    H127061   1.188   6.262   1.665 -1.6827 -0.9683  0.3968
 1834TIP3    H227062   1.174   6.141   1.575  1.5826 -0.0066 -1.5721
 1835TIP3   OH227063   5.697   0.472   2.270 -0.2292 -0.9806  0.3755
 1835TIP3    H127064   5.681   0.381   2.244  0.1185 -0.6952 -0.8875
 1835TIP3    H227065   5.684   0.523   2.189  0.7121 -0.0361  0.8004
 1836TIP3   OH227066   1.454   3.412   2.080  0.1985 -0.1834 -0.2382
 1836TIP3    H127067   1.546   3.435   2.066 -0.0780  0.5472 -0.9802
 1836TIP3    H227068   1.406   3.491   2.054 -0.5920 -0.1944  1.0940
 1837TIP3   OH227069   5.612   1.723   0.786  0.3300 -0.0688 -0.2396
 1837TIP3    H127070   5.585   1.789   0.850 -4.0938 -0.3210 -1.5002
 1837TIP3    H227071   5.653   1.654   0.839 -0.7604  0.9113  2.0159
 1838TIP3   OH227072   4.334   2.170   0.625  0.1231  0.5278  0.4617
 1838TIP3    H127073   4.426   2.183   0.648  0.4700  2.9217 -1.7669
 1838TIP3    H227074   4.329   2.078   0.600  2.5028  0.7982 -1.4323
 1839TIP3   OH227075   1.958   4.509   7.876 -0.4258 -0.3791  0.0939
 1839TIP3    H127076   2.007   4.573   7.927 -0.2910 -0.6429  0.2989
 1839TIP3    H227077   1.908   4.561   7.814  2.7111 -0.1388 -2.5569
 1840TIP3   OH227078   2.103   2.584   0.354 -0.5124  0.4256  0.0483
 1840TIP3    H127079   2.124   2.593   0.447  0.9546 -0.8199 -0.1185
 1840TIP3    H227080   2.166   2.641   0.310 -0.1098 -0.2381 -0.2529
 1841TIP3   OH227081   5.221   1.516   2.256 -0.3554  0.3379 -0.2172
 1841TIP3    H127082   5.268   1.467   2.188 -1.1524 -0.2170 -0.3783
 1841TIP3    H227083   5.214   1.605   2.220 -2.0725 -0.2947 -1.5593
 1842TIP3   OH227084   4.466   0.592   0.491  0.4335  0.3837 -0.1390
 1842TIP3    H127085   4.446   0.551   0.407 -1.3660 -0.1153  0.5025
 1842TIP3    H227086   4.502   0.521   0.544  1.6503  0.7169 -0.4623
 1843TIP3   OH227087   1.903   5.342   8.713  0.3516  0.1155 -0.3858
 1843TIP3    H127088   1.948   5.330   8.629  0.3101  0.0332 -0.3966
 1843TIP3    H227089   1.842   5.414   8.697 -0.0720 -0.2821 -0.5964
 1844TIP3   OH227090   0.444   6.216   8.404  0.3237 -0.5300 -0.2280
 1844TIP3    H127091   0.453   6.126   8.372 -0.0954 -0.5897 -0.1810
 1844TIP3    H227092   0.534   6.247   8.414  0.5484 -1.8177  2.2875
 1845TIP3   OH227093   1.573   5.868   1.251  0.1518  0.5230 -0.6067
 1845TIP3    H127094   1.595   5.775   1.239  0.5539  0.5634 -0.1769
 1845TIP3    H227095   1.502   5.883   1.189 -0.0533 -0.1256 -0.5366
 1846TIP3   OH227096   1.396   5.225   2.227  0.5367  0.7789 -0.1838
 1846TIP3    H127097   1.376   5.311   2.263  1.8708  1.3074 -0.6553
 1846TIP3    H227098   1.380   5.164   2.300  1.5317  1.6445  0.8026
 1847TIP3   OH227099   6.725   4.080   8.532  0.0198  0.3274  0.2891
 1847TIP3    H127100   6.816   4.072   8.558  0.4740  0.0745 -1.2724
 1847TIP3    H227101   6.678   4.096   8.614  1.5682  1.4425  1.0002
 1848TIP3   OH227102   1.763   2.747   1.349  0.1387  0.3723  0.1944
 1848TIP3    H127103   1.721   2.765   1.265 -0.1506 -1.8094 -0.2038
 1848TIP3    H227104   1.854   2.773   1.337 -0.5170  2.9739  0.2960
 1849TIP3   OH227105   6.726   1.379   1.929 -0.7288  0.6434  0.4539
 1849TIP3    H127106   6.806   1.377   1.877 -0.0673  0.2210  1.4417
 1849TIP3    H227107   6.729   1.463   1.975  0.3030 -0.2653  2.1643
 1850TIP3   OH227108   3.884   6.530   0.077  0.6892 -0.7131 -0.4951
 1850TIP3    H127109   3.948   6.535   0.148  1.0941 -0.4794 -0.8745
 1850TIP3    H227110   3.929   6.566   0.001  0.6700 -2.0381 -1.1717
 1851TIP3   OH227111   5.415   3.154   7.588  0.8334 -0.0140 -0.0478
 1851TIP3    H127112   5.378   3.209   7.520  0.5175  0.5899  0.5966
 1851TIP3    H227113   5.389   3.196   7.670  2.3785  0.0631  0.4433
 1852TIP3   OH227114   2.621   4.119   1.352 -0.2922  0.4723 -0.3172
 1852TIP3    H127115   2.708   4.092   1.383  1.4059  3.0922 -2.3052
 1852TIP3    H227116   2.591   4.183   1.417 -0.1194  0.5471 -0.3110
 1853TIP3   OH227117   5.789   0.696   8.615 -0.0750  0.2121 -0.1938
 1853TIP3    H127118   5.699   0.722   8.598 -1.0342 -2.0498  0.8986
 1853TIP3    H227119   5.798   0.611   8.572  1.1462 -0.1143  0.6352
 1854TIP3   OH227120   0.759   0.597   8.131  0.3738 -0.2540  0.0351
 1854TIP3    H127121   0.781   0.637   8.047  1.5905 -2.2378 -0.6468
 1854TIP3    H227122   0.840   0.604   8.182 -0.0148 -0.0875  0.6378
 1855TIP3   OH227123   0.856   6.300   2.476 -0.1041 -0.4291  0.5562
 1855TIP3    H127124   0.905   6.281   2.556 -1.8783 -0.4409  1.6915
 1855TIP3    H227125   0.777   6.344   2.506 -0.1998  0.7728 -1.3317
 1856TIP3   OH227126   3.174   5.307   8.319 -0.4109 -0.3482 -0.6812
 1856TIP3    H127127   3.111   5.266   8.260 -0.5117 -2.3262  0.7013
 1856TIP3    H227128   3.248   5.246   8.320  0.9222  1.2045 -1.1279
 1857TIP3   OH227129   3.722   5.297   1.935  0.5170 -0.1671  0.0780
 1857TIP3    H127130   3.651   5.292   1.999  1.1480  1.3475  0.9514
 1857TIP3    H227131   3.784   5.229   1.962 -0.0046 -0.6583  0.0563
 1858TIP3   OH227132   0.538   4.627   7.464  0.4395  0.0711  0.0114
 1858TIP3    H127133   0.493   4.628   7.379 -0.4767  0.6089  0.4918
 1858TIP3    H227134   0.502   4.551   7.509  0.6194  0.0267  0.0807
 1859TIP3   OH227135   3.166   3.118   0.033 -0.7322  0.4368 -0.1232
 1859TIP3    H127136   3.168   3.092   0.126 -3.4157 -1.3251 -0.4486
 1859TIP3    H227137   3.078   3.154   0.020 -1.4346 -1.8107 -2.4979
 1860TIP3   OH227138   5.672   5.089   1.511 -0.1628 -0.1581 -0.3541
 1860TIP3    H127139   5.650   4.997   1.523 -0.4801  0.1102  1.4888
 1860TIP3    H227140   5.623   5.134   1.580  0.0490  1.3879 -1.1661
 1861TIP3   OH227141   2.732   2.301   1.249  0.7231 -0.3001 -0.2197
 1861TIP3    H127142   2.727   2.206   1.260  0.5397 -0.2889 -0.2003
 1861TIP3    H227143   2.824   2.318   1.232  1.0260 -0.3357  1.2430
 1862TIP3   OH227144   0.739   4.418   8.276  0.2313 -0.2067  0.0538
 1862TIP3    H127145   0.705   4.396   8.189  1.0093 -0.0580 -0.2985
 1862TIP3    H227146   0.812   4.357   8.289 -0.5156 -0.9208  1.0454
 1863TIP3   OH227147   0.776   1.301   1.564  0.1467  0.2615  0.3781
 1863TIP3    H127148   0.806   1.226   1.513  0.8205  1.0708 -0.4368
 1863TIP3    H227149   0.683   1.310   1.541  0.4991  0.7730 -0.9188
 1864TIP3   OH227150   6.191   3.030   0.157 -0.2299  0.1728  0.0326
 1864TIP3    H127151   6.114   3.074   0.123 -0.0796 -1.0379 -2.0577
 1864TIP3    H227152   6.173   3.017   0.251 -0.7174  3.5601  0.5160
 1865TIP3   OH227153   1.938   0.923   8.186 -0.1683 -0.0475  0.0076
 1865TIP3    H127154   1.968   0.983   8.118 -1.7043  0.4439 -0.2889
 1865TIP3    H227155   1.899   0.980   8.252 -1.1323 -0.6593 -0.0088
 1866TIP3   OH227156   0.102   6.419   0.910  0.7169 -0.2262  0.0874
 1866TIP3    H127157   0.033   6.424   0.844  0.5413 -1.5301  0.1326
 1866TIP3    H227158   0.062   6.454   0.989  0.7010  0.6891 -0.3109
 1867TIP3   OH227159   6.777   6.477   0.055 -0.3298  0.4017 -0.2464
 1867TIP3    H127160   6.811   6.508  -0.029  0.0610 -0.4690 -0.4148
 1867TIP3    H227161   6.811   6.388   0.064 -2.3934 -0.4400 -0.3276
 1868TIP3   OH227162   2.525   3.431   0.768 -0.1685  0.0369 -0.4993
 1868TIP3    H127163   2.470   3.429   0.690 -1.0199  1.0963  0.0556
 1868TIP3    H227164   2.503   3.513   0.811  0.3567 -0.4832  0.8151
 1869TIP3   OH227165   1.657   3.173   0.639 -0.4422  0.3812 -0.2850
 1869TIP3    H127166   1.673   3.162   0.545 -0.1656  1.7449 -0.4223
 1869TIP3    H227167   1.700   3.098   0.680  1.0397  0.7203 -1.1340
 1870TIP3   OH227168   1.705   2.387   7.750 -0.4399 -0.3022  0.0013
 1870TIP3    H127169   1.762   2.332   7.804  1.3940  0.4226 -1.0598
 1870TIP3    H227170   1.652   2.326   7.699  1.7310 -1.2032 -1.3409
 1871TIP3   OH227171   3.521   1.983   1.853 -0.2529 -0.5796  0.2190
 1871TIP3    H127172   3.516   1.909   1.792  1.3300 -1.1094  0.6688
 1871TIP3    H227173   3.514   2.060   1.797 -0.4781 -1.0678 -0.4462
 1872TIP3   OH227174   4.006   1.654   7.021  0.2153 -0.7743  0.2185
 1872TIP3    H127175   3.951   1.585   7.059 -1.5239  0.0634 -0.6248
 1872TIP3    H227176   4.025   1.622   6.932  1.3412 -1.1665  0.5851
 1873TIP3   OH227177   6.399   1.747   2.158 -0.7327 -0.5857  0.6449
 1873TIP3    H127178   6.405   1.790   2.243  0.9850  1.2591 -0.3127
 1873TIP3    H227179   6.388   1.819   2.096  0.2263 -1.6805 -0.8750
 1874TIP3   OH227180   5.903   2.169   2.355 -0.4985 -0.3685  0.1149
 1874TIP3    H127181   5.881   2.259   2.333 -1.9560 -0.6480  0.3174
 1874TIP3    H227182   5.954   2.137   2.281  0.9626  0.9315  0.5217
 1875TIP3   OH227183   0.731   5.007   0.448 -0.2294 -0.0453 -0.1609
 1875TIP3    H127184   0.790   5.037   0.517 -1.2255  0.6914  0.4034
 1875TIP3    H227185   0.722   4.913   0.463  1.1316 -0.2430 -0.5263
 1876TIP3   OH227186   2.991   1.977   0.153  0.1404 -0.1045 -0.6269
 1876TIP3    H127187   2.952   1.890   0.142 -0.1313 -0.1091  0.3187
 1876TIP3    H227188   2.969   2.023   0.071 -0.8943 -0.4800 -0.5759
 1877TIP3   OH227189   2.670   0.807   2.906 -0.4867 -0.0643 -0.2038
 1877TIP3    H127190   2.671   0.728   2.960  2.6638 -0.4221 -0.5641
 1877TIP3    H227191   2.608   0.865   2.950 -1.5056 -2.0363  1.1125
 1878TIP3   OH227192   4.121   1.299   3.225 -0.6357  0.1526 -0.8651
 1878TIP3    H127193   4.188   1.252   3.274 -2.0665 -0.7939  0.2515
 1878TIP3    H227194   4.055   1.233   3.205 -1.6581  1.2316 -1.1668
 1879TIP3   OH227195   4.387   6.109   2.309  0.3548  0.2216 -0.0778
 1879TIP3    H127196   4.348   6.180   2.360 -0.1970 -0.4305  0.4455
 1879TIP3    H227197   4.384   6.034   2.369 -1.8456 -1.0094 -1.5908
 1880TIP3   OH227198   0.971   0.334   1.625  0.1076 -0.1657  0.8696
 1880TIP3    H127199   0.952   0.257   1.571 -2.0607  1.4040 -0.8191
 1880TIP3    H227200   1.039   0.381   1.577 -0.8496  0.5337  0.1455
 1881TIP3   OH227201   6.310   3.063   8.627 -0.4437 -0.4532 -0.5496
 1881TIP3    H127202   6.267   3.060   8.713  0.7253  0.4568  0.0959
 1881TIP3    H227203   6.310   2.973   8.597  0.6225 -1.0747  1.1833
 1882TIP3   OH227204   2.234   5.830   1.280  0.5569 -0.0707 -0.2166
 1882TIP3    H127205   2.205   5.834   1.189 -0.3521  1.6229  0.1063
 1882TIP3    H227206   2.191   5.904   1.322  0.3084 -1.2720  1.7961
 1883TIP3   OH227207   0.868   4.664   2.977 -0.4568 -0.1748  0.2928
 1883TIP3    H127208   0.794   4.622   3.021 -1.2537  1.5850  0.7169
 1883TIP3    H227209   0.883   4.745   3.026  1.0728  0.0394 -0.4378
 1884TIP3   OH227210   5.107   2.014   7.677  0.2315 -1.0887 -0.0075
 1884TIP3    H127211   5.069   2.065   7.606 -0.0376 -0.7795  0.3510
 1884TIP3    H227212   5.050   1.937   7.683  0.3213 -1.1709 -0.1996
 1885TIP3   OH227213   5.000   1.368   0.346 -0.0646  0.6378  0.1543
 1885TIP3    H127214   5.010   1.453   0.303 -0.2487 -0.2976 -1.8816
 1885TIP3    H227215   4.964   1.311   0.278  0.9250 -1.3095  1.1631
 1886TIP3   OH227216   6.671   1.299   7.490 -0.7444 -0.5048  0.2129
 1886TIP3    H127217   6.766   1.309   7.484 -0.7965  0.4145  0.8021
 1886TIP3    H227218   6.642   1.288   7.400 -0.4177  2.4699 -0.3558
 1887TIP3   OH227219   3.330   5.011   8.269 -0.4161 -0.0454 -0.2038
 1887TIP3    H127220   3.352   4.981   8.357  0.2933 -0.3486 -0.4683
 1887TIP3    H227221   3.397   5.077   8.249 -2.3904  2.3573  0.6571
 1888TIP3   OH227222   4.407   4.545   1.674  0.3499  0.0403 -0.1837
 1888TIP3    H127223   4.450   4.477   1.621 -0.6643 -0.5386 -0.3008
 1888TIP3    H227224   4.383   4.613   1.611  0.9823  0.3105 -0.1357
 1889TIP3   OH227225   2.771   5.000   2.310  0.6410  0.0321  0.2753
 1889TIP3    H127226   2.858   5.005   2.350  0.2895 -1.0692  1.2238
 1889TIP3    H227227   2.753   4.906   2.305 -1.0243  0.2680  1.3010
 1890TIP3   OH227228   3.614   1.402   8.735 -0.1453  0.4357 -0.2135
 1890TIP3    H127229   3.617   1.465   8.807 -1.3575  0.5009 -0.1963
 1890TIP3    H227230   3.533   1.424   8.688 -1.0191 -1.5623  0.2287
 1891TIP3   OH227231   2.499   3.351   8.210 -0.1199  0.3893  0.2445
 1891TIP3    H127232   2.412   3.355   8.171  0.0736 -1.0823 -0.4200
 1891TIP3    H227233   2.559   3.360   8.135  0.3034  0.8150  0.6231
 1892TIP3   OH227234   3.919   4.058   2.287 -0.1767  0.0966  0.0359
 1892TIP3    H127235   3.867   4.137   2.269  1.1076  0.8727 -0.4156
 1892TIP3    H227236   3.861   4.003   2.339 -0.9557  1.5456  0.7823
 1893TIP3   OH227237   5.477   5.729   8.134  0.1131  0.7882 -0.1356
 1893TIP3    H127238   5.543   5.799   8.127  1.4882 -0.6028 -2.4577
 1893TIP3    H227239   5.429   5.734   8.052  1.1063 -1.7438 -0.9538
 1894TIP3   OH227240   5.353   2.533   8.287  0.4087 -0.4785 -0.2357
 1894TIP3    H127241   5.302   2.614   8.280 -0.8794 -1.3378 -1.3176
 1894TIP3    H227242   5.319   2.477   8.217  0.2777 -2.4774  1.3168
 1895TIP3   OH227243   0.071   1.478   0.749  0.0888  0.2859 -0.2737
 1895TIP3    H127244   0.048   1.488   0.842  1.6633  0.5157  0.1233
 1895TIP3    H227245   0.054   1.564   0.711  0.3449  0.4647  0.0138
 1896TIP3   OH227246   2.358   6.459   0.166  0.1774  0.3525  0.3852
 1896TIP3    H127247   2.330   6.368   0.159 -0.8596  0.5771  1.3898
 1896TIP3    H227248   2.280   6.506   0.196  0.7551  1.5385  0.0675
 1897TIP3   OH227249   3.765   0.463   2.568 -0.2667  0.3607 -0.6390
 1897TIP3    H127250   3.792   0.382   2.611  0.9022 -0.6700 -3.0833
 1897TIP3    H227251   3.841   0.521   2.576 -1.5804  1.8623  2.3104
 1898TIP3   OH227252   6.004   3.989   2.357 -0.8233  0.1241  0.1044
 1898TIP3    H127253   6.017   4.036   2.439 -1.9055 -1.4579  1.2533
 1898TIP3    H227254   5.934   4.036   2.313  0.0650  1.2457 -0.1663
 1899TIP3   OH227255   2.017   4.492   1.873 -0.1550 -0.6239 -0.4288
 1899TIP3    H127256   2.009   4.405   1.913 -1.5930  0.0236  0.7670
 1899TIP3    H227257   1.934   4.535   1.892 -0.1447  0.4300 -2.4955
 1900TIP3   OH227258   3.825   2.095   2.220  0.3032  0.6567 -0.4021
 1900TIP3    H127259   3.818   2.073   2.128  0.5523  0.0103 -0.2723
 1900TIP3    H227260   3.834   2.190   2.222  0.7526  0.6310 -1.0691
 1901TIP3   OH227261   2.862   0.549   8.228 -0.4672 -0.0702  0.1973
 1901TIP3    H127262   2.847   0.531   8.321  0.9211  0.4975  0.5600
 1901TIP3    H227263   2.775   0.565   8.192 -1.0752 -0.8440  1.2779
 1902TIP3   OH227264   0.306   2.020   8.080  0.3093 -0.4908  0.1343
 1902TIP3    H127265   0.352   2.076   8.018 -0.1339 -2.1830 -1.8558
 1902TIP3    H227266   0.371   1.956   8.108  0.6093  0.4762  1.8084
 1903TIP3   OH227267   3.466   6.476   7.694 -0.2935 -0.0324  0.4759
 1903TIP3    H127268   3.381   6.489   7.735 -0.8286  2.2616 -1.1429
 1903TIP3    H227269   3.508   6.408   7.747 -2.3866  0.0491  2.4110
 1904TIP3   OH227270   3.681   5.835   0.084  0.0366 -0.3176 -0.6089
 1904TIP3    H127271   3.609   5.834   0.020  0.2463 -1.5483 -0.8470
 1904TIP3    H227272   3.647   5.785   0.159  0.7560 -1.2130 -0.8632
 1905TIP3   OH227273   1.130   6.730   1.592 -0.0931 -0.2183 -0.4094
 1905TIP3    H127274   1.174   6.708   1.673  1.2164 -0.0998 -1.0571
 1905TIP3    H227275   1.059   6.667   1.585  0.2149 -0.6770  0.4697
 1906TIP3   OH227276   6.051   3.878   8.627  0.2071 -0.5344 -0.1692
 1906TIP3    H127277   6.081   3.833   8.706  0.4054 -2.3501 -1.2294
 1906TIP3    H227278   6.060   3.813   8.558 -1.8317  0.3575 -1.3615
 1907TIP3   OH227279   4.684   5.169   0.456  0.5427  0.1488  0.4082
 1907TIP3    H127280   4.629   5.174   0.534  0.0925  2.1715  0.0184
 1907TIP3    H227281   4.773   5.181   0.488  0.3727  0.8321  0.6579
 1908TIP3   OH227282   1.894   1.077   0.425 -0.1737 -0.1906  0.5141
 1908TIP3    H127283   1.927   1.160   0.458 -1.1045  0.1538  0.6289
 1908TIP3    H227284   1.804   1.097   0.397  0.0265 -0.8528 -0.6790
 1909TIP3   OH227285   0.273   4.322   0.740 -0.0327  0.2815  0.3451
 1909TIP3    H127286   0.180   4.323   0.715  0.2343 -0.0686 -0.6916
 1909TIP3    H227287   0.274   4.359   0.829 -1.2416 -0.3450  0.6432
 1910TIP3   OH227288   2.099   0.919   1.041  0.2023 -0.2485  0.4817
 1910TIP3    H127289   2.018   0.969   1.027  0.5523  0.5269  1.1520
 1910TIP3    H227290   2.168   0.985   1.043  0.7188 -0.7913  1.0298
 1911TIP3   OH227291   3.584   4.792   0.836 -0.6071  0.2349 -0.5431
 1911TIP3    H127292   3.509   4.736   0.857  1.9719 -3.9659 -1.3695
 1911TIP3    H227293   3.646   4.776   0.908 -0.0869  2.9994 -0.2630
 1912TIP3   OH227294   1.754   3.660   7.850 -0.1665 -0.2017 -0.9229
 1912TIP3    H127295   1.685   3.660   7.784 -1.3602  0.2358  0.2738
 1912TIP3    H227296   1.727   3.593   7.913 -0.8609  1.6579  0.8777
 1913TIP3   OH227297   2.742   5.128   1.683  0.2851  0.2635 -0.2769
 1913TIP3    H127298   2.727   5.044   1.727 -1.4121  1.1321  0.9001
 1913TIP3    H227299   2.747   5.192   1.755  1.8648  1.1468 -1.1333
 1914TIP3   OH227300   3.948   4.770   2.493  0.4396  0.0184 -0.0491
 1914TIP3    H127301   3.874   4.826   2.517 -1.1275 -0.8636 -2.4456
 1914TIP3    H227302   3.960   4.713   2.569 -1.0586  0.4941  0.5938
 1915TIP3   OH227303   3.184   6.648   7.715  0.6538 -0.3258  0.4749
 1915TIP3    H127304   3.255   6.658   7.778  1.1347  0.7856 -0.1860
 1915TIP3    H227305   3.106   6.634   7.767  1.1386 -0.0644  1.2824
 1916TIP3   OH227306   4.282   3.361   8.605 -0.0659 -0.5059 -0.9856
 1916TIP3    H127307   4.242   3.359   8.692 -0.7675 -1.2135 -1.3129
 1916TIP3    H227308   4.363   3.310   8.614 -0.0665 -0.4563 -0.7102
 1917TIP3   OH227309   2.624   1.893   0.137 -0.0109 -0.5010  0.3031
 1917TIP3    H127310   2.615   1.970   0.081  2.1867 -0.0165  0.5116
 1917TIP3    H227311   2.618   1.928   0.226 -0.1246 -0.7401  0.3879
 1918TIP3   OH227312   3.933   0.320   0.526 -0.3370 -0.3210 -0.1014
 1918TIP3    H127313   3.872   0.246   0.531 -1.8024  0.7685 -1.0302
 1918TIP3    H227314   3.997   0.294   0.460  0.2310 -1.4732  0.8620
 1919TIP3   OH227315   4.447   3.676   6.720 -0.2888 -0.2495  0.3114
 1919TIP3    H127316   4.427   3.759   6.765 -0.1304 -0.0237 -0.0319
 1919TIP3    H227317   4.372   3.660   6.664  0.0147  0.0458 -0.1792
 1920TIP3   OH227318   3.076   4.434   1.656  0.1326 -0.4012  0.8538
 1920TIP3    H127319   3.145   4.497   1.674  0.3815 -0.6253  0.6963
 1920TIP3    H227320   3.104   4.390   1.576 -0.0739 -0.6571  0.9210
 1921TIP3   OH227321   6.478   2.367   0.449  0.2710 -0.0986 -0.2881
 1921TIP3    H127322   6.433   2.283   0.445 -0.4950  0.3404 -1.1675
 1921TIP3    H227323   6.408   2.432   0.459  0.7790  0.5019 -0.5313
 1922TIP3   OH227324   0.046   5.059   0.287 -0.0711 -0.4473  0.4411
 1922TIP3    H127325   0.032   5.084   0.196  2.0522 -2.9152 -0.6883
 1922TIP3    H227326  -0.014   5.116   0.337 -1.0294  1.2531 -2.3961
 1923TIP3   OH227327   2.363   0.835   7.920  0.3372  0.3830  0.0695
 1923TIP3    H127328   2.294   0.793   7.868  0.4446 -0.8155  0.8466
 1923TIP3    H227329   2.315   0.894   7.978  0.2497  2.0570 -1.6257
 1924TIP3   OH227330   1.464   4.279   6.861 -0.7437 -0.1935  0.0072
 1924TIP3    H127331   1.535   4.317   6.808  0.0593  0.4356  1.4721
 1924TIP3    H227332   1.386   4.292   6.808 -0.1377  1.4262 -0.5712
 1925TIP3   OH227333   1.584   5.565   7.914 -0.4539 -0.5253  0.3235
 1925TIP3    H127334   1.653   5.627   7.891 -0.0588 -0.5441  1.3855
 1925TIP3    H227335   1.631   5.486   7.941 -0.9541 -1.5607 -1.6073
 1926TIP3   OH227336   0.729   4.720   0.581  0.9385 -0.4811 -0.7202
 1926TIP3    H127337   0.715   4.730   0.675  1.3366  1.1898 -0.8074
 1926TIP3    H227338   0.683   4.639   0.558  1.9898 -1.6922  1.1482
 1927TIP3   OH227339   2.842   4.358   1.338  0.0948  0.3143 -0.2503
 1927TIP3    H127340   2.895   4.292   1.382  1.2553 -0.5959 -2.8138
 1927TIP3    H227341   2.759   4.358   1.385  0.8333 -1.4181  1.1541
 1928TIP3   OH227342   5.224   4.009   7.491 -0.4822 -0.3669 -0.0580
 1928TIP3    H127343   5.133   4.004   7.461 -0.7518  0.3176  0.6093
 1928TIP3    H227344   5.271   3.948   7.435 -1.1535  0.1082 -1.1628
 1929TIP3   OH227345   0.012   2.277   1.163 -1.4502 -0.3481  0.2232
 1929TIP3    H127346   0.098   2.318   1.152 -1.9032  0.6342  0.1993
 1929TIP3    H227347  -0.037   2.302   1.084 -1.3394 -2.0287 -0.4127
 1930TIP3   OH227348   4.133   3.017   7.597 -0.1109 -0.1564 -0.8242
 1930TIP3    H127349   4.152   2.990   7.507 -1.0100 -1.0453 -0.7643
 1930TIP3    H227350   4.048   2.978   7.616 -1.1361  2.0947 -0.4372
 1931TIP3   OH227351   5.130   2.981   0.910  0.3285 -0.4239 -0.2187
 1931TIP3    H127352   5.049   2.947   0.947  0.8359 -1.6268 -0.1783
 1931TIP3    H227353   5.130   2.950   0.819 -0.7802  2.2707 -1.2549
 1932TIP3   OH227354   1.712   5.366   8.243  0.4707  0.2633 -0.3926
 1932TIP3    H127355   1.694   5.460   8.253 -1.4323 -0.1205  0.2100
 1932TIP3    H227356   1.802   5.362   8.209  0.9720  2.2566  0.5590
 1933TIP3   OH227357   6.819   5.549   1.578 -0.1538 -0.2772  0.1456
 1933TIP3    H127358   6.856   5.491   1.512 -0.4787  0.3071 -0.5643
 1933TIP3    H227359   6.893   5.602   1.609 -0.0715 -0.2964 -0.0198
 1934TIP3   OH227360   5.160   6.751   1.750 -0.7929  0.6301  1.0276
 1934TIP3    H127361   5.079   6.729   1.796 -1.0285 -0.0678  0.2990
 1934TIP3    H227362   5.138   6.827   1.696 -0.8835  0.6236  1.0563
 1935TIP3   OH227363   4.579   5.023   0.781 -0.1845  0.4905 -0.4741
 1935TIP3    H127364   4.566   5.114   0.807 -0.2463  0.3430  0.0165
 1935TIP3    H227365   4.673   5.010   0.782 -0.1812  0.5176 -0.4461
 1936TIP3   OH227366   1.744   4.804   8.044 -0.3506 -0.2670 -0.3919
 1936TIP3    H127367   1.780   4.719   8.070 -1.0715 -0.1052  1.2514
 1936TIP3    H227368   1.783   4.821   7.958  0.9497 -1.5633 -0.1016
 1937TIP3   OH227369   0.297   1.424   8.474  0.2741  0.0317 -0.0631
 1937TIP3    H127370   0.358   1.353   8.491 -0.3877 -0.2201  1.4228
 1937TIP3    H227371   0.221   1.382   8.434  0.3305  0.0701 -0.2112
 1938TIP3   OH227372   4.048   5.449   2.279  0.4095  0.0644 -0.7924
 1938TIP3    H127373   3.980   5.382   2.271  0.3971  0.1155 -1.1303
 1938TIP3    H227374   4.129   5.404   2.256  0.4985 -0.0096 -0.3373
 1939TIP3   OH227375   3.871   1.766   1.953  0.7628 -0.0314  0.4665
 1939TIP3    H127376   3.912   1.845   1.920 -0.7378  0.5768 -0.0447
 1939TIP3    H227377   3.817   1.734   1.881 -0.6458 -0.0547  1.4688
 1940TIP3   OH227378   4.604   4.862   1.817  0.5220  0.1835 -0.5535
 1940TIP3    H127379   4.653   4.917   1.878  1.1405 -0.7566 -0.1911
 1940TIP3    H227380   4.667   4.836   1.751 -0.0224  0.7564 -1.3269
 1941TIP3   OH227381   4.504   3.129   1.200  0.6585 -0.5203  0.6784
 1941TIP3    H127382   4.547   3.212   1.217  1.7199 -0.6279 -1.1966
 1941TIP3    H227383   4.503   3.122   1.104 -1.4561 -1.6248  0.7320
 1942TIP3   OH227384   2.408   4.074   7.491 -0.0361  0.0691 -0.5492
 1942TIP3    H127385   2.368   4.004   7.440 -0.3883 -0.4674  0.4303
 1942TIP3    H227386   2.338   4.138   7.504  0.1227  0.3252 -0.9473
 1943TIP3   OH227387   2.212   2.696   7.400  0.1631  0.3260 -0.2999
 1943TIP3    H127388   2.165   2.615   7.422  0.6916  0.4758  1.5105
 1943TIP3    H227389   2.304   2.673   7.408  0.4057  0.4846 -2.2202
 1944TIP3   OH227390   3.143   0.373   1.832 -0.1145 -0.6099  0.2946
 1944TIP3    H127391   3.208   0.310   1.864 -0.8025 -1.2941  0.3723
 1944TIP3    H227392   3.162   0.453   1.881  1.9731 -0.1429 -1.1463
 1945TIP3   OH227393   6.689   2.356   2.106  0.7798  0.1431  0.1638
 1945TIP3    H127394   6.600   2.323   2.113  0.6971  0.1669 -0.6620
 1945TIP3    H227395   6.725   2.348   2.194  0.2984 -0.8210  0.2795
 1946TIP3   OH227396   2.336   2.030   6.731 -0.5991  0.0561 -0.3406
 1946TIP3    H127397   2.320   2.104   6.790  2.1940  2.0637 -1.8195
 1946TIP3    H227398   2.253   2.018   6.684 -1.5920  1.1942  1.0294
 1947TIP3   OH227399   0.716   6.290   1.636 -0.1167 -0.5772  0.7727
 1947TIP3    H127400   0.746   6.357   1.698  1.0937  0.9035 -1.2683
 1947TIP3    H227401   0.640   6.329   1.594  0.7931 -0.2613 -0.6661
 1948TIP3   OH227402   4.639   1.238   6.847 -0.0413  0.0652  0.0764
 1948TIP3    H127403   4.560   1.282   6.879  0.9338  1.2754  0.8828
 1948TIP3    H227404   4.702   1.308   6.835  0.3459 -0.6195 -2.4400
 1949TIP3   OH227405   4.623   3.028   1.841  0.3369  0.2284 -0.5157
 1949TIP3    H127406   4.599   2.937   1.861 -0.7287  0.1133 -2.1526
 1949TIP3    H227407   4.586   3.078   1.914  1.2837 -0.6642  0.6227
 1950TIP3   OH227408   3.281   4.109   0.961 -0.0479 -0.1514 -0.0689
 1950TIP3    H127409   3.323   4.184   1.002 -0.0836 -1.5887  2.8582
 1950TIP3    H227410   3.192   4.107   0.998  0.3218 -2.2331  0.8613
 1951TIP3   OH227411   0.055   4.393   1.038  0.1524  0.7926  0.5119
 1951TIP3    H127412   0.046   4.484   1.011 -0.2222  0.3264 -1.0350
 1951TIP3    H227413   0.138   4.390   1.085  0.5614  1.7864 -0.1157
 1952TIP3   OH227414   0.969   5.297   0.229 -0.2336 -0.3870  0.7988
 1952TIP3    H127415   0.931   5.297   0.141 -0.8927 -1.9575  1.0370
 1952TIP3    H227416   1.033   5.367   0.228 -0.8027  0.1499 -0.6825
 1953TIP3   OH227417   2.588   4.883   8.414 -0.1191 -0.4191  0.1932
 1953TIP3    H127418   2.654   4.813   8.409  2.4047  1.7426  0.8440
 1953TIP3    H227419   2.601   4.921   8.501  0.5603  2.5923 -1.1186
 1954TIP3   OH227420   1.391   3.387   2.931  0.6495 -0.1297  0.0861
 1954TIP3    H127421   1.426   3.423   2.850 -0.3288  1.6050  0.3775
 1954TIP3    H227422   1.362   3.463   2.981  1.9959 -1.0477  2.4838
 1955TIP3   OH227423   0.394   5.306   8.055  0.3341 -0.2610 -0.4335
 1955TIP3    H127424   0.338   5.242   8.100  1.7714  0.1239  2.0536
 1955TIP3    H227425   0.345   5.328   7.975 -1.1869 -2.8411 -0.3259
 1956TIP3   OH227426   5.152   6.151   7.305 -0.3605  0.3513 -0.8236
 1956TIP3    H127427   5.205   6.210   7.358  1.0350 -0.7821 -0.8964
 1956TIP3    H227428   5.196   6.066   7.312 -1.6908 -0.4338 -1.5955
 1957TIP3   OH227429   2.031   4.671   0.958 -0.5526 -0.3000 -0.0633
 1957TIP3    H127430   1.939   4.644   0.966 -1.0025  0.4464 -2.1638
 1957TIP3    H227431   2.037   4.710   0.871  1.7843 -0.3539  0.0182
 1958TIP3   OH227432   1.525   6.352   2.488  0.3277 -0.2934  0.1560
 1958TIP3    H127433   1.584   6.373   2.560  1.0589 -0.0392 -0.4975
 1958TIP3    H227434   1.571   6.285   2.438 -0.8591 -1.6216  0.7753
 1959TIP3   OH227435   5.758   4.920   1.013 -0.0810  0.3581 -0.3408
 1959TIP3    H127436   5.824   4.945   1.077  0.3855  2.6190 -1.5842
 1959TIP3    H227437   5.715   5.002   0.990 -0.2395 -0.3528 -2.8877
 1960TIP3   OH227438   3.480   3.009   1.241  0.0126  0.0393 -0.0653
 1960TIP3    H127439   3.526   3.070   1.299 -0.9748 -0.0130  0.7942
 1960TIP3    H227440   3.391   3.006   1.275 -0.6238  0.0852 -1.6752
 1961TIP3   OH227441   5.037   5.473   7.929 -1.0971  0.1942  0.0187
 1961TIP3    H127442   4.998   5.446   8.012  1.1855  0.3049  1.2005
 1961TIP3    H227443   5.111   5.414   7.917 -1.0758  0.5203 -1.7179
 1962TIP3   OH227444   1.476   5.681   1.548  0.3725  0.3407 -0.0935
 1962TIP3    H127445   1.416   5.697   1.621  0.0960  1.2265 -0.5063
 1962TIP3    H227446   1.420   5.675   1.471  0.6934 -0.2363 -0.2890
 1963TIP3   OH227447   2.872   2.963   0.478 -0.1230 -0.1722 -0.0827
 1963TIP3    H127448   2.850   2.927   0.391 -0.7781 -0.7120  0.2990
 1963TIP3    H227449   2.875   3.057   0.464 -1.0809 -0.1905 -0.5137
 1964TIP3   OH227450   5.075   1.276   0.603 -0.2016 -0.1013 -0.0795
 1964TIP3    H127451   5.142   1.238   0.547 -0.6777 -1.5459  0.2944
 1964TIP3    H227452   5.015   1.320   0.542  0.4454  0.2015 -0.5044
 1965TIP3   OH227453   1.131   0.189   7.593 -0.0676 -0.4846 -0.2669
 1965TIP3    H127454   1.103   0.123   7.530 -1.3740 -1.4168  1.1994
 1965TIP3    H227455   1.079   0.171   7.671  0.2923  1.6460  0.5469
 1966TIP3   OH227456   5.771   5.292   2.003 -0.2386  0.8744 -0.4862
 1966TIP3    H127457   5.676   5.285   2.014 -0.0176 -2.1947  0.4011
 1966TIP3    H227458   5.786   5.272   1.911 -0.3899 -0.0212 -0.3242
 1967TIP3   OH227459   0.567   3.257   0.732  0.6315  0.4716 -0.4255
 1967TIP3    H127460   0.655   3.293   0.746  1.0515 -0.9320  0.7820
 1967TIP3    H227461   0.582   3.163   0.720 -0.8840 -0.2463  2.4498
 1968TIP3   OH227462   2.205   4.564   1.615 -0.5518  0.0880 -0.6226
 1968TIP3    H127463   2.192   4.657   1.633  1.3175  0.0108  1.3584
 1968TIP3    H227464   2.230   4.525   1.699  1.4562 -1.6859 -1.9285
 1969TIP3   OH227465   1.825   5.707   0.824  0.3232 -0.1642 -0.1767
 1969TIP3    H127466   1.731   5.695   0.837  0.3298  0.2268  0.2817
 1969TIP3    H227467   1.840   5.799   0.849  0.9415 -0.4254  0.4320
 1970TIP3   OH227468   5.920   6.468   1.699 -0.5998  0.3474 -0.1134
 1970TIP3    H127469   5.912   6.379   1.733  2.0722 -0.5842 -1.6625
 1970TIP3    H227470   5.986   6.509   1.754  2.5188 -0.6423 -2.8307
 1971TIP3   OH227471   3.295   6.086   8.254  0.0397 -0.2094 -0.0048
 1971TIP3    H127472   3.273   6.173   8.287 -1.0256  0.2355 -1.7567
 1971TIP3    H227473   3.234   6.072   8.182  1.1764 -1.8075 -0.7021
 1972TIP3   OH227474   0.181   0.259   0.293 -0.1230  0.0292 -0.1410
 1972TIP3    H127475   0.156   0.310   0.370 -1.6318 -1.0114  0.1070
 1972TIP3    H227476   0.144   0.308   0.219 -1.8556 -0.8083  0.1226
 1973TIP3   OH227477   6.048   3.261   8.551  0.3324 -0.1104  0.2804
 1973TIP3    H127478   5.984   3.237   8.617 -0.1660  2.4565  0.8561
 1973TIP3    H227479   6.132   3.257   8.596 -0.0459  2.0859  1.3014
 1974TIP3   OH227480   3.859   6.685   1.702 -0.1119 -0.1358 -0.4919
 1974TIP3    H127481   3.940   6.660   1.747 -0.3426 -0.8153 -0.4403
 1974TIP3    H227482   3.855   6.780   1.710 -0.4100 -0.2686  1.3966
 1975TIP3   OH227483   3.967   6.743   1.422 -0.1512  0.1442  0.4380
 1975TIP3    H127484   3.885   6.755   1.373 -0.0309  0.2358  0.2589
 1975TIP3    H227485   3.946   6.678   1.488  0.2645 -1.6464 -1.1053
 1976TIP3   OH227486   1.505   3.011   7.293 -0.3765  0.1984 -0.1729
 1976TIP3    H127487   1.552   3.051   7.219  0.5343 -1.8776 -0.7901
 1976TIP3    H227488   1.413   3.014   7.268 -0.0835 -0.4217 -1.4057
 1977TIP3   OH227489   0.141   4.800   0.235 -0.2954  0.1528  0.0691
 1977TIP3    H127490   0.090   4.881   0.238 -0.7125 -0.1337  1.7328
 1977TIP3    H227491   0.218   4.822   0.181 -1.4530  0.9924 -1.3281
 1978TIP3   OH227492   2.005   3.927   1.750  0.4711  0.9867  0.6901
 1978TIP3    H127493   2.042   3.994   1.807  2.3728  0.0644  0.6230
 1978TIP3    H227494   2.070   3.915   1.681 -1.4451  1.5751 -1.3556
 1979TIP3   OH227495   5.542   5.995   1.232 -0.2973 -0.6296 -0.0383
 1979TIP3    H127496   5.616   5.970   1.176  0.2008 -0.9390  0.7417
 1979TIP3    H227497   5.563   6.083   1.262 -0.8075 -0.2669 -0.7309
 1980TIP3   OH227498   2.187   5.256   7.897 -0.5832 -0.3993 -0.0274
 1980TIP3    H127499   2.270   5.214   7.919 -0.2769 -0.1733 -0.7232
 1980TIP3    H227500   2.201   5.349   7.918 -0.6493 -0.3576 -0.1653
 1981TIP3   OH227501   3.118   1.772   0.966  0.1127  0.1577  0.0435
 1981TIP3    H127502   3.089   1.832   1.035  1.1929 -0.2026  0.8388
 1981TIP3    H227503   3.061   1.696   0.976  0.2758  0.0997  0.5471
 1982TIP3   OH227504   0.336   5.192   7.546  0.1919 -0.0375 -0.3862
 1982TIP3    H127505   0.336   5.270   7.491 -1.3171  1.0513  1.0667
 1982TIP3    H227506   0.244   5.164   7.547  0.0868  0.2051  1.8194
 1983TIP3   OH227507   1.084   4.795   8.194 -0.2889  0.3657 -0.0376
 1983TIP3    H127508   1.141   4.795   8.117 -0.6154  1.3796 -0.2907
 1983TIP3    H227509   1.099   4.879   8.236 -1.9128  0.8644 -0.3644
 1984TIP3   OH227510   1.038   5.600   7.289 -0.2103 -0.3979  0.3737
 1984TIP3    H127511   1.123   5.560   7.308 -0.0936 -0.3304 -0.0062
 1984TIP3    H227512   1.044   5.627   7.197 -0.8903 -1.0231  0.1413
 1985TIP3   OH227513   4.025   5.233   8.232  0.0798  0.6203 -0.0023
 1985TIP3    H127514   4.072   5.270   8.157  0.2015  0.6683  0.0956
 1985TIP3    H227515   3.933   5.235   8.207  0.2264 -0.6103 -0.6955
 1986TIP3   OH227516   3.584   4.627   1.663  0.3481  0.3421  0.8425
 1986TIP3    H127517   3.624   4.574   1.594 -0.1709  1.9664 -0.7736
 1986TIP3    H227518   3.654   4.683   1.695  0.0416  1.3017 -0.1126
 1987TIP3   OH227519   5.665   6.729   8.165  0.3727 -0.4268  0.5348
 1987TIP3    H127520   5.682   6.742   8.072 -1.1336  2.5518  0.5608
 1987TIP3    H227521   5.577   6.692   8.169  0.6558 -1.0889  0.7783
 1988TIP3   OH227522   2.638   5.335   1.523 -0.2398  0.3707  0.5987
 1988TIP3    H127523   2.675   5.257   1.564 -0.1649 -0.1633 -0.4537
 1988TIP3    H227524   2.696   5.406   1.552  1.2372 -0.3456 -0.4324
 1989TIP3   OH227525   5.013   5.393   7.605  0.0974 -0.9736  0.5097
 1989TIP3    H127526   4.952   5.352   7.544  0.3978  0.6544 -0.9493
 1989TIP3    H227527   4.967   5.471   7.636  1.6014  0.6727 -1.1463
 1990TIP3   OH227528   6.398   4.689   7.096  0.2255  0.1386  0.5896
 1990TIP3    H127529   6.418   4.607   7.141  0.5187  0.7742  1.6413
 1990TIP3    H227530   6.484   4.728   7.078  0.0847  0.2405  0.1139
 1991TIP3   OH227531   0.635   6.460   8.489  0.2910 -0.5472 -0.3030
 1991TIP3    H127532   0.571   6.529   8.474 -0.3765 -1.3225 -1.2096
 1991TIP3    H227533   0.717   6.496   8.454  0.1548  0.1007  0.0237
 1992TIP3   OH227534   0.199   2.367   8.567 -0.1479 -0.0468 -0.6982
 1992TIP3    H127535   0.114   2.384   8.527 -1.0928  1.0900  1.5686
 1992TIP3    H227536   0.260   2.421   8.517 -0.9862  0.1100 -1.5788
 1993TIP3   OH227537   1.746   2.584   7.925  0.1373 -0.5609  0.1780
 1993TIP3    H127538   1.720   2.533   7.848  2.9860 -0.3206 -1.0530
 1993TIP3    H227539   1.727   2.527   7.999 -0.2675 -1.8729 -0.9016
 1994TIP3   OH227540   2.904   1.483   2.056 -0.1809 -0.4623 -0.4079
 1994TIP3    H127541   2.829   1.504   2.001  1.0158  1.6869 -1.3617
 1994TIP3    H227542   2.969   1.550   2.034  1.5809 -1.5270  1.2388
 1995TIP3   OH227543   1.810   2.661   2.035 -0.1656 -0.9274 -0.1210
 1995TIP3    H127544   1.887   2.633   1.984  1.8739  1.5845  1.3759
 1995TIP3    H227545   1.810   2.756   2.027 -2.0277 -0.7529  1.5060
 1996TIP3   OH227546   0.476   1.245   0.324 -0.0780  0.1879 -0.2219
 1996TIP3    H127547   0.446   1.164   0.366  0.4410 -0.3512 -0.8626
 1996TIP3    H227548   0.548   1.276   0.380  0.0674 -0.0817 -0.2573
 1997TIP3   OH227549   5.207   1.831   1.888 -0.3610  0.1024 -0.0787
 1997TIP3    H127550   5.191   1.744   1.852  4.0678 -0.5194 -1.1107
 1997TIP3    H227551   5.248   1.880   1.817  0.0385  2.0223  1.3761
 1998TIP3   OH227552   0.585   4.587   1.732  0.2226  0.5031  0.5767
 1998TIP3    H127553   0.658   4.624   1.780  0.6756  1.0783 -0.5203
 1998TIP3    H227554   0.612   4.497   1.712 -0.0665  0.1823  1.5651
 1999TIP3   OH227555   0.441   1.116   7.540  0.3905 -0.1233 -0.0081
 1999TIP3    H127556   0.396   1.046   7.493 -0.5118  0.6299 -0.2878
 1999TIP3    H227557   0.527   1.079   7.561 -0.0987 -1.3474 -0.0595
 2000TIP3   OH227558   1.424   0.933   1.473 -0.1489  0.2092  0.0156
 2000TIP3    H127559   1.436   0.882   1.553 -0.3511 -0.1806 -0.2009
 2000TIP3    H227560   1.452   0.875   1.402 -0.5269  0.3407 -0.2477
 2001TIP3   OH227561   4.167   5.179   2.677  0.3861  0.2810 -0.2916
 2001TIP3    H127562   4.236   5.203   2.739 -0.8330  1.5984  0.6236
 2001TIP3    H227563   4.158   5.085   2.687 -1.2643  0.6547  3.2782
 2002TIP3   OH227564   3.461   3.960   1.754 -0.2647 -0.1405 -0.5957
 2002TIP3    H127565   3.516   3.985   1.828 -0.9241 -3.5146  1.2318
 2002TIP3    H227566   3.515   3.899   1.703 -0.9148 -0.3480 -1.0512
 2003TIP3   OH227567   0.929   4.822   1.595  0.0359 -0.5665  0.5313
 2003TIP3    H127568   0.875   4.836   1.674  0.4154 -1.9574  1.0706
 2003TIP3    H227569   0.872   4.774   1.535 -0.3259  0.6862 -0.1543
 2004TIP3   OH227570   2.593   6.516   2.084  0.0273 -0.4404 -0.2042
 2004TIP3    H127571   2.631   6.536   2.169 -0.1749 -1.3821  0.1250
 2004TIP3    H227572   2.499   6.524   2.097 -0.0263 -0.9643 -0.2194
 2005TIP3   OH227573   3.818   5.096   7.142 -0.3080 -0.3011  0.1155
 2005TIP3    H127574   3.846   5.004   7.136  0.9625  0.0428  0.4244
 2005TIP3    H227575   3.775   5.114   7.059 -2.8699 -1.8827  0.9949
 2006TIP3   OH227576   1.199   3.846   8.681 -0.0732  0.1794 -0.3582
 2006TIP3    H127577   1.110   3.822   8.656  0.3419 -1.0909 -0.7185
 2006TIP3    H227578   1.201   3.834   8.776 -0.1078 -0.5072 -0.4334
 2007TIP3   OH227579   1.780   4.778   7.452  0.0716  0.0737  0.3981
 2007TIP3    H127580   1.780   4.772   7.357 -0.0216  0.8482  0.3387
 2007TIP3    H227581   1.734   4.700   7.482  0.7763 -0.5615 -0.1604
 2008TIP3   OH227582   5.092   5.909   3.066 -0.2629  0.1790 -0.0068
 2008TIP3    H127583   5.169   5.852   3.063  0.3538  1.0002 -2.5766
 2008TIP3    H227584   5.030   5.868   3.006 -0.6693  1.0591 -0.1999
 2009TIP3   OH227585   0.598   5.079   8.735  0.1989  0.4197 -0.2662
 2009TIP3    H127586   0.659   5.014   8.700  0.3702  0.0698  0.6359
 2009TIP3    H227587   0.649   5.123   8.804 -0.7166 -0.2602  0.8887
 2010TIP3   OH227588   2.205   6.827   2.155 -0.6217 -0.5552 -0.1243
 2010TIP3    H127589   2.231   6.764   2.088 -0.4831  1.2989 -1.9142
 2010TIP3    H227590   2.165   6.899   2.106 -1.5446  0.3938  1.8938
 2011TIP3   OH227591   0.195   1.271   1.851 -0.0450 -0.7018 -0.5574
 2011TIP3    H127592   0.224   1.358   1.878 -1.0883  0.4795 -2.9859
 2011TIP3    H227593   0.254   1.211   1.897  1.9593  1.3496 -0.2815
 2012TIP3   OH227594   4.665   1.983   1.248 -0.0111 -0.7246  0.2195
 2012TIP3    H127595   4.666   1.889   1.266  0.4950 -0.9345 -0.8128
 2012TIP3    H227596   4.573   2.008   1.251 -0.2044 -1.3794 -0.0800
 2013TIP3   OH227597   0.849   4.409   7.571  0.1521 -0.5989  0.6126
 2013TIP3    H127598   0.900   4.391   7.650 -2.0453 -3.4368  1.5613
 2013TIP3    H227599   0.861   4.332   7.516 -0.0972  0.3828 -0.8931
 2014TIP3   OH227600   0.820   5.237   8.199 -0.6131 -0.0823 -0.8098
 2014TIP3    H127601   0.787   5.247   8.289  1.1615 -0.4751 -0.0826
 2014TIP3    H227602   0.839   5.144   8.191  2.2413  0.4052 -0.4541
 2015TIP3   OH227603   3.072   1.582   0.073 -0.4554  0.0983  0.5553
 2015TIP3    H127604   2.980   1.607   0.066 -0.3173  0.4511 -0.0411
 2015TIP3    H227605   3.082   1.510   0.011 -0.3810 -0.0904  0.7848
 2016TIP3   OH227606   3.302   3.818   6.988  0.9104 -0.0105  0.1878
 2016TIP3    H127607   3.382   3.870   6.990  0.3020  0.9690  0.5929
 2016TIP3    H227608   3.322   3.739   7.038  1.3937  0.6040  0.9980
 2017TIP3   OH227609   0.906   3.891   2.154 -0.0918  0.0404  0.3098
 2017TIP3    H127610   0.962   3.967   2.170 -0.0326  0.0713 -0.0357
 2017TIP3    H227611   0.824   3.928   2.122 -0.0713 -0.0368  0.1633
 2018TIP3   OH227612   3.911   2.669   7.443 -0.6590  0.0223  0.0864
 2018TIP3    H127613   3.956   2.746   7.407 -1.0114  1.1708  1.9786
 2018TIP3    H227614   3.975   2.599   7.437  0.6567  1.1254  0.7851
 2019TIP3   OH227615   3.796   6.431   2.355 -0.9949  0.2762 -0.3471
 2019TIP3    H127616   3.830   6.343   2.374 -0.4878  0.8067  1.4512
 2019TIP3    H227617   3.721   6.441   2.415 -0.6089  1.3189 -0.0169
 2020TIP3   OH227618   0.225   0.137   2.682 -0.1648  0.0243  0.1527
 2020TIP3    H127619   0.271   0.212   2.645  0.4004 -0.0795  0.6403
 2020TIP3    H227620   0.208   0.161   2.773  1.3880 -1.0231  0.7755
 2021TIP3   OH227621   5.196   4.133   0.305 -0.0090 -0.0593 -0.6689
 2021TIP3    H127622   5.168   4.091   0.387 -1.0758  1.1190 -0.3822
 2021TIP3    H227623   5.236   4.215   0.333  3.1615 -1.3013 -1.1394
 2022TIP3   OH227624   5.543   3.568   1.299 -0.2422 -0.6693  0.0064
 2022TIP3    H127625   5.576   3.637   1.242 -0.3604 -1.6515 -1.2868
 2022TIP3    H227626   5.542   3.608   1.386 -0.0558  0.8663 -0.6554
 2023TIP3   OH227627   0.382   5.786   0.993 -0.3172 -0.5876 -0.2585
 2023TIP3    H127628   0.292   5.774   0.964 -0.4788 -0.6544  0.2601
 2023TIP3    H227629   0.411   5.698   1.021  0.0303 -0.6376 -0.7687
 2024TIP3   OH227630   1.633   5.679   0.482 -0.1524 -0.0834  0.8271
 2024TIP3    H127631   1.614   5.589   0.508  0.5149 -0.4792 -0.0003
 2024TIP3    H227632   1.701   5.671   0.415  0.0121  1.0468  0.8365
 2025TIP3   OH227633   3.430   5.858   0.312  0.1286 -0.2506  0.1028
 2025TIP3    H127634   3.437   5.945   0.274 -1.9682 -0.1709 -0.2355
 2025TIP3    H227635   3.520   5.833   0.332  0.7854  1.9409  0.1308
 2026TIP3   OH227636   4.841   6.399   0.235  0.1206  0.1234  0.2420
 2026TIP3    H127637   4.898   6.438   0.302 -1.2057 -0.2078  1.5998
 2026TIP3    H227638   4.874   6.434   0.153  1.6269  0.7595  1.0791
 2027TIP3   OH227639   0.859   1.312   0.155 -0.6693  0.5051 -0.0664
 2027TIP3    H127640   0.883   1.237   0.209  1.2938 -0.6672 -2.3737
 2027TIP3    H227641   0.802   1.365   0.211 -0.1327 -1.4381  2.4951
 2028TIP3   OH227642   1.166   4.527   7.365 -0.3109 -0.3731  0.9985
 2028TIP3    H127643   1.259   4.537   7.386 -0.6620  0.5108  2.2215
 2028TIP3    H227644   1.121   4.580   7.430 -1.7104 -1.1389  0.6861
 2029TIP3   OH227645   2.537   6.154   7.287 -0.2636  0.5607  0.4400
 2029TIP3    H127646   2.517   6.218   7.355 -1.0826 -0.3767  1.1178
 2029TIP3    H227647   2.454   6.108   7.273  0.2325 -0.1577 -0.2316
 2030TIP3   OH227648   4.431   3.706   8.228  0.0343  0.0563  0.1027
 2030TIP3    H127649   4.422   3.724   8.321  3.4773 -0.0553  0.5993
 2030TIP3    H227650   4.376   3.771   8.185 -0.5922  0.9851  2.1723
 2031TIP3   OH227651   0.613   4.775   0.262 -0.4045 -0.4747 -0.4215
 2031TIP3    H127652   0.597   4.693   0.215 -1.0274  0.3396 -1.6789
 2031TIP3    H227653   0.672   4.825   0.206  1.3177 -0.6873  1.0940
 2032TIP3   OH227654   5.835   5.466   1.732 -0.3227 -0.9201 -0.5864
 2032TIP3    H127655   5.834   5.370   1.735  1.5473 -0.9602 -0.4266
 2032TIP3    H227656   5.858   5.488   1.642 -0.4304 -0.6087 -0.5407
 2033TIP3   OH227657   3.226   4.342   0.392 -0.5863 -0.0630  0.0810
 2033TIP3    H127658   3.200   4.367   0.481 -0.1552  1.9985 -0.3289
 2033TIP3    H227659   3.200   4.416   0.337  3.0958  0.8065 -0.8260
 2034TIP3   OH227660   2.143   4.220   2.546  0.2499 -0.5339 -0.6344
 2034TIP3    H127661   2.197   4.280   2.597  1.9818 -2.1804 -0.4013
 2034TIP3    H227662   2.104   4.274   2.478 -0.5967  1.3506  1.2642
 2035TIP3   OH227663   5.286   6.316   7.481 -0.1996  0.3044  0.2837
 2035TIP3    H127664   5.264   6.394   7.531  0.1631  0.2818  0.4764
 2035TIP3    H227665   5.380   6.323   7.464  0.3416 -1.2126  2.2791
 2036TIP3   OH227666   4.069   0.643   1.473  0.0998  0.7690 -0.2098
 2036TIP3    H127667   4.107   0.569   1.520 -1.1802  0.9374  1.1638
 2036TIP3    H227668   4.063   0.613   1.382 -0.0284 -0.6617  0.2476
 2037TIP3   OH227669   1.702   4.430   2.373  0.4375 -0.2326 -0.9392
 2037TIP3    H127670   1.663   4.345   2.391  0.7867 -0.0312  1.0353
 2037TIP3    H227671   1.629   4.485   2.344 -0.8128  0.0670  2.4043
 2038TIP3   OH227672   0.927   1.224   7.745  0.4755 -0.3985  0.3066
 2038TIP3    H127673   0.984   1.238   7.821  0.8814  1.3982 -0.2905
 2038TIP3    H227674   0.965   1.277   7.676  1.3077 -3.5413 -1.8747
 2039TIP3   OH227675   5.081   0.238   0.727 -0.0242  0.0500 -0.0996
 2039TIP3    H127676   5.126   0.312   0.767 -0.6087 -0.8198  2.3683
 2039TIP3    H227677   5.018   0.210   0.793 -1.6583 -1.0365 -1.9992
 2040TIP3   OH227678   0.164   4.680   8.465  0.5485  0.2975 -0.3217
 2040TIP3    H127679   0.245   4.681   8.515  0.8119  0.1356 -0.7355
 2040TIP3    H227680   0.160   4.592   8.427  1.1788  0.9116 -1.9028
 2041TIP3   OH227681   0.533   1.291   2.971 -0.0318 -0.1530 -0.3955
 2041TIP3    H127682   0.550   1.374   2.926  2.2020 -0.0244  0.5411
 2041TIP3    H227683   0.442   1.297   2.999 -0.2042  1.5628 -1.1849
 2042TIP3   OH227684   3.597   5.351   7.442 -0.0760 -0.2999 -0.2086
 2042TIP3    H127685   3.593   5.446   7.450 -3.2599 -0.3405  0.0543
 2042TIP3    H227686   3.682   5.333   7.400  0.6944  2.5923 -0.0619
 2043TIP3   OH227687   3.799   6.287   1.727 -0.6658  0.1938  0.4048
 2043TIP3    H127688   3.708   6.259   1.735 -0.6156  0.0880  0.6250
 2043TIP3    H227689   3.804   6.327   1.641 -1.5087  2.3154  1.2725
 2044TIP3   OH227690   2.825   1.982   1.328  0.2630  0.2708 -0.0316
 2044TIP3    H127691   2.839   1.988   1.422  0.2065 -2.0160  0.1810
 2044TIP3    H227692   2.913   1.986   1.290  0.4361 -0.5443  0.2671
 2045TIP3   OH227693   5.009   5.088   8.658 -0.1645 -0.5081 -0.3169
 2045TIP3    H127694   5.078   5.070   8.594  0.5337 -1.1950  0.6166
 2045TIP3    H227695   5.019   5.021   8.724 -0.0365  0.9539  1.2133
 2046TIP3   OH227696   4.922   4.483   0.975 -0.2263 -0.4096 -0.0263
 2046TIP3    H127697   4.903   4.552   1.039 -0.1756 -1.5914  1.3052
 2046TIP3    H227698   4.842   4.476   0.923 -0.9023 -0.5815  1.0046
 2047TIP3   OH227699   5.364   6.766   8.246 -0.1434 -0.3578  0.2523
 2047TIP3    H127700   5.274   6.748   8.272 -1.0206 -1.2712 -2.9431
 2047TIP3    H227701   5.362   6.857   8.215  0.0138 -0.4353  0.0199
 2048TIP3   OH227702   2.648   3.550   1.099  0.5459  0.1319  0.1487
 2048TIP3    H127703   2.570   3.498   1.121 -0.6239  1.1728 -1.3259
 2048TIP3    H227704   2.617   3.612   1.034  2.7425  0.3070 -0.7983
 2049TIP3   OH227705   2.434   5.312   1.016  0.7345  0.0656 -0.2449
 2049TIP3    H127706   2.462   5.283   0.929 -0.0126 -1.2615 -0.0702
 2049TIP3    H227707   2.340   5.325   1.008  1.0803  3.1616 -0.4577
 2050TIP3   OH227708   6.109   1.869   1.404  0.7366 -0.3435 -0.4272
 2050TIP3    H127709   6.103   1.958   1.371 -0.2330 -0.2707 -0.0761
 2050TIP3    H227710   6.201   1.845   1.393  0.7826  0.2887 -1.5762
 2051TIP3   OH227711   5.148   2.849   0.669  0.1266  0.1808 -1.0726
 2051TIP3    H127712   5.079   2.845   0.603  0.9444 -0.7011 -1.9153
 2051TIP3    H227713   5.229   2.858   0.618  0.9453 -2.2498 -0.3233
 2052TIP3   OH227714   2.159   0.979   7.082 -0.1049 -0.2023 -0.2759
 2052TIP3    H127715   2.155   0.886   7.104 -0.7488  0.3706  2.4295
 2052TIP3    H227716   2.243   1.008   7.116 -1.3419  0.8266  2.1408
 2053TIP3   OH227717   5.173   0.197   7.704 -0.0270  0.1595  0.2938
 2053TIP3    H127718   5.150   0.132   7.637  1.1767 -1.0528  1.0031
 2053TIP3    H227719   5.095   0.251   7.713 -0.2392  0.3555 -2.0674
 2054TIP3   OH227720   5.178   2.354   8.165 -0.0431  0.3021  0.2545
 2054TIP3    H127721   5.209   2.349   8.074  0.4237 -0.8865  0.4682
 2054TIP3    H227722   5.106   2.417   8.161  1.0143  1.5108 -0.6260
 2055TIP3   OH227723   1.649   6.202   0.041 -0.1244 -0.8635 -0.8745
 2055TIP3    H127724   1.696   6.270  -0.006 -0.6654  0.5414  0.5452
 2055TIP3    H227725   1.715   6.161   0.097 -0.5148  1.2261  1.2551
 2056TIP3   OH227726   0.390   2.880   0.857  0.3017 -0.1021  0.3845
 2056TIP3    H127727   0.449   2.885   0.932  2.7536  0.4851 -1.4238
 2056TIP3    H227728   0.329   2.953   0.869 -0.9273 -1.4325  2.9081
 2057TIP3   OH227729   5.098   1.056   2.597 -0.5381 -0.0119 -0.2313
 2057TIP3    H127730   5.006   1.031   2.608 -0.3052 -1.1504 -0.7536
 2057TIP3    H227731   5.113   1.122   2.665 -2.3474  1.8907 -1.5340
 2058TIP3   OH227732   2.644   0.988   0.481 -0.4128 -0.3384 -0.5890
 2058TIP3    H127733   2.611   1.067   0.438 -1.6532 -0.6728 -0.2928
 2058TIP3    H227734   2.597   0.985   0.565  2.5880  0.8105  1.3091
 2059TIP3   OH227735   6.285   2.630   1.507  0.2794  0.0853 -0.4437
 2059TIP3    H127736   6.365   2.681   1.521  1.7541 -1.8739 -1.3689
 2059TIP3    H227737   6.279   2.573   1.583  1.0471 -1.3480 -1.4260
 2060TIP3   OH227738   1.261   0.472   2.157 -0.0274 -0.1731 -0.2799
 2060TIP3    H127739   1.301   0.386   2.145 -1.3290 -0.7563 -0.6896
 2060TIP3    H227740   1.219   0.490   2.073 -1.9800 -0.3528  0.6019
 2061TIP3   OH227741   4.370   0.470   8.702  0.0291 -0.1748  0.0585
 2061TIP3    H127742   4.321   0.424   8.634 -0.6105 -2.1184  1.7397
 2061TIP3    H227743   4.328   0.444   8.784  1.1205  1.6405  1.2687
 2062TIP3   OH227744   0.297   6.751   7.734 -0.1847 -0.4475 -0.1962
 2062TIP3    H127745   0.294   6.828   7.677 -2.2249 -0.4206 -0.1273
 2062TIP3    H227746   0.283   6.677   7.675 -2.0790 -0.4366  0.1991
 2063TIP3   OH227747   6.763   4.448   8.253 -0.4003  0.1826 -0.0115
 2063TIP3    H127748   6.756   4.353   8.244 -1.4350  0.3971 -2.1943
 2063TIP3    H227749   6.725   4.467   8.339 -0.2786 -1.3561  0.4123
 2064TIP3   OH227750   5.678   0.611   3.412 -0.7860 -0.0000  0.1943
 2064TIP3    H127751   5.664   0.701   3.442  0.2314  0.1804  0.1685
 2064TIP3    H227752   5.639   0.557   3.479 -0.5171  0.4461  0.7179
 2065TIP3   OH227753   6.591   1.470   1.108  0.2942 -0.2544  0.0210
 2065TIP3    H127754   6.619   1.379   1.097 -0.5038 -0.2867 -2.1506
 2065TIP3    H227755   6.540   1.489   1.029 -1.6624  1.3092  1.5696
 2066TIP3   OH227756   1.146   5.228   8.055  0.4149 -0.2839  0.0415
 2066TIP3    H127757   1.123   5.204   8.145  0.5797  0.2165  0.2221
 2066TIP3    H227758   1.176   5.319   8.062  2.0517 -0.7719 -0.2467
 2067TIP3   OH227759   4.039   5.341   0.597 -0.3831 -0.2895  0.5496
 2067TIP3    H127760   3.963   5.289   0.623 -1.3974 -0.2451 -1.9819
 2067TIP3    H227761   4.003   5.406   0.536  1.4394  0.8872  0.6463
 2068TIP3   OH227762   3.924   6.407   8.239  0.0232  0.3004 -0.0522
 2068TIP3    H127763   3.941   6.330   8.292  1.2874 -0.1314 -1.0422
 2068TIP3    H227764   3.966   6.479   8.285 -0.8416  0.3587  0.6805
 2069TIP3   OH227765   1.159   4.108   0.179 -0.0552 -0.3130 -0.1977
 2069TIP3    H127766   1.129   4.112   0.270 -1.2239 -0.4875 -0.5515
 2069TIP3    H227767   1.229   4.172   0.173 -1.9044  1.8447  0.1540
 2070TIP3   OH227768   6.627   6.653   7.858  0.0907  0.1549 -0.1628
 2070TIP3    H127769   6.716   6.653   7.895  0.4814  0.4994 -1.0647
 2070TIP3    H227770   6.601   6.561   7.859  0.1239  0.1523  0.8853
 2071TIP3   OH227771   4.632   4.358   8.235  0.1105  0.4897  0.4994
 2071TIP3    H127772   4.609   4.442   8.277 -0.5340  0.6922 -0.2202
 2071TIP3    H227773   4.724   4.367   8.212 -0.2739  1.5765 -0.7935
 2072TIP3   OH227774   0.200   4.137   3.068 -0.2317  0.3792 -0.4292
 2072TIP3    H127775   0.138   4.159   2.998  0.1558 -1.0359 -1.2507
 2072TIP3    H227776   0.285   4.169   3.036  0.0965 -1.0157 -1.0247
 2073TIP3   OH227777   2.375   4.409   8.367 -0.3945 -0.2473  0.3938
 2073TIP3    H127778   2.332   4.326   8.348 -0.3933  0.1297 -1.4183
 2073TIP3    H227779   2.458   4.384   8.408 -0.3367 -1.1529 -0.2458
 2074TIP3   OH227780   6.448   6.219   2.267 -0.0788 -0.0861  0.2752
 2074TIP3    H127781   6.464   6.274   2.344  0.8126  1.3618 -0.8849
 2074TIP3    H227782   6.370   6.258   2.226  1.8599  1.9025 -1.8116
 2075TIP3   OH227783   2.977   2.317   1.902 -0.0775  0.3282 -0.0765
 2075TIP3    H127784   2.998   2.365   1.983  1.3029 -1.8267  0.9637
 2075TIP3    H227785   2.885   2.335   1.886  0.3008  3.1167  0.3090
 2076TIP3   OH227786   4.002   0.171   3.063 -0.2324 -0.0240  0.1053
 2076TIP3    H127787   4.056   0.166   2.984  1.0731  2.6017  0.7211
 2076TIP3    H227788   4.061   0.147   3.134 -1.0446 -1.0833  0.4526
 2077TIP3   OH227789   1.669   2.357   0.523  0.1994  0.2950  0.5205
 2077TIP3    H127790   1.662   2.280   0.466 -0.4207  0.7141  0.0147
 2077TIP3    H227791   1.757   2.352   0.560 -0.6351 -2.0444  2.4914
 2078TIP3   OH227792   4.942   3.427   7.827  0.0467  0.6155  0.2516
 2078TIP3    H127793   4.902   3.474   7.900  1.6836  1.6989  0.5197
 2078TIP3    H227794   5.030   3.406   7.858  0.1557 -0.5411 -0.7562
 2079TIP3   OH227795   1.622   1.802   0.135  0.3381  0.0598 -0.1169
 2079TIP3    H127796   1.607   1.773   0.225  0.5361  0.1444 -0.0557
 2079TIP3    H227797   1.631   1.721   0.084  1.9116 -0.0110  0.2244
 2080TIP3   OH227798   1.121   5.121   7.671 -0.4759 -0.2461 -0.3534
 2080TIP3    H127799   1.197   5.067   7.694 -1.5329 -1.7586 -0.2552
 2080TIP3    H227800   1.057   5.101   7.739 -0.7197  1.6024  0.0085
 2081TIP3   OH227801   6.066   3.420   0.465 -0.4526 -0.1161  0.5973
 2081TIP3    H127802   6.023   3.336   0.478  1.6910 -1.1481  1.4534
 2081TIP3    H227803   6.087   3.422   0.371 -0.4130 -0.5889  0.5972
 2082TIP3   OH227804   4.556   0.793   1.142  1.0194  0.1258 -0.1328
 2082TIP3    H127805   4.546   0.711   1.094  0.2462 -0.0101  0.2486
 2082TIP3    H227806   4.519   0.860   1.085 -2.0598 -0.3303  1.1407
 2083TIP3   OH227807   2.139   3.464   2.043 -0.4626  0.1760 -0.0213
 2083TIP3    H127808   2.133   3.374   2.074  0.8104  0.4363  1.0491
 2083TIP3    H227809   2.173   3.457   1.954  0.6176 -0.3646  0.4225
 2084TIP3   OH227810   3.111   3.783   2.231 -0.2821  0.6468 -0.3879
 2084TIP3    H127811   3.093   3.690   2.244  0.1844  0.8421  2.2695
 2084TIP3    H227812   3.183   3.784   2.167  1.5331 -1.0592  1.4400
 2085TIP3   OH227813   0.474   4.391   7.901  0.1288  0.2665 -0.2391
 2085TIP3    H127814   0.539   4.420   7.965 -0.3723  0.1310  0.3393
 2085TIP3    H227815   0.508   4.308   7.868 -0.1158 -0.1810  0.6154
 2086TIP3   OH227816   5.496   1.535   2.021  0.4497  1.0173 -0.0343
 2086TIP3    H127817   5.408   1.526   1.985  0.1824 -0.7017  0.9493
 2086TIP3    H227818   5.512   1.629   2.021 -2.2785  1.6067  1.7724
 2087TIP3   OH227819   5.008   1.853   1.414  0.4850 -0.0314  0.0543
 2087TIP3    H127820   4.992   1.945   1.393  0.7016 -0.4790 -2.3523
 2087TIP3    H227821   4.928   1.824   1.459 -0.6256  0.7284 -1.3581
 2088TIP3   OH227822   2.310   6.340   6.964 -0.0274 -0.1672 -0.8554
 2088TIP3    H127823   2.248   6.410   6.945 -0.1086 -0.1221 -0.4360
 2088TIP3    H227824   2.256   6.264   6.982 -0.0814  0.3586  1.5743
 2089TIP3   OH227825   4.260   1.587   7.110 -0.3906  0.0424 -0.1095
 2089TIP3    H127826   4.196   1.628   7.052 -1.2331 -1.1869 -0.0891
 2089TIP3    H227827   4.230   1.496   7.118  0.1360 -0.0174  1.6278
 2090TIP3   OH227828   0.407   3.021   2.109 -0.4320 -0.2035 -0.0915
 2090TIP3    H127829   0.427   3.019   2.203  0.1508  0.4617 -0.1965
 2090TIP3    H227830   0.487   3.052   2.068 -0.9173  0.2056 -0.7460
 2091TIP3   OH227831   0.402   5.061   8.432  0.4240 -0.0254  0.4619
 2091TIP3    H127832   0.476   5.097   8.383  0.3326  0.4830  0.7033
 2091TIP3    H227833   0.412   4.966   8.422 -0.1222  0.0621 -1.3478
 2092TIP3   OH227834   5.649   0.651   2.081  0.1080 -0.7560 -0.1885
 2092TIP3    H127835   5.692   0.730   2.114 -1.2041 -0.1684  0.1560
 2092TIP3    H227836   5.615   0.675   1.995 -2.0857 -0.2435  0.7461
 2093TIP3   OH227837   0.459   2.257   0.002  0.6552 -0.2399  0.2142
 2093TIP3    H127838   0.382   2.260   0.059  0.5357 -1.2879  0.1203
 2093TIP3    H227839   0.516   2.191   0.042  2.1141  1.3891  1.0084
 2094TIP3   OH227840   4.063   6.423   6.826  0.3440  0.0840  0.5748
 2094TIP3    H127841   3.970   6.428   6.807  0.8313  0.9862 -1.8641
 2094TIP3    H227842   4.086   6.331   6.813 -0.1670 -0.1119  1.0408
 2095TIP3   OH227843   4.582   3.303   1.482  0.2268  0.0838  0.7206
 2095TIP3    H127844   4.497   3.348   1.475 -0.1494 -0.5855  0.8829
 2095TIP3    H227845   4.643   3.361   1.436 -0.0678  1.1997  1.6848
 2096TIP3   OH227846   5.589   6.337   0.094  0.0738 -0.5355  0.3142
 2096TIP3    H127847   5.679   6.367   0.079 -0.7266  2.2163  0.4649
 2096TIP3    H227848   5.583   6.331   0.190  0.1063 -0.7176  0.3041
 2097TIP3   OH227849   2.730   3.219   1.893  0.2208 -0.6483  0.0836
 2097TIP3    H127850   2.764   3.146   1.842  1.3396  1.2733 -2.1050
 2097TIP3    H227851   2.792   3.228   1.966  1.4958 -0.3922 -1.0007
 2098TIP3   OH227852   1.864   2.021   2.256 -0.3851 -0.6531  0.0006
 2098TIP3    H127853   1.891   1.934   2.226  0.0859 -0.6557  0.4111
 2098TIP3    H227854   1.815   2.058   2.182  0.9733 -0.5566 -0.8889
 2099TIP3   OH227855   6.164   1.492   7.514 -0.8733  0.2684  0.7844
 2099TIP3    H127856   6.169   1.398   7.496  0.3385  0.1758  1.5052
 2099TIP3    H227857   6.242   1.528   7.471 -1.7736  1.0939 -0.2311
 2100TIP3   OH227858   6.098   4.545   1.797  0.8522 -0.2276  0.1609
 2100TIP3    H127859   6.125   4.504   1.716  2.2007 -0.3417  0.6439
 2100TIP3    H227860   6.127   4.636   1.789 -2.3221  0.8402 -1.0111
 2101TIP3   OH227861   3.673   0.863   2.598 -0.0142  0.2243 -0.0603
 2101TIP3    H127862   3.654   0.936   2.656 -1.2861  0.6103 -0.9239
 2101TIP3    H227863   3.766   0.844   2.612  0.1963  1.6412  0.5734
 2102TIP3   OH227864   5.108   3.419   1.721  0.1485  0.2228  0.7808
 2102TIP3    H127865   5.057   3.449   1.797 -1.9132 -2.3025  0.5567
 2102TIP3    H227866   5.042   3.386   1.660  1.9462 -4.5485  1.0041
 2103TIP3   OH227867   2.649   1.975   1.660  0.1377 -0.1993  0.1107
 2103TIP3    H127868   2.709   1.971   1.735  0.4139  1.2138 -0.0045
 2103TIP3    H227869   2.706   1.969   1.583  0.0244 -0.0050  0.0096
 2104TIP3   OH227870   4.147   6.089   0.954  0.2704  0.2159  0.4794
 2104TIP3    H127871   4.108   6.054   1.034  3.9995 -3.1714  1.1236
 2104TIP3    H227872   4.215   6.149   0.985  0.2604  0.6243 -0.2612
 2105TIP3   OH227873   2.085   4.249   8.023  0.2674 -0.5495  0.2513
 2105TIP3    H127874   2.147   4.319   8.000 -0.0511 -0.3369  0.0296
 2105TIP3    H227875   2.024   4.291   8.084 -1.0643 -0.0864 -1.3454
 2106TIP3   OH227876   0.604   3.605   2.521 -0.0155 -0.9498 -0.3810
 2106TIP3    H127877   0.649   3.629   2.439 -0.7489 -0.2129 -0.5828
 2106TIP3    H227878   0.611   3.683   2.575 -0.6125 -1.0038 -0.2231
 2107TIP3   OH227879   4.700   3.960   2.547 -0.2374  0.2522 -0.3786
 2107TIP3    H127880   4.748   3.883   2.577  0.8595  0.6758 -0.9844
 2107TIP3    H227881   4.711   3.959   2.452 -1.6865  0.2126 -0.5766
 2108TIP3   OH227882   1.946   1.597   8.119  0.9408  0.0669  0.1646
 2108TIP3    H127883   1.944   1.620   8.026  0.0191 -0.1642  0.1145
 2108TIP3    H227884   2.031   1.556   8.132  1.3951  0.7977 -0.4021
 2109TIP3   OH227885   6.429   4.729   1.461  0.1831  0.0780  0.1670
 2109TIP3    H127886   6.515   4.728   1.418  0.3224  1.7323  0.3532
 2109TIP3    H227887   6.370   4.766   1.395 -0.4736 -1.3004 -0.0574
 2110TIP3   OH227888   4.271   6.814   2.981 -0.1428 -0.4816 -0.4659
 2110TIP3    H127889   4.309   6.834   3.067 -0.3852  0.7452 -0.6378
 2110TIP3    H227890   4.279   6.719   2.974 -1.8815 -0.8738  1.7556
 2111TIP3   OH227891   3.062   0.185   0.137 -0.0136 -0.7323  0.5668
 2111TIP3    H127892   3.051   0.103   0.185  1.5069 -1.3694 -0.1113
 2111TIP3    H227893   2.978   0.198   0.093 -0.3955 -1.7334  0.9667
 2112TIP3   OH227894   0.914   6.311   0.090  0.5412  0.5190 -0.2649
 2112TIP3    H127895   0.985   6.305   0.154 -0.9948  1.8555  1.7364
 2112TIP3    H227896   0.914   6.402   0.062 -1.2971  0.9869  1.0299
 2113TIP3   OH227897   1.744   1.922   7.821 -0.3502 -0.6263  0.5360
 2113TIP3    H127898   1.809   1.853   7.823  0.4122  0.0693  0.2145
 2113TIP3    H227899   1.728   1.938   7.728 -0.3585 -0.2250  0.6049
 2114TIP3   OH227900   2.598   4.552   0.743  1.0978 -0.2629 -0.2713
 2114TIP3    H127901   2.629   4.639   0.718  0.2715  0.2280  0.3838
 2114TIP3    H227902   2.598   4.502   0.661 -0.1997  0.8927 -1.0000
 2115TIP3   OH227903   4.969   0.111   2.634 -0.6337 -0.1601 -0.2633
 2115TIP3    H127904   4.967   0.194   2.587 -2.0627  0.7426  1.2844
 2115TIP3    H227905   4.983   0.045   2.565 -0.6600  1.2371 -1.6754
 2116TIP3   OH227906   4.255   5.268   7.220  0.0208  0.3208 -0.2941
 2116TIP3    H127907   4.224   5.203   7.157  1.1780 -3.8283  2.8935
 2116TIP3    H227908   4.296   5.336   7.167 -1.6183 -1.3201 -4.0012
 2117TIP3   OH227909   1.381   4.099   1.701  0.5384  0.4192  0.4689
 2117TIP3    H127910   1.455   4.152   1.731 -0.2211  1.8744 -0.1460
 2117TIP3    H227911   1.325   4.090   1.778  0.7409  0.3732  0.6110
 2118TIP3   OH227912   4.728   5.269   1.716  0.2111 -0.2057 -0.8399
 2118TIP3    H127913   4.632   5.272   1.720  0.1679  0.8781 -1.9981
 2118TIP3    H227914   4.749   5.296   1.626  1.5846 -1.0995 -0.8278
 2119TIP3   OH227915   4.485   1.770   7.860 -0.2865  0.4315  0.2709
 2119TIP3    H127916   4.426   1.844   7.847 -2.6297 -1.5335 -1.0929
 2119TIP3    H227917   4.539   1.768   7.780  1.5606  2.0507  1.3910
 2120TIP3   OH227918   1.101   4.519   8.254 -0.1532 -0.7287  0.3310
 2120TIP3    H127919   1.122   4.611   8.267 -0.5588 -0.4114 -1.1357
 2120TIP3    H227920   1.010   4.519   8.225  0.3020 -1.4557 -1.1872
 2121TIP3   OH227921   3.895   6.715   7.607  0.1974  0.1694  0.3748
 2121TIP3    H127922   3.895   6.737   7.700  1.7172  0.8727  0.2504
 2121TIP3    H227923   3.821   6.656   7.595 -2.2127  2.7458  1.3710
 2122TIP3   OH227924   6.618   6.147   7.738  0.2408 -0.3148  0.5911
 2122TIP3    H127925   6.583   6.145   7.650 -1.0450 -1.2838  1.1110
 2122TIP3    H227926   6.626   6.056   7.764 -1.1104 -0.0363  2.1258
 2123TIP3   OH227927   2.217   4.608   2.391  0.0580  0.2414 -0.2692
 2123TIP3    H127928   2.175   4.683   2.349 -2.2839 -0.9329 -0.2018
 2123TIP3    H227929   2.147   4.544   2.402  2.0160 -2.1353 -0.6635
 2124TIP3   OH227930   0.127   5.168   1.739  0.0405 -0.3106 -0.3364
 2124TIP3    H127931   0.064   5.122   1.684 -0.7935  0.8190 -0.3467
 2124TIP3    H227932   0.074   5.207   1.809  0.9251 -0.6553  0.5580
 2125TIP3   OH227933   5.897   2.175   8.586  0.0370  0.3108  0.7954
 2125TIP3    H127934   5.917   2.082   8.582 -0.8943  0.0813  1.1430
 2125TIP3    H227935   5.840   2.184   8.663 -1.7549  0.7891 -0.5198
 2126TIP3   OH227936   2.593   2.500   8.411  0.2833  0.7867  0.1928
 2126TIP3    H127937   2.632   2.424   8.455  2.1747  0.9316 -1.1309
 2126TIP3    H227938   2.529   2.462   8.351  0.9397  0.2539 -0.1863
 2127TIP3   OH227939   2.615   6.651   7.431  0.0568  0.2407 -0.6756
 2127TIP3    H127940   2.624   6.631   7.337  0.7738  2.8428 -1.2388
 2127TIP3    H227941   2.681   6.597   7.473  1.7512  1.1707 -2.0299
 2128TIP3   OH227942   5.621   3.900   2.744 -0.2263  0.0532 -0.4248
 2128TIP3    H127943   5.577   3.904   2.829  0.0281  0.1176 -0.2949
 2128TIP3    H227944   5.588   3.819   2.704 -0.0424 -0.1871 -0.0972
 2129TIP3   OH227945   1.405   1.919   7.748 -0.2894  0.4179 -0.1229
 2129TIP3    H127946   1.355   1.892   7.825 -0.7838 -0.9804 -0.9128
 2129TIP3    H227947   1.489   1.949   7.784  0.0057 -1.4530  0.8845
 2130TIP3   OH227948   0.142   5.655   2.129 -0.0076  0.1392  0.1251
 2130TIP3    H127949   0.051   5.628   2.139  0.2432 -0.2995  1.2759
 2130TIP3    H227950   0.137   5.739   2.082 -0.9630 -0.1578 -0.3191
 2131TIP3   OH227951   4.397   3.631   2.551 -0.7079 -0.2863  0.3127
 2131TIP3    H127952   4.321   3.608   2.605 -0.5775  1.4548  1.3118
 2131TIP3    H227953   4.443   3.698   2.602  0.8258 -0.4156 -0.8423
 2132TIP3   OH227954   4.302   1.368   7.736 -0.4413  0.3499  0.3203
 2132TIP3    H127955   4.246   1.337   7.665 -1.2341  0.3754  0.9142
 2132TIP3    H227956   4.241   1.396   7.804  0.2928  0.8480  0.7961
 2133TIP3   OH227957   4.755   1.104   1.466  0.6401  0.1625 -0.1732
 2133TIP3    H127958   4.842   1.118   1.503  0.4897 -0.4427  0.4352
 2133TIP3    H227959   4.750   1.009   1.452  0.5331  0.3285 -1.3700
 2134TIP3   OH227960   5.661   5.317   1.344 -0.2786  0.0682  0.9402
 2134TIP3    H127961   5.583   5.332   1.291 -0.4104 -0.3541  1.0083
 2134TIP3    H227962   5.649   5.228   1.379  1.6127 -1.2925 -1.4945
 2135TIP3   OH227963   2.714   3.049   7.895 -0.0278 -0.2228  0.1000
 2135TIP3    H127964   2.746   2.979   7.838 -1.1772 -0.7912  0.1416
 2135TIP3    H227965   2.770   3.124   7.873  1.1339 -1.0930 -0.0375
 2136TIP3   OH227966   2.566   2.545   1.760  0.5031 -0.5622 -0.0925
 2136TIP3    H127967   2.510   2.502   1.824  0.4331  1.1775  1.0629
 2136TIP3    H227968   2.505   2.584   1.697  0.2973  1.6648  1.3778
 2137TIP3   OH227969   5.503   3.051   1.598 -0.9359  0.3737  0.1396
 2137TIP3    H127970   5.438   3.026   1.664 -1.8011  0.4123 -0.6797
 2137TIP3    H227971   5.458   3.116   1.544  0.5268  2.1018  0.8989
 2138TIP3   OH227972   3.974   0.984   0.102 -0.0683 -0.7191 -0.1285
 2138TIP3    H127973   3.973   0.913   0.166 -1.2097 -0.8356 -0.2573
 2138TIP3    H227974   3.968   1.064   0.155  3.1339 -0.5383  0.1578
 2139TIP3   OH227975   3.728   4.108   8.583 -0.5228  0.1803 -0.2587
 2139TIP3    H127976   3.700   4.041   8.520  1.7451 -0.0077 -1.1556
 2139TIP3    H227977   3.738   4.060   8.666 -0.6828 -0.1945 -0.4523
 2140TIP3   OH227978   1.223   2.455   2.160  0.2845  0.4944 -0.0077
 2140TIP3    H127979   1.175   2.374   2.174  2.1230 -0.8564 -1.0918
 2140TIP3    H227980   1.174   2.501   2.092  0.4799 -0.8428 -1.0880
 2141TIP3   OH227981   1.656   3.940   8.230 -0.5431  0.0440  0.5029
 2141TIP3    H127982   1.678   3.926   8.138  1.5698 -0.4569  1.0177
 2141TIP3    H227983   1.726   3.895   8.278 -2.0514 -0.4221  2.3706
 2142TIP3   OH227984   0.081   1.408   7.676  0.2688 -0.2372 -0.1052
 2142TIP3    H127985   0.160   1.427   7.625  1.6850  0.8736  2.3274
 2142TIP3    H227986   0.110   1.351   7.747 -1.6339 -1.7287 -0.4229
 2143TIP3   OH227987   2.635   3.785   8.198  0.3464  0.2367 -0.4612
 2143TIP3    H127988   2.688   3.715   8.160 -1.0069 -0.0661 -1.8799
 2143TIP3    H227989   2.695   3.831   8.257  1.8776 -0.7246 -1.2133
 2144TIP3   OH227990   0.069   1.348   7.342  0.2224  0.4601  0.0142
 2144TIP3    H127991   0.096   1.438   7.358 -0.8334  1.3308 -2.6003
 2144TIP3    H227992   0.151   1.301   7.326  0.7370  1.1223  0.6529
 2145TIP3   OH227993   0.142   5.221   1.249  0.2178 -0.0723  0.3241
 2145TIP3    H127994   0.219   5.227   1.193 -0.8023 -0.2061 -1.1504
 2145TIP3    H227995   0.068   5.239   1.190 -0.8013  1.5275  1.9802
 2146TIP3   OH227996   3.057   4.755   7.921  0.2284 -0.6501  0.1680
 2146TIP3    H127997   3.086   4.786   8.007 -0.0040 -1.2515  0.4686
 2146TIP3    H227998   2.990   4.690   7.940 -0.0737 -0.5413 -0.4812
 2147TIP3   OH227999   4.936   0.588   2.940 -0.3170 -0.1711  0.0558
 2147TIP3    H128000   5.021   0.599   2.982 -0.6464  1.3603  0.3822
 2147TIP3    H228001   4.878   0.559   3.010 -0.1518 -0.8891 -0.0950
 2148TIP3   OH228002   1.443   0.091   7.848 -0.5856  0.3598  1.2159
 2148TIP3    H128003   1.489   0.174   7.857 -1.0867  0.7208  0.5395
 2148TIP3    H228004   1.353   0.109   7.877 -1.1937  0.5619 -0.6384
 2149TIP3   OH228005   0.330   3.295   2.286 -0.6593 -0.1242  0.3062
 2149TIP3    H128006   0.305   3.256   2.202  0.5886  0.6930 -0.4684
 2149TIP3    H228007   0.351   3.386   2.266  0.7992 -0.2068  1.2761
 2150TIP3   OH228008   0.671   0.472   2.816 -0.0531 -0.2278 -0.2433
 2150TIP3    H128009   0.686   0.429   2.901 -2.2334 -1.8426 -0.5739
 2150TIP3    H228010   0.638   0.558   2.839 -1.5244 -0.9811  0.6195
 2151TIP3   OH228011   2.923   6.168   0.905 -0.2615 -0.1975 -0.0700
 2151TIP3    H128012   2.834   6.135   0.893 -0.1950 -0.6274  0.5318
 2151TIP3    H228013   2.961   6.168   0.818 -1.0926  0.7267 -0.4577
 2152TIP3   OH228014   3.350   2.911   0.686 -0.0633  0.2414 -0.0963
 2152TIP3    H128015   3.445   2.906   0.694  0.1591  2.3424 -0.6869
 2152TIP3    H228016   3.319   2.927   0.775  0.2953  1.0148 -0.1002
 2153TIP3   OH228017   6.747   5.618   7.928  0.2073  0.7439 -0.5169
 2153TIP3    H128018   6.767   5.542   7.875  1.0760 -0.2903  1.1979
 2153TIP3    H228019   6.657   5.604   7.958  0.7868 -0.3278  0.8428
 2154TIP3   OH228020   4.250   5.005   7.589 -0.5532  0.1883  0.3500
 2154TIP3    H128021   4.324   4.951   7.563 -0.6560 -0.7342  1.8574
 2154TIP3    H228022   4.189   4.999   7.515 -0.2987 -1.3035  0.2161
 2155TIP3   OH228023   4.717   5.325   7.497 -0.3206  0.2013 -0.0700
 2155TIP3    H128024   4.745   5.379   7.423 -0.0700  1.3379  0.8206
 2155TIP3    H228025   4.638   5.281   7.467  0.7560 -0.7866 -1.6337
 2156TIP3   OH228026   1.282   5.654   1.342 -0.1938 -0.2805 -0.0752
 2156TIP3    H128027   1.231   5.717   1.394 -1.0742 -1.6559  0.8028
 2156TIP3    H228028   1.256   5.670   1.252 -3.1517 -1.6506  0.4039
 2157TIP3   OH228029   2.452   6.597   1.106 -0.5214  0.0055 -0.2275
 2157TIP3    H128030   2.544   6.579   1.088 -0.9916 -1.2700 -1.5360
 2157TIP3    H228031   2.436   6.682   1.065 -0.1655 -0.2204 -0.8383
 2158TIP3   OH228032   4.086   1.382   6.564 -0.1883  0.3614  0.4561
 2158TIP3    H128033   4.048   1.410   6.480  1.8419  2.5485  0.1631
 2158TIP3    H228034   4.161   1.329   6.539  1.0700  1.9061  0.7927
 2159TIP3   OH228035   0.734   5.191   8.482 -0.4415  0.8084  0.1554
 2159TIP3    H128036   0.650   5.163   8.517 -1.1802  2.0188 -0.5909
 2159TIP3    H228037   0.773   5.112   8.444 -1.2614  0.2580  0.4454
 2160TIP3   OH228038   5.511   1.076   8.192  0.6902  0.1338  1.1452
 2160TIP3    H128039   5.421   1.045   8.182  0.9359 -0.3026  0.1714
 2160TIP3    H228040   5.543   1.031   8.270  0.6961 -1.2929  0.3600
 2161TIP3   OH228041   3.495   2.861   6.932 -0.0749  0.1163 -0.4577
 2161TIP3    H128042   3.416   2.817   6.961  0.0673  0.6606  0.8170
 2161TIP3    H228043   3.556   2.790   6.911 -0.0290 -0.3238  1.0506
 2162TIP3   OH228044   0.809   0.859   1.918  0.2563 -0.3226 -0.4815
 2162TIP3    H128045   0.714   0.869   1.918  0.3521  1.0213  0.9144
 2162TIP3    H228046   0.825   0.776   1.873 -1.6286 -1.0352  0.0793
 2163TIP3   OH228047   0.092   1.786   8.676 -0.2130  0.3019  0.1965
 2163TIP3    H128048   0.053   1.796   8.589  0.9434 -0.3308 -0.4103
 2163TIP3    H228049   0.119   1.695   8.680  2.0248  0.9093  0.2214
 2164TIP3   OH228050   0.363   3.770   1.351  0.7154  0.0661 -0.0625
 2164TIP3    H128051   0.367   3.808   1.263  1.3776  0.4063  0.1048
 2164TIP3    H228052   0.290   3.709   1.347  0.8985 -0.1194 -0.9260
 2165TIP3   OH228053   1.004   2.469   2.577 -0.0955 -0.2102 -0.1448
 2165TIP3    H128054   1.060   2.526   2.526  1.5883 -1.5236  0.1457
 2165TIP3    H228055   1.021   2.381   2.543 -0.2437 -0.9066  1.4645
 2166TIP3   OH228056   6.392   1.178   0.719 -0.1296  0.4701  0.3852
 2166TIP3    H128057   6.325   1.202   0.654 -0.2481  1.0643  0.7209
 2166TIP3    H228058   6.342   1.161   0.799 -0.2386 -2.4834 -0.1851
 2167TIP3   OH228059   0.640   5.902   1.049 -1.0744 -0.2408  0.5538
 2167TIP3    H128060   0.548   5.890   1.027 -0.7682 -0.6213 -0.5792
 2167TIP3    H228061   0.675   5.813   1.057 -0.6554 -0.1025  0.3058
 2168TIP3   OH228062   5.584   2.606   8.145  0.1189  0.2430  0.6816
 2168TIP3    H128063   5.549   2.548   8.213  0.3182  0.4622  0.9762
 2168TIP3    H228064   5.679   2.604   8.159  0.1876  0.0522  0.2137
 2169TIP3   OH228065   1.854   2.079   1.373  0.3562 -0.3034 -0.0324
 2169TIP3    H128066   1.818   2.010   1.317  0.2878 -0.2865 -0.0101
 2169TIP3    H228067   1.836   2.160   1.326  0.8476 -0.3335 -0.2771
 2170TIP3   OH228068   2.030   1.636   0.482 -0.3049 -0.0445 -0.2980
 2170TIP3    H128069   2.107   1.693   0.485 -1.7232  1.9116  0.5538
 2170TIP3    H228070   2.058   1.556   0.526  0.8414  1.1576  1.2603
 2171TIP3   OH228071   3.497   0.233   2.373  0.7544  0.0017  0.0043
 2171TIP3    H128072   3.456   0.149   2.393  0.9725 -0.2880 -0.7609
 2171TIP3    H228073   3.585   0.211   2.344  0.1663  0.3204 -2.2189
 2172TIP3   OH228074   5.188   2.779   7.487  0.2370 -0.2619 -0.2211
 2172TIP3    H128075   5.237   2.697   7.487 -0.7905 -0.9002  0.6201
 2172TIP3    H228076   5.193   2.810   7.397  2.5814 -0.0375 -0.0737
 2173TIP3   OH228077   2.991   4.843   8.698 -0.1620 -0.0826 -0.4984
 2173TIP3    H128078   2.975   4.816   8.788  1.8953  1.4831  0.4332
 2173TIP3    H228079   3.027   4.931   8.705 -0.6183  0.3868 -2.9294
 2174TIP3   OH228080   4.693   3.234   7.672 -0.0795  0.6046 -0.1376
 2174TIP3    H128081   4.673   3.150   7.631 -0.7599  0.1286  1.1106
 2174TIP3    H228082   4.724   3.211   7.760 -0.0634  1.6439  0.1420
 2175TIP3   OH228083   3.655   0.449   8.290 -0.4699 -0.0345  0.1740
 2175TIP3    H128084   3.593   0.378   8.306 -0.5782 -0.7908 -2.8731
 2175TIP3    H228085   3.741   0.408   8.299 -0.5207 -1.0382 -2.7427
 2176TIP3   OH228086   3.482   1.424   2.085 -0.4345  0.3100 -0.0660
 2176TIP3    H128087   3.416   1.356   2.073  1.3781 -1.8615  1.4900
 2176TIP3    H228088   3.507   1.418   2.177  0.5979  2.3570 -0.1486
 2177TIP3   OH228089   3.258   4.789   7.348  0.2806 -0.4259  0.1629
 2177TIP3    H128090   3.304   4.706   7.333 -2.5832 -2.5522  2.1400
 2177TIP3    H228091   3.176   4.781   7.300 -0.0285  1.3206  0.3212
 2178TIP3   OH228092   2.284   5.943   8.036 -0.1279 -0.0004 -0.1151
 2178TIP3    H128093   2.336   5.985   7.967  1.3757 -1.8498 -0.2126
 2178TIP3    H228094   2.198   5.984   8.030  1.0158  2.5090 -0.6100
 2179TIP3   OH228095   5.253   0.464   0.596 -0.2419  0.6035  0.5764
 2179TIP3    H128096   5.258   0.546   0.645  0.1488  0.5242  0.6733
 2179TIP3    H228097   5.329   0.414   0.625 -0.4576  0.2200  0.4891
 2180TIP3   OH228098   6.246   3.897   0.233  0.3117 -0.4212  0.3827
 2180TIP3    H128099   6.183   3.827   0.216 -0.3397  0.1704  0.3140
 2180TIP3    H228100   6.304   3.862   0.301 -0.3085 -0.8344  0.7027
 2181TIP3   OH228101   2.159   6.578   1.099  0.3313 -0.2433  0.2999
 2181TIP3    H128102   2.255   6.582   1.101  0.3673 -0.8772 -0.0648
 2181TIP3    H228103   2.138   6.531   1.019 -0.3684  2.0820 -0.9789
 2182TIP3   OH228104   1.396   5.900   1.010  0.1582 -0.1110 -1.0134
 2182TIP3    H128105   1.305   5.892   0.982 -0.0993  2.0255 -0.9381
 2182TIP3    H228106   1.403   5.989   1.045  1.8368 -0.8331  0.6880
 2183TIP3   OH228107   2.974   1.496   2.321 -0.0890  0.0643 -0.1274
 2183TIP3    H128108   2.942   1.509   2.232 -2.1773  1.9318  0.8060
 2183TIP3    H228109   3.053   1.550   2.327  0.0364 -0.0362 -0.8121
 2184TIP3   OH228110   5.705   2.321   1.353 -0.9641 -0.1844 -0.0372
 2184TIP3    H128111   5.679   2.319   1.445 -1.1247 -1.1636 -0.0925
 2184TIP3    H228112   5.800   2.332   1.355 -1.0131  0.1985  0.2343
 2185TIP3   OH228113   2.185   0.262   8.602  0.3755  0.0448  0.2984
 2185TIP3    H128114   2.137   0.218   8.532  1.1146  0.5113 -0.5185
 2185TIP3    H228115   2.123   0.325   8.638  0.6984  1.4676 -1.5179
 2186TIP3   OH228116   5.783   1.535   8.121  0.8496 -0.1463 -1.1384
 2186TIP3    H128117   5.818   1.583   8.046  1.0555  0.7979 -0.4608
 2186TIP3    H228118   5.733   1.600   8.170 -0.7298 -1.1576 -1.3468
 2187TIP3   OH228119   5.122   1.980   0.995 -0.0580  0.3940 -0.2393
 2187TIP3    H128120   5.032   2.007   1.013  0.4450  0.9354  1.6852
 2187TIP3    H228121   5.176   2.045   1.040  1.2563 -0.8239  0.0161
 2188TIP3   OH228122   3.166   6.490   1.704  0.4143  0.1522  0.2861
 2188TIP3    H128123   3.111   6.536   1.640  0.2754 -0.2539  0.1115
 2188TIP3    H228124   3.113   6.490   1.784 -0.6987 -1.9152 -0.3776
 2189TIP3   OH228125   4.011   5.095   0.212  0.0163 -0.1445  0.1587
 2189TIP3    H128126   4.020   5.121   0.121 -0.8889 -0.8884 -0.1563
 2189TIP3    H228127   4.056   5.163   0.261  3.7152 -1.4696 -1.0113
 2190TIP3   OH228128   3.992   0.851   0.324  0.2183  0.2499 -0.0627
 2190TIP3    H128129   3.974   0.926   0.381  2.9649  1.0945 -0.1517
 2190TIP3    H228130   3.950   0.777   0.368 -0.5756  1.4397  1.2809
 2191TIP3   OH228131   0.930   3.011   1.950  0.1791 -0.8483  0.5437
 2191TIP3    H128132   0.902   2.921   1.933  0.1934 -0.5650 -1.1866
 2191TIP3    H228133   0.965   3.041   1.867  0.7571  0.5656  1.2653
 2192TIP3   OH228134   6.264   4.289   8.655  0.1187  0.1855 -0.0315
 2192TIP3    H128135   6.286   4.222   8.720 -0.7864 -1.1585 -1.0507
 2192TIP3    H228136   6.305   4.258   8.575  0.9214  1.6441 -0.2147
 2193TIP3   OH228137   2.154   5.933   0.480  0.3338  0.3172 -0.4112
 2193TIP3    H128138   2.235   5.983   0.478  0.0349  0.8122 -0.2566
 2193TIP3    H228139   2.130   5.923   0.387  0.8317 -0.2707 -0.4844
 2194TIP3   OH228140   2.880   1.052   1.683  0.3028 -0.7576  0.1543
 2194TIP3    H128141   2.863   1.145   1.692  0.9886 -0.6958  0.9601
 2194TIP3    H228142   2.923   1.027   1.765  3.8860 -0.9027 -1.5850
 2195TIP3   OH228143   1.263   1.993   8.393 -0.3021  0.1108  0.4466
 2195TIP3    H128144   1.177   1.952   8.408 -0.2028 -0.1412  0.3396
 2195TIP3    H228145   1.305   1.936   8.329 -0.3540  0.6594 -0.0880
 2196TIP3   OH228146   5.893   4.736   8.587 -0.1161  0.2375  0.1064
 2196TIP3    H128147   5.849   4.709   8.667  0.2256  1.9458  0.9344
 2196TIP3    H228148   5.986   4.727   8.606  0.0491  2.4151  0.6683
 2197TIP3   OH228149   3.674   5.734   0.934  0.2682  0.3648 -0.3304
 2197TIP3    H128150   3.579   5.724   0.933  0.2450  0.3458  0.7990
 2197TIP3    H228151   3.689   5.818   0.977  0.7735  0.2374 -0.2508
 2198TIP3   OH228152   5.481   0.174   3.124 -0.9199  0.2543 -0.5560
 2198TIP3    H128153   5.525   0.259   3.124  1.3559 -0.8521  0.3318
 2198TIP3    H228154   5.442   0.168   3.212  1.3935 -0.7397  0.4851
 2199TIP3   OH228155   1.349   4.258   3.184 -0.1250  0.0283 -0.3719
 2199TIP3    H128156   1.301   4.339   3.199  1.3842  1.0405 -0.8645
 2199TIP3    H228157   1.345   4.245   3.089 -2.0722 -1.6066 -0.1465
 2200TIP3   OH228158   6.778   3.797   7.857  0.3222 -0.2945 -0.6852
 2200TIP3    H128159   6.686   3.807   7.835 -0.4521  0.2258  2.3296
 2200TIP3    H228160   6.801   3.878   7.903  2.4901 -0.1777 -1.8075
 2201TIP3   OH228161   5.197   2.888   7.248 -0.1257 -0.1801 -0.2223
 2201TIP3    H128162   5.202   2.840   7.165 -1.1691  0.9254 -0.9619
 2201TIP3    H228163   5.283   2.928   7.257 -0.3185  0.5353 -1.3229
 2202TIP3   OH228164   1.430   2.863   0.001 -0.7301  0.1630 -0.0688
 2202TIP3    H128165   1.466   2.886   0.087  2.0796 -0.3513 -0.9994
 2202TIP3    H228166   1.449   2.769  -0.008 -0.3480  0.3536 -1.5027
 2203TIP3   OH228167   3.830   4.821   0.639  0.0479 -0.2564 -0.1937
 2203TIP3    H128168   3.790   4.825   0.726 -0.5489 -0.1051 -0.4668
 2203TIP3    H228169   3.838   4.727   0.620 -0.0220 -0.2883 -0.0627
 2204TIP3   OH228170   3.266   6.398   3.134  0.7311  0.6533 -0.5461
 2204TIP3    H128171   3.219   6.481   3.128  0.4421  0.7398  1.8333
 2204TIP3    H228172   3.357   6.422   3.152  0.3441  0.5590  1.9594
 2205TIP3   OH228173   3.577   4.705   8.233 -0.3044 -0.0692  0.0855
 2205TIP3    H128174   3.652   4.751   8.269 -0.6416 -0.2634  1.0507
 2205TIP3    H228175   3.536   4.768   8.174  0.7238 -0.0341 -0.6155
 2206TIP3   OH228176   0.063   0.624   8.177  0.2765  0.5511  0.5888
 2206TIP3    H128177   0.147   0.603   8.219 -0.2910 -0.9794  1.0301
 2206TIP3    H228178   0.010   0.545   8.189 -1.9019  2.1236  1.9718
 2207TIP3   OH228179   3.005   0.275   2.507 -0.0524 -0.1882  0.1788
 2207TIP3    H128180   2.965   0.315   2.584  1.7116 -0.1225  1.1007
 2207TIP3    H228181   3.043   0.349   2.458  1.0175 -0.4672  0.5713
 2208TIP3   OH228182   6.597   0.506   1.034  0.0275  0.7920 -0.6876
 2208TIP3    H128183   6.559   0.421   1.013  0.1103  0.5885 -0.0367
 2208TIP3    H228184   6.691   0.495   1.019  0.6724 -0.5312  3.2443
 2209TIP3   OH228185   6.495   3.829   7.958  0.1227 -0.0929  0.4839
 2209TIP3    H128186   6.505   3.776   7.879  0.6274  0.0252  0.4632
 2209TIP3    H228187   6.401   3.846   7.964 -0.1261 -1.4391  0.7946
 2210TIP3   OH228188   1.101   1.286   7.975 -0.3206  0.0556  0.5071
 2210TIP3    H128189   1.101   1.379   7.994 -1.1520  0.1126  0.2684
 2210TIP3    H228190   1.189   1.257   7.997 -0.2172  0.7881  1.0987
 2211TIP3   OH228191   3.942   5.336   1.754 -0.3739  0.4703 -0.6295
 2211TIP3    H128192   3.872   5.315   1.815  0.2933 -0.7791 -0.2645
 2211TIP3    H228193   4.019   5.349   1.810  0.2771 -0.8233 -1.1821
 2212TIP3   OH228194   1.259   5.328   1.442 -0.1433 -0.7318 -0.1106
 2212TIP3    H128195   1.195   5.273   1.486 -1.9093 -1.3642 -3.1648
 2212TIP3    H228196   1.207   5.397   1.400  1.1269 -1.0228 -2.3567
 2213TIP3   OH228197   4.606   4.639   2.013 -0.1109  0.3861  0.0730
 2213TIP3    H128198   4.514   4.665   2.002 -0.4810 -0.3929  1.1140
 2213TIP3    H228199   4.656   4.716   1.987 -1.0231  0.5670 -1.2833
 2214TIP3   OH228200   3.613   3.408   1.662 -0.2204  0.2014  0.0482
 2214TIP3    H128201   3.521   3.384   1.660  0.0996 -1.0846 -0.4174
 2214TIP3    H228202   3.619   3.483   1.604 -1.0844  0.7672  0.6628
 2215TIP3   OH228203   4.910   0.053   1.426 -0.4607 -0.2283 -0.0763
 2215TIP3    H128204   4.823   0.043   1.465  0.9674 -1.7774  3.0097
 2215TIP3    H228205   4.935   0.143   1.446 -1.2211  0.1811 -0.8540
 2216TIP3   OH228206   3.742   0.172   1.478  0.2501 -0.5515 -0.2298
 2216TIP3    H128207   3.658   0.152   1.519  0.1643  1.5706  0.7618
 2216TIP3    H228208   3.736   0.133   1.391 -1.2697 -1.4761  0.2551
 2217TIP3   OH228209   1.357   4.603   2.095 -0.4400 -0.1372 -0.1971
 2217TIP3    H128210   1.412   4.680   2.105 -1.8637  1.1581 -1.7191
 2217TIP3    H228211   1.276   4.636   2.055 -0.3664 -2.6658 -2.7586
 2218TIP3   OH228212   0.504   6.150   7.684  0.5192 -0.1997  0.0648
 2218TIP3    H128213   0.582   6.152   7.740  1.2911  0.5561 -0.9788
 2218TIP3    H228214   0.478   6.058   7.681  0.5505 -0.2711  1.5190
 2219TIP3   OH228215   0.515   1.267   8.533 -0.2300  0.1560 -0.3499
 2219TIP3    H128216   0.589   1.212   8.507 -0.5107 -0.2425 -0.3026
 2219TIP3    H228217   0.545   1.356   8.515  1.2323  0.2245  2.0101
 2220TIP3   OH228218   1.062   5.429   1.203  0.0814 -0.4149  0.3383
 2220TIP3    H128219   1.056   5.378   1.122 -0.1728 -0.4330  0.3664
 2220TIP3    H228220   1.114   5.506   1.179  4.3490 -2.6934  1.3215
 2221TIP3   OH228221   6.178   0.406   7.935 -0.3519 -0.3756 -0.1897
 2221TIP3    H128222   6.192   0.420   7.842 -0.2459 -2.3935 -0.5316
 2221TIP3    H228223   6.091   0.443   7.952 -0.8813 -1.0284 -1.3626
 2222TIP3   OH228224   2.041   5.201   1.862  0.5240  0.0578 -0.4457
 2222TIP3    H128225   1.983   5.138   1.906  2.6277 -0.4229  1.8948
 2222TIP3    H228226   2.110   5.147   1.824  0.5149  0.7477 -1.4702
 2223TIP3   OH228227   5.019   4.128   0.113 -0.0311 -0.2310 -0.1047
 2223TIP3    H128228   5.080   4.161   0.180 -0.4601  1.7426 -0.6210
 2223TIP3    H228229   5.075   4.110   0.037  0.3587 -1.7894  0.5299
 2224TIP3   OH228230   0.410   3.002   7.764 -0.4280  0.1411 -0.2285
 2224TIP3    H128231   0.356   3.039   7.833  0.7096 -1.5058  1.6309
 2224TIP3    H228232   0.424   3.075   7.703 -1.9467  1.4761  0.9418
 2225TIP3   OH228233   5.691   6.369   7.961 -0.2471 -1.0766 -0.4765
 2225TIP3    H128234   5.685   6.291   7.906 -0.2563 -1.6614  0.3360
 2225TIP3    H228235   5.770   6.414   7.931 -0.3160 -1.3249 -1.0363
 2226TIP3   OH228236   6.217   6.132   1.170  0.4213  0.3544  0.3984
 2226TIP3    H128237   6.152   6.117   1.239  0.8381  2.4867  1.3139
 2226TIP3    H228238   6.181   6.085   1.094 -1.0228 -0.4317  1.4914
 2227TIP3   OH228239   4.930   4.797   1.109 -0.1456 -0.2675  0.4338
 2227TIP3    H128240   4.907   4.741   1.183 -2.2537  0.3483  0.3024
 2227TIP3    H228241   4.850   4.803   1.058  0.9368  0.2911 -1.2865
 2228TIP3   OH228242   4.314   6.155   2.048  0.6199  0.3466  0.4637
 2228TIP3    H128243   4.293   6.128   2.137  0.2674  2.2146  0.9896
 2228TIP3    H228244   4.229   6.161   2.004  0.7677 -0.2485  0.0794
 2229TIP3   OH228245   4.862   0.787   7.181  0.0244  0.3860 -0.4868
 2229TIP3    H128246   4.899   0.800   7.268 -0.5875  0.2442 -0.2008
 2229TIP3    H228247   4.931   0.815   7.121  1.1475 -1.2257 -0.0097
 2230TIP3   OH228248   4.931   4.273   8.179 -0.0825 -0.1274 -0.4897
 2230TIP3    H128249   4.934   4.180   8.154  1.9427 -0.4488  0.7373
 2230TIP3    H228250   4.978   4.318   8.109  1.8351 -0.5018  0.4743
 2231TIP3   OH228251   4.323   3.024   1.576 -0.2580 -0.3656 -0.0451
 2231TIP3    H128252   4.258   3.064   1.634 -0.1807  1.6838 -1.2882
 2231TIP3    H228253   4.405   3.070   1.595  0.1546 -0.8369 -0.6150
 2232TIP3   OH228254   5.479   2.238   7.671  0.4802  0.8436 -0.1940
 2232TIP3    H128255   5.446   2.223   7.583 -0.2852 -1.7619  0.4354
 2232TIP3    H228256   5.416   2.299   7.710 -0.6095  0.0767 -0.6940
 2233TIP3   OH228257   6.385   0.305   2.398 -0.1733  0.1875  0.1347
 2233TIP3    H128258   6.352   0.375   2.455 -0.7190  0.5896 -0.6627
 2233TIP3    H228259   6.443   0.349   2.336 -0.6415 -0.0391 -0.4723
 2234TIP3   OH228260   5.387   0.013   7.682 -0.0529 -0.3090 -0.1526
 2234TIP3    H128261   5.326  -0.040   7.734  0.0755  1.4557  1.9650
 2234TIP3    H228262   5.350   0.101   7.684  2.9775  1.1342  2.2604
 2235TIP3   OH228263   5.323   1.684   8.219  0.0617  0.5138 -0.2723
 2235TIP3    H128264   5.274   1.702   8.138  0.3156 -1.5359 -0.9370
 2235TIP3    H228265   5.317   1.765   8.269 -4.6026  0.2835 -0.0053
 2236TIP3   OH228266   6.096   1.475   1.646  0.2426  0.3289  0.4100
 2236TIP3    H128267   6.088   1.398   1.702 -1.1110  0.5306  0.5179
 2236TIP3    H228268   6.189   1.478   1.623  0.1921 -1.8701 -0.3529
 2237TIP3   OH228269   3.168   4.257   1.435 -0.0033  0.2478 -0.1732
 2237TIP3    H128270   3.076   4.232   1.428  0.1636 -0.3165 -0.3980
 2237TIP3    H228271   3.203   4.203   1.506  0.0530  0.7700  0.2007
 2238TIP3   OH228272   1.265   1.399   7.711 -0.0629  0.0706 -0.4029
 2238TIP3    H128273   1.290   1.352   7.632 -1.8320 -0.5464 -0.6276
 2238TIP3    H228274   1.315   1.358   7.781  0.5706 -0.2084 -1.0167
 2239TIP3   OH228275   6.315   3.649   1.568 -0.4127 -0.2464  0.1598
 2239TIP3    H128276   6.258   3.578   1.536  0.4620 -0.8190 -0.1720
 2239TIP3    H228277   6.289   3.726   1.518  0.2223 -0.8883 -1.2232
 2240TIP3   OH228278   5.561   1.266   2.512  0.4079  0.2082 -0.3687
 2240TIP3    H128279   5.509   1.334   2.555 -0.3880  0.5438 -1.8078
 2240TIP3    H228280   5.643   1.310   2.488  1.0387 -0.0866  1.0855
 2241TIP3   OH228281   4.198   0.100   7.015  0.3369  0.1859 -0.3880
 2241TIP3    H128282   4.115   0.140   6.987 -0.5584  0.0263  1.7800
 2241TIP3    H228283   4.187   0.007   6.995  0.4571  0.3214 -1.1082
 2242TIP3   OH228284   0.522   4.144   7.784 -0.1072  0.6649  0.1053
 2242TIP3    H128285   0.474   4.140   7.702  0.4037 -1.8790 -0.1350
 2242TIP3    H228286   0.516   4.056   7.821  2.4247  0.8290  1.1663
 2243TIP3   OH228287   6.779   2.663   1.437 -0.4864 -0.1804 -0.0434
 2243TIP3    H128288   6.850   2.713   1.397  0.9449 -2.0345  0.0793
 2243TIP3    H228289   6.822   2.588   1.477 -2.6106 -1.8072 -0.6559
 2244TIP3   OH228290   4.032   6.061   1.676  0.0182  0.2327  0.1442
 2244TIP3    H128291   4.018   5.967   1.683  2.2048 -0.5430 -3.3482
 2244TIP3    H228292   3.977   6.088   1.602  0.3865  1.4460  0.2942
 2245TIP3   OH228293   5.883   2.162   7.129  0.2729 -0.1903 -0.1354
 2245TIP3    H128294   5.937   2.155   7.051  2.6508 -1.7268  1.4744
 2245TIP3    H228295   5.887   2.254   7.154  1.5523 -0.1297 -0.5073
 2246TIP3   OH228296   3.046   1.537   2.673 -0.1098 -0.4468  0.0640
 2246TIP3    H128297   3.102   1.459   2.677  0.8423  0.1837 -0.5191
 2246TIP3    H228298   3.083   1.589   2.603 -1.5866 -0.0936 -0.4868
 2247TIP3   OH228299   4.640   5.813   2.130 -0.3647 -0.0035 -0.1010
 2247TIP3    H128300   4.632   5.724   2.096 -2.0974  0.2443 -0.4280
 2247TIP3    H228301   4.734   5.824   2.147  0.1960 -1.1367 -2.0893
 2248TIP3   OH228302   3.638   0.078   7.669 -0.2730 -0.0207 -0.0947
 2248TIP3    H128303   3.642   0.010   7.602 -1.8259 -0.2787  0.0364
 2248TIP3    H228304   3.729   0.104   7.682  0.3923 -2.1545 -0.0522
 2249TIP3   OH228305   1.274   1.086   8.188  0.3874 -0.3227  0.0287
 2249TIP3    H128306   1.238   1.049   8.107 -0.6301  0.1329  0.2576
 2249TIP3    H228307   1.234   1.033   8.258  0.2975  0.0804  0.2825
 2250TIP3   OH228308   0.764   5.767   7.763 -0.0876  0.3563 -0.0682
 2250TIP3    H128309   0.731   5.742   7.849  0.2151  2.5244  0.7585
 2250TIP3    H228310   0.697   5.828   7.730  0.2408  0.2310 -0.9661
 2251TIP3   OH228311   1.210   0.180   1.437 -0.0398 -0.1616 -0.5400
 2251TIP3    H128312   1.240   0.091   1.417 -0.1412  0.0422 -1.6355
 2251TIP3    H228313   1.206   0.183   1.533  0.9196 -1.0167 -0.4648
 2252TIP3   OH228314   5.776   3.718   8.169 -0.0868 -0.3221 -0.2417
 2252TIP3    H128315   5.860   3.759   8.189 -0.2532 -0.5586  1.0399
 2252TIP3    H228316   5.798   3.641   8.116  0.3895  0.2781 -0.9418
 2253TIP3   OH228317   4.827   5.464   8.574 -0.3834 -0.1945 -0.4918
 2253TIP3    H128318   4.826   5.447   8.668  0.3101  1.8919 -0.0389
 2253TIP3    H228319   4.891   5.402   8.539  1.3039  0.6907  0.8490
 2254TIP3   OH228320   4.516   5.371   0.660  0.4001 -0.0066 -0.2966
 2254TIP3    H128321   4.576   5.403   0.727  1.2767 -1.0779 -0.5523
 2254TIP3    H228322   4.431   5.406   0.686  0.7449 -0.2898  1.3075
 2255TIP3   OH228323   5.047   0.700   2.459 -0.0530  0.7922 -0.2746
 2255TIP3    H128324   5.002   0.647   2.524  1.4899 -2.5744 -1.6989
 2255TIP3    H228325   5.103   0.759   2.510 -0.5701 -0.1375  1.4328
 2256TIP3   OH228326   3.783   3.530   2.053  0.1741  0.0344 -0.6447
 2256TIP3    H128327   3.777   3.466   2.125  2.7718  2.7689  2.3257
 2256TIP3    H228328   3.720   3.598   2.076  0.5405  0.6287 -1.3611
 2257TIP3   OH228329   2.750   2.867   7.670  0.2012 -0.8121  0.7019
 2257TIP3    H128330   2.774   2.947   7.623 -2.0410 -0.1872  0.5065
 2257TIP3    H228331   2.829   2.812   7.666  1.7680  1.2950  0.7190
 2258TIP3   OH228332   3.685   3.547   0.901  0.2203  0.3897 -0.2461
 2258TIP3    H128333   3.700   3.617   0.964  0.4782 -0.2114  0.3643
 2258TIP3    H228334   3.757   3.554   0.838  0.5965  0.2797  0.1717
 2259TIP3   OH228335   0.824   0.576   8.471  0.1223  0.3316 -0.0269
 2259TIP3    H128336   0.740   0.533   8.458 -0.1445  0.6440  0.6074
 2259TIP3    H228337   0.826   0.645   8.405 -0.7833  1.2685  0.8700
 2260TIP3   OH228338   5.808   4.388   1.765  0.0262 -0.3003 -0.3050
 2260TIP3    H128339   5.873   4.348   1.708  0.7130 -0.1526  0.3608
 2260TIP3    H228340   5.844   4.475   1.784 -0.8529  0.1697 -0.7433
 2261TIP3   OH228341   1.735   0.141   1.503 -0.3011 -0.1151  0.1479
 2261TIP3    H128342   1.641   0.125   1.504 -0.6029  1.4414  0.7438
 2261TIP3    H228343   1.760   0.139   1.411 -1.3348  1.4913 -0.1973
 2262TIP3   OH228344   6.472   3.093   0.950 -0.0992  0.2174 -0.1022
 2262TIP3    H128345   6.567   3.101   0.957  0.0189 -1.6772  1.0189
 2262TIP3    H228346   6.439   3.158   1.013  0.6021 -1.5634  2.2786
 2263TIP3   OH228347   5.167   6.444   7.115 -0.1613  0.0901  0.0422
 2263TIP3    H128348   5.262   6.451   7.121 -0.0354 -0.9555 -0.4962
 2263TIP3    H228349   5.134   6.518   7.165  0.9387  0.5531  0.1040
 2264TIP3   OH228350   6.023   6.151   2.321  0.5797 -0.0690  0.1586
 2264TIP3    H128351   5.969   6.205   2.379  0.8590  1.4520 -0.9570
 2264TIP3    H228352   5.966   6.077   2.297 -0.1209  0.1810  0.9783
 2265TIP3   OH228353   1.122   2.420   7.452  0.1579  0.0838  0.3489
 2265TIP3    H128354   1.108   2.515   7.442  1.2291  0.2323  0.2063
 2265TIP3    H228355   1.034   2.383   7.447 -0.1154  0.8463 -2.2345
 2266TIP3   OH228356   0.714   2.732   8.568 -0.0391 -0.5360 -0.2774
 2266TIP3    H128357   0.679   2.754   8.482  1.5315 -0.7778 -1.0049
 2266TIP3    H228358   0.650   2.672   8.606  0.0578 -1.7816 -1.9811
 2267TIP3   OH228359   2.037   3.615   0.797  0.5372  0.2256 -0.2181
 2267TIP3    H128360   1.990   3.536   0.824 -0.9973  1.1656 -0.0290
 2267TIP3    H228361   2.095   3.635   0.871  0.0783 -0.0790  0.2310
 2268TIP3   OH228362   5.318   0.089   2.574 -0.4391 -0.1485  0.1929
 2268TIP3    H128363   5.265   0.100   2.496 -0.8755 -1.6868  0.2402
 2268TIP3    H228364   5.354   0.001   2.567  0.4437  0.1048  1.1759
 2269TIP3   OH228365   3.925   2.422   8.168 -0.1556  1.1896 -0.2474
 2269TIP3    H128366   3.889   2.385   8.248  0.5948  0.2792 -0.3212
 2269TIP3    H228367   3.860   2.487   8.141  0.0344  2.2398  1.6249
 2270TIP3   OH228368   6.701   5.197   0.438  0.3471  0.1627 -0.0250
 2270TIP3    H128369   6.613   5.179   0.471  0.9236  0.1656  1.6215
 2270TIP3    H228370   6.741   5.252   0.506  1.5614  0.3038 -0.8250
 2271TIP3   OH228371   0.458   5.705   2.903 -0.0339  0.2533  0.4809
 2271TIP3    H128372   0.480   5.688   2.995  0.2540 -1.7142  0.0768
 2271TIP3    H228373   0.429   5.796   2.903 -1.7335 -0.1903  2.8334
 2272TIP3   OH228374   1.523   5.617   7.604 -0.2533 -0.1752 -0.0758
 2272TIP3    H128375   1.617   5.609   7.621  0.2614  1.7823 -1.6448
 2272TIP3    H228376   1.508   5.564   7.526 -0.9458 -2.2689  1.3991
 2273TIP3   OH228377   6.480   6.608   8.404 -0.0705 -0.1821 -0.1191
 2273TIP3    H128378   6.408   6.628   8.344 -1.2416 -2.0729  0.5733
 2273TIP3    H228379   6.453   6.644   8.488  0.5573  0.5068 -0.1956
 2274TIP3   OH228380   5.472   3.265   2.586  0.2216 -0.0004 -0.2977
 2274TIP3    H128381   5.416   3.263   2.663  0.3934  1.2325 -0.1171
 2274TIP3    H228382   5.547   3.318   2.613  0.6757 -0.2446 -1.0577
 2275TIP3   OH228383   6.816   6.300   8.381  0.5383  0.1394 -0.1826
 2275TIP3    H128384   6.759   6.333   8.450  1.7538  2.4451 -0.2044
 2275TIP3    H228385   6.758   6.286   8.306 -0.3064  0.5132  0.3900
 2276TIP3   OH228386   5.652   1.990   7.410  0.1330  0.6399  0.3559
 2276TIP3    H128387   5.719   1.959   7.470 -1.6717 -0.3359  1.9892
 2276TIP3    H228388   5.606   2.059   7.458 -0.4033  0.8963 -0.4882
 2277TIP3   OH228389   2.834   4.848   0.970 -0.3001 -0.2054 -0.6382
 2277TIP3    H128390   2.780   4.860   1.048 -0.7831 -1.5339 -0.7342
 2277TIP3    H228391   2.771   4.834   0.900  0.1301  1.1019 -1.3054
 2278TIP3   OH228392   0.462   0.491   7.735 -0.4527 -0.0782  0.8326
 2278TIP3    H128393   0.409   0.412   7.733 -1.6653  0.6576  1.9030
 2278TIP3    H228394   0.477   0.508   7.828  0.4705  0.5198  0.5963
 2279TIP3   OH228395   3.643   6.021   7.884  0.0593  0.1172 -0.4719
 2279TIP3    H128396   3.730   5.985   7.872  1.0281  2.6883 -2.0876
 2279TIP3    H228397   3.583   5.949   7.864  1.8240 -0.8042 -2.8699
 2280TIP3   OH228398   5.874   1.238   1.136 -0.1314  0.1872  0.3986
 2280TIP3    H128399   5.869   1.261   1.043  0.6103 -0.2381  0.2396
 2280TIP3    H228400   5.796   1.277   1.175 -1.2902 -0.9292 -0.6907
 2281TIP3   OH228401   5.789   6.102   8.248  0.1435 -0.0517 -0.0552
 2281TIP3    H128402   5.741   6.032   8.293 -0.9872  0.8314  0.1660
 2281TIP3    H228403   5.731   6.178   8.255  1.6031  1.0736  0.2532
 2282TIP3   OH228404   5.303   5.649   0.309 -0.2278 -0.2505  0.4564
 2282TIP3    H128405   5.227   5.591   0.321  0.4061 -1.1926  0.0843
 2282TIP3    H228406   5.265   5.736   0.301 -1.2196 -0.6049  1.0619
 2283TIP3   OH228407   0.726   2.171   0.355 -0.6018 -0.5003  0.3767
 2283TIP3    H128408   0.631   2.179   0.366 -0.3970  2.9628  0.5532
 2283TIP3    H228409   0.763   2.218   0.430  1.2479 -0.8211 -0.2809
 2284TIP3   OH228410   3.552   0.677   1.618 -0.6304 -0.7654 -0.0011
 2284TIP3    H128411   3.643   0.645   1.618 -0.0797  0.6967 -0.2420
 2284TIP3    H228412   3.531   0.687   1.525 -0.4312  0.4420  0.0622
 2285TIP3   OH228413   0.161   1.909   1.421 -0.4344  0.2487 -0.0640
 2285TIP3    H128414   0.208   1.966   1.360 -0.0052 -0.5470 -0.4945
 2285TIP3    H228415   0.179   1.948   1.507  2.4751 -0.9440 -0.0187
 2286TIP3   OH228416   5.917   2.937   8.499 -0.1644 -0.7923 -0.2460
 2286TIP3    H128417   5.923   2.948   8.594 -2.0583  0.2877 -0.1989
 2286TIP3    H228418   5.828   2.905   8.484 -0.1425 -0.2304 -1.7104
 2287TIP3   OH228419   1.323   0.808   8.650 -0.5070  0.0280 -0.9490
 2287TIP3    H128420   1.304   0.896   8.681 -0.0213 -0.1961  0.0411
 2287TIP3    H228421   1.401   0.817   8.596 -1.0428  0.3436 -1.6888
 2288TIP3   OH228422   1.591   3.596   8.516 -0.2208  0.2117 -0.0848
 2288TIP3    H128423   1.636   3.513   8.500 -2.0051 -1.1506  1.5241
 2288TIP3    H228424   1.602   3.612   8.610  0.3396  2.0104 -0.4097
 2289TIP3   OH228425   1.029   0.757   6.995  0.4858 -0.1991 -0.4361
 2289TIP3    H128426   1.119   0.736   6.969  0.8832 -0.6623  1.2245
 2289TIP3    H228427   1.015   0.708   7.076 -1.6387 -0.9574 -1.2035
 2290TIP3   OH228428   3.474   1.962   2.901  0.0411 -1.1253 -0.2107
 2290TIP3    H128429   3.447   1.999   2.817  0.6637  1.1238  0.5187
 2290TIP3    H228430   3.566   1.984   2.909 -0.7863  2.2343  2.6627
 2291TIP3   OH228431   0.908   5.149   2.897  0.0021  0.3641  0.2605
 2291TIP3    H128432   0.981   5.103   2.938 -1.0164 -0.5893  1.0430
 2291TIP3    H228433   0.863   5.082   2.844 -0.7507  0.7509  0.3944
 2292TIP3   OH228434   3.605   6.478   8.534  0.3235 -0.3392  0.0217
 2292TIP3    H128435   3.542   6.408   8.518  0.1884 -0.0016 -1.0780
 2292TIP3    H228436   3.550   6.557   8.541  0.5645 -0.1600 -0.1094
 2293TIP3   OH228437   5.066   1.424   7.822 -0.2916  0.0765  0.2663
 2293TIP3    H128438   5.018   1.400   7.743  0.0320 -0.3812  0.2033
 2293TIP3    H228439   5.152   1.383   7.811 -0.4222 -0.4592  1.0994
 2294TIP3   OH228440   1.328   2.234   1.485  0.9025  0.5843 -0.3957
 2294TIP3    H128441   1.352   2.304   1.546  1.4958  1.1793 -1.2920
 2294TIP3    H228442   1.310   2.279   1.403  0.2994 -0.2294 -0.7204
 2295TIP3   OH228443   3.313   5.247   2.595  0.4135  0.7029  0.1481
 2295TIP3    H128444   3.262   5.323   2.623  1.0062  0.9589  0.5581
 2295TIP3    H228445   3.391   5.249   2.650  0.5538 -0.0641 -0.0058
 2296TIP3   OH228446   1.877   5.235   2.625 -0.3852  0.3084  0.4517
 2296TIP3    H128447   1.815   5.178   2.580  0.3285  0.3930 -0.6714
 2296TIP3    H228448   1.894   5.306   2.563  1.9233 -0.4597  0.1089
 2297TIP3   OH228449   1.989   1.805   2.158  0.1266 -0.2976  0.0327
 2297TIP3    H128450   2.075   1.828   2.122 -0.2225  0.8467 -0.0915
 2297TIP3    H228451   2.009   1.742   2.227  1.2453  1.2792  1.2162
 2298TIP3   OH228452   3.549   5.529   0.638  0.2417  0.2752  0.0893
 2298TIP3    H128453   3.514   5.618   0.629  0.1752  0.2853  0.4135
 2298TIP3    H228454   3.643   5.539   0.627  0.3608  0.5600  1.2141
 2299TIP3   OH228455   2.421   5.097   2.783  0.0006  0.1205 -0.2114
 2299TIP3    H128456   2.370   5.016   2.791  1.1971 -0.7122 -0.5887
 2299TIP3    H228457   2.512   5.067   2.783  0.4524  1.4086 -1.0719
 2300TIP3   OH228458   4.528   6.624   0.687 -0.1877 -0.5440 -0.3665
 2300TIP3    H128459   4.575   6.699   0.722 -0.9638 -0.2858  0.1669
 2300TIP3    H228460   4.546   6.626   0.593  0.0362  0.1436 -0.3183
 2301TIP3   OH228461   1.211   2.620   8.606  0.5125 -0.3290  0.0364
 2301TIP3    H128462   1.156   2.560   8.556  0.7997  1.6758 -2.9189
 2301TIP3    H228463   1.163   2.703   8.605  1.4388  0.2523  1.5177
 2302TIP3   OH228464   3.628   2.874   7.361 -0.4027  0.3696  0.7429
 2302TIP3    H128465   3.652   2.847   7.272 -0.4129  0.0862  0.8231
 2302TIP3    H228466   3.683   2.820   7.418  0.4340  1.3650  0.8966
 2303TIP3   OH228467   1.108   4.750   7.541  0.5786  0.5879  0.5990
 2303TIP3    H128468   1.134   4.755   7.632 -1.2978 -1.1720  1.3217
 2303TIP3    H228469   1.015   4.773   7.541  1.1760  3.4257 -1.3433
 2304TIP3   OH228470   3.722   1.184   8.012 -0.2783  0.3885  0.4262
 2304TIP3    H128471   3.712   1.114   7.948 -0.6116  1.2614 -0.5126
 2304TIP3    H228472   3.653   1.169   8.075  0.0367 -0.4719  0.5824
 2305TIP3   OH228473   0.669   5.706   1.524 -1.0824  0.4679  0.0701
 2305TIP3    H128474   0.722   5.649   1.469  0.1642  1.0977  0.5722
 2305TIP3    H228475   0.628   5.767   1.463 -0.0102  0.9226 -0.2208
 2306TIP3   OH228476   2.001   6.500   8.031 -0.0699  0.4661 -0.2926
 2306TIP3    H128477   1.964   6.500   8.119  0.8059  0.5823  0.0889
 2306TIP3    H228478   2.068   6.432   8.033 -0.2938  0.2184 -0.9826
 2307TIP3   OH228479   3.108   0.227   1.276 -0.4447  0.6524 -0.5775
 2307TIP3    H128480   3.198   0.259   1.286 -0.7049  1.2082  0.0275
 2307TIP3    H228481   3.054   0.305   1.278 -1.0339  0.2425  0.2162
 2308TIP3   OH228482   5.203   4.765   8.381  0.3320  0.3505 -0.0607
 2308TIP3    H128483   5.172   4.769   8.290 -0.6652 -0.8148  0.1930
 2308TIP3    H228484   5.286   4.718   8.375  0.7909  1.1912 -0.4724
 2309TIP3   OH228485   4.769   2.282   2.944 -0.5242 -1.0213 -0.5288
 2309TIP3    H128486   4.757   2.375   2.926  0.4126 -1.0571 -1.3962
 2309TIP3    H228487   4.680   2.249   2.958 -1.0531 -0.3654 -2.1097
 2310TIP3   OH228488   6.194   5.043   8.712  0.2605 -0.6599 -0.0636
 2310TIP3    H128489   6.234   5.041   8.626  1.6355 -1.4336  0.5711
 2310TIP3    H228490   6.109   5.084   8.698  0.1304 -1.4821 -1.9144
 2311TIP3   OH228491   2.108   3.774   7.600  0.7268 -0.1519  0.3550
 2311TIP3    H128492   2.079   3.735   7.517 -0.3809  3.3552 -1.1193
 2311TIP3    H228493   2.203   3.778   7.592  0.6449  0.0107 -0.7352
 2312TIP3   OH228494   1.221   4.380   1.319  0.0812 -0.3140  0.1456
 2312TIP3    H128495   1.137   4.360   1.278  1.3278 -3.2103 -1.2789
 2312TIP3    H228496   1.286   4.335   1.265  2.5855  1.7314  1.2408
 2313TIP3   OH228497   0.000   5.953   0.739  0.0638  0.2185  0.0282
 2313TIP3    H128498   0.068   6.000   0.691 -0.2744 -0.7019 -1.4243
 2313TIP3    H228499  -0.062   6.021   0.766  0.4290  0.8093 -0.5839
 2314TIP3   OH228500   0.255   5.522   8.356 -0.0482 -0.7286 -0.6585
 2314TIP3    H128501   0.164   5.545   8.379 -0.4668 -2.6888 -0.1677
 2314TIP3    H228502   0.298   5.510   8.440  0.7534  0.4133 -0.8909
 2315TIP3   OH228503   6.139   2.547   2.402 -0.0852 -0.1405 -0.1450
 2315TIP3    H128504   6.122   2.612   2.470 -2.0847  0.1445 -0.8547
 2315TIP3    H228505   6.224   2.572   2.366  0.7812 -0.0073  1.8734
 2316TIP3   OH228506   6.421   6.456   8.732  0.2237 -0.1915  0.2599
 2316TIP3    H128507   6.340   6.485   8.690 -0.2310  0.3007  1.4398
 2316TIP3    H228508   6.393   6.417   8.815  1.3076  1.9559  1.7282
 2317TIP3   OH228509   1.112   4.099   1.864 -0.0019  0.4651 -0.2204
 2317TIP3    H128510   1.035   4.112   1.920 -0.1810  0.4988 -0.4747
 2317TIP3    H228511   1.186   4.098   1.926 -0.3053 -0.8174  0.1565
 2318TIP3   OH228512   4.579   0.785   0.104  0.0846  0.2970  0.0697
 2318TIP3    H128513   4.674   0.786   0.095  0.0896 -0.9268 -0.1388
 2318TIP3    H228514   4.547   0.784   0.014 -0.1125  0.1447  0.1420
 2319TIP3   OH228515   0.138   0.967   1.033  0.8311  0.2100  0.0470
 2319TIP3    H128516   0.094   0.973   1.117  1.3549 -1.6191  0.5074
 2319TIP3    H228517   0.137   1.056   0.998 -0.3799  0.7877  1.4675
 2320TIP3   OH228518   3.089   2.320   7.072  0.1296 -0.1326  0.1866
 2320TIP3    H128519   3.088   2.265   6.994 -0.3943  2.3442 -1.7067
 2320TIP3    H228520   3.071   2.408   7.039  1.8847  1.3778  2.8627
 2321TIP3   OH228521   4.217   2.358   1.334 -0.1771  0.6215  0.5707
 2321TIP3    H128522   4.181   2.431   1.283  0.1163 -0.5683 -1.4206
 2321TIP3    H228523   4.250   2.400   1.414 -0.0937  2.6706 -0.4568
 2322TIP3   OH228524   0.420   6.621   8.412 -0.0027  0.1227 -0.4203
 2322TIP3    H128525   0.353   6.678   8.373 -0.4622  0.8100  1.2791
 2322TIP3    H228526   0.370   6.559   8.465  0.5428 -1.5014 -1.7499
 2323TIP3   OH228527   1.761   3.554   6.986  0.0332  0.1733  0.2688
 2323TIP3    H128528   1.854   3.537   7.001  0.9580  1.9525 -2.6082
 2323TIP3    H228529   1.758   3.645   6.955 -2.8643  0.6412  1.5689
 2324TIP3   OH228530   3.130   1.869   7.442 -0.0217  0.0062  0.0604
 2324TIP3    H128531   3.067   1.865   7.514 -0.4283  0.0792 -0.2914
 2324TIP3    H228532   3.089   1.925   7.377  1.1254  1.4691  0.5256
 2325TIP3   OH228533   6.352   5.069   1.522 -0.7395  0.3092  0.5623
 2325TIP3    H128534   6.375   5.020   1.443 -0.5409 -1.9789  1.9253
 2325TIP3    H228535   6.289   5.134   1.493 -0.4407 -0.2510 -1.5178
 2326TIP3   OH228536   2.816   4.173   7.364 -0.2727  0.5199 -0.6183
 2326TIP3    H128537   2.814   4.130   7.279 -1.6173  1.3219 -1.0274
 2326TIP3    H228538   2.745   4.132   7.414  2.0705 -1.7623  1.1167
 2327TIP3   OH228539   2.132   5.101   0.863  0.0032  0.1202 -0.2475
 2327TIP3    H128540   2.037   5.090   0.866 -0.1479  0.6083 -2.0277
 2327TIP3    H228541   2.163   5.071   0.949 -1.3560 -3.9124 -0.9559
 2328TIP3   OH228542   2.932   2.834   0.739  0.0139 -0.2338 -0.1884
 2328TIP3    H128543   2.896   2.847   0.652 -4.0487  3.6939  1.6552
 2328TIP3    H228544   2.994   2.906   0.751 -0.0373 -0.2703  0.3551
 2329TIP3   OH228545   1.159   5.916   0.301  0.6236 -0.0489 -0.3341
 2329TIP3    H128546   1.123   5.946   0.217 -0.2342  1.0502  0.3901
 2329TIP3    H228547   1.179   5.997   0.348 -0.3772 -0.6061  1.1194
 2330TIP3   OH228548   6.540   2.088   0.237  0.1545  0.0337 -0.3497
 2330TIP3    H128549   6.535   2.161   0.175 -1.2308  0.8007  0.6107
 2330TIP3    H228550   6.629   2.053   0.226  0.3120  0.8268 -1.9653
 2331TIP3   OH228551   0.923   5.716   1.268  0.3142  0.0378  0.1163
 2331TIP3    H128552   0.867   5.647   1.232 -0.4024  0.1619  0.9555
 2331TIP3    H228553   0.862   5.787   1.289  0.9561  0.6652 -0.1167
 2332TIP3   OH228554   2.953   5.106   1.496  0.6421 -1.0822  0.4315
 2332TIP3    H128555   2.890   5.122   1.567 -1.4505 -0.8005 -1.3792
 2332TIP3    H228556   2.979   5.193   1.467 -0.8554 -1.0794 -1.0546
 2333TIP3   OH228557   0.881   5.484   1.455 -0.6185 -0.9745  0.7150
 2333TIP3    H128558   0.928   5.476   1.539 -0.2258  1.6294  0.8404
 2333TIP3    H228559   0.947   5.520   1.395 -1.8929  1.0061  0.4064
 2334TIP3   OH228560   0.582   2.310   8.320 -0.1870 -0.1942  0.1250
 2334TIP3    H128561   0.530   2.384   8.289 -1.2700  0.4749  3.1271
 2334TIP3    H228562   0.624   2.275   8.242  2.6813  5.2302 -1.2160
 2335TIP3   OH228563   6.571   1.053   7.605 -0.0075 -0.0815  0.0198
 2335TIP3    H128564   6.551   1.049   7.699 -2.1246 -1.4839 -0.4095
 2335TIP3    H228565   6.573   1.146   7.585  1.0487  0.2634  1.5379
 2336TIP3   OH228566   5.295   3.282   7.359 -0.1780 -0.3376 -0.8419
 2336TIP3    H128567   5.255   3.198   7.379  2.1978 -1.1737  0.7912
 2336TIP3    H228568   5.279   3.294   7.265 -0.6880 -2.5251 -1.0910
 2337TIP3   OH228569   2.619   6.677   7.891  0.2520  0.7028  0.1411
 2337TIP3    H128570   2.624   6.727   7.809  1.0603  3.4018  1.7135
 2337TIP3    H228571   2.574   6.735   7.952  1.1265 -0.5409  2.0750
 2338TIP3   OH228572   1.721   4.302   0.531  0.2209 -0.1958  0.6072
 2338TIP3    H128573   1.694   4.378   0.582  2.3399 -0.3894  2.1991
 2338TIP3    H228574   1.770   4.338   0.457 -1.6062  0.0379 -0.5424
 2339TIP3   OH228575   4.738   5.988   0.732 -0.4623  0.2389 -0.2666
 2339TIP3    H128576   4.754   5.911   0.677 -1.0089 -0.9655  1.1904
 2339TIP3    H228577   4.644   5.984   0.752 -0.2806  0.6403  0.7285
 2340TIP3   OH228578   2.721   6.494   0.514 -0.7804  0.9322  0.7686
 2340TIP3    H128579   2.716   6.456   0.602  0.6711  0.1614  0.5428
 2340TIP3    H228580   2.800   6.456   0.476 -2.2446 -0.0159 -1.4860
 2341TIP3   OH228581   4.901   0.177   2.284  0.1381  0.5171  0.5586
 2341TIP3    H128582   4.914   0.255   2.230  1.3847  0.5988  0.9505
 2341TIP3    H228583   4.837   0.125   2.236 -1.1563  2.0381  0.5855
 2342TIP3   OH228584   2.504   0.782   0.272  0.1458 -0.1392  0.1059
 2342TIP3    H128585   2.409   0.783   0.284  0.1412 -1.4274  0.3727
 2342TIP3    H228586   2.518   0.824   0.187 -0.4075  2.6881  1.2878
 2343TIP3   OH228587   5.441   6.495   7.960 -0.4272  0.1625 -0.2697
 2343TIP3    H128588   5.532   6.468   7.948 -0.3168  0.5376 -0.2641
 2343TIP3    H228589   5.411   6.445   8.036  0.2974  1.3291  0.8296
 2344TIP3   OH228590   5.505   6.378   1.658 -0.0155 -0.0817 -0.0405
 2344TIP3    H128591   5.417   6.409   1.680  0.5562  0.4147  1.6589
 2344TIP3    H228592   5.544   6.450   1.609  0.2083  0.6420  1.1663
 2345TIP3   OH228593   0.951   4.162   7.491  0.2404  0.5551 -0.0545
 2345TIP3    H128594   0.915   4.115   7.566 -2.4447  1.1174 -0.8746
 2345TIP3    H228595   0.963   4.094   7.424 -0.3023  0.4821 -0.0864
 2346TIP3   OH228596   1.594   3.524   0.374  0.1183  0.0252 -0.3815
 2346TIP3    H128597   1.652   3.497   0.445 -0.3194  2.6787  1.1058
 2346TIP3    H228598   1.550   3.443   0.348  3.9039 -2.0339 -1.2087
 2347TIP3   OH228599   5.506   4.545   1.955  0.4598 -0.5889  0.5227
 2347TIP3    H128600   5.589   4.592   1.943 -0.0485 -0.0589 -1.2759
 2347TIP3    H228601   5.467   4.586   2.032  2.0528 -1.1590  1.6802
 2348TIP3   OH228602   3.699   6.394   1.105  0.5076 -0.3341 -0.1284
 2348TIP3    H128603   3.604   6.379   1.109 -0.0337  2.6809  1.6672
 2348TIP3    H228604   3.738   6.308   1.117 -2.0052 -1.5039  0.3294
 2349TIP3   OH228605   6.653   0.815   8.547  0.1497 -0.2633  0.2063
 2349TIP3    H128606   6.613   0.737   8.508  0.7598  0.5029 -2.1351
 2349TIP3    H228607   6.585   0.882   8.543  0.1348 -0.2421  0.7448
 2350TIP3   OH228608   0.817   6.698   1.998 -0.2359 -0.4167  0.1499
 2350TIP3    H128609   0.885   6.630   2.011 -0.2117 -0.2607  0.8919
 2350TIP3    H228610   0.812   6.742   2.082 -0.0618  0.6965 -0.4033
 2351TIP3   OH228611   1.599   1.721   0.414 -0.0925  0.6205  0.1628
 2351TIP3    H128612   1.618   1.673   0.495 -0.7686  0.2813  0.1255
 2351TIP3    H228613   1.515   1.686   0.385  1.0561 -0.7365 -1.7720
 2352TIP3   OH228614   2.710   4.057   7.894  0.2767 -0.6648  0.1269
 2352TIP3    H128615   2.780   4.001   7.860 -0.3592 -1.8998  0.7820
 2352TIP3    H228616   2.662   4.085   7.816  1.0092 -0.4567 -0.2622
 2353TIP3   OH228617   5.874   4.593   1.505  0.1228  0.0112 -0.2041
 2353TIP3    H128618   5.919   4.533   1.446 -0.7611  0.4513 -1.3706
 2353TIP3    H228619   5.787   4.602   1.468 -0.5186  0.1955  1.2767
 2354TIP3   OH228620   4.710   3.816   0.191  0.3248 -0.3050 -0.5425
 2354TIP3    H128621   4.738   3.888   0.248  0.5080 -0.4135 -0.4953
 2354TIP3    H228622   4.776   3.813   0.122  0.1121 -0.1845 -0.7525
 2355TIP3   OH228623   2.795   4.689   2.248  0.1810 -0.3988 -0.1285
 2355TIP3    H128624   2.738   4.642   2.188  0.0014 -1.7679  1.0721
 2355TIP3    H228625   2.866   4.722   2.193 -1.6001  1.1940 -1.6318
 2356TIP3   OH228626   1.887   4.755   8.712 -0.6466 -0.2429 -0.0730
 2356TIP3    H128627   1.954   4.714   8.766 -0.3560  0.5711  0.2109
 2356TIP3    H228628   1.936   4.796   8.640 -0.9221 -0.3384 -0.3173
 2357TIP3   OH228629   6.469   2.813   0.617 -0.3331 -0.4185 -0.6680
 2357TIP3    H128630   6.438   2.728   0.650 -1.5873  0.3977  0.3411
 2357TIP3    H228631   6.542   2.790   0.559  2.4525 -1.9705  3.0235
 2358TIP3   OH228632   4.493   2.013   7.303 -0.0464  0.2473  0.3427
 2358TIP3    H128633   4.546   2.047   7.232  0.5208  1.7055  1.4199
 2358TIP3    H228634   4.521   1.922   7.313  2.6970  1.0819  1.2109
 2359TIP3   OH228635   4.842   1.971   0.075  0.2896 -0.2469 -0.1145
 2359TIP3    H128636   4.825   2.044   0.015 -1.6957 -1.2110 -0.8044
 2359TIP3    H228637   4.819   2.005   0.161  1.6721  0.6644 -0.0816
 2360TIP3   OH228638   6.824   5.110   2.233 -0.0134 -0.2726  0.4937
 2360TIP3    H128639   6.848   5.201   2.248  0.7724  0.0531 -2.1229
 2360TIP3    H228640   6.896   5.075   2.179 -2.1149 -1.2427 -1.9065
 2361TIP3   OH228641   3.299   2.596   6.561  0.2902  0.0856  0.3809
 2361TIP3    H128642   3.345   2.537   6.502 -0.4714 -0.1471  0.0025
 2361TIP3    H228643   3.206   2.577   6.547  0.0385  1.1507  0.4770
 2362TIP3   OH228644   3.843   1.436   1.546 -0.6291  0.3484  0.1340
 2362TIP3    H128645   3.890   1.353   1.544 -0.6569  0.3312 -1.5818
 2362TIP3    H228646   3.750   1.412   1.539 -0.7414  0.4743  1.1014
 2363TIP3   OH228647   2.062   6.367   0.894 -0.4153  0.2176 -0.7515
 2363TIP3    H128648   1.980   6.332   0.859 -0.9555  1.2223 -0.5219
 2363TIP3    H228649   2.105   6.291   0.935 -1.8297 -0.0861  0.2485
 2364TIP3   OH228650   2.679   3.603   7.666  0.5054  0.4930 -0.2126
 2364TIP3    H128651   2.634   3.650   7.736  0.1128  1.9692 -1.3782
 2364TIP3    H228652   2.676   3.664   7.591 -0.9537 -1.7863 -2.1495
 2365TIP3   OH228653   5.136   3.985   1.284 -0.6039 -0.2796 -0.1924
 2365TIP3    H128654   5.103   4.016   1.369 -1.1720  0.2440 -0.5954
 2365TIP3    H228655   5.089   3.904   1.268 -0.0284 -0.7188  0.2826
 2366TIP3   OH228656   0.510   5.844   0.265  0.0937 -0.4333 -0.4643
 2366TIP3    H128657   0.605   5.857   0.266  0.0461  0.1143 -1.5695
 2366TIP3    H228658   0.475   5.921   0.310  0.2144 -1.3704  1.3199
 2367TIP3   OH228659   0.814   1.592   1.650  0.1793 -0.2606  0.0772
 2367TIP3    H128660   0.801   1.628   1.563  1.2518 -0.1299 -0.0428
 2367TIP3    H228661   0.805   1.498   1.639  0.4194 -0.2510 -0.1924
 2368TIP3   OH228662   3.610   3.645   0.037 -0.3500 -0.0293 -0.3554
 2368TIP3    H128663   3.571   3.732   0.035 -4.5654 -1.4085  3.8467
 2368TIP3    H228664   3.547   3.589  -0.008 -0.8730 -1.6454  2.1668
 2369TIP3   OH228665   5.197   1.265   8.547 -0.3466  0.2749  0.5063
 2369TIP3    H128666   5.179   1.285   8.639 -0.9144  2.4911 -0.0189
 2369TIP3    H228667   5.122   1.302   8.500  0.0442 -0.6333 -0.8668
 2370TIP3   OH228668   3.282   2.791   7.972 -0.2500 -0.2158 -0.0967
 2370TIP3    H128669   3.268   2.867   7.915 -0.3031 -0.7287 -0.7709
 2370TIP3    H228670   3.308   2.829   8.056  1.8850  0.4971 -1.0214
 2371TIP3   OH228671   2.452   6.608   2.360  0.8458 -0.2174  0.7369
 2371TIP3    H128672   2.536   6.655   2.354 -0.4581  2.4025  1.4826
 2371TIP3    H228673   2.439   6.595   2.454 -2.0560  4.6599  1.3749
 2372TIP3   OH228674   4.829   1.553   1.651 -0.0176  0.5163 -0.1303
 2372TIP3    H128675   4.767   1.621   1.676 -3.0396 -0.4417 -4.0396
 2372TIP3    H228676   4.775   1.475   1.636  2.1822 -0.6421 -2.9077
 2373TIP3   OH228677   1.235   5.895   2.553 -0.0531 -1.0542 -0.3123
 2373TIP3    H128678   1.152   5.848   2.559 -1.0848  0.6892 -0.1414
 2373TIP3    H228679   1.271   5.891   2.641  0.2551 -2.1601 -0.4785
 2374TIP3   OH228680   5.505   3.531   8.659 -0.2327  0.5775  0.2842
 2374TIP3    H128681   5.581   3.473   8.651  1.0403  1.4383  3.9746
 2374TIP3    H228682   5.430   3.472   8.654  0.8331 -0.8218 -0.0360
 2375TIP3   OH228683   4.557   2.084   2.189 -0.0846  0.3894  0.0110
 2375TIP3    H128684   4.574   2.001   2.233 -1.8088  0.6811  1.3503
 2375TIP3    H228685   4.571   2.150   2.257 -1.9425  0.9288 -0.0671
 2376TIP3   OH228686   0.820   1.640   0.883 -0.2166 -0.2228 -0.5643
 2376TIP3    H128687   0.835   1.595   0.966 -1.1032 -1.1587 -0.8831
 2376TIP3    H228688   0.903   1.683   0.863 -0.2555  0.7959  1.2490
 2377TIP3   OH228689   5.840   1.290   3.083  0.3123 -0.2577 -0.4621
 2377TIP3    H128690   5.896   1.244   3.020  1.5679  1.3604 -0.5740
 2377TIP3    H228691   5.803   1.363   3.033 -0.0264  0.0547  0.2392
 2378TIP3   OH228692   3.429   2.185   7.791  0.0733 -0.1890 -0.1642
 2378TIP3    H128693   3.366   2.256   7.779  0.9579  0.7791  0.6419
 2378TIP3    H228694   3.440   2.178   7.886  0.4764 -0.9800 -0.2555
 2379TIP3   OH228695   0.247   1.234   3.010 -0.2097 -0.6821  0.1407
 2379TIP3    H128696   0.166   1.266   3.050  0.5436  0.7799  0.5396
 2379TIP3    H228697   0.220   1.209   2.921 -0.8208  1.3629 -0.3164
 2380TIP3   OH228698   4.277   6.445   8.150 -0.2416 -0.4333 -0.0369
 2380TIP3    H128699   4.325   6.420   8.228  0.4493 -0.5630 -0.4927
 2380TIP3    H228700   4.190   6.469   8.181  0.6238  1.5220  1.0319
 2381TIP3   OH228701   2.898   2.427   8.653 -0.1039 -0.1703 -0.2829
 2381TIP3    H128702   2.866   2.517   8.656  2.4595  0.8157  1.7444
 2381TIP3    H228703   2.927   2.415   8.562 -0.4366  1.0894 -0.5786
 2382TIP3   OH228704   4.737   4.935   2.350 -0.3506 -0.2370  0.0976
 2382TIP3    H128705   4.652   4.972   2.325 -1.0161 -1.7025  0.0895
 2382TIP3    H228706   4.800   5.005   2.331 -1.6313  1.2528  0.9958
 2383TIP3   OH228707   5.499   0.629   1.077 -0.1868 -0.0187  0.1970
 2383TIP3    H128708   5.436   0.673   1.019  0.0209  1.2046  0.8775
 2383TIP3    H228709   5.457   0.629   1.163 -0.4389 -1.7276  0.1268
 2384TIP3   OH228710   0.740   1.065   8.551  0.4696  0.4716 -0.8192
 2384TIP3    H128711   0.811   1.015   8.511  0.1581  0.7062 -1.7009
 2384TIP3    H228712   0.782   1.142   8.588  1.0076 -0.5581  0.8527
 2385TIP3   OH228713   4.928   0.385   0.969  0.2878 -0.0638 -1.2870
 2385TIP3    H128714   4.932   0.418   1.059 -1.5068  1.5181 -1.7259
 2385TIP3    H228715   4.910   0.292   0.979  1.4898 -0.1960 -0.0113
 2386TIP3   OH228716   0.166   5.734   2.490 -0.3113 -0.1864 -0.5704
 2386TIP3    H128717   0.149   5.642   2.513  1.1657 -0.3799 -0.1380
 2386TIP3    H228718   0.175   5.779   2.574 -1.2021  0.4065 -0.7801
 2387TIP3   OH228719   1.198   1.203   1.638 -0.1443 -0.5544  0.1760
 2387TIP3    H128720   1.261   1.230   1.704 -0.9811  0.0565  0.7464
 2387TIP3    H228721   1.251   1.177   1.563  0.8200 -1.0876  1.0180
 2388TIP3   OH228722   5.810   4.436   0.537 -0.1497 -0.2292  0.2272
 2388TIP3    H128723   5.789   4.349   0.502  0.9656 -0.3486 -0.1911
 2388TIP3    H228724   5.856   4.479   0.465  1.2209 -0.0750  1.1773
 2389TIP3   OH228725   4.733   0.446   2.281 -0.3367 -0.3946  0.0442
 2389TIP3    H128726   4.689   0.408   2.205 -0.2311  1.0478 -0.7765
 2389TIP3    H228727   4.668   0.505   2.320  0.7438  1.7285 -1.1590
 2390TIP3   OH228728   0.445   1.940   0.874 -0.3343 -0.6722 -0.5888
 2390TIP3    H128729   0.482   2.010   0.821 -0.8807  0.4400  0.4452
 2390TIP3    H228730   0.486   1.860   0.841  2.6565  0.4253  0.1855
 2391TIP3   OH228731   5.857   2.529   0.102 -0.1873 -0.8344  0.1290
 2391TIP3    H128732   5.805   2.604   0.074  1.1699  0.4920  0.9898
 2391TIP3    H228733   5.803   2.485   0.167  0.0690  1.0715  1.7269
 2392TIP3   OH228734   1.732   6.134   7.488  0.0450 -0.2260 -0.1644
 2392TIP3    H128735   1.722   6.087   7.571 -2.7982 -0.2946 -0.4504
 2392TIP3    H228736   1.731   6.066   7.421  2.3987 -0.1750 -0.3587
 2393TIP3   OH228737   5.577   3.985   8.373  0.2895  0.0836  0.0663
 2393TIP3    H128738   5.599   3.895   8.397  0.2835  0.7333  2.7948
 2393TIP3    H228739   5.660   4.024   8.344  1.1983  0.2387  2.6222
 2394TIP3   OH228740   5.409   3.413   1.126  0.7927 -0.5313 -0.2220
 2394TIP3    H128741   5.443   3.470   1.196 -0.4447  0.7220 -0.5796
 2394TIP3    H228742   5.399   3.472   1.051 -0.6194 -1.1733 -0.5771
 2395TIP3   OH228743   4.444   1.600   2.542  0.3812 -0.1394  0.0499
 2395TIP3    H128744   4.496   1.576   2.619  2.5533  1.3299 -0.8718
 2395TIP3    H228745   4.373   1.653   2.577 -0.7764 -2.3829  1.3777
 2396TIP3   OH228746   0.550   6.224   0.914  0.3624  0.3548  0.2364
 2396TIP3    H128747   0.505   6.151   0.871 -1.6847  0.7904  1.4970
 2396TIP3    H228748   0.578   6.280   0.842 -0.2482 -0.4382 -0.6481
 2397TIP3   OH228749   1.351   0.230   8.186  0.4180  0.6063 -0.6763
 2397TIP3    H128750   1.381   0.170   8.255 -0.5324 -0.8243 -1.4645
 2397TIP3    H228751   1.431   0.272   8.154  0.8596  1.5013  1.4360
 2398TIP3   OH228752   5.335   0.733   2.211  0.7758  0.2094 -0.2351
 2398TIP3    H128753   5.307   0.691   2.130 -2.7453 -0.0313  0.9233
 2398TIP3    H228754   5.347   0.660   2.273 -0.5614  0.5569  0.4747
 2399TIP3   OH228755   2.662   3.319   7.968  0.6159 -0.6543  0.2213
 2399TIP3    H128756   2.723   3.339   7.897  1.4615 -0.1954  1.0547
 2399TIP3    H228757   2.588   3.276   7.925 -1.2035  3.7874 -1.7202
 2400TIP3   OH228758   4.418   0.079   7.816  0.0981  0.1941  0.0084
 2400TIP3    H128759   4.438   0.043   7.730  1.7091  1.6681 -0.2968
 2400TIP3    H228760   4.342   0.135   7.802  1.1831  1.5239 -0.8054
 2401TIP3   OH228761   3.652   0.952   0.186 -0.4766 -0.1741 -0.0704
 2401TIP3    H128762   3.690   1.034   0.216 -0.7958 -0.1850  0.3780
 2401TIP3    H228763   3.557   0.967   0.191 -0.5371 -0.5912  0.0874
 2402TIP3   OH228764   1.047   5.868   1.800  0.3602  0.1008 -0.3211
 2402TIP3    H128765   1.020   5.777   1.815 -1.1856  0.6195  0.1923
 2402TIP3    H228766   1.002   5.894   1.720 -0.6207  0.9362  0.4692
 2403TIP3   OH228767   5.302   0.874   8.162  0.6299 -0.0940  0.3633
 2403TIP3    H128768   5.230   0.810   8.168  0.3158  0.2351  0.1074
 2403TIP3    H228769   5.373   0.825   8.121  0.3250 -0.2312 -0.0163
 2404TIP3   OH228770   4.404   4.335   0.369 -0.3772 -0.2348 -0.0951
 2404TIP3    H128771   4.428   4.311   0.280  0.3807  0.0185  0.0230
 2404TIP3    H228772   4.336   4.402   0.359  2.3406  2.7196 -0.6800
 2405TIP3   OH228773   1.974   6.763   0.784  0.0160 -0.1206  0.1477
 2405TIP3    H128774   1.893   6.798   0.819 -0.5684  1.0560 -2.1467
 2405TIP3    H228775   2.034   6.838   0.782  0.1286 -0.2167 -0.9702
 2406TIP3   OH228776   4.477   5.433   1.688 -0.2160 -0.6911 -0.4899
 2406TIP3    H128777   4.522   5.503   1.735  0.1492 -0.1231 -1.6370
 2406TIP3    H228778   4.385   5.460   1.685 -0.1085 -0.3498 -0.7601
 2407TIP3   OH228779   5.760   4.441   0.257 -0.2860 -0.2976  0.0439
 2407TIP3    H128780   5.693   4.483   0.310 -0.0447 -0.1051  0.1972
 2407TIP3    H228781   5.742   4.347   0.265 -0.7134 -0.2346 -0.1525
 2408TIP3   OH228782   3.253   4.438   0.904 -0.2882 -0.1984  0.0841
 2408TIP3    H128783   3.198   4.431   0.982  0.1956 -0.9211  0.3674
 2408TIP3    H228784   3.199   4.404   0.833  0.3599 -2.5573  0.6432
 2409TIP3   OH228785   1.713   5.640   8.360 -0.1834 -0.6422  0.0393
 2409TIP3    H128786   1.807   5.658   8.367 -0.2008 -0.7164  0.5010
 2409TIP3    H228787   1.687   5.680   8.276  0.7975 -3.0448 -1.5120
 2410TIP3   OH228788   6.307   0.046   2.286  0.1184  0.4110  0.5670
 2410TIP3    H128789   6.347   0.119   2.334 -0.0561  1.1627 -0.4104
 2410TIP3    H228790   6.332   0.061   2.195  0.6530 -1.1330  0.4317
 2411TIP3   OH228791   0.990   3.898   7.630  0.3259 -0.4224  0.3214
 2411TIP3    H128792   1.051   3.860   7.567 -0.7410 -0.5717 -0.6491
 2411TIP3    H228793   0.904   3.888   7.590 -0.5921 -1.8596  2.4327
 2412TIP3   OH228794   5.365   3.480   2.117  0.6050 -0.3508  0.1998
 2412TIP3    H128795   5.282   3.498   2.163  1.0693  0.4723  0.7483
 2412TIP3    H228796   5.426   3.459   2.188  0.7085 -1.6302 -0.2533
 2413TIP3   OH228797   2.227   0.983   0.730  0.8285 -0.5708  0.2993
 2413TIP3    H128798   2.220   1.044   0.803 -2.0347 -0.5835  0.1305
 2413TIP3    H228799   2.168   0.912   0.752  0.9721 -1.2638 -1.3998
 2414TIP3   OH228800   1.640   1.596   1.225 -0.3001 -0.0789 -0.1660
 2414TIP3    H128801   1.597   1.553   1.299  0.4562 -1.2558 -0.3931
 2414TIP3    H228802   1.733   1.599   1.249 -0.2011  0.5441 -0.5935
 2415TIP3   OH228803   5.088   4.489   8.410 -0.1818 -0.1553  0.3019
 2415TIP3    H128804   4.994   4.492   8.427 -0.3003  0.8629 -0.4237
 2415TIP3    H228805   5.117   4.580   8.413  0.4841 -0.2841 -0.9831
 2416TIP3   OH228806   0.405   1.510   2.255  0.0705  0.0717  0.2214
 2416TIP3    H128807   0.471   1.442   2.243  1.6523  1.5108  0.4293
 2416TIP3    H228808   0.439   1.585   2.207 -1.7347  0.6812 -0.1772
 2417TIP3   OH228809   2.156   3.504   8.552  0.2989  0.5053  0.4990
 2417TIP3    H128810   2.244   3.507   8.513 -0.1053  1.2462 -0.3769
 2417TIP3    H228811   2.105   3.567   8.502 -1.4445 -1.7278 -0.6759
 2418TIP3   OH228812   4.577   0.306   7.233  0.0585  0.1095 -0.0958
 2418TIP3    H128813   4.486   0.331   7.215  0.3573  2.0025  0.7962
 2418TIP3    H228814   4.570   0.222   7.278 -1.1663 -0.3535 -1.0875
 2419TIP3   OH228815   4.692   6.798   0.819  0.7254 -0.0052 -0.2940
 2419TIP3    H128816   4.711   6.733   0.887 -1.7994 -0.5097  0.0096
 2419TIP3    H228817   4.740   6.876   0.848  0.7652 -0.6072  1.4044
 2420TIP3   OH228818   6.808   5.217   8.356  0.2337 -0.5166  0.0916
 2420TIP3    H128819   6.864   5.244   8.429  1.6934  1.0634 -1.5229
 2420TIP3    H228820   6.763   5.297   8.330 -0.8952 -1.2416 -0.2508
 2421TIP3   OH228821   4.720   3.590   2.300  0.5034  0.7334  0.0739
 2421TIP3    H128822   4.693   3.528   2.368  0.3476 -0.9674 -1.4574
 2421TIP3    H228823   4.809   3.614   2.323 -0.1415  1.6021  1.8290
 2422TIP3   OH228824   3.469   4.254   7.676  0.1453  0.5473 -0.3993
 2422TIP3    H128825   3.473   4.271   7.582 -2.7706 -1.0360 -0.9297
 2422TIP3    H228826   3.523   4.176   7.689 -0.4682  0.0190 -0.9928
 2423TIP3   OH228827   4.936   1.734   7.713 -0.2161  0.0456  0.0070
 2423TIP3    H128828   4.843   1.730   7.691 -0.4569 -0.2761  1.0147
 2423TIP3    H228829   4.942   1.694   7.800  1.0350 -1.0276 -0.5281
 2424TIP3   OH228830   0.741   0.251   8.456 -0.1584 -0.3343  0.5541
 2424TIP3    H128831   0.826   0.260   8.412 -0.3437  2.2686  0.5719
 2424TIP3    H228832   0.680   0.299   8.399 -1.7529 -2.4420  0.3532
 2425TIP3   OH228833   1.149   5.728   7.000  0.1159  0.1047 -0.6560
 2425TIP3    H128834   1.231   5.695   7.035 -0.6453 -0.6829  0.4864
 2425TIP3    H228835   1.121   5.662   6.937  0.0845  0.0873 -0.6242
 2426TIP3   OH228836   0.739   5.956   8.350  0.5921  0.0808 -0.5777
 2426TIP3    H128837   0.747   5.862   8.368  1.9117  0.4195  0.9058
 2426TIP3    H228838   0.652   5.966   8.312 -0.3139 -1.5122  0.9101
 2427TIP3   OH228839   5.808   4.187   2.282 -0.3744 -0.7953  0.2387
 2427TIP3    H128840   5.805   4.215   2.374  0.5650 -1.3045  0.4416
 2427TIP3    H228841   5.812   4.269   2.233  0.4189 -0.5249  0.7273
 2428TIP3   OH228842   5.492   0.147   1.200 -0.1424 -0.0265 -0.2318
 2428TIP3    H128843   5.500   0.218   1.136 -0.2717  0.3206  0.1296
 2428TIP3    H228844   5.492   0.067   1.148 -2.0954  0.3159 -0.8380
 2429TIP3   OH228845   3.333   1.237   7.619  0.1037  0.4408 -0.1601
 2429TIP3    H128846   3.286   1.249   7.536  0.3184 -1.2392 -0.5537
 2429TIP3    H228847   3.402   1.303   7.617 -1.3027  1.9670 -0.2424
 2430TIP3   OH228848   1.010   3.537   0.871 -0.0576 -0.7128 -0.6578
 2430TIP3    H128849   1.076   3.588   0.824  0.6190 -0.4522  0.5501
 2430TIP3    H228850   1.032   3.548   0.963  0.2322 -3.3109 -0.3297
 2431TIP3   OH228851   1.780   5.672   1.121 -0.3184  0.2022  0.0067
 2431TIP3    H128852   1.814   5.719   1.045 -0.3642  1.7590  0.9181
 2431TIP3    H228853   1.707   5.621   1.086  1.6951 -1.7884 -1.6267
 2432TIP3   OH228854   0.195   0.151   1.890 -0.4131  0.4033  0.4643
 2432TIP3    H128855   0.206   0.158   1.985  1.3284 -0.8924  0.3991
 2432TIP3    H228856   0.230   0.233   1.855 -0.0006  0.4006  0.8738
 2433TIP3   OH228857   0.437   1.010   0.464  0.1707  0.1353 -0.6372
 2433TIP3    H128858   0.462   1.050   0.547 -0.4539 -0.9242  0.0808
 2433TIP3    H228859   0.491   0.931   0.459 -1.1231 -0.7952 -0.3195
 2434TIP3   OH228860   5.833   4.964   1.269  0.5489 -0.4493  0.2398
 2434TIP3    H128861   5.837   4.999   1.358  1.6964 -0.8557  0.3611
 2434TIP3    H228862   5.755   4.909   1.269  0.1395  0.1170  0.7866
 2435TIP3   OH228863   1.027   3.011   7.133  0.6679 -0.2166  0.3265
 2435TIP3    H128864   1.049   3.037   7.043  1.7032 -0.4944  0.4858
 2435TIP3    H228865   0.955   3.069   7.158  0.1326 -0.3727 -0.8028
 2436TIP3   OH228866   5.155   0.921   2.298  0.6453  0.2798  0.5857
 2436TIP3    H128867   5.077   0.870   2.320  0.8592  0.5099  2.0098
 2436TIP3    H228868   5.213   0.860   2.253  0.3715 -0.4009  1.1414
 2437TIP3   OH228869   2.647   2.885   2.047 -0.1534  0.3537  0.0049
 2437TIP3    H128870   2.722   2.942   2.064  1.8186 -1.9217 -0.3774
 2437TIP3    H228871   2.588   2.899   2.121 -0.1593  3.3487 -0.4672
 2438TIP3   OH228872   5.912   4.257   1.998  0.2944  0.4398  0.3890
 2438TIP3    H128873   5.872   4.276   1.914 -0.2425  1.7847  0.9214
 2438TIP3    H228874   5.859   4.185   2.034  0.3465  0.0606 -0.2734
 2439TIP3   OH228875   2.834   2.102   0.370  0.4011 -0.7719  0.4057
 2439TIP3    H128876   2.911   2.056   0.338  1.3985  0.7676  0.5203
 2439TIP3    H228877   2.828   2.181   0.316  0.4251  0.4121  2.0691
 2440TIP3   OH228878   2.221   3.140   8.677  0.1813  0.0427 -0.5237
 2440TIP3    H128879   2.244   3.113   8.588  1.0230  0.0557 -0.3205
 2440TIP3    H228880   2.276   3.217   8.693 -2.3572  2.1435 -1.2026
 2441TIP3   OH228881   3.827   4.661   1.303  0.3151 -0.1653  0.1325
 2441TIP3    H128882   3.912   4.699   1.283  0.6563 -1.6565 -1.5072
 2441TIP3    H228883   3.831   4.573   1.264 -0.9605 -1.3222  2.4064
 2442TIP3   OH228884   1.406   3.709   0.486  0.1837 -0.0960 -0.9303
 2442TIP3    H128885   1.413   3.672   0.574  0.0203  0.2656 -0.7619
 2442TIP3    H228886   1.470   3.661   0.435 -0.1724 -0.7503 -0.7643
 2443TIP3   OH228887   4.331   0.566   1.184  0.2034 -0.3395  0.1225
 2443TIP3    H128888   4.415   0.544   1.143 -0.3305 -1.5792 -0.3583
 2443TIP3    H228889   4.273   0.585   1.110  0.2544  1.3104  0.4857
 2444TIP3   OH228890   3.194   5.192   0.304  0.3728  0.0962  0.2601
 2444TIP3    H128891   3.149   5.272   0.330 -0.1443 -0.3738  0.8189
 2444TIP3    H228892   3.219   5.150   0.386 -1.8756 -1.7399  0.0870
 2445TIP3   OH228893   2.581   3.001   7.240  0.4318  0.0880  0.6898
 2445TIP3    H128894   2.557   3.093   7.238  1.1332  0.3116  1.8628
 2445TIP3    H228895   2.500   2.955   7.217  0.5577  1.0091 -2.0115
 2446TIP3   OH228896   2.116   4.764   6.897  0.1365  0.4165  0.4329
 2446TIP3    H128897   2.038   4.810   6.929  1.2682  1.5518  1.7039
 2446TIP3    H228898   2.103   4.674   6.925 -0.4419  0.7244  1.2061
 2447TIP3   OH228899   3.902   2.373   6.724 -0.2350  0.6696  0.0894
 2447TIP3    H128900   3.930   2.409   6.807  1.5780 -0.4013 -0.0162
 2447TIP3    H228901   3.982   2.366   6.672 -0.8233 -1.5394 -0.6134
 2448TIP3   OH228902   4.868   6.559   7.872 -0.3023  0.7188 -0.1522
 2448TIP3    H128903   4.793   6.541   7.815  0.4964  3.7044 -2.3534
 2448TIP3    H228904   4.929   6.487   7.854 -1.3389 -0.0360 -0.7371
 2449TIP3   OH228905   4.905   5.605   0.804  0.0834  0.0229  0.3314
 2449TIP3    H128906   4.879   5.679   0.860 -0.5961  0.6820 -0.8071
 2449TIP3    H228907   4.823   5.577   0.763  0.7515  0.5003 -1.4211
 2450TIP3   OH228908   6.295   2.978   7.666 -0.1416  0.4919 -0.3279
 2450TIP3    H128909   6.349   3.026   7.604  0.5795 -0.1071 -0.1743
 2450TIP3    H228910   6.350   2.967   7.744 -1.0609  1.3179  0.4727
 2451TIP3   OH228911   1.223   1.221   0.029 -0.3441 -0.0555  0.8680
 2451TIP3    H128912   1.234   1.149  -0.033  2.4352  0.9881 -0.0096
 2451TIP3    H228913   1.247   1.184   0.114 -3.6840 -1.3556  1.3970
 2452TIP3   OH228914   4.820   1.352   8.632  0.7686 -0.1097  0.2043
 2452TIP3    H128915   4.778   1.267   8.645  1.0696 -0.5372 -1.3289
 2452TIP3    H228916   4.777   1.410   8.694 -0.6111 -1.0163  0.1547
 2453TIP3   OH228917   0.504   1.818   8.083 -0.8203  0.0451 -0.6306
 2453TIP3    H128918   0.458   1.799   8.001 -1.1340  1.0054 -0.6910
 2453TIP3    H228919   0.541   1.734   8.110  0.1836 -0.1162 -2.3095
 2454TIP3   OH228920   4.232   3.519   1.466 -0.6610  0.3650  0.5169
 2454TIP3    H128921   4.238   3.599   1.415 -1.0094  1.7884  2.6185
 2454TIP3    H228922   4.157   3.532   1.523 -2.7702 -2.7966 -1.2070
 2455TIP3   OH228923   1.691   5.350   2.111 -0.7639 -0.0685  0.0738
 2455TIP3    H128924   1.679   5.353   2.206 -0.8971 -0.8661  0.0869
 2455TIP3    H228925   1.743   5.428   2.091 -0.9571  0.2467  0.7672
 2456TIP3   OH228926   5.156   0.713   7.803  0.2661  0.1676 -0.3863
 2456TIP3    H128927   5.239   0.757   7.785  0.7391 -0.4757  0.1612
 2456TIP3    H228928   5.182   0.626   7.832 -0.5258  0.5078  1.4399
 2457TIP3   OH228929   1.469   3.091   7.797 -0.1142  0.2620 -0.3145
 2457TIP3    H128930   1.468   3.058   7.707 -0.5350 -1.8168  0.3977
 2457TIP3    H228931   1.447   3.184   7.788 -1.9202 -0.2601 -2.2479
 2458TIP3   OH228932   3.689   2.700   0.034 -0.2367  0.2663 -0.4725
 2458TIP3    H128933   3.740   2.738  -0.039 -1.0181  0.4793 -0.9191
 2458TIP3    H228934   3.603   2.682  -0.004 -0.8498  0.9467  0.5634
 2459TIP3   OH228935   0.917   0.098   1.488 -0.0322 -0.3150  0.5097
 2459TIP3    H128936   0.967   0.025   1.525  0.7631 -0.2120 -0.3457
 2459TIP3    H228937   0.919   0.083   1.393 -0.9624  0.1235  0.4081
 2460TIP3   OH228938   0.628   0.125   0.518  0.3587  0.4887  0.0426
 2460TIP3    H128939   0.639   0.165   0.432  0.8411  0.0052 -0.1348
 2460TIP3    H228940   0.538   0.093   0.518  0.4106  0.3262 -0.3618
 2461TIP3   OH228941   6.679   4.325   7.967  0.4493  0.1196  0.1824
 2461TIP3    H128942   6.712   4.409   7.934  1.7216 -0.9413 -1.4093
 2461TIP3    H228943   6.588   4.323   7.936  0.8150  0.3448 -0.9831
 2462TIP3   OH228944   1.706   3.856   1.238  0.0667 -0.2999  0.0440
 2462TIP3    H128945   1.715   3.831   1.330  1.5140 -1.2326 -0.3313
 2462TIP3    H228946   1.700   3.952   1.240 -1.9605 -0.3761  1.2282
 2463TIP3   OH228947   2.912   2.386   2.396 -0.8649  0.6556  0.1368
 2463TIP3    H128948   2.920   2.480   2.415  0.8084  0.6329 -0.3261
 2463TIP3    H228949   2.963   2.343   2.464 -0.0514  0.2049 -0.7378
 2464TIP3   OH228950   1.296   4.453   1.728 -0.1283 -0.4097 -0.0437
 2464TIP3    H128951   1.283   4.363   1.701  2.2523 -0.2110 -2.2016
 2464TIP3    H228952   1.272   4.505   1.651 -0.6742  0.7742  0.8901
 2465TIP3   OH228953   5.056   3.087   2.107  0.0811 -0.3726 -0.0992
 2465TIP3    H128954   5.038   2.998   2.075 -0.8517 -0.5103  0.7520
 2465TIP3    H228955   4.975   3.135   2.091  0.2323  0.0471  0.3860
 2466TIP3   OH228956   1.094   6.427   1.663 -0.4281 -0.0723 -0.3178
 2466TIP3    H128957   1.171   6.484   1.658  0.5700 -1.4289 -1.2276
 2466TIP3    H228958   1.077   6.418   1.757  1.3276 -0.7371 -0.0220
 2467TIP3   OH228959   2.307   6.384   7.588  0.2100  0.1393  0.1187
 2467TIP3    H128960   2.297   6.379   7.493  1.3537  0.6508 -0.0445
 2467TIP3    H228961   2.259   6.464   7.613 -1.2495 -0.7153  0.1740
 2468TIP3   OH228962   1.827   5.149   0.682  0.3456 -0.2655  0.2334
 2468TIP3    H128963   1.830   5.242   0.705  0.2498 -0.4960  1.2458
 2468TIP3    H228964   1.793   5.147   0.593  1.8441  0.7538 -0.3989
 2469TIP3   OH228965   4.226   4.069   0.702  0.1741  0.2070 -0.4781
 2469TIP3    H128966   4.278   4.089   0.623  0.0890  2.6117  0.0062
 2469TIP3    H228967   4.275   3.998   0.744  3.1572  2.2989 -0.0685
 2470TIP3   OH228968   1.370   4.599   0.734 -0.1722  0.3537 -0.0233
 2470TIP3    H128969   1.380   4.504   0.731 -0.1128  0.3841 -1.3464
 2470TIP3    H228970   1.329   4.621   0.650 -0.5449  1.4588  0.4313
 2471TIP3   OH228971   0.088   3.756   2.146 -0.3414 -0.2049  0.0086
 2471TIP3    H128972   0.184   3.758   2.146 -0.2901 -1.4730 -0.4244
 2471TIP3    H228973   0.063   3.806   2.068  0.0025 -0.5249 -0.3132
 2472TIP3   OH228974   6.404   5.065   8.246  0.2848  0.1863 -0.1401
 2472TIP3    H128975   6.497   5.057   8.266  0.2029  1.5694  0.9509
 2472TIP3    H228976   6.388   5.159   8.243 -1.0338 -0.0264 -0.5771
 2473TIP3   OH228977   6.660   1.520   0.337 -0.1552 -0.2819 -0.1421
 2473TIP3    H128978   6.575   1.562   0.350  0.1980  0.2256  0.6264
 2473TIP3    H228979   6.714   1.586   0.293  0.1827 -0.1767  0.4168
 2474TIP3   OH228980   1.016   0.770   1.625 -0.7395 -0.1521  0.0464
 2474TIP3    H128981   1.022   0.856   1.665 -1.6754  0.9744 -2.0588
 2474TIP3    H228982   0.945   0.726   1.671 -1.4816  0.9173 -0.0547
 2475TIP3   OH228983   5.324   0.603   8.303  0.4991  0.5165  0.8783
 2475TIP3    H128984   5.241   0.631   8.266  0.2577  0.1597  1.1395
 2475TIP3    H228985   5.390   0.645   8.248  0.1490  1.0635  0.8745
 2476TIP3   OH228986   6.438   1.558   1.324 -0.8122 -0.4246 -0.8848
 2476TIP3    H128987   6.364   1.514   1.282 -1.3945 -0.0268 -0.3031
 2476TIP3    H228988   6.510   1.496   1.318 -1.8546 -1.8805  0.7823
 2477TIP3   OH228989   5.053   0.855   8.565  0.2820 -0.3498 -0.1204
 2477TIP3    H128990   5.104   0.896   8.495  0.6601  1.2162  1.0222
 2477TIP3    H228991   5.119   0.813   8.621  0.2012  0.2620  0.4523
 2478TIP3   OH228992   0.551   4.262   1.716 -0.9256 -0.0576 -0.0997
 2478TIP3    H128993   0.602   4.285   1.794  0.1630 -0.5752 -0.6422
 2478TIP3    H228994   0.483   4.203   1.749 -0.6340 -0.0668  0.5022
 2479TIP3   OH228995   3.805   1.212   8.721 -0.0501 -0.4137  0.6575
 2479TIP3    H128996   3.745   1.286   8.713  1.9498  1.4099  1.7533
 2479TIP3    H228997   3.789   1.177   8.808  0.1325 -0.2434  0.7593
 2480TIP3   OH228998   0.692   3.987   2.034 -0.3313 -0.1690  0.3807
 2480TIP3    H128999   0.621   4.051   2.039  0.7779  1.2309 -0.8806
 2480TIP3    H229000   0.679   3.943   1.950  1.2236  1.3322 -0.7159
 2481TIP3   OH229001   2.645   1.791   0.455 -0.3942  0.6994  0.2204
 2481TIP3    H129002   2.603   1.876   0.462  0.7663  1.1202  4.1053
 2481TIP3    H229003   2.718   1.795   0.516  1.3063 -2.2503 -1.3906
 2482TIP3   OH229004   5.004   0.171   7.346  0.0895 -0.2653  0.3691
 2482TIP3    H129005   4.938   0.240   7.355  0.9171  0.3167  2.7510
 2482TIP3    H229006   4.969   0.112   7.278 -1.5118  1.4840 -0.4035
 2483TIP3   OH229007   0.211   5.950   2.676 -0.1934 -0.0012 -0.0467
 2483TIP3    H129008   0.229   5.910   2.761 -1.5859 -1.8187 -0.5400
 2483TIP3    H229009   0.206   6.044   2.695 -0.0708 -0.3238  1.7985
 2484TIP3   OH229010   5.920   2.409   7.876  0.3353  0.2518  0.2615
 2484TIP3    H129011   5.910   2.502   7.898  3.3931  0.6668  0.3358
 2484TIP3    H229012   5.990   2.407   7.811 -0.3577 -1.9607 -0.5054
 2485TIP3   OH229013   5.389   2.205   7.407  0.6547  0.0963 -0.6146
 2485TIP3    H129014   5.439   2.251   7.340  0.4258  1.3880  0.0535
 2485TIP3    H229015   5.298   2.228   7.389  0.5284 -0.1582 -0.3162
 2486TIP3   OH229016   0.708   3.260   1.772  0.4022 -0.6758  0.1699
 2486TIP3    H129017   0.758   3.340   1.790 -0.6422  0.3549 -1.2441
 2486TIP3    H229018   0.630   3.268   1.828 -0.8590  0.5297 -1.6367
 2487TIP3   OH229019   5.035   5.995   1.518  0.3625 -0.2435  0.3238
 2487TIP3    H129020   5.129   6.005   1.533  0.0621  2.6865  0.9755
 2487TIP3    H229021   5.008   5.924   1.577  1.2352  3.0684  5.3224
 2488TIP3   OH229022   3.134   1.809   1.472  0.2831 -0.0340 -0.4461
 2488TIP3    H129023   3.128   1.746   1.545  0.7450  1.1966  0.7034
 2488TIP3    H229024   3.228   1.812   1.451  0.3917  0.8785  0.0978
 2489TIP3   OH229025   5.700   4.305   2.509 -0.0499 -0.1092 -0.2814
 2489TIP3    H129026   5.734   4.391   2.534 -1.7841  0.7059 -0.5678
 2489TIP3    H229027   5.659   4.271   2.589 -0.8934  0.1295 -0.5945
 2490TIP3   OH229028   1.074   3.278   1.955  0.3668  0.2429 -0.0569
 2490TIP3    H129029   1.011   3.229   2.008  2.0841 -1.2876  0.6526
 2490TIP3    H229030   1.035   3.279   1.867 -0.8362 -0.2728  0.4459
 2491TIP3   OH229031   4.045   6.223   2.710  1.0526 -0.4883  0.3786
 2491TIP3    H129032   4.009   6.198   2.796  1.1900 -2.4345 -0.0908
 2491TIP3    H229033   4.019   6.315   2.700  0.1165 -0.5218  2.0309
 2492TIP3   OH229034   3.874   2.194   7.625  0.1146  0.0282  0.3818
 2492TIP3    H129035   3.859   2.278   7.669  0.1487 -0.1850  0.7997
 2492TIP3    H229036   3.854   2.128   7.691 -1.1192 -0.3212 -0.3253
 2493TIP3   OH229037   5.508   2.491   3.144 -0.0557  0.2967 -0.5800
 2493TIP3    H129038   5.513   2.574   3.096  1.1124 -0.2458 -1.4387
 2493TIP3    H229039   5.569   2.502   3.217 -1.2446  0.8329  0.3564
 2494TIP3   OH229040   1.072   3.806   1.359  0.9732 -0.9944  0.6928
 2494TIP3    H129041   0.998   3.828   1.415  0.1607 -0.7616 -0.4224
 2494TIP3    H229042   1.128   3.884   1.361 -0.6329  0.2869 -1.2528
 2495TIP3   OH229043   3.295   5.935   8.477  0.5811 -0.4667  0.6878
 2495TIP3    H129044   3.286   5.943   8.382  0.5033 -3.0325  0.4120
 2495TIP3    H229045   3.208   5.952   8.512  0.4415 -0.2589  0.2410
 2496TIP3   OH229046   2.968   0.832   2.719 -0.2247 -0.2471  0.0460
 2496TIP3    H129047   3.032   0.891   2.759 -2.1725  0.8423  1.7638
 2496TIP3    H229048   2.950   0.767   2.787 -0.9539 -0.5106 -0.3887
 2497TIP3   OH229049   4.825   3.207   1.978  0.4554  0.2883  0.2632
 2497TIP3    H129050   4.838   3.290   1.933  0.3869  0.8963  1.3331
 2497TIP3    H229051   4.736   3.181   1.955  1.0361 -0.3601 -1.4208
 2498TIP3   OH229052   3.621   2.385   7.797  0.3792  0.3923 -0.4107
 2498TIP3    H129053   3.570   2.305   7.785  0.4389  0.4382 -1.0029
 2498TIP3    H229054   3.556   2.452   7.817  0.0991  0.6452 -2.0866
 2499TIP3   OH229055   5.947   5.886   1.660  0.0584  0.0656 -0.1863
 2499TIP3    H129056   5.917   5.811   1.609  3.4275 -1.4221 -0.2088
 2499TIP3    H229057   5.956   5.853   1.749  2.9550 -0.1111 -0.4530
 2500TIP3   OH229058   4.074   6.625   1.867 -0.3242  0.0103  0.5620
 2500TIP3    H129059   4.099   6.561   1.934 -1.2559 -0.0037  0.9049
 2500TIP3    H229060   4.107   6.709   1.901 -0.5184 -0.0443  0.8859
 2501TIP3   OH229061   3.372   6.809   1.224  0.1364 -0.2923  0.0226
 2501TIP3    H129062   3.417   6.814   1.309  0.3834 -0.2096 -0.1106
 2501TIP3    H229063   3.402   6.887   1.177  1.3008 -1.1738 -0.7622
 2502TIP3   OH229064   6.289   2.447   1.004  0.0028 -0.8809 -0.3175
 2502TIP3    H129065   6.349   2.381   1.038 -1.1333 -1.4254  0.6958
 2502TIP3    H229066   6.262   2.497   1.081 -1.7389 -1.3926 -0.5597
 2503TIP3   OH229067   4.758   1.785   1.005  0.1623  0.3096  0.3072
 2503TIP3    H129068   4.807   1.746   0.933  0.3762  1.5499 -0.2434
 2503TIP3    H229069   4.799   1.750   1.084  1.6648  0.9773 -0.1427
 2504TIP3   OH229070   4.204   3.479   0.474 -0.3754  0.3524 -0.3931
 2504TIP3    H129071   4.147   3.441   0.407 -0.4820  1.0095 -0.6789
 2504TIP3    H229072   4.144   3.516   0.539 -0.2732  0.3621 -0.3041
 2505TIP3   OH229073   2.377   0.187   0.774  0.2557 -0.3319 -0.0604
 2505TIP3    H129074   2.292   0.158   0.741 -0.1242 -0.5336  1.0554
 2505TIP3    H229075   2.393   0.270   0.728 -0.1576 -0.6962 -0.8822
 2506TIP3   OH229076   4.829   4.369   2.212 -0.2051 -0.4016  0.8649
 2506TIP3    H129077   4.756   4.414   2.170  0.6080 -0.8708 -1.1801
 2506TIP3    H229078   4.870   4.318   2.142  0.7748 -1.8882  2.4128
 2507TIP3   OH229079   3.908   2.700   7.049 -0.4341 -0.0471  0.0403
 2507TIP3    H129080   3.993   2.746   7.048 -0.5590  0.1895  0.1292
 2507TIP3    H229081   3.869   2.720   6.964 -0.3788 -0.1996 -0.0216
 2508TIP3   OH229082   1.176   4.303   8.602  0.8586  0.3316 -0.0110
 2508TIP3    H129083   1.239   4.275   8.668 -0.0503  1.5620  1.4316
 2508TIP3    H229084   1.192   4.397   8.591 -0.1128  0.4769 -0.2856
 2509TIP3   OH229085   5.176   5.968   0.847 -0.1291  0.0349  0.1076
 2509TIP3    H129086   5.137   5.895   0.897 -0.7679  1.1667  1.3237
 2509TIP3    H229087   5.108   5.994   0.785 -0.5660  0.6956  0.8493
 2510TIP3   OH229088   2.981   5.293   2.834 -0.2582 -0.3315  0.3902
 2510TIP3    H129089   3.061   5.265   2.879  0.7847  0.7390 -0.6912
 2510TIP3    H229090   2.977   5.237   2.757 -0.2585 -0.0473  0.1814
 2511TIP3   OH229091   5.024   2.403   7.144 -0.4682 -0.6979  0.5261
 2511TIP3    H129092   4.976   2.326   7.114 -1.0401 -0.2663  0.2996
 2511TIP3    H229093   5.014   2.466   7.072  1.0823 -0.8486  0.1318
 2512TIP3   OH229094   2.370   3.556   1.357 -0.2913 -1.2388  0.2436
 2512TIP3    H129095   2.298   3.551   1.420  0.4071 -0.1631  1.1800
 2512TIP3    H229096   2.436   3.495   1.390  0.4567 -0.0130  1.1257
 2513TIP3   OH229097   6.436   3.065   0.443  0.2679  0.0814  0.1463
 2513TIP3    H129098   6.477   2.992   0.489 -0.4482 -0.8276 -0.6261
 2513TIP3    H229099   6.410   3.126   0.513  3.4775  1.0773  0.6582
 2514TIP3   OH229100   3.269   0.056   8.720 -0.0220 -0.1251 -0.5608
 2514TIP3    H129101   3.212   0.035   8.646  0.2081 -0.6800 -0.5866
 2514TIP3    H229102   3.253  -0.014   8.783  0.2998 -0.0403 -0.3805
 2515TIP3   OH229103   5.390   4.134   7.051 -0.2695  0.5806 -0.1058
 2515TIP3    H129104   5.471   4.090   7.028 -0.3317  0.5698 -0.3019
 2515TIP3    H229105   5.340   4.138   6.969  0.0427  1.6557 -0.2571
 2516TIP3   OH229106   5.605   6.195   0.949 -0.6120 -0.1640  0.0808
 2516TIP3    H129107   5.528   6.154   0.909 -0.5153 -0.1416 -0.1283
 2516TIP3    H229108   5.675   6.130   0.938 -0.7409 -0.4267  0.7871
 2517TIP3   OH229109   2.532   5.583   0.296 -0.2391 -0.2321 -0.2056
 2517TIP3    H129110   2.480   5.523   0.349  0.0184  0.3202  0.7043
 2517TIP3    H229111   2.621   5.575   0.331 -0.1457  0.4346 -0.2727
 2518TIP3   OH229112   2.677   5.828   8.607  0.1736  0.0560  0.1342
 2518TIP3    H129113   2.621   5.778   8.547  0.6718 -1.2336  0.7049
 2518TIP3    H229114   2.729   5.883   8.549  0.3923 -0.9088 -0.6248
 2519TIP3   OH229115   2.794   3.290   1.212 -0.0012  0.7024  0.1602
 2519TIP3    H129116   2.715   3.310   1.161 -2.1524 -0.3852  2.7813
 2519TIP3    H229117   2.781   3.200   1.242  1.8906  0.7563  1.3151
 2520TIP3   OH229118   6.616   5.528   0.121 -0.1644  0.2493 -0.0559
 2520TIP3    H129119   6.607   5.578   0.202 -0.2765  0.1368  0.0007
 2520TIP3    H229120   6.594   5.438   0.145  1.6972 -0.1605  0.2278
 2521TIP3   OH229121   5.426   4.615   7.273 -0.3404  0.3617  0.2974
 2521TIP3    H129122   5.360   4.668   7.316  0.0423  0.7379  0.4222
 2521TIP3    H229123   5.466   4.674   7.209  0.4157  0.3722  0.7697
 2522TIP3   OH229124   1.379   6.451   1.506  0.3935  0.6769  0.7227
 2522TIP3    H129125   1.463   6.495   1.490 -0.3529  1.2116 -2.3086
 2522TIP3    H229126   1.402   6.359   1.514  1.4205  0.9850  1.5315
 2523TIP3   OH229127   0.810   6.439   8.103 -0.6293  0.3439  0.3195
 2523TIP3    H129128   0.880   6.457   8.166 -0.1236 -1.3778  0.3023
 2523TIP3    H229129   0.751   6.380   8.150 -1.4694  0.8736 -0.0569
 2524TIP3   OH229130   3.160   2.807   2.497 -0.3851  0.0972 -0.6582
 2524TIP3    H129131   3.224   2.871   2.464  2.1013 -1.0497  1.5574
 2524TIP3    H229132   3.128   2.845   2.578 -0.6820 -0.4419 -0.5194
 2525TIP3   OH229133   5.486   0.117   1.490  0.4627  0.6267 -0.3626
 2525TIP3    H129134   5.478   0.157   1.404 -1.0489  0.8998 -0.1109
 2525TIP3    H229135   5.403   0.135   1.533  0.2202 -1.6104  0.2477
 2526TIP3   OH229136   5.748   1.605   2.952  0.4616 -0.6636 -0.1180
 2526TIP3    H129137   5.802   1.626   2.876 -0.8829  0.3009 -0.8521
 2526TIP3    H229138   5.658   1.619   2.922 -0.2869 -2.9431  0.8269
 2527TIP3   OH229139   4.492   5.238   7.366  0.0305  0.2144  0.0823
 2527TIP3    H129140   4.454   5.258   7.452 -0.2009  0.8574 -0.1608
 2527TIP3    H229141   4.416   5.216   7.311  0.3142 -1.9689  0.4814
 2528TIP3   OH229142   2.658   4.160   8.170  0.0435 -0.1190  0.3581
 2528TIP3    H129143   2.717   4.085   8.162  1.1481  0.8762 -1.6532
 2528TIP3    H229144   2.571   4.124   8.157  0.5430 -1.1063 -0.3319
 2529TIP3   OH229145   4.064   5.915   2.550  0.0393  0.5980 -0.0671
 2529TIP3    H129146   4.080   5.834   2.502  1.6484  0.2122  1.0554
 2529TIP3    H229147   4.141   5.926   2.606 -0.9977  1.9141  1.1836
 2530TIP3   OH229148   6.433   0.971   8.608  0.2156  0.3282  0.2873
 2530TIP3    H129149   6.365   0.903   8.609  0.7244 -0.1927  0.1592
 2530TIP3    H229150   6.386   1.052   8.589 -0.2480 -0.1755 -0.7948
 2531TIP3   OH229151   0.193   2.742   1.689  0.1605  0.2627 -0.3080
 2531TIP3    H129152   0.224   2.830   1.709 -2.5551  1.5173 -1.1808
 2531TIP3    H229153   0.109   2.734   1.734  1.4926 -2.9952  2.0447
 2532TIP3   OH229154   4.780   0.058   2.092 -0.1289 -0.5802 -0.4987
 2532TIP3    H129155   4.809  -0.030   2.116  1.2749 -0.5038 -1.7393
 2532TIP3    H229156   4.706   0.044   2.033 -0.5983 -0.8797  0.1507
 2533TIP3   OH229157   0.144   3.426   0.545 -0.1385 -0.0521  0.3785
 2533TIP3    H129158   0.138   3.521   0.536  1.0398  0.1946  1.7714
 2533TIP3    H229159   0.164   3.395   0.457  1.8158  1.2525  0.2994
 2534TIP3   OH229160   6.676   1.591   2.144 -0.1523  0.4064  0.5458
 2534TIP3    H129161   6.635   1.617   2.227  0.1387 -1.9063  1.5058
 2534TIP3    H229162   6.694   1.673   2.099  0.2356  1.8001  3.0593
 2535TIP3   OH229163   1.157   2.461   8.349  0.2631 -0.0483 -0.3236
 2535TIP3    H129164   1.243   2.441   8.386  0.3995  0.8754 -0.1298
 2535TIP3    H229165   1.100   2.391   8.382  0.6308  0.1218  0.7201
 2536TIP3   OH229166   2.915   3.940   7.709  0.4552 -0.4001 -0.0599
 2536TIP3    H129167   2.837   3.938   7.654 -1.6275  0.0322  2.6662
 2536TIP3    H229168   2.973   4.003   7.667 -1.4894  0.7239 -1.1573
 2537TIP3   OH229169   5.581   0.242   2.170 -0.1312 -0.3518  0.0692
 2537TIP3    H129170   5.648   0.236   2.102 -0.4091  0.0864 -0.2551
 2537TIP3    H229171   5.498   0.236   2.122 -0.3405  0.7353  0.2710
 2538TIP3   OH229172   6.698   4.183   8.296 -0.0022 -0.2007 -0.0639
 2538TIP3    H129173   6.671   4.119   8.229  0.8513  0.4250 -1.0330
 2538TIP3    H229174   6.672   4.143   8.379  1.4722 -2.3242 -0.5487
 2539TIP3   OH229175   2.390   3.694   8.303  0.4809  0.1138  0.1035
 2539TIP3    H129176   2.482   3.703   8.276  0.1990  1.2071 -0.5227
 2539TIP3    H229177   2.342   3.682   8.222 -0.2059  2.0218  0.1816
 2540TIP3   OH229178   0.647   5.711   3.117 -0.1459 -0.2007 -0.5708
 2540TIP3    H129179   0.688   5.792   3.087 -0.1576 -0.1633 -0.4876
 2540TIP3    H229180   0.698   5.687   3.195 -0.8705  0.3493  0.0860
 2541TIP3   OH229181   4.525   0.061   8.067  0.0701  0.1351 -0.6555
 2541TIP3    H129182   4.479   0.064   7.984 -1.0829  1.1340 -0.0058
 2541TIP3    H229183   4.461   0.092   8.131  0.8000 -0.9890  0.6649
 2542TIP3   OH229184   1.512   1.659   8.413  0.5128 -0.4570 -0.0914
 2542TIP3    H129185   1.495   1.576   8.457  0.6278 -1.0760 -1.2059
 2542TIP3    H229186   1.529   1.720   8.485  1.1359 -1.5422  0.7123
 2543TIP3   OH229187   1.063   6.136   1.404  0.3283  0.0846  0.3190
 2543TIP3    H129188   0.975   6.163   1.430  0.0760 -1.0511  0.7106
 2543TIP3    H229189   1.076   6.175   1.318 -0.4040  0.5762  0.4188
 2544TIP3   OH229190   0.040   2.598   0.705  0.0016 -0.3115 -0.6109
 2544TIP3    H129191   0.109   2.579   0.769 -0.1288  1.2761  0.0520
 2544TIP3    H229192   0.070   2.558   0.624  1.2182 -0.5140 -0.0736
 2545TIP3   OH229193   1.700   4.909   1.609  0.5847 -0.0572  0.1808
 2545TIP3    H129194   1.785   4.881   1.643  1.7054 -0.7773 -2.8733
 2545TIP3    H229195   1.719   4.988   1.559 -0.5232 -0.2599 -0.5881
 2546TIP3   OH229196   3.009   3.562   0.895  0.2906  0.1791 -0.6496
 2546TIP3    H129197   3.059   3.551   0.814  0.4173  1.8093 -0.8246
 2546TIP3    H229198   2.933   3.614   0.869  0.7156  1.3630  0.4063
 2547TIP3   OH229199   0.129   6.033   8.456 -0.2785  1.4042  0.1560
 2547TIP3    H129200   0.155   5.992   8.374  1.6132  1.2879  0.7685
 2547TIP3    H229201   0.085   6.114   8.430 -0.1515  1.1239 -0.9677
 2548TIP3   OH229202   6.350   3.224   7.905  0.0467  0.1820  0.3599
 2548TIP3    H129203   6.303   3.224   7.821  1.5475 -0.0688 -0.5197
 2548TIP3    H229204   6.423   3.284   7.891 -0.3233  1.0418  1.9062
 2549TIP3   OH229205   4.870   5.722   1.671  0.4570  0.1827 -0.1597
 2549TIP3    H129206   4.821   5.803   1.656 -0.1150  0.2611  1.8330
 2549TIP3    H229207   4.810   5.653   1.645 -0.0171  0.3465  0.4557
 2550TIP3   OH229208   5.089   4.329   3.297 -0.1045 -1.1853  0.0999
 2550TIP3    H129209   5.147   4.292   3.363 -0.0455  0.2800  0.9159
 2550TIP3    H229210   5.088   4.264   3.227  2.3511 -1.3801  0.1471
 2551TIP3   OH229211   2.819   2.949   1.773 -0.5528  0.2391  0.2846
 2551TIP3    H129212   2.822   2.971   1.866  0.4313  0.7305  0.1539
 2551TIP3    H229213   2.909   2.923   1.752 -1.0003 -0.8780 -0.2939
 2552TIP3   OH229214   6.135   0.196   7.163  0.3417 -0.0720  0.0983
 2552TIP3    H129215   6.078   0.273   7.165  1.5111  0.8763 -0.9991
 2552TIP3    H229216   6.077   0.122   7.181 -0.8150  1.0570  1.2030
 2553TIP3   OH229217   1.942   0.354   0.813  0.2402 -0.3296  0.0528
 2553TIP3    H129218   2.012   0.416   0.795 -0.5631  0.9370  1.1401
 2553TIP3    H229219   1.906   0.381   0.898 -0.6013 -1.8474  0.2296
 2554TIP3   OH229220   3.436   6.139   0.247 -0.8715 -0.1950  0.3511
 2554TIP3    H129221   3.482   6.161   0.166  1.1386 -1.7729  0.9825
 2554TIP3    H229222   3.425   6.222   0.292  1.3302  0.2905  0.1054
 2555TIP3   OH229223   6.637   2.083   1.150 -0.3044  0.2116  0.0443
 2555TIP3    H129224   6.659   1.992   1.129  1.4787  0.8195 -0.9502
 2555TIP3    H229225   6.722   2.126   1.158 -1.1088  2.2624 -1.6370
 2556TIP3   OH229226   2.345   0.547   0.060 -0.1026 -0.5274 -0.0607
 2556TIP3    H129227   2.375   0.632   0.092  0.6365 -1.0239  0.5901
 2556TIP3    H229228   2.283   0.569  -0.010 -0.1250  0.5461  0.2681
 2557TIP3   OH229229   4.216   3.329   7.013  0.3163 -0.4560 -0.1921
 2557TIP3    H129230   4.311   3.323   7.009  0.3108 -1.1484  0.4313
 2557TIP3    H229231   4.185   3.246   6.979 -0.0792 -0.1298 -0.6437
 2558TIP3   OH229232   4.856   1.296   8.350  0.2330 -0.5161  0.5607
 2558TIP3    H129233   4.874   1.361   8.418  2.4538 -0.2298 -0.2188
 2558TIP3    H229234   4.765   1.314   8.324  0.5726  1.8959  0.8090
 2559TIP3   OH229235   0.819   3.442   0.411 -0.2400 -0.4659  0.0128
 2559TIP3    H129236   0.845   3.402   0.494 -1.9518  0.5522  1.0988
 2559TIP3    H229237   0.755   3.382   0.374  0.5173 -0.9154 -0.5902
 2560TIP3   OH229238   4.467   6.258   1.477 -0.0429  0.0184  0.2449
 2560TIP3    H129239   4.509   6.284   1.560  0.3164 -1.7065  0.6337
 2560TIP3    H229240   4.396   6.200   1.503  0.5179 -1.1171 -0.6885
 2561TIP3   OH229241   4.640   3.982   7.795 -0.1680  0.0382 -0.1126
 2561TIP3    H129242   4.666   4.072   7.776 -0.6501  0.3992  0.8348
 2561TIP3    H229243   4.681   3.929   7.726 -0.4631  1.0560 -1.0970
 2562TIP3   OH229244   6.286   4.747   1.885 -0.3057 -0.4057  0.4395
 2562TIP3    H129245   6.250   4.753   1.974 -0.8595  1.0285  0.1471
 2562TIP3    H229246   6.256   4.827   1.842  0.3666 -0.8507 -0.8965
 2563TIP3   OH229247   2.501   2.018   2.021  0.0844 -0.3558 -0.2045
 2563TIP3    H129248   2.534   2.043   1.935  1.4197 -1.8205 -0.1587
 2563TIP3    H229249   2.579   2.012   2.076 -0.7374  0.4582  1.1001
 2564TIP3   OH229250   2.449   4.258   2.767  0.0855 -0.0252  0.2311
 2564TIP3    H129251   2.419   4.349   2.764  0.2261  0.0145  0.0559
 2564TIP3    H229252   2.392   4.217   2.833  0.9272  0.5295  1.3496
 2565TIP3   OH229253   0.209   5.046   2.037 -0.5664  0.0065 -0.0168
 2565TIP3    H129254   0.142   4.992   1.993 -0.8936  0.7364 -0.4371
 2565TIP3    H229255   0.240   5.105   1.969 -1.2610  1.3341  0.7805
 2566TIP3   OH229256   4.774   1.468   0.673 -0.3137 -0.0302 -0.3138
 2566TIP3    H129257   4.845   1.488   0.734  2.0562 -0.4417 -2.7040
 2566TIP3    H229258   4.751   1.377   0.691  1.0359 -0.4517 -0.5756
 2567TIP3   OH229259   2.006   5.147   8.081 -0.1093 -0.2054 -0.4509
 2567TIP3    H129260   2.071   5.200   8.035  2.6425 -1.7009  1.4108
 2567TIP3    H229261   2.056   5.072   8.114 -3.2750 -2.6503 -0.7508
 2568TIP3   OH229262   5.909   1.144   7.518 -0.4929  0.1198  1.1138
 2568TIP3    H129263   5.879   1.090   7.445  1.9280 -1.4973  1.2058
 2568TIP3    H229264   5.860   1.111   7.594  0.3962 -1.5322  1.0274
 2569TIP3   OH229265   1.249   0.080   8.484 -0.0091  0.0054  0.2171
 2569TIP3    H129266   1.233   0.052   8.574 -1.4452  0.6569  0.1849
 2569TIP3    H229267   1.342   0.104   8.482  0.5874 -2.0278  0.9513
 2570TIP3   OH229268   2.244   4.472   2.644  0.8968 -0.5203 -0.2665
 2570TIP3    H129269   2.217   4.518   2.723 -0.0933 -0.5809 -0.5508
 2570TIP3    H229270   2.245   4.539   2.576 -2.1077 -1.0936 -1.0390
 2571TIP3   OH229271   3.193   1.988   0.325  0.5382  0.7063 -0.4320
 2571TIP3    H129272   3.158   1.959   0.410 -0.0135  0.5775 -0.6960
 2571TIP3    H229273   3.117   1.986   0.267  0.7532  1.5171 -0.7512
 2572TIP3   OH229274   3.260   4.241   7.989 -0.2251  0.1653 -0.6926
 2572TIP3    H129275   3.252   4.287   7.906 -0.4062  0.3419 -0.5785
 2572TIP3    H229276   3.267   4.310   8.055 -1.9653  0.0750 -0.3676
 2573TIP3   OH229277   1.836   4.068   0.637 -0.5888 -0.2501 -0.0621
 2573TIP3    H129278   1.822   3.988   0.586 -0.3793  0.1805 -0.8155
 2573TIP3    H229279   1.789   4.136   0.588  1.5498  0.6393 -0.9905
 2574TIP3   OH229280   6.547   2.398   1.562  0.0145 -0.2589 -0.5174
 2574TIP3    H129281   6.577   2.397   1.472 -0.6477 -0.0383 -0.7521
 2574TIP3    H229282   6.599   2.332   1.607  1.6059  0.8651 -0.6437
 2575TIP3   OH229283   6.077   5.094   1.366  0.3789  0.1493  0.7263
 2575TIP3    H129284   6.139   5.112   1.295  0.4382 -1.0797  0.4405
 2575TIP3    H229285   6.096   5.004   1.391 -0.7758  0.0165  1.1676
 2576TIP3   OH229286   3.006   3.317   1.747 -0.3796 -0.3859 -0.8065
 2576TIP3    H129287   3.087   3.358   1.778 -0.3737 -0.7522 -0.3293
 2576TIP3    H229288   2.938   3.355   1.804 -0.4468 -0.6187 -0.7320
 2577TIP3   OH229289   5.119   1.272   1.232  0.3325 -0.1146 -0.2597
 2577TIP3    H129290   5.034   1.312   1.219  0.1346  1.3696  4.0092
 2577TIP3    H229291   5.100   1.190   1.278  1.1427  0.0981  0.4824
 2578TIP3   OH229292   4.456   6.254   8.112  0.0767  0.3588  0.2685
 2578TIP3    H129293   4.464   6.350   8.106 -0.7395  0.4252  0.0805
 2578TIP3    H229294   4.382   6.233   8.055  0.6688 -0.4671 -0.2294
 2579TIP3   OH229295   0.048   5.583   1.140 -0.0590 -0.5621 -0.2676
 2579TIP3    H129296  -0.034   5.576   1.189  0.4489  2.7849  1.3352
 2579TIP3    H229297   0.031   5.652   1.076  1.2121 -0.5270 -0.5895
 2580TIP3   OH229298   3.533   4.915   3.083 -0.3764  0.1266  0.2557
 2580TIP3    H129299   3.530   4.976   3.009 -1.6305  1.1875  1.1482
 2580TIP3    H229300   3.616   4.868   3.071  0.0693  1.1789 -1.0946
 2581TIP3   OH229301   5.615   4.672   0.976 -0.1594 -0.0338  0.2815
 2581TIP3    H129302   5.644   4.643   0.889  1.8029 -1.7775  1.4113
 2581TIP3    H229303   5.658   4.756   0.989  0.0338 -0.0574 -0.1912
 2582TIP3   OH229304   5.209   1.926   0.718  0.0979  0.1337  0.1836
 2582TIP3    H129305   5.134   1.875   0.686  0.7204 -0.3374 -0.5458
 2582TIP3    H229306   5.199   1.926   0.813  0.9395 -2.7200  0.3626
 2583TIP3   OH229307   1.578   2.063   0.093 -0.2470  0.2698  0.0286
 2583TIP3    H129308   1.651   2.102   0.047  0.0642  0.2680  0.5134
 2583TIP3    H229309   1.599   1.969   0.098 -0.4990  0.1972 -0.2280
 2584TIP3   OH229310   5.852   2.882   6.955  0.3821 -0.2756 -0.5478
 2584TIP3    H129311   5.899   2.806   6.921  0.1887 -1.1976  1.1435
 2584TIP3    H229312   5.776   2.846   6.999  0.4079  0.8672  0.4851
 2585TIP3   OH229313   6.023   4.957   7.181  0.0861 -0.3247 -0.0449
 2585TIP3    H129314   6.075   4.921   7.110 -2.8496  0.6473 -2.9026
 2585TIP3    H229315   6.060   5.044   7.197  0.4230 -0.3268 -0.8114
 2586TIP3   OH229316   2.404   0.140   2.380  0.1833 -0.4312 -0.6305
 2586TIP3    H129317   2.471   0.183   2.433  0.1381 -0.7381 -0.3172
 2586TIP3    H229318   2.344   0.210   2.356  0.9599 -0.0372 -1.4519
 2587TIP3   OH229319   5.163   2.873   7.843 -0.0432  0.1470  0.0340
 2587TIP3    H129320   5.146   2.966   7.857 -0.2585  0.0243  0.6377
 2587TIP3    H229321   5.203   2.844   7.925  1.2424 -0.0070 -0.6221
 2588TIP3   OH229322   0.476   2.532   8.686  0.4512 -0.0936  0.3184
 2588TIP3    H129323   0.459   2.541   8.592 -3.0168  1.6386  0.9556
 2588TIP3    H229324   0.438   2.448   8.710  0.0251  0.1223  0.4037
 2589TIP3   OH229325   3.527   6.536   0.881  0.1576 -0.4862  0.0176
 2589TIP3    H129326   3.488   6.455   0.848  1.0583 -0.6730 -0.6464
 2589TIP3    H229327   3.615   6.510   0.909  0.4408  0.2474 -0.1731
 2590TIP3   OH229328   3.875   1.010   2.033  0.9303  0.1394 -0.1605
 2590TIP3    H129329   3.790   0.966   2.033  0.7131  0.5336 -0.8287
 2590TIP3    H229330   3.904   1.004   1.942  1.6663 -0.0807  0.0890
 2591TIP3   OH229331   0.120   0.182   2.391  0.4510  0.0625 -0.1838
 2591TIP3    H129332   0.098   0.095   2.357  0.3392 -0.5267  1.3138
 2591TIP3    H229333   0.131   0.169   2.485  1.0152  1.5695 -0.0127
 2592TIP3   OH229334   2.773   3.660   0.188 -0.0368  0.5534  0.3899
 2592TIP3    H129335   2.821   3.694   0.112  0.0011 -0.8812 -0.2539
 2592TIP3    H229336   2.688   3.705   0.184  0.2516  1.0664 -0.0587
 2593TIP3   OH229337   6.070   3.142   7.945  0.0065  0.1393  0.1656
 2593TIP3    H129338   6.139   3.206   7.964 -0.9368  0.9199  1.0321
 2593TIP3    H229339   5.991   3.180   7.982 -1.1404 -0.2300 -1.7520
 2594TIP3   OH229340   4.874   5.384   6.760  0.3717  0.3392  0.0459
 2594TIP3    H129341   4.918   5.319   6.705  1.4951  0.9346  0.2256
 2594TIP3    H229342   4.895   5.468   6.721 -1.2264  0.6135 -0.2852
 2595TIP3   OH229343   1.641   0.234   0.494  0.6543  0.6217  0.0855
 2595TIP3    H129344   1.619   0.308   0.550  0.1880  1.3888 -1.0780
 2595TIP3    H229345   1.630   0.157   0.550 -0.0347  1.3438  0.9669
 2596TIP3   OH229346   4.865   3.896   8.432  0.4281  0.5205  0.1424
 2596TIP3    H129347   4.857   3.961   8.363  1.3005  2.2924  1.6147
 2596TIP3    H229348   4.960   3.881   8.440  0.5397  1.9873  2.3205
 2597TIP3   OH229349   1.702   6.459   0.491 -0.7093  0.1382  0.0879
 2597TIP3    H129350   1.696   6.536   0.435 -1.2155  0.2623  0.3129
 2597TIP3    H229351   1.789   6.465   0.530  0.0979 -0.5278 -1.5036
 2598TIP3   OH229352   2.645   3.873   1.858 -0.3303  0.4849  0.3116
 2598TIP3    H129353   2.709   3.892   1.927 -0.0606  0.6233  0.0298
 2598TIP3    H229354   2.604   3.957   1.839 -0.2179  0.4991  0.1246
 2599TIP3   OH229355   5.015   5.941   7.496  0.4761  0.7303  0.2129
 2599TIP3    H129356   5.026   5.932   7.402 -0.4862  0.7201  0.0866
 2599TIP3    H229357   4.935   5.993   7.506 -0.6390 -1.0342  1.0211
 2600TIP3   OH229358   5.444   1.623   1.740 -0.0861  0.9662 -0.2888
 2600TIP3    H129359   5.408   1.574   1.814  0.8024  1.1520  0.2823
 2600TIP3    H229360   5.380   1.612   1.670  0.1996 -1.2127 -0.2612
 2601TIP3   OH229361   1.319   4.893   7.752  0.3366  0.0741 -0.3337
 2601TIP3    H129362   1.283   4.874   7.838  1.2147  1.7974  0.4536
 2601TIP3    H229363   1.394   4.834   7.743  0.7425  0.4687  0.4393
 2602TIP3   OH229364   4.654   3.506   7.695  0.5599 -0.2268  0.4241
 2602TIP3    H129365   4.686   3.417   7.710  0.8295  0.1213  2.0563
 2602TIP3    H229366   4.667   3.551   7.778  0.5586  1.3929 -0.4006
 2603TIP3   OH229367   1.100   2.857   8.341 -0.0882 -0.4454  0.1718
 2603TIP3    H129368   1.078   2.840   8.433  2.3419 -3.9103  0.2960
 2603TIP3    H229369   1.030   2.814   8.291 -1.1044  0.9532  0.3413
 2604TIP3   OH229370   0.998   5.663   8.470  0.2650  0.5086  0.3352
 2604TIP3    H129371   1.058   5.734   8.445  0.9635 -0.5262 -1.0298
 2604TIP3    H229372   0.956   5.637   8.388 -0.7309 -0.0225  0.9846
 2605TIP3   OH229373   3.549   5.823   8.168 -0.5935 -0.1002  0.1104
 2605TIP3    H129374   3.522   5.774   8.245  1.5243  1.1636  1.7624
 2605TIP3    H229375   3.492   5.900   8.167  1.1603  1.3576  2.2111
 2606TIP3   OH229376   6.568   3.889   1.958 -0.7549  0.4943  0.1985
 2606TIP3    H129377   6.528   3.924   2.038  1.0420  0.2139  1.2769
 2606TIP3    H229378   6.570   3.963   1.898 -0.4871  1.2177  1.0798
 2607TIP3   OH229379   4.121   0.495   8.582 -0.1033  0.0152  0.2499
 2607TIP3    H129380   4.092   0.493   8.673  1.4963 -0.9700  0.7774
 2607TIP3    H229381   4.131   0.589   8.562  0.1349  0.2193  1.2845
 2608TIP3   OH229382   6.731   6.057   1.894  0.3704  0.3569  0.7044
 2608TIP3    H129383   6.678   6.118   1.842 -0.2158 -0.4491  0.3271
 2608TIP3    H229384   6.699   6.068   1.983 -0.9016 -0.5434  0.3983
 2609TIP3   OH229385   2.355   0.463   8.475  0.2450 -0.1950  0.3489
 2609TIP3    H129386   2.286   0.404   8.504  1.1654 -0.7482  1.5201
 2609TIP3    H229387   2.436   0.415   8.490  1.1676  1.8647  2.9542
 2610TIP3   OH229388   4.161   1.496   8.648  0.6622 -1.1461 -0.1330
 2610TIP3    H129389   4.111   1.454   8.578  1.3842 -0.2494 -1.2226
 2610TIP3    H229390   4.233   1.436   8.666  0.9838 -0.9792 -0.8153
 2611TIP3   OH229391   0.947   1.289   2.213  0.3511 -0.7279 -0.1845
 2611TIP3    H129392   1.003   1.235   2.157 -0.1045 -1.5258  0.1094
 2611TIP3    H229393   0.891   1.226   2.258 -0.5637  0.0284 -0.2343
 2612TIP3   OH229394   5.354   6.510   2.684 -0.6574 -0.5723  0.3023
 2612TIP3    H129395   5.419   6.509   2.755 -1.0547 -2.6834  0.7217
 2612TIP3    H229396   5.286   6.571   2.714 -0.4248 -0.8185  1.3800
 2613TIP3   OH229397   5.890   4.253   7.708 -0.0316 -0.5010 -0.5487
 2613TIP3    H129398   5.880   4.313   7.635  1.0918  0.4997  0.0830
 2613TIP3    H229399   5.979   4.219   7.699 -0.1567 -0.9768 -0.0834
 2614TIP3   OH229400   3.164   1.506   6.954 -0.6366 -0.0666 -0.0862
 2614TIP3    H129401   3.153   1.564   6.879  0.6877 -0.6636 -0.7753
 2614TIP3    H229402   3.105   1.432   6.936 -0.5920 -0.0344 -0.3691
 2615TIP3   OH229403   1.360   4.070   8.003  0.3592  1.0767 -0.4287
 2615TIP3    H129404   1.370   4.165   8.013  1.7100  1.1024 -1.6838
 2615TIP3    H229405   1.326   4.058   7.915  0.6141  0.3761 -0.4399
 2616TIP3   OH229406   0.362   0.917   0.770  0.2725 -0.3654  0.1958
 2616TIP3    H129407   0.359   1.013   0.770 -2.0568 -0.3743  1.3836
 2616TIP3    H229408   0.298   0.891   0.704  0.3041 -1.1108  0.4519
 2617TIP3   OH229409   0.605   3.193   1.042  0.0581  0.6663  0.0583
 2617TIP3    H129410   0.681   3.248   1.061  0.3143 -0.1789  1.6576
 2617TIP3    H229411   0.641   3.107   1.022 -0.4578  0.0846  1.4673
 2618TIP3   OH229412   4.451   1.707   7.300  0.1391 -0.0074  0.5563
 2618TIP3    H129413   4.478   1.647   7.370 -0.5930  0.2941  1.1028
 2618TIP3    H229414   4.390   1.656   7.248  0.8742 -0.3148 -0.0209
 2619TIP3   OH229415   0.825   5.268   2.279  0.3967 -0.2167  0.4476
 2619TIP3    H129416   0.756   5.210   2.311  0.1151 -0.3477 -0.3608
 2619TIP3    H229417   0.793   5.356   2.295 -0.7540 -0.2255 -1.4162
 2620TIP3   OH229418   4.041   3.394   0.249 -0.1504  0.6210  0.4433
 2620TIP3    H129419   3.953   3.399   0.213  0.3219 -0.5609 -1.0033
 2620TIP3    H229420   4.091   3.459   0.200 -0.2701  1.5827  1.5444
 2621TIP3   OH229421   1.642   6.826   0.650 -0.4307 -0.3644  0.3974
 2621TIP3    H129422   1.657   6.859   0.738  0.7294  1.9075 -0.5831
 2621TIP3    H229423   1.729   6.811   0.614 -0.8138  0.5956 -1.0005
 2622TIP3   OH229424   0.918   5.956   7.276 -0.1652  0.0085  0.5399
 2622TIP3    H129425   0.909   5.990   7.187 -0.3657 -0.8504  0.2143
 2622TIP3    H229426   0.828   5.931   7.300  0.2255 -2.1214 -0.0140
 2623TIP3   OH229427   6.432   6.559   2.254  0.2243 -0.1489 -0.9075
 2623TIP3    H129428   6.417   6.517   2.338 -0.7330 -2.8984 -2.3209
 2623TIP3    H229429   6.403   6.650   2.266 -1.3122 -0.8637  1.2965
 2624TIP3   OH229430   6.025   2.624   0.684  0.2087 -0.1402  0.2285
 2624TIP3    H129431   5.959   2.567   0.724  0.3379 -1.4239 -1.3019
 2624TIP3    H229432   6.107   2.599   0.727 -0.0437  0.4425  1.0923
 2625TIP3   OH229433   5.395   5.757   2.742  0.6794 -0.2386 -0.1069
 2625TIP3    H129434   5.477   5.708   2.739  1.0678  0.4148 -0.2687
 2625TIP3    H229435   5.343   5.722   2.670  0.5315 -1.1339  0.4137
 2626TIP3   OH229436   4.629   3.463   2.523  0.4127 -0.3819  0.4797
 2626TIP3    H129437   4.557   3.524   2.527  1.2257  0.6258  0.1684
 2626TIP3    H229438   4.642   3.434   2.613  0.2779  0.2136  0.6941
 2627TIP3   OH229439   6.133   5.398   1.608  0.1934 -0.0366  0.1625
 2627TIP3    H129440   6.136   5.488   1.575 -2.1614  0.4259  0.9906
 2627TIP3    H229441   6.061   5.358   1.560 -0.3227 -0.7287  1.4701
 2628TIP3   OH229442   4.454   3.254   0.221 -1.0667  0.2682 -0.4510
 2628TIP3    H129443   4.549   3.255   0.204 -1.2642 -1.1983 -1.9072
 2628TIP3    H229444   4.431   3.345   0.235  0.3038  0.8425 -1.7130
 2629TIP3   OH229445   4.769   6.264   1.913  0.5488 -0.5796 -0.1299
 2629TIP3    H129446   4.767   6.351   1.874 -0.9095 -1.1869 -1.5325
 2629TIP3    H229447   4.678   6.247   1.938  1.1126 -1.0319  1.7520
 2630TIP3   OH229448   0.746   2.086   2.152  0.6934 -0.9406  0.4094
 2630TIP3    H129449   0.690   2.140   2.209  1.7742  1.1344 -0.3752
 2630TIP3    H229450   0.686   2.051   2.086  0.0278 -0.1340  0.5582
 2631TIP3   OH229451   3.327   1.767   3.015 -0.0620 -0.4816 -0.4519
 2631TIP3    H129452   3.264   1.750   2.946  2.8432 -0.7861 -3.2600
 2631TIP3    H229453   3.368   1.850   2.991  0.1778  0.0768  1.6701
 2632TIP3   OH229454   2.728   5.379   0.871 -0.0899  0.3259 -0.3927
 2632TIP3    H129455   2.751   5.287   0.884 -1.1507 -0.0495 -0.9977
 2632TIP3    H229456   2.721   5.388   0.775  1.1630  1.3498 -0.4226
 2633TIP3   OH229457   2.207   0.656   2.060  0.1035 -0.3587  0.1869
 2633TIP3    H129458   2.204   0.683   1.968  2.5403  2.2185  0.7206
 2633TIP3    H229459   2.131   0.699   2.099 -0.3964 -0.6675 -0.4122
 2634TIP3   OH229460   6.491   0.462   8.195  0.8306 -0.6302 -0.7254
 2634TIP3    H129461   6.411   0.411   8.190 -2.0902  3.2437  1.1797
 2634TIP3    H229462   6.491   0.516   8.116  1.2107 -0.1438 -0.4022
 2635TIP3   OH229463   0.500   5.475   1.036  0.0252  0.3246 -0.5575
 2635TIP3    H129464   0.424   5.495   1.091  1.5260  1.0534  1.3834
 2635TIP3    H229465   0.504   5.380   1.034  0.8394  0.2134  2.0813
 2636TIP3   OH229466   3.582   2.359   7.297  0.5561  0.1189 -0.0062
 2636TIP3    H129467   3.548   2.418   7.229  1.3984 -0.7786 -1.2444
 2636TIP3    H229468   3.634   2.295   7.249 -0.2773 -1.6106  1.3055
 2637TIP3   OH229469   5.497   6.552   8.335 -0.5506  0.2882 -0.1281
 2637TIP3    H129470   5.425   6.614   8.323  0.4411  1.3421 -0.8545
 2637TIP3    H229471   5.518   6.556   8.428 -0.9719  0.4953 -0.0414
 2638TIP3   OH229472   0.049   4.076   2.116  0.1353  0.2341 -0.4745
 2638TIP3    H129473   0.035   4.072   2.021 -2.1839 -0.3131 -0.1659
 2638TIP3    H229474   0.123   4.017   2.131 -0.3102 -0.7150 -1.8094
 2639TIP3   OH229475   5.012   4.071   7.851  0.5845  0.5450  0.2750
 2639TIP3    H129476   5.100   4.041   7.828  0.5204 -0.2660  1.0223
 2639TIP3    H229477   4.955   4.037   7.782  0.6839 -0.0480  0.4819
 2640TIP3   OH229478   0.616   5.719   7.982 -0.2089 -0.1552  0.5510
 2640TIP3    H129479   0.593   5.669   8.061  1.5396 -1.4570  0.2914
 2640TIP3    H229480   0.585   5.664   7.910 -0.4738  0.3227  0.2992
 2641TIP3   OH229481   6.059   0.402   8.387  0.1490 -0.0365 -0.6236
 2641TIP3    H129482   6.129   0.435   8.330  0.5232 -0.7826 -0.5992
 2641TIP3    H229483   6.072   0.308   8.390 -0.1360 -0.0548  0.3466
 2642TIP3   OH229484   6.748   6.117   1.122 -0.0183 -0.6682  0.0834
 2642TIP3    H129485   6.660   6.111   1.085 -0.0272 -0.0880  0.0137
 2642TIP3    H229486   6.747   6.197   1.174 -0.1996 -1.7539  1.8689
 2643TIP3   OH229487   3.274   4.961   1.545  0.0785  0.0830  0.2356
 2643TIP3    H129488   3.246   4.996   1.460 -1.8710 -0.4051  0.6182
 2643TIP3    H229489   3.313   4.876   1.524  0.0392  0.1725 -0.2094
 2644TIP3   OH229490   2.243   3.951   1.600 -0.0759 -0.1021 -0.0598
 2644TIP3    H129491   2.281   3.937   1.514 -2.0720  0.2802 -1.0817
 2644TIP3    H229492   2.316   3.979   1.655  1.0416  0.9589 -1.9702
 2645TIP3   OH229493   5.171   4.952   0.184 -0.0543 -0.1353 -0.2754
 2645TIP3    H129494   5.252   4.907   0.160 -0.4049 -0.9327  0.0052
 2645TIP3    H229495   5.101   4.894   0.154 -0.5128 -0.1630  0.7840
 2646TIP3   OH229496   6.752   3.659   3.132  0.0042  0.0451 -0.1964
 2646TIP3    H129497   6.826   3.719   3.138  0.1832 -0.2754  1.0628
 2646TIP3    H229498   6.792   3.575   3.107  0.3347 -0.5268  2.0212
 2647TIP3   OH229499   0.714   6.458   2.218  0.0879  0.0039  0.5154
 2647TIP3    H129500   0.650   6.466   2.290 -2.6283 -1.8225 -1.4884
 2647TIP3    H229501   0.698   6.534   2.163  0.1771 -0.0622  0.3986
 2648TIP3   OH229502   3.127   1.392   1.873 -0.5394  0.3138  0.2960
 2648TIP3    H129503   3.124   1.477   1.917 -0.0005  0.0372  0.8970
 2648TIP3    H229504   3.045   1.349   1.897 -0.9699  0.7983 -0.2970
 2649TIP3   OH229505   1.886   1.928   6.651  0.4207  0.1087 -0.5296
 2649TIP3    H129506   1.949   1.869   6.610  1.3040 -1.0233  2.2636
 2649TIP3    H229507   1.827   1.870   6.700  2.1109  1.3860  3.4299
 2650TIP3   OH229508   3.938   0.250   7.067  0.1897  0.0430  0.1630
 2650TIP3    H129509   4.004   0.313   7.096  0.3361 -0.1228  0.1928
 2650TIP3    H229510   3.854   0.289   7.093  0.2858  0.1754  0.2732
 2651TIP3   OH229511   2.620   0.944   1.583  0.1660 -0.2537  0.1770
 2651TIP3    H129512   2.710   0.971   1.601  0.5723  1.2745 -3.3396
 2651TIP3    H229513   2.571   1.026   1.584 -0.7036 -0.7575 -0.3384
 2652TIP3   OH229514   0.923   0.959   7.804  0.5288  0.3323  0.0869
 2652TIP3    H129515   0.923   1.045   7.762  0.0797 -0.3005 -1.2969
 2652TIP3    H229516   0.877   0.903   7.741  0.7246 -0.8921  1.0128
 2653TIP3   OH229517   4.990   0.579   7.323 -0.3818  0.1569  0.3546
 2653TIP3    H129518   4.966   0.586   7.416  2.4539 -1.6226  1.3618
 2653TIP3    H229519   4.970   0.488   7.300  0.6161  0.0639 -0.2040
 2654TIP3   OH229520   1.218   0.422   7.725  0.3448 -0.5222 -0.2442
 2654TIP3    H129521   1.206   0.351   7.661 -0.1141 -1.3535  0.7216
 2654TIP3    H229522   1.131   0.460   7.735  0.3778 -0.5105  0.0059
 2655TIP3   OH229523   2.908   6.444   8.408  0.2806 -0.1674  0.1964
 2655TIP3    H129524   2.821   6.422   8.442  0.0604 -0.0298 -0.2749
 2655TIP3    H229525   2.969   6.409   8.474 -0.1095 -0.8837  0.1875
 2656TIP3   OH229526   4.036   3.560   1.187  0.3222  0.6937  0.0712
 2656TIP3    H129527   4.023   3.635   1.244 -0.0873  0.9679 -0.3773
 2656TIP3    H229528   4.129   3.539   1.196  0.0993  0.2179  1.4603
 2657TIP3   OH229529   3.578   0.051   8.326 -0.3013  0.2466 -0.3892
 2657TIP3    H129530   3.560   0.083   8.415  0.2343 -0.6501  0.0604
 2657TIP3    H229531   3.563  -0.044   8.331 -0.1910  0.1777 -1.2385
 2658TIP3   OH229532   1.806   5.263   7.178  0.6252  0.0249  0.0153
 2658TIP3    H129533   1.773   5.294   7.094  3.4108  1.9618 -0.5169
 2658TIP3    H229534   1.816   5.168   7.166  0.7555  0.2212 -1.7752
 2659TIP3   OH229535   0.249   6.465   0.470 -0.0431 -0.7989  0.0340
 2659TIP3    H129536   0.274   6.431   0.383 -0.5631 -1.4475  0.1285
 2659TIP3    H229537   0.204   6.548   0.451  0.4040 -0.6243 -0.2731
 2660TIP3   OH229538   5.061   5.641   8.547 -0.2206 -0.3560  0.0129
 2660TIP3    H129539   5.092   5.699   8.617  0.7999  0.0362 -0.7275
 2660TIP3    H229540   4.981   5.603   8.581  0.3192 -0.2826  1.4528
 2661TIP3   OH229541   1.205   3.271   8.523 -0.5639  0.0877  0.1854
 2661TIP3    H129542   1.190   3.197   8.583  0.6060  0.6346  1.2055
 2661TIP3    H229543   1.237   3.341   8.580  2.6103  0.0076 -1.2860
 2662TIP3   OH229544   0.248   0.984   2.293  0.6529 -0.0032  0.3162
 2662TIP3    H129545   0.258   0.928   2.370  0.0210  1.2843  1.3672
 2662TIP3    H229546   0.199   1.060   2.324 -0.1694  0.2782 -1.4963
 2663TIP3   OH229547   5.431   5.416   2.892 -0.4028  0.3595  0.1670
 2663TIP3    H129548   5.471   5.490   2.848  0.7626  0.9552  2.1006
 2663TIP3    H229549   5.500   5.351   2.900 -1.0271 -0.3767 -0.2659
 2664TIP3   OH229550   2.204   3.511   7.742  0.5452  0.4929 -0.3170
 2664TIP3    H129551   2.126   3.563   7.762  1.1210  0.9700  0.8589
 2664TIP3    H229552   2.240   3.489   7.828  0.3563 -1.8546 -0.7791
 2665TIP3   OH229553   4.316   4.919   8.259  0.3886 -0.1359 -0.7207
 2665TIP3    H129554   4.363   4.848   8.303  1.6919 -0.1066 -1.9992
 2665TIP3    H229555   4.384   4.984   8.240 -0.7735  1.4887  0.4150
 2666TIP3   OH229556   5.442   2.411   2.251  0.4134 -0.1202  0.1380
 2666TIP3    H129557   5.458   2.495   2.208 -2.1555  0.2710 -0.2705
 2666TIP3    H229558   5.492   2.347   2.201  0.0199  0.7819 -1.4607
 2667TIP3   OH229559   1.478   2.629   8.525 -0.0478 -0.5936  0.3241
 2667TIP3    H129560   1.385   2.644   8.538  0.0181 -1.9934  3.0522
 2667TIP3    H229561   1.511   2.713   8.491 -2.3412 -0.2715 -1.3286
 2668TIP3   OH229562   3.286   3.651   8.378 -0.0509  0.6078 -0.1655
 2668TIP3    H129563   3.311   3.734   8.335  2.4894 -1.8436 -4.1346
 2668TIP3    H229564   3.369   3.605   8.390 -1.4387 -1.6862  1.2513
 2669TIP3   OH229565   5.913   5.884   2.718 -0.5225  0.4259  0.5359
 2669TIP3    H129566   5.999   5.867   2.755  0.0679  0.0379 -0.9582
 2669TIP3    H229567   5.899   5.978   2.732  0.3027  0.5644  0.4552
 2670TIP3   OH229568   4.163   4.192   2.195  0.7042  0.2708 -0.2889
 2670TIP3    H129569   4.135   4.249   2.124  0.9261 -0.0024 -0.5981
 2670TIP3    H229570   4.134   4.237   2.275 -0.9355 -0.1480 -0.5987
 2671TIP3   OH229571   1.974   3.152   6.523  0.3070  0.2120  0.5497
 2671TIP3    H129572   1.887   3.118   6.502  0.3585  0.9943 -1.0402
 2671TIP3    H229573   1.958   3.214   6.594 -0.6942  1.4721 -0.7106
 2672TIP3   OH229574   0.507   0.583   3.036  0.7610  0.2149 -0.0866
 2672TIP3    H129575   0.437   0.521   3.017  0.1709  0.1384  2.1190
 2672TIP3    H229576   0.462   0.659   3.073  1.6184  1.4057 -1.3484
 2673TIP3   OH229577   6.791   2.897   2.147 -0.0078 -0.5950  0.3895
 2673TIP3    H129578   6.818   2.956   2.217 -1.0404 -0.6957  0.8878
 2673TIP3    H229579   6.733   2.834   2.190 -2.1095  0.3862 -0.8250
 2674TIP3   OH229580   0.858   0.870   2.611  0.4648 -0.1668 -0.3384
 2674TIP3    H129581   0.824   0.852   2.699  0.3652 -1.4364 -0.6158
 2674TIP3    H229582   0.902   0.954   2.619  0.5161 -0.2971  0.9523
 2675TIP3   OH229583   3.510   4.278   0.360 -0.1432  0.2516 -0.4242
 2675TIP3    H129584   3.476   4.191   0.381  0.1613  0.3835  0.6496
 2675TIP3    H229585   3.433   4.334   0.356 -0.4995 -0.3079 -2.5150
 2676TIP3   OH229586   1.621   6.673   1.216 -0.0078  0.0311  0.1323
 2676TIP3    H129587   1.687   6.742   1.225  1.1816 -0.5341 -2.9642
 2676TIP3    H229588   1.542   6.719   1.189 -0.1127  0.4571  1.1437
 2677TIP3   OH229589   2.992   1.023   1.912 -0.7172 -0.6449 -0.2891
 2677TIP3    H129590   2.990   1.092   1.979 -0.1509 -0.0465 -0.8741
 2677TIP3    H229591   3.085   1.004   1.899 -0.8835 -2.3246  0.6446
 2678TIP3   OH229592   2.072   1.213   8.287  0.0136 -0.3179  0.1211
 2678TIP3    H129593   2.144   1.185   8.344  1.6325  0.1532 -1.5998
 2678TIP3    H229594   2.110   1.284   8.235 -2.8486  2.7170  1.7911
 2679TIP3   OH229595   1.256   1.771   2.467 -0.2194 -0.5772  0.2725
 2679TIP3    H129596   1.269   1.772   2.562  0.8406  0.4680  0.1334
 2679TIP3    H229597   1.184   1.832   2.451 -0.8875 -1.3047  0.4567
 2680TIP3   OH229598   6.145   5.257   2.746 -0.1521  0.3306  0.0264
 2680TIP3    H129599   6.127   5.341   2.703 -0.6300  0.0522 -0.3206
 2680TIP3    H229600   6.079   5.252   2.816 -0.7038 -0.1561 -0.5134
 2681TIP3   OH229601   5.064   5.175   2.910  0.4530  0.2354 -0.2608
 2681TIP3    H129602   5.125   5.176   2.984  0.9890 -0.5803 -0.6768
 2681TIP3    H229603   4.979   5.193   2.950  0.5640 -1.2133  0.7404
 2682TIP3   OH229604   0.939   2.905   0.473  0.1632  0.1420 -0.3576
 2682TIP3    H129605   1.003   2.835   0.480 -0.2863 -0.4615 -1.8604
 2682TIP3    H229606   0.861   2.872   0.517 -0.2731 -0.6309 -1.6398
 2683TIP3   OH229607   0.868   6.184   8.435  0.1196 -0.0612 -0.0163
 2683TIP3    H129608   0.807   6.226   8.496  0.0360 -0.7575  0.3884
 2683TIP3    H229609   0.835   6.095   8.426  0.8703 -0.3404 -0.0746
 2684TIP3   OH229610   4.667   1.768   8.208 -0.2699  0.0830 -0.7999
 2684TIP3    H129611   4.714   1.788   8.127 -1.1205  1.8070 -0.9126
 2684TIP3    H229612   4.654   1.854   8.249 -1.4434 -0.5841  0.2753
 2685TIP3   OH229613   3.268   5.791   0.955  0.1123  0.2089  0.0809
 2685TIP3    H129614   3.261   5.695   0.957 -0.9859  0.2821  0.4190
 2685TIP3    H229615   3.185   5.820   0.918  0.2249  1.0631  0.4725
 2686TIP3   OH229616   1.280   3.657   7.611  0.0256 -0.0109  0.0609
 2686TIP3    H129617   1.254   3.701   7.530  1.8669  1.6800  0.2999
 2686TIP3    H229618   1.369   3.624   7.593  1.6593  2.8391  2.1261
 2687TIP3   OH229619   4.598   0.346   7.964 -0.1337  0.8232 -0.3301
 2687TIP3    H129620   4.582   0.270   8.020 -0.0221  0.8524 -0.2583
 2687TIP3    H229621   4.692   0.364   7.974  0.2698 -0.2495 -1.8580
 2688TIP3   OH229622   4.989   6.490   3.427 -0.5481  0.3403 -0.3719
 2688TIP3    H129623   4.976   6.554   3.357 -0.3473 -1.4697 -2.1759
 2688TIP3    H229624   4.912   6.433   3.421 -1.4916  1.2210  2.2034
 2689TIP3   OH229625   3.372   5.303   1.444 -0.7425 -0.4600  0.0524
 2689TIP3    H129626   3.435   5.259   1.386  0.1555  0.9037 -0.0329
 2689TIP3    H229627   3.420   5.317   1.525 -0.8177  0.8548 -0.1088
 2690TIP3   OH229628   0.797   1.365   8.270  0.3615  0.1745 -0.2770
 2690TIP3    H129629   0.706   1.339   8.259  1.0930 -2.1405 -1.3567
 2690TIP3    H229630   0.830   1.375   8.180  1.3382  0.3901  0.0975
 2691TIP3   OH229631   0.150   1.969   1.003 -1.3619  0.5165 -0.3089
 2691TIP3    H129632   0.212   1.919   0.951 -1.0948  0.2336  0.2688
 2691TIP3    H229633   0.198   1.992   1.083 -1.8329  0.7384 -0.0808
 2692TIP3   OH229634   3.537   2.394   0.906 -0.1677 -0.8031 -0.3657
 2692TIP3    H129635   3.596   2.469   0.896 -1.2324 -0.0340 -1.0112
 2692TIP3    H229636   3.458   2.419   0.859 -1.4783 -1.3416  1.4685
 2693TIP3   OH229637   2.149   5.400   0.025 -0.1500  0.5366  0.1921
 2693TIP3    H129638   2.181   5.314   0.051  1.3219  0.7360 -0.8683
 2693TIP3    H229639   2.054   5.389   0.017  0.0751 -1.1409 -0.4755
 2694TIP3   OH229640   0.166   3.282   0.778 -0.6770  0.1851 -0.0722
 2694TIP3    H129641   0.149   3.329   0.696 -1.1640 -1.5559 -1.0092
 2694TIP3    H229642   0.111   3.204   0.773 -2.7382  1.2429  3.0865
 2695TIP3   OH229643   4.897   1.375   2.786  0.4476  0.3215 -0.0770
 2695TIP3    H129644   4.803   1.390   2.784  0.3912 -0.0632 -0.4987
 2695TIP3    H229645   4.915   1.325   2.706  0.8490 -0.5088  0.5248
 2696TIP3   OH229646   6.609   5.803   2.627  0.2934 -0.6973 -0.4904
 2696TIP3    H129647   6.552   5.848   2.689  0.1177  0.1950 -1.2916
 2696TIP3    H229648   6.654   5.737   2.681 -0.4863 -0.5277  0.4124
 2697TIP3   OH229649   6.130   5.364   7.911  0.1595  0.0903  0.4963
 2697TIP3    H129650   6.061   5.337   7.851  0.9035 -3.4797  1.0339
 2697TIP3    H229651   6.083   5.408   7.982 -1.4470 -0.9981  0.1806
 2698TIP3   OH229652   5.718   4.850   1.644  0.3025  0.1056  0.3868
 2698TIP3    H129653   5.656   4.834   1.715 -1.4080  0.2809 -0.9947
 2698TIP3    H229654   5.741   4.763   1.612 -1.9666  0.0222 -1.2812
 2699TIP3   OH229655   2.746   6.077   8.472 -0.2433 -0.2452 -0.0969
 2699TIP3    H129656   2.704   6.162   8.459 -1.0925 -0.7956 -1.1429
 2699TIP3    H229657   2.734   6.031   8.389  2.6014 -0.3897 -0.5169
 2700TIP3   OH229658   1.118   0.874   7.337  0.0968  0.1194 -0.1811
 2700TIP3    H129659   1.155   0.932   7.271  0.6647  0.5372  0.4873
 2700TIP3    H229660   1.027   0.864   7.312  0.3987 -0.0410 -1.2440
 2701TIP3   OH229661   4.941   2.269   6.777 -0.0986  0.2890 -0.0808
 2701TIP3    H129662   5.021   2.274   6.829  0.1463  1.9765 -0.5682
 2701TIP3    H229663   4.891   2.197   6.816  2.1950 -1.7116 -0.5727
 2702TIP3   OH229664   1.078   5.882   2.223  0.0496  0.1429 -0.0497
 2702TIP3    H129665   1.129   5.952   2.264  0.1489  0.1889 -0.2494
 2702TIP3    H229666   1.019   5.928   2.163 -0.9022  0.1659  0.8818
 2703TIP3   OH229667   0.908   0.222   2.834 -0.3585 -0.0892 -0.1120
 2703TIP3    H129668   0.905   0.129   2.854 -2.6893 -0.2819 -1.0506
 2703TIP3    H229669   0.834   0.237   2.774 -0.5053  2.4862  0.5704
 2704TIP3   OH229670   5.418   4.572   7.931 -0.5025  0.1994  0.5526
 2704TIP3    H129671   5.331   4.551   7.966 -0.7275 -0.1551 -0.1905
 2704TIP3    H229672   5.404   4.648   7.876 -0.6312 -0.6947 -0.6983
 2705TIP3   OH229673   6.749   6.274   1.503  0.1062 -0.6398  0.1361
 2705TIP3    H129674   6.733   6.179   1.500  0.7643 -0.7277 -1.8545
 2705TIP3    H229675   6.662   6.313   1.506 -0.1615 -1.2974  2.5179
 2706TIP3   OH229676   6.526   1.229   1.822 -0.5085 -0.2048  0.2352
 2706TIP3    H129677   6.536   1.268   1.735 -1.7841  0.7831  0.5054
 2706TIP3    H229678   6.592   1.273   1.876  0.2304 -0.7605 -0.1880
 2707TIP3   OH229679   4.007   6.062   0.298 -0.1208 -0.6528  1.0793
 2707TIP3    H129680   3.974   6.136   0.348 -0.0359  2.5411 -2.9899
 2707TIP3    H229681   4.102   6.074   0.299  0.0172 -1.7230  1.7028
 2708TIP3   OH229682   2.262   5.783   7.627 -0.4592  0.2407  0.0532
 2708TIP3    H129683   2.341   5.765   7.678 -0.3249  0.6377 -0.0144
 2708TIP3    H229684   2.257   5.711   7.564  0.0947  0.4466 -0.2355
 2709TIP3   OH229685   0.918   0.107   0.218  0.5385 -0.1309 -0.6564
 2709TIP3    H129686   0.890   0.016   0.211  0.4425 -0.1603  0.0822
 2709TIP3    H229687   0.847   0.151   0.263  0.9332  0.1467 -0.2940
 2710TIP3   OH229688   2.299   5.687   0.839  0.1334 -0.5223 -0.4007
 2710TIP3    H129689   2.252   5.618   0.885  0.6599 -0.8309 -0.3177
 2710TIP3    H229690   2.344   5.643   0.768 -0.8882 -0.0037 -1.4003
 2711TIP3   OH229691   2.058   6.441   2.084  0.3882  0.2646 -0.2749
 2711TIP3    H129692   2.140   6.473   2.048  0.2575  0.1804 -0.6564
 2711TIP3    H229693   2.079   6.355   2.120  0.3204 -0.0497 -0.9806
 2712TIP3   OH229694   6.547   0.886   8.046  0.1940  0.1980  0.6320
 2712TIP3    H129695   6.538   0.804   7.997 -0.2455  0.0047  1.0261
 2712TIP3    H229696   6.624   0.873   8.101  2.5414  1.5107 -2.0912
 2713TIP3   OH229697   0.020   5.129   0.027  0.3842 -0.5353  0.2111
 2713TIP3    H129698   0.072   5.200  -0.012  0.9658 -1.1897 -0.2308
 2713TIP3    H229699   0.034   5.054  -0.031 -0.8948 -0.7887  0.2057
 2714TIP3   OH229700   3.220   1.768   2.773  0.2436  0.6457  0.0036
 2714TIP3    H129701   3.126   1.786   2.767 -0.0352 -1.0450 -1.1205
 2714TIP3    H229702   3.257   1.806   2.693  0.0111 -1.4481 -1.1494
 2715TIP3   OH229703   6.355   4.913   2.449  0.1520  0.2579 -0.4317
 2715TIP3    H129704   6.379   4.843   2.510  1.0365 -0.7618 -1.8562
 2715TIP3    H229705   6.380   4.994   2.494 -2.0736 -0.1883  1.7850
 2716TIP3   OH229706   2.734   4.314   2.109  0.0421  0.2811 -0.5830
 2716TIP3    H129707   2.695   4.368   2.179  0.1603  2.2077 -1.9168
 2716TIP3    H229708   2.704   4.225   2.127  1.5011  0.3515  2.9154
 2717TIP3   OH229709   5.679   1.750   8.235 -0.1344 -0.0928  0.6327
 2717TIP3    H129710   5.741   1.817   8.265 -0.0499 -0.0935  0.4567
 2717TIP3    H229711   5.598   1.798   8.220  0.0927  0.0835 -0.0905
 2718TIP3   OH229712   0.961   0.416   0.540  0.3170 -0.4517 -0.7153
 2718TIP3    H129713   0.868   0.437   0.548  0.9010  2.7999 -0.9458
 2718TIP3    H229714   0.965   0.321   0.546 -3.0541 -0.7495 -1.2295
 2719TIP3   OH229715   2.958   0.833   0.702  0.1687 -0.2473  0.1730
 2719TIP3    H129716   3.027   0.831   0.769 -0.1719  2.9735  0.7564
 2719TIP3    H229717   2.879   0.808   0.749  0.0559  1.3039  0.8609
 2720TIP3   OH229718   6.506   3.379   7.157 -0.1089 -0.0115 -0.3996
 2720TIP3    H129719   6.461   3.421   7.083 -0.9817 -0.2331 -0.0069
 2720TIP3    H229720   6.438   3.367   7.223  0.8271  0.9635  0.7970
 2721TIP3   OH229721   5.634   3.796   1.211  0.0202  0.1994 -0.3547
 2721TIP3    H129722   5.669   3.881   1.182 -2.2275  1.6133  0.8209
 2721TIP3    H229723   5.551   3.787   1.165  0.1155 -1.2962 -0.2808
 2722TIP3   OH229724   1.025   2.266   8.471 -0.4057  0.2304 -0.3044
 2722TIP3    H129725   1.084   2.193   8.486 -0.4410  0.2210 -0.2035
 2722TIP3    H229726   0.962   2.261   8.544  0.5105  1.2825  0.6049
 2723TIP3   OH229727   4.470   6.383   0.832 -0.0434 -0.1763 -0.5412
 2723TIP3    H129728   4.501   6.466   0.795  0.8964 -0.4394 -0.3831
 2723TIP3    H229729   4.548   6.345   0.874 -1.1813  0.4633  2.4094
 2724TIP3   OH229730   5.363   3.921   7.256 -0.5195  0.2201 -0.0805
 2724TIP3    H129731   5.378   3.967   7.174 -1.4708 -0.4771 -0.6660
 2724TIP3    H229732   5.451   3.902   7.289 -0.0345 -1.7749 -2.2454
 2725TIP3   OH229733   1.191   3.772   6.265  0.4257 -0.2529 -0.7008
 2725TIP3    H129734   1.207   3.842   6.329  0.1384 -1.2929  0.5431
 2725TIP3    H229735   1.254   3.790   6.194  0.8680  0.8333 -0.0590
 2726TIP3   OH229736   4.703   5.726   7.166  0.2319 -0.7551  0.1345
 2726TIP3    H129737   4.698   5.665   7.093  0.5343  0.9135 -1.3575
 2726TIP3    H229738   4.617   5.767   7.169  0.1982 -0.8641  0.7687
 2727TIP3   OH229739   4.365   3.897   6.844 -0.1210 -0.5764  0.2906
 2727TIP3    H129740   4.282   3.905   6.890 -0.4731  0.6452 -0.5065
 2727TIP3    H229741   4.386   3.986   6.816  1.4542 -0.8686  0.4647
 2728TIP3   OH229742   4.608   1.294   1.247 -0.6050 -0.2173 -0.4946
 2728TIP3    H129743   4.545   1.353   1.289  0.5739  0.2828  0.6359
 2728TIP3    H229744   4.597   1.211   1.293  1.3226  0.5748  1.5549
 2729TIP3   OH229745   5.785   0.847   7.688 -0.5545 -0.5086  0.0394
 2729TIP3    H129746   5.802   0.834   7.595 -0.9506 -0.7696  0.0028
 2729TIP3    H229747   5.711   0.789   7.708 -1.5921  0.8248  0.1367
 2730TIP3   OH229748   0.225   4.499   2.072  0.1286  0.0606  0.3062
 2730TIP3    H129749   0.167   4.565   2.109  0.8799  0.6668  0.4111
 2730TIP3    H229750   0.267   4.542   1.997 -0.0827 -0.6014 -0.2082
 2731TIP3   OH229751   4.516   1.699   0.509  0.6306 -0.5288 -0.5961
 2731TIP3    H129752   4.456   1.772   0.518  0.4404 -0.5452 -1.6406
 2731TIP3    H229753   4.510   1.653   0.593  1.2124  0.9721  0.2992
 2732TIP3   OH229754   0.078   0.080   1.658 -0.3942 -0.1798 -0.1465
 2732TIP3    H129755   0.101   0.099   1.749  1.3412  0.0296 -0.5814
 2732TIP3    H229756   0.126   0.000   1.638 -2.3474 -1.3728 -0.3249
 2733TIP3   OH229757   6.159   6.794   8.471  0.3685  0.2095 -0.0626
 2733TIP3    H129758   6.221   6.814   8.540 -0.1544 -0.0523  0.4967
 2733TIP3    H229759   6.090   6.861   8.480  0.5710  0.5047 -0.6799
 2734TIP3   OH229760   4.686   2.957   1.326 -0.0956  0.1721  0.0288
 2734TIP3    H129761   4.639   3.037   1.302 -2.4117 -1.1373 -0.1044
 2734TIP3    H229762   4.709   2.969   1.419 -0.7411  0.8585  0.1046
 2735TIP3   OH229763   4.055   3.248   7.748  0.4510  0.3651  0.4129
 2735TIP3    H129764   4.088   3.199   7.673  1.5958  0.7435  0.6457
 2735TIP3    H229765   4.129   3.301   7.776  0.1735 -0.0953  2.0971
 2736TIP3   OH229766   5.117   5.907   0.240 -0.2980 -0.0115 -0.1106
 2736TIP3    H129767   5.026   5.877   0.251  0.5716 -2.6194  0.6786
 2736TIP3    H229768   5.143   5.873   0.154 -0.1944  1.2357 -0.5992
 2737TIP3   OH229769   2.078   2.829   8.737 -0.6988 -0.6424 -0.1593
 2737TIP3    H129770   2.022   2.802   8.810  1.7333  1.1830  2.6057
 2737TIP3    H229771   2.045   2.916   8.712  0.0474 -0.1082  0.6377
 2738TIP3   OH229772   0.655   6.434   0.298  0.3684 -0.0931 -0.1789
 2738TIP3    H129773   0.611   6.349   0.300  0.6752 -0.2550 -0.0535
 2738TIP3    H229774   0.648   6.463   0.207  1.5426 -0.9536 -0.5768
 2739TIP3   OH229775   4.751   5.906   7.992  0.2545  0.1886  0.2695
 2739TIP3    H129776   4.821   5.878   7.934 -0.3016 -1.0384  0.1752
 2739TIP3    H229777   4.675   5.917   7.935 -0.1149 -0.3499  0.6447
 2740TIP3   OH229778   5.915   4.684   8.119  0.0627  0.2477  0.4302
 2740TIP3    H129779   5.823   4.660   8.130  0.3013 -0.2870  1.3723
 2740TIP3    H229780   5.919   4.724   8.032 -0.5486 -2.2998 -0.8681
 2741TIP3   OH229781   6.127   1.991   0.821  0.4275 -0.0836  0.0880
 2741TIP3    H129782   6.213   1.991   0.781  1.3254 -0.5048  1.9052
 2741TIP3    H229783   6.085   1.912   0.788  0.5491  0.3350 -1.1270
 2742TIP3   OH229784   5.387   1.632   7.825 -0.4482  0.1056 -0.2097
 2742TIP3    H129785   5.337   1.551   7.810  2.2811 -1.9945  1.1324
 2742TIP3    H229786   5.354   1.665   7.908 -0.7246 -0.3510 -0.1322
 2743TIP3   OH229787   1.000   4.186   8.227 -0.4429  0.2969  0.3652
 2743TIP3    H129788   1.092   4.186   8.254 -0.2921  1.0283 -0.1220
 2743TIP3    H229789   0.951   4.174   8.309 -0.0199  2.8131  1.0616
 2744TIP3   OH229790   6.393   1.461   2.048  0.2527  0.5441 -0.6868
 2744TIP3    H129791   6.416   1.424   1.962 -0.7338 -0.1399 -0.6733
 2744TIP3    H229792   6.450   1.538   2.057  0.9275  0.1758 -1.6036
 2745TIP3   OH229793   0.953   1.079   8.079  0.1547 -0.9229  0.3288
 2745TIP3    H129794   1.020   1.139   8.045 -0.3411  0.4567  1.6576
 2745TIP3    H229795   0.948   1.009   8.014  0.3702  0.7509 -1.6039
 2746TIP3   OH229796   5.522   6.490   2.294 -0.1429 -0.3439 -0.0350
 2746TIP3    H129797   5.487   6.578   2.305  2.1104  0.7712 -1.0734
 2746TIP3    H229798   5.454   6.443   2.246 -1.1487  1.0187  0.0103
 2747TIP3   OH229799   5.765   4.726   0.105 -0.0307  0.3811 -0.3373
 2747TIP3    H129800   5.719   4.807   0.124  1.1324  0.9665  0.0450
 2747TIP3    H229801   5.715   4.658   0.151 -1.0566  0.8513 -0.7336
 2748TIP3   OH229802   0.311   6.717   2.107 -0.1229  0.1737  0.1496
 2748TIP3    H129803   0.401   6.750   2.098  0.5908 -0.8965  2.6317
 2748TIP3    H229804   0.321   6.622   2.111 -1.3611  0.0475  0.6179
 2749TIP3   OH229805   3.803   5.057   7.431 -0.3042  0.6814  1.0918
 2749TIP3    H129806   3.816   5.040   7.337 -0.0435  2.8069  0.6986
 2749TIP3    H229807   3.819   4.972   7.472 -4.1780 -1.3760 -1.0240
 2750TIP3   OH229808   3.448   4.388   2.021 -0.0424 -0.2115 -0.6938
 2750TIP3    H129809   3.358   4.356   2.017 -0.4092  0.6045  0.5684
 2750TIP3    H229810   3.474   4.376   2.112  0.1422  2.1105 -0.3676
 2751TIP3   OH229811   5.242   4.271   1.482 -0.7867  0.3236 -0.3406
 2751TIP3    H129812   5.186   4.195   1.501  1.1949 -1.3556 -0.8242
 2751TIP3    H229813   5.231   4.286   1.388  0.0800 -0.4888 -0.5888
 2752TIP3   OH229814   0.577   3.276   7.221  0.0524 -0.1830 -0.0829
 2752TIP3    H129815   0.486   3.281   7.250 -0.2135  0.2459 -0.9552
 2752TIP3    H229816   0.626   3.252   7.299 -1.0527 -2.5537 -0.0264
 2753TIP3   OH229817   3.456   3.172   8.474 -0.1282 -0.2457 -0.9665
 2753TIP3    H129818   3.540   3.133   8.449  0.7604  1.6374 -1.0748
 2753TIP3    H229819   3.459   3.175   8.570 -0.8905 -1.8385 -0.8639
 2754TIP3   OH229820   0.140   2.615   2.191 -0.1390 -0.0948  0.1856
 2754TIP3    H129821   0.165   2.541   2.246  0.8339 -0.0400 -0.1726
 2754TIP3    H229822   0.078   2.664   2.244  2.1480  0.9745  2.0411
 2755TIP3   OH229823   6.057   4.824   1.469 -0.4574 -0.7287  0.1640
 2755TIP3    H129824   6.113   4.793   1.397  0.5021  0.2929  0.4542
 2755TIP3    H229825   6.007   4.746   1.494 -0.0927 -1.3530 -0.9499
 2756TIP3   OH229826   2.665   1.900   7.405 -0.0896  0.1262 -0.3980
 2756TIP3    H129827   2.726   1.963   7.367  1.7609 -1.0449  0.4907
 2756TIP3    H229828   2.591   1.953   7.435  0.3330  1.5603 -1.7587
 2757TIP3   OH229829   1.587   6.063   8.517  0.3036  0.4513  0.2001
 2757TIP3    H129830   1.564   6.045   8.426 -0.2673 -0.5189  0.5203
 2757TIP3    H229831   1.626   5.982   8.549 -2.5249 -0.4527  1.7394
 2758TIP3   OH229832   5.488   2.636   0.238 -0.0433  0.2830 -0.3747
 2758TIP3    H129833   5.521   2.644   0.149  0.6948 -0.8796 -0.2373
 2758TIP3    H229834   5.552   2.682   0.292  0.0558  0.1190 -0.3510
 2759TIP3   OH229835   3.213   5.280   1.869 -0.0264 -0.1985 -0.2337
 2759TIP3    H129836   3.299   5.284   1.827  0.2119 -1.1713  0.1252
 2759TIP3    H229837   3.153   5.314   1.803  0.8214  2.2960  0.1709
 2760TIP3   OH229838   4.999   0.170   6.690 -0.2550  0.0714 -0.7607
 2760TIP3    H129839   5.027   0.112   6.620  1.7277  0.9809 -0.7702
 2760TIP3    H229840   4.992   0.113   6.767  4.0591  0.0760 -0.1628
 2761TIP3   OH229841   2.572   3.849   1.583 -0.9546 -0.1293 -0.3783
 2761TIP3    H129842   2.532   3.935   1.600  1.4545  0.8704  0.6863
 2761TIP3    H229843   2.567   3.804   1.668 -0.2438 -0.1569 -0.3475
 2762TIP3   OH229844   0.354   2.575   8.429 -0.1418 -0.1013  0.1071
 2762TIP3    H129845   0.423   2.640   8.416  0.0542 -0.3392 -0.0490
 2762TIP3    H229846   0.350   2.527   8.347  0.9621 -1.4704  0.8056
 2763TIP3   OH229847   4.659   1.005   7.509 -0.3374  0.0876  0.3849
 2763TIP3    H129848   4.604   0.930   7.492  0.7132 -0.3825 -1.1450
 2763TIP3    H229849   4.747   0.977   7.485  0.3087  1.3595  1.1113
 2764TIP3   OH229850   2.840   5.807   1.929  0.1072 -0.3491  0.0002
 2764TIP3    H129851   2.795   5.783   2.010  0.1813 -2.4944 -0.5449
 2764TIP3    H229852   2.873   5.896   1.945 -1.3947 -0.0332  1.6445
 2765TIP3   OH229853   4.463   2.565   0.256 -0.0539  0.2041 -0.5210
 2765TIP3    H129854   4.448   2.485   0.307  1.3401  0.6863  0.7101
 2765TIP3    H229855   4.555   2.588   0.273  0.2086  0.8797 -2.5791
 2766TIP3   OH229856   2.529   5.549   0.020  0.3140  0.7755 -0.5004
 2766TIP3    H129857   2.549   5.563   0.112 -0.8106  0.9219 -0.2671
 2766TIP3    H229858   2.607   5.579  -0.026 -0.0294  3.0171  0.2642
 2767TIP3   OH229859   2.980   6.419   0.458  0.1688  0.1740 -0.8144
 2767TIP3    H129860   3.013   6.431   0.547  1.2825  0.0522 -1.1960
 2767TIP3    H229861   2.975   6.508   0.423 -1.8940  0.4052 -0.1125
 2768TIP3   OH229862   1.711   6.686   0.323  0.3009  0.3479  0.0947
 2768TIP3    H129863   1.659   6.746   0.269  1.0640  1.5169  0.6149
 2768TIP3    H229864   1.769   6.744   0.372  0.5208 -0.7878  1.1985
 2769TIP3   OH229865   4.535   0.555   0.990  0.4022 -0.8334 -0.5703
 2769TIP3    H129866   4.603   0.499   0.952  1.9306  1.3049 -1.1725
 2769TIP3    H229867   4.455   0.530   0.944  0.2209 -4.7406  1.4437
 2770TIP3   OH229868   5.172   5.793   8.750  0.8931 -0.0775 -0.5023
 2770TIP3    H129869   5.268   5.788   8.746  0.8847  0.5714 -2.5920
 2770TIP3    H229870   5.150   5.876   8.708 -0.5748  0.2531  0.8265
 2771TIP3   OH229871   5.111   0.217   0.408  0.2549 -0.3699 -0.2243
 2771TIP3    H129872   5.189   0.207   0.353 -0.1756  0.3777 -0.9906
 2771TIP3    H229873   5.145   0.237   0.495  0.9147  0.9851 -0.7728
 2772TIP3   OH229874   6.735   1.005   0.274  0.3077  0.0902 -0.3886
 2772TIP3    H129875   6.721   1.010   0.369  0.2535 -1.5133 -0.2882
 2772TIP3    H229876   6.648   0.985   0.238  0.9692 -3.5359 -0.3346
 2773TIP3   OH229877   2.868   6.519   0.899 -0.1934 -0.0868  0.0478
 2773TIP3    H129878   2.863   6.488   0.989 -0.1504  1.6211  0.6777
 2773TIP3    H229879   2.949   6.571   0.896 -0.8031  0.8505 -0.6371
 2774TIP3   OH229880   0.919   5.490   6.997 -0.3789 -0.1848 -0.5233
 2774TIP3    H129881   0.949   5.401   7.014  0.0278 -0.1193 -0.8718
 2774TIP3    H229882   0.951   5.509   6.908  0.4202  0.6667 -0.0754
 2775TIP3   OH229883   4.845   4.559   8.485  0.0134  0.2141 -0.2068
 2775TIP3    H129884   4.769   4.502   8.469 -0.3704 -0.0971  2.2979
 2775TIP3    H229885   4.846   4.570   8.580  2.3263  1.3473 -0.3151
 2776TIP3   OH229886   5.487   3.773   7.622  0.1109 -0.5418  0.6244
 2776TIP3    H129887   5.471   3.682   7.646  0.1180 -0.4498  0.9828
 2776TIP3    H229888   5.509   3.817   7.704  0.3534 -0.2672  0.4194
 2777TIP3   OH229889   1.449   6.345   8.519 -0.7375  0.5408 -0.0893
 2777TIP3    H129890   1.441   6.436   8.545 -0.9544  0.4439  0.1855
 2777TIP3    H229891   1.460   6.348   8.424 -2.6637  0.7703 -0.3409
 2778TIP3   OH229892   4.250   5.944   8.285 -0.1520  0.2256 -0.5842
 2778TIP3    H129893   4.176   5.885   8.269  1.3858 -1.4598 -2.0478
 2778TIP3    H229894   4.313   5.891   8.334  0.0156  1.7060  0.8781
 2779TIP3   OH229895   1.076   5.230   1.655  0.1095 -0.1652 -0.3121
 2779TIP3    H129896   1.048   5.315   1.689  0.0392 -0.3887  0.1833
 2779TIP3    H229897   1.105   5.181   1.731  0.1864 -0.5771 -0.6013
 2780TIP3   OH229898   3.943   5.491   0.093 -0.1373 -0.0928  0.1120
 2780TIP3    H129899   3.873   5.549   0.063 -1.7536 -0.6684  2.5044
 2780TIP3    H229900   3.926   5.408   0.050  0.2217  0.2761 -0.7654
 2781TIP3   OH229901   4.560   3.416   6.691  0.2436  0.2629 -0.0579
 2781TIP3    H129902   4.525   3.503   6.707  1.4948  0.6904  0.4772
 2781TIP3    H229903   4.512   3.359   6.751 -0.0881  0.6907  0.0845
 2782TIP3   OH229904   0.986   5.490   7.762  0.3960  0.1047 -0.1609
 2782TIP3    H129905   0.923   5.420   7.745  1.0668 -0.4693 -0.3090
 2782TIP3    H229906   1.063   5.467   7.709  0.7539  0.7672  0.0586
 2783TIP3   OH229907   3.439   0.420   6.955  0.6156 -0.0378  0.3381
 2783TIP3    H129908   3.517   0.373   6.986 -0.0556 -0.5955  1.2485
 2783TIP3    H229909   3.372   0.352   6.947  0.5413  0.2291 -1.6282
 2784TIP3   OH229910   2.269   4.795   1.415 -0.3837  0.2049  0.1586
 2784TIP3    H129911   2.243   4.811   1.506 -0.2558 -3.1770  0.9214
 2784TIP3    H229912   2.204   4.733   1.383  0.9152 -0.4710 -1.2779
 2785TIP3   OH229913   0.181   0.456   2.578 -0.4847  0.8545  0.1222
 2785TIP3    H129914   0.109   0.505   2.617 -1.4373 -1.0039  0.8342
 2785TIP3    H229915   0.251   0.461   2.643  0.5083  3.5289 -1.0061
 2786TIP3   OH229916   1.789   5.722   7.722 -0.8703 -0.0211  0.2744
 2786TIP3    H129917   1.823   5.639   7.756 -2.2146 -1.0154 -0.6824
 2786TIP3    H229918   1.857   5.753   7.662 -1.1916 -1.5025 -0.9143
 2787TIP3   OH229919   6.073   2.752   2.562 -0.3910  0.3574  0.6522
 2787TIP3    H129920   6.084   2.846   2.549 -1.8098  0.2893 -1.5618
 2787TIP3    H229921   5.985   2.742   2.596 -0.4591 -0.2009  0.3288
 2788TIP3   OH229922   3.781   0.540   1.645  0.0349  0.0345  0.8971
 2788TIP3    H129923   3.780   0.476   1.717 -0.5497  1.0844  1.8733
 2788TIP3    H229924   3.830   0.497   1.575  0.0831 -1.2810  1.6910
 2789TIP3   OH229925   0.852   5.349   8.707  0.3284 -0.2106 -0.2242
 2789TIP3    H129926   0.813   5.306   8.631 -0.2198 -0.8278  0.4045
 2789TIP3    H229927   0.936   5.382   8.675  0.1443 -0.5504 -1.0724
 2790TIP3   OH229928   3.464   5.701   1.826  0.1478 -0.1097 -0.2861
 2790TIP3    H129929   3.424   5.654   1.899 -0.0455 -0.2677 -0.4912
 2790TIP3    H229930   3.484   5.787   1.861 -0.2432 -0.0749 -0.1383
 2791TIP3   OH229931   5.609   0.925   1.739 -0.1369  0.1694  0.4125
 2791TIP3    H129932   5.582   1.000   1.792 -1.2198  0.7454 -0.8959
 2791TIP3    H229933   5.587   0.949   1.649  2.2349 -0.5230 -0.4290
 2792TIP3   OH229934   5.414   2.808   0.823 -0.3987  0.8518  0.3168
 2792TIP3    H129935   5.341   2.847   0.774 -1.1224 -0.5354  0.2289
 2792TIP3    H229936   5.384   2.808   0.914  0.7842  3.0643  0.7960
 2793TIP3   OH229937   4.725   1.364   0.169 -0.0370 -0.7518 -0.0848
 2793TIP3    H129938   4.724   1.396   0.259  1.5773 -0.2158 -0.2329
 2793TIP3    H229939   4.670   1.425   0.121  0.4659 -0.0583  0.2200
 2794TIP3   OH229940   0.939   3.051   8.738  0.0814 -0.1915  0.2602
 2794TIP3    H129941   1.034   3.049   8.725  0.1251  2.1641 -0.2368
 2794TIP3    H229942   0.927   3.096   8.822 -0.6150 -1.5125  0.9124
 2795TIP3   OH229943   3.204   4.045   0.408  0.1471 -0.2106 -0.9370
 2795TIP3    H129944   3.120   4.007   0.384 -0.0497 -1.2890  1.2639
 2795TIP3    H229945   3.194   4.139   0.391 -1.1477 -0.4567 -1.6038
 2796TIP3   OH229946   4.773   4.215   8.682 -0.1149  0.2458  0.3873
 2796TIP3    H129947   4.815   4.197   8.598 -0.7135 -3.9458  0.7539
 2796TIP3    H229948   4.840   4.259   8.733  1.8091 -0.9694 -0.9492
 2797TIP3   OH229949   3.374   2.112   1.451 -0.2778 -0.4350 -0.1466
 2797TIP3    H129950   3.376   2.067   1.366  0.0539 -1.4118  0.3615
 2797TIP3    H229951   3.420   2.194   1.436  1.4779 -1.4244 -0.4704
 2798TIP3   OH229952   6.261   5.337   8.242  0.3268  0.5282  0.0159
 2798TIP3    H129953   6.253   5.315   8.334 -1.8328 -2.1316 -0.6658
 2798TIP3    H229954   6.175   5.371   8.217 -0.0784 -1.4472 -1.5494
 2799TIP3   OH229955   4.874   6.418   7.022 -0.4133 -0.1201  0.2534
 2799TIP3    H129956   4.935   6.480   6.980 -0.3495  0.6697  1.4642
 2799TIP3    H229957   4.795   6.422   6.968 -0.2496  0.6934  0.0577
 2800TIP3   OH229958   5.901   2.065   3.038  0.0308  0.1350  0.5409
 2800TIP3    H129959   5.822   2.113   3.064  0.4071 -0.3810  2.8879
 2800TIP3    H229960   5.873   2.010   2.965 -1.5231  0.7374  0.6486
 2801TIP3   OH229961   0.536   0.842   1.883 -0.3308  0.3552 -0.2417
 2801TIP3    H129962   0.486   0.910   1.838 -2.6613 -1.2605 -0.2639
 2801TIP3    H229963   0.486   0.825   1.963  1.1069 -0.2040  0.5743
 2802TIP3   OH229964   5.630   1.034   2.070  0.4341  0.2945  1.0192
 2802TIP3    H129965   5.557   0.991   2.025  1.7730  0.0803 -1.1020
 2802TIP3    H229966   5.598   1.122   2.088 -0.8555 -0.2476  1.5090
 2803TIP3   OH229967   5.956   4.862   7.912  0.8076  0.2577 -0.3051
 2803TIP3    H129968   5.879   4.900   7.869  0.3497 -0.1620  0.1342
 2803TIP3    H229969   6.030   4.898   7.864  0.2896 -0.9806 -2.1029
 2804TIP3   OH229970   0.358   6.428   2.157 -0.3863 -0.6169 -0.3067
 2804TIP3    H129971   0.265   6.422   2.136 -0.8147 -0.8625  1.4885
 2804TIP3    H229972   0.397   6.351   2.117 -1.1839 -1.1814 -0.0317
 2805TIP3   OH229973   1.231   1.471   8.703 -0.3774 -0.5761  0.6076
 2805TIP3    H129974   1.146   1.501   8.736 -0.1843  0.9040 -0.1640
 2805TIP3    H229975   1.235   1.379   8.728 -1.9317 -0.5069  1.2217
 2806TIP3   OH229976   1.207   6.607   1.849  0.4638  0.6169 -0.6177
 2806TIP3    H129977   1.289   6.592   1.896  0.8671 -0.0060 -1.4881
 2806TIP3    H229978   1.138   6.578   1.909  0.8103  1.8482  0.4181
 2807TIP3   OH229979   3.864   0.437   0.927  0.0761  0.3652  0.0367
 2807TIP3    H129980   3.791   0.379   0.947 -0.2365  0.7850  0.1347
 2807TIP3    H229981   3.823   0.515   0.889  0.5793  0.0305 -1.2499
 2808TIP3   OH229982   4.192   2.386   8.425  0.6566 -0.6908  0.1742
 2808TIP3    H129983   4.280   2.393   8.388  0.2327 -0.2832 -0.7811
 2808TIP3    H229984   4.162   2.477   8.431  0.1842 -0.8480  0.2017
 2809TIP3   OH229985   0.800   0.152   2.382 -0.1823  0.5747  0.8301
 2809TIP3    H129986   0.888   0.142   2.418  0.6710 -1.9981 -1.6111
 2809TIP3    H229987   0.744   0.170   2.458  1.9361 -1.1047  2.9370
 2810TIP3   OH229988   4.918   3.552   0.178 -0.6602  0.6706 -0.3227
 2810TIP3    H129989   4.961   3.467   0.170 -0.3590  0.6432  1.1885
 2810TIP3    H229990   4.855   3.540   0.250  0.9721  2.3082  1.4828
 2811TIP3   OH229991   5.575   3.441   1.619 -0.4721 -0.0176 -0.1209
 2811TIP3    H129992   5.558   3.446   1.713  0.2104  0.1672 -0.0016
 2811TIP3    H229993   5.601   3.529   1.594  0.1346 -0.2456 -0.3213
 2812TIP3   OH229994   4.682   1.670   7.577  0.4091  0.1307  0.0486
 2812TIP3    H129995   4.753   1.675   7.513  0.2554  0.9182 -0.0685
 2812TIP3    H229996   4.603   1.685   7.526  0.2201 -0.0395  0.2940
 2813TIP3   OH229997   0.679   0.971   8.236 -0.0312  0.4775 -0.2488
 2813TIP3    H129998   0.682   1.049   8.290 -3.1045 -0.0296  0.8759
 2813TIP3    H229999   0.765   0.930   8.246  0.1789  1.4630  2.6234
 2814TIP3   OH230000   0.279   2.488   1.811 -0.7958 -0.0708 -0.2856
 2814TIP3    H130001   0.229   2.538   1.747  0.4587  0.8388 -0.6083
 2814TIP3    H230002   0.219   2.473   1.884 -1.5565  0.8774 -0.7072
 2815TIP3   OH230003   1.262   4.964   8.596 -0.1588  0.0263 -0.5790
 2815TIP3    H130004   1.326   4.938   8.663 -1.1580 -1.5798 -0.1911
 2815TIP3    H230005   1.240   5.054   8.618  0.3539 -0.1137  0.5958
 2816TIP3   OH230006   5.834   4.196   0.786 -0.5894  0.2559 -0.1003
 2816TIP3    H130007   5.868   4.249   0.714  0.5171 -0.9413 -0.5056
 2816TIP3    H230008   5.783   4.127   0.744 -4.8727  2.7099  0.5227
 2817TIP3   OH230009   4.214   2.482   7.653 -0.1061  0.1075 -0.4407
 2817TIP3    H130010   4.170   2.471   7.569  0.4171 -1.2516 -0.5752
 2817TIP3    H230011   4.183   2.408   7.706  0.6315  0.1548  0.0735
 2818TIP3   OH230012   6.386   4.306   7.939  0.3959  0.3299  0.0707
 2818TIP3    H130013   6.348   4.232   7.892 -0.8448  1.1333 -0.2322
 2818TIP3    H230014   6.329   4.318   8.015 -0.4201  1.9646 -0.7360
 2819TIP3   OH230015   5.279   1.062   0.466 -0.0019 -0.8684  0.9106
 2819TIP3    H130016   5.190   1.040   0.437 -0.2040  0.5787  0.3523
 2819TIP3    H230017   5.308   1.129   0.405  1.4018 -1.1692  1.2250
 2820TIP3   OH230018   3.371   1.918   7.560 -0.4153  0.4780 -0.0910
 2820TIP3    H130019   3.339   2.007   7.579 -0.4961  0.3624  0.3229
 2820TIP3    H230020   3.299   1.877   7.512 -0.0639  0.8937 -0.9891
 2821TIP3   OH230021   0.739   1.925   1.018 -0.4141  0.5546 -0.5364
 2821TIP3    H130022   0.690   1.944   0.939 -4.2938 -0.8496  1.2753
 2821TIP3    H230023   0.783   1.842   0.999 -1.3738  0.1868 -1.2378
 2822TIP3   OH230024   1.920   1.360   1.653 -0.6018  0.0232 -0.2046
 2822TIP3    H130025   1.882   1.446   1.671 -0.0506  0.1188  0.5510
 2822TIP3    H230026   1.854   1.315   1.601 -1.6512  0.2858  0.8382
 2823TIP3   OH230027   4.008   3.439   6.591 -0.0670  0.2752 -0.0274
 2823TIP3    H130028   3.948   3.421   6.519 -0.2576 -0.6962  0.3561
 2823TIP3    H230029   3.999   3.364   6.649  2.1228 -0.3131 -0.3625
 2824TIP3   OH230030   5.872   5.190   0.457 -0.7782 -0.0078 -0.0914
 2824TIP3    H130031   5.792   5.190   0.405  1.3286 -0.8135 -3.6327
 2824TIP3    H230032   5.932   5.248   0.410  1.2531 -0.6920  1.5090
 2825TIP3   OH230033   5.780   1.921   8.474  0.1895  0.1234 -0.6171
 2825TIP3    H130034   5.693   1.896   8.505 -0.2273  2.8268  0.6584
 2825TIP3    H230035   5.766   2.002   8.424  2.2356  2.7578  2.6613
 2826TIP3   OH230036   2.143   0.104   1.335 -0.0880 -0.3785  0.0729
 2826TIP3    H130037   2.081   0.038   1.365  0.1030  0.2889  2.0672
 2826TIP3    H230038   2.229   0.065   1.348  0.0642  0.5196  2.0896
 2827TIP3   OH230039   1.259   6.399   0.505 -0.1066  0.1105 -0.1759
 2827TIP3    H130040   1.191   6.466   0.493  0.0597  0.8013  2.2595
 2827TIP3    H230041   1.308   6.427   0.582  1.2024 -1.8488 -0.2088
 2828TIP3   OH230042   1.881   4.660   2.248  0.0259 -0.3116  0.0147
 2828TIP3    H130043   1.818   4.703   2.306  0.0273 -0.8079  0.3949
 2828TIP3    H230044   1.940   4.729   2.219 -0.2383  0.0166  0.2635
 2829TIP3   OH230045   2.234   5.176   1.299 -0.5405 -0.4156  0.2914
 2829TIP3    H130046   2.274   5.089   1.307  2.6039  0.3675 -3.8059
 2829TIP3    H230047   2.172   5.167   1.227  0.3145  0.8323 -0.6271
 2830TIP3   OH230048   4.207   3.770   1.296  0.3817 -0.2266  0.2474
 2830TIP3    H130049   4.294   3.739   1.274 -0.4897 -1.8125 -1.1474
 2830TIP3    H230050   4.210   3.864   1.279  1.0396 -0.6763 -2.5764
 2831TIP3   OH230051   6.332   1.848   1.880  0.0241  0.8323 -0.5650
 2831TIP3    H130052   6.381   1.768   1.898  0.9100  1.0641 -1.9010
 2831TIP3    H230053   6.260   1.820   1.824 -1.7745  0.4018  1.7848
 2832TIP3   OH230054   4.112   0.950   1.422 -0.2200 -0.2753 -0.0301
 2832TIP3    H130055   4.194   0.904   1.403 -0.9968 -1.0473 -1.7748
 2832TIP3    H230056   4.057   0.884   1.464 -0.2410  0.0075  0.3942
 2833TIP3   OH230057   3.823   1.655   2.208 -0.2790 -0.2179  0.4656
 2833TIP3    H130058   3.876   1.719   2.256 -1.0854  1.2195 -0.5014
 2833TIP3    H230059   3.832   1.680   2.116 -0.3242 -1.7424  0.0225
 2834TIP3   OH230060   3.093   6.086   8.048  0.0977  0.1789  0.1567
 2834TIP3    H130061   3.020   6.119   7.997  1.0439 -0.1578 -1.4659
 2834TIP3    H230062   3.075   5.992   8.058 -1.3362  0.6172  2.6605
 2835TIP3   OH230063   2.477   5.390   2.604  0.4508  0.4621 -0.1136
 2835TIP3    H130064   2.407   5.439   2.648  2.0684  2.0916  0.7490
 2835TIP3    H230065   2.541   5.457   2.579  1.7297 -0.9885 -0.8635
 2836TIP3   OH230066   4.837   3.686   7.598 -0.9037  0.7731 -0.1742
 2836TIP3    H130067   4.766   3.635   7.636 -0.5040 -0.1959 -0.7065
 2836TIP3    H230068   4.917   3.643   7.629 -0.5599  1.2398 -0.4022
 2837TIP3   OH230069   4.060   6.501   0.269 -0.3486 -0.5103 -0.3921
 2837TIP3    H130070   4.040   6.424   0.322 -1.1053  0.9135  1.5112
 2837TIP3    H230071   4.150   6.487   0.240 -0.0375 -1.5268  0.9716
 2838TIP3   OH230072   3.738   0.219   2.733  0.0845  0.4258  0.5804
 2838TIP3    H130073   3.758   0.161   2.660  0.2267 -1.1281  1.8164
 2838TIP3    H230074   3.648   0.198   2.757 -0.1534  1.3232  0.5333
 2839TIP3   OH230075   4.201   3.827   0.292 -0.8431  0.5365  0.1557
 2839TIP3    H130076   4.280   3.827   0.347 -0.4447 -0.1300 -0.4030
 2839TIP3    H230077   4.146   3.896   0.330  1.0898  2.8523 -0.9993
 2840TIP3   OH230078   4.964   0.578   7.013 -0.3915  0.4783  0.2294
 2840TIP3    H130079   5.009   0.655   6.978 -0.5676  0.7351  0.5638
 2840TIP3    H230080   4.946   0.600   7.104  2.6118 -1.2585  1.3899
 2841TIP3   OH230081   3.663   5.565   8.610  0.4024 -0.2473  0.2966
 2841TIP3    H130082   3.619   5.566   8.526  0.4085 -1.2310  0.2707
 2841TIP3    H230083   3.593   5.570   8.675  0.3982  0.5077  0.2363
 2842TIP3   OH230084   3.456   0.602   1.333 -0.1912 -0.2486 -0.8655
 2842TIP3    H130085   3.429   0.513   1.356 -0.0738 -0.0025  0.2649
 2842TIP3    H230086   3.393   0.659   1.376 -0.1697  0.2274 -1.4483
 2843TIP3   OH230087   5.954   3.941   0.583  0.3477 -0.1694 -0.1023
 2843TIP3    H130088   6.043   3.976   0.591 -0.0764  2.0532 -3.2117
 2843TIP3    H230089   5.966   3.854   0.543  1.1319  0.1490 -0.5777
 2844TIP3   OH230090   3.203   5.239   3.000 -0.4465  0.1587  0.3606
 2844TIP3    H130091   3.255   5.319   2.998  0.5254 -0.1331  4.6143
 2844TIP3    H230092   3.257   5.175   2.952  0.4044  1.1898 -0.0926
 2845TIP3   OH230093   6.256   3.983   0.727  0.2426 -0.0300  0.2350
 2845TIP3    H130094   6.290   3.939   0.648  2.4112  0.7093  0.6935
 2845TIP3    H230095   6.281   3.924   0.799 -1.3446 -0.4851  0.4501
 2846TIP3   OH230096   4.937   3.270   0.684 -0.1975 -0.2037 -0.8137
 2846TIP3    H130097   4.964   3.295   0.773  3.3645 -0.3609 -1.7072
 2846TIP3    H230098   4.913   3.352   0.642 -1.9732 -0.1343  0.2581
 2847TIP3   OH230099   1.644   5.386   1.229 -0.2285 -0.2800 -0.2720
 2847TIP3    H130100   1.656   5.330   1.152  1.3194 -0.7727  0.2826
 2847TIP3    H230101   1.563   5.433   1.212 -2.2261 -3.4487 -0.2978
 2848TIP3   OH230102   5.304   2.336   1.842  0.4339 -0.0943  0.0200
 2848TIP3    H130103   5.396   2.322   1.821  1.0292  0.2946  2.1051
 2848TIP3    H230104   5.258   2.264   1.799  1.5803  0.1493 -1.7211
 2849TIP3   OH230105   2.385   3.566   0.167 -0.0743 -0.2074 -0.2105
 2849TIP3    H130106   2.426   3.588   0.083 -0.9925 -1.9979 -1.1964
 2849TIP3    H230107   2.297   3.536   0.143 -0.8424  0.5491  1.5445
 2850TIP3   OH230108   3.673   6.349   0.249  0.1748  0.0743 -0.1639
 2850TIP3    H130109   3.623   6.299   0.184 -0.7837  0.4603  0.2618
 2850TIP3    H230110   3.713   6.420   0.199  0.3397 -0.2609 -0.5135
 2851TIP3   OH230111   4.873   4.745   1.806  0.3951 -0.3245 -0.2698
 2851TIP3    H130112   4.928   4.686   1.857  0.9403 -0.0220 -0.5015
 2851TIP3    H230113   4.911   4.832   1.821  0.8507 -0.2876 -1.5797
 2852TIP3   OH230114   0.158   2.663   8.100 -0.0736 -0.7081  0.1382
 2852TIP3    H130115   0.159   2.571   8.125 -0.2074 -0.5396  0.7729
 2852TIP3    H230116   0.131   2.710   8.179  1.4264  0.0159  0.2518
 2853TIP3   OH230117   1.532   6.044   1.900 -0.1232 -0.1638  0.3209
 2853TIP3    H130118   1.505   6.035   1.809 -0.4844  0.6007  0.3460
 2853TIP3    H230119   1.471   6.108   1.937  0.1143 -0.3524  1.0612
 2854TIP3   OH230120   3.230   6.641   0.190 -0.2782  0.2097 -0.1505
 2854TIP3    H130121   3.155   6.637   0.250 -0.1976 -3.5169 -0.0932
 2854TIP3    H230122   3.305   6.659   0.247 -0.7979  1.8892  0.0643
 2855TIP3   OH230123   2.190   0.047   0.277 -0.2148 -0.3151 -0.4946
 2855TIP3    H130124   2.241   0.035   0.356 -0.6581  0.9782  0.0208
 2855TIP3    H230125   2.237   0.115   0.228 -1.5617  1.1583  0.1587
 2856TIP3   OH230126   5.201   5.892   1.203  0.2846  0.1013 -0.7235
 2856TIP3    H130127   5.109   5.891   1.229  0.4943 -0.0142  0.0439
 2856TIP3    H230128   5.209   5.820   1.141  0.1231 -0.6971  0.1647
 2857TIP3   OH230129   6.375   0.198   1.675 -0.4024 -0.3535 -0.3255
 2857TIP3    H130130   6.350   0.254   1.601  0.2974  0.8512  0.3209
 2857TIP3    H230131   6.304   0.208   1.738  0.4289  1.0861  0.4456
 2858TIP3   OH230132   4.987   2.125   7.992  0.0153  0.6988  0.4078
 2858TIP3    H130133   5.073   2.145   7.956 -0.4135  0.3601 -0.8506
 2858TIP3    H230134   4.929   2.126   7.917 -0.7718 -0.9699  0.9536
 2859TIP3   OH230135   4.613   3.961   7.122  0.0629 -0.4114 -0.5036
 2859TIP3    H130136   4.680   3.931   7.061 -0.4849 -0.1721 -1.2347
 2859TIP3    H230137   4.615   4.057   7.115 -0.1679 -0.3923 -0.3185
 2860TIP3   OH230138   0.504   6.542   7.576 -0.4073 -0.1271 -0.1137
 2860TIP3    H130139   0.548   6.481   7.517 -0.5816 -0.0057 -0.3712
 2860TIP3    H230140   0.419   6.557   7.536 -0.7330 -0.4489  0.4366
 2861TIP3   OH230141   2.257   4.428   0.191  0.2331  0.0592 -0.0858
 2861TIP3    H130142   2.218   4.435   0.103 -0.2754 -0.9559  0.0403
 2861TIP3    H230143   2.343   4.469   0.182 -0.0932  0.6133 -0.8720
 2862TIP3   OH230144   3.118   1.325   8.703 -0.6508  0.2801 -0.0742
 2862TIP3    H130145   3.101   1.298   8.793  1.4763 -1.9434 -0.2374
 2862TIP3    H230146   3.075   1.259   8.649 -0.8867  0.9129 -0.6734
 2863TIP3   OH230147   1.068   0.563   0.744 -0.4458 -0.0104  0.0572
 2863TIP3    H130148   1.052   0.503   0.671 -2.2927 -1.0720  1.2621
 2863TIP3    H230149   0.987   0.614   0.750  0.2919  1.1523  0.4031
 2864TIP3   OH230150   6.618   3.409   1.337 -0.3912 -0.4148  0.4250
 2864TIP3    H130151   6.702   3.372   1.363 -0.5777 -1.2167 -0.0811
 2864TIP3    H230152   6.581   3.444   1.418  0.7854  0.7095  0.5100
 2865TIP3   OH230153   3.919   5.920   2.270 -0.1349 -0.0801  0.3642
 2865TIP3    H130154   3.888   6.003   2.232  0.1842  0.7571  1.8499
 2865TIP3    H230155   3.863   5.854   2.229  0.1907  0.7430 -1.5360
 2866TIP3   OH230156   3.197   4.589   0.248  0.4253  0.3063 -0.0940
 2866TIP3    H130157   3.260   4.661   0.241  0.7395 -0.0545 -1.1164
 2866TIP3    H230158   3.155   4.586   0.162 -0.4906  0.0716  0.3418
 2867TIP3   OH230159   3.224   5.568   8.022  0.3237  0.2207 -0.2782
 2867TIP3    H130160   3.300   5.509   8.017 -0.6400 -0.9706 -1.5265
 2867TIP3    H230161   3.163   5.524   8.081 -0.4102 -0.0585 -1.2260
 2868TIP3   OH230162   4.270   5.698   0.589 -0.2959  0.0304  0.1867
 2868TIP3    H130163   4.268   5.674   0.496  0.4512  1.3768 -0.2076
 2868TIP3    H230164   4.258   5.615   0.636  0.0787 -0.7779 -1.1020
 2869TIP3   OH230165   3.257   1.143   0.392  0.2319  0.2642  0.3948
 2869TIP3    H130166   3.305   1.177   0.468  2.6084 -1.2443 -0.3040
 2869TIP3    H230167   3.246   1.050   0.411  2.1481 -0.4688 -1.6110
 2870TIP3   OH230168   4.494   6.762   8.469 -0.2224 -0.4719 -0.3559
 2870TIP3    H130169   4.558   6.706   8.424  0.5487 -0.1521  0.3327
 2870TIP3    H230170   4.531   6.850   8.463 -0.0747 -0.4345  0.9655
 2871TIP3   OH230171   3.517   0.873   1.783 -0.4882  0.3046  0.4548
 2871TIP3    H130172   3.568   0.858   1.863 -1.3926 -1.0536  0.8238
 2871TIP3    H230173   3.543   0.801   1.725 -1.5728 -0.1014  0.4526
 2872TIP3   OH230174   4.195   5.942   0.086 -0.6746 -0.5659  0.1532
 2872TIP3    H130175   4.200   5.996   0.007 -1.2407  0.3132  0.6927
 2872TIP3    H230176   4.219   6.002   0.157 -1.9536 -0.8211  0.8455
 2873TIP3   OH230177   6.684   6.768   7.630  0.0019 -0.0967 -0.2528
 2873TIP3    H130178   6.677   6.746   7.722  0.9425 -0.2803 -0.2211
 2873TIP3    H230179   6.673   6.685   7.584  0.1872 -0.1111 -0.2736
 2874TIP3   OH230180   6.194   2.024   3.050 -0.0522  0.3157 -0.1904
 2874TIP3    H130181   6.114   2.075   3.063 -0.5545 -0.8661  1.8033
 2874TIP3    H230182   6.164   1.942   3.010  0.1045 -0.1778  0.6693
 2875TIP3   OH230183   6.267   5.462   0.678  0.0077 -0.3201 -0.7413
 2875TIP3    H130184   6.344   5.490   0.727 -0.2941 -0.6570 -0.0593
 2875TIP3    H230185   6.295   5.465   0.586  1.0408 -1.0712 -0.4724
 2876TIP3   OH230186   0.589   4.811   3.135  0.5596  0.3522  0.0919
 2876TIP3    H130187   0.590   4.716   3.138  0.0098  0.3527  0.3465
 2876TIP3    H230188   0.679   4.836   3.156  0.5231 -0.0925  0.7935
 2877TIP3   OH230189   2.850   4.764   1.676 -0.0449  0.2042 -0.2202
 2877TIP3    H130190   2.921   4.788   1.616  0.5445  0.5635  0.5990
 2877TIP3    H230191   2.776   4.744   1.619  0.2549  1.3238 -1.0321
 2878TIP3   OH230192   6.539   2.496   8.625 -0.4027  0.5180  0.2554
 2878TIP3    H130193   6.568   2.578   8.665  1.1898  0.6436 -1.0651
 2878TIP3    H230194   6.479   2.524   8.555 -1.2742  0.4280  0.9460
 2879TIP3   OH230195   5.065   6.217   1.258 -0.4576  0.2229 -0.6041
 2879TIP3    H130196   5.078   6.215   1.163  1.2248 -0.7435 -0.3882
 2879TIP3    H230197   5.069   6.125   1.285  1.1348  0.6117  0.6217
 2880TIP3   OH230198   1.054   1.743   0.782  0.3596 -0.0949 -0.1848
 2880TIP3    H130199   1.107   1.769   0.706  0.5484  2.8175  0.8117
 2880TIP3    H230200   1.117   1.706   0.843  0.7096  0.2496 -0.3268
 2881TIP3   OH230201   3.336   5.884   1.331 -0.2068 -0.1750 -0.9898
 2881TIP3    H130202   3.253   5.883   1.283 -0.8475 -0.6714  0.0825
 2881TIP3    H230203   3.364   5.792   1.332 -1.8847 -0.8001  2.3091
 2882TIP3   OH230204   4.973   3.782   1.587 -0.1047  0.0596 -0.2830
 2882TIP3    H130205   4.955   3.775   1.681 -2.6132 -0.3025 -0.7147
 2882TIP3    H230206   5.052   3.728   1.574 -0.0846 -0.4148  1.4973
 2883TIP3   OH230207   1.970   1.084   7.954 -0.2094 -0.0886  0.5363
 2883TIP3    H130208   1.948   1.053   7.866  1.1179 -2.0404  0.8381
 2883TIP3    H230209   1.953   1.178   7.951  0.1298 -0.0381 -1.9101
 2884TIP3   OH230210   3.853   1.227   1.237  0.0257 -0.3759  0.1629
 2884TIP3    H130211   3.921   1.235   1.304  0.1611  1.6290 -0.1340
 2884TIP3    H230212   3.771   1.249   1.283 -0.4169 -2.4755  0.4479
 2885TIP3   OH230213   0.799   2.755   7.477 -0.1341  0.3074  0.3573
 2885TIP3    H130214   0.792   2.677   7.532  0.2638 -0.0835 -0.1407
 2885TIP3    H230215   0.884   2.747   7.433 -1.0849 -0.1903 -1.5014
 2886TIP3   OH230216   3.318   6.254   1.701 -0.7886  0.0634 -0.1323
 2886TIP3    H130217   3.284   6.343   1.700  1.1447  0.8573  1.2867
 2886TIP3    H230218   3.317   6.228   1.608  0.8695  2.4644 -0.9104
 2887TIP3   OH230219   4.879   2.245   0.795  0.2614 -0.5476  0.3615
 2887TIP3    H130220   4.926   2.207   0.721 -1.6042  0.3431 -1.3589
 2887TIP3    H230221   4.825   2.172   0.828  1.7338 -1.1866  1.4651
 2888TIP3   OH230222   5.145   5.626   2.597 -0.4035 -0.3272 -0.4089
 2888TIP3    H130223   5.086   5.577   2.540  0.3902 -1.4920 -0.2644
 2888TIP3    H230224   5.182   5.560   2.656  0.5480  0.4768 -0.0673
 2889TIP3   OH230225   0.510   0.704   8.213  0.2055 -0.5580 -0.0408
 2889TIP3    H130226   0.597   0.682   8.180 -0.5082 -0.6316 -2.0330
 2889TIP3    H230227   0.479   0.774   8.154 -0.8747 -0.1578  0.9542
 2890TIP3   OH230228   6.246   0.117   7.849  0.2552 -0.3056  0.2336
 2890TIP3    H130229   6.153   0.097   7.851  0.2927 -0.6247 -0.8723
 2890TIP3    H230230   6.289   0.033   7.835  0.6931 -0.0959  0.2742
 2891TIP3   OH230231   0.745   5.621   1.046 -0.5722  0.1732 -0.4871
 2891TIP3    H130232   0.700   5.539   1.026  0.0238 -0.3268  0.1647
 2891TIP3    H230233   0.795   5.640   0.966  0.5995 -1.0032 -0.0704
 2892TIP3   OH230234   3.261   1.657   7.838  0.6792 -0.4120  0.4025
 2892TIP3    H130235   3.257   1.751   7.856  1.9755 -0.0411 -1.1024
 2892TIP3    H230236   3.336   1.626   7.888  0.9411 -0.4363 -0.0088
 2893TIP3   OH230237   0.728   3.485   7.831  0.0014 -0.4780  0.0596
 2893TIP3    H130238   0.721   3.574   7.797 -1.8484 -0.3792  0.5754
 2893TIP3    H230239   0.771   3.496   7.917 -0.4022 -0.0537  0.2118
 2894TIP3   OH230240   1.182   6.136   7.621  0.6503 -0.2781  0.4673
 2894TIP3    H130241   1.256   6.158   7.678  0.7112  0.8574 -0.0132
 2894TIP3    H230242   1.167   6.216   7.570 -0.0132 -0.9524 -0.4321
 2895TIP3   OH230243   1.095   3.879   8.112  0.3539  0.3583  0.4141
 2895TIP3    H130244   1.144   3.827   8.049 -0.8671  1.0501 -1.1951
 2895TIP3    H230245   1.156   3.947   8.140  1.2697 -0.6379  0.8771
 2896TIP3   OH230246   1.346   1.772   7.209 -0.5776 -0.3050  0.3007
 2896TIP3    H130247   1.433   1.785   7.247 -1.3138  1.8904  1.4105
 2896TIP3    H230248   1.353   1.689   7.162  2.4563  0.3091 -0.6256
 2897TIP3   OH230249   3.499   4.354   1.749  0.1969  0.5509  0.3146
 2897TIP3    H130250   3.521   4.439   1.711  4.3098 -0.7506 -0.7412
 2897TIP3    H230251   3.486   4.372   1.842 -1.4827  2.5684 -0.2126
 2898TIP3   OH230252   4.649   5.029   7.346  0.1995  0.2270 -0.1220
 2898TIP3    H130253   4.679   5.035   7.256 -1.1751  1.3187 -0.5529
 2898TIP3    H230254   4.599   5.110   7.360  1.9201  0.9972  2.2243
 2899TIP3   OH230255   5.125   4.955   1.027 -0.2237  0.3386 -0.2597
 2899TIP3    H130256   5.218   4.933   1.033 -0.2310  0.7079  2.3768
 2899TIP3    H230257   5.080   4.879   1.062 -0.7886  0.8861  0.2321
 2900TIP3   OH230258   2.771   4.031   2.021 -0.0792 -0.2690  0.2969
 2900TIP3    H130259   2.856   4.031   2.065  0.1325  0.4565 -0.0801
 2900TIP3    H230260   2.708   4.046   2.092  0.2749  1.1143  0.3489
 2901TIP3   OH230261   3.677   4.965   2.809 -0.6580  0.0934  0.0639
 2901TIP3    H130262   3.755   5.021   2.810 -0.6333  0.1225 -1.6328
 2901TIP3    H230263   3.698   4.895   2.871  0.0492  0.9664  0.8458
 2902TIP3   OH230264   3.292   5.917   1.957  0.0578 -0.0826  0.0232
 2902TIP3    H130265   3.233   5.844   1.973  0.8568 -0.8556 -0.4979
 2902TIP3    H230266   3.234   5.994   1.953 -0.8877 -0.7920 -0.2733
 2903TIP3   OH230267   5.666   2.233   0.728 -0.3964 -0.5024 -0.3365
 2903TIP3    H130268   5.676   2.140   0.711  0.7154 -0.3323 -0.7342
 2903TIP3    H230269   5.585   2.240   0.778 -0.5356 -1.6669 -0.3705
 2904TIP3   OH230270   2.200   0.789   7.709 -0.4043  0.1571  0.2803
 2904TIP3    H130271   2.266   0.854   7.683 -1.6182  1.2296 -0.1811
 2904TIP3    H230272   2.190   0.733   7.633 -1.0732  0.8839 -0.1756
 2905TIP3   OH230273   4.020   0.876   7.995  0.3030  0.2040 -0.2647
 2905TIP3    H130274   4.100   0.874   8.048  0.7621 -0.6532 -0.9571
 2905TIP3    H230275   4.016   0.966   7.962 -0.1697  0.8490  1.4548
 2906TIP3   OH230276   2.420   3.093   6.907 -0.6023 -0.3190 -0.2539
 2906TIP3    H130277   2.439   3.178   6.868 -1.6406  0.9978  1.9150
 2906TIP3    H230278   2.506   3.058   6.930 -0.1105 -0.2506 -1.8740
 2907TIP3   OH230279   1.563   1.086   8.682 -0.2917  0.2361 -0.5978
 2907TIP3    H130280   1.563   1.032   8.603  0.9947  2.3159 -2.1489
 2907TIP3    H230281   1.540   1.174   8.650  2.3604  1.5926  0.8971
 2908TIP3   OH230282   4.133   1.681   2.134  0.5965  0.3154  0.0912
 2908TIP3    H130283   4.086   1.709   2.213  0.4762  0.9025 -0.1853
 2908TIP3    H230284   4.089   1.600   2.108  0.4391  0.2819  0.4495
 2909TIP3   OH230285   5.265   3.232   0.859 -0.0265  0.1943  0.2702
 2909TIP3    H130286   5.309   3.157   0.818 -0.8359  0.0772 -0.4011
 2909TIP3    H230287   5.174   3.206   0.865  0.1120  0.0755  2.5028
 2910TIP3   OH230288   2.939   4.591   3.183 -0.3178  0.2202  0.0724
 2910TIP3    H130289   3.001   4.523   3.157  0.0928  0.9819 -1.0088
 2910TIP3    H230290   2.991   4.671   3.184 -0.7270  0.5097  1.6010
 2911TIP3   OH230291   6.563   5.685   1.319 -0.3872 -0.1675  0.3282
 2911TIP3    H130292   6.623   5.750   1.283 -0.8183  0.7217  1.1724
 2911TIP3    H230293   6.478   5.728   1.319 -1.3056 -1.7807 -1.8832
 2912TIP3   OH230294   4.176   4.916   2.669 -0.2078 -1.3989 -0.2669
 2912TIP3    H130295   4.085   4.890   2.676 -0.0262 -1.6106  2.0544
 2912TIP3    H230296   4.222   4.836   2.645 -0.3714 -1.8696  0.9328
 2913TIP3   OH230297   1.924   5.955   1.610 -0.1505 -0.3804 -0.5813
 2913TIP3    H130298   1.831   5.964   1.589 -0.1870  0.3294 -0.1616
 2913TIP3    H230299   1.939   6.020   1.679  0.7894 -0.0556 -1.0763
 2914TIP3   OH230300   2.912   4.464   0.409 -0.0886  0.1579  0.0188
 2914TIP3    H130301   2.822   4.467   0.440  0.2327  1.2458  0.9130
 2914TIP3    H230302   2.931   4.371   0.399 -1.0189 -0.1124  0.6601
 2915TIP3   OH230303   3.782   3.994   0.255  0.0999  0.1177  0.0154
 2915TIP3    H130304   3.860   4.050   0.258 -0.5326  0.9795  2.8081
 2915TIP3    H230305   3.726   4.037   0.190  1.5369 -0.0134 -1.3766
 2916TIP3   OH230306   4.798   6.146   1.572 -0.0857 -0.2608 -0.2654
 2916TIP3    H130307   4.885   6.117   1.544  0.2947 -0.9898  1.5226
 2916TIP3    H230308   4.774   6.085   1.641 -1.2516  1.0056  0.4879
 2917TIP3   OH230309   0.909   1.494   1.099 -0.0967  0.5341 -0.1254
 2917TIP3    H130310   0.942   1.409   1.128  0.1910  0.9749  0.8937
 2917TIP3    H230311   0.985   1.552   1.104 -0.4568  1.0094 -0.1005
 2918TIP3   OH230312   3.176   2.226   2.178  0.2009 -0.6288  0.5537
 2918TIP3    H130313   3.259   2.179   2.187  1.5252  1.1503 -1.4381
 2918TIP3    H230314   3.179   2.264   2.090 -2.6494 -0.3061  0.5008
 2919TIP3   OH230315   0.952   6.365   0.561  0.8146 -0.4570  0.6764
 2919TIP3    H130316   0.974   6.458   0.549  0.8630 -0.2531  2.1251
 2919TIP3    H230317   0.934   6.333   0.473 -1.3922  1.4970  0.2882
 2920TIP3   OH230318   3.631   0.648   1.046 -0.5681 -0.6879 -0.0859
 2920TIP3    H130319   3.626   0.586   1.118  0.4268 -0.1479  0.4630
 2920TIP3    H230320   3.578   0.722   1.074  1.4577  0.4211  1.0477
 2921TIP3   OH230321   3.272   0.005   8.164  0.0525 -0.0787  0.0060
 2921TIP3    H130322   3.177  -0.000   8.155 -0.2445  1.3406  1.6379
 2921TIP3    H230323   3.297  -0.078   8.205 -0.5559 -0.2888 -0.0476
 2922TIP3   OH230324   1.083   3.063   6.862 -0.1343  0.4585 -0.0187
 2922TIP3    H130325   1.179   3.072   6.858 -0.1297  2.1815  2.1251
 2922TIP3    H230326   1.051   3.146   6.826 -0.7449  0.6464  0.9334
 2923TIP3   OH230327   2.184   0.442   1.658 -0.1675 -0.0593  0.3225
 2923TIP3    H130328   2.103   0.423   1.611  0.4795  0.0084 -0.8518
 2923TIP3    H230329   2.161   0.512   1.719 -1.0636 -0.2687  0.2348
 2924TIP3   OH230330   5.231   6.560   7.657  0.6506  0.2568 -0.1055
 2924TIP3    H130331   5.204   6.649   7.632 -2.2381 -0.2011  0.9957
 2924TIP3    H230332   5.279   6.573   7.739  0.5543  0.8478 -0.1324
 2925TIP3   OH230333   3.130   0.593   7.519 -0.6025  0.5345 -0.6598
 2925TIP3    H130334   3.096   0.682   7.528 -2.0943 -0.0369 -0.2429
 2925TIP3    H230335   3.146   0.582   7.426 -0.5876  1.1674 -0.7341
 2926TIP3   OH230336   5.703   1.250   0.339 -0.3686 -0.3548  0.4946
 2926TIP3    H130337   5.790   1.287   0.322  0.2676 -2.0483 -0.1074
 2926TIP3    H230338   5.648   1.327   0.358  0.0026  1.4075 -4.1738
 2927TIP3   OH230339   2.350   5.485   8.575  0.3831 -0.6009 -0.1126
 2927TIP3    H130340   2.265   5.483   8.618 -0.2682 -0.5273 -1.3404
 2927TIP3    H230341   2.413   5.493   8.646 -0.6952  0.4911  0.7534
 2928TIP3   OH230342   6.667   0.927   1.306  0.2068  0.5286  0.3792
 2928TIP3    H130343   6.749   0.880   1.318  1.1003  2.1967  1.1606
 2928TIP3    H230344   6.630   0.891   1.226  0.9338 -1.3188  0.8269
 2929TIP3   OH230345   3.013   1.040   8.239  0.4385  0.5409 -0.6215
 2929TIP3    H130346   3.010   0.945   8.249  1.0837  0.3959 -1.6320
 2929TIP3    H230347   2.930   1.071   8.275  0.4456 -0.3509  0.2093
 2930TIP3   OH230348   4.535   5.818   0.615  0.1100  0.6760  0.3060
 2930TIP3    H130349   4.508   5.875   0.543 -0.2722  0.1897  0.0535
 2930TIP3    H230350   4.453   5.785   0.651  0.3173  0.5152  0.6356
 2931TIP3   OH230351   0.266   4.724   1.607  0.0253  0.3067 -0.3428
 2931TIP3    H130352   0.320   4.658   1.563  0.2881 -1.5394  2.5542
 2931TIP3    H230353   0.304   4.807   1.578  2.4893 -0.8561 -0.7776
 2932TIP3   OH230354   0.640   4.909   1.518 -0.1500 -0.2885 -0.2118
 2932TIP3    H130355   0.571   4.951   1.466 -2.7996 -1.6557  1.9182
 2932TIP3    H230356   0.651   4.824   1.477  0.5412  0.0416 -0.7306
 2933TIP3   OH230357   3.874   6.316   8.656 -0.2246 -0.7204  0.2985
 2933TIP3    H130358   3.841   6.344   8.571  0.2669 -1.4681 -0.1396
 2933TIP3    H230359   3.853   6.390   8.715 -1.8117 -0.7667 -0.1556
 2934TIP3   OH230360   1.029   4.657   1.268  0.1528 -0.2154 -1.1144
 2934TIP3    H130361   1.033   4.746   1.234  1.5358  0.4044  0.5167
 2934TIP3    H230362   1.119   4.627   1.270  0.0515 -0.5610  0.9651
 2935TIP3   OH230363   1.245   2.295   7.798  0.2738  0.4602 -0.0264
 2935TIP3    H130364   1.259   2.297   7.703 -0.9051  1.1729 -0.2067
 2935TIP3    H230365   1.182   2.225   7.812  1.0420 -0.1658  0.3280
 2936TIP3   OH230366   4.692   2.954   7.636 -0.0793 -0.0823 -0.2546
 2936TIP3    H130367   4.654   2.942   7.723  1.2834  0.8865  0.5002
 2936TIP3    H230368   4.683   2.868   7.594 -2.0645 -0.1905  0.2688
 2937TIP3   OH230369   1.137   5.683   1.113 -0.0443  0.6173  0.2285
 2937TIP3    H130370   1.128   5.720   1.025  0.5257  1.6674  0.5906
 2937TIP3    H230371   1.059   5.712   1.159 -0.1253  0.4441  0.2011
 2938TIP3   OH230372   6.385   4.455   0.236  0.2618 -0.3478  0.3289
 2938TIP3    H130373   6.317   4.389   0.249  0.2639 -0.1552  1.3517
 2938TIP3    H230374   6.464   4.405   0.215 -0.0819 -0.5927 -0.4199
 2939TIP3   OH230375   0.646   6.744   8.306  0.2412 -0.5380 -0.3294
 2939TIP3    H130376   0.644   6.761   8.211  0.8052  1.9091  0.0174
 2939TIP3    H230377   0.569   6.690   8.322 -1.4376  1.2498 -1.8482
 2940TIP3   OH230378   3.709   6.125   2.368 -0.2797 -0.4119  0.0266
 2940TIP3    H130379   3.740   6.117   2.278 -0.1642  1.8536 -0.1869
 2940TIP3    H230380   3.616   6.149   2.359 -0.5071 -1.0869  0.5350
 2941TIP3   OH230381   0.355   3.567   8.689 -0.0050  0.2443  0.3123
 2941TIP3    H130382   0.338   3.639   8.627 -0.8852 -0.7480 -0.6589
 2941TIP3    H230383   0.450   3.564   8.697  0.0457  1.7974  0.7456
 2942TIP3   OH230384   2.813   6.778   2.535  0.5841  0.1792  0.8817
 2942TIP3    H130385   2.787   6.868   2.553 -0.8533 -0.3807  1.8390
 2942TIP3    H230386   2.907   6.776   2.549  0.6484  1.5509  0.7291
 2943TIP3   OH230387   5.870   6.286   2.513  0.7617  0.2787 -0.3963
 2943TIP3    H130388   5.887   6.239   2.595 -0.5202  1.2209  0.4478
 2943TIP3    H230389   5.929   6.362   2.516 -0.0751  0.9120  0.1940
 2944TIP3   OH230390   3.142   2.403   8.241 -0.4419  0.2487  0.0340
 2944TIP3    H130391   3.076   2.339   8.216 -0.1713  1.0025 -2.9860
 2944TIP3    H230392   3.191   2.360   8.312 -3.2831 -0.8103  1.5006
 2945TIP3   OH230393   0.282   4.105   0.342 -0.2415  0.2442  0.5497
 2945TIP3    H130394   0.219   4.036   0.360 -1.1847  1.2067  1.0890
 2945TIP3    H230395   0.231   4.186   0.348  0.6231  0.9462 -0.9977
 2946TIP3   OH230396   5.237   5.096   7.341 -0.5516  0.5677 -0.7907
 2946TIP3    H130397   5.147   5.086   7.311 -0.2995 -0.1980 -1.3074
 2946TIP3    H230398   5.283   5.137   7.268 -0.4332  0.7683 -0.6057
 2947TIP3   OH230399   3.644   4.742   8.751  0.6988 -0.3488 -0.6471
 2947TIP3    H130400   3.597   4.740   8.834 -3.0142  0.7364 -2.4791
 2947TIP3    H230401   3.701   4.819   8.757  1.2928 -0.8857  1.2022
 2948TIP3   OH230402   4.235   2.871   1.009  0.2769 -0.3670  0.8365
 2948TIP3    H130403   4.230   2.916   0.925  1.7241  1.0542  1.4581
 2948TIP3    H230404   4.231   2.778   0.987 -0.6277 -0.0079 -0.6728
 2949TIP3   OH230405   3.420   5.388   8.070  0.4375 -0.4566 -0.5444
 2949TIP3    H130406   3.419   5.356   7.980 -1.3985 -1.7959 -0.0922
 2949TIP3    H230407   3.436   5.310   8.124  0.2075  0.1003  0.3568
 2950TIP3   OH230408   1.612   0.315   7.858  0.2892 -0.1436 -0.2818
 2950TIP3    H130409   1.664   0.376   7.911  0.4537  2.0192 -2.7421
 2950TIP3    H230410   1.667   0.296   7.782 -0.6204 -1.7459 -0.5868
 2951TIP3   OH230411   4.311   6.649   2.669  0.3946  0.0394  0.5124
 2951TIP3    H130412   4.344   6.622   2.754  1.6209 -1.6258 -0.4315
 2951TIP3    H230413   4.217   6.660   2.681  0.4778 -0.6879  1.9465
 2952TIP3   OH230414   2.040   5.318   1.445  0.0563 -0.5839  0.2545
 2952TIP3    H130415   2.096   5.266   1.387  0.4945 -0.4386  0.5414
 2952TIP3    H230416   1.983   5.366   1.385  1.5591  0.7885 -0.1601
 2953TIP3   OH230417   0.392   6.693   1.060 -0.0946 -0.0961 -0.3724
 2953TIP3    H130418   0.434   6.779   1.058  0.5448 -0.3897  0.0468
 2953TIP3    H230419   0.405   6.657   0.973 -2.1937  1.0730 -1.2318
 2954TIP3   OH230420   6.038   4.475   0.180  0.3015  0.9179  0.1999
 2954TIP3    H130421   5.947   4.450   0.194  0.3039  0.5322 -0.4208
 2954TIP3    H230422   6.060   4.531   0.255  0.1733 -0.6549  1.4748
 2955TIP3   OH230423   2.614   0.509   1.653  0.3379 -0.8943  0.1983
 2955TIP3    H130424   2.692   0.536   1.702  1.9197 -1.0578 -2.0784
 2955TIP3    H230425   2.617   0.414   1.652 -0.8885 -0.9938  1.5034
 2956TIP3   OH230426   4.364   2.189   2.053 -0.4915 -0.0868  0.2451
 2956TIP3    H130427   4.320   2.239   2.122 -2.2966 -0.8013 -0.3172
 2956TIP3    H230428   4.441   2.151   2.095 -1.6640 -0.6900  1.9476
 2957TIP3   OH230429   0.461   1.990   2.067 -0.2251  0.2741 -0.1700
 2957TIP3    H130430   0.481   2.011   1.976  0.2765 -0.6240 -0.2790
 2957TIP3    H230431   0.435   2.074   2.106  1.6376  1.1148 -0.5986
 2958TIP3   OH230432   1.043   1.946   7.987 -0.6410 -0.1043  0.1080
 2958TIP3    H130433   1.005   1.911   8.067  0.6764  1.9292  1.7322
 2958TIP3    H230434   1.012   2.036   7.983  0.5562  0.2967 -0.8328
 2959TIP3   OH230435   0.345   4.352   1.097  0.3537 -0.3574 -0.4070
 2959TIP3    H130436   0.439   4.365   1.087  0.2382  1.8057  0.8056
 2959TIP3    H230437   0.338   4.266   1.140  1.8971  0.2429  1.1796
 2960TIP3   OH230438   3.496   0.764   0.818 -0.1786 -0.3415 -0.2233
 2960TIP3    H130439   3.526   0.784   0.729  1.0007 -1.0992 -0.0153
 2960TIP3    H230440   3.575   0.736   0.864 -0.2827  2.2032  1.7402
 2961TIP3   OH230441   0.423   1.231   2.590  0.4376  0.1510  0.1232
 2961TIP3    H130442   0.494   1.186   2.635 -0.0729  0.3464  1.1706
 2961TIP3    H230443   0.429   1.202   2.499  3.1408  1.7495 -0.3200
 2962TIP3   OH230444   6.426   1.526   8.091  0.0787 -0.2034 -0.0460
 2962TIP3    H130445   6.350   1.469   8.077 -0.8882  1.2342 -0.8697
 2962TIP3    H230446   6.499   1.465   8.101 -1.0566 -1.6123  0.0354
 2963TIP3   OH230447   2.300   3.381   7.982  0.2990  0.1327 -0.4163
 2963TIP3    H130448   2.349   3.317   7.931  1.5150 -1.3619  2.3990
 2963TIP3    H230449   2.228   3.330   8.021  1.1674  0.4371  1.7084
 2964TIP3   OH230450   4.461   5.169   1.356 -0.1851  0.3627 -0.1437
 2964TIP3    H130451   4.476   5.093   1.413 -0.4083  1.7534  1.8674
 2964TIP3    H230452   4.549   5.200   1.333 -0.0450  0.8432  0.9638
 2965TIP3   OH230453   4.943   5.180   2.549  0.6028 -0.3652 -0.3477
 2965TIP3    H130454   4.886   5.183   2.472 -0.2051  0.8465  0.2693
 2965TIP3    H230455   4.902   5.239   2.612  1.1355 -1.4964  1.1074
 2966TIP3   OH230456   6.135   3.745   1.392  0.5635 -0.6357  0.0043
 2966TIP3    H130457   6.163   3.786   1.311 -0.3455 -0.7908 -0.4003
 2966TIP3    H230458   6.041   3.730   1.381  0.1380  0.5619  1.6152
 2967TIP3   OH230459   1.491   5.928   8.751 -0.4502 -0.6007 -0.4386
 2967TIP3    H130460   1.543   5.851   8.774 -2.0566 -0.9227  2.7314
 2967TIP3    H230461   1.495   5.983   8.829 -2.0465  0.9488 -1.3833
 2968TIP3   OH230462   4.979   0.749   0.368 -0.5140 -0.3578 -0.2057
 2968TIP3    H130463   5.023   0.671   0.332  0.2834 -0.0952  0.1728
 2968TIP3    H230464   4.982   0.736   0.463 -0.0772  0.2870 -0.1274
 2969TIP3   OH230465   2.143   0.767   8.508 -0.2902 -0.3292 -0.4680
 2969TIP3    H130466   2.099   0.851   8.496  0.6031  0.3028  0.5333
 2969TIP3    H230467   2.131   0.722   8.424 -2.0826  0.1480 -0.5056
 2970TIP3   OH230468   3.599   5.067   0.806  0.1754 -0.1706 -0.0848
 2970TIP3    H130469   3.576   4.979   0.778 -2.2395  0.2324  0.4143
 2970TIP3    H230470   3.613   5.059   0.901  4.1367 -0.7246 -0.5527
 2971TIP3   OH230471   4.604   0.734   7.211 -0.0674 -0.0316  0.6089
 2971TIP3    H130472   4.558   0.720   7.128 -0.6601  1.0107  0.7342
 2971TIP3    H230473   4.696   0.745   7.187 -0.3117  0.8363  0.0086
 2972TIP3   OH230474   4.646   2.737   2.185  0.1170 -0.1339 -0.3767
 2972TIP3    H130475   4.611   2.825   2.198  1.3566  0.3787 -0.3811
 2972TIP3    H230476   4.636   2.722   2.091 -1.4143 -0.6062 -0.1761
 2973TIP3   OH230477   5.142   3.870   8.498  0.0027  0.0992  0.9434
 2973TIP3    H130478   5.224   3.879   8.450 -0.0270 -1.2971  0.5585
 2973TIP3    H230479   5.167   3.823   8.578 -0.5370 -1.2520  0.3502
 2974TIP3   OH230480   4.743   2.865   8.351 -0.3546 -0.1746  0.2501
 2974TIP3    H130481   4.655   2.827   8.343  0.6171 -2.6522  0.5233
 2974TIP3    H230482   4.766   2.851   8.443 -0.0798  1.5019  0.4672
 2975TIP3   OH230483   1.609   2.032   8.433 -0.1583 -0.0047 -0.1169
 2975TIP3    H130484   1.524   2.038   8.478 -0.0724  1.0993 -0.0653
 2975TIP3    H230485   1.593   2.070   8.347  0.2251 -0.0284 -0.1984
 2976TIP3   OH230486   0.256   4.888   7.482 -0.5842 -0.0598  0.1389
 2976TIP3    H130487   0.197   4.963   7.476  0.6553  0.9660  0.4613
 2976TIP3    H230488   0.318   4.899   7.410 -1.6954 -1.9981 -1.2122
 2977TIP3   OH230489   4.427   1.054   0.712  0.3428  0.1027 -0.2765
 2977TIP3    H130490   4.344   1.027   0.672  0.1163 -1.4409  1.1028
 2977TIP3    H230491   4.491   1.051   0.641 -0.3180 -1.1511 -0.8461
 2978TIP3   OH230492   3.955   5.680   1.737  0.4183 -0.0662 -0.0300
 2978TIP3    H130493   3.994   5.678   1.825 -0.9020  0.5816  0.6015
 2978TIP3    H230494   3.869   5.639   1.748 -0.5560  1.7245 -0.5847
 2979TIP3   OH230495   3.545   1.414   7.663 -1.0803 -0.1184 -0.0755
 2979TIP3    H130496   3.526   1.502   7.630  3.4152  2.0297  2.3021
 2979TIP3    H230497   3.610   1.379   7.602 -1.8213 -1.3083 -0.2203
 2980TIP3   OH230498   0.964   2.335   1.135  0.1184  0.4676 -0.1607
 2980TIP3    H130499   0.948   2.420   1.178  1.1463 -0.1447  1.5482
 2980TIP3    H230500   0.891   2.280   1.164 -0.5516  0.7323 -1.2747
 2981TIP3   OH230501   2.812   6.826   7.080 -0.1005  0.1032  0.7093
 2981TIP3    H130502   2.847   6.742   7.052  0.1763  1.1189 -2.3963
 2981TIP3    H230503   2.867   6.891   7.036 -2.9648  1.8252 -0.6872
 2982TIP3   OH230504   1.516   4.102   1.323 -0.0118  0.3273  0.3334
 2982TIP3    H130505   1.545   4.149   1.402  0.8111  0.5833 -0.1062
 2982TIP3    H230506   1.487   4.172   1.264  0.0528  0.1862  0.1365
 2983TIP3   OH230507   2.447   6.096   0.231 -0.5202 -0.1280 -0.1408
 2983TIP3    H130508   2.501   6.103   0.152 -0.0442  0.3189  0.2204
 2983TIP3    H230509   2.468   6.010   0.268 -1.8512 -0.9970 -1.2912
 2984TIP3   OH230510   0.301   6.790   1.349 -0.5309  0.4538 -0.0722
 2984TIP3    H130511   0.274   6.867   1.298 -2.0764 -0.5789 -0.9014
 2984TIP3    H230512   0.378   6.757   1.304 -1.5611 -0.1254 -1.4629
 2985TIP3   OH230513   6.113   6.826   1.817 -0.2206 -0.2612  0.3583
 2985TIP3    H130514   6.160   6.873   1.886 -0.6955  1.2716 -0.3180
 2985TIP3    H230515   6.107   6.736   1.849  0.1155  0.2717  2.0158
 2986TIP3   OH230516   3.368   1.495   8.583  0.5099  0.1559  0.1021
 2986TIP3    H130517   3.344   1.587   8.593  1.8155  0.4093  1.1542
 2986TIP3    H230518   3.291   1.455   8.543 -0.9316  1.2886  1.5945
 2987TIP3   OH230519   5.867   3.214   0.734  0.2866 -0.5326 -0.3229
 2987TIP3    H130520   5.826   3.224   0.647 -0.3460 -0.0665  0.0187
 2987TIP3    H230521   5.957   3.189   0.715 -0.3661 -2.4962 -1.0890
 2988TIP3   OH230522   5.977   0.818   8.353  0.0822 -0.0130 -0.0583
 2988TIP3    H130523   5.958   0.903   8.314 -0.7694 -0.3648 -0.4257
 2988TIP3    H230524   5.989   0.837   8.446 -1.1048  0.3727  0.0332
 2989TIP3   OH230525   2.245   5.010   6.948  0.2077  0.4065  0.1823
 2989TIP3    H130526   2.237   5.057   6.864 -2.8581 -0.7702 -0.3060
 2989TIP3    H230527   2.201   4.927   6.933  0.1510 -0.1104  2.7966
 2990TIP3   OH230528   2.523   1.653   8.511 -0.0859 -0.6615  0.0191
 2990TIP3    H130529   2.589   1.719   8.531 -1.7956  0.8287  0.9855
 2990TIP3    H230530   2.443   1.685   8.552 -1.3303 -2.6395 -0.7053
 2991TIP3   OH230531   5.060   3.553   0.806  0.0589 -0.4404 -0.4661
 2991TIP3    H130532   5.063   3.471   0.855  0.0707 -0.8326 -1.1029
 2991TIP3    H230533   5.151   3.572   0.785  0.1036  0.0217  0.1370
 2992TIP3   OH230534   1.745   5.175   3.053  0.1112  0.0908 -0.4299
 2992TIP3    H130535   1.783   5.121   3.122 -0.6994 -0.2160 -0.2119
 2992TIP3    H230536   1.817   5.190   2.992  0.3080 -1.4646 -0.6379
 2993TIP3   OH230537   3.035   0.639   8.510 -0.5072  0.0661 -0.3292
 2993TIP3    H130538   3.001   0.671   8.594 -0.3056 -0.2232 -0.1339
 2993TIP3    H230539   2.990   0.691   8.444  0.0828  1.0016 -0.0049
 2994TIP3   OH230540   5.606   4.665   8.125  0.1691 -0.3909  0.1370
 2994TIP3    H130541   5.631   4.610   8.199  0.5175 -0.8297 -0.2997
 2994TIP3    H230542   5.543   4.612   8.076 -0.5374  0.1403  0.4448
 2995TIP3   OH230543   2.528   3.168   0.488 -0.4037 -0.9385  0.1693
 2995TIP3    H130544   2.479   3.250   0.488  0.2267 -0.5484  0.2006
 2995TIP3    H230545   2.620   3.195   0.497 -0.0843 -1.5798 -0.9285
 2996TIP3   OH230546   0.518   1.293   0.938  0.2359  0.4798  0.6503
 2996TIP3    H130547   0.469   1.275   0.858  1.4617 -0.6123  0.0891
 2996TIP3    H230548   0.600   1.245   0.926  0.2220 -0.1795  2.8147
 2997TIP3   OH230549   3.378   5.003   2.280  0.3950 -0.4517 -0.0892
 2997TIP3    H130550   3.364   4.918   2.321  0.9131 -0.4757  0.0444
 2997TIP3    H230551   3.317   5.004   2.206 -0.6768 -0.3310  0.7706
 2998TIP3   OH230552   1.281   1.959   0.041  0.5120 -0.5110  0.2153
 2998TIP3    H130553   1.302   1.884  -0.014  0.3880 -0.0012 -0.5321
 2998TIP3    H230554   1.366   1.986   0.077  0.6071 -0.7730  0.1935
 2999TIP3   OH230555   6.733   2.670   0.008 -0.2686  0.5511 -0.3730
 2999TIP3    H130556   6.684   2.739   0.053 -2.8032 -1.3591  0.0199
 2999TIP3    H230557   6.751   2.605   0.075  1.2323  0.3425 -0.9332
 3000TIP3   OH230558   4.484   2.305   7.750 -0.4223 -0.7430 -0.2624
 3000TIP3    H130559   4.484   2.271   7.660 -0.0094  0.8969 -0.9259
 3000TIP3    H230560   4.397   2.286   7.783  0.5193 -4.6908  0.3695
 3001TIP3   OH230561   4.420   4.246   0.887  0.0117 -0.0190  0.5855
 3001TIP3    H130562   4.345   4.188   0.896  0.0385 -0.0517  0.6000
 3001TIP3    H230563   4.494   4.187   0.870 -0.1264  0.0731 -0.3836
 3002TIP3   OH230564   1.925   6.734   1.403  0.0549 -0.2710 -0.2000
 3002TIP3    H130565   1.929   6.689   1.319  1.6286  1.5528 -1.1698
 3002TIP3    H230566   1.871   6.811   1.387 -1.1732 -0.8372  0.9824
 3003TIP3   OH230567   5.531   6.659   3.404 -0.0561  0.2591  0.2284
 3003TIP3    H130568   5.517   6.748   3.373 -2.0468 -0.7169 -2.0765
 3003TIP3    H230569   5.445   6.617   3.396  0.9923 -2.1000  0.3185
 3004TIP3   OH230570   0.117   4.586   0.032 -0.0054  0.2532 -0.6105
 3004TIP3    H130571   0.090   4.623   0.115  1.0121 -2.4057  1.0559
 3004TIP3    H230572   0.052   4.617  -0.031 -2.5588  0.0636  1.7338
 3005TIP3   OH230573   0.061   4.358   8.486  0.4424 -0.7490 -0.3321
 3005TIP3    H130574  -0.019   4.399   8.519  0.8376 -1.2264  1.3257
 3005TIP3    H230575   0.031   4.280   8.439 -0.0520 -1.6696  1.4164
 3006TIP3   OH230576   3.138   5.398   2.101 -0.3286 -0.2089  0.7972
 3006TIP3    H130577   3.166   5.354   2.021 -1.1884 -0.5387  0.6674
 3006TIP3    H230578   3.101   5.328   2.155 -2.8163  0.4447  0.1085
 3007TIP3   OH230579   0.100   6.645   3.450  0.0962  0.3083  0.5770
 3007TIP3    H130580   0.192   6.671   3.446  0.2795 -0.4737 -1.6946
 3007TIP3    H230581   0.052   6.722   3.419  0.0679  0.3138  0.6335
 3008TIP3   OH230582   1.440   6.599   8.605  0.2320 -0.1013  0.2273
 3008TIP3    H130583   1.469   6.623   8.517  0.5377  0.8832  0.5874
 3008TIP3    H230584   1.482   6.663   8.663  0.9955 -1.4454  1.2184
 3009TIP3   OH230585   0.385   1.466   7.985 -0.4127 -0.3361  1.2000
 3009TIP3    H130586   0.444   1.541   7.977 -0.5260 -0.4633 -2.0300
 3009TIP3    H230587   0.429   1.408   8.048  3.0193 -0.4109 -0.9891
 3010TIP3   OH230588   5.111   3.876   0.245 -0.2726  0.1707  0.1639
 3010TIP3    H130589   5.059   3.917   0.176 -0.1585 -1.2796 -0.8243
 3010TIP3    H230590   5.184   3.936   0.259 -0.3917  0.5671 -0.8667
 3011TIP3   OH230591   0.227   4.786   2.326  0.2845  0.1876  0.2891
 3011TIP3    H130592   0.178   4.711   2.294 -0.8449  1.1361 -0.3080
 3011TIP3    H230593   0.301   4.794   2.266  0.5859 -0.6058  0.5407
 3012TIP3   OH230594   0.738   2.131   1.216  0.5498 -0.0210  0.2779
 3012TIP3    H130595   0.725   2.078   1.295  0.0031 -0.7747 -0.2959
 3012TIP3    H230596   0.737   2.067   1.145 -2.9954  0.9444 -0.7470
 3013TIP3   OH230597   2.053   5.665   1.551 -0.1517  0.0081  0.4968
 3013TIP3    H130598   2.063   5.611   1.629 -0.1886  1.8401  1.8285
 3013TIP3    H230599   2.128   5.641   1.496 -0.0045 -1.1614  1.1852
 3014TIP3   OH230600   1.147   4.222   1.537 -0.3550  0.4235 -0.1179
 3014TIP3    H130601   1.182   4.262   1.458 -0.4832 -0.4172 -0.6070
 3014TIP3    H230602   1.215   4.163   1.567  0.5832  2.2460  1.6096
 3015TIP3   OH230603   0.221   1.958   1.702  0.5337  0.2855  0.0922
 3015TIP3    H130604   0.230   1.874   1.747 -0.7044  0.5715  0.9000
 3015TIP3    H230605   0.254   2.022   1.764  2.2869  0.3660 -0.8446
 3016TIP3   OH230606   0.571   3.533   1.342  0.2433  0.0900  0.2759
 3016TIP3    H130607   0.493   3.489   1.308  0.7001  0.5278 -1.4334
 3016TIP3    H230608   0.541   3.574   1.423 -1.6363  1.1817 -0.8879
 3017TIP3   OH230609   5.031   3.970   7.293 -0.8235  0.6136 -0.1930
 3017TIP3    H130610   5.081   3.924   7.225  2.2430  0.1255  2.1511
 3017TIP3    H230611   5.007   4.053   7.253  0.0548 -0.0088 -2.1496
 3018TIP3   OH230612   0.376   2.596   7.930 -0.1224  0.0281  0.1009
 3018TIP3    H130613   0.353   2.642   7.850  0.2297 -0.8878 -0.5403
 3018TIP3    H230614   0.303   2.613   7.989 -0.3816  0.7138 -0.4024
 3019TIP3   OH230615   2.058   0.152   0.976  0.0806 -0.3325  0.6367
 3019TIP3    H130616   2.044   0.197   1.060 -1.8078 -2.7999  1.7572
 3019TIP3    H230617   2.025   0.213   0.910 -1.7432  0.2406  2.0130
 3020TIP3   OH230618   3.705   3.059   1.835  0.1555 -0.3476  0.5602
 3020TIP3    H130619   3.709   3.148   1.870 -0.3964  0.0174 -0.2737
 3020TIP3    H230620   3.767   3.009   1.889 -1.0818  0.0513  2.4303
 3021TIP3   OH230621   2.846   6.694   8.599 -0.0861 -0.1115 -0.3114
 3021TIP3    H130622   2.826   6.600   8.600 -1.0705  0.0847  0.8761
 3021TIP3    H230623   2.762   6.736   8.617  0.6128  0.9425  0.5323
 3022TIP3   OH230624   1.685   1.600   8.203  0.0490 -0.1056 -0.3200
 3022TIP3    H130625   1.780   1.591   8.206  0.1109  0.3231 -0.8378
 3022TIP3    H230626   1.661   1.636   8.289  0.4694  0.7518 -0.5532
 3023TIP3   OH230627   0.810   2.585   1.159 -0.2969 -0.0705  0.4709
 3023TIP3    H130628   0.720   2.564   1.133 -0.5366  2.2727 -0.8650
 3023TIP3    H230629   0.803   2.605   1.252 -1.0882 -0.2205  0.4559
 3024TIP3   OH230630   4.938   1.918   2.242  0.4357 -0.4427  0.1952
 3024TIP3    H130631   4.926   1.999   2.293  0.0516 -0.2438 -0.2073
 3024TIP3    H230632   4.865   1.863   2.268 -0.9946  0.4660 -1.6712
 3025TIP3   OH230633   0.059   2.974   0.261 -0.7978  0.6365  0.0998
 3025TIP3    H130634   0.038   3.062   0.292  1.7443  1.5788 -0.5579
 3025TIP3    H230635   0.126   2.988   0.194  0.6324 -1.8544  0.8811
 3026TIP3   OH230636   2.952   3.014   8.603  0.2945 -0.1336 -0.2712
 3026TIP3    H130637   2.920   2.947   8.543 -0.9258  0.9440 -0.8720
 3026TIP3    H230638   2.986   3.083   8.547 -1.5691  1.2387  0.1924
 3027TIP3   OH230639   6.039   4.840   0.465 -0.1024 -0.0024 -0.4233
 3027TIP3    H130640   6.055   4.909   0.529 -0.3913 -0.3087 -0.0085
 3027TIP3    H230641   5.947   4.816   0.479 -0.6845  1.0761 -2.1032
 3028TIP3   OH230642   3.049   5.604   2.618  0.0865  0.0175 -0.0784
 3028TIP3    H130643   3.123   5.568   2.666  0.7188  0.6809 -0.5455
 3028TIP3    H230644   2.992   5.529   2.603  1.1622 -0.7134 -0.6239
 3029TIP3   OH230645   2.859   2.344   1.573 -0.1101  0.8929  0.4347
 3029TIP3    H130646   2.868   2.408   1.503 -0.0478  0.5925  0.1641
 3029TIP3    H230647   2.947   2.338   1.611  0.7568 -1.4036 -1.6485
 3030TIP3   OH230648   1.624   1.104   7.986  0.3296  0.2318  0.1861
 3030TIP3    H130649   1.653   1.187   8.023  1.6507  0.4423 -1.2525
 3030TIP3    H230650   1.604   1.123   7.894 -0.1898 -0.8652  0.0493
 3031TIP3   OH230651   6.779   1.356   3.075  0.4354  0.6228 -0.1230
 3031TIP3    H130652   6.722   1.286   3.105  0.9559  0.5751  0.7977
 3031TIP3    H230653   6.719   1.424   3.043 -0.0813 -0.0306 -0.5665
 3032TIP3   OH230654   2.432   6.380   0.732 -0.4156 -0.4320  0.4813
 3032TIP3    H130655   2.433   6.307   0.795  1.4300 -0.9538 -0.1009
 3032TIP3    H230656   2.523   6.409   0.726 -0.7618  0.4898 -0.9357
 3033TIP3   OH230657   5.653   3.170   8.427  0.0436 -0.5748 -0.1918
 3033TIP3    H130658   5.685   3.117   8.354  1.3905 -0.0792  0.0077
 3033TIP3    H230659   5.668   3.116   8.505  1.1210 -0.0715 -0.0228
 3034TIP3   OH230660   4.437   2.788   6.901 -0.0115 -0.0145 -0.1280
 3034TIP3    H130661   4.487   2.842   6.962 -0.1436  0.5994 -0.5528
 3034TIP3    H230662   4.377   2.849   6.858 -0.4408 -0.5695 -0.3348
 3035TIP3   OH230663   5.402   3.290   7.832  0.3743  0.3666 -0.3813
 3035TIP3    H130664   5.436   3.244   7.910 -0.0858 -0.0669 -0.4255
 3035TIP3    H230665   5.360   3.368   7.867  0.4365  0.3309 -0.2246
 3036TIP3   OH230666   6.438   1.397   7.694  0.0647 -0.0156 -0.3202
 3036TIP3    H130667   6.430   1.374   7.602 -1.1982  1.5747 -0.6558
 3036TIP3    H230668   6.351   1.383   7.731  1.0903 -2.8952  1.2664
 3037TIP3   OH230669   2.481   3.495   2.623  0.8687 -0.1970 -0.1135
 3037TIP3    H130670   2.559   3.544   2.649 -0.2210  0.8939  1.2498
 3037TIP3    H230671   2.422   3.561   2.586 -1.5313  0.1355  3.7409
 3038TIP3   OH230672   1.320   1.589   0.300 -0.3455  0.4339 -0.2429
 3038TIP3    H130673   1.281   1.656   0.244 -0.8176 -0.1574 -0.6404
 3038TIP3    H230674   1.358   1.526   0.239  0.0686  0.3234  0.1246
 3039TIP3   OH230675   4.738   3.390   6.478 -0.0282 -0.5089 -0.2047
 3039TIP3    H130676   4.735   3.297   6.454 -1.8227 -0.8359  1.0274
 3039TIP3    H230677   4.688   3.395   6.560  0.4952  1.4692  0.0490
 3040TIP3   OH230678   0.524   2.377   1.912  0.0325 -0.3023  0.4725
 3040TIP3    H130679   0.487   2.451   1.863 -0.1529 -0.3909  0.4780
 3040TIP3    H230680   0.579   2.417   1.979 -0.7249 -0.1472  1.0075
 3041TIP3   OH230681   5.491   0.328   0.651 -0.3140 -0.0245 -0.1205
 3041TIP3    H130682   5.519   0.415   0.680  0.5637 -0.5202  0.6106
 3041TIP3    H230683   5.573   0.278   0.645 -0.9249 -1.2807  1.1649
 3042TIP3   OH230684   1.513   2.090   7.287  0.4455  0.2315  0.1388
 3042TIP3    H130685   1.590   2.146   7.275  1.0009 -0.3563  0.9007
 3042TIP3    H230686   1.548   2.005   7.313 -0.4659 -0.0516  0.4918
 3043TIP3   OH230687   1.400   0.764   1.701 -0.5740  0.1599  0.4008
 3043TIP3    H130688   1.362   0.785   1.787 -0.0801 -0.3484  0.7544
 3043TIP3    H230689   1.430   0.674   1.711 -0.2965  0.1830 -0.2371
 3044TIP3   OH230690   5.508   5.728   8.724 -0.3309 -0.0751 -0.2433
 3044TIP3    H130691   5.578   5.763   8.779  1.0717  0.4176 -2.2101
 3044TIP3    H230692   5.549   5.716   8.638 -3.1116  2.1529 -2.0917
 3045TIP3   OH230693   5.933   4.872   0.742  0.1632 -0.1223 -0.3744
 3045TIP3    H130694   5.850   4.827   0.757  0.1076  0.1254  0.0843
 3045TIP3    H230695   5.917   4.963   0.769  0.6038 -0.0904 -0.2050
 3046TIP3   OH230696   4.587   3.832   1.365 -0.0463  0.4323 -0.2034
 3046TIP3    H130697   4.618   3.780   1.439  0.5027 -0.4518 -1.0321
 3046TIP3    H230698   4.577   3.921   1.400  0.3261  0.0573  0.8889
 3047TIP3   OH230699   3.395   0.080   7.784 -0.1515  0.0855 -0.5192
 3047TIP3    H130700   3.481   0.083   7.743  0.5138  0.5341  0.8453
 3047TIP3    H230701   3.400   0.007   7.846 -0.4259  0.6813  0.2292
 3048TIP3   OH230702   4.441   6.426   7.838  0.2824  0.1184 -0.3162
 3048TIP3    H130703   4.508   6.373   7.881  1.6116  1.9292 -0.0218
 3048TIP3    H230704   4.380   6.363   7.800  0.7344 -1.5627  1.6207
 3049TIP3   OH230705   0.633   0.564   2.021  0.1749  0.6285  0.5887
 3049TIP3    H130706   0.606   0.481   1.980 -0.8631  1.1156  0.2568
 3049TIP3    H230707   0.570   0.628   1.989  1.0831  1.5987  0.6903
 3050TIP3   OH230708   5.370   1.223   0.280 -0.4241  0.5012 -0.2493
 3050TIP3    H130709   5.453   1.220   0.232 -1.0560  2.0163 -1.5531
 3050TIP3    H230710   5.356   1.316   0.299 -3.1286  0.7534 -2.6400
 3051TIP3   OH230711   2.074   4.106   7.426 -0.0020  0.0565 -0.4359
 3051TIP3    H130712   2.123   4.180   7.390 -0.4509 -0.4146 -2.0915
 3051TIP3    H230713   2.107   4.030   7.380 -2.0164 -0.3148 -1.3677
 3052TIP3   OH230714   5.532   5.117   1.762  0.1541 -0.4775 -0.5466
 3052TIP3    H130715   5.441   5.132   1.737 -0.0390 -0.4435  0.1537
 3052TIP3    H230716   5.532   5.029   1.801  0.7094 -1.1031 -1.8916
 3053TIP3   OH230717   0.847   3.810   1.548 -0.4039 -0.0611 -0.3744
 3053TIP3    H130718   0.787   3.833   1.477 -2.6214 -0.6377  1.1990
 3053TIP3    H230719   0.864   3.892   1.593  0.0477  0.1131 -0.8548
 3054TIP3   OH230720   6.529   3.996   0.763  0.7762  0.0862 -0.3775
 3054TIP3    H130721   6.617   3.986   0.727  0.7798 -1.1627 -0.0790
 3054TIP3    H230722   6.498   4.080   0.729  1.8712  0.2827 -0.9249
 3055TIP3   OH230723   3.427   6.413   0.546  0.3328  0.5625 -0.5681
 3055TIP3    H130724   3.350   6.410   0.488 -0.7359 -1.1549  0.8102
 3055TIP3    H230725   3.390   6.417   0.634  1.7797 -1.3411  0.1874
 3056TIP3   OH230726   2.636   5.675   7.143 -0.1521 -0.0393 -0.2100
 3056TIP3    H130727   2.672   5.604   7.088  1.0205 -0.4611  1.0486
 3056TIP3    H230728   2.543   5.652   7.153 -0.1095 -0.6140 -0.9877
 3057TIP3   OH230729   2.510   5.742   2.451  0.4259  0.0489  0.8114
 3057TIP3    H130730   2.531   5.833   2.472 -0.9100  0.2085  1.5656
 3057TIP3    H230731   2.575   5.691   2.501  0.0357  0.5502  1.8671
 3058TIP3   OH230732   5.166   1.084   1.986 -0.3364 -0.2203 -0.0037
 3058TIP3    H130733   5.076   1.077   2.019 -0.0611  0.8259  1.0470
 3058TIP3    H230734   5.167   1.166   1.937 -0.2499 -0.8380 -1.0619
 3059TIP3   OH230735   3.420   6.658   8.591 -0.0850  0.1765 -0.3063
 3059TIP3    H130736   3.421   6.743   8.635  0.7293 -0.5053  1.0557
 3059TIP3    H230737   3.366   6.602   8.647  2.2338 -1.1429  0.7585
 3060TIP3   OH230738   1.141   0.698   2.243  0.0132  0.7365  0.3017
 3060TIP3    H130739   1.203   0.625   2.246  0.9108  1.3178 -1.9332
 3060TIP3    H230740   1.055   0.657   2.247  0.5163 -0.3167  0.6060
 3061TIP3   OH230741   6.030   6.171   0.200  0.1647 -0.1902  0.6368
 3061TIP3    H130742   5.997   6.083   0.182 -2.5842  1.1359 -1.5603
 3061TIP3    H230743   5.976   6.202   0.273 -0.8029  0.5668 -0.3616
 3062TIP3   OH230744   2.950   1.373   8.420 -0.0903 -0.6832  0.1757
 3062TIP3    H130745   3.026   1.378   8.363 -0.2316 -0.7761 -0.0204
 3062TIP3    H230746   2.905   1.292   8.395 -1.0779  0.1193 -0.7431
 3063TIP3   OH230747   0.958   2.272   8.113 -0.4131 -0.0471 -0.1692
 3063TIP3    H130748   1.047   2.242   8.131 -1.3622 -2.5792  0.7531
 3063TIP3    H230749   0.966   2.366   8.100  2.3182 -0.1425  0.3427
 3064TIP3   OH230750   6.787   2.007   0.186 -0.0695 -0.1746 -0.0627
 3064TIP3    H130751   6.870   2.055   0.190  0.4130 -1.0321  0.4595
 3064TIP3    H230752   6.810   1.918   0.212 -1.4257 -0.0852  1.6031
 3065TIP3   OH230753   4.102   3.873   6.981  0.4592  0.5151  0.5074
 3065TIP3    H130754   4.097   3.777   6.978 -1.2823  0.5671 -3.0819
 3065TIP3    H230755   4.018   3.903   6.946  0.5423  3.4529  2.4636
 3066TIP3   OH230756   5.578   2.417   1.579 -0.0023  0.1834  0.1394
 3066TIP3    H130757   5.639   2.481   1.615  0.6299 -0.4404  0.2000
 3066TIP3    H230758   5.577   2.346   1.643 -1.2165  0.4205  0.4064
 3067TIP3   OH230759   0.932   3.528   8.028 -0.3073  0.1492  0.7929
 3067TIP3    H130760   0.990   3.473   8.080 -0.2718 -2.4960 -1.8233
 3067TIP3    H230761   0.991   3.579   7.972 -0.4268 -0.3855  0.1745
 3068TIP3   OH230762   2.072   1.464   0.008 -0.1537 -0.3682 -0.6514
 3068TIP3    H130763   2.070   1.553  -0.028 -0.9549 -1.0682 -2.4552
 3068TIP3    H230764   2.162   1.453   0.038 -0.3331  1.4592  0.8024
 3069TIP3   OH230765   2.776   1.102   0.176  0.2210 -0.1913 -0.6416
 3069TIP3    H130766   2.687   1.117   0.208  0.7066 -0.6028  0.9803
 3069TIP3    H230767   2.828   1.172   0.216  0.8392 -0.6805 -0.5759
 3070TIP3   OH230768   6.807   1.818   8.430  0.3844 -0.5715  0.2152
 3070TIP3    H130769   6.827   1.740   8.377  2.9873  0.0074  0.2256
 3070TIP3    H230770   6.731   1.792   8.482  0.3087 -2.6010 -0.7906
 3071TIP3   OH230771   4.642   5.724   0.862 -0.1530 -0.0189 -0.1638
 3071TIP3    H130772   4.617   5.733   0.770 -0.8073  0.4647  0.0517
 3071TIP3    H230773   4.624   5.632   0.883  0.8018 -0.3495 -0.7397
 3072TIP3   OH230774   4.923   5.804   1.020  0.5255  0.7229 -0.6183
 3072TIP3    H130775   4.893   5.799   1.111 -0.6019  1.0316 -0.9501
 3072TIP3    H230776   4.861   5.865   0.979 -0.4380 -1.1883 -2.1467
 3073TIP3   OH230777   4.790   2.007   8.375 -0.3632 -0.5122 -0.2298
 3073TIP3    H130778   4.739   2.079   8.411 -0.4774 -1.2969  1.2693
 3073TIP3    H230779   4.877   2.015   8.415  0.3493  0.1184 -1.8441
 3074TIP3   OH230780   1.033   0.719   8.125  0.0904 -0.5647 -0.6765
 3074TIP3    H130781   1.075   0.634   8.139  2.1512  0.6783  1.4026
 3074TIP3    H230782   1.068   0.749   8.041  1.1208 -0.8545 -0.3758
 3075TIP3   OH230783   0.969   4.154   0.414  0.2385 -0.8273 -0.1736
 3075TIP3    H130784   0.888   4.128   0.369 -0.1036 -0.1699  0.0484
 3075TIP3    H230785   0.980   4.087   0.482  0.1728 -1.2204 -0.5432
 3076TIP3   OH230786   2.571   1.202   0.336 -0.1047  0.1113  0.1559
 3076TIP3    H130787   2.478   1.209   0.357 -0.1866  0.9786 -0.4329
 3076TIP3    H230788   2.605   1.291   0.345  0.3075  0.1142 -1.1946
 3077TIP3   OH230789   5.540   6.353   7.470  0.1010 -0.5134 -0.0866
 3077TIP3    H130790   5.598   6.301   7.526 -0.6644 -0.8713  0.3763
 3077TIP3    H230791   5.600   6.395   7.408  1.0522  0.3267  1.3090
 3078TIP3   OH230792   5.918   1.410   0.416 -0.5203  0.0449  0.2229
 3078TIP3    H130793   6.004   1.439   0.445  0.2379 -0.9943 -0.8729
 3078TIP3    H230794   5.914   1.434   0.323 -1.3842  0.0283  0.2406
 3079TIP3   OH230795   0.174   3.574   1.385  0.0663 -0.3449  0.0199
 3079TIP3    H130796   0.089   3.575   1.341  1.3071 -0.3075 -2.5544
 3079TIP3    H230797   0.159   3.525   1.466 -2.7518  1.1503  0.5072
 3080TIP3   OH230798   0.449   1.760   0.339  0.0252 -0.3488  0.9122
 3080TIP3    H130799   0.400   1.825   0.289 -0.8382 -0.9511  0.9561
 3080TIP3    H230800   0.534   1.754   0.295 -0.3272 -0.0748  0.1841
 3081TIP3   OH230801   2.162   5.698   1.903 -0.5553 -0.0909 -0.9365
 3081TIP3    H130802   2.193   5.649   1.827 -0.9376 -1.9284  0.0285
 3081TIP3    H230803   2.110   5.635   1.953 -0.9005  1.2543  0.5037
 3082TIP3   OH230804   4.525   0.410   2.832 -0.0293  0.5045  0.0255
 3082TIP3    H130805   4.490   0.492   2.796 -0.5776 -0.2693 -1.2743
 3082TIP3    H230806   4.449   0.362   2.863 -0.0023 -0.5150 -1.3943
 3083TIP3   OH230807   3.765   2.623   0.868 -0.2354  0.3344 -1.0827
 3083TIP3    H130808   3.787   2.649   0.779 -1.1506 -0.9781 -1.7123
 3083TIP3    H230809   3.815   2.542   0.883  1.5297  1.5928  0.3730
 3084TIP3   OH230810   5.195   0.708   6.892 -0.1719  0.0542  0.3457
 3084TIP3    H130811   5.247   0.780   6.856 -0.0530 -0.5867 -0.7955
 3084TIP3    H230812   5.225   0.631   6.844 -1.4329 -0.4973  0.4177
 3085TIP3   OH230813   5.142   4.738   8.110  0.2499 -0.0996  0.6405
 3085TIP3    H130814   5.077   4.794   8.065 -1.3411 -0.3976  2.4406
 3085TIP3    H230815   5.156   4.666   8.049  1.0386  1.3421 -0.9900
 3086TIP3   OH230816   4.446   2.245   1.016  0.0920  0.7565  0.1375
 3086TIP3    H130817   4.524   2.277   1.062  2.0270 -1.0922 -1.5955
 3086TIP3    H230818   4.468   2.253   0.923 -1.5558 -0.3545 -0.3941
 3087TIP3   OH230819   4.335   4.764   7.191  0.3215  1.0396  0.5326
 3087TIP3    H130820   4.371   4.728   7.110 -0.1226  0.9373  0.3806
 3087TIP3    H230821   4.405   4.753   7.255  0.0614 -0.4988  0.6028
 3088TIP3   OH230822   0.816   5.149   1.586  0.5033 -0.1365 -0.2178
 3088TIP3    H130823   0.867   5.166   1.665 -3.6384  0.4053  2.6985
 3088TIP3    H230824   0.762   5.073   1.609 -2.1635  1.1597 -1.6928
 3089TIP3   OH230825   4.563   3.211   7.363 -0.0874 -0.3826 -0.1579
 3089TIP3    H130826   4.587   3.216   7.271 -2.3103 -2.2604 -0.9271
 3089TIP3    H230827   4.575   3.300   7.395  1.4118  0.1651 -2.0477
 3090TIP3   OH230828   4.574   4.499   8.471 -0.1109  0.4389  0.1927
 3090TIP3    H130829   4.544   4.408   8.471  0.5767  0.2031 -0.6141
 3090TIP3    H230830   4.544   4.534   8.556 -1.1079 -0.2861  0.1609
 3091TIP3   OH230831   0.440   0.298   1.234  0.1775 -0.0321 -0.0187
 3091TIP3    H130832   0.357   0.278   1.192 -0.1158  0.2117  0.4397
 3091TIP3    H230833   0.482   0.213   1.247 -0.0400 -0.1608 -0.1603
 3092TIP3   OH230834   1.560   0.083   8.299  0.4714 -0.6362 -0.8611
 3092TIP3    H130835   1.635   0.030   8.328 -0.1332 -0.9931  0.0951
 3092TIP3    H230836   1.593   0.173   8.300  0.7328 -0.7332  0.1156
 3093TIP3   OH230837   2.742   4.925   1.877 -0.0122 -0.0851  0.4416
 3093TIP3    H130838   2.775   4.852   1.825 -2.0441 -0.6202 -0.2154
 3093TIP3    H230839   2.683   4.884   1.940 -0.5309  0.8942  0.6154
 3094TIP3   OH230840   4.668   4.479   2.515 -0.3632  0.2584  0.2677
 3094TIP3    H130841   4.751   4.498   2.472  0.7726 -1.4284  1.5583
 3094TIP3    H230842   4.635   4.401   2.470 -0.3662 -0.0810  0.8414
 3095TIP3   OH230843   3.430   3.937   0.321  0.1427 -0.3632 -0.1796
 3095TIP3    H130844   3.341   3.963   0.347 -0.5077 -1.8329 -0.8367
 3095TIP3    H230845   3.478   3.933   0.403 -0.6445 -0.4651  0.2874
 3096TIP3   OH230846   5.354   5.433   1.722 -0.0098 -0.5345  0.0571
 3096TIP3    H130847   5.271   5.440   1.675  0.4035 -0.2514 -0.6354
 3096TIP3    H230848   5.419   5.469   1.663  0.4609  0.2470  1.0197
 3097TIP3   OH230849   3.619   0.610   7.701  0.1212  0.7533 -1.0557
 3097TIP3    H130850   3.663   0.666   7.764 -0.5087  0.8405 -0.6837
 3097TIP3    H230851   3.673   0.615   7.622  1.5593 -0.2559 -0.1952
 3098TIP3   OH230852   1.213   6.364   8.011  0.0237 -0.6857 -0.3251
 3098TIP3    H130853   1.216   6.367   8.106  2.2841  0.1242 -0.3408
 3098TIP3    H230854   1.224   6.456   7.984 -0.0144 -0.9700 -1.3393
 3099TIP3   OH230855   0.591   2.671   1.728  0.1535  0.4609 -0.1880
 3099TIP3    H130856   0.629   2.702   1.646  1.1468  2.0560  0.8380
 3099TIP3    H230857   0.497   2.675   1.713  0.2009  3.8272 -0.2321
 3100TIP3   OH230858   3.943   3.083   2.318 -0.3651 -0.0925 -0.2079
 3100TIP3    H130859   3.993   3.042   2.389  0.0772  0.0582 -0.4260
 3100TIP3    H230860   4.008   3.136   2.271 -0.4380 -0.9455 -1.3114
 3101TIP3   OH230861   5.005   2.581   6.936  0.0597 -0.6055 -0.6949
 3101TIP3    H130862   5.001   2.654   6.998 -0.1708 -1.9682  0.9481
 3101TIP3    H230863   5.092   2.589   6.896 -0.2552  1.0122 -1.1671
 3102TIP3   OH230864   5.056   6.562   0.339  0.1941  0.2228 -0.7607
 3102TIP3    H130865   5.005   6.634   0.303 -0.4999 -0.3204 -0.8789
 3102TIP3    H230866   5.081   6.591   0.426 -0.3254  0.4884 -0.6996
 3103TIP3   OH230867   1.557   5.206   1.026 -0.5693 -0.2781 -0.4171
 3103TIP3    H130868   1.495   5.195   0.954  0.0644 -0.5957 -0.9203
 3103TIP3    H230869   1.507   5.184   1.105 -1.0680 -0.6209 -0.8246
 3104TIP3   OH230870   2.839   2.637   1.754  0.0274  0.2311  0.5502
 3104TIP3    H130871   2.753   2.595   1.753  1.2832 -2.8030  3.1516
 3104TIP3    H230872   2.866   2.639   1.662 -2.2131  0.0176 -0.1792
 3105TIP3   OH230873   5.750   0.831   7.407  0.2007  0.1924 -0.0850
 3105TIP3    H130874   5.832   0.784   7.391  0.5829  0.5836  0.6682
 3105TIP3    H230875   5.742   0.891   7.333  0.3476 -0.1752 -0.4075
 3106TIP3   OH230876   5.457   1.891   8.554  0.8331  0.1656 -0.3338
 3106TIP3    H130877   5.391   1.911   8.488  2.3496  1.5482 -1.5218
 3106TIP3    H230878   5.481   1.800   8.538 -0.3754 -0.1987 -0.2042
 3107TIP3   OH230879   6.629   5.240   0.172  0.1638  0.6048  0.0801
 3107TIP3    H130880   6.703   5.209   0.120 -0.7191 -0.9813 -0.2896
 3107TIP3    H230881   6.624   5.178   0.245 -1.1069  0.3940 -0.1751
 3108TIP3   OH230882   0.734   6.196   1.953  0.0556 -0.2589 -0.1867
 3108TIP3    H130883   0.723   6.262   1.884 -1.3362 -1.8429 -1.5474
 3108TIP3    H230884   0.812   6.225   2.000  0.5668  1.3522 -1.8845
 3109TIP3   OH230885   5.721   5.805   7.609 -0.1751 -0.8218  0.1538
 3109TIP3    H130886   5.681   5.764   7.686  0.0895  1.9690  1.9108
 3109TIP3    H230887   5.798   5.752   7.591 -1.5878 -3.0354  0.1417
 3110TIP3   OH230888   1.780   3.401   0.540  0.3837 -0.1510 -0.2817
 3110TIP3    H130889   1.724   3.348   0.597  0.8511  0.4465  0.7398
 3110TIP3    H230890   1.863   3.355   0.538  0.1033 -0.6630 -1.2476
 3111TIP3   OH230891   3.285   4.448   8.590  0.8512  0.0018  0.5973
 3111TIP3    H130892   3.369   4.455   8.634  2.1774 -3.6349 -0.9704
 3111TIP3    H230893   3.300   4.484   8.503  0.2448  0.8365  0.8186
 3112TIP3   OH230894   6.548   2.676   1.566 -0.5551 -0.1792 -0.2706
 3112TIP3    H130895   6.625   2.684   1.510 -0.5959  0.9110 -0.1994
 3112TIP3    H230896   6.549   2.586   1.597  1.2529  0.0880  0.5288
 3113TIP3   OH230897   0.470   3.482   7.632  0.0629  1.1475 -0.1759
 3113TIP3    H130898   0.429   3.562   7.598  0.0324  0.7498 -1.0829
 3113TIP3    H230899   0.397   3.430   7.664 -0.0749  0.8148 -1.0060
 3114TIP3   OH230900   4.402   3.881   8.453  0.4629 -0.5764 -0.3810
 3114TIP3    H130901   4.326   3.932   8.481 -0.2570 -0.7215 -1.9396
 3114TIP3    H230902   4.447   3.938   8.391  0.4474 -1.2652 -1.0429
 3115TIP3   OH230903   3.078   6.804   8.528  0.7015 -0.4331 -0.1568
 3115TIP3    H130904   2.999   6.757   8.553  0.5587  0.4052  1.0475
 3115TIP3    H230905   3.048   6.876   8.473  0.5642  0.1259  0.6332
 3116TIP3   OH230906   1.629   2.774   1.572  1.0573 -0.1518  0.0112
 3116TIP3    H130907   1.556   2.823   1.534  0.5208 -0.7191  0.2963
 3116TIP3    H230908   1.673   2.734   1.497 -0.0453 -1.3344 -0.0374
 3117TIP3   OH230909   0.997   4.380   8.018  0.5933 -0.3357 -0.2654
 3117TIP3    H130910   0.986   4.348   8.107  0.0152  2.4104  0.7356
 3117TIP3    H230911   1.086   4.355   7.994  1.1004 -0.2896  1.4368
 3118TIP3   OH230912   6.715   2.147   7.637  0.4960 -0.3736 -0.0704
 3118TIP3    H130913   6.773   2.191   7.698  0.0905  0.7216 -0.4420
 3118TIP3    H230914   6.725   2.196   7.555 -0.8097 -0.2611 -0.1881
 3119TIP3   OH230915   4.017   0.526   0.107 -0.0220  0.1082  0.8670
 3119TIP3    H130916   3.939   0.581   0.118 -0.4107 -0.2860  0.0843
 3119TIP3    H230917   4.074   0.553   0.180 -0.5492  0.9587  0.9891
 3120TIP3   OH230918   3.433   1.322   7.931 -0.0815 -0.4213 -0.2927
 3120TIP3    H130919   3.455   1.302   7.840  0.4775 -0.0714 -0.2416
 3120TIP3    H230920   3.437   1.418   7.937 -0.3618 -0.4268  0.0394
 3121TIP3   OH230921   5.184   2.185   1.631 -0.1591  0.1390  0.6161
 3121TIP3    H130922   5.090   2.168   1.627 -0.3978  1.2377 -3.8217
 3121TIP3    H230923   5.224   2.098   1.634 -1.3556 -0.4580  0.1460
 3122TIP3   OH230924   5.828   3.764   7.314 -0.3861 -0.1709 -0.3789
 3122TIP3    H130925   5.918   3.733   7.301 -0.5860 -0.8665 -0.1782
 3122TIP3    H230926   5.808   3.814   7.235  0.2988  0.2875 -0.2670
 3123TIP3   OH230927   2.886   5.357   2.479  0.2096 -1.2544 -0.0778
 3123TIP3    H130928   2.928   5.283   2.435  0.9423 -1.5053  1.0024
 3123TIP3    H230929   2.830   5.318   2.546  0.8066 -0.8423  0.6818
 3124TIP3   OH230930   5.847   0.327   3.096 -0.1852  0.6638  0.3338
 3124TIP3    H130931   5.870   0.348   3.005  0.2984  2.3744  0.8212
 3124TIP3    H230932   5.759   0.363   3.107  0.3697  1.8574  0.9795
 3125TIP3   OH230933   5.227   0.690   7.339 -0.5781 -0.7337 -0.5277
 3125TIP3    H130934   5.133   0.672   7.333 -1.0033  0.4618  1.5763
 3125TIP3    H230935   5.232   0.780   7.373  1.3574 -0.0673 -2.3646
 3126TIP3   OH230936   6.146   3.292   1.192  0.1066 -0.1326  0.6750
 3126TIP3    H130937   6.116   3.286   1.101  1.1217  1.4749  0.1943
 3126TIP3    H230938   6.232   3.251   1.191 -0.4417 -1.3413  1.2356
 3127TIP3   OH230939   0.202   2.425   2.908  0.1731 -0.2529 -0.5741
 3127TIP3    H130940   0.283   2.443   2.956 -0.1954 -0.8475  0.2918
 3127TIP3    H230941   0.191   2.330   2.915 -0.4632 -0.2029 -0.8961
 3128TIP3   OH230942   3.967   3.519   8.590  0.2435 -0.1412 -0.1984
 3128TIP3    H130943   3.948   3.505   8.682 -1.6854  1.7130 -0.2523
 3128TIP3    H230944   4.023   3.597   8.589 -1.6528  1.2775 -0.6556
 3129TIP3   OH230945   6.307   0.776   2.385  0.2889 -0.3000  0.2580
 3129TIP3    H130946   6.269   0.811   2.305  1.1826  0.6908  0.2422
 3129TIP3    H230947   6.296   0.847   2.449  0.9231 -0.5024  0.5955
 3130TIP3   OH230948   3.580   1.818   0.725  0.3501  0.2057 -0.0639
 3130TIP3    H130949   3.490   1.842   0.745  0.0684 -2.1405  1.9758
 3130TIP3    H230950   3.624   1.902   0.709 -1.8237  1.5297  0.4588
 3131TIP3   OH230951   5.196   2.307   2.339 -0.5003  0.4021  0.0892
 3131TIP3    H130952   5.172   2.215   2.332 -0.1093  0.3844 -1.2721
 3131TIP3    H230953   5.290   2.310   2.324 -0.0172  0.7617  2.7989
 3132TIP3   OH230954   2.007   5.418   2.053 -0.1497  0.3053  0.1441
 3132TIP3    H130955   1.933   5.478   2.046 -1.0885 -1.0246 -2.8815
 3132TIP3    H230956   1.984   5.344   1.997  2.7946 -0.9177  0.3612
 3133TIP3   OH230957   0.709   3.139   6.955  0.1228 -0.0652  0.3838
 3133TIP3    H130958   0.785   3.170   6.905  0.8750  0.0137  1.5240
 3133TIP3    H230959   0.682   3.059   6.910  1.2935 -0.4464  0.3198
 3134TIP3   OH230960   2.124   2.588   6.979 -0.1787 -1.0223  0.3112
 3134TIP3    H130961   2.180   2.558   6.907  1.5767  0.8409  0.8131
 3134TIP3    H230962   2.166   2.554   7.058 -1.1640 -1.6588  0.5812
 3135TIP3   OH230963   6.696   0.447   8.721  0.3747  0.1484 -0.8662
 3135TIP3    H130964   6.732   0.504   8.653 -0.0470 -0.1538 -1.3606
 3135TIP3    H230965   6.602   0.443   8.701  0.3819 -0.6410 -0.7885
 3136TIP3   OH230966   5.588   0.435   6.985 -0.0575 -0.5815 -0.1358
 3136TIP3    H130967   5.571   0.360   6.928 -0.4855 -1.0040  0.5420
 3136TIP3    H230968   5.502   0.458   7.020  0.1147  0.0548 -0.1206
 3137TIP3   OH230969   6.120   5.562   7.324 -1.0335  0.0156  0.2282
 3137TIP3    H130970   6.151   5.479   7.287  0.2437  0.7980 -0.5303
 3137TIP3    H230971   6.033   5.575   7.285 -0.4043  0.0025 -1.2350
 3138TIP3   OH230972   2.059   6.087   8.051  0.0384  0.0298 -0.1383
 3138TIP3    H130973   2.050   6.125   8.138  1.9697  2.7698 -1.0167
 3138TIP3    H230974   1.969   6.078   8.019 -0.6150  0.9316  1.3479
 3139TIP3   OH230975   1.432   6.635   0.612 -0.3070 -0.2489  0.3294
 3139TIP3    H130976   1.502   6.699   0.630  1.6681 -2.2877  0.2755
 3139TIP3    H230977   1.376   6.639   0.689  0.0302  1.2029  0.5337
 3140TIP3   OH230978   0.278   1.202   8.190 -0.4468  0.5152  0.2815
 3140TIP3    H130979   0.292   1.131   8.253 -3.5871 -0.5306 -0.0120
 3140TIP3    H230980   0.193   1.238   8.213 -0.4598  1.9270 -1.7075
 3141TIP3   OH230981   1.558   0.354   2.455  0.4036 -0.2540 -0.3613
 3141TIP3    H130982   1.487   0.320   2.510 -0.0242  1.0330 -0.0774
 3141TIP3    H230983   1.624   0.385   2.517  0.6006 -0.1954 -0.5981
 3142TIP3   OH230984   5.195   3.651   1.562 -0.4887  0.7047 -0.4231
 3142TIP3    H130985   5.262   3.716   1.585 -1.8403  1.4142  1.8028
 3142TIP3    H230986   5.202   3.585   1.630 -2.0705  0.8107 -0.1380
 3143TIP3   OH230987   2.848   6.496   7.838 -0.5117 -0.0894 -0.0411
 3143TIP3    H130988   2.925   6.508   7.894 -0.7259  0.0819  0.2202
 3143TIP3    H230989   2.777   6.537   7.886 -0.3946  1.5572 -1.2074
 3144TIP3   OH230990   2.111   0.328   2.106 -0.1193  0.3626  0.6333
 3144TIP3    H130991   2.140   0.404   2.055 -0.8195 -0.1384 -0.5639
 3144TIP3    H230992   2.137   0.348   2.196  1.2006  1.2626  0.0840
 3145TIP3   OH230993   0.267   2.923   0.078  1.3705 -0.2286 -0.0814
 3145TIP3    H130994   0.272   2.956  -0.011  0.0488 -0.9499 -0.4520
 3145TIP3    H230995   0.336   2.857   0.083 -1.0429 -3.1798 -1.9622
 3146TIP3   OH230996   1.278   0.635   7.069  0.4636 -0.4883 -0.3670
 3146TIP3    H130997   1.334   0.561   7.092  0.3159 -0.2640  0.7625
 3146TIP3    H230998   1.336   0.712   7.073  0.2590 -0.3532  0.0106
 3147TIP3   OH230999   5.191   3.425   7.946 -0.0409 -0.5736 -0.0903
 3147TIP3    H131000   5.230   3.503   7.907  1.7504 -1.5307 -0.3481
 3147TIP3    H231001   5.163   3.453   8.033  2.4190 -0.0491  0.6283
 3148TIP3   OH231002   1.093   5.378   8.298  0.2066 -0.0281  0.2664
 3148TIP3    H131003   1.097   5.459   8.248 -0.6077  1.4185  2.3933
 3148TIP3    H231004   1.002   5.348   8.288  0.5288 -0.7592 -0.5903
 3149TIP3   OH231005   1.677   5.779   1.900  0.5105 -0.3433  0.0674
 3149TIP3    H131006   1.602   5.839   1.898  0.6441 -0.1489  0.9547
 3149TIP3    H231007   1.648   5.704   1.847 -0.0476  0.0295 -0.1682
 3150TIP3   OH231008   2.175   3.598   1.534  0.5012  0.0927 -0.4455
 3150TIP3    H131009   2.118   3.673   1.514  0.6235  0.6020  0.9944
 3150TIP3    H231010   2.121   3.541   1.588  0.6275 -0.5500 -0.9928
 3151TIP3   OH231011   6.180   2.250   1.746  0.7557  0.1358 -0.0386
 3151TIP3    H131012   6.191   2.240   1.652 -1.0996  1.0214 -0.3843
 3151TIP3    H231013   6.087   2.234   1.762  1.0905 -0.3288  1.6959
 3152TIP3   OH231014   6.609   6.014   2.145 -0.3177 -0.3953  0.3809
 3152TIP3    H131015   6.677   5.980   2.202  3.0831  3.5011 -0.8781
 3152TIP3    H231016   6.542   6.049   2.204 -0.0723 -2.0277  1.6959
 3153TIP3   OH231017   5.083   5.090   1.281 -0.0318  0.6554 -0.2416
 3153TIP3    H131018   5.094   5.073   1.188  1.2281  0.4526 -0.0690
 3153TIP3    H231019   5.171   5.086   1.317 -0.6517 -0.9545  1.2447
 3154TIP3   OH231020   6.428   2.317   2.317 -0.2622 -0.7998  0.4105
 3154TIP3    H131021   6.450   2.408   2.299 -0.1595 -0.7413  0.8251
 3154TIP3    H231022   6.346   2.302   2.271  0.4679 -0.9269 -0.9105
 3155TIP3   OH231023   0.371   5.959   1.327 -0.0057 -0.8044  0.0153
 3155TIP3    H131024   0.339   6.029   1.271 -1.7741 -1.3014  0.3356
 3155TIP3    H231025   0.390   5.887   1.267  0.3400 -0.5697 -0.1604
 3156TIP3   OH231026   0.696   3.243   8.645 -0.3568 -0.1365 -0.2298
 3156TIP3    H131027   0.673   3.161   8.602 -2.0548  0.5761 -0.7684
 3156TIP3    H231028   0.643   3.244   8.725  2.4588 -1.2559  1.8006
 3157TIP3   OH231029   6.671   0.550   0.644  0.2304  0.1768 -0.4016
 3157TIP3    H131030   6.683   0.477   0.705  0.5374 -0.1784 -0.8846
 3157TIP3    H231031   6.760   0.577   0.621  0.1293 -0.4146 -1.5492
 3158TIP3   OH231032   1.840   3.401   8.582 -0.0091  0.5960 -0.2758
 3158TIP3    H131033   1.854   3.332   8.517  4.1680  0.5709  0.3363
 3158TIP3    H231034   1.897   3.473   8.553 -1.2146  2.2427  1.2002
 3159TIP3   OH231035   1.896   2.198   7.872  0.7238  0.6723 -0.4494
 3159TIP3    H131036   1.874   2.226   7.961  0.7330  0.5371 -0.4042
 3159TIP3    H231037   1.874   2.104   7.870 -0.1083  0.8638 -0.8519
 3160TIP3   OH231038   1.264   4.966   8.009 -0.6540 -0.1170 -0.2832
 3160TIP3    H131039   1.203   5.040   8.011 -2.4304 -1.5095  0.3515
 3160TIP3    H231040   1.342   4.998   8.055 -2.4268  0.5492  2.5183
 3161TIP3   OH231041   1.079   1.418   1.938 -0.0782 -0.2861  0.3054
 3161TIP3    H131042   1.017   1.490   1.951 -0.2371 -0.2276 -0.6878
 3161TIP3    H231043   1.025   1.340   1.933 -0.0521 -0.2700 -0.2765
 3162TIP3   OH231044   1.576   1.844   1.393  0.0327  0.3126 -0.0563
 3162TIP3    H131045   1.526   1.766   1.366  0.5191  0.4589 -1.4988
 3162TIP3    H231046   1.665   1.812   1.407 -0.3911  0.0504  2.5267
 3163TIP3   OH231047   1.014   5.898   7.545 -0.4189  0.0792  0.6631
 3163TIP3    H131048   1.070   5.959   7.592 -1.1064 -0.1696  1.8360
 3163TIP3    H231049   0.977   5.950   7.473  0.5288  0.5051  0.4794
 3164TIP3   OH231050   1.477   5.648   0.109  0.0279 -0.2886  0.3571
 3164TIP3    H131051   1.540   5.695   0.165 -0.9919  1.1963  0.3172
 3164TIP3    H231052   1.398   5.640   0.164 -0.7406  0.5374 -0.5949
 3165TIP3   OH231053   0.158   6.824   0.414 -0.0405 -0.1824  0.1098
 3165TIP3    H131054   0.179   6.888   0.346 -2.4122  1.0761  0.4709
 3165TIP3    H231055   0.132   6.746   0.365  2.0076 -0.6548 -0.3363
 3166TIP3   OH231056   2.827   5.261   0.194  0.0134 -0.2070 -0.1134
 3166TIP3    H131057   2.904   5.254   0.137  1.0813 -0.5558  1.2924
 3166TIP3    H231058   2.754   5.280   0.135  1.1209 -0.2046 -1.5322
 3167TIP3   OH231059   0.115   0.999   7.719  0.5739  0.3629 -0.3410
 3167TIP3    H131060   0.046   0.937   7.744 -0.0405  0.2609 -2.1433
 3167TIP3    H231061   0.134   0.977   7.628  1.8256  1.4859 -0.3647
 3168TIP3   OH231062   1.039   2.008   2.094  0.2812  0.0422  0.7416
 3168TIP3    H131063   0.964   1.951   2.114  1.4395 -1.4691  0.9119
 3168TIP3    H231064   1.017   2.092   2.136 -1.7681 -0.0210 -0.0810
 3169TIP3   OH231065   0.035   5.398   2.831 -0.1825  0.5740  0.0108
 3169TIP3    H131066   0.047   5.328   2.767  1.4431 -0.2527  1.1524
 3169TIP3    H231067   0.005   5.353   2.910  0.9883  1.1205  0.7917
 3170TIP3   OH231068   4.548   1.489   8.741  0.1854  0.2609 -0.2265
 3170TIP3    H131069   4.547   1.536   8.657  2.4640 -1.4667 -1.3051
 3170TIP3    H231070   4.471   1.432   8.737 -2.0483  2.9332  0.6822
 3171TIP3   OH231071   0.487   4.586   1.457 -0.3561 -0.0046 -0.7923
 3171TIP3    H131072   0.444   4.504   1.432 -1.7615  1.1349 -2.3498
 3171TIP3    H231073   0.531   4.566   1.540 -0.9079 -2.2291 -0.9807
 3172TIP3   OH231074   1.433   4.629   2.425 -0.8708 -0.2642  0.4747
 3172TIP3    H131075   1.414   4.693   2.494 -1.5281  1.7417 -1.4506
 3172TIP3    H231076   1.347   4.599   2.396 -0.6328 -0.6139  0.1247
 3173TIP3   OH231077   0.056   1.497   6.951  0.0452  0.3769 -0.2779
 3173TIP3    H131078   0.029   1.477   6.861  0.7603 -1.0324 -0.2152
 3173TIP3    H231079  -0.019   1.472   7.004 -0.5339  1.6012 -0.5060
 3174TIP3   OH231080   1.225   3.012   8.658  0.0781 -0.1631 -0.1393
 3174TIP3    H131081   1.280   2.979   8.729  1.6279  0.5635 -0.9724
 3174TIP3    H231082   1.261   2.972   8.579  0.9885  2.2251 -0.9909
 3175TIP3   OH231083   1.880   2.555   8.669  0.6764  0.3913  0.1405
 3175TIP3    H131084   1.826   2.628   8.696  0.1355  0.9339 -2.1919
 3175TIP3    H231085   1.928   2.530   8.748 -2.2799  0.4220  2.1100
 3176TIP3   OH231086   5.836   3.818   0.289  0.2378 -0.0062  0.0462
 3176TIP3    H131087   5.772   3.814   0.218 -0.5748 -0.9736  0.7935
 3176TIP3    H231088   5.783   3.813   0.369  1.1010  1.3985  0.7507
 3177TIP3   OH231089   6.565   1.179   0.482 -0.1946 -0.1607 -0.2065
 3177TIP3    H131090   6.478   1.218   0.485 -0.8049 -1.2825 -2.1192
 3177TIP3    H231091   6.621   1.244   0.526 -1.9242  0.6484  0.9285
 3178TIP3   OH231092   5.483   2.066   3.244 -1.1338 -0.1598  0.2869
 3178TIP3    H131093   5.533   1.998   3.289  0.4541 -0.5138 -1.8303
 3178TIP3    H231094   5.425   2.018   3.185 -1.0198  0.2943 -0.2032
 3179TIP3   OH231095   6.219   1.531   0.288 -0.2604 -0.3364 -0.8452
 3179TIP3    H131096   6.139   1.491   0.252 -1.8617  0.9404  1.0732
 3179TIP3    H231097   6.213   1.623   0.262  1.3808 -0.5020 -1.9145
 3180TIP3   OH231098   2.082   2.497   6.544 -0.0727  0.1395  0.0894
 3180TIP3    H131099   2.160   2.464   6.499  0.1313  0.2432  0.3649
 3180TIP3    H231100   2.082   2.452   6.629 -2.4656 -2.9228 -1.3448
 3181TIP3   OH231101   3.359   0.009   2.484 -0.2142  0.1517  0.7335
 3181TIP3    H131102   3.292   0.030   2.418  1.1110  1.3498 -0.2818
 3181TIP3    H231103   3.321   0.041   2.566 -1.0681  0.4312  0.2506
 3182TIP3   OH231104   1.334   2.525   2.678  0.5492 -0.4214 -0.3314
 3182TIP3    H131105   1.290   2.535   2.762  0.7532 -0.0416 -0.2680
 3182TIP3    H231106   1.395   2.598   2.674 -1.5573  1.3588 -2.1475
 3183TIP3   OH231107   0.137   5.471   2.536 -0.2379  0.1736  0.6709
 3183TIP3    H131108   0.094   5.500   2.617  0.5268 -0.3367  1.2772
 3183TIP3    H231109   0.200   5.405   2.565  0.8608  0.8082 -0.2104
 3184TIP3   OH231110   0.575   6.638   1.669  0.6062  0.2687  0.1655
 3184TIP3    H131111   0.515   6.611   1.599  0.2385  0.1740  0.5166
 3184TIP3    H231112   0.550   6.728   1.689  1.9079  0.9633 -1.0885
 3185TIP3   OH231113   2.265   3.203   1.134 -0.1342  0.3607  0.3486
 3185TIP3    H131114   2.203   3.275   1.145 -0.4065 -0.1555  2.8592
 3185TIP3    H231115   2.213   3.124   1.149  0.8204 -0.1401  1.1754
 3186TIP3   OH231116   1.729   0.853   0.997 -0.2238  0.2449 -0.0977
 3186TIP3    H131117   1.681   0.914   1.053  1.2541  1.4721 -0.1044
 3186TIP3    H231118   1.761   0.785   1.057 -0.3371  0.4744  0.2214
 3187TIP3   OH231119   1.880   0.208   2.214 -0.7745 -0.4627  0.1975
 3187TIP3    H131120   1.931   0.256   2.148  0.0743 -2.8227 -1.0225
 3187TIP3    H231121   1.944   0.188   2.283 -1.0029 -0.2484  0.4724
 3188TIP3   OH231122   0.210   1.503   2.825 -0.1531  0.4738 -0.2972
 3188TIP3    H131123   0.295   1.533   2.856 -1.1317  2.5109  0.5733
 3188TIP3    H231124   0.169   1.463   2.902 -0.4106  0.4522 -0.4433
 3189TIP3   OH231125   5.762   1.382   1.555 -0.4691 -0.2052  0.1520
 3189TIP3    H131126   5.830   1.450   1.557 -1.5653  0.9607 -0.4559
 3189TIP3    H231127   5.707   1.407   1.481 -2.3237 -0.3219  1.4419
 3190TIP3   OH231128   3.882   4.731   8.015 -0.0715 -0.9157  0.0487
 3190TIP3    H131129   3.944   4.789   8.061 -0.6568 -1.0865  1.0844
 3190TIP3    H231130   3.826   4.791   7.966 -1.2372 -0.4844  1.7993
 3191TIP3   OH231131   3.690   4.360   2.494  0.1228  0.6637 -0.6923
 3191TIP3    H131132   3.716   4.450   2.514 -0.4113  0.2529  2.1542
 3191TIP3    H231133   3.771   4.309   2.501 -0.1533  0.4382  1.1654
 3192TIP3   OH231134   3.713   0.663   1.361  0.4858  0.0987  0.4118
 3192TIP3    H131135   3.630   0.645   1.317  0.0411 -1.2578  1.7189
 3192TIP3    H231136   3.740   0.578   1.396  1.6818  0.8032  1.2555
 3193TIP3   OH231137   4.469   5.606   7.851  0.1218  0.2177  0.0070
 3193TIP3    H131138   4.463   5.650   7.936  2.3690  0.1670  0.2522
 3193TIP3    H231139   4.448   5.514   7.870  1.1885  0.0846  0.6700
 3194TIP3   OH231140   3.895   3.612   6.810  0.0976 -0.6267 -0.2074
 3194TIP3    H131141   3.906   3.524   6.774  0.4631 -1.1346  1.0608
 3194TIP3    H231142   3.979   3.631   6.853 -0.4748 -0.2856  0.8017
 3195TIP3   OH231143   5.407   5.397   2.286 -0.2487 -0.0374 -0.4056
 3195TIP3    H131144   5.447   5.419   2.370 -2.1037  3.0059 -0.1829
 3195TIP3    H231145   5.455   5.319   2.257  1.0587 -0.6793  2.9932
 3196TIP3   OH231146   4.397   1.279   2.545  0.0834  0.0394  0.5945
 3196TIP3    H131147   4.373   1.332   2.621 -0.2158  2.1250 -0.8518
 3196TIP3    H231148   4.493   1.275   2.548  0.1084  0.6557  0.7392
 3197TIP3   OH231149   5.265   0.431   6.829 -0.5070  0.0408  0.0275
 3197TIP3    H131150   5.319   0.387   6.762  0.1795  1.0899 -0.1263
 3197TIP3    H231151   5.245   0.362   6.892  0.5790 -0.4994 -0.1971
 3198TIP3   OH231152   0.887   4.544   0.849 -0.7965  0.1189  0.1409
 3198TIP3    H131153   0.813   4.604   0.859 -0.4903  0.2709  1.7776
 3198TIP3    H231154   0.866   4.493   0.771 -2.2568  0.6724  0.1358
 3199TIP3   OH231155   0.582   6.031   2.653 -0.2468  0.0158  0.3939
 3199TIP3    H131156   0.509   6.050   2.712 -0.3896 -0.5135  0.3992
 3199TIP3    H231157   0.640   6.106   2.661 -0.0109 -0.2645  1.6018
 3200TIP3   OH231158   2.444   2.268   1.798 -0.8186  0.0289 -0.1013
 3200TIP3    H131159   2.408   2.182   1.777 -2.4101  0.2738  1.4015
 3200TIP3    H231160   2.421   2.323   1.724  0.0522 -0.7583 -0.9907
 3201TIP3   OH231161   3.162   2.474   7.519 -0.4009 -0.1122 -0.2673
 3201TIP3    H131162   3.071   2.496   7.496 -1.3696 -3.5095 -0.1833
 3201TIP3    H231163   3.204   2.455   7.435 -0.5347 -1.0951 -0.1148
 3202TIP3   OH231164   0.250   0.365   8.629  1.1959  0.9753  0.2258
 3202TIP3    H131165   0.322   0.355   8.566 -0.0299  0.9103 -1.2343
 3202TIP3    H231166   0.192   0.430   8.588 -1.8431 -2.1542 -0.9379
 3203TIP3   OH231167   4.329   4.125   1.919 -0.2706  0.3531 -0.5825
 3203TIP3    H131168   4.249   4.102   1.966 -0.1725 -0.1983 -0.6761
 3203TIP3    H231169   4.304   4.200   1.865 -0.5548  0.5733 -0.1479
 3204TIP3   OH231170   4.085   0.030   2.512 -0.2438 -0.2320 -0.1664
 3204TIP3    H131171   4.145   0.005   2.443  0.3580 -1.2334  0.6764
 3204TIP3    H231172   4.011  -0.030   2.502 -0.1315 -0.4147  0.0763
 3205TIP3   OH231173   1.792   1.026   0.800 -0.0395  0.5341 -0.1008
 3205TIP3    H131174   1.725   1.094   0.788  0.3101  0.9519  0.2829
 3205TIP3    H231175   1.756   0.968   0.867 -1.3539 -0.9779 -1.9941
 3206TIP3   OH231176   2.308   4.161   2.310  0.3327 -0.3453  0.7725
 3206TIP3    H131177   2.261   4.178   2.392  1.3271  0.4846  1.1941
 3206TIP3    H231178   2.397   4.193   2.326  0.8186 -1.0864 -0.2982
 3207TIP3   OH231179   0.325   1.498   1.904 -0.0757  0.0855  0.2867
 3207TIP3    H131180   0.389   1.550   1.856  0.2079 -1.3038 -0.9069
 3207TIP3    H231181   0.241   1.542   1.889 -0.0965 -0.6034 -2.0352
 3208TIP3   OH231182   4.294   3.376   1.926  0.3199 -0.3977  0.6703
 3208TIP3    H131183   4.361   3.398   1.862  0.1515  1.6793  1.1435
 3208TIP3    H231184   4.223   3.438   1.910 -0.2523 -0.6379  2.0554
 3209TIP3   OH231185   6.544   1.251   7.212  0.4591  0.0530  0.3826
 3209TIP3    H131186   6.541   1.160   7.185  1.1442  0.3007 -0.5434
 3209TIP3    H231187   6.455   1.283   7.196  1.0838  0.4808 -2.6701
 3210TIP3   OH231188   1.134   3.658   7.107 -0.1320  0.0591  0.4774
 3210TIP3    H131189   1.082   3.613   7.040 -2.4514  1.5221  1.1935
 3210TIP3    H231190   1.121   3.751   7.089 -1.6485  0.5336  3.4603
 3211TIP3   OH231191   6.034   2.785   1.520  0.7998  0.5159 -0.0770
 3211TIP3    H131192   5.990   2.795   1.435 -0.7220  0.2253  0.6371
 3211TIP3    H231193   6.093   2.711   1.508 -0.2170 -0.2388 -0.5859
 3212TIP3   OH231194   5.843   3.505   1.024 -0.7561  0.4416 -0.1187
 3212TIP3    H131195   5.935   3.480   1.020 -0.9540 -0.4692  0.8237
 3212TIP3    H231196   5.844   3.594   1.060 -0.3666 -0.7166  3.0037
 3213TIP3   OH231197   2.753   0.072   7.327  0.3409  0.3305  0.0287
 3213TIP3    H131198   2.757   0.026   7.243 -0.5025  0.7920 -0.2790
 3213TIP3    H231199   2.710   0.010   7.386  0.2330  0.2913 -0.0892
 3214TIP3   OH231200   4.662   6.474   7.664 -0.5889 -0.2206  0.3479
 3214TIP3    H131201   4.605   6.551   7.670 -1.5762 -0.9032 -0.0439
 3214TIP3    H231202   4.640   6.421   7.740  1.9208  1.0206  2.1121
 3215TIP3   OH231203   2.866   1.777   2.723  0.4400 -0.5474 -0.4945
 3215TIP3    H131204   2.850   1.707   2.660  0.9657 -0.2039 -1.0170
 3215TIP3    H231205   2.877   1.856   2.670  0.1166 -0.1060  0.0705
 3216TIP3   OH231206   5.245   5.234   0.486  0.3742  0.6215 -0.3687
 3216TIP3    H131207   5.157   5.211   0.514 -0.5807  1.6988 -2.2777
 3216TIP3    H231208   5.296   5.154   0.499 -0.1677  0.7063  3.2155
 3217TIP3   OH231209   5.912   4.267   1.083  0.0109  0.2436 -0.1765
 3217TIP3    H131210   5.887   4.359   1.073 -0.4448  0.2120  0.6174
 3217TIP3    H231211   5.923   4.235   0.993 -2.2295  0.4142 -0.5701
 3218TIP3   OH231212   1.803   0.507   7.937  0.1656 -0.0072  0.6850
 3218TIP3    H131213   1.877   0.473   7.987  0.0292 -0.1617  0.7824
 3218TIP3    H231214   1.842   0.567   7.873  0.3855 -0.1892  0.6504
 3219TIP3   OH231215   5.953   4.995   1.677  0.4061  0.7010 -0.3792
 3219TIP3    H131216   5.980   4.925   1.618  2.4850 -0.1305  1.4357
 3219TIP3    H231217   5.860   5.006   1.660  0.7462 -0.0424 -3.1872
 3220TIP3   OH231218   4.460   4.857   7.802 -0.0608 -0.6929 -0.6101
 3220TIP3    H131219   4.405   4.933   7.815  1.0034  0.0144 -0.0793
 3220TIP3    H231220   4.458   4.840   7.708 -1.4016 -0.8766 -0.5651
 3221TIP3   OH231221   4.460   1.081   7.987 -0.0926  0.6217  0.1698
 3221TIP3    H131222   4.466   1.151   7.922 -0.0778 -0.4166 -0.9782
 3221TIP3    H231223   4.551   1.066   8.014  0.0194  0.3611 -0.3418
 3222TIP3   OH231224   3.419   1.816   0.250  0.8579 -0.3341 -0.1826
 3222TIP3    H131225   3.385   1.727   0.254 -1.0048  0.2504 -1.4203
 3222TIP3    H231226   3.345   1.871   0.276  1.0956  0.9473 -1.9682
 3223TIP3   OH231227   6.641   6.587   3.182 -0.0875 -0.1455 -0.0372
 3223TIP3    H131228   6.666   6.556   3.095  1.2631 -0.0861  0.3173
 3223TIP3    H231229   6.566   6.645   3.166  0.4639  0.2658 -1.2236
 3224TIP3   OH231230   0.918   0.078   1.212  0.0813  0.0010  0.0775
 3224TIP3    H131231   0.900  -0.009   1.178 -0.2342  0.0098  0.2209
 3224TIP3    H231232   0.859   0.136   1.163  1.8299  0.4543 -1.6343
 3225TIP3   OH231233   2.055   4.107   1.066  0.1571  0.7679  0.5861
 3225TIP3    H131234   2.115   4.163   1.017  0.5017  1.1336  1.4159
 3225TIP3    H231235   2.014   4.052   0.999 -0.3707  2.1521 -0.2806
 3226TIP3   OH231236   4.081   0.653   2.136  0.2698 -0.3292 -0.0618
 3226TIP3    H131237   4.161   0.604   2.154  0.4349 -1.1806 -2.7037
 3226TIP3    H231238   4.103   0.709   2.061 -0.7650  1.7232  1.0783
 3227TIP3   OH231239   3.815   6.800   7.896 -0.3600  0.7011  0.0019
 3227TIP3    H131240   3.753   6.735   7.929  0.3091  0.1123  0.1168
 3227TIP3    H231241   3.901   6.762   7.912  0.0740  1.9510  0.7659
 3228TIP3   OH231242   4.711   4.160   1.061 -0.0212 -0.1761 -0.2278
 3228TIP3    H131243   4.754   4.204   1.134  1.2926 -1.6432 -0.0694
 3228TIP3    H231244   4.783   4.122   1.010 -1.0644 -1.8857 -0.5023
 3229TIP3   OH231245   4.883   1.307   2.539  0.1481  0.3246  0.0515
 3229TIP3    H131246   4.830   1.379   2.505  0.4770 -0.4375 -2.1781
 3229TIP3    H231247   4.920   1.265   2.462  0.1803 -2.1040  1.2986
 3230TIP3   OH231248   6.599   2.948   8.431 -0.3747 -0.0291  0.2576
 3230TIP3    H131249   6.636   3.018   8.375  0.8511 -1.1455 -0.3931
 3230TIP3    H231250   6.539   2.901   8.373 -0.0114 -0.4530  0.2176
 3231TIP3   OH231251   6.230   1.990   1.145  0.1637  0.4522  0.4555
 3231TIP3    H131252   6.266   1.929   1.209  0.1850 -1.1359 -0.9841
 3231TIP3    H231253   6.223   1.938   1.065 -4.1110  1.0223  0.2582
 3232TIP3   OH231254   2.006   4.678   7.567 -0.0852 -0.7359  0.1296
 3232TIP3    H131255   1.944   4.730   7.515  1.0461  0.7499  0.1958
 3232TIP3    H231256   2.073   4.651   7.504  1.4990  1.3922  0.7715
 3233TIP3   OH231257   1.599   6.618   2.962  0.5409 -0.3974  0.0818
 3233TIP3    H131258   1.653   6.579   2.892  2.4693 -2.6652  2.6326
 3233TIP3    H231259   1.659   6.678   3.007  0.1915 -0.9843  1.3740
 3234TIP3   OH231260   6.669   5.985   2.433 -0.2032 -0.4354  0.2952
 3234TIP3    H131261   6.612   6.030   2.494 -1.6732 -1.1067 -0.5333
 3234TIP3    H231262   6.706   5.912   2.484 -0.0785 -0.0057  0.8271
 3235TIP3   OH231263   5.607   0.593   0.686 -0.4074  0.0442  0.4518
 3235TIP3    H131264   5.672   0.658   0.661 -0.3882 -0.2106 -0.2106
 3235TIP3    H231265   5.534   0.643   0.722 -0.0009  0.3554  0.8485
 3236TIP3   OH231266   4.525   5.127   8.232 -0.0336 -0.3401 -0.3926
 3236TIP3    H131267   4.600   5.136   8.174  0.3968 -0.6365  0.1162
 3236TIP3    H231268   4.515   5.214   8.271  0.5922 -0.5261  0.2012
 3237TIP3   OH231269   2.666   4.992   8.670  0.4343 -0.2269 -0.4231
 3237TIP3    H131270   2.621   5.065   8.713 -0.1608  0.5348 -2.2169
 3237TIP3    H231271   2.701   4.939   8.742  0.2585  1.4258  0.9415
 3238TIP3   OH231272   4.670   0.040   1.634  0.1300  0.2287  0.2530
 3238TIP3    H131273   4.576   0.026   1.641  0.2287 -1.6834 -1.3894
 3238TIP3    H231274   4.687   0.115   1.691 -2.4959  1.1733 -0.0688
 3239TIP3   OH231275   1.767   3.844   0.960 -0.0486  0.2723  0.1611
 3239TIP3    H131276   1.742   3.764   0.913 -0.6687  0.7902 -0.4220
 3239TIP3    H231277   1.719   3.839   1.043  0.8477 -0.5209  0.6500
 3240TIP3   OH231278   6.785   4.390   1.990  0.3791  0.0041 -0.2137
 3240TIP3    H131279   6.795   4.299   1.963  0.1793  0.2362 -1.0748
 3240TIP3    H231280   6.863   4.407   2.044  0.4840 -0.6343 -0.1586
 3241TIP3   OH231281   0.150   4.319   8.747 -0.1107  0.1416  0.7555
 3241TIP3    H131282   0.134   4.413   8.755  1.1391  0.6709 -1.7553
 3241TIP3    H231283   0.120   4.298   8.658 -0.0647 -1.7921  1.1507
 3242TIP3   OH231284   5.312   2.224   8.433 -0.5746 -0.2842  0.7023
 3242TIP3    H131285   5.264   2.162   8.379  0.1458  0.2079 -0.5298
 3242TIP3    H231286   5.377   2.261   8.375 -0.7951  1.4201  1.4994
 3243TIP3   OH231287   0.727   3.380   7.543  0.0242  0.5689  0.9349
 3243TIP3    H131288   0.782   3.352   7.616  0.6282 -0.6434  0.0456
 3243TIP3    H231289   0.664   3.441   7.583  0.7808  0.4924  2.3233
 3244TIP3   OH231290   6.048   6.344   7.875  0.1749 -0.4101 -0.0356
 3244TIP3    H131291   5.982   6.373   7.813  0.3702 -0.6906 -0.3841
 3244TIP3    H231292   6.131   6.351   7.827  0.4609  0.4381  0.5713
 3245TIP3   OH231293   3.183   0.358   0.624  0.1825 -0.3348 -0.0647
 3245TIP3    H131294   3.123   0.299   0.670 -1.0867  0.7608 -0.2778
 3245TIP3    H231295   3.144   0.369   0.537 -0.2752  1.7588  0.3551
 3246TIP3   OH231296   0.161   5.223   0.723  0.1194  0.6786 -0.0032
 3246TIP3    H131297   0.242   5.224   0.672  1.9175  0.0829  2.6586
 3246TIP3    H231298   0.133   5.131   0.722  0.2910  0.6233  0.2871
 3247TIP3   OH231299   0.968   5.068   7.897  0.3335  0.1792 -0.5695
 3247TIP3    H131300   0.882   5.096   7.864  0.0326  0.0530  0.0975
 3247TIP3    H231301   0.997   5.141   7.951 -1.2503 -1.3792  2.6536
 3248TIP3   OH231302   1.020   3.662   7.798  0.0889  0.1078  0.0994
 3248TIP3    H131303   1.106   3.696   7.775  0.1111 -0.0305 -0.0261
 3248TIP3    H231304   0.958   3.724   7.760  0.1404  1.0989  1.5650
 3249TIP3   OH231305   2.320   3.539   6.857  1.0542 -0.1179 -0.2614
 3249TIP3    H131306   2.357   3.621   6.890  2.0022  0.3574 -2.3108
 3249TIP3    H231307   2.396   3.491   6.824  0.2818 -0.8763 -0.9939
 3250TIP3   OH231308   5.504   0.697   7.358 -0.1211 -0.6043  0.0021
 3250TIP3    H131309   5.584   0.739   7.389 -1.4913  0.7855  1.8851
 3250TIP3    H231310   5.474   0.753   7.286  0.9417 -1.5576 -1.2296
 3251TIP3   OH231311   5.442   6.011   8.577  0.3896  0.0219  0.1278
 3251TIP3    H131312   5.358   5.966   8.579  1.6181 -2.4200  0.0476
 3251TIP3    H231313   5.464   6.025   8.669 -0.2613  1.0468  0.1417
 3252TIP3   OH231314   6.757   4.565   7.779  0.0668 -0.3207 -0.6224
 3252TIP3    H131315   6.798   4.644   7.743  2.6651 -0.5036  1.5358
 3252TIP3    H231316   6.780   4.495   7.718  1.2323 -0.0413 -0.5255
 3253TIP3   OH231317   0.859   1.039   1.476  0.6289 -0.5363 -0.0097
 3253TIP3    H131318   0.852   1.020   1.382  1.8184 -2.1552  0.1906
 3253TIP3    H231319   0.953   1.035   1.494  0.6864  2.4558  0.7663
 3254TIP3   OH231320   6.321   2.098   7.240 -0.2579 -0.1286 -0.5120
 3254TIP3    H131321   6.360   2.162   7.182  0.5888 -0.0523  0.1214
 3254TIP3    H231322   6.354   2.014   7.209 -0.8946 -0.2067 -0.9791
 3255TIP3   OH231323   4.604   4.066   0.815 -0.2724  0.0368  0.3855
 3255TIP3    H131324   4.644   4.103   0.894 -1.2735  2.9869 -0.3404
 3255TIP3    H231325   4.676   4.022   0.770  0.0703 -2.9825  3.4506
 3256TIP3   OH231326   5.600   2.301   1.844 -0.2227  0.2915 -0.0699
 3256TIP3    H131327   5.613   2.396   1.849  1.5062  0.1107 -0.5940
 3256TIP3    H231328   5.594   2.273   1.935 -0.7310  0.8929  0.0891
 3257TIP3   OH231329   6.234   5.004   0.799  0.0774 -0.3305  0.4353
 3257TIP3    H131330   6.196   5.045   0.721  0.5689 -0.5320  0.0786
 3257TIP3    H231331   6.198   4.915   0.799  0.9559 -0.7077 -0.2219
 3258TIP3   OH231332   1.306   2.530   7.210  0.2018  0.4765 -0.5588
 3258TIP3    H131333   1.218   2.566   7.197 -0.1645 -0.0906  0.2058
 3258TIP3    H231334   1.302   2.443   7.172 -0.0012 -0.0697  0.6395
 3259TIP3   OH231335   6.579   5.234   1.533 -0.4668 -0.1632  0.5560
 3259TIP3    H131336   6.639   5.174   1.577 -0.7752  0.2459  1.5414
 3259TIP3    H231337   6.506   5.179   1.504 -0.4991 -0.3483  0.9965
 3260TIP3   OH231338   1.771   4.647   1.885 -0.4364 -0.5475 -0.2105
 3260TIP3    H131339   1.734   4.561   1.905  1.1797 -1.0430  0.9073
 3260TIP3    H231340   1.696   4.704   1.875 -1.5427 -1.4679  2.0994
 3261TIP3   OH231341   3.509   0.959   2.180 -0.0046  0.6029  0.0675
 3261TIP3    H131342   3.466   1.026   2.233  2.9365  1.7655  1.1688
 3261TIP3    H231343   3.527   0.888   2.242 -2.2728 -0.9752 -0.8988
 3262TIP3   OH231344   3.676   6.308   7.781  0.1664 -0.3648 -0.1606
 3262TIP3    H131345   3.730   6.356   7.844  1.2105 -1.3852 -0.2467
 3262TIP3    H231346   3.649   6.229   7.828  2.4717 -2.0637 -1.4810
 3263TIP3   OH231347   6.251   6.710   2.512  0.6532  0.1398  0.4340
 3263TIP3    H131348   6.231   6.763   2.435 -1.6345  0.5201  1.2339
 3263TIP3    H231349   6.341   6.733   2.535  0.8515  1.1231 -1.2239
 3264TIP3   OH231350   2.396   0.412   1.477 -0.2959 -0.1649 -0.6739
 3264TIP3    H131351   2.465   0.450   1.531  0.0236 -1.6319 -0.0144
 3264TIP3    H231352   2.319   0.408   1.534 -0.3745 -0.3617 -0.7913
 3265TIP3   OH231353   1.613   4.521   1.277 -0.1906 -0.1335  0.0050
 3265TIP3    H131354   1.630   4.473   1.358 -3.0274  0.8286  1.3409
 3265TIP3    H231355   1.587   4.609   1.307 -0.5960  0.4715 -1.9812
 3266TIP3   OH231356   2.288   2.800   0.297 -0.0181  0.0277  0.2623
 3266TIP3    H131357   2.371   2.822   0.339  0.3768  1.6970 -1.2664
 3266TIP3    H231358   2.304   2.815   0.204 -2.1253  0.7662 -0.0266
 3267TIP3   OH231359   4.708   3.314   0.446  0.2972  0.0648 -0.1440
 3267TIP3    H131360   4.709   3.338   0.353 -1.5886  1.5243  0.1597
 3267TIP3    H231361   4.632   3.257   0.455  2.1352 -2.5280  0.0293
 3268TIP3   OH231362   4.399   2.571   8.213 -0.3996  0.8728  0.1158
 3268TIP3    H131363   4.397   2.527   8.299 -2.7336  0.7148  0.0373
 3268TIP3    H231364   4.462   2.519   8.162 -1.2410 -0.9214  0.7954
 3269TIP3   OH231365   2.344   0.482   7.925 -0.0433  0.3637  0.2350
 3269TIP3    H131366   2.404   0.422   7.968 -1.2052 -0.2295  1.0630
 3269TIP3    H231367   2.399   0.555   7.898  1.2648 -0.7236 -0.1471
 3270TIP3   OH231368   0.816   4.174   1.010  0.0098  0.3131 -0.9096
 3270TIP3    H131369   0.756   4.103   1.030 -0.4583  1.4041  2.0965
 3270TIP3    H231370   0.851   4.153   0.924 -0.6143 -3.1841 -0.4502
 3271TIP3   OH231371   5.274   4.023   7.794  0.4103 -0.3578 -0.4886
 3271TIP3    H131372   5.363   4.050   7.818  1.0276 -2.2637 -0.4872
 3271TIP3    H231373   5.279   4.003   7.701 -0.0778 -0.2887 -0.5325
 3272TIP3   OH231374   5.740   3.240   0.491 -0.1906  0.1323  0.4737
 3272TIP3    H131375   5.725   3.328   0.523  2.1549  0.5296  0.7063
 3272TIP3    H231376   5.699   3.238   0.404  1.3810  2.1656 -0.4082
 3273TIP3   OH231377   0.015   4.174   2.387 -0.0450  0.2894 -0.2424
 3273TIP3    H131378  -0.062   4.152   2.439  0.4179 -2.0345 -0.4398
 3273TIP3    H231379  -0.009   4.154   2.297  1.1376 -1.6484 -0.1718
 3274TIP3   OH231380   4.069   2.203   0.672  0.4398 -0.0561 -0.0719
 3274TIP3    H131381   4.160   2.202   0.644  0.6621 -1.4288  0.6019
 3274TIP3    H231382   4.042   2.111   0.666 -0.6169  0.1988  0.6167
 3275TIP3   OH231383   0.658   2.820   2.111  0.5395  0.1500  0.4036
 3275TIP3    H131384   0.609   2.814   2.029 -1.2237 -1.2588  1.4969
 3275TIP3    H231385   0.665   2.914   2.128 -0.6942  0.4135 -0.4228
 3276TIP3   OH231386   6.392   0.670   2.121 -0.1503 -0.2853 -0.0675
 3276TIP3    H131387   6.341   0.665   2.202  1.3174  0.9212  0.9981
 3276TIP3    H231388   6.470   0.721   2.145  0.2878  0.1910 -2.2671
 3277TIP3   OH231389   5.200   5.011   3.089  0.1261 -0.3944 -0.2586
 3277TIP3    H131390   5.249   5.079   3.134 -0.4947  0.4243 -0.7770
 3277TIP3    H231391   5.267   4.958   3.045  0.6256 -0.2159  0.2795
 3278TIP3   OH231392   3.407   2.485   1.207  0.0406  0.1054 -0.2144
 3278TIP3    H131393   3.468   2.415   1.184  1.2710  1.0335  0.0986
 3278TIP3    H231394   3.404   2.483   1.302  1.0015  1.1779 -0.1289
 3279TIP3   OH231395   0.249   6.332   0.196 -0.3006  0.3826 -0.8297
 3279TIP3    H131396   0.336   6.294   0.204  0.2430  1.5511 -0.9040
 3279TIP3    H231397   0.254   6.389   0.119 -1.0700  0.6047 -0.7287
 3280TIP3   OH231398   4.427   4.084   2.274  0.5580 -0.6814  0.2652
 3280TIP3    H131399   4.337   4.112   2.258  0.3966  0.4766  2.7407
 3280TIP3    H231400   4.418   3.999   2.317  0.6355 -0.4878  0.6656
 3281TIP3   OH231401   1.711   6.014   7.726  0.4714 -0.3397 -0.4138
 3281TIP3    H131402   1.703   6.081   7.795  0.0704  0.7343 -1.4669
 3281TIP3    H231403   1.777   5.954   7.759  0.0591 -0.0347  1.0581
 3282TIP3   OH231404   5.049   1.183   8.233 -0.0925  0.2163  0.0441
 3282TIP3    H131405   5.080   1.273   8.231 -1.4392  0.7310  0.8942
 3282TIP3    H231406   4.965   1.187   8.278  0.0159 -1.5346  0.4956
 3283TIP3   OH231407   1.051   0.520   8.613 -0.4944  0.0144 -0.2327
 3283TIP3    H131408   0.971   0.546   8.566  0.0952  2.2000 -0.1200
 3283TIP3    H231409   1.116   0.506   8.544 -0.4183  0.2743 -0.2124
 3284TIP3   OH231410   2.413   6.782   8.184 -0.1944 -0.0631  0.3551
 3284TIP3    H131411   2.434   6.711   8.245 -0.4351 -2.0828 -1.7824
 3284TIP3    H231412   2.321   6.767   8.160  0.5818 -0.9502 -2.4169
 3285TIP3   OH231413   6.269   2.112   1.971  0.0557 -0.0490 -0.1180
 3285TIP3    H131414   6.266   2.023   1.936  0.6210  0.2619 -0.9777
 3285TIP3    H231415   6.248   2.168   1.897 -0.7684  0.5230  0.5252
 3286TIP3   OH231416   6.546   5.451   2.675  0.1426  0.3863  0.4759
 3286TIP3    H131417   6.464   5.443   2.626  0.0947 -0.5753  0.6926
 3286TIP3    H231418   6.608   5.399   2.625  0.0305 -0.8298  1.5507
 3287TIP3   OH231419   6.224   3.909   1.149  0.6033  0.2880 -0.1932
 3287TIP3    H131420   6.253   3.957   1.227  1.1441 -3.2473  1.9959
 3287TIP3    H231421   6.301   3.909   1.092  1.0274  0.8262  0.3638
 3288TIP3   OH231422   4.045   1.133   7.851 -0.0654  0.4779  0.3954
 3288TIP3    H131423   4.072   1.221   7.879 -0.0139  0.9806 -1.1647
 3288TIP3    H231424   4.042   1.138   7.756  0.9896 -1.5280  0.2036
 3289TIP3   OH231425   5.263   2.710   7.030  0.0121  0.0260 -0.0724
 3289TIP3    H131426   5.296   2.645   6.969  1.9304  0.5412  0.3358
 3289TIP3    H231427   5.317   2.699   7.109 -1.6696  0.0920  1.1542
 3290TIP3   OH231428   5.881   5.777   1.899  0.5501  0.0832  0.7786
 3290TIP3    H131429   5.920   5.703   1.945  0.1206 -0.3405  0.4689
 3290TIP3    H231430   5.788   5.755   1.890  0.5928  0.2205 -0.1543
 3291TIP3   OH231431   2.480   2.372   1.293  0.2311 -0.3618 -0.1691
 3291TIP3    H131432   2.455   2.307   1.358  1.8450 -0.2950  0.5712
 3291TIP3    H231433   2.566   2.343   1.262  1.1473  1.5687  0.4197
 3292TIP3   OH231434   5.479   4.903   7.616 -0.0048  0.0368 -0.4910
 3292TIP3    H131435   5.507   4.817   7.586  0.6327 -0.1578  0.6136
 3292TIP3    H231436   5.557   4.958   7.607  0.7218 -0.4151  2.2498
 3293TIP3   OH231437   3.398   6.311   2.679 -0.3275  0.5130 -0.3993
 3293TIP3    H131438   3.326   6.280   2.623  0.3738 -2.3704  0.1024
 3293TIP3    H231439   3.365   6.300   2.768 -0.3303  2.1818 -0.1628
 3294TIP3   OH231440   2.697   0.580   2.152  0.1244 -0.0148 -0.0176
 3294TIP3    H131441   2.762   0.611   2.088 -0.4184 -0.4310 -0.7917
 3294TIP3    H231442   2.613   0.609   2.117 -0.1394  0.2965  0.8459
 3295TIP3   OH231443   0.108   5.318   8.574  0.1472  0.0197 -0.0048
 3295TIP3    H131444   0.093   5.369   8.654 -0.6434 -1.5396  0.8881
 3295TIP3    H231445   0.203   5.312   8.568  0.2256 -0.7821  1.4647
 3296TIP3   OH231446   5.781   1.799   1.830  0.2943 -0.4521 -0.0077
 3296TIP3    H131447   5.776   1.893   1.812  2.6065 -0.4147 -0.8240
 3296TIP3    H231448   5.694   1.776   1.860 -0.6625  1.7352 -0.8696
 3297TIP3   OH231449   0.111   0.525   7.523  0.4380  0.1381  0.1837
 3297TIP3    H131450   0.182   0.588   7.514 -0.8193  1.7271  0.8927
 3297TIP3    H231451   0.125   0.485   7.609 -0.1166  1.2667  0.8233
 3298TIP3   OH231452   0.712   3.614   0.835 -0.2659 -0.1723 -0.6142
 3298TIP3    H131453   0.663   3.627   0.916 -1.7046  0.1109 -1.5066
 3298TIP3    H231454   0.792   3.570   0.863  0.1233  1.5156  1.1975
 3299TIP3   OH231455   0.100   6.399   2.053  0.4254  0.0115  0.0369
 3299TIP3    H131456   0.107   6.476   1.997 -0.4026  0.4318  0.4991
 3299TIP3    H231457   0.006   6.385   2.064  0.3758  2.1144  4.1749
 3300TIP3   OH231458   5.435   4.466   0.973 -0.3098  0.0887 -0.4702
 3300TIP3    H131459   5.384   4.512   0.907  1.5654 -0.4164 -2.3713
 3300TIP3    H231460   5.505   4.526   0.996  0.6765 -0.7876 -1.0806
 3301TIP3   OH231461   3.362   0.100   2.094  0.1028  0.3911 -0.6064
 3301TIP3    H131462   3.358   0.124   2.001 -0.7408  1.6370 -0.2769
 3301TIP3    H231463   3.344   0.006   2.095  0.1484  0.3538 -1.7125
 3302TIP3   OH231464   3.688   0.907   8.653 -0.5300 -0.3894  0.4707
 3302TIP3    H131465   3.714   0.903   8.745  1.0176  0.1101  0.0832
 3302TIP3    H231466   3.731   0.832   8.613 -2.7514 -1.7509  0.4635
 3303TIP3   OH231467   3.799   2.803   6.444 -0.3094  0.2644  0.7172
 3303TIP3    H131468   3.872   2.779   6.501  0.2073 -0.4337 -0.2133
 3303TIP3    H231469   3.836   2.802   6.355 -0.8022  2.4106  0.4224
 3304TIP3   OH231470   6.474   4.550   7.769 -0.4162  0.0060 -0.7465
 3304TIP3    H131471   6.569   4.555   7.780 -0.3809 -0.3216 -0.9155
 3304TIP3    H231472   6.441   4.530   7.857 -0.1970 -1.6525 -1.0143
 3305TIP3   OH231473   6.427   4.546   1.044 -0.3387  0.7101  0.5916
 3305TIP3    H131474   6.367   4.474   1.028 -1.2794  1.6378 -0.1189
 3305TIP3    H231475   6.471   4.523   1.126 -1.5828 -0.0337  1.0629
 3306TIP3   OH231476   0.208   3.897   7.770 -0.1363  0.4158 -0.1464
 3306TIP3    H131477   0.139   3.832   7.785  1.1706 -1.1511 -0.6084
 3306TIP3    H231478   0.206   3.913   7.676 -1.4488  2.2709  0.1415
 3307TIP3   OH231479   3.107   1.866   8.320 -0.1856  0.2670 -0.1355
 3307TIP3    H131480   3.115   1.792   8.259  0.4276  0.6270 -0.4972
 3307TIP3    H231481   3.167   1.932   8.285 -0.8319  0.9888  0.1135
 3308TIP3   OH231482   2.014   5.517   8.528  0.8572 -0.4254 -0.2675
 3308TIP3    H131483   2.082   5.451   8.515  1.7517  0.7997 -2.4156
 3308TIP3    H231484   2.005   5.559   8.442  0.8904  2.7295  1.1490
 3309TIP3   OH231485   3.300   3.559   1.012  0.0296 -0.1411  0.1525
 3309TIP3    H131486   3.318   3.626   0.946  1.6084  0.2030  0.8924
 3309TIP3    H231487   3.319   3.476   0.969  1.0126  0.0808  0.1474
 3310TIP3   OH231488   3.859   0.047   7.299  0.5768  0.2437 -0.3510
 3310TIP3    H131489   3.886   0.027   7.210 -1.7425 -0.6386 -0.9178
 3310TIP3    H231490   3.782  -0.008   7.314  0.5281  0.8495  1.9709
 3311TIP3   OH231491   3.576   1.951   8.352 -0.2018 -0.2882  0.1106
 3311TIP3    H131492   3.636   1.977   8.422 -0.8669  1.8813 -0.0662
 3311TIP3    H231493   3.612   1.868   8.320  1.1779 -0.3865  1.7513
 3312TIP3   OH231494   5.661   5.274   0.273  0.5295  0.1291 -0.2958
 3312TIP3    H131495   5.744   5.285   0.226 -0.3547  0.0192 -1.9684
 3312TIP3    H231496   5.620   5.361   0.269  1.0393  0.5032  1.5699
 3313TIP3   OH231497   3.425   0.856   2.445  0.0638 -0.2113  0.7688
 3313TIP3    H131498   3.373   0.910   2.504  0.7791  0.3501  0.8890
 3313TIP3    H231499   3.510   0.849   2.487  0.3896 -0.3236  0.1023
 3314TIP3   OH231500   5.088   5.506   1.646  0.5271 -0.2516 -0.1570
 3314TIP3    H131501   5.007   5.477   1.605  0.2954  0.8877 -0.5339
 3314TIP3    H231502   5.076   5.487   1.739  0.8378 -2.3495 -0.4978
 3315TIP3   OH231503   3.484   5.182   7.617 -0.2200 -0.1392  0.4600
 3315TIP3    H131504   3.472   5.113   7.552 -1.7299  0.1237  0.4007
 3315TIP3    H231505   3.526   5.254   7.569 -1.6074  0.1737 -0.3593
 3316TIP3   OH231506   1.378   3.110   2.879 -0.2817  0.2779  0.5118
 3316TIP3    H131507   1.387   3.108   2.784 -0.0058  0.2297  0.5389
 3316TIP3    H231508   1.355   3.201   2.900  0.4878  0.4866  0.4740
 3317TIP3   OH231509   6.618   6.407   8.558  0.2573 -0.2171  0.4060
 3317TIP3    H131510   6.593   6.485   8.508  2.1685  0.6142  0.6782
 3317TIP3    H231511   6.573   6.418   8.642 -0.4335 -0.0174  0.0204
 3318TIP3   OH231512   6.311   5.697   7.485  0.2994  0.3960  0.7638
 3318TIP3    H131513   6.389   5.642   7.495 -0.2730 -0.2224  2.2038
 3318TIP3    H231514   6.268   5.665   7.406  1.5506  0.8293 -0.1172
 3319TIP3   OH231515   5.858   3.458   1.509  0.7320 -0.3663  0.1297
 3319TIP3    H131516   5.771   3.419   1.517  1.1672 -1.3883  0.0390
 3319TIP3    H231517   5.885   3.474   1.600  1.1517 -1.6793  0.2546
 3320TIP3   OH231518   5.845   6.561   7.848 -0.0274  0.3153  0.1846
 3320TIP3    H131519   5.826   6.494   7.782  0.7203 -0.3628  0.6459
 3320TIP3    H231520   5.772   6.623   7.840 -0.4615 -0.2741 -0.6023
 3321TIP3   OH231521   3.271   0.650   7.763 -0.0395  0.1373  0.0085
 3321TIP3    H131522   3.213   0.638   7.688 -1.2099  1.4883  0.6330
 3321TIP3    H231523   3.313   0.735   7.748  0.5889 -0.1081  0.3290
 3322TIP3   OH231524   3.976   2.079   7.992 -0.4128 -0.2169 -0.2270
 3322TIP3    H131525   3.939   2.166   7.974 -1.5595 -0.6857 -0.2104
 3322TIP3    H231526   3.981   2.075   8.087  0.5818  0.2041 -0.2548
 3323TIP3   OH231527   2.000   0.482   8.634  0.3692 -0.1587  0.2785
 3323TIP3    H131528   1.980   0.525   8.551  0.6109 -0.6144 -0.0254
 3323TIP3    H231529   2.014   0.553   8.696  2.5327  0.2648 -0.6172
 3324TIP3   OH231530   6.500   3.955   1.041  0.3106  0.0616  0.6705
 3324TIP3    H131531   6.503   3.939   0.947 -1.9527  1.4224  0.2900
 3324TIP3    H231532   6.547   4.038   1.053 -1.5417  1.1933  0.3395
 3325TIP3   OH231533   5.278   2.304   3.097  0.1840 -0.3023 -0.2136
 3325TIP3    H131534   5.302   2.221   3.138 -1.1602  0.1022  1.5086
 3325TIP3    H231535   5.337   2.368   3.136  0.6854 -0.3032 -0.9466
 3326TIP3   OH231536   0.839   0.639   1.763  0.2277  0.3736 -1.1902
 3326TIP3    H131537   0.838   0.555   1.809 -0.4658  0.4618 -1.0312
 3326TIP3    H231538   0.750   0.649   1.731 -0.1319  1.7878  0.1458
 3327TIP3   OH231539   4.367   5.454   7.049 -0.0474 -0.0467  0.2961
 3327TIP3    H131540   4.463   5.461   7.044  0.1324 -0.6847  2.2735
 3327TIP3    H231541   4.336   5.537   7.014  1.1833 -0.1513 -1.1710
 3328TIP3   OH231542   0.348   4.916   1.366  0.3868  0.2558  0.3247
 3328TIP3    H131543   0.350   5.011   1.373 -0.3952  0.1736  2.3707
 3328TIP3    H231544   0.403   4.896   1.290 -1.6333  2.4686 -1.8923
 3329TIP3   OH231545   6.128   2.499   1.947  0.6543  0.5726  0.5778
 3329TIP3    H131546   6.043   2.530   1.916  0.6789 -0.2187 -0.3611
 3329TIP3    H231547   6.153   2.432   1.883  0.3964 -1.6636  2.6710
 3330TIP3   OH231548   1.360   6.280   2.172 -0.4302  0.3761 -0.0664
 3330TIP3    H131549   1.344   6.373   2.191  0.7851  1.4171 -3.3979
 3330TIP3    H231550   1.343   6.272   2.078 -0.4802 -2.8199  0.1249
 3331TIP3   OH231551   1.069   4.583   0.112 -0.3309  0.1572  0.1719
 3331TIP3    H131552   1.153   4.548   0.141  0.3264 -0.2913 -2.0937
 3331TIP3    H231553   1.004   4.529   0.158  0.6408 -0.8928  0.3740
 3332TIP3   OH231554   2.987   4.231   7.560  0.1712  0.2539 -0.3936
 3332TIP3    H131555   2.930   4.228   7.483 -0.2448  0.0217 -0.0817
 3332TIP3    H231556   3.071   4.262   7.526  0.3317 -0.9516 -1.1542
 3333TIP3   OH231557   1.183   6.015   0.030  0.0648 -0.0071  0.1012
 3333TIP3    H131558   1.174   6.051  -0.058  2.5602  0.5230 -0.0234
 3333TIP3    H231559   1.180   5.920   0.018 -1.5647  0.0674 -0.2520
 3334TIP3   OH231560   3.451   4.093   8.109  0.5486  0.4850 -0.1006
 3334TIP3    H131561   3.412   4.076   8.195 -0.1058 -1.5933 -0.7465
 3334TIP3    H231562   3.381   4.136   8.060  0.0647 -0.5514 -0.3360
 3335TIP3   OH231563   5.645   5.675   7.882 -0.3077  0.0105  0.1249
 3335TIP3    H131564   5.678   5.617   7.952  0.3455 -0.5003 -0.5877
 3335TIP3    H231565   5.626   5.757   7.927 -2.5571 -1.1090  1.4379
 3336TIP3   OH231566   6.636   3.635   1.928 -0.3357  0.3311  0.3829
 3336TIP3    H131567   6.614   3.722   1.961  0.3750  0.4489  0.5744
 3336TIP3    H231568   6.623   3.640   1.834 -0.6503  0.5348  0.4380
 3337TIP3   OH231569   0.449   1.575   2.942  0.9006  0.0194  0.1640
 3337TIP3    H131570   0.437   1.632   2.866 -0.5449 -0.4680 -0.0045
 3337TIP3    H231571   0.476   1.635   3.012 -2.5955  1.3996  0.5599
 3338TIP3   OH231572   5.349   1.793   2.529  0.1919  0.2155 -0.5785
 3338TIP3    H131573   5.383   1.819   2.444  0.4045  1.1766 -0.2162
 3338TIP3    H231574   5.427   1.773   2.581  0.0523 -0.6537 -0.6895
 3339TIP3   OH231575   4.902   1.611   7.950 -0.2358  0.2121 -0.3251
 3339TIP3    H131576   4.974   1.549   7.948  0.6758  1.1852  0.5753
 3339TIP3    H231577   4.825   1.559   7.971  0.4891 -0.6301  0.3022
 3340TIP3   OH231578   4.762   3.071   0.733  0.1479  0.0589  0.5820
 3340TIP3    H131579   4.820   3.146   0.719 -0.6321  0.7989  1.1709
 3340TIP3    H231580   4.784   3.010   0.663  0.2729  1.1647 -0.3726
 3341TIP3   OH231581   2.420   0.520   0.972 -0.2406 -0.7256 -0.6900
 3341TIP3    H131582   2.464   0.601   0.996 -1.4377 -0.0529 -0.7115
 3341TIP3    H231583   2.338   0.522   1.020 -0.3956 -1.8179 -0.8807
 3342TIP3   OH231584   1.031   3.541   2.150  0.3249 -0.1687  0.3513
 3342TIP3    H131585   1.083   3.481   2.203  0.3255 -0.2970  0.2051
 3342TIP3    H231586   0.971   3.583   2.213  0.8742  0.2741  0.5866
 3343TIP3   OH231587   1.200   0.794   1.917  0.0974 -0.2431 -0.1835
 3343TIP3    H131588   1.158   0.870   1.877  1.2200  1.3127  1.4355
 3343TIP3    H231589   1.209   0.818   2.009  1.5747 -1.8499  0.1361
 3344TIP3   OH231590   5.005   3.299   0.940  0.5355 -0.4010  0.1498
 3344TIP3    H131591   4.916   3.301   0.973  0.1174  0.9834 -0.9416
 3344TIP3    H231592   5.060   3.314   1.017 -0.1840 -0.8085  0.7558
 3345TIP3   OH231593   4.973   6.092   0.669  0.4048 -0.4304 -0.1174
 3345TIP3    H131594   4.980   6.004   0.632 -0.5323 -0.6753  0.2575
 3345TIP3    H231595   4.886   6.095   0.709  0.7164  0.4129  0.5380
 3346TIP3   OH231596   1.918   4.290   7.541 -0.2748  0.5473 -0.9175
 3346TIP3    H131597   1.835   4.262   7.580  0.0907 -0.4503 -0.8110
 3346TIP3    H231598   1.962   4.208   7.518  1.0881  1.0284 -0.1250
 3347TIP3   OH231599   0.424   4.177   2.933 -0.3303 -0.2062 -0.4335
 3347TIP3    H131600   0.480   4.254   2.926 -1.0172  0.2874 -0.5282
 3347TIP3    H231601   0.481   4.104   2.907  0.6159  0.1290  0.6247
 3348TIP3   OH231602   4.620   6.070   8.260 -0.7222 -0.1398 -0.1136
 3348TIP3    H131603   4.547   6.132   8.248 -0.8962 -0.0008  1.5290
 3348TIP3    H231604   4.618   6.016   8.180 -0.9191  1.5818 -1.3308
 3349TIP3   OH231605   1.368   2.165   8.559 -0.2103 -0.0064  0.1447
 3349TIP3    H131606   1.325   2.135   8.640 -0.0089 -0.2156  0.1761
 3349TIP3    H231607   1.344   2.100   8.494 -1.9424  1.1661 -0.4461
 3350TIP3   OH231608   1.936   1.237   0.934 -0.0599  0.0461  0.3976
 3350TIP3    H131609   2.028   1.239   0.909  0.2178 -1.9750  1.0916
 3350TIP3    H231610   1.896   1.176   0.873 -0.8252  0.4572  0.4767
 3351TIP3   OH231611   2.385   1.999   1.713 -0.1306  0.4745 -0.4353
 3351TIP3    H131612   2.348   1.911   1.723 -0.4225  0.7077  0.7184
 3351TIP3    H231613   2.478   1.984   1.699  0.0172 -0.0012  0.8942
 3352TIP3   OH231614   3.652   4.468   1.448 -0.0654  0.0406 -0.0886
 3352TIP3    H131615   3.723   4.511   1.400 -1.0927 -0.6986 -2.4450
 3352TIP3    H231616   3.576   4.476   1.390 -1.8443  0.4039  2.1245
 3353TIP3   OH231617   5.166   0.512   2.762  0.2180 -0.9072  0.2324
 3353TIP3    H131618   5.166   0.561   2.844 -0.6535  1.1799 -0.9367
 3353TIP3    H231619   5.259   0.497   2.743  0.5109  0.2012  0.7110
 3354TIP3   OH231620   4.491   4.630   7.387 -0.0879  0.3423  0.4100
 3354TIP3    H131621   4.571   4.579   7.377 -0.2107  0.2981 -0.4574
 3354TIP3    H231622   4.420   4.567   7.374 -0.2408  0.8627 -1.6874
 3355TIP3   OH231623   6.717   6.190   7.458  1.0685 -0.0910 -0.3228
 3355TIP3    H131624   6.621   6.194   7.455  0.9467 -2.0872 -0.8341
 3355TIP3    H231625   6.744   6.202   7.367  1.2200 -0.6082 -0.3499
 3356TIP3   OH231626   4.027   1.975   0.261 -0.1618  0.3312  0.4709
 3356TIP3    H131627   4.002   1.895   0.216  0.8205 -0.7006  1.6886
 3356TIP3    H231628   4.069   2.029   0.194 -1.6022  0.2267 -0.5572
 3357TIP3   OH231629   1.135   4.057   2.283  0.6441  0.8210 -0.3540
 3357TIP3    H131630   1.076   4.010   2.343  0.6253  1.1119 -0.1381
 3357TIP3    H231631   1.169   4.129   2.336  1.1059  0.7208 -0.5150
 3358TIP3   OH231632   6.375   2.813   1.063  0.2941 -0.1452  0.4945
 3358TIP3    H131633   6.466   2.797   1.038  0.8542 -2.1169  3.2099
 3358TIP3    H231634   6.380   2.884   1.127  0.0242 -0.5118  0.9360
 3359TIP3   OH231635   3.485   0.450   1.752 -0.2665  0.4119 -0.1084
 3359TIP3    H131636   3.504   0.527   1.699 -0.3971 -1.1011 -2.5171
 3359TIP3    H231637   3.395   0.426   1.729  0.1741 -1.1244 -0.3766
 3360TIP3   OH231638   6.597   6.617   2.612 -0.7853  0.0029  0.6905
 3360TIP3    H131639   6.670   6.661   2.571  0.8147 -3.1112 -0.1526
 3360TIP3    H231640   6.599   6.645   2.703  0.6574  0.9421  0.3908
 3361TIP3   OH231641   4.989   0.385   2.575  0.3949  0.3385 -0.2942
 3361TIP3    H131642   5.038   0.426   2.647  0.7616  1.6289 -1.2456
 3361TIP3    H231643   4.907   0.434   2.572 -0.2690 -0.7001  0.1840
 3362TIP3   OH231644   6.262   5.766   0.152 -0.1031 -0.1657  0.1673
 3362TIP3    H131645   6.353   5.766   0.122 -0.8420 -1.3579 -2.3679
 3362TIP3    H231646   6.269   5.772   0.247  2.5546  1.2083  0.0000
 3363TIP3   OH231647   1.939   4.809   8.414  0.7376 -0.0957 -0.1314
 3363TIP3    H131648   1.887   4.889   8.401  1.7055  0.9948  2.1471
 3363TIP3    H231649   1.913   4.752   8.342  1.4532  2.9835 -3.0613
 3364TIP3   OH231650   3.363   1.032   7.787 -0.1369 -0.1070  0.4343
 3364TIP3    H131651   3.351   1.108   7.731  0.1562 -0.5079 -0.1860
 3364TIP3    H231652   3.365   0.958   7.727  0.2023 -0.5431  0.9735
 3365TIP3   OH231653   2.244   3.794   0.462 -0.2515  0.1100 -0.4935
 3365TIP3    H131654   2.265   3.723   0.522 -0.8501  0.7581  0.5130
 3365TIP3    H231655   2.194   3.856   0.515 -1.4016  0.3746 -1.8464
 3366TIP3   OH231656   6.068   1.662   8.572 -0.0711 -0.1141 -0.0672
 3366TIP3    H131657   6.045   1.570   8.555  1.6147 -0.6451  0.3220
 3366TIP3    H231658   6.150   1.657   8.621  0.5893  1.6202 -0.9156
 3367TIP3   OH231659   2.067   6.033   0.747  0.4737  0.3969  0.5618
 3367TIP3    H131660   2.116   5.983   0.682 -3.2960 -1.4550 -1.2117
 3367TIP3    H231661   2.055   6.120   0.708  0.7919  0.2760  0.1998
 3368TIP3   OH231662   0.114   2.449   8.278  0.0112  0.1974  0.0665
 3368TIP3    H131663   0.128   2.357   8.258 -1.9923 -0.1450 -0.0432
 3368TIP3    H231664   0.035   2.450   8.333 -0.1032  1.8492 -0.0554
 3369TIP3   OH231665   2.093   6.271   8.655 -0.4830 -0.0090  0.1655
 3369TIP3    H131666   2.130   6.185   8.677  0.0440  0.2022  0.1272
 3369TIP3    H231667   2.067   6.263   8.564  2.4015  0.7772 -0.8494
 3370TIP3   OH231668   0.258   0.675   2.791  0.4769 -0.3621 -0.3198
 3370TIP3    H131669   0.192   0.688   2.859 -0.9960  0.2607 -1.8181
 3370TIP3    H231670   0.309   0.756   2.791 -0.8426  0.5040 -1.3144
 3371TIP3   OH231671   5.249   6.336   0.345 -0.4776 -0.0836  0.6341
 3371TIP3    H131672   5.193   6.285   0.403 -1.7756  0.3419 -0.2187
 3371TIP3    H231673   5.210   6.423   0.343 -0.4394 -0.0677 -0.8128
 3372TIP3   OH231674   3.844   2.302   0.532  0.3466 -0.2933  0.0291
 3372TIP3    H131675   3.927   2.278   0.573  0.8120  0.3802 -0.5039
 3372TIP3    H231676   3.836   2.396   0.546 -0.7088 -0.4678  0.7456
 3373TIP3   OH231677   3.696   0.368   1.915  0.3450 -0.2046  0.1888
 3373TIP3    H131678   3.730   0.436   1.972 -0.2190 -0.4679  0.8585
 3373TIP3    H231679   3.620   0.407   1.873  0.7041 -0.0427 -0.3199
 3374TIP3   OH231680   5.005   0.772   0.645 -0.4802  0.1677  0.2954
 3374TIP3    H131681   4.956   0.852   0.665 -0.1315  0.0105  1.9600
 3374TIP3    H231682   5.096   0.795   0.660 -0.2119 -0.0932 -0.8587
 3375TIP3   OH231683   4.955   2.825   2.071  0.7021  0.1061  0.6571
 3375TIP3    H131684   5.041   2.787   2.091  0.0928 -1.3652  0.6559
 3375TIP3    H231685   4.910   2.756   2.021 -0.0963  1.2710 -0.2785
 3376TIP3   OH231686   4.382   1.993   1.157 -0.0839  0.2763 -0.7857
 3376TIP3    H131687   4.394   2.070   1.102  0.2054  0.0021 -1.1053
 3376TIP3    H231688   4.424   1.921   1.110 -0.2942 -0.0699 -0.4624
 3377TIP3   OH231689   6.129   5.630   1.490  0.1548 -0.2155 -0.3200
 3377TIP3    H131690   6.040   5.662   1.475 -0.5590 -1.6397  0.6090
 3377TIP3    H231691   6.179   5.659   1.414 -1.4797 -0.7301 -1.6390
 3378TIP3   OH231692   5.610   0.230   2.721  0.0117  0.3227 -0.3318
 3378TIP3    H131693   5.685   0.274   2.681 -0.1925  1.3281  0.3642
 3378TIP3    H231694   5.570   0.181   2.649  1.0268  0.1872 -0.8198
 3379TIP3   OH231695   5.140   2.321   0.613 -0.2093 -0.5349  0.6224
 3379TIP3    H131696   5.172   2.251   0.670  1.2296 -2.3916 -2.1977
 3379TIP3    H231697   5.064   2.283   0.568 -0.3008  0.2434  0.1000
 3380TIP3   OH231698   1.710   6.273   1.709 -0.0766  0.4366 -0.6302
 3380TIP3    H131699   1.643   6.329   1.749  2.0084  2.2727  0.4876
 3380TIP3    H231700   1.716   6.197   1.767 -1.9878 -0.4294 -1.4421
 3381TIP3   OH231701   1.157   4.622   1.578 -0.1362 -0.0922 -0.1380
 3381TIP3    H131702   1.078   4.664   1.613  0.1172 -0.0559  0.4032
 3381TIP3    H231703   1.180   4.675   1.502 -0.0136  0.5543  0.3427
 3382TIP3   OH231704   6.661   0.319   2.819 -0.3961  0.2255 -0.5066
 3382TIP3    H131705   6.667   0.306   2.725 -1.2489 -2.9109 -0.2266
 3382TIP3    H231706   6.741   0.366   2.842  1.3976 -1.7184 -2.4018
 3383TIP3   OH231707   0.155   2.203   7.793 -0.5885 -0.2973 -0.2928
 3383TIP3    H131708   0.209   2.147   7.848 -0.0154  3.1651  3.0349
 3383TIP3    H231709   0.214   2.231   7.723  0.8332  0.4421  1.1418
 3384TIP3   OH231710   4.389   1.503   1.212 -0.2367  0.6642 -0.3205
 3384TIP3    H131711   4.339   1.422   1.221  0.5234  0.2785  0.5244
 3384TIP3    H231712   4.424   1.520   1.299 -0.6263  2.0722 -0.4049
 3385TIP3   OH231713   4.279   3.361   1.247 -0.4656  0.0884 -0.0281
 3385TIP3    H131714   4.206   3.301   1.234 -0.6896  0.5011 -0.7406
 3385TIP3    H231715   4.264   3.399   1.333 -0.8656 -0.1397  0.0040
 3386TIP3   OH231716   2.105   3.173   1.856  0.0637  0.3931  0.3059
 3386TIP3    H131717   2.063   3.148   1.938  1.6991  2.7786  1.9958
 3386TIP3    H231718   2.184   3.118   1.851  0.2316  0.6043  0.6146
 3387TIP3   OH231719   4.820   1.050   8.569 -0.3084 -0.2663  0.4369
 3387TIP3    H131720   4.874   1.086   8.499 -1.9574  1.0054 -0.2610
 3387TIP3    H231721   4.875   0.985   8.611  1.3063  0.0969 -1.0052
 3388TIP3   OH231722   0.979   2.804   8.609  0.7519  0.6902  0.7016
 3388TIP3    H131723   0.888   2.781   8.590  1.2432 -0.5530 -0.3515
 3388TIP3    H231724   0.975   2.893   8.642 -0.6789  1.3133 -0.9830
 3389TIP3   OH231725   1.678   5.911   1.514 -0.2638  0.1668 -0.3043
 3389TIP3    H131726   1.650   5.904   1.422 -0.5912  0.4067 -0.2247
 3389TIP3    H231727   1.597   5.931   1.562  0.1152  1.3350 -0.1230
 3390TIP3   OH231728   2.115   5.358   0.740 -0.2244 -0.0141 -0.1093
 3390TIP3    H131729   2.157   5.398   0.816  2.1030 -1.8088 -0.3615
 3390TIP3    H231730   2.116   5.264   0.758 -0.2290 -0.4323 -2.0694
 3391TIP3   OH231731   5.465   0.483   2.807  0.2235  0.5785 -0.0488
 3391TIP3    H131732   5.454   0.484   2.902 -1.7080  0.2661 -0.2250
 3391TIP3    H231733   5.494   0.394   2.787 -1.4771 -0.0270  0.0820
 3392TIP3   OH231734   2.336   1.623   8.307  0.5453 -0.5330 -0.1546
 3392TIP3    H131735   2.363   1.714   8.295  0.2794 -0.3058  0.8133
 3392TIP3    H231736   2.408   1.583   8.357  0.2799 -0.6164  0.1686
 3393TIP3   OH231737   0.120   1.868   7.733 -0.1044  0.0711  0.2644
 3393TIP3    H131738   0.062   1.942   7.752 -1.7700 -0.9335 -0.5875
 3393TIP3    H231739   0.169   1.894   7.655 -0.1814  0.5346  0.3702
 3394TIP3   OH231740   4.025   6.488   2.622  0.0505 -0.0171  0.0250
 3394TIP3    H131741   4.009   6.553   2.690 -0.5112 -0.6705  0.5376
 3394TIP3    H231742   3.983   6.524   2.543  1.2189  1.0228 -0.1463
 3395TIP3   OH231743   6.466   5.256   8.715 -0.3536  0.0405 -0.2730
 3395TIP3    H131744   6.497   5.178   8.671 -0.4756  0.3969 -1.0064
 3395TIP3    H231745   6.519   5.262   8.794 -1.2318 -1.5009  0.4839
 3396TIP3   OH231746   1.176   1.076   8.556  0.1855 -0.2568 -0.2957
 3396TIP3    H131747   1.130   1.043   8.633 -0.1478 -0.6783 -0.6722
 3396TIP3    H231748   1.161   1.010   8.489 -1.0276  0.9289 -1.2573
 3397TIP3   OH231749   0.774   3.009   7.565  0.2843  0.2327 -0.3276
 3397TIP3    H131750   0.757   2.978   7.654  3.0888  0.6542  0.4602
 3397TIP3    H231751   0.779   2.929   7.513  1.0591 -0.2326  0.4222
 3398TIP3   OH231752   1.305   1.654   1.993 -0.7397  0.0726 -0.4439
 3398TIP3    H131753   1.225   1.631   1.946 -1.1994  0.3141  0.1940
 3398TIP3    H231754   1.320   1.746   1.972 -1.0517  0.2339  0.0150
 3399TIP3   OH231755   6.366   5.820   7.739 -1.1486  0.1242 -0.3370
 3399TIP3    H131756   6.388   5.758   7.809 -3.5009 -0.9195 -0.4101
 3399TIP3    H231757   6.365   5.767   7.659  1.0712  1.2167 -1.1621
 3400TIP3   OH231758   5.709   1.489   0.937 -0.0934 -0.4600  0.2642
 3400TIP3    H131759   5.658   1.468   1.015 -1.0630  2.4012  0.5247
 3400TIP3    H231760   5.788   1.532   0.970 -0.2329  0.2456 -0.3028
 3401TIP3   OH231761   4.585   4.269   0.599 -0.1402 -0.2669  0.3421
 3401TIP3    H131762   4.586   4.177   0.627  1.5967  0.0727  1.6113
 3401TIP3    H231763   4.521   4.273   0.529 -1.4365 -2.1273  1.3534
 3402TIP3   OH231764   1.384   4.360   7.946  0.0981 -0.2489 -0.5130
 3402TIP3    H131765   1.445   4.403   8.006  2.3610 -1.0848 -2.0497
 3402TIP3    H231766   1.394   4.408   7.863  0.1863 -1.6084 -1.3297
 3403TIP3   OH231767   4.254   1.273   0.406  0.0289 -0.9470  0.2779
 3403TIP3    H131768   4.295   1.350   0.367  0.8940 -0.9005  1.2294
 3403TIP3    H231769   4.188   1.246   0.342 -3.1781  2.8971  1.4783
 3404TIP3   OH231770   4.153   3.067   6.913  0.2416  0.2417 -0.2027
 3404TIP3    H131771   4.179   3.064   6.821  0.0218 -3.0620 -0.3094
 3404TIP3    H231772   4.061   3.040   6.912  0.5804 -1.1020  1.0046
 3405TIP3   OH231773   6.247   0.244   0.100 -0.1587 -0.1267 -0.3583
 3405TIP3    H131774   6.171   0.294   0.069  0.2173 -0.4025 -1.7933
 3405TIP3    H231775   6.238   0.243   0.195 -2.5707 -1.1086 -0.5387
 3406TIP3   OH231776   1.669   1.860   2.461 -0.1243  0.5350 -0.0544
 3406TIP3    H131777   1.579   1.873   2.430 -0.0918 -1.3905 -1.1084
 3406TIP3    H231778   1.722   1.862   2.382  0.5297 -0.1127  0.3562
 3407TIP3   OH231779   2.870   4.439   7.235 -0.7453  0.2242  0.0038
 3407TIP3    H131780   2.843   4.356   7.275 -0.3290  0.5586  1.0092
 3407TIP3    H231781   2.965   4.443   7.249 -0.9427  1.4846  1.1790
 3408TIP3   OH231782   2.370   4.405   2.135  0.2357  0.6283  0.3102
 3408TIP3    H131783   2.441   4.437   2.191 -0.2900  0.0580  1.3424
 3408TIP3    H231784   2.340   4.324   2.178  1.2194 -1.0285 -1.9665
 3409TIP3   OH231785   6.084   5.381   0.372  0.1899 -0.3139 -0.7921
 3409TIP3    H131786   6.176   5.406   0.387  0.4700 -0.6703 -1.7867
 3409TIP3    H231787   6.057   5.437   0.299 -0.4602 -0.0631 -0.3670
 3410TIP3   OH231788   5.961   4.388   7.934 -0.7114  0.3977 -0.1816
 3410TIP3    H131789   5.949   4.343   7.851  1.4820 -0.1730 -0.2395
 3410TIP3    H231790   5.937   4.479   7.916 -2.4933 -0.1574 -0.7977
 3411TIP3   OH231791   0.050   0.130   8.386  0.2463 -0.2515  0.5999
 3411TIP3    H131792   0.097   0.058   8.343 -0.2227  0.3851 -1.0479
 3411TIP3    H231793  -0.038   0.126   8.349 -0.6535 -0.5826  2.6332
 3412TIP3   OH231794   2.244   0.021   7.700 -0.2757  0.2216 -0.0272
 3412TIP3    H131795   2.247   0.064   7.615  1.0257 -0.2275 -0.2169
 3412TIP3    H231796   2.150   0.013   7.718 -0.6552 -1.3899 -2.2920
 3413TIP3   OH231797   4.487   4.237   8.536  0.3103  0.1019 -0.6441
 3413TIP3    H131798   4.402   4.236   8.581  0.1617  0.3230 -0.9166
 3413TIP3    H231799   4.552   4.234   8.606  0.1019  1.5416 -0.3660
 3414TIP3   OH231800   4.849   0.416   8.632 -0.1048 -0.0063  0.4030
 3414TIP3    H131801   4.852   0.436   8.725 -0.7507  3.3593 -0.1786
 3414TIP3    H231802   4.928   0.456   8.596  0.8123 -2.3486 -0.4103
 3415TIP3   OH231803   0.663   2.310   7.907 -0.1167  0.5234  0.3630
 3415TIP3    H131804   0.722   2.261   7.965 -0.6870 -1.0584 -0.3179
 3415TIP3    H231805   0.684   2.276   7.819 -0.2211  1.8736 -0.2020
 3416TIP3   OH231806   6.735   3.256   0.962 -0.1164 -0.0896  0.3399
 3416TIP3    H131807   6.805   3.220   1.016  0.5265  2.2795  1.1917
 3416TIP3    H231808   6.778   3.279   0.879 -0.1534  0.2137  0.4036
 3417TIP3   OH231809   2.969   4.026   2.234  0.1261 -0.0032  0.3022
 3417TIP3    H131810   3.019   3.945   2.233  0.6730  0.3234 -1.1285
 3417TIP3    H231811   3.034   4.094   2.253 -0.5267  0.0289  2.8066
 3418TIP3   OH231812   0.625   2.868   1.014  0.2466  0.5138  0.8205
 3418TIP3    H131813   0.605   2.851   1.106  1.2500  0.6511  1.0748
 3418TIP3    H231814   0.716   2.841   1.004 -0.6059 -2.1226 -0.8288
 3419TIP3   OH231815   2.370   5.415   1.393 -0.5922  0.0379 -0.0972
 3419TIP3    H131816   2.443   5.375   1.440 -0.6331  0.8600  0.6892
 3419TIP3    H231817   2.317   5.341   1.364 -1.1527 -0.5074  2.0968
 3420TIP3   OH231818   2.437   3.335   8.732  0.3036  0.0332  0.1561
 3420TIP3    H131819   2.442   3.379   8.647  0.1631  1.0329  0.6520
 3420TIP3    H231820   2.464   3.402   8.795  0.2192 -0.6385  0.9158
 3421TIP3   OH231821   5.403   1.088   1.432 -0.3251  0.2072  0.8868
 3421TIP3    H131822   5.394   1.121   1.522  0.5230  0.4923  0.8713
 3421TIP3    H231823   5.373   1.160   1.377  0.4897  0.5656  0.8960
 3422TIP3   OH231824   1.978   3.965   0.833 -0.4856 -0.0138  0.2001
 3422TIP3    H131825   1.925   4.024   0.780 -0.9023 -0.4727  0.1005
 3422TIP3    H231826   1.917   3.897   0.861  0.4766 -1.7101 -1.6186
 3423TIP3   OH231827   3.216   0.527   0.096  0.4716 -0.3553  0.4452
 3423TIP3    H131828   3.140   0.568   0.136  1.3959  0.1096  1.7822
 3423TIP3    H231829   3.223   0.568   0.010 -0.6015 -0.1922  0.4242
 3424TIP3   OH231830   0.994   0.226   8.342 -0.5512 -0.2758  0.4249
 3424TIP3    H131831   1.010   0.172   8.420  1.9181  0.9206  0.8428
 3424TIP3    H231832   1.063   0.292   8.344 -1.4521  0.8401 -1.8932
 3425TIP3   OH231833   6.770   2.378   8.462 -0.0247  0.1710  0.4225
 3425TIP3    H131834   6.732   2.292   8.444 -0.1159  0.1296  0.7908
 3425TIP3    H231835   6.705   2.422   8.517  0.3521  0.1921  0.8555
 3426TIP3   OH231836   3.377   2.533   8.193  0.1275 -0.5781  0.1629
 3426TIP3    H131837   3.291   2.517   8.233  0.1049  0.0676  0.3855
 3426TIP3    H231838   3.360   2.532   8.099 -0.2027 -0.0413  0.2148
 3427TIP3   OH231839   0.955   3.771   8.595  0.0625  0.2994 -0.1080
 3427TIP3    H131840   0.959   3.702   8.529 -1.0006 -0.3297  0.4571
 3427TIP3    H231841   0.864   3.770   8.625  0.7359 -0.1205  2.0727
 3428TIP3   OH231842   1.909   0.318   0.512  1.0924  0.0544  0.3222
 3428TIP3    H131843   1.907   0.290   0.603  1.7815 -1.2711 -0.0428
 3428TIP3    H231844   1.828   0.283   0.474  1.3868 -0.4486  0.1472
 3429TIP3   OH231845   2.501   6.648   1.801  0.2047 -0.2227 -0.6969
 3429TIP3    H131846   2.490   6.728   1.853  0.4728  0.6758 -1.9619
 3429TIP3    H231847   2.595   6.643   1.785  0.2450 -1.0458 -0.2885
 3430TIP3   OH231848   5.879   6.368   0.067 -0.5489 -0.8064 -0.1567
 3430TIP3    H131849   5.950   6.316   0.105  1.5746  1.1715 -1.1797
 3430TIP3    H231850   5.888   6.454   0.107 -0.7807  0.1754 -2.1049
 3431TIP3   OH231851   1.788   3.231   8.124  0.3289 -0.3016  0.6915
 3431TIP3    H131852   1.786   3.200   8.214  0.9024  0.4095  0.9575
 3431TIP3    H231853   1.733   3.310   8.124  1.0785  0.2289  0.6361
 3432TIP3   OH231854   0.328   2.295   7.587  0.1248  0.3424  0.3042
 3432TIP3    H131855   0.299   2.204   7.575 -1.5692  1.0140 -1.2784
 3432TIP3    H231856   0.400   2.305   7.525 -0.5440  0.4144 -0.4787
 3433TIP3   OH231857   2.537   6.148   1.531 -0.2695 -0.5867 -0.1109
 3433TIP3    H131858   2.566   6.235   1.504 -0.4689 -0.1205  1.0871
 3433TIP3    H231859   2.493   6.112   1.454 -1.0567  0.7778 -0.3367
 3434TIP3   OH231860   5.721   1.866   1.054 -0.1150 -0.1823 -0.1472
 3434TIP3    H131861   5.775   1.944   1.040  2.9215 -1.8210  1.5593
 3434TIP3    H231862   5.684   1.877   1.141 -1.9903  0.5227 -0.9705
 3435TIP3   OH231863   4.405   1.177   8.523 -0.0853 -0.0006 -0.0158
 3435TIP3    H131864   4.405   1.240   8.451 -1.3089  0.0905  0.0340
 3435TIP3    H231865   4.475   1.115   8.501  1.4345  1.5901  0.1543
 3436TIP3   OH231866   1.872   6.370   0.042 -0.8169  0.4183 -0.6291
 3436TIP3    H131867   1.956   6.350   0.000 -0.9062 -0.8112 -0.2739
 3436TIP3    H231868   1.888   6.356   0.135 -1.5763 -0.5408 -0.6210
 3437TIP3   OH231869   6.766   6.046   8.044 -0.4552  0.6603 -0.0157
 3437TIP3    H131870   6.778   6.137   8.018  2.7703  0.5581  0.7916
 3437TIP3    H231871   6.746   6.000   7.962 -0.8801  1.8585 -0.6115
 3438TIP3   OH231872   6.659   5.418   1.325 -0.3170 -0.1877 -0.3570
 3438TIP3    H131873   6.654   5.358   1.400 -1.6221 -0.2934 -0.5095
 3438TIP3    H231874   6.641   5.504   1.362  0.5337 -0.0097 -0.3182
 3439TIP3   OH231875   1.520   5.482   8.444  0.1201  0.2367 -0.2652
 3439TIP3    H131876   1.473   5.534   8.509 -0.0049 -0.0355 -0.1375
 3439TIP3    H231877   1.596   5.535   8.421  0.1976  0.3055  0.1452
 3440TIP3   OH231878   0.035   2.463   7.671 -0.2357  0.2516  0.5873
 3440TIP3    H131879   0.094   2.404   7.718  0.0517 -0.4330 -0.5938
 3440TIP3    H231880  -0.009   2.407   7.607  0.6993  1.4438 -1.1793
 3441TIP3   OH231881   3.005   6.789   8.124  0.0768 -0.3846  0.7267
 3441TIP3    H131882   2.971   6.709   8.163 -1.2455  0.3073  1.0720
 3441TIP3    H231883   2.996   6.775   8.029  0.4894 -0.9009  0.7602
 3442TIP3   OH231884   3.366   0.298   1.294  0.3700 -0.4489 -0.9905
 3442TIP3    H131885   3.420   0.244   1.236  0.5247  0.1069 -1.3686
 3442TIP3    H231886   3.367   0.251   1.377  0.1728 -1.2471 -1.4206
 3443TIP3   OH231887   6.243   4.339   1.001 -0.3450  0.1831  0.4809
 3443TIP3    H131888   6.179   4.271   0.980  2.3006 -1.8710 -1.8493
 3443TIP3    H231889   6.304   4.297   1.061  0.9428  0.6654 -0.4218
 3444TIP3   OH231890   0.329   0.996   1.826  0.0173  0.2836  0.2208
 3444TIP3    H131891   0.277   1.010   1.747  1.0647  0.8158 -0.3877
 3444TIP3    H231892   0.280   0.930   1.876 -0.0479 -0.9510 -1.4076
 3445TIP3   OH231893   1.293   5.199   0.776 -0.1656 -0.1083 -0.2852
 3445TIP3    H131894   1.290   5.187   0.871  0.5792 -0.1739 -0.2625
 3445TIP3    H231895   1.386   5.213   0.757 -0.1722 -1.0539 -1.1148
 3446TIP3   OH231896   0.964   4.703   7.227 -0.0249  0.2066 -0.6136
 3446TIP3    H131897   0.999   4.759   7.158  2.0270 -1.9325 -1.4344
 3446TIP3    H231898   1.040   4.679   7.280 -0.7936 -1.7241 -0.2951
 3447TIP3   OH231899   4.218   0.676   1.751 -0.1325 -0.3372 -0.1912
 3447TIP3    H131900   4.125   0.692   1.733  0.1401  0.3215 -1.0598
 3447TIP3    H231901   4.251   0.635   1.672  0.5289  0.3187 -0.2688
 3448TIP3   OH231902   0.237   6.018   7.848  0.0814 -0.4305  0.1825
 3448TIP3    H131903   0.175   6.064   7.792  1.1413 -0.0758 -0.7535
 3448TIP3    H231904   0.194   5.935   7.869 -0.7720 -0.1165 -0.2715
 3449TIP3   OH231905   2.935   1.576   7.625 -0.1725  0.3279 -0.3430
 3449TIP3    H131906   2.843   1.603   7.623 -0.1298  0.5478  0.3884
 3449TIP3    H231907   2.932   1.480   7.623 -0.4591  0.3093  0.5278
 3450TIP3   OH231908   2.679   5.387   0.613  0.5277 -0.0429 -0.4063
 3450TIP3    H131909   2.733   5.312   0.588 -1.7088 -1.4306 -1.3214
 3450TIP3    H231910   2.655   5.427   0.529 -1.9425 -1.0310 -0.2474
 3451TIP3   OH231911   6.452   1.084   0.253  0.6904 -0.0922 -0.0581
 3451TIP3    H131912   6.398   1.159   0.230 -0.6595 -0.9824  0.1099
 3451TIP3    H231913   6.485   1.104   0.341 -0.2816 -0.0038  0.3040
 3452TIP3   OH231914   2.003   4.248   0.551 -0.3179  0.4274  0.2854
 3452TIP3    H131915   1.957   4.178   0.596 -0.6446  0.5262  0.1058
 3452TIP3    H231916   1.947   4.325   0.563 -0.2141  0.5413  0.0423
 3453TIP3   OH231917   3.832   5.568   0.612  0.1470 -0.4590  0.6653
 3453TIP3    H131918   3.824   5.517   0.531 -0.0689  1.7984 -0.8479
 3453TIP3    H231919   3.872   5.650   0.584 -2.0726  1.3578  2.3900
 3454TIP3   OH231920   3.320   6.362   0.795 -0.1203  0.3073 -0.4158
 3454TIP3    H131921   3.267   6.380   0.872 -2.6383  0.1445 -2.0025
 3454TIP3    H231922   3.325   6.267   0.791 -0.2972  0.3081 -0.6529
 3455TIP3   OH231923   0.836   6.657   0.318 -0.1493  0.0079  0.1191
 3455TIP3    H131924   0.812   6.600   0.391 -1.2746  0.6812  0.2941
 3455TIP3    H231925   0.772   6.636   0.250  1.0995 -0.8702 -0.8388
 3456TIP3   OH231926   0.840   4.090   8.430 -0.5562 -0.3879  0.1615
 3456TIP3    H131927   0.822   3.997   8.413 -1.3007  0.1742 -2.6867
 3456TIP3    H231928   0.757   4.124   8.462 -1.2692 -0.1378 -1.8137
 3457TIP3   OH231929   1.880   2.818   7.860  0.5432 -0.4715  0.5069
 3457TIP3    H131930   1.841   2.736   7.891 -0.2509  0.2198  1.3737
 3457TIP3    H231931   1.806   2.877   7.848  1.0837  0.0340 -0.4080
 3458TIP3   OH231932   1.629   4.542   0.078  0.1996 -0.3087 -0.3705
 3458TIP3    H131933   1.723   4.525   0.072  0.3544  0.6798 -1.1245
 3458TIP3    H231934   1.598   4.537  -0.013 -0.0581  1.4189 -0.4212
 3459TIP3   OH231935   5.613   5.934   8.396  0.1418  0.2905  0.4401
 3459TIP3    H131936   5.549   5.982   8.449 -1.4107 -0.1705 -0.9119
 3459TIP3    H231937   5.604   5.843   8.424  0.3666  0.2508  0.3846
 3460TIP3   OH231938   2.166   4.406   8.635 -0.0881 -0.5469 -0.6366
 3460TIP3    H131939   2.106   4.465   8.680  1.4144  1.0156 -0.6170
 3460TIP3    H231940   2.176   4.443   8.548  1.0862 -0.5971 -0.5423
 3461TIP3   OH231941   4.173   4.471   8.520  0.1063  0.1488 -0.1645
 3461TIP3    H131942   4.085   4.503   8.499 -0.0300  0.6077  1.0119
 3461TIP3    H231943   4.231   4.545   8.499 -0.0061  0.5266  0.7912
 3462TIP3   OH231944   6.231   4.062   7.942 -0.8601 -0.8656 -0.6702
 3462TIP3    H131945   6.191   4.074   7.856  0.6230 -0.1059 -1.3054
 3462TIP3    H231946   6.187   3.985   7.979 -2.4511 -0.4053 -1.5327
 3463TIP3   OH231947   4.511   2.490   2.081  0.1503  0.1411  0.5779
 3463TIP3    H131948   4.555   2.473   1.998  0.9276  0.9760  0.8023
 3463TIP3    H231949   4.437   2.546   2.059 -1.0977 -1.6001  0.1414
 3464TIP3   OH231950   6.827   5.822   8.577  0.1901 -0.2769 -0.2154
 3464TIP3    H131951   6.738   5.849   8.601 -0.1700  0.2595 -2.0339
 3464TIP3    H231952   6.868   5.902   8.545  0.7124 -0.8990 -1.1263
 3465TIP3   OH231953   4.413   3.353   2.235 -0.2737 -0.3982  0.3928
 3465TIP3    H131954   4.369   3.282   2.282  1.1164 -2.7136 -1.5981
 3465TIP3    H231955   4.505   3.346   2.260  0.2240 -0.6525 -1.3887
 3466TIP3   OH231956   5.571   5.538   0.538 -0.3543  0.4664 -0.0726
 3466TIP3    H131957   5.665   5.527   0.526 -0.4952  0.7814 -1.5810
 3466TIP3    H231958   5.535   5.542   0.450 -1.9300 -0.7904  0.4578
 3467TIP3   OH231959   3.054   6.333   8.670  0.1919  0.2341  0.2741
 3467TIP3    H131960   3.042   6.323   8.765 -0.8135  0.7502  0.2203
 3467TIP3    H231961   3.099   6.416   8.660  0.9774 -0.1717  0.3185
 3468TIP3   OH231962   4.938   1.635   0.845 -0.5036  0.3840  0.4511
 3468TIP3    H131963   5.016   1.675   0.883 -1.2022  0.9316  1.3382
 3468TIP3    H231964   4.941   1.658   0.752  1.2277 -0.9662  0.1121
 3469TIP3   OH231965   0.709   4.706   8.125  0.2488  0.4958  0.1261
 3469TIP3    H131966   0.618   4.681   8.134  0.1604  0.5903 -0.4430
 3469TIP3    H231967   0.729   4.692   8.032  1.5815 -2.1183  0.7233
 3470TIP3   OH231968   5.225   0.393   2.354  0.1529 -0.1518  0.3280
 3470TIP3    H131969   5.159   0.386   2.423  0.1873 -0.4589  0.3298
 3470TIP3    H231970   5.307   0.407   2.401  0.0563  0.4980  0.3171
 3471TIP3   OH231971   1.453   4.811   0.010  0.2447  1.1522 -0.5711
 3471TIP3    H131972   1.452   4.723  -0.027 -0.8416  2.0202 -2.7976
 3471TIP3    H231973   1.544   4.840   0.003  0.7575  0.0219  0.8175
 3472TIP3   OH231974   1.426   6.451   0.292 -0.0095  0.0308  0.1837
 3472TIP3    H131975   1.377   6.407   0.362 -2.3153 -1.1800 -2.0476
 3472TIP3    H231976   1.513   6.466   0.330 -1.1875 -0.3427  3.3469
 3473TIP3   OH231977   1.094   5.735   8.745  0.1648 -0.6725  0.0344
 3473TIP3    H131978   1.011   5.749   8.699  0.4118 -1.7818 -0.7743
 3473TIP3    H231979   1.096   5.641   8.763  1.2257 -0.6529  0.0765
 3474TIP3   OH231980   4.332   0.423   7.935 -0.9693 -0.2207 -0.1406
 3474TIP3    H131981   4.339   0.516   7.958 -1.1179  0.3529 -2.2644
 3474TIP3    H231982   4.417   0.386   7.961 -0.9153  0.4787  0.7439
 3475TIP3   OH231983   1.267   1.239   2.748  0.0410  0.1397  0.4138
 3475TIP3    H131984   1.276   1.310   2.811 -0.6272  1.7212 -1.1825
 3475TIP3    H231985   1.186   1.258   2.702  1.1451 -0.1631 -1.8098
 3476TIP3   OH231986   0.889   1.796   8.162 -0.0584  0.6183 -0.1539
 3476TIP3    H131987   0.870   1.878   8.206  0.4227  1.2875 -1.1585
 3476TIP3    H231988   0.926   1.740   8.230 -1.3816  0.8481  0.7799
 3477TIP3   OH231989   4.377   3.167   7.740 -0.1385  0.2453  0.0612
 3477TIP3    H131990   4.453   3.212   7.703 -0.4139  0.8025  0.1562
 3477TIP3    H231991   4.318   3.238   7.766 -1.7627 -0.1595 -2.2170
 3478TIP3   OH231992   5.174   5.416   6.678  0.3286  0.5738 -0.0271
 3478TIP3    H131993   5.199   5.447   6.765 -0.1437 -0.6069  0.5612
 3478TIP3    H231994   5.206   5.483   6.618  3.3324  0.0182  0.7830
 3479TIP3   OH231995   6.638   1.414   7.877 -0.3891 -0.0377  0.0734
 3479TIP3    H131996   6.573   1.413   7.806 -0.1442 -2.8453 -0.2286
 3479TIP3    H231997   6.718   1.381   7.838  0.9481  2.1662  0.7671
 3480TIP3   OH231998   4.501   3.199   2.015 -0.7292 -0.3436  0.0341
 3480TIP3    H131999   4.526   3.265   2.080  0.4698 -0.1389 -0.6284
 3480TIP3    H232000   4.426   3.238   1.969  0.3561  0.8374 -0.7705
 3481TIP3   OH232001   2.168   5.510   7.959 -0.1020 -0.4538 -0.2953
 3481TIP3    H132002   2.236   5.576   7.946 -0.4666  0.2907  1.3185
 3481TIP3    H232003   2.180   5.482   8.050 -1.6964 -0.5777 -0.1023
 3482TIP3   OH232004   6.189   5.677   1.013  0.0950 -0.3515  0.2401
 3482TIP3    H132005   6.218   5.628   1.091  0.1719  2.5196  2.1788
 3482TIP3    H232006   6.267   5.683   0.958  0.9159  0.1085  1.4055
 3483TIP3   OH232007   1.129   1.151   2.066 -0.5603  0.3308 -0.9646
 3483TIP3    H132008   1.089   1.064   2.061  3.9634 -2.1652  0.6869
 3483TIP3    H232009   1.183   1.157   1.987  0.0816  1.1426 -0.4767
 3484TIP3   OH232010   2.712   6.650   2.315  0.1482 -0.5353 -0.7838
 3484TIP3    H132011   2.747   6.700   2.388 -0.6571 -0.6908 -0.2749
 3484TIP3    H232012   2.777   6.659   2.245  1.4404 -1.2224  0.2860
 3485TIP3   OH232013   4.296   6.599   0.403 -0.3940  0.1579  0.4309
 3485TIP3    H132014   4.299   6.520   0.456 -0.4609  0.4360  0.8586
 3485TIP3    H232015   4.203   6.619   0.394 -0.4255 -0.4406 -0.6376
 3486TIP3   OH232016   5.336   0.097   0.686  0.3971 -0.0489  0.8834
 3486TIP3    H132017   5.394   0.171   0.702  0.1441  0.5601 -0.8417
 3486TIP3    H232018   5.250   0.128   0.715 -0.0043  0.9417 -1.1903
 3487TIP3   OH232019   4.705   5.264   1.300 -0.1192  0.2256 -0.0097
 3487TIP3    H132020   4.730   5.199   1.234 -0.1889 -0.7701  0.9167
 3487TIP3    H232021   4.727   5.348   1.260  3.0884 -0.4771  0.0359
 3488TIP3   OH232022   0.456   3.827   7.807  0.1951  0.4278 -0.2574
 3488TIP3    H132023   0.449   3.747   7.860  1.3717 -0.4762 -1.4098
 3488TIP3    H232024   0.366   3.854   7.793 -0.5514 -2.8029 -2.8927
 3489TIP3   OH232025   1.599   2.455   7.163 -0.0998 -0.9642 -0.2392
 3489TIP3    H132026   1.631   2.366   7.151 -1.1067 -1.1783 -1.5400
 3489TIP3    H232027   1.511   2.454   7.127 -0.6950  0.2007  1.0828
 3490TIP3   OH232028   6.421   3.508   2.121 -0.1517 -0.4133  0.5189
 3490TIP3    H132029   6.391   3.442   2.182  0.4558 -0.2571  0.9982
 3490TIP3    H232030   6.509   3.479   2.095 -0.3940 -0.4662 -0.2611
 3491TIP3   OH232031   6.475   5.587   7.816 -0.2038  0.1251 -0.0670
 3491TIP3    H132032   6.432   5.505   7.789  0.5919 -0.1388 -0.5643
 3491TIP3    H232033   6.466   5.588   7.911 -0.6556 -0.2991 -0.0989
 3492TIP3   OH232034   2.427   6.603   8.427 -0.0733 -0.2010 -0.2632
 3492TIP3    H132035   2.339   6.586   8.395 -0.4210 -1.8976  1.3949
 3492TIP3    H232036   2.434   6.550   8.507  2.5565 -0.4190 -0.5442
 3493TIP3   OH232037   1.106   4.431   0.476 -0.1582  0.0026 -0.0185
 3493TIP3    H132038   1.063   4.374   0.412 -0.8378  0.8072 -0.2837
 3493TIP3    H232039   1.101   4.382   0.558 -1.1586 -0.1166 -0.1417
 3494TIP3   OH232040   3.067   6.103   1.487 -0.0792 -0.6654 -0.4687
 3494TIP3    H132041   3.055   6.012   1.513  0.6681 -0.5633  0.2931
 3494TIP3    H232042   3.161   6.118   1.495 -0.4289  0.8156  1.7625
 3495TIP3   OH232043   4.339   6.672   7.322  0.0094 -0.3342 -0.1962
 3495TIP3    H132044   4.246   6.691   7.334  0.2808 -0.6023  3.2128
 3495TIP3    H232045   4.382   6.756   7.331  0.2608 -0.5901  1.1326
 3496TIP3   OH232046   2.966   5.481   7.841  0.0304 -0.4920 -0.4122
 3496TIP3    H132047   3.034   5.415   7.852 -1.3663 -1.7781  1.0034
 3496TIP3    H232048   2.948   5.513   7.929  0.4946  1.6751 -1.0312
 3497TIP3   OH232049   0.747   2.230   2.430 -0.0737 -0.0919  1.0789
 3497TIP3    H132050   0.841   2.218   2.416  0.3579  0.0068  3.3934
 3497TIP3    H232051   0.709   2.145   2.406  0.3659  0.2768 -1.1690
 3498TIP3   OH232052   3.005   0.176   6.988  0.1979 -0.1340  0.5960
 3498TIP3    H132053   3.084   0.126   6.968 -1.5569 -2.3980 -1.2197
 3498TIP3    H232054   3.036   0.266   6.998  2.8398 -0.6847 -1.4441
 3499TIP3   OH232055   3.243   6.610   8.392 -0.1126  0.2736 -0.6666
 3499TIP3    H132056   3.186   6.686   8.404 -1.4981 -0.6625 -1.0831
 3499TIP3    H232057   3.320   6.629   8.445 -0.5504  1.8446 -0.5517
 3500TIP3   OH232058   1.821   3.189   2.035 -0.1095  0.2834 -0.2813
 3500TIP3    H132059   1.824   3.283   2.052  1.7179  0.0961  0.6502
 3500TIP3    H232060   1.897   3.154   2.081  0.1448 -1.4381 -1.9140
 3501TIP3   OH232061   0.873   3.539   0.161 -0.3897 -0.1951  0.2003
 3501TIP3    H132062   0.934   3.487   0.108 -1.8512 -0.6018 -1.1781
 3501TIP3    H232063   0.870   3.493   0.245  0.7831 -0.4653  0.1167
 3502TIP3   OH232064   5.111   2.380   2.647 -0.6917 -0.3892 -0.1943
 3502TIP3    H132065   5.101   2.432   2.726  1.7887  0.3314 -0.2542
 3502TIP3    H232066   5.069   2.432   2.578 -0.2059  0.4764  0.1435
 3503TIP3   OH232067   4.559   3.268   8.640 -0.2960  0.1075 -0.7175
 3503TIP3    H132068   4.591   3.342   8.692 -0.6707  0.3901 -0.8726
 3503TIP3    H232069   4.594   3.284   8.552 -1.1006  0.5964 -0.9676
 3504TIP3   OH232070   2.912   6.050   1.989  0.7277  0.1370 -0.1202
 3504TIP3    H132071   2.955   6.101   2.057  1.0483  0.3695 -0.4935
 3504TIP3    H232072   2.888   6.114   1.922 -1.7958  0.3076  0.8467
 3505TIP3   OH232073   2.796   0.244   1.432  0.6719  0.5483  0.4022
 3505TIP3    H132074   2.786   0.222   1.524  0.0202  2.0292  0.7062
 3505TIP3    H232075   2.872   0.302   1.430  1.3927 -0.3735 -0.1746
 3506TIP3   OH232076   4.001   4.060   0.566 -0.0140  0.2264 -0.0832
 3506TIP3    H132077   4.085   4.052   0.611 -0.5956  1.5415  1.3410
 3506TIP3    H232078   3.981   3.972   0.536  0.5347 -0.6795  2.0723
 3507TIP3   OH232079   2.447   5.542   7.670  0.4665  0.0644  0.2622
 3507TIP3    H132080   2.424   5.489   7.747  0.3520 -0.6512 -0.2604
 3507TIP3    H232081   2.378   5.524   7.607  1.0136 -0.0132 -0.3280
 3508TIP3   OH232082   1.459   1.868   1.095 -0.2045 -0.2374  1.2447
 3508TIP3    H132083   1.431   1.777   1.104 -1.7245  0.1789  1.0143
 3508TIP3    H232084   1.474   1.898   1.185  1.3627 -0.9941  1.2738
 3509TIP3   OH232085   6.412   2.995   1.279  0.7454  0.5691 -0.1208
 3509TIP3    H132086   6.507   3.002   1.272  0.7855  0.1865  0.0067
 3509TIP3    H232087   6.397   2.954   1.365  0.5614 -1.2332 -0.9559
 3510TIP3   OH232088   2.288   2.885   8.430 -0.0161  0.4451 -0.2531
 3510TIP3    H132089   2.256   2.878   8.340  0.1974 -1.4219 -0.2195
 3510TIP3    H232090   2.270   2.800   8.469  1.4625  0.6281  0.9408
 3511TIP3   OH232091   5.100   3.459   2.245 -0.3174 -0.0852  0.8012
 3511TIP3    H132092   5.158   3.418   2.309 -1.0017  0.2863  1.6906
 3511TIP3    H232093   5.041   3.514   2.298 -0.3210  0.9471 -0.2299
 3512TIP3   OH232094   5.742   3.053   7.193 -0.6904 -0.1262  0.0950
 3512TIP3    H132095   5.807   2.983   7.185 -0.9746 -0.3730 -0.0796
 3512TIP3    H232096   5.669   3.012   7.239 -0.4067  0.3703  1.0292
 3513TIP3   OH232097   5.350   0.209   8.640 -0.0728  0.4461  0.2556
 3513TIP3    H132098   5.326   0.300   8.622 -1.2488  0.3644  1.2250
 3513TIP3    H232099   5.411   0.215   8.714  0.5441  0.4898 -0.2532
 3514TIP3   OH232100   6.127   3.009   1.616  0.2742 -0.3599  0.4287
 3514TIP3    H132101   6.078   2.940   1.572  0.0635 -0.6597  1.1315
 3514TIP3    H232102   6.218   2.978   1.615  0.3503 -0.1420 -0.2144
 3515TIP3   OH232103   0.817   6.721   2.298 -0.7296 -0.3867  0.9663
 3515TIP3    H132104   0.756   6.684   2.361 -1.9318 -0.0718  0.0269
 3515TIP3    H232105   0.828   6.812   2.324 -0.8682 -0.3769  0.9919
 3516TIP3   OH232106   3.816   5.935   2.866  0.4502  0.1315 -0.0019
 3516TIP3    H132107   3.806   5.954   2.773 -0.3071  0.3265  0.1095
 3516TIP3    H232108   3.906   5.903   2.875  0.9298  1.2381 -0.6110
 3517TIP3   OH232109   5.530   1.640   8.514 -0.4339  0.8761 -0.3416
 3517TIP3    H132110   5.594   1.603   8.575 -2.8268  0.0512  1.8479
 3517TIP3    H232111   5.495   1.564   8.466 -1.0606  1.0627 -0.1950
 3518TIP3   OH232112   4.609   4.251   2.392 -0.0830 -0.4501 -1.0060
 3518TIP3    H132113   4.544   4.187   2.361  2.0717 -3.1097 -0.4586
 3518TIP3    H232114   4.680   4.246   2.328  1.3045 -0.6591  0.4764
 3519TIP3   OH232115   3.252   2.856   7.452 -0.5857  0.4203 -0.4568
 3519TIP3    H132116   3.286   2.896   7.372  0.6972 -0.2264 -0.2558
 3519TIP3    H232117   3.257   2.762   7.436  0.0907  0.2730  0.5340
 3520TIP3   OH232118   6.146   6.216   8.629 -0.0861  0.2366 -0.6974
 3520TIP3    H132119   6.130   6.123   8.615  0.9389  0.2852 -2.5907
 3520TIP3    H232120   6.199   6.220   8.708 -0.7434 -0.7272 -0.1942
 3521TIP3   OH232121   4.642   4.759   0.514  0.1251 -0.2265  0.6850
 3521TIP3    H132122   4.706   4.826   0.488 -0.7332  0.0767 -0.7690
 3521TIP3    H232123   4.681   4.677   0.487  1.0105 -0.3188  2.1257
 3522TIP3   OH232124   5.594   6.364   3.185 -0.5885 -0.3991  0.2380
 3522TIP3    H132125   5.654   6.409   3.244  0.0514 -0.6284 -0.2383
 3522TIP3    H232126   5.567   6.285   3.233 -0.0836 -0.5743  0.2333
 3523TIP3   OH232127   2.396   0.949   7.559 -0.4290  0.7240  0.1441
 3523TIP3    H132128   2.489   0.971   7.551  0.3573 -2.2061  0.2038
 3523TIP3    H232129   2.365   0.943   7.469 -0.7110  2.1580  0.1303
 3524TIP3   OH232130   5.143   1.438   0.822  0.0855 -0.1912 -0.1539
 3524TIP3    H132131   5.105   1.373   0.763  1.9186 -0.0530 -1.5926
 3524TIP3    H232132   5.069   1.492   0.850 -1.2884 -2.1038  0.0984
 3525TIP3   OH232133   4.406   2.960   7.489 -0.1943 -0.0105 -0.7227
 3525TIP3    H132134   4.493   2.999   7.479  0.4607 -1.0646  0.4769
 3525TIP3    H232135   4.399   2.898   7.416 -0.8117  1.5002 -2.0107
 3526TIP3   OH232136   5.581   3.628   1.995  0.0124  0.2056 -0.3489
 3526TIP3    H132137   5.529   3.693   1.949 -1.4709 -0.2208  0.6543
 3526TIP3    H232138   5.523   3.594   2.063  1.1562 -1.2668 -0.0416
 3527TIP3   OH232139   0.753   4.670   8.382 -0.4088 -0.2358 -0.1785
 3527TIP3    H132140   0.730   4.677   8.290  2.4317 -1.8289 -1.1288
 3527TIP3    H232141   0.752   4.576   8.401  0.2189 -0.0167  1.0814
 3528TIP3   OH232142   0.878   0.067   7.318 -0.3518  0.2051 -0.3788
 3528TIP3    H132143   0.828  -0.014   7.329  0.0243  0.0005 -0.1782
 3528TIP3    H232144   0.968   0.043   7.337  0.2174  0.0421 -2.9670
 3529TIP3   OH232145   3.030   4.600   8.364 -0.3124  0.0614 -0.4150
 3529TIP3    H132146   3.103   4.647   8.325  1.1042 -0.9415  0.9404
 3529TIP3    H232147   2.978   4.667   8.407  0.5078  0.6449 -0.3155
 3530TIP3   OH232148   5.250   5.079   1.965 -0.0163  0.1022 -0.0384
 3530TIP3    H132149   5.187   5.009   1.983  1.4312 -1.2699 -0.0140
 3530TIP3    H232150   5.237   5.143   2.035 -1.5914  0.0395 -0.2425
 3531TIP3   OH232151   4.337   0.432   0.833  0.4227 -0.1978  0.6289
 3531TIP3    H132152   4.390   0.360   0.798  0.0646 -0.5260  0.7479
 3531TIP3    H232153   4.247   0.403   0.819  0.2732  0.5962 -0.0723
 3532TIP3   OH232154   0.197   5.944   8.175 -0.2354 -0.2619 -0.0222
 3532TIP3    H132155   0.194   5.850   8.156 -1.6492 -0.3231  0.3850
 3532TIP3    H232156   0.127   5.982   8.121 -0.6734  0.3210  0.9151
 3533TIP3   OH232157   2.185   1.592   7.940  0.0843  0.3701  0.2879
 3533TIP3    H132158   2.260   1.565   7.888  1.0011  2.0093  0.6681
 3533TIP3    H232159   2.121   1.623   7.876  1.1251  2.1934  0.0679
 3534TIP3   OH232160   0.543   4.973   1.945  0.0367 -0.0432  0.0328
 3534TIP3    H132161   0.520   5.053   1.898  2.5145  0.2299 -0.8837
 3534TIP3    H232162   0.628   4.947   1.909  0.6317 -1.5439  2.2445
 3535TIP3   OH232163   4.666   3.592   0.352  0.7701 -0.0569 -0.4088
 3535TIP3    H132164   4.592   3.557   0.302 -0.7046  2.0430  0.1778
 3535TIP3    H232165   4.689   3.674   0.309 -0.5377  1.8202  2.1624
 3536TIP3   OH232166   1.491   1.624   7.491  0.5901 -0.8397 -0.3285
 3536TIP3    H132167   1.503   1.690   7.424  1.1784 -2.0760 -1.4889
 3536TIP3    H232168   1.413   1.652   7.539  1.6518  1.4501  0.2045
 3537TIP3   OH232169   5.527   4.547   2.768 -0.0394  0.1544 -0.0702
 3537TIP3    H132170   5.617   4.567   2.740  0.0637 -1.5960 -1.1101
 3537TIP3    H232171   5.504   4.468   2.720 -2.4919  1.0565 -0.5345
 3538TIP3   OH232172   1.723   1.710   0.983 -0.0735 -0.2762 -0.1767
 3538TIP3    H132173   1.792   1.769   1.012  2.2519 -1.6276 -2.5574
 3538TIP3    H232174   1.676   1.687   1.063  2.0831  0.8658  1.5180
 3539TIP3   OH232175   6.332   3.832   6.959  0.1371 -0.7476 -0.2027
 3539TIP3    H132176   6.300   3.834   7.049  0.3601 -2.2692 -0.0485
 3539TIP3    H232177   6.391   3.907   6.953  1.8427 -1.8059  1.6434
 3540TIP3   OH232178   1.642   5.173   8.420 -0.3750 -0.8200  0.8942
 3540TIP3    H132179   1.581   5.198   8.490  0.0726 -0.0015  1.0029
 3540TIP3    H232180   1.650   5.251   8.366  0.1721 -1.0871  0.5808
 3541TIP3   OH232181   1.553   3.609   0.037  0.0322 -0.0683 -0.0868
 3541TIP3    H132182   1.585   3.519   0.043 -1.9115 -0.8661 -0.9258
 3541TIP3    H232183   1.515   3.627   0.123  1.7920  0.5651  0.6109
 3542TIP3   OH232184   5.406   0.785   7.614 -0.1093  0.4785  0.1753
 3542TIP3    H132185   5.452   0.804   7.532 -0.3388  1.0018  0.1630
 3542TIP3    H232186   5.424   0.861   7.670 -0.0913  0.1990  0.5513
 3543TIP3   OH232187   6.020   0.846   8.623  0.2223 -0.8824  0.4318
 3543TIP3    H132188   6.099   0.815   8.666  0.6403  0.9677  1.0533
 3543TIP3    H232189   5.953   0.782   8.649  1.2383 -1.8116  0.8523
 3544TIP3   OH232190   0.932   1.244   8.652 -0.2093  0.3085 -0.2162
 3544TIP3    H132191   1.024   1.232   8.630 -0.1493  0.8051 -0.2570
 3544TIP3    H232192   0.929   1.238   8.747 -0.1153  0.4068 -0.2070
 3545TIP3   OH232193   0.214   0.176   1.148 -0.2946 -0.1430 -0.6201
 3545TIP3    H132194   0.142   0.238   1.154  0.1551  0.3510 -0.2217
 3545TIP3    H232195   0.185   0.111   1.084 -1.3082 -0.2437 -0.0788
 3546TIP3   OH232196   6.341   1.696   8.699  0.2132  0.1726  0.1800
 3546TIP3    H132197   6.399   1.743   8.759  3.0439 -1.2730 -1.2272
 3546TIP3    H232198   6.339   1.750   8.620  0.8661 -0.4719 -0.2898
 3547TIP3   OH232199   5.867   5.502   0.540 -0.4675  0.1921  0.6458
 3547TIP3    H132200   5.869   5.597   0.542 -0.4251  0.1821  1.3693
 3547TIP3    H232201   5.942   5.477   0.486 -1.6255  0.5975 -1.2395
 3548TIP3   OH232202   3.388   0.435   0.917  0.4716  0.7844  0.3890
 3548TIP3    H132203   3.393   0.530   0.920 -0.3283  0.8666 -0.3092
 3548TIP3    H232204   3.295   0.415   0.927  0.5533  0.1115 -0.0744
 3549TIP3   OH232205   4.621   5.592   7.616  0.0817  0.3123  0.3125
 3549TIP3    H132206   4.580   5.606   7.701 -1.2904 -0.6985 -0.1496
 3549TIP3    H232207   4.677   5.515   7.628 -2.9113 -2.1985 -0.5052
 3550TIP3   OH232208   2.835   6.409   1.618 -0.7127 -0.1042 -0.7403
 3550TIP3    H132209   2.906   6.456   1.574 -0.5303  0.5239  0.1838
 3550TIP3    H232210   2.758   6.428   1.565 -0.3220 -0.1993 -1.3553
 3551TIP3   OH232211   5.337   0.624   0.282 -0.3972  0.4128  0.0128
 3551TIP3    H132212   5.348   0.668   0.367 -0.9746  0.4564  0.0638
 3551TIP3    H232213   5.397   0.549   0.287  0.7120  1.2562 -0.1319
 3552TIP3   OH232214   2.480   4.705   2.324  0.6975  0.5083  0.1443
 3552TIP3    H132215   2.404   4.682   2.377  0.9353  1.8267  1.1006
 3552TIP3    H232216   2.502   4.624   2.277 -1.8133  0.3397 -0.8713
 3553TIP3   OH232217   1.302   3.822   0.187 -0.2990 -0.1454 -0.3103
 3553TIP3    H132218   1.322   3.906   0.145 -2.1548  1.1165  1.1514
 3553TIP3    H232219   1.331   3.832   0.277 -1.1125 -0.8391  0.0425
 3554TIP3   OH232220   2.413   0.280   1.230 -0.0091  0.0357  0.6611
 3554TIP3    H132221   2.425   0.317   1.317 -0.8809 -0.0112  0.8058
 3554TIP3    H232222   2.320   0.290   1.212  0.2583  0.5838 -0.5139
 3555TIP3   OH232223   4.009   3.203   1.963  0.5137 -0.6288 -0.4548
 3555TIP3    H132224   3.934   3.250   1.925  0.3236 -1.1866 -0.7748
 3555TIP3    H232225   4.036   3.258   2.037 -2.4158 -2.1256  1.9252
 3556TIP3   OH232226   5.806   5.922   1.123 -0.1880  0.3131  0.4407
 3556TIP3    H132227   5.849   5.850   1.077 -1.3379  0.7336 -1.3973
 3556TIP3    H232228   5.851   5.927   1.207  2.2065 -0.3418 -0.7089
 3557TIP3   OH232229   2.910   2.072   1.572 -0.0069 -0.0934  0.2031
 3557TIP3    H132230   2.995   2.088   1.612 -0.0215  0.6629 -0.0604
 3557TIP3    H232231   2.873   2.159   1.557 -0.1369 -0.3541 -1.1469
 3558TIP3   OH232232   6.714   2.702   8.486  0.2730 -0.3342  0.1865
 3558TIP3    H132233   6.656   2.779   8.481  1.0285  0.3893  1.9318
 3558TIP3    H232234   6.727   2.688   8.579  2.0798 -1.1338 -0.1555
 3559TIP3   OH232235   0.930   6.290   2.141  0.2099  0.0294  0.6179
 3559TIP3    H132236   0.844   6.312   2.177  0.2609  0.2036  0.6328
 3559TIP3    H232237   0.947   6.201   2.173 -0.9455 -0.9029 -1.1866
 3560TIP3   OH232238   3.663   3.935   8.066 -0.4664  0.5051  0.3597
 3560TIP3    H132239   3.598   3.999   8.037  0.6939  1.1318 -0.9533
 3560TIP3    H232240   3.660   3.941   8.162  0.4531  3.4864  0.3131
 3561TIP3   OH232241   2.644   0.168   2.089 -0.5170 -0.0542 -0.4955
 3561TIP3    H132242   2.569   0.144   2.143 -1.8630 -0.3954 -2.4349
 3561TIP3    H232243   2.694   0.229   2.144 -1.8172 -0.3638  1.1123
 3562TIP3   OH232244   2.687   5.709   1.323 -0.3665 -0.3824 -0.4998
 3562TIP3    H132245   2.633   5.788   1.320 -0.9794 -0.6730  1.4606
 3562TIP3    H232246   2.683   5.674   1.234 -0.8280  1.2789 -1.1815
 3563TIP3   OH232247   1.588   4.327   0.909 -0.3437  0.1348  0.5201
 3563TIP3    H132248   1.517   4.326   0.845 -0.3044 -1.9638  0.4426
 3563TIP3    H232249   1.664   4.359   0.860 -0.6093 -0.2283 -0.1428
 3564TIP3   OH232250   3.566   3.890   6.943  0.1664  0.0855 -0.4463
 3564TIP3    H132251   3.630   3.942   6.992 -0.8114  0.2077  0.7615
 3564TIP3    H232252   3.598   3.800   6.949 -1.3465 -0.3780  2.9873
 3565TIP3   OH232253   1.885   2.242   0.302  0.1800 -0.3638 -0.1316
 3565TIP3    H132254   1.890   2.175   0.370  0.8688  0.6496  0.8428
 3565TIP3    H232255   1.794   2.240   0.274  0.2853 -2.0114 -0.4539
 3566TIP3   OH232256   2.610   3.697   0.560  0.5872  0.1159  0.4342
 3566TIP3    H132257   2.561   3.779   0.550  1.0230  0.5473  1.6837
 3566TIP3    H232258   2.553   3.631   0.520  0.5564  1.1094 -1.2683
 3567TIP3   OH232259   4.648   5.166   7.737 -0.1284  0.7830  0.5570
 3567TIP3    H132260   4.694   5.246   7.761  1.5531  0.2457 -0.6846
 3567TIP3    H232261   4.580   5.195   7.676  0.6649  1.2658 -0.1294
 3568TIP3   OH232262   1.565   2.859   2.197  0.2033  0.2601  0.7859
 3568TIP3    H132263   1.564   2.917   2.121  0.4785 -1.3225 -0.4893
 3568TIP3    H232264   1.655   2.860   2.228  0.0915  0.9009  1.1077
 3569TIP3   OH232265   1.066   0.708   0.100 -0.2608  0.4782 -0.9907
 3569TIP3    H132266   1.108   0.678   0.019 -0.5458  1.0156 -1.3419
 3569TIP3    H232267   1.139   0.722   0.161  0.0339  0.8923 -1.4296
 3570TIP3   OH232268   5.979   0.726   2.535  0.1047 -0.3167 -0.4545
 3570TIP3    H132269   6.014   0.812   2.556  0.1389 -0.7356  1.3820
 3570TIP3    H232270   5.939   0.696   2.616  1.6993 -2.8023 -0.4770
 3571TIP3   OH232271   4.370   2.727   0.651 -0.4310  0.0805  0.3335
 3571TIP3    H132272   4.293   2.733   0.595 -0.1103  1.0728 -0.0241
 3571TIP3    H232273   4.381   2.633   0.666 -1.7751 -0.0702  0.5015
 3572TIP3   OH232274   2.999   0.809   1.587 -0.0196 -0.3578  0.2355
 3572TIP3    H132275   2.930   0.868   1.615  0.3697 -0.1063  0.6857
 3572TIP3    H232276   3.080   0.854   1.611  0.3091 -0.5067 -0.5669
 3573TIP3   OH232277   3.539   2.260   1.139  0.2469  0.0737 -0.0997
 3573TIP3    H132278   3.521   2.171   1.109  0.5774  0.7903 -2.7381
 3573TIP3    H232279   3.559   2.308   1.058  3.1454  1.8459  1.4987
 3574TIP3   OH232280   1.043   0.997   0.026 -0.3900  0.2543 -0.3279
 3574TIP3    H132281   1.047   0.904   0.047  0.7350  0.0747 -1.2240
 3574TIP3    H232282   1.027   1.040   0.110  1.3885 -0.5924  0.4899
 3575TIP3   OH232283   3.091   1.592   0.705  0.1025  0.9074  0.8089
 3575TIP3    H132284   3.163   1.642   0.667  1.9199 -1.9322  0.2208
 3575TIP3    H232285   3.127   1.555   0.785  0.0194 -1.9687 -0.3535
 3576TIP3   OH232286   0.987   1.041   2.870  0.5417 -0.7494 -0.1702
 3576TIP3    H132287   1.010   1.132   2.889  0.3731 -0.9951  1.2893
 3576TIP3    H232288   0.893   1.044   2.849  0.2822 -0.7259  0.9594
 3577TIP3   OH232289   3.970   3.243   7.168 -0.7032 -0.2817 -0.0773
 3577TIP3    H132290   4.015   3.260   7.251 -0.8174 -2.3862  0.4569
 3577TIP3    H232291   4.041   3.239   7.103 -0.4923  0.1364  0.1222
 3578TIP3   OH232292   2.268   4.591   8.160  0.2354  0.0804 -0.1726
 3578TIP3    H132293   2.286   4.541   8.081  1.9288 -0.5729  0.5942
 3578TIP3    H232294   2.286   4.530   8.232 -0.7386  0.8283  0.7373
 3579TIP3   OH232295   0.050   4.887   1.856  0.4409  0.3108 -0.0867
 3579TIP3    H132296   0.122   4.845   1.809  0.8628  0.4288  0.4437
 3579TIP3    H232297  -0.014   4.908   1.788  0.7441 -0.1226 -0.5152
 3580TIP3   OH232298   5.848   0.339   1.662 -0.1725  0.1810 -0.1165
 3580TIP3    H132299   5.845   0.246   1.640 -0.3755  0.4928 -1.5133
 3580TIP3    H232300   5.884   0.341   1.750 -0.4579 -1.2369  0.0689
 3581TIP3   OH232301   6.201   0.041   0.893  0.2826  0.5864 -0.5180
 3581TIP3    H132302   6.149   0.104   0.943  0.6444 -0.8352  1.8424
 3581TIP3    H232303   6.225   0.087   0.813 -0.6261  2.9244  0.4664
 3582TIP3   OH232304   0.367   5.793   1.926  0.2848 -0.5121  0.3518
 3582TIP3    H132305   0.312   5.852   1.979 -0.1291 -1.1852  0.6948
 3582TIP3    H232306   0.341   5.810   1.836  2.3547  2.0358  0.1451
 3583TIP3   OH232307   5.423   3.960   1.266 -0.4307 -0.5840 -0.1638
 3583TIP3    H132308   5.459   3.965   1.354  0.4072 -3.6875 -0.1915
 3583TIP3    H232309   5.330   3.940   1.279 -0.9078  1.4594 -0.0730
 3584TIP3   OH232310   0.189   0.114   0.004 -0.1038  0.4804 -0.5555
 3584TIP3    H132311   0.256   0.059   0.047  0.3190 -0.9682 -2.9010
 3584TIP3    H232312   0.233   0.198  -0.010  0.6160  0.1292 -0.4615
 3585TIP3   OH232313   2.242   1.065   8.033 -0.6103 -0.0801 -0.2891
 3585TIP3    H132314   2.286   1.141   7.998  2.8905 -2.5024 -1.6691
 3585TIP3    H232315   2.149   1.080   8.014  0.0444  3.2631 -1.4427
 3586TIP3   OH232316   1.545   0.881   2.750  0.3321  0.1727  0.5496
 3586TIP3    H132317   1.636   0.853   2.757  0.7512  1.1901 -0.5248
 3586TIP3    H232318   1.494   0.803   2.773  1.4588 -0.6362  0.3828
 3587TIP3   OH232319   5.998   3.098   8.267  0.2548  0.2344 -0.0989
 3587TIP3    H132320   5.940   3.077   8.194 -1.4402  1.8954  0.6628
 3587TIP3    H232321   5.946   3.078   8.345  1.4555 -0.0637  0.6509
 3588TIP3   OH232322   1.406   3.983   7.358 -0.2646 -0.3987 -0.2396
 3588TIP3    H132323   1.399   4.049   7.289 -1.7421 -0.1583  0.1099
 3588TIP3    H232324   1.456   4.027   7.428 -2.7437  1.0949  0.7462
 3589TIP3   OH232325   3.075   1.270   6.850 -0.5182 -0.4605 -0.4160
 3589TIP3    H132326   3.062   1.241   6.760 -0.0131 -2.8993  0.2126
 3589TIP3    H232327   2.987   1.279   6.886 -0.6991 -0.7878 -0.7728
 3590TIP3   OH232328   5.899   0.335   1.940  0.3077  0.5054 -0.2371
 3590TIP3    H132329   5.918   0.245   1.964  1.1293  0.0193 -2.4251
 3590TIP3    H232330   5.936   0.388   2.011  1.6944 -0.8063  0.0631
 3591TIP3   OH232331   5.940   1.591   1.954 -0.0039 -0.7214 -0.1702
 3591TIP3    H132332   5.892   1.641   1.889 -1.0175 -1.4523 -0.0091
 3591TIP3    H232333   5.976   1.657   2.013 -0.1255 -0.1212 -0.7562
 3592TIP3   OH232334   4.901   4.227   1.679 -0.1917  0.3927  0.3869
 3592TIP3    H132335   4.851   4.306   1.660  0.1185  0.0511 -2.2229
 3592TIP3    H232336   4.924   4.235   1.772 -3.8524  1.1941  1.3851
 3593TIP3   OH232337   3.961   1.450   0.091 -0.2884 -0.2470 -0.3638
 3593TIP3    H132338   3.884   1.419   0.043 -1.4785  2.3475 -0.2698
 3593TIP3    H232339   4.021   1.481   0.023 -0.2710 -0.2139 -0.3333
 3594TIP3   OH232340   6.355   2.476   1.746 -0.1922 -0.3084 -0.1505
 3594TIP3    H132341   6.408   2.432   1.679 -1.3139 -0.7059 -0.7986
 3594TIP3    H232342   6.343   2.411   1.815 -0.9983 -0.6942 -0.6447
 3595TIP3   OH232343   4.735   3.884   1.124  0.0356  0.5050 -0.0091
 3595TIP3    H132344   4.695   3.872   1.210  0.8913  0.0920  0.3351
 3595TIP3    H232345   4.757   3.977   1.121  1.6810  0.1757  0.9748
 3596TIP3   OH232346   2.123   0.402   0.382 -0.6355  0.0071  0.4035
 3596TIP3    H132347   2.058   0.380   0.448  0.5740  1.1793  2.0891
 3596TIP3    H232348   2.181   0.326   0.379 -0.7404 -0.0839  0.6538
 3597TIP3   OH232349   0.947   6.012   2.008  0.7097  0.4044 -0.3461
 3597TIP3    H132350   0.982   5.973   1.928  0.2687  1.6992 -1.2022
 3597TIP3    H232351   0.858   6.038   1.985  0.2758  0.0374  0.8318
 3598TIP3   OH232352   2.695   5.838   7.916 -0.2500  0.1747  0.2689
 3598TIP3    H132353   2.711   5.778   7.844  1.3131  0.0982  0.6390
 3598TIP3    H232354   2.621   5.891   7.887  0.0123 -0.1989 -1.1752
 3599TIP3   OH232355   1.778   2.589   7.598 -0.1333 -0.6286 -0.1155
 3599TIP3    H132356   1.798   2.519   7.536 -0.1547 -1.5987  0.9392
 3599TIP3    H232357   1.756   2.543   7.679 -3.4737  0.4500 -0.2710
 3600TIP3   OH232358   3.056   5.627   1.147 -0.4486 -0.5421  0.2686
 3600TIP3    H132359   3.079   5.629   1.240  0.7962 -0.4018 -0.0228
 3600TIP3    H232360   3.075   5.715   1.115  1.2969 -1.1804 -0.5832
 3601TIP3   OH232361   3.859   2.371   8.458 -0.0174 -0.3617 -0.4364
 3601TIP3    H132362   3.775   2.381   8.504  0.1610  0.7383 -0.3136
 3601TIP3    H232363   3.898   2.292   8.495 -0.5707 -0.3455  0.1999
 3602TIP3   OH232364   0.819   6.803   0.646 -0.1741  0.0820  0.0667
 3602TIP3    H132365   0.784   6.714   0.644  1.3506 -0.5801  1.1219
 3602TIP3    H232366   0.761   6.852   0.588  0.2972 -2.0726 -2.4065
 3603TIP3   OH232367   6.121   5.094   0.542  0.0504  0.5517 -0.1566
 3603TIP3    H132368   6.041   5.145   0.530 -0.1499  0.3404  0.2476
 3603TIP3    H232369   6.158   5.085   0.454 -0.2642  0.8248 -0.3161
 3604TIP3   OH232370   3.263   6.240   2.451  0.4465 -0.0362 -0.0475
 3604TIP3    H132371   3.327   6.207   2.388 -0.5475 -0.3407 -0.9389
 3604TIP3    H232372   3.231   6.161   2.495 -0.7188 -0.1108 -0.9940
 3605TIP3   OH232373   5.185   0.117   2.302  0.2662 -0.1812  0.7807
 3605TIP3    H132374   5.092   0.110   2.324  0.1411 -0.2358  0.2495
 3605TIP3    H232375   5.197   0.207   2.273  0.1261 -0.4729 -0.2407
 3606TIP3   OH232376   2.004   6.368   0.307 -0.1541  0.2230  0.2802
 3606TIP3    H132377   2.068   6.305   0.274 -0.1155  0.1017  0.5869
 3606TIP3    H232378   2.053   6.449   0.317  0.3592 -0.2583  2.0308
 3607TIP3   OH232379   2.968   5.625   0.132 -0.2732 -0.0078  0.6824
 3607TIP3    H132380   3.039   5.659   0.078 -1.6301 -1.4356 -2.2174
 3607TIP3    H232381   3.008   5.552   0.180  0.5408  0.1098  0.1969
 3608TIP3   OH232382   0.228   3.478   7.975  0.5608  0.3668  0.1936
 3608TIP3    H132383   0.270   3.396   7.950 -0.9892 -0.5369  0.4498
 3608TIP3    H232384   0.194   3.514   7.893 -0.8546 -0.4839  0.3795
 3609TIP3   OH232385   4.303   2.993   1.301 -0.2548 -0.4827 -0.4380
 3609TIP3    H132386   4.363   3.035   1.239  1.2755 -1.8123  0.0573
 3609TIP3    H232387   4.345   3.005   1.387  0.1585 -2.7784 -0.2624
 3610TIP3   OH232388   6.783   1.702   0.647  0.1188 -0.0405  0.4589
 3610TIP3    H132389   6.792   1.787   0.690  1.7978  0.7458 -1.2844
 3610TIP3    H232390   6.727   1.719   0.571  0.2730 -0.5360  0.2266
 3611TIP3   OH232391   2.471   0.153   7.814  0.0857 -0.1780  0.0871
 3611TIP3    H132392   2.533   0.128   7.746 -0.5316  1.4155 -1.1493
 3611TIP3    H232393   2.392   0.103   7.794 -0.0039  0.0833 -0.2408
 3612TIP3   OH232394   6.826   0.409   8.460  0.6494  0.0276 -0.0793
 3612TIP3    H132395   6.763   0.406   8.388 -1.9115 -1.4441  2.0820
 3612TIP3    H232396   6.875   0.327   8.453  0.4088 -0.1103 -0.1282
 3613TIP3   OH232397   1.610   4.523   0.628  0.2684  0.2024 -0.1830
 3613TIP3    H132398   1.536   4.576   0.659 -0.1469 -0.1385 -0.5901
 3613TIP3    H232399   1.681   4.586   0.618  0.3174  0.3892  1.1090
 3614TIP3   OH232400   0.058   6.156   7.695 -0.6328  0.4684  0.7051
 3614TIP3    H132401  -0.035   6.168   7.713 -0.7898  1.3364 -0.5791
 3614TIP3    H232402   0.066   6.166   7.600  0.3995 -2.1934  0.4143
 3615TIP3   OH232403   5.036   4.590   0.378  0.4221 -0.2390  0.4513
 3615TIP3    H132404   5.045   4.522   0.444  1.5490 -0.2193  0.3420
 3615TIP3    H232405   5.113   4.579   0.322 -0.3274 -0.0219 -0.6379
 3616TIP3   OH232406   5.139   4.499   7.976  0.5403 -0.2259  0.0419
 3616TIP3    H132407   5.047   4.503   7.951  0.9199  1.0113 -1.2951
 3616TIP3    H232408   5.150   4.412   8.014 -1.4962  0.1278  1.5823
 3617TIP3   OH232409   5.378   4.020   0.997  0.1020 -0.2595 -0.0120
 3617TIP3    H132410   5.432   4.018   1.076 -2.9533  2.6833  2.4950
 3617TIP3    H232411   5.397   4.105   0.957 -1.3586  0.1005 -0.0061
 3618TIP3   OH232412   0.296   1.175   8.688 -0.1648  0.0472 -0.6167
 3618TIP3    H132413   0.315   1.246   8.750 -1.9902  0.6902 -0.7306
 3618TIP3    H232414   0.358   1.187   8.617 -1.1769  2.3197 -1.2047
 3619TIP3   OH232415   6.764   1.086   2.000  0.5397 -0.4166 -0.4989
 3619TIP3    H132416   6.734   1.081   1.910 -0.7249 -0.3479 -0.0938
 3619TIP3    H232417   6.748   1.176   2.027  2.1933 -0.0445 -0.6086
 3620TIP3   OH232418   6.036   0.513   2.087  1.2803 -0.2192 -0.2156
 3620TIP3    H132419   5.999   0.591   2.046 -1.3677 -0.2516  1.8176
 3620TIP3    H232420   6.037   0.533   2.181  1.4162 -2.2683  0.2732
 3621TIP3   OH232421   2.332   5.374   1.946  0.6053 -0.1455 -0.3886
 3621TIP3    H132422   2.373   5.360   1.861 -0.0457  0.3625 -0.7952
 3621TIP3    H232423   2.362   5.462   1.972  0.4263 -0.1102 -0.3039
 3622TIP3   OH232424   4.540   0.791   1.592  0.2208 -0.3534  0.3177
 3622TIP3    H132425   4.528   0.761   1.682 -0.0385  0.2915  0.5035
 3622TIP3    H232426   4.469   0.750   1.543 -1.5230  1.6582  0.9863
 3623TIP3   OH232427   1.274   1.784   7.550  0.2315  0.4891  0.3517
 3623TIP3    H132428   1.302   1.838   7.624 -0.5958  0.4904  0.6820
 3623TIP3    H232429   1.235   1.846   7.488 -0.8145  0.2778  0.7782
 3624TIP3   OH232430   4.211   6.119   8.054  0.3464 -0.3604 -0.1155
 3624TIP3    H132431   4.260   6.054   8.104 -0.1825 -0.3905  0.3578
 3624TIP3    H232432   4.132   6.074   8.026  0.5150 -0.2684 -0.7759
 3625TIP3   OH232433   2.003   4.009   0.202 -0.5956 -0.0893  0.0086
 3625TIP3    H132434   2.081   3.974   0.158 -0.3491 -1.1050  1.1847
 3625TIP3    H232435   2.030   4.095   0.235 -0.1639 -0.1624 -0.1464
 3626TIP3   OH232436   0.389   0.577   7.996 -0.5419  0.6289  0.1836
 3626TIP3    H132437   0.428   0.637   8.060  0.2733 -0.2781  0.5513
 3626TIP3    H232438   0.338   0.516   8.049 -0.2503  0.1620 -0.0712
 3627TIP3   OH232439   4.720   4.843   8.171 -0.2981 -0.2433  0.4312
 3627TIP3    H132440   4.693   4.935   8.164 -0.6961 -0.4807 -1.9349
 3627TIP3    H232441   4.810   4.842   8.137 -0.4430 -0.7758  0.0539
 3628TIP3   OH232442   6.700   3.007   1.468  0.3004 -0.4309 -0.4279
 3628TIP3    H132443   6.697   2.951   1.545  0.1560 -1.5232 -1.1971
 3628TIP3    H232444   6.674   3.094   1.500  0.8010 -0.7313  0.8384
 3629TIP3   OH232445   0.942   1.744   2.538  0.0022 -0.1516  0.4646
 3629TIP3    H132446   0.991   1.826   2.545  0.9907 -0.4827 -1.7316
 3629TIP3    H232447   0.999   1.679   2.578 -1.2063  0.2958  3.1191
 3630TIP3   OH232448   4.121   5.014   7.823  0.5309 -0.1108  0.0121
 3630TIP3    H132449   4.157   5.000   7.735  2.4579 -0.7058  0.8445
 3630TIP3    H232450   4.195   5.045   7.875 -0.4618 -0.1970  1.5405
 3631TIP3   OH232451   3.946   4.890   1.838 -0.1939  0.4312 -0.5860
 3631TIP3    H132452   3.895   4.954   1.887 -0.3009 -0.5825  0.6686
 3631TIP3    H232453   3.982   4.940   1.765 -0.7999  1.7717 -0.0107
 3632TIP3   OH232454   0.367   3.830   1.952  0.1283  0.2222 -0.0563
 3632TIP3    H132455   0.361   3.845   2.046 -0.2279  0.7011 -0.1457
 3632TIP3    H232456   0.461   3.829   1.933  0.2061 -0.1907  0.3481
 3633TIP3   OH232457   5.154   5.042   7.964  0.0956  0.2581 -0.1138
 3633TIP3    H132458   5.243   5.009   7.953 -1.0309 -2.6471 -1.3224
 3633TIP3    H232459   5.126   5.068   7.876  0.4994  3.6957  0.5949
 3634TIP3   OH232460   5.454   5.977   2.080  0.4100  0.7535  0.2882
 3634TIP3    H132461   5.430   5.929   2.001 -1.2409 -0.3614  1.3898
 3634TIP3    H232462   5.380   5.964   2.139  1.6952  1.3349  2.1176
 3635TIP3   OH232463   1.213   0.956   2.724  0.0392  0.2134  0.2694
 3635TIP3    H132464   1.221   0.861   2.720  0.1506  0.2595 -0.7063
 3635TIP3    H232465   1.134   0.971   2.776  0.8856 -0.3688  1.8009
 3636TIP3   OH232466   5.079   4.242   0.955 -0.1931  0.9302 -0.4514
 3636TIP3    H132467   5.010   4.193   0.912  0.3167 -0.1639 -0.0473
 3636TIP3    H232468   5.039   4.326   0.977 -1.6445 -0.0030  0.5717
 3637TIP3   OH232469   5.042   6.434   1.042 -0.4864  0.2845  0.1095
 3637TIP3    H132470   5.132   6.455   1.065  0.6815  0.1689 -3.6645
 3637TIP3    H232471   5.042   6.340   1.026 -0.4783  0.6430 -2.4498
 3638TIP3   OH232472   0.343   0.936   2.686  0.2290  0.3285  0.1323
 3638TIP3    H132473   0.372   0.945   2.777  0.7121  0.3085 -0.0150
 3638TIP3    H232474   0.424   0.922   2.637 -0.1429 -1.0856 -0.1199
 3639TIP3   OH232475   4.867   4.883   0.387 -0.4019 -0.1611 -0.2171
 3639TIP3    H132476   4.866   4.796   0.346 -2.7890 -0.5103  0.4524
 3639TIP3    H232477   4.856   4.943   0.313 -0.3554 -0.5261 -0.5296
 3640TIP3   OH232478   3.097   4.953   0.665  0.1325  0.3960  0.1313
 3640TIP3    H132479   3.162   5.002   0.614  0.9792 -0.5843  0.2414
 3640TIP3    H232480   3.109   4.862   0.637  1.3236 -0.3552  2.7450
 3641TIP3   OH232481   5.616   1.541   1.359 -0.7839 -0.3085 -0.2751
 3641TIP3    H132482   5.563   1.590   1.296 -0.7015  0.1893  0.0421
 3641TIP3    H232483   5.632   1.602   1.430  0.5289 -0.3379 -0.5240
 3642TIP3   OH232484   3.774   5.084   1.277 -0.0052  0.0146 -0.0865
 3642TIP3    H132485   3.793   5.144   1.349 -1.1530  0.2761  0.0103
 3642TIP3    H232486   3.842   5.102   1.212  0.9645 -0.1327  0.8573
 3643TIP3   OH232487   2.880   1.588   8.585  0.1487 -0.2638  0.2711
 3643TIP3    H132488   2.844   1.665   8.542  1.5038  0.3396  0.1467
 3643TIP3    H232489   2.900   1.527   8.514 -1.7639 -1.1336  0.4395
 3644TIP3   OH232490   0.111   5.157   7.670 -0.2350  0.4084  0.2416
 3644TIP3    H132491   0.059   5.162   7.591  0.3196 -0.6738 -0.2164
 3644TIP3    H232492   0.077   5.081   7.717  0.9503 -0.3935 -0.1243
 3645TIP3   OH232493   2.720   3.040   6.887 -0.1924  0.0271  0.0922
 3645TIP3    H132494   2.780   3.084   6.946  0.4616  0.5023 -0.9002
 3645TIP3    H232495   2.763   3.044   6.801 -0.7077 -1.3918 -0.2723
 3646TIP3   OH232496   2.143   2.998   1.478 -0.3613 -0.0017  0.4220
 3646TIP3    H132497   2.168   3.087   1.454 -2.4216  0.5140 -0.0580
 3646TIP3    H232498   2.226   2.954   1.496  0.7120  2.0521  0.8859
 3647TIP3   OH232499   5.700   2.769   7.134  0.3409 -0.2041  0.0371
 3647TIP3    H132500   5.621   2.738   7.089  1.9162  0.1424 -3.3358
 3647TIP3    H232501   5.747   2.689   7.158  0.5069 -0.4519 -1.0533
 3648TIP3   OH232502   5.102   5.646   7.298  0.7278 -0.4474 -0.1144
 3648TIP3    H132503   5.074   5.737   7.300 -1.0614 -0.9152 -1.3447
 3648TIP3    H232504   5.020   5.596   7.293  1.6532 -2.1426  0.6586
 3649TIP3   OH232505   0.514   3.002   1.661  0.3929 -0.2471  0.2945
 3649TIP3    H132506   0.535   2.910   1.670  0.0108 -0.5377 -1.4271
 3649TIP3    H232507   0.418   3.006   1.665  0.3628 -0.0454 -0.4210
 3650TIP3   OH232508   6.240   4.911   7.796  0.6010 -0.7191 -0.1971
 3650TIP3    H132509   6.204   4.901   7.708 -0.4885 -1.2165  0.2805
 3650TIP3    H232510   6.212   4.999   7.823 -0.7130 -1.2746  0.3462
 3651TIP3   OH232511   4.678   1.970   3.165 -0.1680 -0.1830  0.1484
 3651TIP3    H132512   4.632   2.001   3.243  0.1724 -0.2651  0.3827
 3651TIP3    H232513   4.733   1.898   3.197  1.2474  0.8557  0.1544
 3652TIP3   OH232514   1.936   4.540   0.597 -0.3638  0.1116 -0.3142
 3652TIP3    H132515   2.027   4.566   0.615  0.4618 -1.1251 -2.2725
 3652TIP3    H232516   1.905   4.606   0.534  0.6929 -1.6571 -2.8913
 3653TIP3   OH232517   1.214   6.155   8.542  0.6122  0.0024 -0.5299
 3653TIP3    H132518   1.167   6.140   8.460  0.3635  2.3385 -0.8885
 3653TIP3    H232519   1.200   6.248   8.561 -1.2461 -0.8712  3.4032
 3654TIP3   OH232520   1.209   3.575   2.682 -0.0326 -0.5688 -0.5153
 3654TIP3    H132521   1.288   3.522   2.675  0.6551  0.3020  0.4596
 3654TIP3    H232522   1.238   3.665   2.667 -0.6192 -0.1153  0.8667
 3655TIP3   OH232523   1.263   5.079   0.520 -0.4677  0.4289  0.8363
 3655TIP3    H132524   1.195   5.110   0.460 -0.1433 -0.5978 -0.0851
 3655TIP3    H232525   1.237   5.114   0.605 -2.8917 -0.9707  0.7834
 3656TIP3   OH232526   3.485   1.132   8.147  0.2631 -0.0470 -0.6133
 3656TIP3    H132527   3.440   1.202   8.099  0.0573  0.0192 -0.3316
 3656TIP3    H232528   3.417   1.096   8.204  0.8153  0.7423  0.5814
 3657TIP3   OH232529   0.939   2.620   8.194 -0.0683  0.2876 -0.3551
 3657TIP3    H132530   0.906   2.547   8.246  0.5675  0.1815 -0.0973
 3657TIP3    H232531   1.030   2.597   8.175  0.0398  0.8596 -0.5518
 3658TIP3   OH232532   4.981   0.447   0.469  0.8137  0.7632  0.2583
 3658TIP3    H132533   5.047   0.485   0.528  1.4785  0.9747 -0.5926
 3658TIP3    H232534   5.026   0.373   0.427  0.5184  0.9019 -0.3192
 3659TIP3   OH232535   4.619   3.311   1.781 -0.0418 -0.3252 -0.0306
 3659TIP3    H132536   4.615   3.216   1.767 -1.7869 -0.1404 -1.0062
 3659TIP3    H232537   4.554   3.347   1.721  0.6392  1.5122  0.2717
 3660TIP3   OH232538   5.094   4.115   8.571 -0.1304  0.1962 -0.4740
 3660TIP3    H132539   5.111   4.027   8.540 -0.2726 -0.0958  0.2531
 3660TIP3    H232540   5.169   4.136   8.628 -0.1645  0.4898 -0.5325
 3661TIP3   OH232541   2.751   0.772   0.936  0.5645 -0.1964 -0.0143
 3661TIP3    H132542   2.766   0.860   0.968  0.1876 -0.4075  0.7697
 3661TIP3    H232543   2.675   0.740   0.986  0.4951 -0.8469 -0.5089
 3662TIP3   OH232544   3.718   2.025   7.786 -1.0512  0.2497  0.3736
 3662TIP3    H132545   3.652   1.975   7.834  0.3970 -0.4143  1.7536
 3662TIP3    H232546   3.766   2.073   7.854 -0.4178  1.0995 -0.6378
 3663TIP3   OH232547   4.224   6.266   1.674  0.2644  0.0457 -0.6235
 3663TIP3    H132548   4.200   6.323   1.601  0.8064 -2.2696 -2.7650
 3663TIP3    H232549   4.154   6.200   1.677 -0.5208  0.8575  1.9790
 3664TIP3   OH232550   6.160   2.151   7.676 -0.2379  0.4058 -0.0795
 3664TIP3    H132551   6.241   2.192   7.645  0.9570 -1.8272 -0.1663
 3664TIP3    H232552   6.186   2.106   7.757 -1.1739 -0.9635 -0.5059
 3665TIP3   OH232553   2.890   6.529   8.143 -0.1950  0.8885 -0.1302
 3665TIP3    H132554   2.813   6.477   8.122  0.9879 -0.9035 -0.2003
 3665TIP3    H232555   2.903   6.516   8.237  0.1298  1.0523 -0.1497
 3666TIP3   OH232556   6.535   0.771   1.116  0.0561 -0.4150  0.3125
 3666TIP3    H132557   6.561   0.755   1.025 -1.3144 -1.0176 -0.0055
 3666TIP3    H232558   6.564   0.693   1.163  1.1844  0.1041  0.4976
 3667TIP3   OH232559   3.219   2.615   0.141  0.2231  0.3173  0.4137
 3667TIP3    H132560   3.159   2.584   0.208  0.4841 -1.4373 -0.1128
 3667TIP3    H232561   3.176   2.693   0.104 -1.5529 -0.6615  0.3069
 3668TIP3   OH232562   3.646   2.429   8.634  0.0550  0.0586 -0.4324
 3668TIP3    H132563   3.624   2.343   8.670  1.4805 -0.0294  0.3128
 3668TIP3    H232564   3.571   2.484   8.657 -0.3633 -0.7068  0.0907
 3669TIP3   OH232565   2.106   2.186   2.316 -0.2074 -0.0647  0.0273
 3669TIP3    H132566   2.161   2.114   2.285 -0.2441 -0.2117  0.2986
 3669TIP3    H232567   2.017   2.149   2.319 -0.5320  0.5204 -1.5639
 3670TIP3   OH232568   2.225   5.774   8.251  0.0014  0.3342  0.1374
 3670TIP3    H132569   2.268   5.804   8.171  0.1813  0.5881  0.3310
 3670TIP3    H232570   2.275   5.697   8.278  1.7384  1.8888  1.5887
 3671TIP3   OH232571   5.122   1.655   1.266  0.2447  0.4732  0.1487
 3671TIP3    H132572   5.106   1.588   1.332  0.9980 -0.2688 -0.3995
 3671TIP3    H232573   5.101   1.737   1.310  0.8688  0.0117  1.3660
 3672TIP3   OH232574   3.121   3.921   8.481  0.1711  0.7225 -0.0836
 3672TIP3    H132575   3.201   3.925   8.429  0.6524 -1.3077  0.4333
 3672TIP3    H232576   3.081   3.838   8.456 -0.2177  0.2925  1.8734
 3673TIP3   OH232577   2.457   4.981   2.396 -0.4941 -0.0137  0.0099
 3673TIP3    H132578   2.378   5.013   2.440 -0.5295 -1.6518  1.2619
 3673TIP3    H232579   2.443   4.886   2.390  0.5329 -0.0885 -1.5256
 3674TIP3   OH232580   4.384   2.692   2.272  0.4661  0.0251 -0.6179
 3674TIP3    H132581   4.471   2.696   2.232  0.8640 -1.3416  0.0236
 3674TIP3    H232582   4.400   2.701   2.366 -0.4593  3.2406 -0.6535
 3675TIP3   OH232583   5.590   0.589   0.059 -0.0045  0.1005  0.2254
 3675TIP3    H132584   5.536   0.605  -0.019 -2.3808  0.8433  1.9230
 3675TIP3    H232585   5.607   0.677   0.094  1.3356 -0.2065  0.4079
 3676TIP3   OH232586   3.460   0.310   0.534  0.0481 -0.4624 -0.2925
 3676TIP3    H132587   3.462   0.373   0.462 -0.6797 -0.9753 -0.7725
 3676TIP3    H232588   3.389   0.341   0.591  1.2426  0.4992  0.7514
 3677TIP3   OH232589   5.653   0.057   8.671  0.4180 -0.2954  0.1970
 3677TIP3    H132590   5.730   0.036   8.723 -0.3243  0.7437  1.7878
 3677TIP3    H232591   5.580   0.016   8.717 -0.3313  1.0698  0.2928
 3678TIP3   OH232592   4.454   2.211   1.581  0.4214  0.4246 -0.2454
 3678TIP3    H132593   4.359   2.202   1.579  0.1926  1.6701  1.9530
 3678TIP3    H232594   4.487   2.122   1.568 -0.9471  0.1272 -2.2010
 3679TIP3   OH232595   5.504   0.720   8.101  0.2498  0.3350  0.7276
 3679TIP3    H132596   5.574   0.702   8.164  0.0829 -1.5777  0.4452
 3679TIP3    H232597   5.549   0.723   8.016  0.0819 -0.2207  0.6176
 3680TIP3   OH232598   6.746   4.916   7.752 -0.1880 -0.3140  0.1658
 3680TIP3    H132599   6.671   4.879   7.799  0.2942 -1.9319 -0.3022
 3680TIP3    H232600   6.758   4.859   7.677  1.4841 -0.0394  0.1981
 3681TIP3   OH232601   3.480   1.181   1.791  1.3168 -0.3694 -0.3261
 3681TIP3    H132602   3.433   1.192   1.873 -0.3845  0.5985 -1.3707
 3681TIP3    H232603   3.476   1.087   1.773 -2.1619 -0.1307 -1.3924
 3682TIP3   OH232604   5.648   6.565   0.914  0.0385 -0.2059 -0.2799
 3682TIP3    H132605   5.631   6.618   0.992 -0.6143 -0.4114 -0.2717
 3682TIP3    H232606   5.572   6.507   0.908 -1.3785  1.6991 -2.6570
 3683TIP3   OH232607   3.384   1.984   8.578 -0.3433  0.1741  0.2581
 3683TIP3    H132608   3.349   1.903   8.616 -0.0374 -0.2673 -0.4039
 3683TIP3    H232609   3.458   1.956   8.524  0.7048  1.0420  1.1849
 3684TIP3   OH232610   0.127   2.318   2.061 -0.3359 -0.1279 -0.3669
 3684TIP3    H132611   0.170   2.361   2.134 -1.2783 -0.4129  0.3834
 3684TIP3    H232612   0.038   2.352   2.061 -0.3804 -0.1979 -1.3370
 3685TIP3   OH232613   4.037   6.157   2.429 -0.3077 -0.0120 -0.2066
 3685TIP3    H132614   4.049   6.141   2.523 -0.2515 -0.3819 -0.2733
 3685TIP3    H232615   3.995   6.077   2.397 -0.8324  0.3403 -0.3961
 3686TIP3   OH232616   2.222   6.571   8.241 -0.0086 -0.4774 -0.8763
 3686TIP3    H132617   2.243   6.483   8.210  2.1922  0.9167 -3.7670
 3686TIP3    H232618   2.175   6.612   8.169 -0.3915  0.9532  0.1320
 3687TIP3   OH232619   2.549   0.143   0.098 -0.0054  0.5823  0.1657
 3687TIP3    H132620   2.489   0.084   0.053  0.9656 -0.9138  0.7246
 3687TIP3    H232621   2.493   0.206   0.143 -1.2173 -1.2464  1.3396
 3688TIP3   OH232622   3.671   3.813   1.638  0.3441  0.0479  0.3035
 3688TIP3    H132623   3.618   3.771   1.570 -0.5270 -0.0357  1.0143
 3688TIP3    H232624   3.755   3.830   1.595 -0.9381  2.2492 -1.5921
 3689TIP3   OH232625   0.928   0.227   0.869 -0.3658 -0.0835 -0.0378
 3689TIP3    H132626   0.924   0.281   0.948 -0.3438 -1.7027  1.1300
 3689TIP3    H232627   0.840   0.235   0.831  0.5589  3.3345 -1.7755
 3690TIP3   OH232628   5.563   2.566   1.831 -0.0696 -0.6761 -0.1810
 3690TIP3    H132629   5.612   2.646   1.810  0.7021 -0.9441  0.5649
 3690TIP3    H232630   5.476   2.581   1.793  0.6994 -0.3873 -1.9124
 3691TIP3   OH232631   5.126   3.916   0.930 -0.0557  0.1628  0.2349
 3691TIP3    H132632   5.193   3.983   0.943  0.3768 -0.3170  0.4871
 3691TIP3    H232633   5.105   3.886   1.018  0.3601 -0.6317  0.0649
 3692TIP3   OH232634   6.197   3.937   7.172  0.1755  0.0656  0.3010
 3692TIP3    H132635   6.103   3.944   7.151 -0.0914 -0.8489  1.1020
 3692TIP3    H232636   6.216   4.015   7.223  0.7122  2.0649 -2.6770
 3693TIP3   OH232637   1.335   3.298   0.971  0.1922 -0.0722  0.1434
 3693TIP3    H132638   1.337   3.394   0.977 -0.0098 -0.0073 -0.7961
 3693TIP3    H232639   1.359   3.279   0.881  0.3568 -0.9206  0.3593
 3694TIP3   OH232640   4.474   6.743   7.618 -0.1540  0.7795 -0.1099
 3694TIP3    H132641   4.495   6.788   7.536  0.8239 -0.1999 -0.4160
 3694TIP3    H232642   4.392   6.697   7.599  1.1314 -1.1667 -1.2805
 3695TIP3   OH232643   4.873   3.066   0.355  0.1319  0.3478  0.1849
 3695TIP3    H132644   4.964   3.049   0.377  0.0748 -0.0051  0.1614
 3695TIP3    H232645   4.864   3.161   0.357  0.2002  0.3397  1.3893
 3696TIP3   OH232646   1.655   4.146   0.252 -0.1476 -0.4675  0.1906
 3696TIP3    H132647   1.601   4.076   0.289 -0.7846 -0.9952 -1.5990
 3696TIP3    H232648   1.739   4.104   0.234 -0.1006 -0.4338  0.3401
 3697TIP3   OH232649   1.099   3.379   1.654 -0.0962 -0.0974 -0.4932
 3697TIP3    H132650   1.079   3.405   1.564 -2.1142 -0.6745 -0.2749
 3697TIP3    H232651   1.183   3.420   1.673 -0.0064  0.6975 -2.3654
 3698TIP3   OH232652   5.593   3.980   8.719 -0.1604  0.1139  0.2477
 3698TIP3    H132653   5.613   3.891   8.746 -1.6169  0.1771  1.6894
 3698TIP3    H232654   5.628   3.987   8.630  0.7355 -1.5995  0.4299
 3699TIP3   OH232655   2.850   3.582   8.105 -0.3628  0.0301  1.0380
 3699TIP3    H132656   2.871   3.528   8.029  0.6848  1.3873  0.3132
 3699TIP3    H232657   2.927   3.638   8.116 -1.7088  1.9031  1.2719
 3700TIP3   OH232658   6.490   6.117   1.026  0.1849  0.4853 -0.1645
 3700TIP3    H132659   6.507   6.094   0.935 -0.3432  1.9951 -0.6727
 3700TIP3    H232660   6.395   6.107   1.036  0.4648 -1.8075  0.8838
 3701TIP3   OH232661   6.375   6.596   1.663  0.4110 -0.2465 -0.0289
 3701TIP3    H132662   6.342   6.567   1.748  1.3938 -1.8485 -0.1603
 3701TIP3    H232663   6.306   6.653   1.629  0.1701  0.7618  1.9977
 3702TIP3   OH232664   1.083   0.993   1.779 -0.6995  0.0952  0.1504
 3702TIP3    H132665   1.126   1.042   1.709  1.2173 -1.2206  0.3259
 3702TIP3    H232666   1.016   1.052   1.813 -0.2821  1.5305 -1.4116
 3703TIP3   OH232667   6.132   3.903   2.139 -0.3288  0.1601 -0.2823
 3703TIP3    H132668   6.070   3.941   2.201  0.0148  1.2533 -0.5789
 3703TIP3    H232669   6.188   3.977   2.113  1.6810 -0.9410  0.6478
 3704TIP3   OH232670   0.285   2.245   0.865  0.0499 -0.4460 -0.3825
 3704TIP3    H132671   0.211   2.187   0.884 -0.4879  0.5183  0.5502
 3704TIP3    H232672   0.291   2.302   0.941  2.3327 -1.0639 -0.0217
 3705TIP3   OH232673   6.818   5.675   2.848  0.5749  0.0362 -0.1449
 3705TIP3    H132674   6.820   5.584   2.815 -1.8626  0.9769 -3.5293
 3705TIP3    H232675   6.730   5.685   2.884  0.9173  1.0041  0.4597
 3706TIP3   OH232676   4.796   6.452   1.708  0.5287 -0.3028 -0.2336
 3706TIP3    H132677   4.831   6.370   1.673  1.7908  0.1363 -0.0432
 3706TIP3    H232678   4.745   6.489   1.636  0.5770 -0.8919 -0.5756
 3707TIP3   OH232679   4.505   1.460   2.024 -0.0852 -0.2045 -0.0336
 3707TIP3    H132680   4.474   1.498   1.942  0.7750 -0.8813 -0.6927
 3707TIP3    H232681   4.426   1.424   2.065 -0.3683 -0.8627 -1.1183
 3708TIP3   OH232682   6.338   1.907   8.543 -0.0531 -0.5511  0.2284
 3708TIP3    H132683   6.292   1.988   8.566  0.9340  0.2557 -0.5577
 3708TIP3    H232684   6.354   1.914   8.449 -1.0815 -2.2693 -0.1101
 3709TIP3   OH232685   1.485   5.379   1.594 -0.0322  0.0257 -0.4097
 3709TIP3    H132686   1.518   5.466   1.572 -0.5269  0.8515  1.7857
 3709TIP3    H232687   1.412   5.365   1.534 -0.6661  1.6566 -0.0719
 3710TIP3   OH232688   1.038   1.602   1.362  0.0414  0.6222 -0.1971
 3710TIP3    H132689   1.038   1.513   1.398 -0.6639  0.7565  0.1392
 3710TIP3    H232690   0.950   1.614   1.327  0.8639  0.2640 -2.5901
 3711TIP3   OH232691   5.928   5.329   1.444 -0.2824 -0.0376 -0.1239
 3711TIP3    H132692   5.835   5.310   1.433 -0.1989 -0.4714 -0.0929
 3711TIP3    H232693   5.973   5.249   1.417  0.0142 -0.3416  1.1971
 3712TIP3   OH232694   6.353   3.055   8.125  0.3356 -0.1745 -0.8067
 3712TIP3    H132695   6.365   3.088   8.214 -0.1414 -0.1777 -0.7437
 3712TIP3    H232696   6.379   3.128   8.069  2.1214 -0.6535 -0.6946
 3713TIP3   OH232697   5.714   2.792   1.697 -0.0838  0.4283  0.0608
 3713TIP3    H132698   5.704   2.886   1.681 -0.0735  0.5211  0.5618
 3713TIP3    H232699   5.748   2.757   1.615  2.8636  1.3557  0.7345
 3714TIP3   OH232700   1.435   2.674   7.510  0.1509 -0.3338 -0.0061
 3714TIP3    H132701   1.424   2.611   7.438 -0.5771  0.1059 -0.2877
 3714TIP3    H232702   1.406   2.626   7.588 -0.2546 -0.3974 -0.1960
 3715TIP3   OH232703   1.966   5.302   2.279  0.0282 -0.1027  0.4312
 3715TIP3    H132704   2.043   5.339   2.320 -2.2021  2.2477  2.9338
 3715TIP3    H232705   1.947   5.360   2.205  0.5176 -0.5851 -0.0838
 3716TIP3   OH232706   0.174   1.597   7.357  0.5821 -0.5326 -0.1518
 3716TIP3    H132707   0.215   1.662   7.415  1.0862  0.1621 -1.2520
 3716TIP3    H232708   0.175   1.638   7.270  1.0574 -2.0694 -0.9197
 3717TIP3   OH232709   4.957   5.137   7.212 -0.2503  0.4476 -0.2572
 3717TIP3    H132710   4.883   5.126   7.151 -1.7520  0.3765  1.4920
 3717TIP3    H232711   4.988   5.226   7.196 -2.4174  1.4598  0.6773
 3718TIP3   OH232712   2.724   4.531   1.022  0.7986 -0.2648 -0.8733
 3718TIP3    H132713   2.712   4.546   0.928  0.3040  0.3577 -0.7200
 3718TIP3    H232714   2.754   4.440   1.028  2.4932  0.1984 -1.7348
 3719TIP3   OH232715   3.716   5.297   2.662  0.3089 -0.1126  0.2999
 3719TIP3    H132716   3.772   5.352   2.717 -0.2574  0.6977  0.0922
 3719TIP3    H232717   3.629   5.306   2.701 -0.3136  1.3382 -1.3276
 3720TIP3   OH232718   2.408   1.267   2.043  0.6452  0.4413 -0.3179
 3720TIP3    H132719   2.384   1.308   1.960 -1.5518  0.4329  0.2660
 3720TIP3    H232720   2.493   1.227   2.025  0.2550  0.4533 -2.5486
 3721TIP3   OH232721   1.956   2.448   0.138 -0.0570  0.3555 -0.2792
 3721TIP3    H132722   1.955   2.368   0.192  0.6193  1.3761  1.3383
 3721TIP3    H232723   1.990   2.515   0.197 -0.0169  1.7138 -1.7963
 3722TIP3   OH232724   5.772   1.559   8.615  0.0736 -0.9688 -0.1994
 3722TIP3    H132725   5.830   1.626   8.578  0.5897 -1.9884 -1.3080
 3722TIP3    H232726   5.831   1.490   8.645 -0.2520  0.0612  3.2694
 3723TIP3   OH232727   5.793   0.528   0.981  0.3186  0.0426 -0.8309
 3723TIP3    H132728   5.873   0.521   1.032 -0.2807 -1.3228 -0.0288
 3723TIP3    H232729   5.739   0.591   1.028  0.7277  0.6422 -1.1441
 3724TIP3   OH232730   0.654   4.344   2.930  0.3521  0.8375 -0.3157
 3724TIP3    H132731   0.613   4.392   2.858 -1.8782  1.4264  1.2613
 3724TIP3    H232732   0.650   4.404   3.004  1.4364 -0.2305  0.6379
 3725TIP3   OH232733   1.844   1.424   2.061 -0.0855 -0.3604  0.0346
 3725TIP3    H132734   1.784   1.498   2.054 -0.0917 -0.4307 -0.6988
 3725TIP3    H232735   1.852   1.409   2.155 -0.4074  0.3069  0.1756
 3726TIP3   OH232736   5.996   4.628   2.296  0.2144  0.5765  0.5961
 3726TIP3    H132737   5.956   4.545   2.268  0.5518  0.4554  0.4708
 3726TIP3    H232738   5.977   4.634   2.389 -1.0309  1.0401  0.3350
 3727TIP3   OH232739   6.810   2.768   1.871  0.1909  0.0782 -0.0565
 3727TIP3    H132740   6.825   2.829   1.944 -0.6758  1.4584 -0.9931
 3727TIP3    H232741   6.756   2.698   1.909 -0.1637  0.7238  0.6638
 3728TIP3   OH232742   3.644   4.369   8.544 -0.1854 -0.1247  0.4105
 3728TIP3    H132743   3.683   4.283   8.562  0.8521  0.2755  0.1763
 3728TIP3    H232744   3.706   4.411   8.485 -0.6747  0.7909  0.5294
 3729TIP3   OH232745   6.461   0.066   2.600 -0.2663 -0.8078 -0.1938
 3729TIP3    H132746   6.461   0.156   2.565 -1.5731 -1.2180 -1.3467
 3729TIP3    H232747   6.468   0.077   2.695  0.6755  0.4600 -0.3812
 3730TIP3   OH232748   3.068   1.133   3.035 -0.2037 -0.5662  0.4893
 3730TIP3    H132749   2.983   1.161   3.002  1.0092  0.1876 -2.3547
 3730TIP3    H232750   3.094   1.201   3.097 -1.1332 -0.1256  0.4043
 3731TIP3   OH232751   1.897   5.490   7.861  0.0009 -0.1386  0.6476
 3731TIP3    H132752   1.989   5.464   7.849 -0.7618 -2.1113 -1.7708
 3731TIP3    H232753   1.861   5.426   7.922 -0.1494 -0.3391  0.3489
 3732TIP3   OH232754   3.953   3.526   8.128  0.6746  0.0788 -0.3005
 3732TIP3    H132755   4.001   3.578   8.064  0.6832 -0.4819 -0.7609
 3732TIP3    H232756   3.963   3.436   8.097 -0.1173 -0.1064 -0.0358
 3733TIP3   OH232757   0.973   0.503   7.725  0.0294  0.0238 -0.0162
 3733TIP3    H132758   0.938   0.523   7.638 -1.5683  0.2183  0.6527
 3733TIP3    H232759   0.906   0.450   7.767  0.4317  0.5877  1.3916
 3734TIP3   OH232760   0.457   5.560   1.654 -0.1793 -0.2529  0.0848
 3734TIP3    H132761   0.491   5.472   1.641  0.5776 -0.2444  1.7573
 3734TIP3    H232762   0.525   5.618   1.619 -0.5920 -0.3196 -0.8410
 3735TIP3   OH232763   1.818   6.645   7.818 -0.2010 -0.2634  0.6072
 3735TIP3    H132764   1.734   6.643   7.773  0.2341 -0.1750 -0.2317
 3735TIP3    H232765   1.805   6.592   7.896 -0.2331 -2.6418 -0.9253
 3736TIP3   OH232766   2.871   3.679   0.466 -0.1844 -0.0533  0.1175
 3736TIP3    H132767   2.871   3.583   0.473 -0.5739 -0.0210  0.7285
 3736TIP3    H232768   2.778   3.703   0.468 -0.1055  0.3172 -0.4308
 3737TIP3   OH232769   5.317   5.254   1.467 -0.3943 -0.1987 -0.0026
 3737TIP3    H132770   5.329   5.170   1.422  1.5339 -0.1213  0.2792
 3737TIP3    H232771   5.285   5.231   1.554  0.3805 -0.6780  0.1645
 3738TIP3   OH232772   5.337   5.038   0.803 -0.0180  0.2121  0.3772
 3738TIP3    H132773   5.258   4.984   0.806  0.1310 -0.0480 -0.1857
 3738TIP3    H232774   5.370   5.027   0.714  0.4004  0.6834  0.4683
 3739TIP3   OH232775   6.493   5.767   8.741  0.1948 -0.3806  0.1849
 3739TIP3    H132776   6.589   5.772   8.745  0.5321 -2.5935 -2.2822
 3739TIP3    H232777   6.466   5.847   8.696  0.8388  0.3136  1.0015
 3740TIP3   OH232778   6.800   5.244   3.057 -0.1074 -0.7414 -0.1649
 3740TIP3    H132779   6.727   5.201   3.101 -0.6582  0.3454  0.0152
 3740TIP3    H232780   6.875   5.187   3.074 -1.0773 -2.3851 -1.1646
 3741TIP3   OH232781   0.022   6.450   0.629 -0.0888 -0.0148  0.1571
 3741TIP3    H132782   0.117   6.444   0.625 -0.0364 -0.3275  1.3042
 3741TIP3    H232783  -0.008   6.361   0.611 -0.1030 -0.1345  0.7288
 3742TIP3   OH232784   2.988   4.594   0.755 -0.7670  0.4214 -0.1729
 3742TIP3    H132785   2.949   4.673   0.793  1.3590  0.2428  2.7497
 3742TIP3    H232786   3.064   4.626   0.707  0.5347  0.1919  1.6441
 3743TIP3   OH232787   5.412   4.875   8.190  0.0717 -0.4703 -0.0141
 3743TIP3    H132788   5.482   4.819   8.154  1.1392  1.4609 -1.1306
 3743TIP3    H232789   5.387   4.931   8.116 -1.9848 -0.4428  0.6681
 3744TIP3   OH232790   5.984   0.943   0.215 -0.4138  0.0519  0.6707
 3744TIP3    H132791   5.949   0.919   0.129 -0.5257  0.5548  0.5714
 3744TIP3    H232792   6.041   1.018   0.197  0.8681 -0.8643  0.8014
 3745TIP3   OH232793   0.105   0.646   8.547  0.3991  0.4015  0.3885
 3745TIP3    H132794   0.045   0.582   8.510 -0.0652 -0.1111  1.9458
 3745TIP3    H232795   0.191   0.622   8.512  0.0596 -0.3401  0.0383
 3746TIP3   OH232796   2.233   0.927   0.335 -0.3631 -0.1645 -0.0970
 3746TIP3    H132797   2.171   0.968   0.275  1.5712  1.4364 -1.1545
 3746TIP3    H232798   2.198   0.840   0.351 -2.5668  0.4937 -1.0415
 3747TIP3   OH232799   0.627   1.559   1.888  0.4107 -0.3368 -0.3016
 3747TIP3    H132800   0.688   1.567   1.815  1.5233  1.5843  0.7910
 3747TIP3    H232801   0.682   1.560   1.966 -0.8070 -1.7344  0.6359
 3748TIP3   OH232802   0.349   2.825   0.572 -0.5757  0.0405 -0.5653
 3748TIP3    H132803   0.341   2.838   0.667 -1.9618 -0.2715 -0.6114
 3748TIP3    H232804   0.326   2.733   0.559 -0.0840  0.0034 -1.1735
 3749TIP3   OH232805   4.634   6.475   8.445 -0.6890  0.2952  0.3261
 3749TIP3    H132806   4.633   6.533   8.521 -1.8141  0.0956  0.4829
 3749TIP3    H232807   4.721   6.487   8.406 -1.1174  2.6134 -0.0612
 3750TIP3   OH232808   5.361   2.958   0.531  0.0050  0.4178 -0.0632
 3750TIP3    H132809   5.419   2.997   0.596 -0.0818  0.4644 -0.0135
 3750TIP3    H232810   5.412   2.888   0.492 -0.0136  0.2575  0.1990
 3751TIP3   OH232811   5.499   4.867   8.447  0.0768 -0.4349  0.2162
 3751TIP3    H132812   5.467   4.862   8.357 -0.1604 -0.3822  0.2970
 3751TIP3    H232813   5.560   4.941   8.447  1.0747 -1.2267 -0.2082
 3752TIP3   OH232814   4.005   6.276   2.994  0.2704 -0.2389 -0.4172
 3752TIP3    H132815   4.098   6.253   2.996  0.3344  0.0766  0.2977
 3752TIP3    H232816   4.003   6.370   3.013 -0.1581 -0.1245 -0.9958
 3753TIP3   OH232817   4.615   5.454   0.890 -0.4148 -0.6076 -0.6148
 3753TIP3    H132818   4.680   5.385   0.897  1.9922  1.5429 -0.4401
 3753TIP3    H232819   4.589   5.473   0.980  0.6237  0.1900 -0.4660
 3754TIP3   OH232820   6.565   4.758   1.973  0.3865 -0.1173  0.4958
 3754TIP3    H132821   6.558   4.821   2.044 -2.4043 -2.9757  3.0336
 3754TIP3    H232822   6.477   4.752   1.937  0.5478 -2.4725  0.3374
 3755TIP3   OH232823   5.086   2.112   8.250 -0.2151  0.0995  0.4838
 3755TIP3    H132824   5.139   2.186   8.219  0.0092 -0.9037 -1.6893
 3755TIP3    H232825   5.028   2.090   8.177  0.1765 -2.2774  0.7854
 3756TIP3   OH232826   1.326   5.931   8.161 -0.1452  0.2277  0.3849
 3756TIP3    H132827   1.267   6.004   8.180  0.2563  0.5947  0.2460
 3756TIP3    H232828   1.330   5.928   8.065  2.1685  1.9643  0.3588
 3757TIP3   OH232829   4.266   3.859   1.596 -0.2744  0.7229  0.2013
 3757TIP3    H132830   4.199   3.863   1.528 -0.3358 -0.6923  0.1634
 3757TIP3    H232831   4.223   3.819   1.671  0.5405 -0.2885  0.1441
 3758TIP3   OH232832   2.187   5.866   1.019 -0.4401  0.0748  0.7147
 3758TIP3    H132833   2.118   5.881   0.955 -0.8574 -0.2576  1.0831
 3758TIP3    H232834   2.231   5.787   0.987 -1.6985 -1.0671  1.7175
 3759TIP3   OH232835   6.081   1.479   0.856  0.5100 -0.0606 -0.1905
 3759TIP3    H132836   6.029   1.556   0.880  0.5311 -0.1665  0.2119
 3759TIP3    H232837   6.080   1.425   0.935  1.2334 -0.0612 -0.1708
 3760TIP3   OH232838   3.626   5.029   1.646 -0.4426  0.3244 -0.7316
 3760TIP3    H132839   3.578   4.975   1.709  2.2967 -0.6492  0.6563
 3760TIP3    H232840   3.647   4.969   1.574  1.0097 -0.0106 -0.0501
 3761TIP3   OH232841   6.146   3.779   8.002 -0.1384 -0.0419 -0.6355
 3761TIP3    H132842   6.064   3.762   7.955 -0.1733  0.2945 -0.7005
 3761TIP3    H232843   6.139   3.727   8.082  0.5349 -1.7784 -1.6449
 3762TIP3   OH232844   4.052   3.007   8.178 -0.5497  0.0408 -0.1538
 3762TIP3    H132845   4.091   2.922   8.199  0.1914  0.8198  1.9276
 3762TIP3    H232846   4.071   3.062   8.254 -0.9486  2.1128 -1.4472
 3763TIP3   OH232847   6.427   2.933   1.578 -0.4780  0.1381 -0.0648
 3763TIP3    H132848   6.495   2.867   1.593 -1.9466 -1.0423  1.9832
 3763TIP3    H232849   6.471   3.017   1.593  0.7532 -0.5464  0.2921
 3764TIP3   OH232850   5.470   2.784   1.484 -0.3692  0.0342  0.0526
 3764TIP3    H132851   5.547   2.749   1.440 -1.5365  0.6566 -2.7450
 3764TIP3    H232852   5.503   2.856   1.538  1.0348  0.4633 -1.2963
 3765TIP3   OH232853   0.518   4.755   2.486  0.0155  0.0390 -0.3708
 3765TIP3    H132854   0.505   4.667   2.450  1.4981 -0.3514 -0.0041
 3765TIP3    H232855   0.516   4.742   2.580 -0.4814  0.5279 -0.3125
 3766TIP3   OH232856   6.260   6.580   8.033 -0.4897  0.2014  0.4131
 3766TIP3    H132857   6.174   6.622   8.030 -0.3485  0.4571 -1.3101
 3766TIP3    H232858   6.307   6.617   7.959  0.9461 -0.3105  1.0289
 3767TIP3   OH232859   4.890   6.694   1.819  0.4331  0.3018 -0.0131
 3767TIP3    H132860   4.864   6.757   1.753 -2.5927 -0.1572  0.5752
 3767TIP3    H232861   4.859   6.609   1.785  0.3143 -0.1723  1.2160
 3768TIP3   OH232862   3.814   0.007   0.141 -0.4726 -0.3536  0.0870
 3768TIP3    H132863   3.881   0.070   0.169 -0.5708  0.3927 -1.2352
 3768TIP3    H232864   3.863  -0.072   0.121  0.0027  0.0919 -0.5789
 3769TIP3   OH232865   4.127   2.064   1.583  0.1087 -0.1152  0.3554
 3769TIP3    H132866   4.057   2.109   1.537 -0.3719 -3.0126 -2.0268
 3769TIP3    H232867   4.184   2.030   1.514  2.4381 -0.0967  2.1388
 3770TIP3   OH232868   3.717   1.022   0.960  0.5431 -0.0118 -0.4674
 3770TIP3    H132869   3.671   1.061   0.886 -1.9764 -2.6461 -0.4958
 3770TIP3    H232870   3.724   1.093   1.024 -0.9801  1.2767 -1.6338
 3771TIP3   OH232871   0.219   1.367   0.535  0.2678  0.1598 -0.6446
 3771TIP3    H132872   0.149   1.332   0.479 -1.3328  1.3541  0.4980
 3771TIP3    H232873   0.172   1.406   0.609  2.0838  2.1474 -0.4591
 3772TIP3   OH232874   6.339   3.171   8.383  0.1281  0.0481 -0.2489
 3772TIP3    H132875   6.346   3.119   8.463 -0.4763 -0.4918 -0.5407
 3772TIP3    H232876   6.406   3.240   8.393 -0.0218  0.0564  0.7600
 3773TIP3   OH232877   3.214   1.503   1.394 -0.2398  0.0497 -0.0350
 3773TIP3    H132878   3.161   1.516   1.473  1.4773 -2.0661  1.5882
 3773TIP3    H232879   3.304   1.521   1.422  0.6218 -2.4623 -0.9579
 3774TIP3   OH232880   1.662   2.326   1.217  0.1702 -0.3119 -0.7065
 3774TIP3    H132881   1.691   2.254   1.160 -1.5501 -0.4702 -1.4214
 3774TIP3    H232882   1.603   2.378   1.163 -0.6643  0.1556  0.6131
 3775TIP3   OH232883   4.353   1.309   0.000  0.1104  0.5699  0.2379
 3775TIP3    H132884   4.364   1.251  -0.076 -1.6700 -0.8623  0.9942
 3775TIP3    H232885   4.376   1.254   0.075 -0.7404  1.1110  0.9091
 3776TIP3   OH232886   4.774   3.740   0.904 -0.5931  0.6870 -0.4502
 3776TIP3    H132887   4.869   3.754   0.909 -0.6878  1.4715 -0.8371
 3776TIP3    H232888   4.739   3.785   0.981 -0.4900 -1.2594  0.8079
 3777TIP3   OH232889   3.822   5.772   8.504  0.2613 -0.4650  0.5737
 3777TIP3    H132890   3.869   5.789   8.585  0.4329 -0.4176  0.4661
 3777TIP3    H232891   3.762   5.701   8.525  2.3116 -2.4934  0.0296
 3778TIP3   OH232892   3.759   6.133   8.281  0.2482 -0.6547  0.7118
 3778TIP3    H132893   3.673   6.103   8.253  0.2741 -0.2592  0.1966
 3778TIP3    H232894   3.748   6.157   8.373 -0.2996 -0.2032  0.5352
 3779TIP3   OH232895   5.789   1.515   2.585  0.7360  0.3860 -0.0083
 3779TIP3    H132896   5.792   1.444   2.649  1.3940 -0.7896 -1.2827
 3779TIP3    H232897   5.843   1.584   2.623 -0.3307  0.4476  1.4909
 3780TIP3   OH232898   2.563   6.305   2.499 -0.1562 -0.4046  0.3494
 3780TIP3    H132899   2.622   6.379   2.515 -0.3962 -0.1471  0.0499
 3780TIP3    H232900   2.582   6.277   2.410 -1.1231  0.2693 -0.0825
 3781TIP3   OH232901   1.119   6.061   0.942  0.3378  0.1530 -0.2374
 3781TIP3    H132902   1.155   6.122   0.877  0.2476 -1.0076 -1.4102
 3781TIP3    H232903   1.024   6.075   0.938  0.3338  0.0963 -0.3480
 3782TIP3   OH232904   2.420   2.924   1.009  0.2679  0.5890 -0.5738
 3782TIP3    H132905   2.513   2.914   0.990  0.0877 -2.7305 -0.3387
 3782TIP3    H232906   2.417   2.954   1.100  1.3950 -4.5512  1.5351
 3783TIP3   OH232907   6.326   5.239   1.275  0.6978 -0.5484 -0.3744
 3783TIP3    H132908   6.411   5.198   1.293  1.9886  1.4248 -1.5434
 3783TIP3    H232909   6.311   5.221   1.182 -0.9929 -2.2225  0.1729
 3784TIP3   OH232910   4.016   0.104   8.199 -0.5009  0.3922  0.2916
 3784TIP3    H132911   4.011   0.097   8.294  1.4704  1.7841  0.5523
 3784TIP3    H232912   4.085   0.042   8.174  0.1758  1.2616 -0.0247
 3785TIP3   OH232913   1.613   4.548   7.995  0.3397  0.0617  0.1332
 3785TIP3    H132914   1.625   4.474   8.054  0.3068 -0.2936 -0.2999
 3785TIP3    H232915   1.612   4.625   8.052  0.1960 -0.2858  0.6028
 3786TIP3   OH232916   3.780   4.093   1.484  0.4838  0.0135 -0.0153
 3786TIP3    H132917   3.825   4.010   1.466  0.9621  0.0318  1.0601
 3786TIP3    H232918   3.765   4.092   1.578 -2.0241 -0.1169 -0.3464
 3787TIP3   OH232919   0.785   3.861   1.145 -0.1533 -0.1604  0.1251
 3787TIP3    H132920   0.725   3.872   1.071 -0.2952  0.2575  0.2973
 3787TIP3    H232921   0.732   3.885   1.221  0.5427  1.3031  0.1863
 3788TIP3   OH232922   0.605   3.881   7.167 -0.3657  0.1725  0.0606
 3788TIP3    H132923   0.674   3.946   7.156 -0.3475  0.0094 -0.9008
 3788TIP3    H232924   0.562   3.905   7.248 -0.3355  1.3616 -0.2632
 3789TIP3   OH232925   6.378   6.103   7.898  0.2719  0.0984 -0.6446
 3789TIP3    H132926   6.431   6.061   7.831 -1.1198 -0.6560 -1.3360
 3789TIP3    H232927   6.382   6.196   7.877  0.6028 -0.0398 -1.2250
 3790TIP3   OH232928   3.282   4.860   0.200 -0.2072 -0.2475 -0.2949
 3790TIP3    H132929   3.367   4.825   0.226  0.1837  0.1276 -1.0258
 3790TIP3    H232930   3.303   4.929   0.137 -1.0558 -0.1862 -0.5206
 3791TIP3   OH232931   4.457   0.717   8.610  0.1697 -1.0333 -0.0089
 3791TIP3    H132932   4.416   0.631   8.615  0.4704 -1.2278 -0.7607
 3791TIP3    H232933   4.438   0.748   8.522  0.2337 -0.4143  0.1910
 3792TIP3   OH232934   6.427   0.562   1.669  0.5703  0.1199 -0.2976
 3792TIP3    H132935   6.399   0.486   1.619 -1.2478  1.3984 -1.2930
 3792TIP3    H232936   6.365   0.631   1.646  0.4183  1.1374  2.7428
 3793TIP3   OH232937   5.683   5.345   0.736 -0.1047 -0.1643 -0.0596
 3793TIP3    H132938   5.749   5.399   0.692 -1.9228  0.4236 -2.1965
 3793TIP3    H232939   5.606   5.350   0.680 -2.4733  0.2814  3.0063
 3794TIP3   OH232940   1.895   6.681   0.082 -0.0305  0.2315 -0.2418
 3794TIP3    H132941   1.883   6.773   0.105 -0.5572  0.3098 -0.7968
 3794TIP3    H232942   1.816   6.638   0.113 -0.4069  0.2099 -1.2042
 3795TIP3   OH232943   4.089   3.073   1.730  0.3030 -0.4672 -0.0701
 3795TIP3    H132944   4.077   3.147   1.790 -0.9839 -0.3969 -0.3789
 3795TIP3    H232945   4.005   3.027   1.731  0.5914 -1.0506 -1.0391
 3796TIP3   OH232946   2.193   5.998   8.667  0.0732 -0.4886 -0.5266
 3796TIP3    H132947   2.249   5.977   8.591  3.7759 -0.4701  1.9183
 3796TIP3    H232948   2.203   5.923   8.725 -1.8103 -0.0488  0.4255
 3797TIP3   OH232949   0.528   0.274   7.938 -0.0350 -0.3290  0.3240
 3797TIP3    H132950   0.585   0.202   7.909  0.7100  0.5495 -0.4705
 3797TIP3    H232951   0.455   0.231   7.981  0.4806 -1.5604  0.0130
 3798TIP3   OH232952   0.291   2.534   7.468 -0.4945 -0.7253  0.8276
 3798TIP3    H132953   0.269   2.509   7.558 -1.4265 -1.3710  0.4436
 3798TIP3    H232954   0.252   2.465   7.414 -1.6746  0.6613 -0.1782
 3799TIP3   OH232955   6.684   4.881   2.313 -0.6161 -0.5036 -0.0594
 3799TIP3    H132956   6.727   4.965   2.295  0.1547 -1.0566 -0.8354
 3799TIP3    H232957   6.651   4.890   2.402  0.7904  0.0747  0.4332
 3800TIP3   OH232958   4.775   5.085   1.125  0.0530 -0.0313  1.0589
 3800TIP3    H132959   4.721   5.006   1.127  1.2291 -0.9112 -0.3188
 3800TIP3    H232960   4.864   5.054   1.142  0.6333  0.8926 -0.1979
 3801TIP3   OH232961   5.375   0.244   0.307  0.4052  0.4085 -0.3129
 3801TIP3    H132962   5.398   0.319   0.362 -1.8304  2.6263 -2.1039
 3801TIP3    H232963   5.397   0.273   0.218  0.0724 -1.3329 -1.0022
 3802TIP3   OH232964   4.841   1.621   1.238  0.4651 -0.5185  0.2852
 3802TIP3    H132965   4.935   1.638   1.225  0.1376  2.1481  0.8344
 3802TIP3    H232966   4.834   1.526   1.242  3.0644 -0.8070 -0.3690
 3803TIP3   OH232967   4.504   5.973   0.356  0.3456 -0.1787 -0.4795
 3803TIP3    H132968   4.584   6.019   0.334  0.1298  0.9364  0.9256
 3803TIP3    H232969   4.434   6.027   0.319  0.0518  1.0793  1.7248
 3804TIP3   OH232970   3.254   5.634   2.413 -0.0736  0.4030  0.0503
 3804TIP3    H132971   3.219   5.709   2.364 -1.9590 -0.2175  0.3477
 3804TIP3    H232972   3.209   5.638   2.497  1.8390  0.4684  1.1206
 3805TIP3   OH232973   5.718   6.714   1.731  0.0091 -0.0096 -0.5376
 3805TIP3    H132974   5.732   6.623   1.757 -0.9233 -0.4607 -1.5205
 3805TIP3    H232975   5.625   6.729   1.747  0.6452  1.7115  2.3221
 3806TIP3   OH232976   4.740   6.608   3.617  0.8653 -0.1140 -0.1481
 3806TIP3    H132977   4.798   6.662   3.564  1.0551 -0.0791  0.0950
 3806TIP3    H232978   4.750   6.520   3.580  3.2045 -0.6823  1.6082
 3807TIP3   OH232979   0.995   5.382   0.684  0.1695 -0.1889 -0.3485
 3807TIP3    H132980   0.997   5.287   0.670  1.7291 -0.4838  1.4336
 3807TIP3    H232981   0.965   5.418   0.601  0.2644 -2.2046 -1.3139
 3808TIP3   OH232982   4.318   1.027   1.644 -0.0438  0.6239 -0.1289
 3808TIP3    H132983   4.243   0.994   1.594 -0.2862  0.4952  0.3166
 3808TIP3    H232984   4.380   0.954   1.646  0.5334  1.0441 -1.3396
 3809TIP3   OH232985   4.427   6.797   2.487 -0.1696  0.2451 -0.4072
 3809TIP3    H132986   4.385   6.753   2.561 -0.0379 -0.5272 -0.7752
 3809TIP3    H232987   4.446   6.885   2.519  0.7126 -0.3436  0.8102
 3810TIP3   OH232988   4.047   2.725   2.453  0.4765  0.3581 -0.6614
 3810TIP3    H132989   4.065   2.812   2.488  0.0490 -0.0284  0.6093
 3810TIP3    H232990   4.113   2.669   2.495  0.0289 -0.1007 -0.5584
 3811TIP3   OH232991   0.383   5.191   2.917 -0.3551  0.0445 -0.1871
 3811TIP3    H132992   0.408   5.100   2.897 -1.3581 -0.5389  1.0406
 3811TIP3    H232993   0.309   5.182   2.976  0.0384  1.6738  0.5928
 3812TIP3   OH232994   4.433   1.899   2.395  0.6687 -0.0409  0.5350
 3812TIP3    H132995   4.361   1.945   2.438  1.2304  0.0365  1.4013
 3812TIP3    H232996   4.397   1.876   2.309 -1.2771 -2.1244  1.7702
 3813TIP3   OH232997   1.973   0.087   7.419 -0.2694  0.7789 -0.4830
 3813TIP3    H132998   1.938   0.018   7.363  0.0509 -0.1707  0.4554
 3813TIP3    H232999   1.932   0.168   7.386 -0.5944  0.1653 -1.6406
 3814TIP3   OH233000   2.794   1.046   2.677  0.1703 -0.1570  0.3166
 3814TIP3    H133001   2.847   1.000   2.742  1.3757 -1.5151 -1.5300
 3814TIP3    H233002   2.810   0.999   2.595 -1.0326  1.6809 -1.0500
 3815TIP3   OH233003   4.151   4.390   2.399 -0.5452  0.2724  0.0451
 3815TIP3    H133004   4.151   4.470   2.346 -1.7676  0.6934  0.6279
 3815TIP3    H233005   4.062   4.387   2.435 -0.3491 -1.0904  0.4312
 3816TIP3   OH233006   2.745   3.092   2.302  0.3447 -0.0680 -0.3507
 3816TIP3    H133007   2.796   3.115   2.225  0.2489 -0.5574 -0.5621
 3816TIP3    H233008   2.659   3.067   2.268 -0.3865  1.7246  0.0762
 3817TIP3   OH233009   0.727   3.927   7.539  0.0644 -0.5177 -0.7313
 3817TIP3    H133010   0.658   3.957   7.481 -0.2878 -0.4139 -0.2623
 3817TIP3    H233011   0.739   3.998   7.602 -1.1032 -1.5089  0.6775
 3818TIP3   OH233012   1.254   6.140   0.435 -0.2982 -0.2376 -0.0567
 3818TIP3    H133013   1.297   6.091   0.504  1.9240 -0.5679 -1.5847
 3818TIP3    H233014   1.258   6.231   0.464 -0.3405 -0.4756  0.7147
 3819TIP3   OH233015   5.028   0.105   8.357  0.2152  0.3506  0.0404
 3819TIP3    H133016   4.950   0.143   8.398  0.5943 -0.4029  1.5073
 3819TIP3    H233017   5.079   0.069   8.430  2.2667  1.3899 -0.7949
 3820TIP3   OH233018   5.949   0.542   7.972  0.1070  0.1272  0.2003
 3820TIP3    H133019   5.904   0.625   7.988  0.9728  0.8164 -0.8101
 3820TIP3    H233020   5.880   0.483   7.940 -0.4180  0.6038  0.4405
 3821TIP3   OH233021   5.886   6.259   0.974  0.3358 -0.8387  0.0146
 3821TIP3    H133022   5.887   6.201   1.049  1.4070 -0.0579  0.6207
 3821TIP3    H233023   5.903   6.346   1.010 -0.2520 -0.2775 -0.9947
 3822TIP3   OH233024   2.628   4.978   7.599 -0.4876 -0.0056 -0.1723
 3822TIP3    H133025   2.546   5.014   7.635 -1.2161 -0.7697 -1.0111
 3822TIP3    H233026   2.668   5.052   7.554 -0.7016  0.3863  0.2632
 3823TIP3   OH233027   2.054   2.607   2.252  0.2530  0.0603 -0.1493
 3823TIP3    H133028   1.960   2.627   2.247  0.3361  0.1089 -1.9396
 3823TIP3    H233029   2.089   2.638   2.169  2.1197  1.3002  1.0363
 3824TIP3   OH233030   1.005   4.841   0.204  0.1769  0.7926  0.3021
 3824TIP3    H133031   1.064   4.776   0.165  1.4890  1.6498  0.7656
 3824TIP3    H233032   0.965   4.796   0.278  0.7666  0.3697  0.3716
 3825TIP3   OH233033   4.461   6.523   0.041  0.2102 -0.2489  0.2619
 3825TIP3    H133034   4.477   6.472   0.120 -0.5329  0.2387  0.7450
 3825TIP3    H233035   4.547   6.557   0.016  0.5981 -1.1868  0.3118
 3826TIP3   OH233036   2.047   3.963   8.080  0.1950 -0.0661  0.1024
 3826TIP3    H133037   2.057   4.058   8.074 -1.1429  0.0456 -0.9991
 3826TIP3    H233038   2.125   3.927   8.038  0.4369  0.5595  0.0147
 3827TIP3   OH233039   3.639   0.267   7.093  0.1292 -0.0879  0.0434
 3827TIP3    H133040   3.576   0.197   7.113 -0.3582  0.5375  0.7836
 3827TIP3    H233041   3.681   0.286   7.177  1.0802 -0.2678 -0.3819
 3828TIP3   OH233042   0.644   6.709   2.492 -0.2109  0.1931 -0.5764
 3828TIP3    H133043   0.591   6.630   2.484 -0.2570  0.1768 -0.1460
 3828TIP3    H233044   0.660   6.718   2.586 -0.3212  0.7644 -0.6039
 3829TIP3   OH233045   0.386   5.969   1.608  0.0817  0.1348 -0.4597
 3829TIP3    H133046   0.371   5.980   1.514  0.7030  1.5267 -0.4336
 3829TIP3    H233047   0.310   6.009   1.649 -0.8979 -1.7694 -0.3496
 3830TIP3   OH233048   6.280   6.273   2.730  0.2402 -0.3301  0.3333
 3830TIP3    H133049   6.280   6.186   2.768  2.3610 -1.2916 -1.6076
 3830TIP3    H233050   6.342   6.323   2.783 -1.4034  0.2533  1.8016
 3831TIP3   OH233051   4.638   1.177   2.027  0.0631  0.5053 -0.2858
 3831TIP3    H133052   4.595   1.127   1.957 -1.8189 -0.0807  1.1959
 3831TIP3    H233053   4.598   1.264   2.023 -1.0697  0.0705  0.8605
 3832TIP3   OH233054   4.962   4.821   0.035 -0.2155 -0.3414 -0.6517
 3832TIP3    H133055   4.955   4.810  -0.060 -0.6693 -1.7659 -0.4657
 3832TIP3    H233056   4.878   4.791   0.069 -0.1270  0.3452  0.2009
 3833TIP3   OH233057   5.864   2.409   0.541  0.0876  0.2848  0.8603
 3833TIP3    H133058   5.956   2.383   0.540 -0.0844 -0.3504 -0.2887
 3833TIP3    H233059   5.817   2.331   0.512 -0.6341  1.2231 -0.5919
 3834TIP3   OH233060   1.757   1.874   0.760  0.5003  0.2102  0.4440
 3834TIP3    H133061   1.766   1.798   0.702  0.1019 -0.4734  1.2663
 3834TIP3    H233062   1.752   1.837   0.848  0.9520  1.2324  0.9179
 3835TIP3   OH233063   1.452   5.567   1.131  0.4118 -1.5484 -0.7988
 3835TIP3    H133064   1.394   5.577   1.207  1.5961  0.6343 -0.1037
 3835TIP3    H233065   1.393   5.543   1.059 -1.5184  1.1149 -0.2549
 3836TIP3   OH233066   1.365   0.708   1.262  0.4480 -0.0606  0.0711
 3836TIP3    H133067   1.306   0.704   1.336 -0.0127 -1.1814 -0.3408
 3836TIP3    H233068   1.437   0.649   1.284  0.7333  0.2461 -0.0198
 3837TIP3   OH233069   3.572   1.642   2.328 -0.0171  0.0151 -0.3598
 3837TIP3    H133070   3.646   1.667   2.273  0.6518 -1.0956  0.0033
 3837TIP3    H233071   3.501   1.700   2.301  0.8256  0.7283 -1.0955
 3838TIP3   OH233072   3.445   6.218   8.554  0.2534  0.3090  0.5193
 3838TIP3    H133073   3.491   6.142   8.518  0.0286  0.1782  0.5045
 3838TIP3    H233074   3.380   6.180   8.613 -1.8310  0.2948 -1.6279
 3839TIP3   OH233075   5.409   6.697   7.312 -0.0897 -0.0101  0.2542
 3839TIP3    H133076   5.315   6.689   7.326 -0.4197  0.8255 -1.2579
 3839TIP3    H233077   5.417   6.737   7.225  1.6589  0.2720  0.5107
 3840TIP3   OH233078   6.372   4.463   1.783  0.3975  0.3411 -0.0726
 3840TIP3    H133079   6.348   4.548   1.819  0.3371  0.1645  0.3081
 3840TIP3    H233080   6.389   4.408   1.859  1.0827  0.1927 -0.3203
 3841TIP3   OH233081   3.197   4.253   1.863 -0.4660  0.4290 -0.1468
 3841TIP3    H133082   3.148   4.195   1.805 -2.4554  1.1095  0.7726
 3841TIP3    H233083   3.202   4.336   1.816  2.9527 -0.5139 -1.7539
 3842TIP3   OH233084   6.338   4.750   8.631  0.3140 -0.1887 -0.2338
 3842TIP3    H133085   6.257   4.773   8.676  1.3670  1.2416  1.0400
 3842TIP3    H233086   6.370   4.673   8.679  0.0429 -0.3471 -0.3070
 3843TIP3   OH233087   3.231   3.031   7.832  0.4818  0.3593  0.0514
 3843TIP3    H133088   3.181   3.022   7.751 -0.0616  0.8076  0.3330
 3843TIP3    H233089   3.171   3.073   7.894  0.1513 -1.9169  1.3690
 3844TIP3   OH233090   2.215   2.709   7.788 -1.0328 -0.2566 -0.3950
 3844TIP3    H133091   2.199   2.719   7.694 -2.2970 -0.2488 -0.1990
 3844TIP3    H233092   2.269   2.784   7.811  0.7103 -1.1385 -1.4076
 3845TIP3   OH233093   4.012   5.658   2.075 -1.1263 -0.6411 -0.5147
 3845TIP3    H133094   4.092   5.711   2.076 -2.3324  1.2896  0.5517
 3845TIP3    H233095   4.025   5.593   2.144 -1.0532  0.6717  0.7597
 3846TIP3   OH233096   1.631   0.162   0.222  0.4877  0.4903 -0.4057
 3846TIP3    H133097   1.722   0.132   0.227  0.2205 -0.0954  1.3704
 3846TIP3    H233098   1.611   0.195   0.309 -1.1787  0.1006 -0.6074
 3847TIP3   OH233099   2.816   4.031   8.665  0.0359  0.1853  0.1909
 3847TIP3    H133100   2.849   4.061   8.750 -0.2557  0.4440  0.2150
 3847TIP3    H233101   2.818   4.108   8.609  1.2185 -0.2149 -0.3604
 3848TIP3   OH233102   6.638   1.050   0.780  0.6196 -0.2824  0.5448
 3848TIP3    H133103   6.560   1.097   0.752  1.8770  0.5965 -1.8259
 3848TIP3    H233104   6.612   0.958   0.784 -0.5874  0.0266  0.0646
 3849TIP3   OH233105   1.260   6.240   1.932  0.2019 -0.3288  0.0970
 3849TIP3    H133106   1.199   6.188   1.983  0.8336 -0.3998  0.7903
 3849TIP3    H233107   1.264   6.196   1.847  2.2900 -2.6840  1.2856
 3850TIP3   OH233108   4.688   1.745   1.423  0.5575 -0.4435 -0.0447
 3850TIP3    H133109   4.757   1.707   1.370 -0.9719 -1.7109 -1.2235
 3850TIP3    H233110   4.652   1.671   1.472 -1.2478 -0.2355 -0.9635
 3851TIP3   OH233111   3.934   5.672   1.238  0.1936 -0.3247 -0.3128
 3851TIP3    H133112   3.960   5.587   1.273  0.9957  0.3369  0.7577
 3851TIP3    H233113   3.988   5.683   1.160 -0.2515 -0.9887 -0.7278
 3852TIP3   OH233114   1.297   3.746   7.975  0.5605  0.7246 -0.2522
 3852TIP3    H133115   1.333   3.731   8.062 -1.2051  1.5613  0.6704
 3852TIP3    H233116   1.371   3.777   7.923  1.3347  1.7102  1.3762
 3853TIP3   OH233117   5.267   6.320   2.455 -0.4374 -0.5968  0.3358
 3853TIP3    H133118   5.223   6.267   2.522  0.3891 -1.7795 -0.0313
 3853TIP3    H233119   5.332   6.371   2.502  0.1798 -1.4691  0.4302
 3854TIP3   OH233120   4.353   6.590   1.256  0.7662 -0.0590 -0.1168
 3854TIP3    H133121   4.286   6.565   1.192 -0.6256 -0.8891  1.5511
 3854TIP3    H233122   4.371   6.682   1.237 -0.8311  0.1846 -0.6806
 3855TIP3   OH233123   6.724   4.164   1.028  0.7182  0.6254 -0.2864
 3855TIP3    H133124   6.787   4.236   1.026  0.3136  1.0108  0.5019
 3855TIP3    H233125   6.740   4.116   0.947 -0.0432  2.4678 -1.5888
 3856TIP3   OH233126   0.198   6.740   2.366 -0.2949 -0.0357 -0.2829
 3856TIP3    H133127   0.229   6.737   2.275 -0.7255 -0.3332 -0.4242
 3856TIP3    H233128   0.273   6.708   2.417  0.2532  0.9439 -0.4410
 3857TIP3   OH233129   1.683   2.663   0.592 -0.2456 -0.5379  0.3686
 3857TIP3    H133130   1.761   2.614   0.620  0.2353  0.0618  0.1143
 3857TIP3    H233131   1.677   2.645   0.498  0.3925  0.5070  0.1208
 3858TIP3   OH233132   2.176   5.421   2.455 -0.6395  0.3269 -0.7093
 3858TIP3    H133133   2.205   5.349   2.512 -1.1112  0.2512 -0.5626
 3858TIP3    H233134   2.221   5.498   2.490 -0.2129  0.1196 -0.8019
 3859TIP3   OH233135   2.895   5.098   2.054  0.6589  0.5099  0.0191
 3859TIP3    H133136   2.850   5.074   1.973  0.2590 -3.0471  1.1315
 3859TIP3    H233137   2.828   5.094   2.122  1.1588  2.6295  0.7316
 3860TIP3   OH233138   4.910   5.404   2.747 -0.1606 -0.1264 -0.2203
 3860TIP3    H133139   5.002   5.421   2.728 -0.2562 -0.7103 -1.3022
 3860TIP3    H233140   4.906   5.392   2.841  0.6285  1.3083  0.0170
 3861TIP3   OH233141   2.017   1.945   1.895  0.0201 -0.6575  0.1390
 3861TIP3    H133142   1.983   1.910   1.977  0.0512  2.0289  1.4160
 3861TIP3    H233143   2.111   1.954   1.910  0.0080 -0.0494 -0.1134
 3862TIP3   OH233144   2.356   2.310   8.670 -0.0050 -0.4868  0.0153
 3862TIP3    H133145   2.376   2.226   8.629 -1.4325 -0.9997  0.2900
 3862TIP3    H233146   2.320   2.363   8.599 -1.2735 -0.9335  0.2929
 3863TIP3   OH233147   1.320   6.531   1.078 -0.5154 -0.5155  0.1256
 3863TIP3    H133148   1.326   6.444   1.118  0.0609  0.5741  2.5466
 3863TIP3    H233149   1.252   6.576   1.127  0.5235  1.0387  0.2229
 3864TIP3   OH233150   4.792   6.278   6.663  0.2509 -0.1966 -0.0520
 3864TIP3    H133151   4.744   6.322   6.733 -0.1371 -1.3961  0.4594
 3864TIP3    H233152   4.819   6.194   6.701  1.1462 -0.3305 -0.9344
 3865TIP3   OH233153   6.731   0.328   2.515  0.0870  0.0971 -0.0255
 3865TIP3    H133154   6.703   0.417   2.492  0.0719  0.4475  1.2765
 3865TIP3    H233155   6.827   0.332   2.511  0.1431  0.5495  1.2731
 3866TIP3   OH233156   6.320   6.363   1.319  0.5506 -0.2881  0.3055
 3866TIP3    H133157   6.313   6.287   1.261  2.1745 -0.1395 -0.1527
 3866TIP3    H233158   6.260   6.428   1.282 -0.7050 -1.2603  0.5890
 3867TIP3   OH233159   1.959   1.173   1.201 -0.0596 -0.7839 -0.2663
 3867TIP3    H133160   1.883   1.123   1.231 -0.4195 -0.4237 -0.5720
 3867TIP3    H233161   1.943   1.188   1.108 -0.1972  0.3274 -0.0742
 3868TIP3   OH233162   0.108   0.862   1.951 -0.5097  0.3037  0.5417
 3868TIP3    H133163   0.082   0.793   2.012 -1.2185 -1.2342 -1.4164
 3868TIP3    H233164   0.071   0.942   1.990 -1.3211 -0.6851  1.9056
 3869TIP3   OH233165   3.467   5.803   7.859 -0.3388 -0.3217 -0.6325
 3869TIP3    H133166   3.400   5.811   7.927 -0.9109 -1.9979 -0.9661
 3869TIP3    H233167   3.435   5.859   7.787  0.1648  1.2857  0.3353
 3870TIP3   OH233168   4.983   1.404   2.048 -0.0687  0.4841  0.0374
 3870TIP3    H133169   5.065   1.405   2.000  1.1282  0.7302  1.9589
 3870TIP3    H233170   4.945   1.491   2.035 -0.3460  0.1703 -1.3399
 3871TIP3   OH233171   0.357   4.113   0.090 -0.1481 -0.1761  0.1709
 3871TIP3    H133172   0.339   4.112   0.184 -4.4038  1.3178 -0.4365
 3871TIP3    H233173   0.322   4.196   0.059  1.3171 -0.5087 -2.7524
 3872TIP3   OH233174   4.094   1.519   0.554 -0.0360  0.6165  0.2394
 3872TIP3    H133175   4.126   1.520   0.644  0.0728 -1.0639  0.2472
 3872TIP3    H233176   4.172   1.533   0.501  0.3966 -1.2188  0.3365
 3873TIP3   OH233177   4.265   1.979   8.560 -0.3874  0.6058 -0.0299
 3873TIP3    H133178   4.214   1.903   8.535 -2.8010  2.5455 -1.5065
 3873TIP3    H233179   4.342   1.976   8.503 -0.3543 -0.7791  0.0659
 3874TIP3   OH233180   1.623   5.072   2.367 -0.1222 -0.1866 -0.4327
 3874TIP3    H133181   1.642   5.162   2.344  1.0690 -0.1721  0.5067
 3874TIP3    H233182   1.529   5.062   2.353 -0.3764  1.3811  0.0426
 3875TIP3   OH233183   0.076   4.137   7.715 -0.1039  0.1882 -0.1331
 3875TIP3    H133184   0.120   4.059   7.750 -1.9327 -0.9317 -0.2267
 3875TIP3    H233185   0.017   4.164   7.785 -0.5675  0.5970 -0.6826
 3876TIP3   OH233186   2.677   6.272   2.787  0.7081  0.0038  0.0263
 3876TIP3    H133187   2.756   6.224   2.762  3.3619  3.2213  1.4426
 3876TIP3    H233188   2.639   6.299   2.703  0.8202 -1.8817 -0.6946
 3877TIP3   OH233189   3.976   4.240   2.611  0.1416 -0.1285  0.3633
 3877TIP3    H133190   4.015   4.294   2.679  0.4892  0.6447 -0.4311
 3877TIP3    H233191   4.047   4.181   2.584 -0.2099 -0.9343  1.1649
 3878TIP3   OH233192   5.661   3.833   7.900  0.1346 -0.3529  0.2766
 3878TIP3    H133193   5.724   3.899   7.872 -0.8615  0.4781 -0.0426
 3878TIP3    H233194   5.684   3.815   7.991  1.0286 -0.2990  0.0681
 3879TIP3   OH233195   2.107   5.213   0.324  0.1362  0.2293  0.2196
 3879TIP3    H133196   2.041   5.171   0.269  0.6019 -0.4470  0.1765
 3879TIP3    H233197   2.070   5.300   0.343  0.2618  0.7548 -1.7076
 3880TIP3   OH233198   4.434   0.213   0.227  0.2708  0.5230 -0.1234
 3880TIP3    H133199   4.507   0.167   0.269  0.6799  1.6824  0.4965
 3880TIP3    H233200   4.465   0.303   0.218 -0.8975  0.9214 -0.3453
 3881TIP3   OH233201   3.751   6.052   8.546 -0.3588 -0.3593 -0.1473
 3881TIP3    H133202   3.758   5.959   8.523  2.4750  0.2361 -2.3357
 3881TIP3    H233203   3.835   6.073   8.587 -0.3237  1.5325 -1.0796
 3882TIP3   OH233204   1.554   5.125   0.721 -1.0425  0.1022  0.2463
 3882TIP3    H133205   1.552   5.047   0.666 -1.1731 -0.1635  0.6250
 3882TIP3    H233206   1.645   5.131   0.751 -1.1516 -0.2033  0.6410
 3883TIP3   OH233207   0.642   3.861   1.791 -0.0121  0.1415 -0.6319
 3883TIP3    H133208   0.710   3.915   1.751 -0.4632  0.2276 -1.2933
 3883TIP3    H233209   0.572   3.857   1.725  0.3445 -1.9368 -0.9403
 3884TIP3   OH233210   5.983   4.630   7.759 -0.6089  0.0213  0.2412
 3884TIP3    H133211   5.966   4.704   7.818 -0.8701  1.3791 -1.4626
 3884TIP3    H233212   5.958   4.662   7.672  2.5140 -0.8583 -1.1288
 3885TIP3   OH233213   0.726   5.669   7.163 -0.2547  0.2096 -0.2705
 3885TIP3    H133214   0.777   5.598   7.125 -0.0903  1.4288 -2.5162
 3885TIP3    H233215   0.679   5.629   7.236  1.5605 -1.6384 -0.0091
 3886TIP3   OH233216   5.827   0.797   7.999 -0.1739 -0.4970  0.2725
 3886TIP3    H133217   5.801   0.843   7.919 -1.9830  0.3492  1.3004
 3886TIP3    H233218   5.821   0.862   8.068  0.6287 -1.4179  1.2473
 3887TIP3   OH233219   6.043   4.803   0.184  0.1129  0.1994  0.2900
 3887TIP3    H133220   6.046   4.839   0.273  1.0229  1.7153 -0.3184
 3887TIP3    H233221   5.952   4.775   0.172 -0.6990  2.4531  0.7637
 3888TIP3   OH233222   6.529   5.728   2.019  0.7868  0.3972  0.3749
 3888TIP3    H133223   6.578   5.796   2.066  0.8845  2.6746 -2.6815
 3888TIP3    H233224   6.437   5.754   2.028  0.5889 -0.6001  1.3550
 3889TIP3   OH233225   2.065   6.032   1.349  0.1522  0.1328 -0.1572
 3889TIP3    H133226   2.002   6.004   1.415  2.5418 -1.9117  1.4453
 3889TIP3    H233227   2.079   6.125   1.366 -0.5239  0.0138  1.1375
 3890TIP3   OH233228   0.484   0.980   2.917 -0.0587 -0.1388  0.4590
 3890TIP3    H133229   0.435   0.936   2.986  2.0072 -1.7011  1.0300
 3890TIP3    H233230   0.474   1.074   2.936 -2.2773 -0.4040  0.8470
 3891TIP3   OH233231   3.917   1.301   8.163 -0.2748 -0.3151  0.1779
 3891TIP3    H133232   3.959   1.224   8.202  1.2347  0.7631  0.8240
 3891TIP3    H233233   3.840   1.267   8.118 -0.1374 -2.0757  1.1770
 3892TIP3   OH233234   2.534   0.707   1.119  0.2464 -0.4245 -0.0269
 3892TIP3    H133235   2.498   0.784   1.076  1.2422 -0.4870 -1.0108
 3892TIP3    H233236   2.500   0.712   1.208  2.8631  3.0169  1.0256
 3893TIP3   OH233237   1.398   6.590   8.296 -0.0211 -0.1388  0.2313
 3893TIP3    H133238   1.369   6.498   8.291  1.2184 -0.5107 -0.4093
 3893TIP3    H233239   1.318   6.640   8.282 -0.8204 -1.1025  1.1017
 3894TIP3   OH233240   6.357   1.315   0.153 -0.3242 -0.2276  0.1436
 3894TIP3    H133241   6.331   1.388   0.209 -2.0980 -1.2283  0.7003
 3894TIP3    H233242   6.346   1.348   0.064  0.9309  0.8385  0.3498
 3895TIP3   OH233243   0.457   3.615   7.960  0.8636 -0.5803 -0.6857
 3895TIP3    H133244   0.374   3.571   7.980  0.3364  0.6387 -0.0945
 3895TIP3    H233245   0.519   3.577   8.021  0.3563 -0.3416 -0.0065
 3896TIP3   OH233246   3.918   1.831   7.557 -0.1360  0.0232  0.5182
 3896TIP3    H133247   3.956   1.769   7.494  0.4465 -0.4654  1.3264
 3896TIP3    H233248   3.878   1.776   7.624 -1.4665  0.5397  0.1798
 3897TIP3   OH233249   6.355   0.729   0.578  0.0461 -0.3291 -0.1710
 3897TIP3    H133250   6.310   0.761   0.499 -0.6208  0.8870  0.6640
 3897TIP3    H233251   6.399   0.649   0.550 -0.6268 -0.2167 -1.6423
 3898TIP3   OH233252   5.922   3.456   8.277 -0.7015 -0.4991  0.3670
 3898TIP3    H133253   5.835   3.461   8.315 -0.1576 -0.4544  1.6354
 3898TIP3    H233254   5.907   3.431   8.185 -2.1432  1.4878  0.0198
 3899TIP3   OH233255   3.882   4.015   7.771  0.3376  0.9358  0.9199
 3899TIP3    H133256   3.787   3.998   7.773  0.2694  1.2584  0.5950
 3899TIP3    H233257   3.894   4.091   7.827  0.2254  1.6803 -0.0320
 3900TIP3   OH233258   5.899   4.756   7.462 -0.2899 -0.4442  0.0576
 3900TIP3    H133259   5.843   4.692   7.419 -0.3566  0.5274 -1.3635
 3900TIP3    H233260   5.845   4.835   7.468  0.7948  0.4291 -1.0840
 3901TIP3   OH233261   5.410   3.667   0.539 -0.4319  0.4061 -0.2451
 3901TIP3    H133262   5.368   3.713   0.611 -2.2460 -0.6774 -0.5530
 3901TIP3    H233263   5.414   3.576   0.567 -1.1364 -0.0296 -1.4541
 3902TIP3   OH233264   4.285   1.156   2.808  0.2640 -0.3146  0.0511
 3902TIP3    H133265   4.329   1.108   2.739 -0.0452 -1.5287  0.6635
 3902TIP3    H233266   4.331   1.240   2.812  1.7189 -1.0599 -0.1545
 3903TIP3   OH233267   2.111   4.230   0.295 -0.4109  0.2270  0.0747
 3903TIP3    H133268   2.116   4.225   0.390 -0.5421 -0.2326  0.0563
 3903TIP3    H233269   2.170   4.302   0.272  1.1933 -0.9406  0.3553
 3904TIP3   OH233270   3.759   4.964   2.527 -1.0138 -0.3423 -0.4525
 3904TIP3    H133271   3.728   4.994   2.612 -0.3962 -0.6045 -0.1254
 3904TIP3    H233272   3.762   5.043   2.473  0.7161  0.2552  0.4351
 3905TIP3   OH233273   3.777   6.130   3.056  0.7309  0.5382 -0.0935
 3905TIP3    H133274   3.864   6.170   3.062  2.3982 -3.0044  2.1387
 3905TIP3    H233275   3.793   6.042   3.023 -2.3076  0.2972 -1.2536
 3906TIP3   OH233276   0.435   4.912   2.888 -0.3173  0.0411 -0.0462
 3906TIP3    H133277   0.518   4.894   2.933  1.1847  1.7405 -1.9653
 3906TIP3    H233278   0.406   4.826   2.856 -0.3081 -0.8652  2.1497
 3907TIP3   OH233279   5.504   4.595   1.545 -0.5375  0.0583  0.0150
 3907TIP3    H133280   5.543   4.510   1.564 -0.7761  0.0983  0.7360
 3907TIP3    H233281   5.410   4.579   1.546 -0.5652  0.0368 -1.3511
 3908TIP3   OH233282   2.666   4.607   7.348 -0.2479 -0.0901  0.5037
 3908TIP3    H133283   2.585   4.590   7.301  0.8317  0.0505 -1.5357
 3908TIP3    H233284   2.732   4.554   7.303  1.3444  2.0855  0.1158
 3909TIP3   OH233285   1.272   4.684   0.484  0.1854  0.1598 -0.0271
 3909TIP3    H133286   1.274   4.715   0.394  0.3621  1.3055  0.3536
 3909TIP3    H233287   1.238   4.595   0.478  0.2857  0.1839 -1.2299
 3910TIP3   OH233288   3.100   0.779   1.348  0.2039 -0.1232 -0.3948
 3910TIP3    H133289   3.039   0.767   1.420 -0.4232 -0.1114 -0.9205
 3910TIP3    H233290   3.067   0.722   1.278  0.0795  0.8057 -1.1212
 3911TIP3   OH233291   0.251   3.906   0.722 -0.1385  0.7072 -0.1560
 3911TIP3    H133292   0.315   3.973   0.697 -1.1236  0.3581 -4.2588
 3911TIP3    H233293   0.304   3.837   0.762  1.5939  1.7343 -0.5397
 3912TIP3   OH233294   1.385   2.427   8.719  0.1335 -0.5609 -0.0001
 3912TIP3    H133295   1.348   2.515   8.708  0.2637 -0.6258 -0.9992
 3912TIP3    H233296   1.442   2.415   8.644  3.0246 -0.0719  1.9477
 3913TIP3   OH233297   4.499   0.719   1.876 -0.2996  0.7080 -0.8480
 3913TIP3    H133298   4.409   0.689   1.887 -0.0506 -0.0901 -0.9320
 3913TIP3    H233299   4.544   0.691   1.956  0.1822 -0.1182 -1.3802
 3914TIP3   OH233300   6.348   5.370   7.736 -0.2814  0.2625 -0.4679
 3914TIP3    H133301   6.331   5.341   7.826 -1.4997  0.0519 -0.7446
 3914TIP3    H233302   6.263   5.400   7.704  0.2657  0.9121 -1.3539
 3915TIP3   OH233303   1.720   5.053   0.419 -0.3981 -1.0768  0.1742
 3915TIP3    H133304   1.633   5.016   0.437 -0.7385 -1.3675 -1.8322
 3915TIP3    H233305   1.748   5.010   0.339  0.3836  1.0841 -0.7838
 3916TIP3   OH233306   3.581   3.651   0.323  0.4613 -0.5846  0.8334
 3916TIP3    H133307   3.626   3.668   0.241  1.7410 -2.1377  1.1543
 3916TIP3    H233308   3.537   3.733   0.345 -0.8240 -0.4567 -1.9347
 3917TIP3   OH233309   4.607   4.084   8.316 -0.9643  0.5027  0.3939
 3917TIP3    H133310   4.556   4.136   8.378  0.5165  1.6519  0.7040
 3917TIP3    H233311   4.676   4.143   8.286 -1.3224 -0.1831 -2.0090
 3918TIP3   OH233312   2.601   3.979   1.085 -0.8521 -0.9114 -0.1268
 3918TIP3    H133313   2.601   3.915   1.155 -1.6486 -0.1745  0.5686
 3918TIP3    H233314   2.533   4.041   1.109 -0.2720  0.0652 -0.9024
 3919TIP3   OH233315   3.459   3.810   1.107 -0.2409 -0.2467  0.2241
 3919TIP3    H133316   3.459   3.740   1.173  1.5796 -0.0417  0.4794
 3919TIP3    H233317   3.383   3.863   1.130 -0.8949 -1.3916  0.8304
 3920TIP3   OH233318   0.545   3.953   0.402 -0.4272 -0.1834 -0.3498
 3920TIP3    H133319   0.477   4.021   0.402 -0.0099  0.2425 -0.3716
 3920TIP3    H233320   0.614   3.988   0.458  1.0320  0.6857 -2.5292
 3921TIP3   OH233321   5.041   6.150   6.960 -0.0895  0.0088  0.0829
 3921TIP3    H133322   4.979   6.132   6.889  0.5854  0.7059 -0.6992
 3921TIP3    H233323   5.087   6.067   6.973 -1.2035 -0.5274  0.7004
 3922TIP3   OH233324   4.882   3.878   8.743  0.5473 -1.3391  0.2202
 3922TIP3    H133325   4.837   3.885   8.659  0.3419  1.7194  0.4779
 3922TIP3    H233326   4.896   3.969   8.771  0.7914 -2.2310  3.4071
 3923TIP3   OH233327   1.417   2.676   0.697  0.6084 -0.0958 -0.4113
 3923TIP3    H133328   1.428   2.664   0.792 -0.8089 -0.5457 -0.2776
 3923TIP3    H233329   1.505   2.694   0.665  0.8336  2.5886  1.3406
 3924TIP3   OH233330   6.265   2.005   7.900 -0.1908  0.0927 -0.1936
 3924TIP3    H133331   6.352   2.020   7.863  0.0522 -0.2151  0.2394
 3924TIP3    H233332   6.273   1.922   7.948 -0.4700  0.5113  0.6005
 3925TIP3   OH233333   5.561   4.418   0.644 -0.2987 -0.0396 -0.2887
 3925TIP3    H133334   5.647   4.433   0.606  0.2189  0.3821  0.9875
 3925TIP3    H233335   5.526   4.506   0.660 -0.9061 -0.2082 -0.6451
 3926TIP3   OH233336   3.271   2.896   0.953  0.1102  0.1229 -0.5284
 3926TIP3    H133337   3.208   2.958   0.987 -0.4526 -0.3365 -0.7209
 3926TIP3    H233338   3.319   2.865   1.030 -0.6891 -0.3999 -0.2265
 3927TIP3   OH233339   3.191   1.290   2.744 -0.0896  0.1945 -0.1195
 3927TIP3    H133340   3.247   1.215   2.764 -0.4194  0.0869  0.4102
 3927TIP3    H233341   3.133   1.298   2.820  0.2348  1.2593  0.0346
 3928TIP3   OH233342   0.549   1.260   1.874 -0.1001 -0.2336 -0.5062
 3928TIP3    H133343   0.481   1.233   1.935  1.2322 -1.2774  0.6071
 3928TIP3    H233344   0.596   1.330   1.919  1.0303 -1.1589 -0.1899
 3929TIP3   OH233345   0.956   4.035   0.009 -0.1589  0.7531 -0.5924
 3929TIP3    H133346   1.036   4.045   0.059 -1.8165  0.2762  2.3734
 3929TIP3    H233347   0.977   3.968  -0.057  1.7886  0.4804  0.2307
 3930TIP3   OH233348   1.294   0.200   0.526 -0.6056  0.1777 -0.2638
 3930TIP3    H133349   1.198   0.205   0.529 -0.5196  2.3196  1.9659
 3930TIP3    H233350   1.322   0.290   0.508  0.9718  0.0441  1.2498
 3931TIP3   OH233351   5.538   2.287   8.264  0.3831 -0.1299  0.0634
 3931TIP3    H133352   5.591   2.210   8.284  0.9923  0.3261  0.2135
 3931TIP3    H233353   5.525   2.330   8.348 -1.1969 -0.8308  0.2263
 3932TIP3   OH233354   6.475   0.116   2.066 -0.2991  0.0560 -0.2362
 3932TIP3    H133355   6.501   0.176   1.997 -0.2979  1.0448  0.5950
 3932TIP3    H233356   6.528   0.038   2.051  0.3284  0.5836 -0.8395
 3933TIP3   OH233357   3.911   4.559   8.493  0.1489 -0.3192  0.4941
 3933TIP3    H133358   3.841   4.615   8.528  0.0007 -0.0142 -0.2651
 3933TIP3    H233359   3.911   4.577   8.399 -1.2116 -3.0081 -0.1243
 3934TIP3   OH233360   0.984   5.211   6.984 -0.1610 -0.3720 -0.1378
 3934TIP3    H133361   1.056   5.201   7.047 -1.0285 -0.0637  0.9294
 3934TIP3    H233362   0.955   5.122   6.967  0.3869 -0.4907 -0.4867
 3935TIP3   OH233363   3.184   2.129   1.914 -0.0361 -0.2631  0.3126
 3935TIP3    H133364   3.194   2.105   1.822  1.3541 -0.0645  0.3912
 3935TIP3    H233365   3.101   2.177   1.918  1.9396  3.7226 -1.7052
 3936TIP3   OH233366   1.078   3.301   2.633 -0.2696  0.0241 -0.3082
 3936TIP3    H133367   1.040   3.227   2.586 -0.9095 -1.3854  2.2500
 3936TIP3    H233368   1.170   3.300   2.608 -0.5413 -0.7913 -1.3590
 3937TIP3   OH233369   4.126   5.286   1.546 -0.4691 -0.2516  0.1237
 3937TIP3    H133370   4.049   5.299   1.601 -0.2876 -1.4611  0.6936
 3937TIP3    H233371   4.145   5.373   1.511 -1.0883  0.3827  1.2976
 3938TIP3   OH233372   4.557   5.697   1.781  0.0710 -0.6632 -0.0159
 3938TIP3    H133373   4.511   5.777   1.809  0.0979 -0.0542 -1.5968
 3938TIP3    H233374   4.587   5.657   1.862  0.3005  1.0884  0.8146
 3939TIP3   OH233375   1.333   5.782   0.683  0.3537 -0.2196 -0.3359
 3939TIP3    H133376   1.400   5.724   0.720  0.1944 -1.0038 -1.2516
 3939TIP3    H233377   1.378   5.827   0.611 -0.1997 -1.0481 -1.2167
 3940TIP3   OH233378   6.460   6.255   0.534  0.2481  1.3063 -0.2064
 3940TIP3    H133379   6.497   6.319   0.474 -0.0046  1.0476 -0.6489
 3940TIP3    H233380   6.481   6.170   0.494  2.4614  0.9949  1.4436
 3941TIP3   OH233381   2.516   4.463   0.165  0.0583  0.3446 -0.1970
 3941TIP3    H133382   2.533   4.517   0.242  2.2013 -0.4861 -0.0375
 3941TIP3    H233383   2.552   4.513   0.092 -1.7629  1.0249 -0.6953
 3942TIP3   OH233384   3.441   5.285   7.165 -0.5214  0.7429  0.1281
 3942TIP3    H133385   3.473   5.210   7.216 -0.3331  0.4411 -0.4165
 3942TIP3    H233386   3.355   5.258   7.134 -1.2426  1.4782  1.4263
 3943TIP3   OH233387   2.349   5.559   3.238 -0.4554 -0.1809  0.3738
 3943TIP3    H133388   2.313   5.592   3.320  0.1348 -2.8086  1.7961
 3943TIP3    H233389   2.416   5.623   3.214 -1.3606  1.1886  1.3288
 3944TIP3   OH233390   2.227   5.272   2.847  0.3194 -0.5659 -0.2669
 3944TIP3    H133391   2.311   5.225   2.848 -0.1481 -1.6902 -2.9283
 3944TIP3    H233392   2.247   5.355   2.804  0.2886 -0.2711  0.2794
 3945TIP3   OH233393   5.008   4.005   2.145  0.9360 -0.7325 -0.0426
 3945TIP3    H133394   4.918   3.993   2.176  1.8903 -1.3847  2.7268
 3945TIP3    H233395   5.007   4.091   2.102 -1.0777 -0.9066 -0.4420
 3946TIP3   OH233396   2.253   3.362   0.620 -0.1526 -0.2184  0.1481
 3946TIP3    H133397   2.187   3.376   0.552  0.7790  2.7500 -0.2867
 3946TIP3    H233398   2.203   3.330   0.696 -1.6940 -0.3251 -0.8613
 3947TIP3   OH233399   4.087   1.686   8.045  0.3370  0.2855 -0.7748
 3947TIP3    H133400   4.028   1.725   8.110 -0.5806 -0.9390 -0.8507
 3947TIP3    H233401   4.159   1.749   8.037 -0.9813  1.8515 -0.7245
 3948TIP3   OH233402   5.254   5.705   1.469  0.0806  0.2435  0.4679
 3948TIP3    H133403   5.215   5.728   1.553  0.6418  1.3950  0.4258
 3948TIP3    H233404   5.220   5.617   1.450 -1.6927  0.7899  0.9029
 3949TIP3   OH233405   2.364   3.939   7.882  0.3951 -0.4605 -0.6331
 3949TIP3    H133406   2.459   3.929   7.875  0.4332 -0.6815  0.1589
 3949TIP3    H233407   2.329   3.857   7.846  0.5992 -1.6990  1.7572
 3950TIP3   OH233408   5.761   2.864   7.840 -0.0454  0.0361 -0.5226
 3950TIP3    H133409   5.828   2.822   7.895 -1.3012  0.4856  1.4396
 3950TIP3    H233410   5.757   2.954   7.872  0.3549  0.8146 -2.5311
 3951TIP3   OH233411   4.895   2.372   1.305 -0.4442  0.1602  0.3577
 3951TIP3    H133412   4.897   2.293   1.358 -0.6654  0.0597  0.2173
 3951TIP3    H233413   4.987   2.392   1.288 -0.3784 -1.8212 -2.2039
 3952TIP3   OH233414   3.119   6.761   1.886 -0.0230 -0.5233  0.2203
 3952TIP3    H133415   3.120   6.665   1.883  0.9186 -0.6040  1.8529
 3952TIP3    H233416   3.031   6.784   1.916 -0.0334 -0.9219  0.5039
 3953TIP3   OH233417   5.996   5.150   6.483  0.0762 -0.1599 -0.1486
 3953TIP3    H133418   5.928   5.087   6.508  0.5521 -0.8216 -0.4929
 3953TIP3    H233419   6.066   5.137   6.547  0.3097 -0.1983 -0.4119
 3954TIP3   OH233420   5.843   2.091   0.231 -0.1057  0.6076 -0.1134
 3954TIP3    H133421   5.832   2.002   0.196 -1.0818 -0.1412  1.9593
 3954TIP3    H233422   5.754   2.122   0.247  0.2913  0.7345  2.0660
 3955TIP3   OH233423   0.332   2.021   1.238  0.0976 -0.0903 -0.3029
 3955TIP3    H133424   0.379   1.938   1.234 -0.4621 -0.3679 -1.8465
 3955TIP3    H233425   0.388   2.078   1.290  0.2235 -1.5798  1.2941
 3956TIP3   OH233426   3.605   3.327   6.909  0.2018  0.3112 -0.4764
 3956TIP3    H133427   3.575   3.260   6.970 -0.0870  0.7926 -0.0736
 3956TIP3    H233428   3.557   3.310   6.828 -2.9296  2.3112  0.7505
 3957TIP3   OH233429   2.328   5.786   2.847 -0.2651 -0.1902 -0.2346
 3957TIP3    H133430   2.409   5.736   2.848 -1.0418 -1.4778  0.0489
 3957TIP3    H233431   2.334   5.843   2.924  0.7351  0.3560 -0.6971
 3958TIP3   OH233432   2.752   6.015   7.654  0.1093  0.3559  0.2359
 3958TIP3    H133433   2.811   5.988   7.724  1.6935  0.4629 -0.9894
 3958TIP3    H233434   2.683   5.948   7.653  0.2707  0.1508  1.6133
 3959TIP3   OH233435   3.814   6.641   8.574  0.2737 -0.2453 -0.4506
 3959TIP3    H133436   3.736   6.593   8.603  0.0653 -0.3748 -1.1996
 3959TIP3    H233437   3.780   6.723   8.539  0.6296  0.4430  0.7847
 3960TIP3   OH233438   2.656   6.221   1.781  0.7897  0.1826  0.3030
 3960TIP3    H133439   2.738   6.195   1.739 -0.0428 -0.2117 -1.1374
 3960TIP3    H233440   2.589   6.208   1.714 -0.3503  1.3030  1.1650
 3961TIP3   OH233441   6.342   6.178   0.112  0.4826  0.2097 -0.0263
 3961TIP3    H133442   6.287   6.146   0.183  1.1142  2.3798  1.5571
 3961TIP3    H233443   6.427   6.195   0.154  2.2931 -2.4845 -2.2580
 3962TIP3   OH233444   4.176   2.296   0.968  0.0610 -0.1193  0.2933
 3962TIP3    H133445   4.138   2.209   0.976 -0.4875  0.0242 -0.5908
 3962TIP3    H233446   4.258   2.291   1.016  0.1955 -1.2195 -0.0291
 3963TIP3   OH233447   3.993   5.066   0.802  0.4030 -0.1981 -0.4574
 3963TIP3    H133448   4.057   5.129   0.836 -0.0440 -0.0798  0.1900
 3963TIP3    H233449   3.986   5.000   0.871 -1.4125  0.6658  0.2690
 3964TIP3   OH233450   6.734   3.778   0.763  0.4644 -0.1373  0.3679
 3964TIP3    H133451   6.776   3.863   0.758  0.4463 -0.1385  0.1799
 3964TIP3    H233452   6.803   3.719   0.794  0.4736 -0.0524  0.5087
 3965TIP3   OH233453   2.521   4.729   2.650  0.3719  0.7297 -0.2732
 3965TIP3    H133454   2.523   4.654   2.709 -0.8600  1.2017  0.4364
 3965TIP3    H233455   2.439   4.774   2.672 -0.7517  0.3030 -3.1467
 3966TIP3   OH233456   5.869   6.185   0.421 -0.4871  0.4708 -0.4918
 3966TIP3    H133457   5.854   6.258   0.482  1.4239  1.5226 -1.1934
 3966TIP3    H233458   5.819   6.112   0.459 -6.4503  3.0810 -2.0841
 3967TIP3   OH233459   1.825   1.134   0.020  0.3546 -0.4952  0.5076
 3967TIP3    H133460   1.895   1.158  -0.041  0.8018 -2.5441  0.1419
 3967TIP3    H233461   1.749   1.115  -0.036  0.3024 -0.8523  0.6931
 3968TIP3   OH233462   1.263   0.492   0.031  0.3712  0.7095  0.1180
 3968TIP3    H133463   1.171   0.474   0.011  0.1830  1.1333  0.5768
 3968TIP3    H233464   1.306   0.407   0.024 -0.0380  0.5265 -0.1961
 3969TIP3   OH233465   2.931   0.965   0.479 -0.4260  0.0445 -0.3154
 3969TIP3    H133466   2.925   0.921   0.564 -1.4584  0.3631 -0.2003
 3969TIP3    H233467   2.846   0.946   0.437  0.7290 -1.6418 -2.0610
 3970TIP3   OH233468   2.948   5.387   8.472 -0.3063 -0.5778  0.5121
 3970TIP3    H133469   2.982   5.349   8.553  0.1669 -1.8036 -0.2253
 3970TIP3    H233470   3.023   5.388   8.413 -0.3921  1.2350  0.3743
 3971TIP3   OH233471   0.001   3.201   2.237 -0.1786  0.3155 -0.2395
 3971TIP3    H133472  -0.092   3.179   2.226 -0.4257  1.7288 -1.2891
 3971TIP3    H233473   0.001   3.278   2.292  0.5032 -0.6135  1.1181
 3972TIP3   OH233474   4.648   4.113   1.549 -0.4819  0.0879 -0.2626
 3972TIP3    H133475   4.719   4.139   1.608  0.8253 -1.4390 -1.0786
 3972TIP3    H233476   4.590   4.060   1.604  0.4456 -0.8765 -0.1756
 3973TIP3   OH233477   3.816   0.766   8.465  0.3413  0.1087  0.0423
 3973TIP3    H133478   3.900   0.782   8.507  1.4783 -1.9314 -1.3051
 3973TIP3    H233479   3.833   0.776   8.372 -0.2847 -2.6077 -0.4345
 3974TIP3   OH233480   1.091   6.412   8.560  0.3023  0.4205  0.2347
 3974TIP3    H133481   1.120   6.498   8.590  1.4353  0.0148  0.3492
 3974TIP3    H233482   0.996   6.412   8.576  0.3423  1.5042  0.5638
 3975TIP3   OH233483   2.743   5.353   8.119 -0.1865 -0.1794  0.1047
 3975TIP3    H133484   2.683   5.420   8.153 -0.5664 -0.3079 -0.3044
 3975TIP3    H233485   2.713   5.338   8.029  1.1091  0.5180 -0.4746
 3976TIP3   OH233486   4.728   6.281   8.610  0.1879  0.4519 -0.5759
 3976TIP3    H133487   4.741   6.200   8.560  0.4639  1.0495 -1.4921
 3976TIP3    H233488   4.683   6.339   8.550 -2.0402  0.2630  0.7834
 3977TIP3   OH233489   3.656   5.248   6.984  0.0931 -0.4901 -0.1953
 3977TIP3    H133490   3.595   5.274   7.053  0.2802 -1.4840  0.3623
 3977TIP3    H233491   3.609   5.265   6.902 -0.9952 -1.3855  0.2292
 3978TIP3   OH233492   1.108   0.705   7.854 -0.3604  0.1911  0.5559
 3978TIP3    H133493   1.037   0.641   7.849  0.6953 -1.2646  2.4886
 3978TIP3    H233494   1.120   0.734   7.764 -3.3610  0.5133  0.1479
 3979TIP3   OH233495   2.478   4.117   1.685 -0.2112 -0.2049 -0.8947
 3979TIP3    H133496   2.520   4.187   1.635 -0.3651  1.0258  0.6254
 3979TIP3    H233497   2.422   4.163   1.747 -0.2427 -1.6864  0.2155
 3980TIP3   OH233498   5.396   5.798   1.870  0.7422 -0.0790  0.5375
 3980TIP3    H133499   5.343   5.778   1.793  0.8775 -0.7091  0.6065
 3980TIP3    H233500   5.481   5.758   1.852  0.9021  0.1163  0.8410
 3981TIP3   OH233501   1.105   6.213   7.212 -0.1197  0.2995 -0.5640
 3981TIP3    H133502   1.064   6.132   7.182  1.5873 -0.5765 -0.6344
 3981TIP3    H233503   1.143   6.252   7.133  0.2388  0.4557 -0.3173
 3982TIP3   OH233504   3.771   5.770   2.078  0.6038  0.3614  0.1206
 3982TIP3    H133505   3.862   5.762   2.050  0.6920  0.3736  0.3998
 3982TIP3    H233506   3.723   5.712   2.020  0.9612 -0.6209  0.7835
 3983TIP3   OH233507   2.222   1.278   1.579 -0.4242  0.7469 -0.1364
 3983TIP3    H133508   2.273   1.280   1.498  1.3311  1.7558  0.9265
 3983TIP3    H233509   2.216   1.369   1.607  0.0612  0.3204  1.4764
 3984TIP3   OH233510   3.570   1.342   1.484  0.0820  0.3170 -0.1620
 3984TIP3    H133511   3.518   1.369   1.560 -0.8691  2.2776 -1.4186
 3984TIP3    H233512   3.560   1.247   1.481 -0.9637  0.3345  1.3777
 3985TIP3   OH233513   6.562   3.907   1.490  0.1162 -0.4236  0.5122
 3985TIP3    H133514   6.488   3.940   1.541  0.1010 -1.0789  0.9300
 3985TIP3    H233515   6.532   3.914   1.399  0.1592  0.7795  0.5800
 3986TIP3   OH233516   2.794   5.576   0.383 -0.5300 -0.0657 -0.2448
 3986TIP3    H133517   2.869   5.525   0.412  0.5872  0.5885 -1.8742
 3986TIP3    H233518   2.793   5.652   0.441 -0.0240 -0.1496 -0.1207
 3987TIP3   OH233519   0.724   5.008   7.830  0.3883  0.2311  0.4006
 3987TIP3    H133520   0.694   5.081   7.884  1.6550  0.6364  0.6033
 3987TIP3    H233521   0.745   4.939   7.893 -0.3794 -0.1553  0.2402
 3988TIP3   OH233522   3.981   4.305   0.864 -0.2606  0.7959 -0.2123
 3988TIP3    H133523   3.889   4.331   0.868 -0.5626  0.1140 -1.9747
 3988TIP3    H233524   3.981   4.212   0.889 -0.1760  0.5666 -1.0479
 3989TIP3   OH233525   6.024   5.535   1.909 -0.6196 -0.0051  0.7231
 3989TIP3    H133526   6.098   5.540   1.848 -2.3784  1.1956 -1.5117
 3989TIP3    H233527   5.952   5.500   1.856 -1.9126 -0.1657  2.5027
 3990TIP3   OH233528   0.524   2.498   2.230 -0.2319 -0.5117  0.4775
 3990TIP3    H133529   0.610   2.512   2.191  0.2792 -0.3765  1.6096
 3990TIP3    H233530   0.473   2.576   2.205  0.2680 -0.1471  0.5916
 3991TIP3   OH233531   5.498   3.427   0.627 -0.2053  0.8320 -0.6085
 3991TIP3    H133532   5.562   3.414   0.697  1.1675  0.3572 -1.8935
 3991TIP3    H233533   5.549   3.462   0.554 -1.6677  1.7173 -1.2645
 3992TIP3   OH233534   3.936   1.868   2.326  0.0353 -0.5938 -0.3973
 3992TIP3    H133535   3.919   1.952   2.284  0.4632 -0.5595 -0.4967
 3992TIP3    H233536   3.929   1.887   2.420  0.1481 -0.4471 -0.4194
 3993TIP3   OH233537   2.156   5.379   8.219 -0.3151  0.4496 -0.2793
 3993TIP3    H133538   2.082   5.333   8.259  0.2819  0.4093  0.7967
 3993TIP3    H233539   2.234   5.339   8.257  0.2331  1.9936  0.2997
 3994TIP3   OH233540   3.383   3.579   2.747  0.4052 -0.4015 -0.0174
 3994TIP3    H133541   3.434   3.516   2.696 -0.3206 -0.3749 -0.7772
 3994TIP3    H233542   3.446   3.613   2.811  0.9447 -1.4982  0.0635
 3995TIP3   OH233543   1.853   2.350   8.456  0.0182  1.0667  0.0826
 3995TIP3    H133544   1.851   2.413   8.529 -1.2349  2.8492 -1.4044
 3995TIP3    H233545   1.761   2.329   8.441  0.4424 -2.0273  1.1911
 3996TIP3   OH233546   6.488   4.028   0.374  0.2438 -0.1273  0.0448
 3996TIP3    H133547   6.428   4.007   0.302 -1.4272  1.4557  0.8897
 3996TIP3    H233548   6.510   3.944   0.414 -0.9438 -0.7879 -0.6595
 3997TIP3   OH233549   3.639   2.926   0.700  0.2267 -0.5509 -0.4741
 3997TIP3    H133550   3.626   2.955   0.790 -1.8377 -0.3154 -0.7939
 3997TIP3    H233551   3.698   2.990   0.661  1.3874 -0.8298  0.7659
 3998TIP3   OH233552   5.432   1.409   8.396 -0.2035 -0.1390 -0.0174
 3998TIP3    H133553   5.377   1.431   8.320  0.3474  0.3696 -0.2771
 3998TIP3    H233554   5.382   1.342   8.443 -0.6694 -0.2760 -0.6908
 3999TIP3   OH233555   6.455   5.150   1.850  0.4024 -0.0271  0.0710
 3999TIP3    H133556   6.434   5.237   1.816 -1.6295  0.1188  1.5126
 3999TIP3    H233557   6.394   5.091   1.804  1.9833 -0.7889 -1.1416
 4000TIP3   OH233558   3.550   5.500   0.283  0.4783 -0.3733 -0.4510
 4000TIP3    H133559   3.458   5.526   0.275 -0.0639 -1.4915  1.4057
 4000TIP3    H233560   3.564   5.438   0.211 -0.6195 -1.1219 -0.0518
 4001TIP3   OH233561   3.383   5.944   7.664  0.1463  0.1371  0.1627
 4001TIP3    H133562   3.418   5.872   7.611 -0.9402 -1.1820  1.1721
 4001TIP3    H233563   3.331   5.996   7.602  1.8448  0.7586 -0.8206
 4002TIP3   OH233564   6.804   5.387   7.795  0.8496  0.3203  0.0378
 4002TIP3    H133565   6.881   5.365   7.744  1.2647  0.5345  0.5637
 4002TIP3    H233566   6.745   5.313   7.784  1.7783 -0.5731  0.9150
 4003TIP3   OH233567   5.543   4.056   0.251 -0.4111  0.2409  0.1838
 4003TIP3    H133568   5.555   4.039   0.158  1.1782 -0.0112  0.3922
 4003TIP3    H233569   5.488   3.984   0.282  0.9716 -1.0167 -0.1544
 4004TIP3   OH233570   5.774   6.655   6.783  0.1497 -0.4762  0.5116
 4004TIP3    H133571   5.773   6.711   6.706 -0.7639 -0.7967  0.2728
 4004TIP3    H233572   5.781   6.716   6.857 -0.4573 -0.0694  0.2403
 4005TIP3   OH233573   0.516   6.209   0.209 -0.5227  0.1280  0.0338
 4005TIP3    H133574   0.485   6.148   0.276 -1.9784 -1.5997 -2.0744
 4005TIP3    H233575   0.533   6.154   0.133  0.1698  2.1308 -1.3334
 4006TIP3   OH233576   1.344   5.829   2.063  0.2766 -0.6095  0.3845
 4006TIP3    H133577   1.305   5.885   2.131 -1.5066 -0.1002 -0.9916
 4006TIP3    H233578   1.401   5.769   2.112  1.6874  1.8718  1.9973
 4007TIP3   OH233579   6.383   1.061   2.070 -0.4062 -0.0693  0.0313
 4007TIP3    H133580   6.399   1.088   1.979 -0.3169 -1.1183 -0.2805
 4007TIP3    H233581   6.416   0.971   2.074 -1.0983 -0.2991  0.9051
 4008TIP3   OH233582   1.410   1.589   1.065 -0.3260 -0.0770 -0.1130
 4008TIP3    H133583   1.417   1.570   0.972  0.0260 -1.0939  0.1178
 4008TIP3    H233584   1.498   1.576   1.100 -0.9943 -2.5259  0.8660
 4009TIP3   OH233585   4.658   1.555   6.927  0.0397 -0.1208 -0.0630
 4009TIP3    H133586   4.751   1.533   6.918 -0.2998 -1.0354 -1.8468
 4009TIP3    H233587   4.658   1.640   6.970  1.5966 -1.1638  2.2502
 4010TIP3   OH233588   4.272   0.093   8.614  0.8847  0.2766 -0.9856
 4010TIP3    H133589   4.360   0.124   8.596  1.1562 -0.7791 -1.5880
 4010TIP3    H233590   4.278   0.051   8.700  1.0685 -0.0972 -1.1747
 4011TIP3   OH233591   4.756   5.857   2.515  0.0040  0.3864  0.0523
 4011TIP3    H133592   4.678   5.815   2.479 -0.0540  0.8822 -0.4195
 4011TIP3    H233593   4.780   5.803   2.590 -0.3272 -0.2279 -0.2711
 4012TIP3   OH233594   4.493   1.935   1.508  0.0949  0.2586  0.2658
 4012TIP3    H133595   4.428   1.888   1.455  1.2063 -2.0902  0.8414
 4012TIP3    H233596   4.564   1.872   1.519  0.1949  0.7984  4.0000
 4013TIP3   OH233597   3.535   1.005   0.439  0.0608  0.0273 -0.3160
 4013TIP3    H133598   3.620   0.977   0.474 -1.3395  0.3281  3.7885
 4013TIP3    H233599   3.493   0.923   0.412  0.7936 -0.3481 -0.3605
 4014TIP3   OH233600   6.168   6.036   1.892 -0.2770  0.3249 -0.0446
 4014TIP3    H133601   6.225   6.104   1.855  0.7075 -0.6785 -0.4138
 4014TIP3    H233602   6.081   6.076   1.892 -0.1258  0.7869 -2.3780
 4015TIP3   OH233603   4.842   6.665   8.430  0.0579 -0.1129 -0.3713
 4015TIP3    H133604   4.797   6.676   8.346  0.7508 -2.0324 -1.0384
 4015TIP3    H233605   4.819   6.744   8.480 -0.8245  0.8042 -2.1389
 4016TIP3   OH233606   3.365   5.616   1.246  0.8217  0.0841  0.4019
 4016TIP3    H133607   3.456   5.589   1.232  0.6184 -1.3056  1.5706
 4016TIP3    H233608   3.316   5.574   1.176  1.0705  0.9760 -0.3346
 4017TIP3   OH233609   5.283   5.533   8.188 -0.4057 -0.1706 -0.4376
 4017TIP3    H133610   5.339   5.608   8.169 -0.9152  0.3567  0.1141
 4017TIP3    H233611   5.201   5.571   8.219  0.1784 -0.9548  2.3214
 4018TIP3   OH233612   3.036   0.406   2.793  0.1970  0.0936 -0.0131
 4018TIP3    H133613   2.995   0.462   2.859 -0.5210  0.3837 -0.6978
 4018TIP3    H233614   3.121   0.382   2.832 -0.3934 -0.1155  1.2050
 4019TIP3   OH233615   0.310   6.443   1.262  0.2783  0.2662  0.1325
 4019TIP3    H133616   0.299   6.534   1.231 -0.1317  0.1934  0.0604
 4019TIP3    H233617   0.223   6.404   1.250  0.0913  0.2510  1.4459
 4020TIP3   OH233618   3.856   6.080   1.398 -0.1175 -0.2392  0.2517
 4020TIP3    H133619   3.798   6.007   1.419 -0.2538 -0.4018 -0.6726
 4020TIP3    H233620   3.802   6.140   1.347  0.0094  0.4922  0.9518
 4021TIP3   OH233621   4.320   1.172   1.166  0.1192 -0.2579  0.4674
 4021TIP3    H133622   4.319   1.188   1.261 -0.5380 -0.2413  0.4630
 4021TIP3    H233623   4.228   1.159   1.143  0.3432 -0.9802 -0.0510
 4022TIP3   OH233624   0.299   0.463   3.308 -0.1297 -0.0575 -0.4545
 4022TIP3    H133625   0.325   0.460   3.216  1.4958 -1.3564  0.0071
 4022TIP3    H233626   0.270   0.374   3.328 -0.9327  0.3301  0.1891
 4023TIP3   OH233627   4.734   2.018   0.836 -0.4124  0.4449  0.1537
 4023TIP3    H133628   4.746   1.958   0.910 -1.2533 -0.6641 -0.5893
 4023TIP3    H233629   4.752   1.965   0.759  0.6268  1.6444 -0.4628
 4024TIP3   OH233630   0.941   5.471   1.732 -0.0101 -0.4625  0.2311
 4024TIP3    H133631   0.996   5.521   1.793  0.0702  0.8129 -0.8333
 4024TIP3    H233632   0.855   5.514   1.736 -0.1241 -0.6375 -0.2178
 4025TIP3   OH233633   1.815   2.580   0.350  0.4376  0.2445 -0.6990
 4025TIP3    H133634   1.900   2.559   0.388 -0.3501  0.1739  1.1475
 4025TIP3    H233635   1.788   2.499   0.306  1.3831  0.3311 -1.4699
 4026TIP3   OH233636   3.430   1.186   2.460  0.3042  0.5930 -0.2898
 4026TIP3    H133637   3.467   1.193   2.548 -3.1305 -1.1326  1.4887
 4026TIP3    H233638   3.411   1.277   2.435 -0.1570  1.0126  1.4658
 4027TIP3   OH233639   0.719   6.018   0.738  0.4936 -0.5563 -0.6960
 4027TIP3    H133640   0.771   5.957   0.685 -1.3366 -1.5619 -1.4074
 4027TIP3    H233641   0.698   5.970   0.818  2.0221  0.4546  0.3802
 4028TIP3   OH233642   5.599   1.909   2.879 -0.1176  0.2639 -0.2859
 4028TIP3    H133643   5.562   1.831   2.838 -0.2868 -0.8425  1.8242
 4028TIP3    H233644   5.691   1.887   2.893 -0.0770  0.5950 -0.0263
 4029TIP3   OH233645   4.441   6.146   1.116 -0.0856  0.5142  0.3815
 4029TIP3    H133646   4.432   6.071   1.056 -1.7821 -2.0804  3.5511
 4029TIP3    H233647   4.495   6.113   1.187 -3.1446  1.1491  3.2578
 4030TIP3   OH233648   6.438   1.658   0.417 -0.0729 -0.1377  0.1031
 4030TIP3    H133649   6.375   1.610   0.364 -0.9360  1.1136 -0.0589
 4030TIP3    H233650   6.384   1.712   0.475  0.8528 -0.6963  1.5448
 4031TIP3   OH233651   1.154   5.139   1.940  0.7623 -0.1493 -0.3449
 4031TIP3    H133652   1.169   5.160   2.032 -1.0717 -0.2533  0.0186
 4031TIP3    H233653   1.173   5.045   1.934 -1.5600 -0.7661  0.5898
 4032TIP3   OH233654   1.407   2.552   1.285  0.5955  0.1330  0.2254
 4032TIP3    H133655   1.358   2.479   1.247  0.2529 -0.6781  2.1368
 4032TIP3    H233656   1.437   2.520   1.370  1.3067  1.8763  0.6746
 4033TIP3   OH233657   1.187   6.478   1.317  0.3685  0.0567 -0.1336
 4033TIP3    H133658   1.202   6.390   1.282  0.4224  0.7813 -2.1027
 4033TIP3    H233659   1.247   6.485   1.391  3.0553 -0.3637 -2.1164
 4034TIP3   OH233660   2.319   0.056   8.711  0.1450 -0.6091  0.0717
 4034TIP3    H133661   2.252  -0.011   8.726 -1.1027  0.8292  1.4511
 4034TIP3    H233662   2.271   0.130   8.674  1.6860 -0.8198 -2.5633
 4035TIP3   OH233663   2.581   2.164   0.109 -0.2916 -0.2389 -0.0548
 4035TIP3    H133664   2.570   2.253   0.074  0.0828 -0.6820 -1.3197
 4035TIP3    H233665   2.558   2.173   0.202 -1.0069  1.0226 -0.3244
 4036TIP3   OH233666   0.964   1.660   1.905  0.2881 -0.0963  0.1242
 4036TIP3    H133667   0.923   1.638   1.821  0.3359  0.8098 -0.1519
 4036TIP3    H233668   1.030   1.727   1.882 -0.6594  1.2002  1.0440
 4037TIP3   OH233669   4.225   1.919   7.394 -0.1051 -0.3914 -0.3633
 4037TIP3    H133670   4.315   1.915   7.361  1.3107  0.4053  2.9673
 4037TIP3    H233671   4.204   1.830   7.419  0.3414 -0.3747  0.1055
 4038TIP3   OH233672   4.022   0.084   7.491 -0.2053 -0.7847 -0.5298
 4038TIP3    H133673   3.961   0.069   7.419 -0.3447 -2.1997 -0.1488
 4038TIP3    H233674   4.007   0.010   7.550  1.0266 -0.4911  0.1682
 4039TIP3   OH233675   6.612   0.447   0.267  0.5562 -1.2446 -0.7944
 4039TIP3    H133676   6.647   0.360   0.286  0.8193 -1.3236 -1.6082
 4039TIP3    H233677   6.639   0.465   0.177  0.3107 -0.4134 -0.7113
 4040TIP3   OH233678   0.384   5.538   8.579 -0.2210 -0.3260 -0.2973
 4040TIP3    H133679   0.405   5.601   8.647 -2.0106 -0.2180  0.2045
 4040TIP3    H233680   0.400   5.452   8.620  0.7561 -0.2496 -0.4832
 4041TIP3   OH233681   2.012   2.527   7.800 -0.6603 -0.0187 -0.2381
 4041TIP3    H133682   1.935   2.542   7.854  0.4782  0.2115  1.3901
 4041TIP3    H233683   2.067   2.604   7.813  0.2539 -0.5732 -0.6350
 4042TIP3   OH233684   1.914   3.501   8.067  0.0484  0.2384 -0.0024
 4042TIP3    H133685   1.819   3.489   8.078  0.0234  0.0554 -0.4103
 4042TIP3    H233686   1.952   3.423   8.108 -0.0147 -0.0961 -0.5721
 4043TIP3   OH233687   3.514   4.497   8.750 -0.6415  0.0791 -0.7354
 4043TIP3    H133688   3.546   4.586   8.734 -0.5501  0.0222 -0.8698
 4043TIP3    H233689   3.568   4.441   8.694 -1.2501  0.0195 -1.2759
 4044TIP3   OH233690   4.039   6.163   1.955  0.2686 -0.6094  0.3643
 4044TIP3    H133691   3.980   6.100   1.996  0.6820 -1.0286  0.3293
 4044TIP3    H233692   4.014   6.163   1.862 -0.6444  0.3159  0.5936
 4045TIP3   OH233693   4.188   6.477   6.558  0.6988 -0.0858  0.4028
 4045TIP3    H133694   4.251   6.529   6.608  1.1648 -1.2720  1.1064
 4045TIP3    H233695   4.119   6.456   6.621 -1.2509  2.4510 -0.7267
 4046TIP3   OH233696   0.083   1.619   1.848  0.4352 -0.1787  0.3754
 4046TIP3    H133697   0.033   1.685   1.894  1.2912 -0.5967  1.9690
 4046TIP3    H233698   0.051   1.624   1.758  0.2807  2.2102  0.4805
 4047TIP3   OH233699   0.403   5.596   0.540  0.2859  0.3259  0.6888
 4047TIP3    H133700   0.310   5.618   0.535  0.1889  0.0714  1.3419
 4047TIP3    H233701   0.447   5.680   0.554  0.1133  0.3880  0.8611
 4048TIP3   OH233702   4.590   6.631   0.427  0.6046  0.2468 -0.1452
 4048TIP3    H133703   4.664   6.590   0.383  0.7746  0.2729  0.1102
 4048TIP3    H233704   4.517   6.571   0.414  0.7137  0.1382 -0.2534
 4049TIP3   OH233705   3.305   3.807   2.015 -0.3395  0.1520  0.2846
 4049TIP3    H133706   3.340   3.896   2.028  0.6695 -0.0422 -0.8988
 4049TIP3    H233707   3.295   3.799   1.920  0.8619 -1.4439  0.2536
 4050TIP3   OH233708   1.860   2.858   2.331 -0.4094  0.2061 -0.2563
 4050TIP3    H133709   1.829   2.776   2.371 -1.6653 -0.6191 -2.7171
 4050TIP3    H233710   1.820   2.927   2.385 -1.4071 -0.8304  0.3857
 4051TIP3   OH233711   1.331   0.613   8.218  0.2669  0.5869  0.1303
 4051TIP3    H133712   1.303   0.564   8.141  1.8291 -2.1870  1.1677
 4051TIP3    H233713   1.419   0.644   8.197 -0.0366  1.4899  0.1390
 4052TIP3   OH233714   0.218   1.607   0.384 -0.2360 -0.1460  0.2847
 4052TIP3    H133715   0.306   1.639   0.369 -0.6498  1.6477  1.3132
 4052TIP3    H233716   0.230   1.523   0.428  0.9455 -0.0436  0.1903
 4053TIP3   OH233717   0.063   3.562   8.517 -0.3531  0.3090 -0.2309
 4053TIP3    H133718   0.085   3.495   8.452  0.2676 -0.5001  0.7715
 4053TIP3    H233719   0.042   3.640   8.466  0.2780 -0.2559 -1.3896
 4054TIP3   OH233720   2.364   5.991   3.053 -0.5261 -0.4475 -0.4102
 4054TIP3    H133721   2.290   6.052   3.045 -1.1023 -0.7946  1.5022
 4054TIP3    H233722   2.434   6.031   3.003 -1.2465  1.2084 -0.1653
 4055TIP3   OH233723   2.876   1.323   2.678 -0.5242  0.3245  0.2212
 4055TIP3    H133724   2.844   1.274   2.754 -0.2577  0.2869  0.3105
 4055TIP3    H233725   2.901   1.255   2.615 -1.2445  0.3616 -0.1094
 4056TIP3   OH233726   3.746   3.127   7.731  0.8167 -0.0410 -0.6081
 4056TIP3    H133727   3.657   3.092   7.727  0.9422 -0.2803 -1.4244
 4056TIP3    H233728   3.736   3.215   7.768  0.3182 -0.3106 -0.0850
 4057TIP3   OH233729   4.246   3.890   8.112 -0.4530  0.4212  0.2771
 4057TIP3    H133730   4.229   3.984   8.123 -0.9360  0.1915  1.7012
 4057TIP3    H233731   4.160   3.852   8.091  0.0244  0.4894 -2.0600
 4058TIP3   OH233732   2.281   5.148   0.012  0.4825  0.1810 -0.0984
 4058TIP3    H133733   2.198   5.134  -0.035  0.5818 -0.4629 -0.0964
 4058TIP3    H233734   2.347   5.152  -0.057  0.5013  0.2411 -0.0767
 4059TIP3   OH233735   6.704   5.568   2.141 -0.0510 -0.6346 -0.5991
 4059TIP3    H133736   6.659   5.575   2.225  1.7899  1.0458  0.3146
 4059TIP3    H233737   6.647   5.615   2.080  0.2512  1.2308  0.4718
 4060TIP3   OH233738   2.862   4.296   8.609  0.1675 -0.0467  0.0273
 4060TIP3    H133739   2.932   4.243   8.570  2.3930  1.7822  1.3137
 4060TIP3    H233740   2.891   4.311   8.699 -2.9664 -0.9590  1.2995
 4061TIP3   OH233741   3.329   0.379   2.218 -0.0670  0.1243  0.2453
 4061TIP3    H133742   3.285   0.305   2.175 -0.1296  1.0900 -1.4237
 4061TIP3    H233743   3.407   0.340   2.258 -1.3760 -1.2614  1.5854
 4062TIP3   OH233744   1.687   2.169   2.076 -0.3588  0.5379 -0.2061
 4062TIP3    H133745   1.595   2.187   2.095 -0.3875 -0.4760  0.7212
 4062TIP3    H233746   1.732   2.252   2.093 -1.2133  1.3814 -1.7594
 4063TIP3   OH233747   6.732   1.625   1.622  0.5209 -0.1467 -0.2074
 4063TIP3    H133748   6.722   1.560   1.553 -0.7821 -0.0840 -0.0933
 4063TIP3    H233749   6.697   1.706   1.585  0.8866  0.1654  0.1198
 4064TIP3   OH233750   0.964   4.082   0.794  0.0134 -0.0687  0.4702
 4064TIP3    H133751   1.043   4.134   0.778  0.3838 -0.5679  0.6614
 4064TIP3    H233752   0.946   4.039   0.710  0.7933 -1.1012  0.8172
 4065TIP3   OH233753   2.017   4.211   1.668 -0.1660 -0.3100  0.5345
 4065TIP3    H133754   2.050   4.179   1.751 -0.0338 -0.0608  0.5788
 4065TIP3    H233755   1.985   4.299   1.687 -1.4750 -0.7899  0.6500
 4066TIP3   OH233756   6.050   5.722   0.508 -0.3979 -0.1319  0.1239
 4066TIP3    H133757   6.036   5.766   0.424 -0.1998  0.8978  0.6183
 4066TIP3    H233758   6.143   5.701   0.509 -0.0811  1.2273  0.7219
 4067TIP3   OH233759   3.111   5.093   7.550 -0.4828  0.2071  0.8082
 4067TIP3    H133760   3.059   5.101   7.470  0.3356  3.4400  0.4445
 4067TIP3    H233761   3.198   5.066   7.519 -0.8085 -1.0197  0.9300
 4068TIP3   OH233762   3.843   1.858   1.621 -0.3463  0.1064 -0.2767
 4068TIP3    H133763   3.873   1.797   1.553  1.0599  2.8072 -2.2678
 4068TIP3    H233764   3.923   1.888   1.663 -0.7454  2.3028 -0.9811
 4069TIP3   OH233765   3.771   5.340   0.977  0.2320  0.0915 -0.2971
 4069TIP3    H133766   3.840   5.395   0.940  0.6903 -0.9144 -0.9942
 4069TIP3    H233767   3.736   5.291   0.902 -0.6593 -0.0346  0.1873
 4070TIP3   OH233768   0.694   4.293   1.934  0.2360 -0.5482  0.0737
 4070TIP3    H133769   0.624   4.314   1.996  0.1574  2.3693 -0.8637
 4070TIP3    H233770   0.766   4.263   1.989 -0.3452  0.4850  1.4638
 4071TIP3   OH233771   4.503   1.988   1.910  0.0011  0.6299 -0.1261
 4071TIP3    H133772   4.424   1.947   1.875  0.0771 -0.8852  1.3286
 4071TIP3    H233773   4.472   2.058   1.967 -0.2824  0.4925 -0.1109
 4072TIP3   OH233774   5.935   3.805   1.063 -0.3985  0.0813  0.7250
 4072TIP3    H133775   5.904   3.869   1.127 -0.8280  3.3168 -2.3909
 4072TIP3    H233776   6.029   3.818   1.060 -0.6844  2.6940 -1.6576
 4073TIP3   OH233777   4.295   5.690   7.645  0.6327  1.0173 -0.0295
 4073TIP3    H133778   4.230   5.757   7.663  0.2408  0.2721  1.4882
 4073TIP3    H233779   4.347   5.685   7.726  0.9011 -0.2225 -0.2647
 4074TIP3   OH233780   3.319   4.620   1.648 -0.4509 -0.2255  0.0842
 4074TIP3    H133781   3.303   4.651   1.737  0.6839 -1.5569  0.7947
 4074TIP3    H233782   3.414   4.608   1.643 -0.5697 -0.8711 -1.0543
 4075TIP3   OH233783   3.290   6.112   0.566 -0.0359 -0.1167  0.0055
 4075TIP3    H133784   3.203   6.104   0.606 -0.4458 -0.4733 -0.9303
 4075TIP3    H233785   3.351   6.087   0.636 -0.6703  0.2715  0.7117
 4076TIP3   OH233786   4.944   4.818   8.505 -0.0303  0.0557  0.3513
 4076TIP3    H133787   4.901   4.749   8.455  0.7591 -0.1446 -0.0708
 4076TIP3    H233788   5.037   4.802   8.492  0.1681  0.7116  0.9267
 4077TIP3   OH233789   2.404   5.615   1.195  0.3892  0.0670 -0.6391
 4077TIP3    H133790   2.352   5.689   1.226 -0.6276 -0.7882 -0.2295
 4077TIP3    H233791   2.410   5.556   1.270 -0.9731 -1.4143 -1.6060
 4078TIP3   OH233792   3.082   2.756   0.417 -0.5381 -0.3345 -0.0602
 4078TIP3    H133793   3.026   2.778   0.492  0.7612  0.7492  0.6406
 4078TIP3    H233794   3.036   2.684   0.373 -2.1840  0.1476  0.7893
 4079TIP3   OH233795   3.269   3.693   1.693  0.0304 -0.2533 -0.1800
 4079TIP3    H133796   3.186   3.701   1.646  0.5405  1.5809 -0.8530
 4079TIP3    H233797   3.319   3.770   1.665  1.7703 -1.0789  0.5786
 4080TIP3   OH233798   3.006   1.595   7.897  0.3004  0.2744 -0.0739
 4080TIP3    H133799   2.962   1.581   7.813  0.8604 -1.7787 -0.0846
 4080TIP3    H233800   3.096   1.616   7.873  0.6897 -1.2457 -0.0006
 4081TIP3   OH233801   5.373   3.849   1.641 -0.5425 -0.5058 -0.1149
 4081TIP3    H133802   5.403   3.861   1.731 -0.1087 -0.5473 -0.2538
 4081TIP3    H233803   5.404   3.927   1.595 -0.8312 -0.4482 -0.2100
 4082TIP3   OH233804   4.352   1.885   0.600 -0.3093  0.8694 -0.3798
 4082TIP3    H133805   4.263   1.892   0.566 -0.3569 -1.1650 -0.7818
 4082TIP3    H233806   4.342   1.847   0.687  0.1845 -0.1344 -0.7426
 4083TIP3   OH233807   4.154   5.567   0.946  0.0831  0.6084 -0.0695
 4083TIP3    H133808   4.148   5.642   1.005 -1.5372  0.9034 -0.5599
 4083TIP3    H233809   4.074   5.571   0.895  1.3877  0.2957 -2.2339
 4084TIP3   OH233810   2.055   4.957   2.070  0.1231  0.0319 -0.1687
 4084TIP3    H133811   2.140   5.000   2.072  1.0231 -1.6572  0.4000
 4084TIP3    H233812   1.996   5.016   2.115  1.1102  0.9955 -0.1040
 4085TIP3   OH233813   3.151   6.260   1.046 -0.8001  0.5260 -0.0475
 4085TIP3    H133814   3.107   6.280   1.129  0.1025 -0.5230  0.7116
 4085TIP3    H233815   3.085   6.214   0.995 -0.4973 -1.5884  1.3189
 4086TIP3   OH233816   0.157   1.324   7.932  0.3585 -0.5688 -0.0756
 4086TIP3    H133817   0.196   1.239   7.952  1.4060 -0.0876 -0.0429
 4086TIP3    H233818   0.216   1.388   7.972 -0.4539  0.1795 -0.0389
 4087TIP3   OH233819   4.381   4.664   1.106  0.2253  0.5315  0.2346
 4087TIP3    H133820   4.326   4.681   1.182  0.3802  0.4119  0.3745
 4087TIP3    H233821   4.380   4.746   1.057 -1.4774  0.0005 -0.6819
 4088TIP3   OH233822   2.349   3.548   1.773 -0.1565 -0.0638 -0.8196
 4088TIP3    H133823   2.389   3.461   1.778 -0.5384 -0.2588 -1.1190
 4088TIP3    H233824   2.326   3.559   1.681 -0.9917 -0.0442 -0.6113
 4089TIP3   OH233825   4.830   2.730   1.684 -0.9777 -0.5243  0.1015
 4089TIP3    H133826   4.894   2.664   1.711 -0.9227 -0.3575  0.3842
 4089TIP3    H233827   4.774   2.685   1.621 -0.2798 -0.5303 -0.5250
 4090TIP3   OH233828   2.183   5.548   2.213 -0.0884 -0.0380  0.5727
 4090TIP3    H133829   2.157   5.501   2.293  0.1815 -1.3661 -0.0866
 4090TIP3    H233830   2.128   5.511   2.144  1.2395 -0.5814 -0.2517
 4091TIP3   OH233831   4.220   5.546   1.610 -0.4719  0.9362  0.2936
 4091TIP3    H133832   4.191   5.535   1.701  1.3945 -0.3157  0.7954
 4091TIP3    H233833   4.171   5.621   1.578 -2.3120  0.4701  1.8459
 4092TIP3   OH233834   3.733   4.404   0.817 -0.1003  0.2093 -0.1313
 4092TIP3    H133835   3.680   4.385   0.739  1.4539 -1.1885 -0.8943
 4092TIP3    H233836   3.675   4.383   0.890 -1.3992  1.0034 -0.8769
 4093TIP3   OH233837   5.316   3.711   7.902 -0.8304  0.0002  0.4350
 4093TIP3    H133838   5.281   3.748   7.821 -3.0563  0.7902  1.6672
 4093TIP3    H233839   5.258   3.745   7.970  0.1193 -1.7644  2.2005
 4094TIP3   OH233840   4.203   6.663   6.957  0.2471 -0.1262  0.2600
 4094TIP3    H133841   4.139   6.603   6.918  1.1057 -1.1671  0.4038
 4094TIP3    H233842   4.288   6.631   6.926  0.7794  0.5566  0.9710
 4095TIP3   OH233843   3.787   3.447   7.831 -0.1085 -0.6964  0.5491
 4095TIP3    H133844   3.881   3.436   7.813  0.2029 -0.3173  1.8347
 4095TIP3    H233845   3.771   3.541   7.819 -0.5822 -0.9286 -0.7522
 4096TIP3   OH233846   2.505   0.943   0.730 -0.3703  0.9972  0.0290
 4096TIP3    H133847   2.520   0.941   0.825 -1.0150  0.2012  0.1298
 4096TIP3    H233848   2.410   0.942   0.721 -0.3509 -1.2115 -0.6235
 4097TIP3   OH233849   0.394   5.184   1.769  0.0932 -0.2029  0.8602
 4097TIP3    H133850   0.310   5.164   1.729  1.5038 -1.4361 -1.7198
 4097TIP3    H233851   0.454   5.198   1.696  2.1826  0.5426  2.5898
 4098TIP3   OH233852   3.481   1.203   1.074 -0.3315  0.2961  0.1283
 4098TIP3    H133853   3.406   1.260   1.089 -0.5866  0.1411 -0.5265
 4098TIP3    H233854   3.458   1.152   0.997 -0.5324 -1.4023  1.2468
 4099TIP3   OH233855   4.356   4.648   1.931 -0.0964 -0.2941  0.2453
 4099TIP3    H133856   4.385   4.598   1.855  0.6018 -0.2121  0.4590
 4099TIP3    H233857   4.265   4.672   1.910  0.6439  1.2672 -1.3704
 4100TIP3   OH233858   4.711   3.654   1.532 -0.3820 -0.6092 -0.1643
 4100TIP3    H133859   4.788   3.710   1.531  0.2026 -1.4111 -0.9302
 4100TIP3    H233860   4.680   3.658   1.623  0.4384 -0.1389  0.1039
 4101TIP3   OH233861   3.720   1.989   3.195 -0.9529  0.1426 -0.0648
 4101TIP3    H133862   3.637   1.952   3.163 -0.0488 -0.4075 -1.8352
 4101TIP3    H233863   3.766   2.018   3.117  0.9157 -0.3416  0.8050
 4102TIP3   OH233864   3.013   3.387   8.622  0.4391  0.1948 -0.0852
 4102TIP3    H133865   3.019   3.363   8.530  1.2979 -0.0672  0.0254
 4102TIP3    H233866   3.075   3.460   8.632  2.6012 -1.6432  0.8463
 4103TIP3   OH233867   2.911   6.166   1.737 -0.2514 -0.1450  0.1968
 4103TIP3    H133868   2.926   6.260   1.725  1.9959 -0.4149  0.5416
 4103TIP3    H233869   2.958   6.124   1.665  0.8731 -1.1029  1.4448
 4104TIP3   OH233870   5.961   1.084   2.920  0.2292  0.4530 -0.0555
 4104TIP3    H133871   5.904   1.032   2.976  0.6386 -0.7566 -0.7275
 4104TIP3    H233872   6.047   1.041   2.927  1.0718  2.1895  0.8778
 4105TIP3   OH233873   6.614   5.648   0.375  0.4546  0.0409  0.3208
 4105TIP3    H133874   6.638   5.621   0.464 -1.3861 -0.2106  0.7744
 4105TIP3    H233875   6.632   5.742   0.373 -0.2947  0.2186  1.2539
 4106TIP3   OH233876   5.773   0.849   0.656  0.0989 -0.2962 -0.1125
 4106TIP3    H133877   5.855   0.822   0.696 -1.1014 -2.9397  0.7948
 4106TIP3    H233878   5.784   0.829   0.563 -0.5105 -3.7518  0.4283
 4107TIP3   OH233879   3.390   6.656   1.718 -0.0247 -0.3577  0.1168
 4107TIP3    H133880   3.297   6.634   1.711 -0.8742  2.1925  1.8739
 4107TIP3    H233881   3.404   6.721   1.649 -0.4734  1.6018  1.7368
 4108TIP3   OH233882   1.907   4.425   7.301 -0.3794  0.0916  0.0150
 4108TIP3    H133883   1.996   4.392   7.317 -0.6718  0.2302  2.2234
 4108TIP3    H233884   1.853   4.377   7.363 -1.6972  0.7963 -0.5592
 4109TIP3   OH233885   1.703   0.569   1.561  0.1101  0.3664  0.1878
 4109TIP3    H133886   1.644   0.532   1.627  0.4175 -1.6482 -0.5897
 4109TIP3    H233887   1.694   0.511   1.486 -0.1398  2.5272 -1.5546
 4110TIP3   OH233888   5.586   4.881   0.714 -0.0859  0.2418 -0.0662
 4110TIP3    H133889   5.543   4.799   0.740  0.2123 -0.1908 -0.9327
 4110TIP3    H233890   5.626   4.913   0.795 -1.8644  0.5807  0.7484
 4111TIP3   OH233891   0.021   1.593   2.418 -0.2805  0.3408 -0.0301
 4111TIP3    H133892  -0.070   1.608   2.394 -0.5637  1.2283  1.4609
 4111TIP3    H233893   0.055   1.534   2.350 -1.1549  2.1889 -2.1800
 4112TIP3   OH233894   1.330   5.976   7.901  0.3761 -0.0624 -0.0684
 4112TIP3    H133895   1.374   5.946   7.821 -0.7502 -2.2636  0.0663
 4112TIP3    H233896   1.333   6.071   7.895  1.6301 -0.1521 -1.9914
 4113TIP3   OH233897   2.972   5.196   8.130  0.1155  0.4597 -0.1735
 4113TIP3    H133898   2.910   5.269   8.127  0.1474  0.5375  0.7279
 4113TIP3    H233899   2.957   5.148   8.049  0.1113  1.4857 -0.8037
 4114TIP3   OH233900   2.687   2.754   6.955 -0.3199 -0.2232  0.7452
 4114TIP3    H133901   2.707   2.826   6.896 -0.2537 -0.3258  0.6435
 4114TIP3    H233902   2.612   2.710   6.915 -0.4708 -0.1061  0.8976
 4115TIP3   OH233903   3.287   6.128   8.748 -0.0813 -0.6198 -0.1926
 4115TIP3    H133904   3.208   6.076   8.765  0.1966 -0.7746  0.6890
 4115TIP3    H233905   3.343   6.112   8.824 -0.0010  1.0019  0.1273
 4116TIP3   OH233906   0.182   4.233   2.696 -0.5479  0.0429 -0.3165
 4116TIP3    H133907   0.126   4.204   2.768  0.0014 -0.2362  0.0037
 4116TIP3    H233908   0.193   4.327   2.710 -0.5153  0.0049 -0.0857
 4117TIP3   OH233909   6.110   6.579   7.615 -0.2217 -0.1247  0.2736
 4117TIP3    H133910   6.057   6.522   7.670 -1.4560  1.6999  1.0838
 4117TIP3    H233911   6.195   6.536   7.610 -0.8964 -1.6825  1.3470
 4118TIP3   OH233912   2.890   2.720   8.690 -0.1898 -0.0605 -0.5426
 4118TIP3    H133913   2.921   2.806   8.720  2.4687 -0.8818 -0.6382
 4118TIP3    H233914   2.866   2.735   8.598 -1.4066  0.9220 -0.0839
 4119TIP3   OH233915   2.332   4.424   0.503 -0.1376  0.5878  0.3138
 4119TIP3    H133916   2.402   4.477   0.465  0.4506 -0.2758  0.1672
 4119TIP3    H233917   2.340   4.339   0.460 -0.8069  0.2545  0.8370
 4120TIP3   OH233918   5.237   4.321   2.397  0.5341  0.4644  0.7495
 4120TIP3    H133919   5.251   4.317   2.492  0.1664 -2.4709  0.7696
 4120TIP3    H233920   5.315   4.279   2.361 -0.1536 -0.0773 -0.1265
 4121TIP3   OH233921   0.484   4.852   7.629  0.2320 -0.2050 -0.0362
 4121TIP3    H133922   0.405   4.864   7.577  1.2436  0.1217 -1.5486
 4121TIP3    H233923   0.521   4.769   7.599  1.0527  0.1986 -0.1714
 4122TIP3   OH233924   3.011   6.601   1.496 -0.2179 -0.0560 -0.3838
 4122TIP3    H133925   2.959   6.589   1.417 -0.9608  0.4030  0.0217
 4122TIP3    H233926   3.059   6.682   1.482 -1.6513  0.9455  0.3115
 4123TIP3   OH233927   5.890   5.420   8.364 -0.4983 -0.2257 -0.1846
 4123TIP3    H133928   5.834   5.435   8.440 -1.9639 -0.9417 -1.0830
 4123TIP3    H233929   5.935   5.504   8.350 -0.3516 -0.0268  1.3159
 4124TIP3   OH233930   1.140   6.741   8.285 -0.7424 -0.1577  0.1054
 4124TIP3    H133931   1.090   6.787   8.217 -0.9581  0.3238  0.5884
 4124TIP3    H233932   1.160   6.808   8.350  1.0963 -0.1895 -0.3718
 4125TIP3   OH233933   4.261   6.643   0.826 -0.4151 -0.1810  0.1001
 4125TIP3    H133934   4.200   6.672   0.758  0.0685  0.1405 -0.1965
 4125TIP3    H233935   4.340   6.616   0.779 -0.3201 -0.5916  0.4843
 4126TIP3   OH233936   1.580   3.929   0.420  0.0439  0.2427  0.6299
 4126TIP3    H133937   1.549   3.853   0.470  0.8403  0.4264  1.4371
 4126TIP3    H233938   1.674   3.913   0.408  0.0813  0.7699  0.2141
 4127TIP3   OH233939   6.558   6.309   1.813  0.2861 -0.2554  0.3365
 4127TIP3    H133940   6.576   6.338   1.902 -0.2407  1.2331 -0.0100
 4127TIP3    H233941   6.629   6.347   1.761 -0.0874 -0.0734 -0.0446
 4128TIP3   OH233942   2.783   1.665   8.012 -0.3309  0.3479  0.1230
 4128TIP3    H133943   2.768   1.591   8.070 -1.5527  1.2085  0.9403
 4128TIP3    H233944   2.872   1.652   7.979  0.3040 -0.2874  1.9899
 4129TIP3   OH233945   2.230   1.082   8.485 -0.3343  0.0372  0.0697
 4129TIP3    H133946   2.267   1.040   8.407 -2.0483 -0.4024 -0.5456
 4129TIP3    H233947   2.292   1.062   8.555 -0.5339 -2.6508 -0.4108
 4130TIP3   OH233948   5.277   6.527   1.138 -0.1664  0.1249 -0.7277
 4130TIP3    H133949   5.299   6.436   1.116 -1.1696 -0.5552  0.9299
 4130TIP3    H233950   5.332   6.548   1.213 -0.4388  0.6658 -0.6757
 4131TIP3   OH233951   2.582   1.657   2.107 -0.2787 -0.0826  0.0515
 4131TIP3    H133952   2.489   1.641   2.120 -0.0712 -1.3438  0.0438
 4131TIP3    H233953   2.607   1.714   2.179 -0.5794 -1.5893  1.3929
 4132TIP3   OH233954   0.977   4.324   1.755  0.7374 -0.0600  0.5313
 4132TIP3    H133955   1.024   4.328   1.672  0.1893  0.7168  0.2452
 4132TIP3    H233956   1.025   4.260   1.807  0.4141 -1.4262 -0.7975
 4133TIP3   OH233957   5.253   3.595   8.299  0.0048 -0.2245 -0.2396
 4133TIP3    H133958   5.289   3.649   8.369 -1.7996  0.1602  0.4440
 4133TIP3    H233959   5.215   3.658   8.238 -1.2495 -0.6550  0.0684
 4134TIP3   OH233960   0.342   1.109   7.824  0.3151  0.5963 -0.1112
 4134TIP3    H133961   0.264   1.070   7.785  0.3079  0.1576  0.3296
 4134TIP3    H233962   0.359   1.186   7.770 -0.1260  0.4189 -0.5209
 4135TIP3   OH233963   3.663   2.055   1.579  0.4981  0.0853 -0.4617
 4135TIP3    H133964   3.602   2.034   1.509  0.9084  0.8450 -1.0658
 4135TIP3    H233965   3.712   1.974   1.594 -1.6113 -1.0173  1.0694
 4136TIP3   OH233966   1.798   5.592   2.095 -0.2081 -0.7868  0.0740
 4136TIP3    H133967   1.777   5.643   2.016  1.1266  1.7897  1.2324
 4136TIP3    H233968   1.773   5.649   2.167  1.6557 -1.6240  1.4763
 4137TIP3   OH233969   5.951   0.079   7.828  0.3400 -0.3796  0.2053
 4137TIP3    H133970   5.948   0.017   7.901  1.3529 -1.3016 -0.5124
 4137TIP3    H233971   5.859   0.097   7.810 -0.0084 -1.8840  0.2799
 4138TIP3   OH233972   4.533   1.344   7.875 -0.3149 -0.1557  0.1864
 4138TIP3    H133973   4.552   1.418   7.933  1.9168 -0.2761 -0.3303
 4138TIP3    H233974   4.454   1.371   7.829  0.0887  1.6506  0.4550
 4139TIP3   OH233975   5.583   4.359   7.561  0.5247 -0.4232  0.2548
 4139TIP3    H133976   5.543   4.301   7.496 -1.6589  2.5776 -1.3301
 4139TIP3    H233977   5.677   4.352   7.544  0.2483 -2.2864 -0.8646
 4140TIP3   OH233978   2.301   4.637   0.976  0.0941  0.2374 -0.5288
 4140TIP3    H133979   2.210   4.661   0.991 -0.4021 -1.8593  0.0735
 4140TIP3    H233980   2.313   4.644   0.882 -0.5536  0.9445 -0.5649
 4141TIP3   OH233981   6.125   6.481   2.603  0.2748  0.1748  0.3657
 4141TIP3    H133982   6.191   6.548   2.586  1.1812 -0.7083  0.3079
 4141TIP3    H233983   6.172   6.413   2.652 -0.8693  0.0308  1.3141
 4142TIP3   OH233984   2.736   0.956   2.166  0.1929  0.2034  0.1932
 4142TIP3    H133985   2.748   0.889   2.099 -0.2554  0.6280 -0.3152
 4142TIP3    H233986   2.738   1.039   2.119 -0.4592  0.4921  0.6529
 4143TIP3   OH233987   0.322   6.477   8.722  0.3997  0.2302  0.4103
 4143TIP3    H133988   0.317   6.449   8.630  0.3851  1.5272 -0.0121
 4143TIP3    H233989   0.397   6.537   8.724  0.3287  0.3009  1.2287
 4144TIP3   OH233990   6.155   3.660   7.661  0.0529  0.6268  0.0484
 4144TIP3    H133991   6.138   3.747   7.627 -0.4613  0.2591 -0.6458
 4144TIP3    H233992   6.089   3.647   7.730  0.4833  0.9911  0.5409
 4145TIP3   OH233993   2.534   4.923   1.002  0.6103 -0.0382 -0.0097
 4145TIP3    H133994   2.530   5.010   0.961 -0.2440 -0.4431 -0.8582
 4145TIP3    H233995   2.451   4.916   1.050  1.6189  0.4350  1.8557
 4146TIP3   OH233996   2.428   2.111   7.084 -0.2723  0.0128 -0.0672
 4146TIP3    H133997   2.423   2.177   7.015 -0.4752 -0.3368 -0.3961
 4146TIP3    H233998   2.353   2.131   7.141  0.4386  0.8736  0.5836
 4147TIP3   OH233999   5.179   5.280   2.184  0.1885 -0.0656  0.1050
 4147TIP3    H134000   5.239   5.350   2.210  0.1349 -0.3386  0.9859
 4147TIP3    H234001   5.132   5.317   2.108  1.8282 -0.0702 -0.9629
 4148TIP3   OH234002   1.731   0.378   8.541  0.2018  0.2634  0.0575
 4148TIP3    H134003   1.737   0.445   8.609  0.8464  0.5081 -0.2347
 4148TIP3    H234004   1.794   0.406   8.474  0.7201 -0.8246  0.0885
 4149TIP3   OH234005   0.503   6.727   2.787  0.2954  0.5464 -0.7948
 4149TIP3    H134006   0.586   6.681   2.779  1.0002  1.5490  0.4098
 4149TIP3    H234007   0.525   6.808   2.832 -1.3324  0.8718 -0.5350
 4150TIP3   OH234008   4.657   3.746   0.631 -0.2364 -0.1269 -0.0498
 4150TIP3    H134009   4.676   3.746   0.724  0.5267  0.7926 -0.1881
 4150TIP3    H234010   4.705   3.822   0.596 -1.8651  0.5694 -0.9121
 4151TIP3   OH234011   2.918   5.225   0.595 -0.6781  0.5440 -0.1769
 4151TIP3    H134012   2.974   5.301   0.582 -1.1904  0.9284 -0.1521
 4151TIP3    H234013   2.925   5.205   0.688  1.6954 -1.1994 -0.6398
 4152TIP3   OH234014   5.006   1.331   3.044 -0.4037 -0.5689 -0.1341
 4152TIP3    H134015   4.947   1.354   2.972  0.2097 -2.0011 -1.1324
 4152TIP3    H234016   4.975   1.246   3.075 -0.2618 -0.2669  0.8769
 4153TIP3   OH234017   5.151   4.830   1.450 -0.0352  0.4295  0.4451
 4153TIP3    H134018   5.208   4.857   1.521  0.8682  1.0407 -0.4886
 4153TIP3    H234019   5.096   4.907   1.433 -1.0392 -0.0926  1.2167
 4154TIP3   OH234020   4.552   2.671   2.958  0.7299  0.0280 -0.1418
 4154TIP3    H134021   4.629   2.622   2.930  1.1954  0.2375  0.7360
 4154TIP3    H234022   4.525   2.628   3.039  0.1824  0.2364 -0.2111
 4155TIP3   OH234023   0.830   2.756   1.889 -0.2134 -0.3130 -0.4530
 4155TIP3    H134024   0.810   2.710   1.971  0.4331 -2.5091 -1.4670
 4155TIP3    H234025   0.772   2.716   1.824  1.0034 -0.3398 -1.5530
 4156TIP3   OH234026   3.611   4.044   1.967 -0.3538  0.3214 -0.5015
 4156TIP3    H134027   3.623   3.984   2.040 -0.3326  0.2503 -0.5634
 4156TIP3    H234028   3.542   4.104   1.996 -0.5320  0.1297 -0.5257
 4157TIP3   OH234029   4.082   0.746   8.509 -0.1006 -0.4196  0.7682
 4157TIP3    H134030   4.062   0.715   8.421  1.1257 -1.1557  0.7306
 4157TIP3    H234031   4.106   0.838   8.498 -0.3395 -0.4021  0.3922
 4158TIP3   OH234032   2.540   2.184   0.752  0.0574 -0.8110 -0.4861
 4158TIP3    H134033   2.462   2.147   0.794  0.3329 -1.6470 -0.6852
 4158TIP3    H234034   2.506   2.233   0.677 -0.3287 -0.5274 -0.1339
 4159TIP3   OH234035   0.856   4.402   0.617 -0.0731  0.0299  0.2917
 4159TIP3    H134036   0.869   4.450   0.535 -1.6111 -0.4278 -0.2676
 4159TIP3    H234037   0.797   4.330   0.592 -1.4655  0.5138  2.0019
 4160TIP3   OH234038   1.491   3.857   7.788 -0.2406 -0.1269 -0.3586
 4160TIP3    H134039   1.401   3.864   7.756 -0.0833 -1.2111 -1.1175
 4160TIP3    H234040   1.534   3.797   7.726  0.3132 -1.6537  1.3889
 4161TIP3   OH234041   0.414   1.026   1.261  0.6437  0.2235  0.4535
 4161TIP3    H134042   0.487   0.991   1.312  0.9868  0.9800  0.4980
 4161TIP3    H234043   0.420   0.981   1.177  0.6343 -0.3516  0.7551
 4162TIP3   OH234044   4.070   5.756   1.485 -0.0981 -0.2196 -0.0978
 4162TIP3    H134045   4.017   5.732   1.560  0.4413 -2.8026 -0.4625
 4162TIP3    H234046   4.014   5.739   1.409 -0.2319  1.2652 -0.3689
 4163TIP3   OH234047   2.601   6.041   2.919 -0.5651  0.1984 -0.1620
 4163TIP3    H134048   2.609   6.132   2.891 -0.8184  0.2057 -0.2065
 4163TIP3    H234049   2.640   5.990   2.847  0.4964  0.3230  0.2961
 4164TIP3   OH234050   5.797   3.878   1.668 -0.2349  0.1021 -0.4192
 4164TIP3    H134051   5.876   3.839   1.705 -0.0342 -0.7793 -1.6953
 4164TIP3    H234052   5.829   3.957   1.623  0.1277 -0.7810 -1.7910
 4165TIP3   OH234053   4.564   0.185   1.887 -0.3077 -0.0541 -0.5061
 4165TIP3    H134054   4.500   0.227   1.830 -1.5063 -1.1663 -0.0225
 4165TIP3    H234055   4.526   0.100   1.907  1.6480 -1.0368 -0.7508
 4166TIP3   OH234056   2.912   5.723   7.704 -0.3342 -0.0954 -0.0758
 4166TIP3    H134057   2.994   5.756   7.741  1.1038 -1.5130 -1.8034
 4166TIP3    H234058   2.914   5.629   7.719 -1.1672 -0.2902 -1.0273
 4167TIP3   OH234059   5.978   2.324   1.439  0.0519 -0.0202  0.2447
 4167TIP3    H134060   6.070   2.320   1.415  0.0880  0.1447  0.3533
 4167TIP3    H234061   5.970   2.404   1.491 -0.5992  1.2407 -1.7068
 4168TIP3   OH234062   0.167   3.931   2.761  0.2604 -0.4683  0.2509
 4168TIP3    H134063   0.258   3.952   2.781  0.1759 -1.4997  1.9252
 4168TIP3    H234064   0.117   4.006   2.793  0.6279  1.3090 -2.9908
 4169TIP3   OH234065   3.284   0.523   1.554  0.7262 -0.2124 -0.6949
 4169TIP3    H134066   3.310   0.600   1.604  0.7722  0.1605 -1.2815
 4169TIP3    H234067   3.188   0.529   1.550  0.8004  0.6027 -1.9418
 4170TIP3   OH234068   0.888   2.612   3.021  0.0778  0.3344  0.4054
 4170TIP3    H134069   0.799   2.580   3.037  0.0327  0.5580  0.6065
 4170TIP3    H234070   0.890   2.698   3.062  0.0551  0.7941 -0.5341
 4171TIP3   OH234071   5.364   5.240   3.132  0.1107  0.3664  0.1031
 4171TIP3    H134072   5.339   5.306   3.197  2.7785  2.3569 -0.6551
 4171TIP3    H234073   5.388   5.292   3.055 -0.7215 -1.7648 -1.6698
 4172TIP3   OH234074   4.245   6.371   0.115 -0.4329 -0.3711 -0.5058
 4172TIP3    H134075   4.216   6.338   0.029 -3.9101 -0.3388  0.4780
 4172TIP3    H234076   4.272   6.461   0.098 -3.0782  0.3737 -1.3970
 4173TIP3   OH234077   6.496   6.397   2.509 -0.3205  0.2624 -0.3487
 4173TIP3    H134078   6.444   6.348   2.573  1.6479 -1.5008  0.0500
 4173TIP3    H234079   6.548   6.458   2.561 -0.3969  0.4576 -0.5008
 4174TIP3   OH234080   4.284   4.726   0.769  0.4550 -0.4905 -0.1189
 4174TIP3    H134081   4.265   4.633   0.770 -0.3470 -0.3380 -0.4008
 4174TIP3    H234082   4.199   4.768   0.784  0.4424  0.2190 -1.8653
 4175TIP3   OH234083   1.523   3.580   0.740  0.1775  0.0155 -0.0721
 4175TIP3    H134084   1.582   3.582   0.815  0.6432 -0.1634 -0.4267
 4175TIP3    H234085   1.441   3.618   0.772 -0.0317 -1.1618  0.8529
 4176TIP3   OH234086   0.375   0.556   1.629 -0.1678  0.8050  0.3265
 4176TIP3    H134087   0.352   0.492   1.562  0.5056 -2.3898  2.8838
 4176TIP3    H234088   0.305   0.620   1.627 -0.9216  0.0161 -2.3746
 4177TIP3   OH234089   1.382   2.244   0.196 -0.5842 -0.3006  0.4416
 4177TIP3    H134090   1.454   2.187   0.169 -0.7822 -0.4154  0.1508
 4177TIP3    H234091   1.373   2.307   0.126  0.8639  1.2738  1.6038
 4178TIP3   OH234092   1.218   3.023   0.190  0.1137 -0.5847  0.3166
 4178TIP3    H134093   1.310   3.042   0.208 -0.1207 -0.4600  1.4840
 4178TIP3    H234094   1.179   3.109   0.172  0.4690 -0.7712 -1.4864
 4179TIP3   OH234095   6.125   1.482   0.585 -0.1720 -0.2412 -0.0538
 4179TIP3    H134096   6.155   1.571   0.566  0.5187 -0.4645 -0.0148
 4179TIP3    H234097   6.108   1.481   0.679 -0.1941 -0.1443 -0.0573
 4180TIP3   OH234098   3.448   2.159   0.433  0.3920 -0.2241  0.2146
 4180TIP3    H134099   3.531   2.132   0.394  0.1792  0.0134 -0.4120
 4180TIP3    H234100   3.466   2.165   0.527  0.3357 -3.0667  0.4855
 4181TIP3   OH234101   2.643   2.935   0.657  0.1110  0.0118 -0.2689
 4181TIP3    H134102   2.633   2.943   0.752 -0.6081 -1.3925 -0.2029
 4181TIP3    H234103   2.737   2.941   0.642  0.2179  0.4200  0.5036
 4182TIP3   OH234104   4.961   6.453   1.393 -0.4762  0.1518 -0.4237
 4182TIP3    H134105   4.975   6.364   1.359 -0.6501 -0.4850  1.1078
 4182TIP3    H234106   4.991   6.510   1.322 -0.5184 -1.1157 -1.5097
 4183TIP3   OH234107   3.506   4.060   0.603  0.2525 -0.0913  0.0657
 4183TIP3    H134108   3.437   4.117   0.638 -1.5318 -1.6160 -0.8076
 4183TIP3    H234109   3.579   4.120   0.584 -0.4177  1.4274  1.9511
 4184TIP3   OH234110   1.780   4.062   1.536  0.3220 -0.6766 -0.0993
 4184TIP3    H134111   1.848   4.092   1.597 -0.4161 -0.7755  0.7927
 4184TIP3    H234112   1.780   4.128   1.466 -0.1881  0.5575  1.0224
 4185TIP3   OH234113   1.650   3.487   8.142 -0.2601 -0.7085  0.0827
 4185TIP3    H134114   1.619   3.576   8.159  1.0175 -0.1776 -0.2818
 4185TIP3    H234115   1.570   3.435   8.137 -0.9618 -0.0219  2.5757
 4186TIP3   OH234116   1.677   1.929   7.537  0.0979  0.2699  0.3613
 4186TIP3    H134117   1.747   1.867   7.513  0.2637  0.4706  0.3221
 4186TIP3    H234118   1.603   1.903   7.483  0.6815  1.1577 -0.9166
 4187TIP3   OH234119   2.511   0.724   0.560 -0.1607  0.4002  0.0593
 4187TIP3    H134120   2.525   0.801   0.506  0.0816 -0.0075 -0.4677
 4187TIP3    H234121   2.554   0.744   0.643 -1.1624  1.3261  0.3730
 4188TIP3   OH234122   5.931   0.091   2.078  0.1328 -0.0881  0.1516
 4188TIP3    H134123   5.977   0.105   2.160 -1.4109 -0.0229  1.0421
 4188TIP3    H234124   5.903  -0.000   2.081 -1.4734  0.3883  0.5524
 4189TIP3   OH234125   2.157   1.673   1.451 -0.5441 -0.5143 -0.2411
 4189TIP3    H134126   2.134   1.737   1.384 -0.2818 -0.4837 -0.3049
 4189TIP3    H234127   2.086   1.609   1.449 -1.6578  0.6160  0.9282
 4190TIP3   OH234128   2.661   1.892   0.726  0.0655  0.1048  0.1387
 4190TIP3    H134129   2.752   1.864   0.717  0.4815  1.3034  0.4705
 4190TIP3    H234130   2.666   1.986   0.741 -1.2465  0.2255 -0.0610
 4191TIP3   OH234131   0.850   3.595   1.216  0.2340 -0.0719 -0.1232
 4191TIP3    H134132   0.799   3.614   1.296  0.0603  0.8410 -0.4413
 4191TIP3    H234133   0.842   3.674   1.163  0.6010 -0.5577 -0.9236
 4192TIP3   OH234134   5.904   2.511   1.636 -0.2806  0.3378 -0.0450
 4192TIP3    H134135   5.837   2.536   1.700 -0.2806  1.4365 -0.4543
 4192TIP3    H234136   5.946   2.593   1.612  2.8387 -0.4688  1.9480
 4193TIP3   OH234137   3.369   3.517   0.206  0.2986 -0.0881 -0.0808
 4193TIP3    H134138   3.444   3.552   0.254 -0.5089 -0.7536  1.7160
 4193TIP3    H234139   3.293   3.561   0.243 -0.4054 -1.0784 -0.2982
 4194TIP3   OH234140   4.108   4.859   0.577  0.3371  0.2398  0.2834
 4194TIP3    H134141   4.022   4.863   0.617 -0.8701 -0.8590 -1.9884
 4194TIP3    H234142   4.137   4.769   0.591  0.7847  0.3992  0.4038
 4195TIP3   OH234143   3.578   0.359   7.836  0.2595 -0.5163 -0.1774
 4195TIP3    H134144   3.566   0.431   7.774 -1.8034 -1.5291 -1.0598
 4195TIP3    H234145   3.595   0.402   7.920 -0.8364  0.9970 -0.6946
 4196TIP3   OH234146   6.583   4.843   1.698 -0.4916 -0.0419  1.1282
 4196TIP3    H134147   6.602   4.759   1.741 -3.2346 -1.1332  0.4289
 4196TIP3    H234148   6.510   4.824   1.639  2.4253  1.5059 -3.5893
 4197TIP3   OH234149   0.656   4.275   0.068  0.2663  0.0935  0.1828
 4197TIP3    H134150   0.731   4.259   0.010  0.8717 -0.3544  1.0570
 4197TIP3    H234151   0.669   4.213   0.140 -0.3146  0.8270  0.9286
 4198TIP3   OH234152   2.976   2.476   2.131 -0.4247  1.0198 -0.1114
 4198TIP3    H134153   2.909   2.541   2.108 -2.9782 -1.6672 -0.8787
 4198TIP3    H234154   2.936   2.424   2.201 -0.1544 -1.9604 -1.9716
 4199TIP3   OH234155   2.337   5.804   0.060 -0.2879  0.2652  0.0546
 4199TIP3    H134156   2.419   5.853   0.066 -0.1344  0.0034  0.0977
 4199TIP3    H234157   2.360   5.726   0.009 -0.1457 -0.5727  1.3671
 4200TIP3   OH234158   5.663   1.871   3.334 -0.2510 -0.2948 -0.5666
 4200TIP3    H134159   5.607   1.799   3.305 -0.7660  0.4109 -1.3655
 4200TIP3    H234160   5.751   1.833   3.335 -0.4994 -0.9139 -1.0813
 4201TIP3   OH234161   5.456   1.193   1.698  0.5541  0.0870 -0.5986
 4201TIP3    H134162   5.386   1.257   1.710  0.9081  0.7317 -1.8074
 4201TIP3    H234163   5.523   1.219   1.761 -0.4924 -0.8893  0.9884
 4202TIP3   OH234164   4.076   0.334   0.785  0.2047  0.5275  0.7118
 4202TIP3    H134165   4.041   0.353   0.698  1.1955 -0.8714 -0.0348
 4202TIP3    H234166   4.010   0.369   0.845 -1.6972 -0.5156 -0.6190
 4203TIP3   OH234167   4.225   6.413   7.132  0.0366 -0.3041 -0.0362
 4203TIP3    H134168   4.248   6.491   7.182 -0.5984  2.7320 -4.0027
 4203TIP3    H234169   4.293   6.406   7.065 -1.6559 -1.1906 -1.7529
 4204TIP3   OH234170   5.583   0.066   0.435  0.3256 -0.1988 -0.0823
 4204TIP3    H134171   5.502   0.107   0.402 -0.5734 -0.6482  1.4950
 4204TIP3    H234172   5.586  -0.019   0.391 -0.2586 -0.3305  0.1256
 4205TIP3   OH234173   1.826   1.868   0.408  0.6317  0.1284 -0.1449
 4205TIP3    H134174   1.867   1.803   0.352  0.6930 -0.7148  0.8416
 4205TIP3    H234175   1.739   1.831   0.427  0.0685  1.0669 -0.8053
 4206TIP3   OH234176   2.150   2.097   1.376  0.2921 -0.3221 -0.6534
 4206TIP3    H134177   2.075   2.042   1.398 -0.0003  0.2043 -0.3070
 4206TIP3    H234178   2.124   2.185   1.404  0.9126 -0.0782 -0.8255
 4207TIP3   OH234179   0.853   2.491   1.630 -0.9855  0.0053 -0.2858
 4207TIP3    H134180   0.817   2.402   1.634 -1.7649  0.3501  1.2973
 4207TIP3    H234181   0.800   2.535   1.564  0.0393 -0.9411 -1.7955
 4208TIP3   OH234182   1.437   2.946   7.549 -0.4008 -0.0343  0.0619
 4208TIP3    H134183   1.453   2.852   7.547  2.1199  0.2609  1.9735
 4208TIP3    H234184   1.455   2.976   7.460 -0.3115 -1.2065 -0.3270
 4209TIP3   OH234185   2.950   1.291   7.664 -0.0010  0.6231  0.2432
 4209TIP3    H134186   2.939   1.218   7.602  2.4453  0.4585 -0.0951
 4209TIP3    H234187   3.011   1.258   7.729 -1.0689  1.4565  1.7108
 4210TIP3   OH234188   2.794   2.886   2.469 -0.2888  0.1650  0.0201
 4210TIP3    H134189   2.709   2.853   2.498 -0.8085 -0.6161 -2.2012
 4210TIP3    H234190   2.773   2.954   2.405  0.6861 -0.8362 -1.4389
 4211TIP3   OH234191   1.160   4.580   6.890  0.1392 -0.3102  0.1166
 4211TIP3    H134192   1.238   4.570   6.835  0.5285  1.1157  0.3939
 4211TIP3    H234193   1.171   4.664   6.934 -0.7580 -0.8609  1.4611
 4212TIP3   OH234194   1.217   6.363   8.281 -0.1768  0.1184 -0.1910
 4212TIP3    H134195   1.230   6.275   8.318 -0.3291  0.4709  0.7519
 4212TIP3    H234196   1.169   6.410   8.350 -2.6356  0.1192 -1.7865
 4213TIP3   OH234197   3.526   4.747   0.251  0.0091  0.5548  0.1057
 4213TIP3    H134198   3.587   4.794   0.308 -0.2827  0.3488  0.5921
 4213TIP3    H234199   3.497   4.673   0.303 -0.3984  0.4623 -0.2493
 4214TIP3   OH234200   3.854   2.811   8.599  0.4231  0.1087  1.1361
 4214TIP3    H134201   3.933   2.865   8.596  0.8730 -0.5713 -0.4090
 4214TIP3    H234202   3.864   2.750   8.526 -1.3320 -0.2941  1.1821
 4215TIP3   OH234203   0.171   2.743   8.583  0.0426  0.0515  0.7747
 4215TIP3    H134204   0.216   2.673   8.536 -1.7204 -1.0998  0.6658
 4215TIP3    H234205   0.126   2.698   8.655 -1.8617  0.8677  0.1824
 4216TIP3   OH234206   3.937   5.868   8.266  0.1972 -0.0655 -0.5881
 4216TIP3    H134207   3.889   5.945   8.296 -1.3379 -1.0490 -0.3900
 4216TIP3    H234208   3.908   5.798   8.324  1.6654 -0.7783 -0.6758
 4217TIP3   OH234209   4.871   6.582   7.543  0.4653 -0.0221 -0.3070
 4217TIP3    H134210   4.811   6.515   7.575 -1.1565  0.0404 -2.8953
 4217TIP3    H234211   4.869   6.649   7.611  0.0198 -1.3928  1.0944
 4218TIP3   OH234212   4.246   4.483   7.736 -0.3476 -0.0338  0.2497
 4218TIP3    H134213   4.280   4.410   7.684 -1.8363 -1.5813  1.3301
 4218TIP3    H234214   4.287   4.471   7.822 -1.7172 -0.5065  0.8609
 4219TIP3   OH234215   0.764   1.959   1.679  0.1921  0.1122  0.2926
 4219TIP3    H134216   0.688   1.984   1.732 -0.9948 -2.0987 -0.2272
 4219TIP3    H234217   0.809   1.893   1.733  0.4965 -0.1752 -0.3096
 4220TIP3   OH234218   3.622   2.092   2.435  0.1079 -0.8017 -0.2936
 4220TIP3    H134219   3.655   2.155   2.499  0.7591 -2.7732  1.4208
 4220TIP3    H234220   3.695   2.081   2.373 -0.0219  0.0993 -0.6240
 4221TIP3   OH234221   6.004   5.430   0.778  0.3528 -0.4804  0.4805
 4221TIP3    H134222   5.946   5.455   0.706  1.0901  0.0408  0.0505
 4221TIP3    H234223   6.092   5.455   0.747  0.8043 -1.2594  1.1130
 4222TIP3   OH234224   2.079   1.920   7.901 -0.6359  0.1254 -0.8276
 4222TIP3    H134225   2.043   1.837   7.870  0.1246 -0.5304  0.0049
 4222TIP3    H234226   2.036   1.936   7.985  0.8028 -0.5578  0.0742
 4223TIP3   OH234227   3.899   4.031   8.305 -0.1778  0.0510  0.4150
 4223TIP3    H134228   3.820   4.085   8.307 -0.3448 -0.1922  2.1359
 4223TIP3    H234229   3.969   4.090   8.334  0.2775  0.2390 -1.0119
 4224TIP3   OH234230   6.378   0.210   2.832  0.0448  0.5589  0.5141
 4224TIP3    H134231   6.467   0.237   2.854 -0.1743  1.5368  0.2471
 4224TIP3    H234232   6.346   0.167   2.911  0.8440 -0.0585  0.5203
 4225TIP3   OH234233   1.332   3.558   7.304 -0.0462 -0.1592  0.0369
 4225TIP3    H134234   1.252   3.591   7.261  0.4019  0.3176 -0.4490
 4225TIP3    H234235   1.307   3.472   7.338 -0.5080 -0.4393 -0.9535
 4226TIP3   OH234236   3.721   0.864   2.969 -0.4445 -0.3680  0.0630
 4226TIP3    H134237   3.814   0.887   2.970 -0.5848  0.5626  3.3519
 4226TIP3    H234238   3.679   0.937   2.924  0.0194  1.8271  2.9226
 4227TIP3   OH234239   2.796   1.569   2.561  0.4442  0.3579  0.3787
 4227TIP3    H134240   2.854   1.563   2.486 -1.1760 -1.3777 -0.7976
 4227TIP3    H234241   2.833   1.509   2.626  1.7074  1.6819  0.9478
 4228TIP3   OH234242   5.372   6.041   1.508  0.1735 -0.2416 -0.4653
 4228TIP3    H134243   5.368   6.131   1.478 -1.4731  0.1029  0.6968
 4228TIP3    H234244   5.409   6.046   1.597  0.6460 -0.7863 -0.6186
 4229TIP3   OH234245   4.290   0.254   7.263  0.0445 -0.3707  0.9549
 4229TIP3    H134246   4.248   0.204   7.193 -0.2203 -0.0284  0.8641
 4229TIP3    H234247   4.220   0.269   7.327 -0.3821  1.4152  0.1574
 4230TIP3   OH234248   1.829   4.149   7.924  0.6203 -0.4186  0.2251
 4230TIP3    H134249   1.924   4.146   7.920  0.7709 -1.5790  2.6834
 4230TIP3    H234250   1.803   4.059   7.943 -0.9259 -0.0107  0.1842
 4231TIP3   OH234251   6.782   0.687   0.414 -0.3812  0.0695 -0.0851
 4231TIP3    H134252   6.754   0.766   0.461 -0.4007 -0.5132  0.9034
 4231TIP3    H234253   6.704   0.661   0.364 -0.6886  0.1160  0.3624
 4232TIP3   OH234254   3.085   4.424   1.115 -0.1041  0.7965  0.1394
 4232TIP3    H134255   3.060   4.515   1.098 -0.8714  0.7050  0.7422
 4232TIP3    H234256   3.038   4.401   1.195 -1.1491 -0.6414 -0.8441
 4233TIP3   OH234257   1.166   4.027   7.825  0.0987 -0.0853 -0.5152
 4233TIP3    H134258   1.082   3.985   7.805  0.4009 -1.5495  1.0860
 4233TIP3    H234259   1.182   4.084   7.750 -1.8411 -0.5229 -1.3274
 4234TIP3   OH234260   3.120   3.348   1.088 -0.0022  0.2056 -0.4869
 4234TIP3    H134261   3.167   3.431   1.086  0.9218 -0.2482  0.5544
 4234TIP3    H234262   3.112   3.322   0.997 -1.8989  2.2735 -0.9691
 4235TIP3   OH234263   1.395   2.368   7.435  0.4199 -0.3682  0.0541
 4235TIP3    H134264   1.302   2.391   7.435  0.8696  1.6242 -0.7210
 4235TIP3    H234265   1.426   2.394   7.349  1.7660 -0.7783  0.4026
 4236TIP3   OH234266   2.223   5.682   2.450 -0.2590  0.2686 -0.2001
 4236TIP3    H134267   2.205   5.713   2.361  1.9051 -1.9959 -1.5468
 4236TIP3    H234268   2.296   5.736   2.480 -1.6411  1.7310  0.7042
 4237TIP3   OH234269   4.168   2.097   1.311 -0.2491 -0.0981 -0.1239
 4237TIP3    H134270   4.170   2.192   1.321  0.4136 -0.2702  1.9546
 4237TIP3    H234271   4.248   2.076   1.263  0.6338  0.2767  1.1284
 4238TIP3   OH234272   4.400   3.511   0.272 -0.2056  0.3413 -0.2286
 4238TIP3    H134273   4.354   3.550   0.347 -1.0689  0.6279 -0.8976
 4238TIP3    H234274   4.368   3.560   0.196 -0.0789 -0.6081 -0.9050
 4239TIP3   OH234275   3.984   2.057   8.283  0.1529  0.4498 -0.3585
 4239TIP3    H134276   4.014   2.090   8.368  2.8817  1.6316 -1.6366
 4239TIP3    H234277   3.981   1.962   8.294  1.8065  0.4762  0.7311
 4240TIP3   OH234278   0.530   1.434   1.204 -0.0081 -0.4324  0.3529
 4240TIP3    H134279   0.451   1.381   1.210 -0.6422  0.2364 -1.3423
 4240TIP3    H234280   0.567   1.413   1.118  0.4460  0.8711  0.2021
 4241TIP3   OH234281   1.653   3.025   7.991 -0.0401  0.3501  0.8074
 4241TIP3    H134282   1.699   3.103   8.023  0.9480  0.5845 -1.0532
 4241TIP3    H234283   1.598   3.056   7.920  0.1044 -0.5857  0.2671
 4242TIP3   OH234284   5.358   2.043   6.884 -0.2509  0.2530 -0.2356
 4242TIP3    H134285   5.301   2.117   6.908 -1.6717 -0.7957 -0.2720
 4242TIP3    H234286   5.397   2.016   6.967  1.2517  1.7732 -0.3867
 4243TIP3   OH234287   4.675   3.700   7.245  0.2296 -0.2745  0.2281
 4243TIP3    H134288   4.632   3.723   7.163 -0.4788 -2.1743  0.0073
 4243TIP3    H234289   4.764   3.732   7.236 -0.3833  1.3158 -0.4427
 4244TIP3   OH234290   5.736   4.619   8.376 -0.3655  0.1359  0.1667
 4244TIP3    H134291   5.771   4.651   8.459  1.6586 -1.2195 -0.0882
 4244TIP3    H234292   5.803   4.559   8.343 -0.6484  1.3003 -2.9131
 4245TIP3   OH234293   2.965   6.805   7.857 -0.0595  0.1367  0.1860
 4245TIP3    H134294   3.032   6.859   7.816 -0.7805  1.4675  0.6759
 4245TIP3    H234295   2.882   6.838   7.822 -0.5551 -0.2560  0.9458
 4246TIP3   OH234296   3.911   3.024   0.956  0.1466 -0.2456  0.1050
 4246TIP3    H134297   3.937   2.946   1.005  0.0560 -1.0619 -1.1146
 4246TIP3    H234298   3.925   3.096   1.018 -0.4457 -1.2768  1.5121
 4247TIP3   OH234299   4.083   6.045   1.223 -0.4728  0.3311 -0.0354
 4247TIP3    H134300   4.017   6.050   1.292 -0.6692 -0.8031 -0.1200
 4247TIP3    H234301   4.136   6.124   1.235 -0.7169  0.3331  1.1911
 4248TIP3   OH234302   5.810   0.436   8.544 -0.3001 -0.1882 -0.0394
 4248TIP3    H134303   5.758   0.356   8.543  0.7855 -0.9439  1.3728
 4248TIP3    H234304   5.890   0.413   8.497  0.1109 -0.0099  0.5676
 4249TIP3   OH234305   3.298   1.396   1.152  0.2709 -0.6259  0.2116
 4249TIP3    H134306   3.283   1.456   1.225  0.2482 -2.2272  1.5930
 4249TIP3    H234307   3.229   1.417   1.089  2.1882  3.0104 -0.9903
 4250TIP3   OH234308   4.372   3.517   7.250 -0.2615  0.1715 -0.0894
 4250TIP3    H134309   4.406   3.541   7.164 -1.2206 -1.6634 -1.0371
 4250TIP3    H234310   4.449   3.490   7.299  0.1206 -0.3495 -0.9447
 4251TIP3   OH234311   6.638   1.344   0.087  0.6521  0.1199 -0.3620
 4251TIP3    H134312   6.566   1.291   0.120  0.5538  1.1402  1.1345
 4251TIP3    H234313   6.660   1.404   0.159  1.6342  1.2117 -1.5086
 4252TIP3   OH234314   2.064   3.662   8.382  0.4842 -0.1161  0.3166
 4252TIP3    H134315   2.005   3.716   8.328 -0.2750 -0.7821  0.4745
 4252TIP3    H234316   2.127   3.627   8.319 -1.4573 -2.3689 -0.5308
 4253TIP3   OH234317   4.412   3.988   1.100  0.0649  0.3807 -0.0118
 4253TIP3    H134318   4.327   4.022   1.128  0.1115  2.4686 -2.0786
 4253TIP3    H234319   4.471   4.064   1.106  0.7856  0.0875 -2.4496
 4254TIP3   OH234320   1.701   3.900   7.966 -0.4235 -0.0811  0.0939
 4254TIP3    H134321   1.733   3.824   7.916  1.2482  0.3826  0.4010
 4254TIP3    H234322   1.617   3.921   7.925  0.0299 -0.8593 -1.3264
 4255TIP3   OH234323   0.301   4.410   0.420 -0.6992 -0.1319 -0.0659
 4255TIP3    H134324   0.341   4.496   0.408  1.2168 -1.0176 -0.5978
 4255TIP3    H234325   0.276   4.407   0.512 -1.6937  1.3215 -0.2669
 4256TIP3   OH234326   1.439   4.262   0.452  0.3645  0.5010 -0.5126
 4256TIP3    H134327   1.479   4.346   0.429  0.9327  1.1469  2.3946
 4256TIP3    H234328   1.512   4.205   0.473 -0.0674 -0.3271 -1.2162
 4257TIP3   OH234329   0.693   3.089   2.068 -0.3881  0.0033  0.0216
 4257TIP3    H134330   0.729   3.177   2.081  0.7712 -0.5960  1.0888
 4257TIP3    H234331   0.755   3.045   2.011 -1.2185  0.0076 -0.9141
 4258TIP3   OH234332   6.663   3.963   2.290  0.3663  0.4626  0.8947
 4258TIP3    H134333   6.639   3.873   2.310  1.5760  0.4428  2.3805
 4258TIP3    H234334   6.730   3.956   2.222  0.0318  0.2852  0.5794
 4259TIP3   OH234335   1.247   1.778   7.919 -0.0925 -0.6389  0.4004
 4259TIP3    H134336   1.182   1.846   7.938  0.4627 -0.3433  1.2837
 4259TIP3    H234337   1.233   1.712   7.987 -0.0539 -1.0044  0.0591
 4260TIP3   OH234338   5.686   6.224   1.247  0.2254  0.3671 -0.2097
 4260TIP3    H134339   5.646   6.310   1.231 -1.2724 -0.2614  0.0026
 4260TIP3    H234340   5.683   6.180   1.162 -2.6541 -0.9025  0.4348
 4261TIP3   OH234341   5.494   4.223   2.331 -0.2025  0.1084  0.4555
 4261TIP3    H134342   5.560   4.257   2.391  1.7845 -0.1903 -1.4496
 4261TIP3    H234343   5.536   4.224   2.245 -2.0736 -1.7034 -0.5836
 4262TIP3   OH234344   4.131   2.830   2.204 -0.1862  0.3234  0.3573
 4262TIP3    H134345   4.213   2.782   2.216  0.1189  0.5096 -0.8826
 4262TIP3    H234346   4.091   2.832   2.291  1.6638  1.2144  1.2317
 4263TIP3   OH234347   5.953   0.546   2.340 -0.3694  0.3967 -0.3256
 4263TIP3    H134348   5.861   0.529   2.321 -1.0626  1.7894  1.4605
 4263TIP3    H234349   5.952   0.601   2.418  2.0439 -1.4396  1.1773
 4264TIP3   OH234350   5.590   6.525   8.584 -0.3012  0.1045 -0.4004
 4264TIP3    H134351   5.551   6.449   8.628 -0.9873 -0.3276 -1.7268
 4264TIP3    H234352   5.581   6.595   8.648  0.6362 -0.9790  0.9854
 4265TIP3   OH234353   1.102   4.360   0.748  0.3282  0.2310 -0.1651
 4265TIP3    H134354   1.123   4.398   0.833  0.8905 -0.6724  0.1114
 4265TIP3    H234355   1.007   4.373   0.738  0.0060 -0.8526  1.2127
 4266TIP3   OH234356   3.612   5.902   1.397 -0.6836  0.1441  0.0988
 4266TIP3    H134357   3.642   5.852   1.473 -1.8024 -0.1921  0.3424
 4266TIP3    H234358   3.516   5.900   1.403 -0.7678  1.3078 -0.5508
 4267TIP3   OH234359   3.282   2.083   8.251 -0.5230  0.0334  0.2745
 4267TIP3    H134360   3.312   2.143   8.319 -1.3800  0.9942 -0.1631
 4267TIP3    H234361   3.356   2.076   8.191  1.2296 -2.7998  2.4698
 4268TIP3   OH234362   5.694   0.706   0.371  0.0025  0.5703 -0.2642
 4268TIP3    H134363   5.785   0.686   0.391 -0.2113 -0.0159  0.1585
 4268TIP3    H234364   5.697   0.790   0.325  0.8117  0.2207 -0.8708
 4269TIP3   OH234365   6.339   0.259   0.715 -0.4801 -0.4795 -0.3217
 4269TIP3    H134366   6.403   0.301   0.658  0.4264  1.3673  1.8732
 4269TIP3    H234367   6.317   0.326   0.780 -1.3355 -2.4588  1.5664
 4270TIP3   OH234368   0.085   1.467   2.196 -0.2924 -0.2056 -0.5106
 4270TIP3    H134369   0.001   1.504   2.167 -0.3955 -0.1107 -0.0939
 4270TIP3    H234370   0.143   1.479   2.121 -0.3455  0.7435 -0.4182
 4271TIP3   OH234371   6.505   5.945   7.277 -0.2110  0.7575  0.4673
 4271TIP3    H134372   6.450   5.868   7.261  0.6233  0.2185  0.1418
 4271TIP3    H234373   6.464   5.989   7.352 -1.3787  0.6580 -0.0948
 4272TIP3   OH234374   0.590   5.998   8.747 -0.2241 -0.7686  0.3696
 4272TIP3    H134375   0.513   5.971   8.697  0.6537 -2.0863 -0.3297
 4272TIP3    H234376   0.639   6.054   8.686 -0.9433  0.6757  1.0604
 4273TIP3   OH234377   0.699   6.785   8.590  0.6644  0.6171 -0.2592
 4273TIP3    H134378   0.700   6.845   8.516  2.8327  1.0084  0.0189
 4273TIP3    H234379   0.788   6.751   8.595  0.1389 -0.6992  1.1550
 4274TIP3   OH234380   3.748   0.131   2.351  0.2435  0.0619 -0.1947
 4274TIP3    H134381   3.742   0.105   2.259  0.3574  0.5469 -0.3417
 4274TIP3    H234382   3.711   0.056   2.399 -2.4044  0.8865 -0.7712
 4275TIP3   OH234383   2.507   4.658   1.861 -0.2088  0.3911  0.7733
 4275TIP3    H134384   2.517   4.720   1.933  1.3132 -1.0165  1.8657
 4275TIP3    H234385   2.426   4.611   1.881 -1.0808  1.6162  0.2266
 4276TIP3   OH234386   5.028   1.878   2.900 -0.0090 -0.2540  0.4292
 4276TIP3    H134387   5.005   1.955   2.953  0.5618  0.3062 -0.1070
 4276TIP3    H234388   5.097   1.834   2.949 -0.0333 -0.1771  0.5315
 4277TIP3   OH234389   5.704   2.977   8.221 -0.3391  0.1627 -0.3313
 4277TIP3    H134390   5.678   2.923   8.295 -0.3862  1.3380  0.5432
 4277TIP3    H234391   5.640   2.957   8.152  0.2993 -1.6872 -0.4472
 4278TIP3   OH234392   3.946   4.804   7.457  0.1849  0.8297 -0.0798
 4278TIP3    H134393   4.019   4.799   7.519  0.1697  0.7064 -0.0705
 4278TIP3    H234394   3.988   4.823   7.373  0.4476 -1.2652 -0.4766
 4279TIP3   OH234395   1.035   0.144   0.575  0.1426 -0.5232 -0.0508
 4279TIP3    H134396   1.021   0.146   0.670 -2.4326  0.0859 -0.3578
 4279TIP3    H234397   0.967   0.086   0.542 -0.8578  1.4415 -1.7042
 4280TIP3   OH234398   4.130   3.585   6.981  0.6514  0.2544 -0.5695
 4280TIP3    H134399   4.160   3.596   7.071 -1.6872 -1.1507  0.4793
 4280TIP3    H234400   4.151   3.495   6.958 -0.1531  0.1276 -0.8476
 4281TIP3   OH234401   3.111   4.527   2.454  0.1017 -0.1808 -0.1745
 4281TIP3    H134402   3.083   4.437   2.470 -2.4687  0.2842 -1.5561
 4281TIP3    H234403   3.054   4.580   2.510 -1.0074  0.7504 -2.0981
 4282TIP3   OH234404   2.205   5.501   1.010  0.1510 -0.4225 -0.7473
 4282TIP3    H134405   2.136   5.523   1.072  2.1074  0.0314  1.3863
 4282TIP3    H234406   2.279   5.472   1.064  1.4902 -1.4181 -2.9384
 4283TIP3   OH234407   6.512   1.736   0.886 -0.5171 -0.2538  0.2711
 4283TIP3    H134408   6.573   1.674   0.847 -0.1338 -0.3823  1.0557
 4283TIP3    H234409   6.427   1.691   0.884 -0.2346 -0.8173  0.8768
 4284TIP3   OH234410   0.430   6.580   0.816  0.4049  0.3982 -0.5243
 4284TIP3    H134411   0.406   6.509   0.757  2.2730  0.0154 -0.8976
 4284TIP3    H234412   0.524   6.569   0.829  0.2692  1.2339  1.5380
 4285TIP3   OH234413   5.447   1.062   8.641  0.2655 -0.6920  0.1275
 4285TIP3    H134414   5.416   1.020   8.560  0.3933 -2.0694  0.7540
 4285TIP3    H234415   5.517   1.120   8.613 -1.7158  1.2772 -1.1298
 4286TIP3   OH234416   3.419   2.464   0.672  0.5659  0.2050 -0.0787
 4286TIP3    H134417   3.328   2.493   0.679 -0.0991 -0.7935 -3.1122
 4286TIP3    H234418   3.457   2.519   0.603  1.1008 -1.8222 -1.5100
 4287TIP3   OH234419   1.304   5.337   2.984 -0.7782 -0.3181 -0.2789
 4287TIP3    H134420   1.287   5.408   3.046  1.9673 -0.3408  0.6384
 4287TIP3    H234421   1.290   5.257   3.035 -0.2976 -0.3563 -0.1978
 4288TIP3   OH234422   0.754   5.939   1.327  0.0329  0.0092  0.2320
 4288TIP3    H134423   0.694   5.942   1.253 -1.1138 -2.2988  0.9834
 4288TIP3    H234424   0.764   6.031   1.354 -1.1889  0.6733 -1.4456
 4289TIP3   OH234425   2.535   0.874   0.008 -0.1932  0.5308 -0.1635
 4289TIP3    H134426   2.517   0.818  -0.067  1.8956  0.4455 -0.6748
 4289TIP3    H234427   2.501   0.960  -0.017 -0.1568  0.3360 -0.9113
 4290TIP3   OH234428   3.229   3.786   0.561 -0.4118  0.3746  0.4180
 4290TIP3    H134429   3.294   3.813   0.625  1.7315  0.6021 -1.6877
 4290TIP3    H234430   3.180   3.866   0.540  0.4920  0.8349  0.0375
 4291TIP3   OH234431   0.409   0.819   2.124 -0.3116  0.1078 -0.6012
 4291TIP3    H134432   0.393   0.728   2.149  0.0001 -0.3369 -1.9328
 4291TIP3    H234433   0.341   0.869   2.170 -1.4545 -0.9727 -1.0596
 4292TIP3   OH234434   4.147   1.160   0.653 -0.5505  0.0528 -0.5064
 4292TIP3    H134435   4.175   1.093   0.591 -1.8690 -1.1437  0.1477
 4292TIP3    H234436   4.198   1.238   0.629  0.0798 -0.8140 -2.0852
 4293TIP3   OH234437   2.612   6.274   7.929  0.3326  0.3526 -0.5638
 4293TIP3    H134438   2.624   6.307   7.840  2.0773  1.1306 -0.0715
 4293TIP3    H234439   2.599   6.353   7.982  0.3017 -0.0401  0.0215
 4294TIP3   OH234440   6.731   1.847   1.422 -0.1292  0.4418  0.3493
 4294TIP3    H134441   6.729   1.830   1.328 -0.6096  0.2534  0.3868
 4294TIP3    H234442   6.824   1.853   1.445  0.0409  3.4629 -0.6478
 4295TIP3   OH234443   3.852   2.303   7.937  0.1863 -0.4332  0.5913
 4295TIP3    H134444   3.853   2.355   8.017  0.9436 -0.4304  0.5900
 4295TIP3    H234445   3.770   2.327   7.893  0.2173  0.2673  0.9087
 4296TIP3   OH234446   1.702   5.303   7.948  0.3595 -0.0088 -0.4166
 4296TIP3    H134447   1.658   5.237   7.895 -0.6388  0.2421  0.0736
 4296TIP3    H234448   1.728   5.257   8.028  0.4734 -0.0277 -0.4652
 4297TIP3   OH234449   5.643   2.980   8.686  0.2160 -0.1501 -0.0955
 4297TIP3    H134450   5.720   3.013   8.733  0.1931  2.5557 -1.7471
 4297TIP3    H234451   5.570   2.998   8.745  0.3323  2.0673 -0.5337
 4298TIP3   OH234452   2.052   0.115   2.401 -0.3246 -0.5852  0.2868
 4298TIP3    H134453   1.973   0.110   2.456 -0.2104  1.5795  0.7330
 4298TIP3    H234454   2.105   0.183   2.442  0.5152 -0.0731 -1.5696
 4299TIP3   OH234455   2.657   1.484   1.923  0.7479 -0.4861 -0.0070
 4299TIP3    H134456   2.626   1.536   1.996  0.6387 -2.2202  1.2487
 4299TIP3    H234457   2.602   1.511   1.849  1.8324  2.3382  0.1017
 4300TIP3   OH234458   3.719   5.570   8.288  0.4479 -0.4512 -0.4775
 4300TIP3    H134459   3.717   5.502   8.220 -0.5450 -1.3432  0.4102
 4300TIP3    H234460   3.632   5.611   8.282  0.6970  0.0966 -0.3653
 4301TIP3   OH234461   5.027   5.501   2.389 -0.5276 -0.0567  0.5638
 4301TIP3    H134462   5.018   5.408   2.367 -0.2008 -0.0666  0.4669
 4301TIP3    H234463   5.044   5.544   2.305 -0.9694  0.1306  0.5685
 4302TIP3   OH234464   5.120   0.419   8.101  0.2039  0.5755  0.7245
 4302TIP3    H134465   5.176   0.407   8.024  2.4208  1.4482  2.1223
 4302TIP3    H234466   5.163   0.370   8.170 -0.7318  1.3237  1.8781
 4303TIP3   OH234467   3.841   6.229   0.456 -0.7810 -0.0391 -0.2598
 4303TIP3    H134468   3.785   6.157   0.485 -3.6622  2.2021  0.1005
 4303TIP3    H234469   3.794   6.267   0.382  0.4286  1.7543 -0.1611
 4304TIP3   OH234470   0.061   5.385   2.269 -0.1968  0.8706 -0.2788
 4304TIP3    H134471  -0.013   5.440   2.294  0.1772  0.2750  2.4458
 4304TIP3    H234472   0.138   5.435   2.297  0.2930  0.3948 -0.7656
 4305TIP3   OH234473   0.043   2.556   0.256 -0.2497 -0.1000 -0.1324
 4305TIP3    H134474   0.129   2.598   0.263 -0.3681  0.0315  0.6408
 4305TIP3    H234475   0.063   2.465   0.235  0.0523  0.0719 -0.6204
 4306TIP3   OH234476   1.182   0.862   0.926  0.2165 -0.3863  0.4764
 4306TIP3    H134477   1.270   0.824   0.923  0.3471 -0.1133  0.9265
 4306TIP3    H234478   1.125   0.793   0.891  0.7164 -0.2456 -0.6540
 4307TIP3   OH234479   1.010   0.922   2.121  0.4041 -0.2506  0.1445
 4307TIP3    H134480   0.995   0.855   2.188 -0.5156  0.1789  0.3942
 4307TIP3    H234481   0.950   0.899   2.050  1.5311 -0.8298 -0.6516
 4308TIP3   OH234482   5.568   0.872   0.088  0.3939 -0.5512 -0.3533
 4308TIP3    H134483   5.633   0.905   0.150  0.9467 -1.5105 -0.3998
 4308TIP3    H234484   5.538   0.949   0.041 -0.6329  0.3354  1.6409
 4309TIP3   OH234485   3.687   3.311   0.280  0.0743 -0.0329 -0.6369
 4309TIP3    H134486   3.592   3.311   0.272 -0.0303 -0.4464  0.5398
 4309TIP3    H234487   3.716   3.380   0.220 -0.9257 -0.2377 -1.3741
 4310TIP3   OH234488   2.650   5.205   2.498 -0.5413 -0.2924 -0.1013
 4310TIP3    H134489   2.653   5.128   2.555 -2.3232 -0.9023 -0.7442
 4310TIP3    H234490   2.578   5.258   2.534  0.2866  0.7936 -0.0191
 4311TIP3   OH234491   1.082   5.074   2.387 -0.2029 -0.3664 -0.4808
 4311TIP3    H134492   1.000   5.034   2.415 -0.1809  0.6196  1.1284
 4311TIP3    H234493   1.060   5.166   2.372  0.3603 -0.3474 -1.2704
 4312TIP3   OH234494   5.281   5.539   1.974  0.1173  0.4442 -0.0682
 4312TIP3    H134495   5.280   5.508   1.883 -0.8415  0.6453 -0.1398
 4312TIP3    H234496   5.309   5.630   1.968  0.0036  0.4724 -0.1628
 4313TIP3   OH234497   1.673   5.363   2.389  0.0850 -0.4547  0.5941
 4313TIP3    H134498   1.696   5.406   2.471 -0.0470  3.5633 -1.2145
 4313TIP3    H234499   1.584   5.394   2.370  1.1527  1.2724 -2.3528
 4314TIP3   OH234500   2.604   3.761   1.297 -0.4166 -0.7125 -0.0849
 4314TIP3    H134501   2.553   3.679   1.292 -0.1750 -0.8797  0.2028
 4314TIP3    H234502   2.570   3.806   1.374 -0.7866 -0.3781 -0.4372
 4315TIP3   OH234503   5.875   2.446   2.341  0.2257 -0.1267  0.4344
 4315TIP3    H134504   5.954   2.481   2.380 -0.6386  0.0080  2.1451
 4315TIP3    H234505   5.809   2.515   2.352  0.0189  0.0955 -1.6780
 4316TIP3   OH234506   1.631   1.160   0.357 -0.3525  0.1631  0.1543
 4316TIP3    H134507   1.584   1.137   0.437  2.0154  0.2412  1.6420
 4316TIP3    H234508   1.628   1.080   0.304 -1.2202 -0.1666  0.6810
 4317TIP3   OH234509   5.894   3.454   1.822 -0.0348 -0.4804 -0.1947
 4317TIP3    H134510   5.958   3.388   1.792  0.5823  0.6618 -1.5430
 4317TIP3    H234511   5.939   3.538   1.810 -0.9303  0.2293  1.1450
 4318TIP3   OH234512   6.019   4.536   8.408 -0.4182 -0.2452  0.8232
 4318TIP3    H134513   6.073   4.544   8.487  0.8190 -2.2728  0.2682
 4318TIP3    H234514   5.961   4.462   8.427 -0.5027 -0.3729  0.0707
 4319TIP3   OH234515   3.678   2.509   1.637 -0.4808  0.1083  0.2726
 4319TIP3    H134516   3.663   2.563   1.715 -0.8815 -0.6731  0.7598
 4319TIP3    H234517   3.757   2.544   1.597 -1.5987  2.0669 -0.3142
 4320TIP3   OH234518   5.019   1.011   0.383 -0.3866  0.3819  0.1634
 4320TIP3    H134519   4.956   1.062   0.333  0.3468  1.7537  0.5721
 4320TIP3    H234520   4.993   0.920   0.370 -1.4454  0.8259 -0.9984
 4321TIP3   OH234521   0.792   6.061   7.763  0.2443  0.0290  0.8151
 4321TIP3    H134522   0.761   6.059   7.854 -0.6461 -1.9867  0.5324
 4321TIP3    H234523   0.839   5.978   7.752  1.3824  0.7805 -0.2456
 4322TIP3   OH234524   4.328   0.513   1.564  0.3306  0.6924 -0.6216
 4322TIP3    H134525   4.254   0.452   1.554 -0.3018  1.2873  0.3228
 4322TIP3    H234526   4.389   0.468   1.622 -0.5885  1.3269  0.8904
 4323TIP3   OH234527   0.439   3.087   2.836 -0.5118 -0.3207 -0.4232
 4323TIP3    H134528   0.357   3.057   2.875 -0.2977  0.4890  0.6905
 4323TIP3    H234529   0.435   3.056   2.746 -1.4403 -1.4414 -0.0222
 4324TIP3   OH234530   3.803   2.613   7.962 -0.0175 -0.3918  0.1483
 4324TIP3    H134531   3.782   2.650   7.877  0.3394 -0.4462  0.0359
 4324TIP3    H234532   3.796   2.687   8.023 -0.7226 -0.4527  0.1415
 4325TIP3   OH234533   6.480   5.666   7.126 -0.6367  0.1833 -0.7207
 4325TIP3    H134534   6.555   5.624   7.084 -0.7720  1.1097 -1.9577
 4325TIP3    H234535   6.411   5.662   7.060 -0.7533  1.9728 -0.7684
 4326TIP3   OH234536   3.782   5.179   0.658 -0.1688 -0.5684 -0.1575
 4326TIP3    H134537   3.711   5.135   0.704 -0.7700  1.7529  1.2927
 4326TIP3    H234538   3.862   5.143   0.697 -0.6592  0.2059  1.6770
 4327TIP3   OH234539   3.739   4.887   0.357 -0.3189  0.8721  0.1788
 4327TIP3    H134540   3.776   4.875   0.444  3.4387  2.2215 -1.0476
 4327TIP3    H234541   3.705   4.977   0.358 -1.9553  0.2928  0.6942
 4328TIP3   OH234542   6.228   0.500   7.631  0.2821 -0.2768 -0.0907
 4328TIP3    H134543   6.282   0.427   7.601 -0.2333 -0.5342 -0.4049
 4328TIP3    H234544   6.249   0.571   7.571  1.7644  0.2496  1.0144
 4329TIP3   OH234545   1.132   0.107   7.083 -0.8899  0.2060  0.5616
 4329TIP3    H134546   1.105   0.016   7.074 -1.8958  0.5838 -0.6740
 4329TIP3    H234547   1.203   0.117   7.020 -0.2152  0.0812  1.2927
 4330TIP3   OH234548   1.804   1.071   7.210 -0.0897  0.0701 -0.0230
 4330TIP3    H134549   1.845   1.061   7.124  0.1501  1.3404 -0.0726
 4330TIP3    H234550   1.757   1.154   7.205  0.8736  0.7551  1.4368
 4331TIP3   OH234551   4.531   4.448   7.605  0.0479  0.3417  0.3603
 4331TIP3    H134552   4.453   4.455   7.550  0.7386  3.5338 -0.3976
 4331TIP3    H234553   4.602   4.479   7.550  1.2649  0.8012  2.1188
 4332TIP3   OH234554   3.216   4.930   0.939  0.2631 -0.0995  0.3728
 4332TIP3    H134555   3.163   4.978   0.876 -1.0399 -1.2805  0.5133
 4332TIP3    H234556   3.287   4.990   0.962 -0.0865  0.9094 -1.0608
 4333TIP3   OH234557   3.956   4.590   0.792 -0.2707  0.3665 -0.2179
 4333TIP3    H134558   4.021   4.522   0.772 -0.3874 -0.1878  1.1569
 4333TIP3    H234559   3.875   4.541   0.807 -0.6209  0.9104 -0.3262
 4334TIP3   OH234560   0.406   6.055   0.415  0.0323 -0.3050 -0.5044
 4334TIP3    H134561   0.451   6.095   0.490  1.0608 -0.4539 -1.0296
 4334TIP3    H234562   0.314   6.049   0.443  0.3383 -0.0444  0.6101
 4335TIP3   OH234563   4.307   0.017   0.124 -1.0626  0.2990  0.5341
 4335TIP3    H134564   4.351   0.090   0.166  0.5118  0.2587 -0.9144
 4335TIP3    H234565   4.217   0.021   0.155 -0.5421  1.6774  1.9665
 4336TIP3   OH234566   0.859   1.907   8.680  0.2248 -0.4145  0.8094
 4336TIP3    H134567   0.797   1.980   8.684  0.7998  0.1241  0.1345
 4336TIP3    H234568   0.804   1.829   8.683 -0.4770  0.0513  0.3632
 4337TIP3   OH234569   3.738   1.188   7.261 -0.3130 -0.5835  0.1301
 4337TIP3    H134570   3.707   1.207   7.173 -1.0187  5.5463  1.3019
 4337TIP3    H234571   3.659   1.162   7.309 -0.3727 -1.4411 -0.3960
 4338TIP3   OH234572   5.196   2.890   0.129  0.0027 -0.0999  0.1265
 4338TIP3    H134573   5.254   2.925   0.061  2.3405 -0.0669  1.9877
 4338TIP3    H234574   5.204   2.795   0.120  2.2485 -0.1653  1.6914
 4339TIP3   OH234575   4.766   1.193   7.882 -0.2480  0.3772 -0.1182
 4339TIP3    H134576   4.803   1.197   7.793  1.1286  0.8006  0.4483
 4339TIP3    H234577   4.702   1.264   7.884 -0.7627 -0.0417 -0.9618
 4340TIP3   OH234578   4.422   3.460   1.678 -0.2792  0.4189  0.1645
 4340TIP3    H134579   4.363   3.518   1.629  0.2824  1.1247  0.3014
 4340TIP3    H234580   4.488   3.519   1.715 -0.2467 -0.1916  1.1265
 4341TIP3   OH234581   3.126   1.333   8.190 -0.4162 -0.4448 -0.6468
 4341TIP3    H134582   3.141   1.312   8.098  1.3436 -2.1668 -0.0463
 4341TIP3    H234583   3.154   1.254   8.237  1.2942  1.3148  1.5099
 4342TIP3   OH234584   0.731   1.424   7.789  0.6626 -0.0051 -0.4875
 4342TIP3    H134585   0.719   1.379   7.873 -2.5546  0.6480 -0.4817
 4342TIP3    H234586   0.794   1.369   7.742  1.5538 -1.1091  1.8062
 4343TIP3   OH234587   4.102   1.597   2.445  0.4037  0.3904  0.0678
 4343TIP3    H134588   4.120   1.636   2.531 -0.2713  0.6993  0.0786
 4343TIP3    H234589   4.011   1.567   2.451  0.4334  0.1911 -0.4559
 4344TIP3   OH234590   2.904   5.706   2.423  0.0681 -0.1862 -0.1982
 4344TIP3    H134591   2.936   5.637   2.364 -1.4635 -2.1121  1.1064
 4344TIP3    H234592   2.953   5.694   2.504 -1.1185 -0.6218  0.4775
 4345TIP3   OH234593   3.071   3.853   7.151  0.4946  0.5103 -0.4679
 4345TIP3    H134594   3.033   3.821   7.069  0.3799 -0.7855  0.0612
 4345TIP3    H234595   3.160   3.878   7.129 -0.3192  2.7826 -1.5481
 4346TIP3   OH234596   1.201   3.491   7.930  0.3188 -0.2457 -0.2974
 4346TIP3    H134597   1.168   3.457   7.847  0.5104  0.7863 -0.8055
 4346TIP3    H234598   1.216   3.584   7.914  0.1618  0.0121  0.9572
 4347TIP3   OH234599   6.585   1.769   8.125 -0.0124 -0.2992 -0.3135
 4347TIP3    H134600   6.517   1.712   8.160  0.3215 -0.8006 -0.4564
 4347TIP3    H234601   6.545   1.855   8.120  0.4357  0.2166  2.9417
 4348TIP3   OH234602   4.020   3.124   0.282 -0.1893 -0.0946  0.0193
 4348TIP3    H134603   4.030   3.219   0.281  0.4025  0.0165  3.7595
 4348TIP3    H234604   4.109   3.090   0.280 -0.4086 -0.6984 -2.2256
 4349TIP3   OH234605   1.576   3.443   7.830  0.9896 -0.5673  0.0964
 4349TIP3    H134606   1.536   3.494   7.760 -1.1621 -0.7816  1.0770
 4349TIP3    H234607   1.641   3.388   7.786  3.3890  2.8090 -1.0252
 4350TIP3   OH234608   0.020   6.449   7.449 -0.1585 -0.2029  0.4096
 4350TIP3    H134609  -0.049   6.512   7.469 -0.0436  0.2818 -0.6365
 4350TIP3    H234610  -0.023   6.364   7.453 -0.3975 -0.0460  1.4921
 4351TIP3   OH234611   4.626   2.151   8.750  0.2706  0.2816 -0.9359
 4351TIP3    H134612   4.543   2.113   8.778 -0.2163  1.5535 -0.5684
 4351TIP3    H234613   4.623   2.241   8.782  1.7315  0.3979 -1.0513
 4352TIP3   OH234614   2.774   4.760   8.007  0.1786  0.0070  0.3374
 4352TIP3    H134615   2.718   4.715   8.071  0.0856  0.4485  0.5732
 4352TIP3    H234616   2.732   4.845   7.995 -0.9691 -0.7911 -1.8486
 4353TIP3   OH234617   2.747   3.968   7.180 -0.3167  0.5946 -0.0977
 4353TIP3    H134618   2.792   4.006   7.105 -0.5117  1.4561  0.2029
 4353TIP3    H234619   2.732   3.877   7.156 -0.5164  0.8960 -1.1600
 4354TIP3   OH234620   5.597   0.427   1.367  0.1829 -0.0843 -0.1287
 4354TIP3    H134621   5.522   0.480   1.339 -0.3007 -0.1109  1.0793
 4354TIP3    H234622   5.588   0.346   1.316 -1.3460 -0.6021  0.9062
 4355TIP3   OH234623   4.724   3.283   0.181 -0.0373  0.0077  0.4065
 4355TIP3    H134624   4.805   3.245   0.146 -0.3175  0.8866 -1.3318
 4355TIP3    H234625   4.701   3.351   0.118 -1.2987  0.8404  1.7110
 4356TIP3   OH234626   5.333   4.482   6.756  0.1126  0.5365 -0.0539
 4356TIP3    H134627   5.333   4.552   6.692 -1.2227  0.4013 -0.2258
 4356TIP3    H234628   5.349   4.525   6.840  1.4932  0.7562 -0.4080
 4357TIP3   OH234629   5.135   5.813   1.710  0.1949  0.4712 -0.3172
 4357TIP3    H134630   5.130   5.865   1.790 -0.0491  0.3183 -0.2310
 4357TIP3    H234631   5.053   5.764   1.708  1.1541 -1.2586  0.5381
 4358TIP3   OH234632   4.498   4.870   7.527  0.5556  0.4389  0.2099
 4358TIP3    H134633   4.504   4.780   7.495 -0.6067 -0.3586  2.0775
 4358TIP3    H234634   4.555   4.920   7.469  0.6215 -1.3544 -1.3620
 4359TIP3   OH234635   0.437   0.821   7.765  1.0026 -0.5635 -0.2419
 4359TIP3    H134636   0.412   0.913   7.761  0.8257 -0.6179 -0.5120
 4359TIP3    H234637   0.358   0.777   7.797  1.1340 -0.6038  0.0258
 4360TIP3   OH234638   4.082   3.541   2.087 -0.7324 -0.1732 -0.2395
 4360TIP3    H134639   4.088   3.619   2.143  1.1948 -1.2850  1.2333
 4360TIP3    H234640   4.035   3.477   2.141 -0.2589 -0.7663 -0.5206
 4361TIP3   OH234641   5.402   0.654   1.333  0.2665 -0.3646  0.0572
 4361TIP3    H134642   5.320   0.604   1.326  0.8016 -1.3692  0.6092
 4361TIP3    H234643   5.388   0.712   1.407  0.4881 -1.4554  0.9897
 4362TIP3   OH234644   3.162   0.082   2.328 -0.4632 -0.1862  0.0385
 4362TIP3    H134645   3.142   0.123   2.244  0.4212  1.3759  0.5558
 4362TIP3    H234646   3.109   0.130   2.392 -0.7899 -1.0641  0.4485
 4363TIP3   OH234647   0.903   2.706   0.101 -0.4032 -0.3188  0.0219
 4363TIP3    H134648   0.925   2.746   0.017 -1.7416 -0.1355 -0.2723
 4363TIP3    H234649   0.931   2.615   0.092  2.1828  0.3572  0.4982
 4364TIP3   OH234650   6.723   1.905   0.826  0.3320 -0.2897  0.2579
 4364TIP3    H134651   6.641   1.887   0.872  0.0776  0.3125  0.0529
 4364TIP3    H234652   6.782   1.938   0.894 -0.5715  2.2160 -0.1023
 4365TIP3   OH234653   4.307   4.864   2.161  0.1224 -0.1486 -0.0774
 4365TIP3    H134654   4.243   4.821   2.104  0.4384  0.0909 -0.6214
 4365TIP3    H234655   4.303   4.815   2.243 -2.5568  1.3061  0.8140
 4366TIP3   OH234656   3.789   0.678   0.167 -0.3160  0.1002 -0.2865
 4366TIP3    H134657   3.814   0.756   0.215 -1.1472  0.1488  0.0864
 4366TIP3    H234658   3.694   0.685   0.157 -0.6548 -1.6589  1.2165
 4367TIP3   OH234659   5.908   0.077   1.648  0.4939  0.0329 -0.0910
 4367TIP3    H134660   5.844   0.018   1.688  0.2494  0.6950  0.5024
 4367TIP3    H234661   5.981   0.079   1.710  0.2792  0.7574  0.1503
 4368TIP3   OH234662   0.230   5.563   0.843  0.2995  0.6022  0.0491
 4368TIP3    H134663   0.166   5.613   0.893  1.0312  1.0476  0.5635
 4368TIP3    H234664   0.185   5.541   0.762 -1.0557 -0.5033  1.0644
 4369TIP3   OH234665   3.756   3.637   0.566 -0.0022  0.5372  0.1304
 4369TIP3    H134666   3.680   3.608   0.516 -0.5953  1.1543  0.6619
 4369TIP3    H234667   3.799   3.556   0.593 -0.5455  0.1808 -0.0641
 4370TIP3   OH234668   1.277   0.708   0.536 -0.5242 -0.0699  0.1923
 4370TIP3    H134669   1.222   0.650   0.483 -0.7797 -1.7842  2.1790
 4370TIP3    H234670   1.367   0.678   0.519 -0.0938  2.4361 -2.7063
 4371TIP3   OH234671   6.377   3.635   0.138 -0.3827  1.1693 -0.1995
 4371TIP3    H134672   6.339   3.588   0.212 -1.8783  1.8202 -0.5122
 4371TIP3    H234673   6.357   3.580   0.062 -2.3039  2.3239 -0.5919
 4372TIP3   OH234674   0.989   3.732   8.321  0.0587 -0.0934 -0.2036
 4372TIP3    H134675   1.038   3.782   8.255  0.7107  1.4295  1.3464
 4372TIP3    H234676   0.898   3.760   8.309  0.2393  0.5317 -0.1578
 4373TIP3   OH234677   6.265   3.314   7.655  0.8443 -0.4508  0.0495
 4373TIP3    H134678   6.276   3.256   7.580  0.8366  1.7178 -1.7479
 4373TIP3    H234679   6.265   3.402   7.617  0.3060  0.7219  2.5597
 4374TIP3   OH234680   6.504   4.695   0.493 -0.3888  0.4689 -0.0283
 4374TIP3    H134681   6.449   4.714   0.417  0.5247 -0.3099 -0.8957
 4374TIP3    H234682   6.464   4.617   0.533 -0.1080  0.0934 -0.4749
 4375TIP3   OH234683   1.310   4.526   8.485  0.1347 -0.4127 -0.9112
 4375TIP3    H134684   1.284   4.478   8.406 -2.1960  0.3876 -0.7167
 4375TIP3    H234685   1.247   4.597   8.491  1.0763  0.3146  0.9802
 4376TIP3   OH234686   4.716   4.927   7.826 -0.4830  0.2507 -0.4796
 4376TIP3    H134687   4.685   5.012   7.795 -0.0071 -0.3217 -2.7031
 4376TIP3    H234688   4.640   4.869   7.819 -0.9108  0.5272  1.3882
 4377TIP3   OH234689   1.921   6.728   1.080 -0.0222  0.4510 -0.4311
 4377TIP3    H134690   1.987   6.665   1.110 -0.9129 -1.1479 -1.6487
 4377TIP3    H234691   1.963   6.774   1.008  0.1738  0.2586 -0.4419
 4378TIP3   OH234692   4.729   2.761   7.071  0.0337 -0.2430 -0.0607
 4378TIP3    H134693   4.793   2.805   7.016  0.2872 -0.9643 -0.3517
 4378TIP3    H234694   4.778   2.734   7.149 -0.3904  1.0492  0.6901
 4379TIP3   OH234695   4.767   5.048   0.152 -0.2400  0.0226 -0.4359
 4379TIP3    H134696   4.766   5.045   0.057  1.2584  0.0577 -0.4743
 4379TIP3    H234697   4.752   5.140   0.173 -1.0211 -0.0595 -0.6159
 4380TIP3   OH234698   2.968   0.181   1.691 -0.0963 -0.5350 -0.7927
 4380TIP3    H134699   3.024   0.119   1.643  0.7134  0.4483 -1.1464
 4380TIP3    H234700   3.028   0.246   1.726 -0.4753 -1.9041  2.7798
 4381TIP3   OH234701   1.765   3.455   1.560  0.3119 -0.1041  0.1528
 4381TIP3    H134702   1.724   3.371   1.584  0.1087 -0.0273  0.0749
 4381TIP3    H234703   1.826   3.432   1.490 -1.7874  0.2162 -1.8982
 4382TIP3   OH234704   0.164   5.465   7.496 -0.2609 -0.4852 -0.1110
 4382TIP3    H134705   0.259   5.455   7.483 -0.3860 -0.3280 -1.2455
 4382TIP3    H234706   0.156   5.542   7.552  0.2524  0.2829 -1.0497
 4383TIP3   OH234707   5.514   6.694   0.053  0.3901 -0.3873  0.4229
 4383TIP3    H134708   5.570   6.654   0.119  1.9107  1.7352  0.5347
 4383TIP3    H234709   5.431   6.711   0.098  0.8210 -0.5335  1.2777
 4384TIP3   OH234710   2.497   0.706   2.029 -0.1192  0.7706  0.0334
 4384TIP3    H134711   2.495   0.796   1.996  0.0111  0.6232 -0.3885
 4384TIP3    H234712   2.413   0.695   2.075 -0.4190  0.9078 -0.4671
 4385TIP3   OH234713   5.821   1.260   2.768  0.2048  0.0709 -0.0014
 4385TIP3    H134714   5.759   1.199   2.730 -0.3057  0.4615  0.1946
 4385TIP3    H234715   5.873   1.208   2.829 -1.8126  0.2768  2.0047
 4386TIP3   OH234716   1.780   3.315   1.306 -0.0053 -0.1403 -0.1615
 4386TIP3    H134717   1.787   3.390   1.247 -0.7054  0.4010  0.4191
 4386TIP3    H234718   1.702   3.268   1.276 -1.0303  0.7575  0.9805
 4387TIP3   OH234719   5.836   0.799   1.653 -0.1190 -0.0408  0.0714
 4387TIP3    H134720   5.766   0.854   1.688 -0.4427 -0.2473 -0.2440
 4387TIP3    H234721   5.792   0.719   1.626  0.4202 -0.7069  1.0618
 4388TIP3   OH234722   2.519   1.789   7.836  0.2504 -0.1361 -0.7125
 4388TIP3    H134723   2.572   1.760   7.762  0.7906 -0.1565 -0.3193
 4388TIP3    H234724   2.499   1.709   7.885  1.2057  0.0567  0.0193
 4389TIP3   OH234725   3.052   6.051   0.705  0.4800  0.8177  0.1604
 4389TIP3    H134726   3.007   6.067   0.622  1.3618  1.0214 -0.2921
 4389TIP3    H234727   3.026   5.962   0.729  0.3481  0.6948 -0.4182
 4390TIP3   OH234728   1.257   6.775   0.433 -0.1783 -0.6930  1.0774
 4390TIP3    H134729   1.291   6.860   0.464 -0.2123  0.0444 -0.7762
 4390TIP3    H234730   1.294   6.711   0.494  2.3128  0.3529  0.8079
 4391TIP3   OH234731   2.266   1.768   0.432  0.4021  0.2267  0.1684
 4391TIP3    H134732   2.316   1.705   0.379 -0.6528 -1.3340  0.9366
 4391TIP3    H234733   2.231   1.830   0.369 -0.4901 -1.3364 -0.9455
 4392TIP3   OH234734   0.350   5.032   2.271  0.4285 -0.5672  0.5394
 4392TIP3    H134735   0.320   4.958   2.325  1.8476 -2.0023 -0.5404
 4392TIP3    H234736   0.304   5.021   2.188 -0.5711  0.7459  0.8756
 4393TIP3   OH234737   6.336   5.461   1.135 -0.0163  0.3800  0.0826
 4393TIP3    H134738   6.292   5.418   1.062 -0.5774  0.0260  0.6223
 4393TIP3    H234739   6.313   5.409   1.212  0.4796  0.8082  0.5321
 4394TIP3   OH234740   5.647   3.553   7.789 -0.2284  0.6620 -0.6332
 4394TIP3    H134741   5.642   3.639   7.831 -2.0324  0.2506  0.0622
 4394TIP3    H234742   5.686   3.496   7.855  0.1991  0.7459 -0.8046
 4395TIP3   OH234743   6.786   3.574   8.011  0.1298  0.2400 -0.3901
 4395TIP3    H134744   6.772   3.656   7.963  1.4027  0.3588 -0.6215
 4395TIP3    H234745   6.878   3.579   8.038 -0.9931  1.1456  3.9297
 4396TIP3   OH234746   5.311   3.035   1.106 -0.2596 -0.3331 -0.1265
 4396TIP3    H134747   5.244   3.048   1.039  1.3999  1.0019 -1.6464
 4396TIP3    H234748   5.281   2.959   1.156 -3.5495  1.0270  0.1864
 4397TIP3   OH234749   0.617   3.875   0.685  0.3039  0.0273 -0.4606
 4397TIP3    H134750   0.531   3.876   0.643  0.4679 -1.8371 -0.9550
 4397TIP3    H234751   0.659   3.796   0.650  1.7832  0.2878  0.6389
 4398TIP3   OH234752   1.180   0.656   1.452 -0.1642 -0.2298 -0.2031
 4398TIP3    H134753   1.134   0.695   1.526  0.6398 -0.6813  0.5576
 4398TIP3    H234754   1.149   0.566   1.447 -1.0574  0.1063 -1.1491
 4399TIP3   OH234755   4.416   0.005   1.679 -0.0315  0.3119 -0.3789
 4399TIP3    H134756   4.409  -0.040   1.763  0.0398 -1.0150 -1.0572
 4399TIP3    H234757   4.344  -0.030   1.627 -0.5163  1.6472 -0.6613
 4400TIP3   OH234758   3.926   1.242   0.476 -0.0395 -0.5904 -0.2245
 4400TIP3    H134759   3.995   1.212   0.535  0.8223 -0.4490 -1.1274
 4400TIP3    H234760   3.920   1.336   0.491 -0.8604 -0.7677  0.6751
 4401TIP3   OH234761   3.206   5.301   8.624  0.3919 -0.3965 -0.0862
 4401TIP3    H134762   3.239   5.298   8.534  0.7411 -1.0810  0.0636
 4401TIP3    H234763   3.247   5.380   8.660  2.2798 -1.4549  0.2329
 4402TIP3   OH234764   5.255   2.596   1.936  0.0011 -0.2263  0.1466
 4402TIP3    H134765   5.211   2.645   1.866  3.0248  1.2351 -0.9277
 4402TIP3    H234766   5.251   2.505   1.908 -4.0809 -0.5540  1.2224
 4403TIP3   OH234767   0.709   3.734   7.753 -0.2774 -0.0094  0.0702
 4403TIP3    H134768   0.617   3.753   7.771 -0.2437 -0.6889  0.9940
 4403TIP3    H234769   0.728   3.782   7.672 -1.2516  0.6918  0.2458
 4404TIP3   OH234770   0.985   2.470   0.875  0.3136 -0.2176  0.4277
 4404TIP3    H134771   1.033   2.475   0.792  0.0090  0.6884  0.2949
 4404TIP3    H234772   0.895   2.450   0.849 -0.0849  1.4542  0.4155
 4405TIP3   OH234773   4.660   0.117   0.348 -0.2107 -0.2646  0.4200
 4405TIP3    H134774   4.750   0.139   0.372 -0.0115 -1.2982  0.6784
 4405TIP3    H234775   4.661   0.022   0.337 -0.7646 -0.0688 -1.7272
 4406TIP3   OH234776   2.596   6.610   0.059  0.3271  0.0256  0.3340
 4406TIP3    H134777   2.624   6.529   0.018 -0.4351 -0.0795  0.0146
 4406TIP3    H234778   2.510   6.591   0.094  0.6022  0.3732  1.2331
 4407TIP3   OH234779   6.308   4.705   0.290  0.7167  0.4425 -0.8608
 4407TIP3    H134780   6.235   4.721   0.229 -0.0932  0.4809  0.0839
 4407TIP3    H234781   6.323   4.611   0.285  0.7753  0.4714 -1.2529
 4408TIP3   OH234782   1.843   6.241   2.051 -0.3963  0.1363  0.4798
 4408TIP3    H134783   1.910   6.237   2.120 -0.4328 -0.0625  0.5056
 4408TIP3    H234784   1.853   6.158   2.004 -1.6002 -0.5596  1.3975
 4409TIP3   OH234785   4.862   1.345   1.319  0.1028  0.0181 -0.3442
 4409TIP3    H134786   4.776   1.306   1.304  0.0968  0.2395 -0.9042
 4409TIP3    H234787   4.869   1.351   1.414 -0.0132 -1.0804 -0.2508
 4410TIP3   OH234788   6.206   4.241   0.245 -0.3827  0.0402 -0.1352
 4410TIP3    H134789   6.156   4.184   0.304 -1.4284  0.3064 -0.7412
 4410TIP3    H234790   6.141   4.302   0.210  0.9488  2.5965  1.5971
 4411TIP3   OH234791   0.120   0.859   8.043 -0.0939 -0.5751  0.2657
 4411TIP3    H134792   0.095   0.771   8.070 -0.5987 -0.4619  0.1800
 4411TIP3    H234793   0.215   0.861   8.052 -0.1617 -0.8349  1.1371
 4412TIP3   OH234794   2.932   4.178   1.519 -0.1273  0.1146 -0.5697
 4412TIP3    H134795   2.903   4.087   1.521 -0.2061  0.1400 -0.5624
 4412TIP3    H234796   2.906   4.214   1.604 -0.9101  0.3918 -0.9149
 4413TIP3   OH234797   5.728   6.071   1.471  0.9967  0.0225 -0.1064
 4413TIP3    H134798   5.720   6.111   1.558  2.5477  0.4530 -0.1373
 4413TIP3    H234799   5.702   6.141   1.411 -0.6515 -0.4568  0.0019
 4414TIP3   OH234800   1.525   2.529   2.317  0.2483  0.1032  0.1992
 4414TIP3    H134801   1.473   2.610   2.318 -1.0623 -0.7147  0.5697
 4414TIP3    H234802   1.608   2.554   2.358 -0.8646  0.8118  2.1585
 4415TIP3   OH234803   6.539   5.027   2.066 -0.0068  0.0817 -0.2276
 4415TIP3    H134804   6.523   5.054   1.975  0.6622  1.3642  0.0020
 4415TIP3    H234805   6.627   5.061   2.086  0.8171 -2.1404  0.2073
 4416TIP3   OH234806   4.650   0.355   6.790 -0.3330  0.3637  0.4237
 4416TIP3    H134807   4.580   0.332   6.851 -1.4785  1.5935 -0.3575
 4416TIP3    H234808   4.632   0.302   6.712  1.3202 -1.4564  1.1972
 4417TIP3   OH234809   2.729   5.840   0.137  0.3247  0.0824  0.5975
 4417TIP3    H134810   2.710   5.825   0.045 -1.4416  1.3931  0.6974
 4417TIP3    H234811   2.807   5.786   0.155 -0.9510 -2.4472 -0.9138
 4418TIP3   OH234812   2.414   0.869   7.287 -0.6825 -0.7269  0.0953
 4418TIP3    H134813   2.427   0.855   7.193 -1.7254 -2.2891  0.1522
 4418TIP3    H234814   2.346   0.936   7.292  0.7327  0.7897 -0.2251
 4419TIP3   OH234815   4.749   3.345   1.069 -0.2189 -0.8738 -0.8160
 4419TIP3    H134816   4.805   3.381   1.137  0.5921  1.9738 -2.8015
 4419TIP3    H234817   4.662   3.379   1.087 -0.1825 -0.8183 -0.7500
 4420TIP3   OH234818   3.993   2.631   8.427 -0.4881  0.8631 -0.1320
 4420TIP3    H134819   3.942   2.629   8.346 -0.4106 -0.3161 -0.1725
 4420TIP3    H234820   3.983   2.543   8.464 -0.3612  1.3253  1.0438
 4421TIP3   OH234821   5.561   1.537   0.452  0.0927  0.0409  0.0735
 4421TIP3    H134822   5.601   1.624   0.463 -3.4972  1.9129 -0.3432
 4421TIP3    H234823   5.501   1.528   0.525 -0.6760 -1.4777 -0.6935
 4422TIP3   OH234824   3.676   3.070   6.701 -0.0394 -0.6463 -0.0743
 4422TIP3    H134825   3.603   3.128   6.679  0.3524 -0.1351 -0.0451
 4422TIP3    H234826   3.656   2.988   6.656 -0.1160 -0.1679 -0.9401
 4423TIP3   OH234827   5.636   0.616   7.761  0.0994 -0.1566 -0.1555
 4423TIP3    H134828   5.556   0.580   7.723 -1.7243  0.5137  2.7663
 4423TIP3    H234829   5.696   0.541   7.764 -1.4726 -1.4547  0.2690
 4424TIP3   OH234830   4.677   3.514   0.035 -0.0172 -0.1320 -0.2833
 4424TIP3    H134831   4.622   3.589   0.013  0.6173  0.8016  1.1549
 4424TIP3    H234832   4.764   3.552   0.049 -0.0645 -0.8017  2.3452
 4425TIP3   OH234833   5.293   5.112   7.659  0.3991 -0.0266 -0.4948
 4425TIP3    H134834   5.360   5.048   7.631  0.7741  0.4762 -0.7583
 4425TIP3    H234835   5.214   5.085   7.613  1.1119  1.0529 -2.4627
 4426TIP3   OH234836   1.221   0.467   0.972  0.2858  0.6944 -0.0392
 4426TIP3    H134837   1.191   0.513   1.050  0.2392  0.9969 -0.2320
 4426TIP3    H234838   1.156   0.489   0.905 -0.0586 -0.1331  0.0149
 4427TIP3   OH234839   2.102   1.651   1.018 -0.0793 -0.7633  0.4523
 4427TIP3    H134840   2.107   1.704   0.938  0.2286  0.6200  1.3510
 4427TIP3    H234841   2.155   1.574   0.999 -0.8052 -0.9415 -1.0085
 4428TIP3   OH234842   0.715   5.000   2.749  0.0257 -0.1868  0.0645
 4428TIP3    H134843   0.635   5.045   2.719 -0.2644 -0.7039  0.0510
 4428TIP3    H234844   0.748   4.955   2.671  0.0215 -0.4277  0.2002
 4429TIP3   OH234845   5.016   1.581   3.160  0.3362 -0.4506 -0.1918
 4429TIP3    H134846   5.081   1.628   3.108  0.2857 -2.1012 -1.8520
 4429TIP3    H234847   5.041   1.489   3.152 -1.5408 -1.0274  0.0640
 4430TIP3   OH234848   2.915   1.573   1.006 -0.5390  0.0557  0.3722
 4430TIP3    H134849   2.866   1.634   1.062 -2.2926  0.3219 -1.3384
 4430TIP3    H234850   2.849   1.513   0.972  0.8177 -1.4295  0.2282
 4431TIP3   OH234851   4.727   1.102   0.991 -0.1911 -0.3087 -0.0295
 4431TIP3    H134852   4.638   1.069   0.997 -0.8572  0.4470 -3.3966
 4431TIP3    H234853   4.728   1.179   1.048 -0.7226 -1.9274  2.3080
 4432TIP3   OH234854   4.896   0.022   0.030  0.0113 -0.1150  0.2632
 4432TIP3    H134855   4.965   0.008  -0.035  1.7975 -0.5654  2.1458
 4432TIP3    H234856   4.847   0.097  -0.003  3.7186  2.7135  0.5788
 4433TIP3   OH234857   2.719   4.563   8.700 -0.1715 -0.0549 -0.3699
 4433TIP3    H134858   2.646   4.560   8.638 -1.4201 -1.9419  1.0319
 4433TIP3    H234859   2.786   4.506   8.662 -0.2667  0.0801 -0.7396
 4434TIP3   OH234860   6.490   4.669   7.476 -0.2576  0.3980  0.2555
 4434TIP3    H134861   6.439   4.631   7.547 -1.5231  1.4356 -0.0502
 4434TIP3    H234862   6.438   4.744   7.446  0.9828  0.9129 -0.7414
 4435TIP3   OH234863   4.856   4.330   0.199 -0.1088  0.5128 -0.3673
 4435TIP3    H134864   4.879   4.373   0.282  1.5308  2.3954 -1.6895
 4435TIP3    H234865   4.898   4.245   0.203 -0.2861  0.4650  0.8409
 4436TIP3   OH234866   0.151   2.218   0.521  0.5131 -0.6280 -0.3451
 4436TIP3    H134867   0.147   2.208   0.425  2.4410 -1.3004 -0.3999
 4436TIP3    H234868   0.232   2.173   0.546  1.3332  1.6172  1.3283
 4437TIP3   OH234869   1.573   4.064   0.950 -0.1331  0.0316 -0.7471
 4437TIP3    H134870   1.575   4.158   0.936  1.6532  0.4581  1.7023
 4437TIP3    H234871   1.651   4.031   0.906  0.1066 -0.0618 -0.2573
 4438TIP3   OH234872   2.097   6.715   8.649 -0.1759  0.1093 -0.5240
 4438TIP3    H134873   2.008   6.702   8.684 -0.2620 -0.4786 -0.9443
 4438TIP3    H234874   2.111   6.640   8.591  0.2075  0.7321 -1.2584
 4439TIP3   OH234875   1.815   0.555   2.252 -0.0256  0.0731  0.1104
 4439TIP3    H134876   1.720   0.550   2.258 -0.0460 -0.0311 -0.2837
 4439TIP3    H234877   1.847   0.495   2.320 -0.2341  0.3737  0.4826
 4440TIP3   OH234878   0.508   0.705   0.463 -0.3880  0.1152 -0.0747
 4440TIP3    H134879   0.526   0.712   0.369 -0.3307  0.7378 -0.0194
 4440TIP3    H234880   0.416   0.731   0.471 -0.7791 -1.1884 -0.1146
 4441TIP3   OH234881   6.746   2.123   1.580 -0.0823  0.8056  0.7998
 4441TIP3    H134882   6.728   2.094   1.669  0.8528 -0.5585  0.5812
 4441TIP3    H234883   6.771   2.043   1.533  0.8411  1.7007 -0.3201
 4442TIP3   OH234884   4.293   2.936   8.479  0.4751 -0.6769  0.3084
 4442TIP3    H134885   4.220   2.995   8.461  1.3282  0.5258  0.7354
 4442TIP3    H234886   4.321   2.958   8.568  0.1095 -2.4880  0.9185
 4443TIP3   OH234887   6.464   0.027   0.956 -1.0006 -0.3731 -0.6455
 4443TIP3    H134888   6.371   0.031   0.934 -1.1281 -2.4358 -0.6943
 4443TIP3    H234889   6.507   0.002   0.874 -0.6676 -1.4597 -0.1523
 4444TIP3   OH234890   4.155   5.250   0.965 -0.2615  0.5592 -0.3539
 4444TIP3    H134891   4.233   5.220   0.917  0.9357 -0.4440  2.0498
 4444TIP3    H234892   4.188   5.316   1.025 -0.5447 -1.8759  2.7683
 4445TIP3   OH234893   1.129   1.826   1.756  0.2287 -0.3325  0.0869
 4445TIP3    H134894   1.208   1.789   1.716 -0.6772 -1.1599 -1.0299
 4445TIP3    H234895   1.084   1.869   1.683 -2.3268 -3.3368 -0.3409
 4446TIP3   OH234896   2.413   4.200   8.626  0.2535  0.5675  0.3048
 4446TIP3    H134897   2.331   4.250   8.632 -0.8399 -1.0207 -0.6653
 4446TIP3    H234898   2.474   4.259   8.582 -0.4392  1.6798  0.7865
 4447TIP3   OH234899   6.356   6.199   1.690  0.0692  0.1907 -0.1304
 4447TIP3    H134900   6.329   6.274   1.638 -1.2491 -0.8898 -1.0951
 4447TIP3    H234901   6.428   6.231   1.744  0.5115  1.7489 -1.5559
 4448TIP3   OH234902   1.383   5.314   0.436 -0.2653  0.0998 -0.8418
 4448TIP3    H134903   1.390   5.332   0.342 -0.9805 -1.6756 -1.2623
 4448TIP3    H234904   1.352   5.224   0.442  1.7781 -0.5940  1.1150
 4449TIP3   OH234905   3.487   2.757   7.650  0.1167  0.0819  0.0451
 4449TIP3    H134906   3.544   2.730   7.579 -0.8398  0.3455 -0.8566
 4449TIP3    H234907   3.474   2.678   7.702  0.2026 -0.3102 -0.5227
 4450TIP3   OH234908   0.878   4.071   2.866  0.5082  0.1856 -0.6702
 4450TIP3    H134909   0.905   3.986   2.832  0.8949  0.6180 -1.4939
 4450TIP3    H234910   0.793   4.087   2.823 -1.1405 -1.1423  1.8555
 4451TIP3   OH234911   2.681   6.520   2.653 -0.2031  0.1233 -0.0296
 4451TIP3    H134912   2.704   6.612   2.636 -1.1690  0.5262  0.7821
 4451TIP3    H234913   2.608   6.524   2.715 -1.3061 -1.1555 -1.1732
 4452TIP3   OH234914   4.165   5.801   1.116  0.4436  0.1252 -0.1443
 4452TIP3    H134915   4.247   5.769   1.152  1.1945 -0.9077 -2.5649
 4452TIP3    H234916   4.165   5.895   1.133  1.5135 -0.0574  0.9598
 4453TIP3   OH234917   3.983   1.786   8.290  0.0666 -0.3118  0.0559
 4453TIP3    H134918   3.926   1.710   8.299  1.1150 -1.1439 -0.3190
 4453TIP3    H234919   4.040   1.782   8.367  0.8870 -0.5567 -0.5606
 4454TIP3   OH234920   3.822   5.332   7.283 -0.0181 -0.1526 -0.4988
 4454TIP3    H134921   3.852   5.246   7.255  0.5123 -0.6739  1.5799
 4454TIP3    H234922   3.822   5.384   7.202 -1.6513 -2.4079 -2.0809
 4455TIP3   OH234923   0.276   1.180   7.233 -0.0676 -0.0275  0.5011
 4455TIP3    H134924   0.292   1.089   7.258 -1.0752  0.1354  1.8485
 4455TIP3    H234925   0.346   1.229   7.277  0.3564 -0.1156 -0.0622
 4456TIP3   OH234926   2.005   5.907   8.374  0.0687 -0.1080 -0.1813
 4456TIP3    H134927   2.081   5.852   8.357  1.2428  0.9065  1.5138
 4456TIP3    H234928   2.037   5.997   8.361 -1.5678  0.2738 -2.0157
 4457TIP3   OH234929   5.132   0.042   8.114  0.3170  0.3054 -0.2673
 4457TIP3    H134930   5.058   0.030   8.055 -0.7646 -0.2341  1.1453
 4457TIP3    H234931   5.092   0.067   8.198  1.8749  2.4719 -0.0845
 4458TIP3   OH234932   5.967   4.086   7.179  0.5157 -0.0839  0.6223
 4458TIP3    H134933   5.926   4.063   7.263  1.8282 -1.1395  1.0150
 4458TIP3    H234934   5.939   4.176   7.162 -0.1600 -0.0176  1.9453
 4459TIP3   OH234935   6.135   2.664   7.741  0.1888  0.0815  0.2712
 4459TIP3    H134936   6.217   2.656   7.790 -1.2112 -2.3169  2.4990
 4459TIP3    H234937   6.068   2.681   7.808 -1.3876  0.0895 -1.2317
 4460TIP3   OH234938   3.364   6.565   2.385  0.3529  0.3352 -0.9604
 4460TIP3    H134939   3.378   6.647   2.432 -0.8980 -0.3479  0.7069
 4460TIP3    H234940   3.420   6.502   2.429 -1.0595 -0.3820 -0.0933
 4461TIP3   OH234941   3.984   1.387   0.883 -0.0266  0.0342  0.4872
 4461TIP3    H134942   3.965   1.444   0.957  1.1218  0.3665  0.5534
 4461TIP3    H234943   4.069   1.418   0.850 -0.4889 -0.1315 -0.9444
 4462TIP3   OH234944   0.046   3.318   1.369  0.3343  0.0733 -0.1038
 4462TIP3    H134945   0.091   3.277   1.295  0.9995  0.6264 -0.0145
 4462TIP3    H234946   0.095   3.289   1.446  0.3232  0.3903  0.0242
 4463TIP3   OH234947   5.240   4.482   1.162 -0.1128 -0.0961  0.0928
 4463TIP3    H134948   5.240   4.388   1.180  0.6711  0.2446  2.1282
 4463TIP3    H234949   5.299   4.492   1.087 -0.3306 -1.2286 -0.2480
 4464TIP3   OH234950   1.549   0.934   3.284  0.1263  0.4793  0.2066
 4464TIP3    H134951   1.472   0.880   3.301 -0.6079  0.2183 -3.1689
 4464TIP3    H234952   1.529   0.978   3.201  3.1449  1.3058 -0.2045
 4465TIP3   OH234953   5.912   1.675   0.991  0.2016 -0.1673 -0.0653
 4465TIP3    H134954   5.840   1.737   0.999 -0.6474 -0.8967 -1.5825
 4465TIP3    H234955   5.926   1.642   1.079 -2.7577 -1.5561  0.0053
 4466TIP3   OH234956   2.223   3.617   8.063  0.5542 -0.2474  0.7438
 4466TIP3    H134957   2.241   3.524   8.049 -0.5014 -0.2691 -0.6555
 4466TIP3    H234958   2.142   3.634   8.015 -0.9362  0.7484  3.3655
 4467TIP3   OH234959   3.866   4.583   2.701 -0.5272 -0.1580  0.0585
 4467TIP3    H134960   3.793   4.554   2.756  0.5438 -2.1679  0.4876
 4467TIP3    H234961   3.944   4.553   2.747  0.8100  3.7156  0.6975
 4468TIP3   OH234962   6.548   5.698   2.939 -0.3153 -0.1824 -0.5472
 4468TIP3    H134963   6.478   5.665   2.996  0.8632 -0.7689  0.5993
 4468TIP3    H234964   6.516   5.782   2.908 -1.4349 -0.3339  0.1476
 4469TIP3   OH234965   3.951   2.352   2.221  0.1286  0.6696  0.1222
 4469TIP3    H134966   3.931   2.381   2.310  0.2918  2.1392 -0.2813
 4469TIP3    H234967   4.040   2.385   2.205  0.4975 -0.4648 -0.2330
 4470TIP3   OH234968   1.297   1.459   2.911 -0.5691 -0.2978  0.8695
 4470TIP3    H134969   1.356   1.534   2.907  0.6755 -1.2640  0.1543
 4470TIP3    H234970   1.212   1.493   2.884  0.2898  0.5764 -0.9002
 4471TIP3   OH234971   2.250   4.192   8.258 -0.2197 -0.0479  0.1686
 4471TIP3    H134972   2.271   4.116   8.312 -1.4559 -1.2526 -0.9543
 4471TIP3    H234973   2.311   4.186   8.184  0.7830  1.0162  0.8777
 4472TIP3   OH234974   0.363   4.601   1.213 -0.1941 -0.8000 -1.0864
 4472TIP3    H134975   0.416   4.599   1.293 -0.1966  1.1798 -0.9920
 4472TIP3    H234976   0.355   4.509   1.188 -1.5373 -1.6747  2.0465
 4473TIP3   OH234977   4.251   1.930   2.194 -0.4044 -0.0632  0.2184
 4473TIP3    H134978   4.310   1.968   2.129 -0.2535 -0.9389 -0.1648
 4473TIP3    H234979   4.212   1.855   2.151 -0.2154 -0.7353  1.1849
 4474TIP3   OH234980   3.767   4.177   0.530 -0.5487 -0.1628 -0.5403
 4474TIP3    H134981   3.783   4.187   0.436  1.6841  1.4062 -0.0854
 4474TIP3    H234982   3.844   4.131   0.563  2.0416  4.7390  1.3091
 4475TIP3   OH234983   4.895   4.255   8.451  0.5760  0.2709  0.0935
 4475TIP3    H134984   4.967   4.193   8.469  1.4717  0.8596 -1.3011
 4475TIP3    H234985   4.900   4.271   8.357 -1.0964  0.7221  0.0522
 4476TIP3   OH234986   5.259   4.025   1.835 -0.0628  0.0816  0.0115
 4476TIP3    H134987   5.198   4.086   1.876 -0.1359 -0.1611  0.2672
 4476TIP3    H234988   5.278   4.064   1.750 -0.5511  0.1758 -0.0592
 4477TIP3   OH234989   3.122   6.541   0.684 -0.4655  0.4625 -0.0238
 4477TIP3    H134990   3.206   6.519   0.724  0.2652  1.7067 -0.7966
 4477TIP3    H234991   3.095   6.621   0.728 -1.0136  0.3191 -0.0976
 4478TIP3   OH234992   1.992   5.716   0.533 -0.0720 -0.6512 -0.3172
 4478TIP3    H134993   1.937   5.730   0.610  0.5022 -1.4290  0.2482
 4478TIP3    H234994   2.056   5.787   0.535 -0.6912 -0.0710 -0.6652
 4479TIP3   OH234995   5.082   6.152   2.051 -0.0153 -0.0943 -0.2614
 4479TIP3    H134996   5.134   6.136   2.129  0.5150 -0.5584 -0.6989
 4479TIP3    H234997   5.015   6.214   2.079  1.0303  0.8511  0.2018
 4480TIP3   OH234998   2.761   3.267   8.699 -0.1020  0.2082 -0.8163
 4480TIP3    H134999   2.739   3.208   8.627 -0.6345 -1.9274  0.9782
 4480TIP3    H235000   2.854   3.287   8.686  0.7159 -2.8383 -0.3688
 4481TIP3   OH235001   5.799   2.883   2.418 -0.5423  0.4447 -0.2654
 4481TIP3    H135002   5.835   2.917   2.500  2.3293  0.3472 -1.3850
 4481TIP3    H235003   5.782   2.960   2.365 -1.7036  0.4604  0.0803
 4482TIP3   OH235004   5.195   4.604   2.211 -0.0851 -0.2009  0.2582
 4482TIP3    H135005   5.261   4.536   2.210 -0.0528 -0.1706 -0.5706
 4482TIP3    H235006   5.112   4.557   2.205 -0.1720 -0.2543  1.5790
 4483TIP3   OH235007   1.595   1.557   0.017  0.3107 -0.4339 -0.3854
 4483TIP3    H135008   1.619   1.508  -0.062  3.5256  0.2704  0.0069
 4483TIP3    H235009   1.587   1.489   0.085 -1.5677 -0.9514 -1.0818
 4484TIP3   OH235010   5.545   0.294   0.085 -0.6353  0.6696 -0.3295
 4484TIP3    H135011   5.548   0.390   0.082 -0.0075  0.8331  2.3990
 4484TIP3    H235012   5.631   0.266   0.055 -0.7455  0.9617 -0.9347
 4485TIP3   OH235013   0.491   2.109   2.832  0.3538  0.0413 -0.0445
 4485TIP3    H135014   0.509   2.196   2.795  0.8693 -0.4821 -1.0567
 4485TIP3    H235015   0.436   2.066   2.767 -0.2604 -0.2494  0.6580
 4486TIP3   OH235016   3.745   5.470   2.303 -0.0828 -0.0244  0.1488
 4486TIP3    H135017   3.660   5.509   2.326  0.7381  1.2175  1.2202
 4486TIP3    H235018   3.785   5.534   2.244  0.4550 -0.2216  0.3000
 4487TIP3   OH235019   5.863   1.370   2.088 -0.2936  0.1254 -0.2172
 4487TIP3    H135020   5.956   1.352   2.074 -0.3630  0.1595 -0.7760
 4487TIP3    H235021   5.847   1.450   2.037 -0.4962  0.4530  0.3570
 4488TIP3   OH235022   4.811   5.494   7.320  0.2978  0.0165  0.4728
 4488TIP3    H135023   4.826   5.437   7.244  0.1936 -1.1622  1.3103
 4488TIP3    H235024   4.770   5.572   7.283  0.9910 -0.1841 -0.7862
 4489TIP3   OH235025   0.890   0.114   7.771  0.0174 -0.1988 -0.0983
 4489TIP3    H135026   0.834   0.191   7.781 -0.7031 -0.9653  2.9525
 4489TIP3    H235027   0.845   0.060   7.705 -1.0776  0.6653 -0.0901
 4490TIP3   OH235028   6.199   3.641   0.924  0.5126 -0.1165  0.5078
 4490TIP3    H135029   6.208   3.619   1.017 -0.7803 -1.5207  0.3575
 4490TIP3    H235030   6.284   3.676   0.898  0.2618  2.4279  2.7281
 4491TIP3   OH235031   0.667   3.002   7.836  0.5449 -0.3112 -0.1900
 4491TIP3    H135032   0.586   2.964   7.804  0.0026  1.9877 -1.7961
 4491TIP3    H235033   0.652   3.097   7.833  2.1541  0.1640  2.5981
 4492TIP3   OH235034   1.024   5.583   8.013 -0.3570 -0.8155  0.4541
 4492TIP3    H135035   1.119   5.593   8.001 -0.3097 -0.7451  0.8666
 4492TIP3    H235036   0.992   5.555   7.927 -0.0613 -0.1570  0.1193
 4493TIP3   OH235037   4.065   3.569   2.477  0.3330  0.1380  0.0141
 4493TIP3    H135038   3.991   3.614   2.519  0.7511  0.8876 -0.0301
 4493TIP3    H235039   4.055   3.478   2.503 -0.7201  0.1897 -0.1515
 4494TIP3   OH235040   2.958   3.706   8.369 -0.2170  0.1062 -0.2330
 4494TIP3    H135041   3.014   3.629   8.362  0.9222  0.8352  0.5089
 4494TIP3    H235042   2.894   3.683   8.436  0.5762  0.0586  0.5223
 4495TIP3   OH235043   0.674   2.680   8.105  0.3190 -0.6089 -0.3580
 4495TIP3    H135044   0.624   2.760   8.121  1.1132 -0.1004 -0.3814
 4495TIP3    H235045   0.746   2.683   8.169  1.2488 -0.5169 -1.3741
 4496TIP3   OH235046   5.728   2.493   2.091  0.4133 -0.5408  0.2610
 4496TIP3    H135047   5.793   2.554   2.056  0.7435 -2.0404 -1.9608
 4496TIP3    H235048   5.769   2.459   2.171  0.2516  1.9776  1.4981
 4497TIP3   OH235049   3.492   5.325   2.068 -0.0581  0.2573 -0.4057
 4497TIP3    H135050   3.445   5.278   2.137  1.6081  1.2104  1.4836
 4497TIP3    H235051   3.444   5.407   2.058 -2.0812 -1.0460 -2.6492
 4498TIP3   OH235052   0.161   1.529   8.704  0.1084 -0.2957  0.3025
 4498TIP3    H135053   0.103   1.473   8.756  0.3099 -1.3324 -0.5429
 4498TIP3    H235054   0.224   1.468   8.666 -0.0220  0.4206 -1.1276
 4499TIP3   OH235055   5.192   1.771   2.153 -0.2974 -0.2828  0.1929
 4499TIP3    H135056   5.214   1.798   2.064 -1.4671  0.4411  0.1074
 4499TIP3    H235057   5.239   1.833   2.209  0.1691 -0.5291  0.0744
 4500TIP3   OH235058   4.289   5.899   0.743  0.3564 -0.4516  0.0796
 4500TIP3    H135059   4.201   5.928   0.769  0.0141 -0.7676 -0.6995
 4500TIP3    H235060   4.274   5.823   0.688  0.9376  1.0831 -2.3472
 4501TIP3   OH235061   1.734   5.068   8.112  0.2165  0.2584 -0.1896
 4501TIP3    H135062   1.737   4.975   8.093 -1.1968  0.5204 -1.9480
 4501TIP3    H235063   1.823   5.100   8.094  0.4033 -0.5457 -0.7077
 4502TIP3   OH235064   6.266   5.862   8.353  0.3923 -0.0446 -0.1584
 4502TIP3    H135065   6.211   5.920   8.406  0.8478 -2.4629  3.3109
 4502TIP3    H235066   6.355   5.894   8.366  0.4993 -0.6081  0.5409
 4503TIP3   OH235067   1.843   6.479   8.269 -0.4495  0.0110  0.1310
 4503TIP3    H135068   1.791   6.484   8.349 -1.1895 -0.1589 -0.3334
 4503TIP3    H235069   1.902   6.405   8.283 -0.4345  0.1084  0.5958
 4504TIP3   OH235070   1.469   4.342   2.169 -0.6197  0.5050  0.1437
 4504TIP3    H135071   1.442   4.431   2.147  0.3738  1.2139  1.6660
 4504TIP3    H235072   1.548   4.327   2.117  0.6941  1.5108  1.7663
 4505TIP3   OH235073   3.915   2.928   7.819 -0.2224 -0.4726 -0.1472
 4505TIP3    H135074   3.859   2.866   7.771  1.6101 -0.1676 -2.9048
 4505TIP3    H235075   3.876   3.014   7.801 -1.0698 -0.5484  1.2222
 4506TIP3   OH235076   6.502   1.601   1.805  0.0264  0.6606 -0.5750
 4506TIP3    H135077   6.578   1.589   1.747  0.1646  0.5158 -0.3657
 4506TIP3    H235078   6.427   1.592   1.747  0.1744  1.1202 -0.8398
 4507TIP3   OH235079   6.240   4.202   8.181 -0.0685 -0.0970 -0.4705
 4507TIP3    H135080   6.183   4.150   8.239  0.2416  0.0243 -0.0493
 4507TIP3    H235081   6.261   4.142   8.109 -0.9083 -0.0701 -0.7515
 4508TIP3   OH235082   6.517   6.413   7.956  0.0036  0.1812 -0.2638
 4508TIP3    H135083   6.446   6.349   7.964 -1.5167  1.8987  0.8521
 4508TIP3    H235084   6.593   6.369   7.992 -1.2480 -0.6755  1.4759
 4509TIP3   OH235085   0.477   2.303   0.371 -0.6932 -0.0258  0.2863
 4509TIP3    H135086   0.454   2.248   0.446  0.5134 -0.5865  0.2645
 4509TIP3    H235087   0.405   2.290   0.309  0.3551 -2.9503 -0.4409
 4510TIP3   OH235088   1.647   3.196   2.785  0.0396 -0.0425  0.3658
 4510TIP3    H135089   1.561   3.161   2.762 -0.9140  2.0738  0.4660
 4510TIP3    H235090   1.637   3.227   2.875  1.1300 -0.3807  0.6203
 4511TIP3   OH235091   5.067   1.628   1.764  1.0472 -0.2873 -0.1607
 4511TIP3    H135092   4.977   1.603   1.743  1.1876  1.0426 -2.7051
 4511TIP3    H235093   5.109   1.545   1.789 -0.7226 -1.0142  0.5598
 4512TIP3   OH235094   1.872   6.029   0.175 -0.1626  0.5664 -0.5330
 4512TIP3    H135095   1.961   5.993   0.169 -0.0785  0.0652  2.3236
 4512TIP3    H235096   1.868   6.071   0.261 -3.4663 -1.8381  0.7084
 4513TIP3   OH235097   0.017   0.363   1.185 -0.3374  0.8296  0.0178
 4513TIP3    H135098  -0.000   0.365   1.279 -0.1884  1.1982  0.0364
 4513TIP3    H235099  -0.062   0.323   1.148  1.6092 -4.6617  0.7721
 4514TIP3   OH235100   0.331   4.691   0.376  0.3434 -0.2112 -0.0146
 4514TIP3    H135101   0.392   4.725   0.312 -0.0656  1.2092  0.3235
 4514TIP3    H235102   0.251   4.742   0.363 -0.7214 -1.8768 -0.2977
 4515TIP3   OH235103   5.822   4.015   7.805 -0.3477  0.3516 -0.0495
 4515TIP3    H135104   5.880   3.966   7.746  0.7029 -0.7554  1.7831
 4515TIP3    H235105   5.834   4.106   7.780  0.9158  0.0024 -0.8405
 4516TIP3   OH235106   4.787   4.915   1.545 -0.1535  0.0617 -0.2817
 4516TIP3    H135107   4.796   4.979   1.616 -0.8385 -0.9213  0.7484
 4516TIP3    H235108   4.836   4.839   1.576 -0.2195 -0.2734 -0.9941
 4517TIP3   OH235109   4.816   4.522   1.366  0.1189  0.3448  1.0187
 4517TIP3    H135110   4.787   4.476   1.445 -1.5889 -0.3367  0.0517
 4517TIP3    H235111   4.911   4.531   1.377  0.2681 -1.8131  2.0798
 4518TIP3   OH235112   4.016   4.222   8.500  0.1875 -0.3916 -0.2150
 4518TIP3    H135113   4.034   4.312   8.471  1.1519 -1.1018 -2.0094
 4518TIP3    H235114   3.972   4.232   8.584  0.2518  1.7589 -0.3813
 4519TIP3   OH235115   0.336   3.063   0.326  0.3929  0.7205  0.6304
 4519TIP3    H135116   0.347   3.002   0.253  1.3387  0.2628  1.1384
 4519TIP3    H235117   0.410   3.045   0.383  0.3984  1.9997  1.0514
 4520TIP3   OH235118   2.422   6.240   1.244 -0.1207  0.5398  0.0262
 4520TIP3    H135119   2.407   6.249   1.150  0.9474  1.6809 -0.0547
 4520TIP3    H235120   2.418   6.329   1.277  1.8124  0.4159  0.7003
 4521TIP3   OH235121   4.419   4.597   2.344 -0.2909 -0.1292  0.0721
 4521TIP3    H135122   4.358   4.665   2.375 -0.2797 -0.6509  1.2726
 4521TIP3    H235123   4.434   4.542   2.420  0.8859 -0.6165 -0.4937
 4522TIP3   OH235124   6.339   3.413   2.895 -0.1736  0.1501  0.1974
 4522TIP3    H135125   6.354   3.349   2.964 -0.0827  0.0912  0.1222
 4522TIP3    H235126   6.298   3.487   2.940  1.0765  0.6555  0.5669
 4523TIP3   OH235127   1.388   3.340   7.465  0.3699 -0.0012  0.0032
 4523TIP3    H135128   1.465   3.283   7.452 -0.1208 -0.4223 -1.0789
 4523TIP3    H235129   1.419   3.405   7.528  1.4513 -0.4921  0.0206
 4524TIP3   OH235130   3.672   2.025   1.050 -0.2748  0.4767  0.0136
 4524TIP3    H135131   3.763   2.025   1.080 -0.2907 -1.2937  0.1328
 4524TIP3    H235132   3.677   2.057   0.960  0.3843  0.9262  0.1954
 4525TIP3   OH235133   1.714   6.467   2.188  0.0265  0.4110  0.1453
 4525TIP3    H135134   1.690   6.389   2.237  1.5025  0.5223  1.1136
 4525TIP3    H235135   1.632   6.515   2.177 -0.7123 -0.7195  0.4936
 4526TIP3   OH235136   2.799   3.880   2.806  0.0577 -0.4746 -0.3512
 4526TIP3    H135137   2.816   3.961   2.757  0.4059 -1.4096 -1.8637
 4526TIP3    H235138   2.715   3.895   2.848 -0.1035  0.5154 -0.9854
 4527TIP3   OH235139   3.006   1.202   0.580 -0.7772 -0.4315 -0.2412
 4527TIP3    H135140   3.032   1.275   0.524 -2.3126  0.5904  0.3027
 4527TIP3    H235141   2.994   1.129   0.520  1.8393 -0.6149 -0.6753
 4528TIP3   OH235142   6.038   5.575   0.176 -0.2683 -0.1462 -0.1846
 4528TIP3    H135143   6.021   5.545   0.087 -1.6225  1.6389 -0.5741
 4528TIP3    H235144   5.995   5.660   0.182 -0.2420 -0.2307  2.1950
 4529TIP3   OH235145   3.593   2.260   1.760  0.2473 -0.1186  0.7257
 4529TIP3    H135146   3.649   2.337   1.749 -0.0384 -0.0553 -0.5078
 4529TIP3    H235147   3.647   2.186   1.735 -0.1353 -0.0706 -0.3320
 4530TIP3   OH235148   0.625   3.970   0.956  0.5390  0.2856 -0.1001
 4530TIP3    H135149   0.536   3.939   0.973  0.9768 -1.4715 -0.7889
 4530TIP3    H235150   0.638   3.954   0.862  2.0730 -0.9314  0.2798
 4531TIP3   OH235151   3.157   3.403   8.347 -0.1205  0.2695 -0.1293
 4531TIP3    H135152   3.239   3.359   8.323 -0.3886 -0.1687 -0.2496
 4531TIP3    H235153   3.179   3.496   8.346  0.6424  0.1239  0.7856
 4532TIP3   OH235154   5.567   2.126   0.294  0.1308  0.6163  0.5181
 4532TIP3    H135155   5.530   2.106   0.381 -1.0238 -0.0667 -0.0960
 4532TIP3    H235156   5.493   2.112   0.234 -0.0605  4.2566 -0.2903
 4533TIP3   OH235157   4.632   0.330   1.313 -0.0909  0.1812 -0.7418
 4533TIP3    H135158   4.569   0.268   1.351 -0.9775  1.3166 -0.2933
 4533TIP3    H235159   4.592   0.356   1.230 -0.5228  1.3244 -0.2027
 4534TIP3   OH235160   6.588   0.900   0.489 -0.4388 -0.3780  0.1834
 4534TIP3    H135161   6.593   0.994   0.505 -2.2811  0.6647 -4.0995
 4534TIP3    H235162   6.506   0.873   0.530 -1.0522  0.3901 -0.5316
 4535TIP3   OH235163   4.300   6.021   7.579  0.2492  0.4344  0.2692
 4535TIP3    H135164   4.268   6.040   7.491 -0.0070  0.7561  0.4294
 4535TIP3    H235165   4.359   5.947   7.568 -0.5750 -0.2013 -0.0394
 4536TIP3   OH235166   3.576   4.740   7.598 -0.0500 -0.5602 -0.2830
 4536TIP3    H135167   3.576   4.835   7.593 -1.3294 -0.5756 -0.7875
 4536TIP3    H235168   3.608   4.711   7.513 -0.6092 -0.5893 -0.4846
 4537TIP3   OH235169   5.701   3.215   1.157 -0.4365  0.3049 -0.0941
 4537TIP3    H135170   5.744   3.298   1.178  0.4602 -0.6235  2.0516
 4537TIP3    H235171   5.758   3.173   1.093 -0.9070  1.3268 -1.2103
 4538TIP3   OH235172   6.816   0.239   2.091  0.4064  0.4133  0.6408
 4538TIP3    H135173   6.768   0.300   2.148  2.1882 -0.0750  2.8086
 4538TIP3    H235174   6.908   0.255   2.111  1.0194 -1.1713 -0.7189
 4539TIP3   OH235175   1.471   1.105   1.678 -0.2726 -0.2808 -0.3246
 4539TIP3    H135176   1.464   1.052   1.757  0.3156  0.3512  0.1633
 4539TIP3    H235177   1.461   1.043   1.606 -0.0053 -0.9871  0.2384
 4540TIP3   OH235178   1.332   4.997   0.152 -0.0519  0.6904 -0.7762
 4540TIP3    H135179   1.331   4.965   0.242  0.7721  0.0271 -0.9960
 4540TIP3    H235180   1.380   4.930   0.103  1.3400  2.0348 -1.3283
 4541TIP3   OH235181   3.195   2.840   8.724  0.4140  0.1911 -0.5584
 4541TIP3    H135182   3.249   2.877   8.793 -2.8806 -0.1997  2.5398
 4541TIP3    H235183   3.127   2.905   8.709 -0.1908 -0.6955 -1.8634
 4542TIP3   OH235184   3.932   1.976   2.590 -0.1302  0.1452  0.0269
 4542TIP3    H135185   3.988   2.031   2.645  0.0111 -0.3574  0.3837
 4542TIP3    H235186   3.905   1.904   2.647  1.1295 -1.1474 -0.9414
 4543TIP3   OH235187   3.259   0.940   1.130 -0.0295 -0.0371 -0.5068
 4543TIP3    H135188   3.207   0.901   1.201  0.6743  0.6379  0.4088
 4543TIP3    H235189   3.343   0.960   1.171 -0.1922  1.9927 -1.0544
 4544TIP3   OH235190   0.019   4.300   0.615  0.6600  0.0998  0.0737
 4544TIP3    H135191  -0.028   4.353   0.680  0.0100  1.3776 -1.3625
 4544TIP3    H235192  -0.032   4.311   0.535  0.6423 -2.5884 -0.3486
 4545TIP3   OH235193   3.490   2.921   2.612  0.1979  0.4390  1.2409
 4545TIP3    H135194   3.430   2.909   2.685 -1.8172  0.7673 -0.2553
 4545TIP3    H235195   3.439   2.970   2.547  1.5872 -0.5511 -0.7170
 4546TIP3   OH235196   4.356   6.308   0.523 -0.3357  0.0216  0.5642
 4546TIP3    H135197   4.356   6.265   0.609 -0.3103 -0.2927  0.4064
 4546TIP3    H235198   4.449   6.327   0.506 -0.4033  0.7393  0.9293
 4547TIP3   OH235199   0.858   5.658   7.464  0.2897 -0.7876 -0.6915
 4547TIP3    H135200   0.925   5.656   7.396  1.9252  1.6231  0.6964
 4547TIP3    H235201   0.775   5.650   7.416  1.3951  0.0838 -2.9005
 4548TIP3   OH235202   2.781   6.113   0.250  0.3061 -0.3061  0.1580
 4548TIP3    H135203   2.723   6.189   0.257 -0.5411 -0.9320  0.0187
 4548TIP3    H235204   2.736   6.053   0.190  1.9125 -0.0599 -1.3918
 4549TIP3   OH235205   2.707   3.969   0.837 -0.1599  0.8176 -0.6518
 4549TIP3    H135206   2.785   4.025   0.837  0.1185  0.5470 -3.5039
 4549TIP3    H235207   2.662   3.991   0.919  2.2995  1.7937  0.5445
 4550TIP3   OH235208   0.622   3.889   8.642 -0.8569 -0.0794  0.6235
 4550TIP3    H135209   0.621   3.968   8.589 -1.8284  0.4795  1.4421
 4550TIP3    H235210   0.542   3.842   8.619 -1.7886  0.6352  2.2251
 4551TIP3   OH235211   6.218   6.291   2.160 -0.3867  0.5796  0.6982
 4551TIP3    H135212   6.157   6.360   2.131 -2.5512 -0.4838  2.4182
 4551TIP3    H235213   6.162   6.226   2.203  1.4970 -2.4261 -1.0153
 4552TIP3   OH235214   3.217   1.038   7.392 -0.3325 -0.2158  0.3607
 4552TIP3    H135215   3.183   1.022   7.304 -1.4163 -0.2144  0.7589
 4552TIP3    H235216   3.188   1.127   7.413  0.8880  0.2195  0.3009
 4553TIP3   OH235217   1.066   2.697   7.415 -0.3701  0.1430 -0.4103
 4553TIP3    H135218   1.134   2.702   7.347  0.3941 -0.7732  0.2618
 4553TIP3    H235219   1.104   2.743   7.490 -0.5208 -0.3236 -0.0473
 4554TIP3   OH235220   2.213   0.268   2.575  0.2937 -0.2471  0.6592
 4554TIP3    H135221   2.171   0.352   2.558  0.2736 -0.3317  0.2878
 4554TIP3    H235222   2.293   0.291   2.622  0.8152  0.0672 -0.3382
 4555TIP3   OH235223   2.220   3.362   0.892  0.1715 -0.0107 -0.0046
 4555TIP3    H135224   2.258   3.274   0.900  0.4645 -0.0313 -1.3907
 4555TIP3    H235225   2.286   3.412   0.845  0.3255  1.1839  1.4097
 4556TIP3   OH235226   0.051   5.495   0.647  0.2565 -0.4386  0.1147
 4556TIP3    H135227   0.082   5.408   0.622  0.1664 -0.2721 -0.5905
 4556TIP3    H235228   0.066   5.550   0.570 -1.2759 -0.2186 -0.0726
 4557TIP3   OH235229   1.831   4.769   7.746 -0.2411 -0.2968 -0.0115
 4557TIP3    H135230   1.836   4.863   7.728  0.5481  0.1092  2.0899
 4557TIP3    H235231   1.867   4.728   7.667  3.4854  1.3592  0.6163
 4558TIP3   OH235232   0.772   2.510   2.482  0.1288  0.1759  0.3493
 4558TIP3    H135233   0.741   2.421   2.469 -0.9092  0.5475  0.1711
 4558TIP3    H235234   0.862   2.500   2.512  0.8861 -0.8672 -2.0372
 4559TIP3   OH235235   5.761   1.990   0.690  0.1630  0.5293  0.7918
 4559TIP3    H135236   5.854   2.003   0.670 -0.4747  1.5477 -2.0547
 4559TIP3    H235237   5.743   1.901   0.662  0.0050  0.8354 -0.1359
 4560TIP3   OH235238   4.021   1.992   0.913 -0.0010 -0.4305 -0.0810
 4560TIP3    H135239   3.949   1.928   0.906  0.7885 -1.5784  1.6981
 4560TIP3    H235240   3.987   2.060   0.971 -0.4354  0.2305 -1.0776
 4561TIP3   OH235241   4.045   5.425   1.238  0.4925  0.2169  0.3579
 4561TIP3    H135242   4.140   5.417   1.233  0.7716  2.0958  1.4612
 4561TIP3    H235243   4.015   5.416   1.148  1.6064 -1.3676  0.1233
 4562TIP3   OH235244   0.660   6.408   2.642  0.4310  0.7198  0.4496
 4562TIP3    H135245   0.566   6.408   2.658 -0.2168 -0.3312 -2.6220
 4562TIP3    H235246   0.685   6.500   2.650 -1.5276  1.5266 -1.5312
 4563TIP3   OH235247   5.537   1.312   2.175  0.0622 -0.3854 -0.9416
 4563TIP3    H135248   5.601   1.321   2.246 -0.6946  0.2265 -0.3005
 4563TIP3    H235249   5.546   1.393   2.125  2.7163 -2.0620 -3.4518
 4564TIP3   OH235250   6.072   1.080   1.994 -0.4537  0.0949  0.1611
 4564TIP3    H135251   6.117   1.060   1.912  0.4547 -0.3130  0.7477
 4564TIP3    H235252   6.112   1.162   2.024 -0.5249  0.0485  0.3833
 4565TIP3   OH235253   5.957   5.846   0.737 -0.0120  0.0135  0.0208
 4565TIP3    H135254   6.013   5.807   0.670  0.7316 -1.3665  1.3759
 4565TIP3    H235255   5.934   5.932   0.702  1.6856 -0.0041 -1.2762
 4566TIP3   OH235256   5.495   4.128   2.058 -0.1114 -0.2994  0.4752
 4566TIP3    H135257   5.424   4.183   2.092 -0.9035 -1.7373  1.2421
 4566TIP3    H235258   5.462   4.097   1.974 -0.0126 -0.2654  0.4240
 4567TIP3   OH235259   6.443   2.496   2.582 -0.2260  0.3142 -0.3136
 4567TIP3    H135260   6.535   2.470   2.589 -1.3208 -4.0643  0.5874
 4567TIP3    H235261   6.433   2.524   2.491  1.8733  0.4425 -0.5602
 4568TIP3   OH235262   0.178   4.733   7.160 -0.1022 -0.5422  0.1707
 4568TIP3    H135263   0.114   4.778   7.214 -1.1311  1.1846 -2.2828
 4568TIP3    H235264   0.254   4.791   7.160  0.7186 -1.5756  1.4090
 4569TIP3   OH235265   1.068   6.584   0.462  0.5497 -0.2828 -0.3985
 4569TIP3    H135266   1.036   6.580   0.371  0.9599  1.1522 -0.6296
 4569TIP3    H235267   1.125   6.661   0.464  0.3467 -0.1415  1.1453
 4570TIP3   OH235268   4.065   0.410   2.534 -0.8431 -0.0311  0.0285
 4570TIP3    H135269   4.140   0.447   2.581 -1.0015 -0.8325  0.9480
 4570TIP3    H235270   4.073   0.315   2.547 -2.2686 -0.1016  0.5589
 4571TIP3   OH235271   1.829   1.624   8.465 -0.3121 -0.2750 -0.0364
 4571TIP3    H135272   1.785   1.683   8.527  1.1148  1.4385 -0.5650
 4571TIP3    H235273   1.901   1.676   8.430  1.0642 -2.3794 -0.5082
 4572TIP3   OH235274   0.445   3.884   1.604 -0.4845 -0.0948  0.0852
 4572TIP3    H135275   0.384   3.954   1.580 -0.7458  0.5854  2.4905
 4572TIP3    H235276   0.424   3.813   1.544 -1.2870  1.3171 -1.4040
 4573TIP3   OH235277   5.087   0.701   8.202  0.4227  0.4156  0.2266
 4573TIP3    H135278   5.062   0.621   8.156 -0.3511  0.1540  1.0710
 4573TIP3    H235279   5.008   0.727   8.249  1.5677 -0.1174  2.5521
 4574TIP3   OH235280   3.498   4.873   6.969  0.5359 -0.5189 -0.5904
 4574TIP3    H135281   3.584   4.844   6.938 -0.0453 -1.1322 -1.6901
 4574TIP3    H235282   3.516   4.911   7.055  2.0735  0.4106 -1.2686
 4575TIP3   OH235283   4.528   3.201   0.779  0.3233  0.1670 -0.4156
 4575TIP3    H135284   4.543   3.295   0.764  1.6568  0.1270  0.4658
 4575TIP3    H235285   4.616   3.164   0.784 -0.1836 -1.0254 -0.0839
 4576TIP3   OH235286   1.592   0.367   8.239 -0.0696 -1.3528  0.2135
 4576TIP3    H135287   1.654   0.377   8.312  0.6304 -2.1193 -0.2474
 4576TIP3    H235288   1.616   0.437   8.178  0.9207 -2.1345 -0.3369
 4577TIP3   OH235289   1.551   3.035   0.177 -0.2391 -0.4164  0.2759
 4577TIP3    H135290   1.579   3.009   0.264  2.3891 -0.5299 -0.5254
 4577TIP3    H235291   1.630   3.031   0.124 -1.3158  1.7118 -1.6580
 4578TIP3   OH235292   4.618   0.773   2.987  0.6894 -0.2568 -0.4005
 4578TIP3    H135293   4.658   0.855   3.018 -0.8501 -0.0823  1.3518
 4578TIP3    H235294   4.571   0.797   2.908  0.9404  0.3719 -0.3635
 4579TIP3   OH235295   2.424   1.578   0.334 -0.2238  0.3362 -0.3943
 4579TIP3    H135296   2.414   1.515   0.406 -1.2279  0.2961 -0.5469
 4579TIP3    H235297   2.507   1.621   0.351  0.2241 -0.6515  0.0151
 4580TIP3   OH235298   4.051   5.621   2.490 -0.3575 -0.7789 -0.2692
 4580TIP3    H135299   4.058   5.537   2.445  0.2247 -1.2055  0.5857
 4580TIP3    H235300   4.142   5.648   2.507 -0.5455 -0.2400 -0.0697
 4581TIP3   OH235301   0.269   2.700   0.299  0.6402  0.5942  0.2655
 4581TIP3    H135302   0.337   2.713   0.232  1.3437 -0.4643  0.7479
 4581TIP3    H235303   0.224   2.784   0.303  1.2032  0.9791 -0.8574
 4582TIP3   OH235304   3.102   2.665   0.892 -0.0635  0.0734  0.1283
 4582TIP3    H135305   3.028   2.701   0.842  0.8279  1.0471 -0.5400
 4582TIP3    H235306   3.148   2.742   0.924  1.1158 -0.4995 -0.1479
 4583TIP3   OH235307   5.264   1.939   8.359  0.9170  0.1913  0.0259
 4583TIP3    H135308   5.177   1.978   8.359  0.4532 -0.7393 -1.7460
 4583TIP3    H235309   5.307   1.975   8.281  1.0451 -1.5389 -0.7521
 4584TIP3   OH235310   2.019   3.704   7.854  0.4584 -0.1839  0.4902
 4584TIP3    H135311   1.931   3.665   7.852  1.2309 -1.9962 -1.4559
 4584TIP3    H235312   2.031   3.741   7.767  1.9068 -0.6499  0.4660
 4585TIP3   OH235313   0.215   4.758   1.047  0.0454  0.1377 -0.1234
 4585TIP3    H135314   0.244   4.848   1.060 -0.3109  0.0226  1.6744
 4585TIP3    H235315   0.287   4.704   1.078 -0.2651 -0.1756  0.0669
 4586TIP3   OH235316   4.742   5.564   1.273  0.4812  0.1081 -0.9470
 4586TIP3    H135317   4.796   5.642   1.282 -1.2906  1.3264 -0.4477
 4586TIP3    H235318   4.654   5.597   1.252 -0.9267 -1.5601  1.7101
 4587TIP3   OH235319   3.471   2.564   7.130  0.3469 -0.0444 -0.2896
 4587TIP3    H135320   3.534   2.611   7.184 -0.9360  0.8204  0.5134
 4587TIP3    H235321   3.401   2.627   7.115  0.2258 -0.5577 -2.2190
 4588TIP3   OH235322   6.604   0.144   8.281  0.2152  0.1122 -0.0788
 4588TIP3    H135323   6.561   0.188   8.354 -1.7117  2.5069 -2.4868
 4588TIP3    H235324   6.533   0.100   8.234  1.0730  0.3206 -1.6244
 4589TIP3   OH235325   2.364   1.494   1.430 -0.1110  0.4592  0.5868
 4589TIP3    H135326   2.285   1.548   1.437 -0.3234 -0.0323  2.6343
 4589TIP3    H235327   2.434   1.557   1.414 -0.8066  0.9827 -0.4755
 4590TIP3   OH235328   0.961   4.205   2.107  0.2678  0.5361 -0.6303
 4590TIP3    H135329   0.901   4.255   2.163  0.2180 -0.6501  0.4148
 4590TIP3    H235330   1.047   4.219   2.146  0.3887  0.6078 -0.9251
 4591TIP3   OH235331   6.074   4.547   0.464 -0.3967 -0.1999  0.2216
 4591TIP3    H135332   6.130   4.535   0.542 -0.1832 -0.1436  0.0774
 4591TIP3    H235333   6.085   4.639   0.441  0.5478 -0.5023 -0.6339
 4592TIP3   OH235334   4.841   3.851   6.987 -0.0358 -0.1578  0.5213
 4592TIP3    H135335   4.881   3.825   6.904  1.2753 -1.5104  1.5312
 4592TIP3    H235336   4.914   3.874   7.044 -0.7798 -0.7979  1.8060
 4593TIP3   OH235337   5.231   0.144   1.280 -0.6110 -0.2451 -0.1129
 4593TIP3    H135338   5.326   0.145   1.269 -0.5445  0.1016  0.4408
 4593TIP3    H235339   5.208   0.051   1.285 -0.2509 -0.3210  0.1654
 4594TIP3   OH235340   5.605   0.426   3.195  0.0757  0.0783  0.2161
 4594TIP3    H135341   5.606   0.470   3.280 -0.9369  2.0776 -0.7584
 4594TIP3    H235342   5.534   0.467   3.147  0.9809 -0.6004 -1.8181
 4595TIP3   OH235343   3.070   4.926   1.841  0.5758 -0.0291  0.1312
 4595TIP3    H135344   3.012   4.860   1.803 -0.9709  0.6877  1.1300
 4595TIP3    H235345   3.082   4.990   1.772 -2.7322  1.5999  0.8413
 4596TIP3   OH235346   0.035   0.518   1.892  0.3270 -0.2172 -0.8390
 4596TIP3    H135347   0.128   0.500   1.899  0.7602  1.7347 -0.9062
 4596TIP3    H235348   0.004   0.462   1.821  1.7074 -0.0220 -1.6194
 4597TIP3   OH235349   1.609   5.988   2.552  0.3139  0.3948  0.3971
 4597TIP3    H135350   1.529   6.004   2.602 -0.5538 -1.1397 -0.3983
 4597TIP3    H235351   1.600   5.897   2.522  0.4852  1.3338 -2.9550
 4598TIP3   OH235352   2.282   5.536   2.732  0.6604 -0.4546 -0.0425
 4598TIP3    H135353   2.187   5.544   2.725  0.4285 -2.2469  0.6163
 4598TIP3    H235354   2.309   5.616   2.777 -0.5346  0.0792 -0.2362
 4599TIP3   OH235355   4.853   4.004   1.867 -0.1492  0.8115 -0.9598
 4599TIP3    H135356   4.926   4.066   1.858  0.9223 -0.5020 -1.8233
 4599TIP3    H235357   4.781   4.056   1.902  0.9538  2.3469 -0.8700
 4600TIP3   OH235358   4.073   0.678   8.223 -0.3529 -0.4747 -0.0918
 4600TIP3    H135359   4.086   0.584   8.207  0.2084 -0.4581  0.2354
 4600TIP3    H235360   4.105   0.720   8.143 -1.4231 -0.5962 -0.6052
 4601TIP3   OH235361   2.723   6.498   1.377  0.2293 -0.3953  0.5580
 4601TIP3    H135362   2.733   6.582   1.423  1.3159 -1.3666  2.1964
 4601TIP3    H235363   2.628   6.486   1.370  0.0007  1.8732 -1.5334
 4602TIP3   OH235364   1.431   6.532   7.546 -0.0913  1.0741 -0.0278
 4602TIP3    H135365   1.443   6.442   7.516  0.7162  1.3777 -0.6776
 4602TIP3    H235366   1.354   6.563   7.498 -0.3627  0.7308  0.1877
 4603TIP3   OH235367   5.564   1.810   1.977 -0.0655 -0.0546 -0.5023
 4603TIP3    H135368   5.537   1.865   1.904  2.7387 -1.0652 -2.4769
 4603TIP3    H235369   5.585   1.872   2.047 -3.4122  0.9104 -0.1828
 4604TIP3   OH235370   5.967   1.102   2.560  0.4141 -0.4789 -0.8336
 4604TIP3    H135371   5.893   1.073   2.507 -0.3557  0.4312 -0.2993
 4604TIP3    H235372   5.929   1.116   2.647  1.1722  0.2057 -0.6055
 4605TIP3   OH235373   6.667   2.931   1.730  0.1197  0.4653  0.2422
 4605TIP3    H135374   6.683   2.843   1.763  1.8189  0.2536 -1.0395
 4605TIP3    H235375   6.720   2.988   1.786  0.4637  0.4631 -0.0786
 4606TIP3   OH235376   2.461   0.762   1.707 -0.1954  0.0511  0.4582
 4606TIP3    H135377   2.512   0.812   1.644 -1.5935 -0.9133 -1.5583
 4606TIP3    H235378   2.477   0.671   1.684 -0.0073 -0.3787  2.1458
 4607TIP3   OH235379   4.937   4.570   2.004  0.2023 -0.2553  0.1454
 4607TIP3    H135380   4.856   4.573   2.054  0.0843 -1.2653  0.0413
 4607TIP3    H235381   4.945   4.478   1.977  1.9982 -0.4445  1.1858
 4608TIP3   OH235382   6.077   5.884   8.746 -0.0928 -0.0911 -0.1341
 4608TIP3    H135383   6.159   5.851   8.783 -1.6036 -2.2660  1.5547
 4608TIP3    H235384   6.067   5.836   8.664  0.7060  0.8544 -0.8135
 4609TIP3   OH235385   5.750   5.454   7.520  0.1512 -0.4409  0.6439
 4609TIP3    H135386   5.673   5.487   7.565  0.1280  2.0571 -1.0507
 4609TIP3    H235387   5.819   5.517   7.539  0.7157 -0.5040 -1.0019
 4610TIP3   OH235388   2.488   6.019   7.867 -0.2531  0.0688  0.3715
 4610TIP3    H135389   2.467   6.017   7.774 -1.4513 -1.4796  0.6227
 4610TIP3    H235390   2.520   6.108   7.883  0.4602  0.2104 -1.6001
 4611TIP3   OH235391   4.900   2.098   1.103  0.2942 -0.2971 -0.2321
 4611TIP3    H135392   4.862   2.172   1.056 -1.5799 -1.1049 -0.0469
 4611TIP3    H235393   4.825   2.048   1.135  1.5223 -1.6202  0.6996
 4612TIP3   OH235394   5.263   4.512   0.222 -0.1754  0.6343 -0.3276
 4612TIP3    H135395   5.340   4.458   0.239  2.0703  3.7994  0.4746
 4612TIP3    H235396   5.228   4.478   0.139  0.6121 -2.3680  0.4318
 4613TIP3   OH235397   6.818   2.653   7.450  0.0076 -0.0685  0.0764
 4613TIP3    H135398   6.866   2.590   7.503 -0.6662 -0.3381  0.3735
 4613TIP3    H235399   6.844   2.739   7.485 -1.1674 -0.2646  1.5024
 4614TIP3   OH235400   1.412   3.638   1.940  0.9109 -0.1293  0.0774
 4614TIP3    H135401   1.494   3.681   1.916  0.6015 -0.9781 -2.8966
 4614TIP3    H235402   1.344   3.701   1.917  0.6117 -0.7164 -0.6655
 4615TIP3   OH235403   5.393   3.202   2.835  0.4189  0.1104 -0.1464
 4615TIP3    H135404   5.314   3.235   2.878  0.8088  0.8969 -0.0249
 4615TIP3    H235405   5.386   3.107   2.842  0.2318  0.2076  1.2019
 4616TIP3   OH235406   5.535   3.096   0.924 -0.1447  0.3453 -0.2020
 4616TIP3    H135407   5.629   3.090   0.942 -0.2199  1.8715  0.8157
 4616TIP3    H235408   5.530   3.099   0.828  0.8799  0.7191 -0.2598
 4617TIP3   OH235409   3.314   3.324   0.526 -0.1132  0.7215 -0.8985
 4617TIP3    H135410   3.322   3.332   0.431  0.2175  1.3336 -0.8218
 4617TIP3    H235411   3.392   3.276   0.553 -1.4724 -1.8664 -1.2109
 4618TIP3   OH235412   1.434   0.326   1.369 -0.4222  0.6490 -0.0567
 4618TIP3    H135413   1.411   0.350   1.458  1.0523  1.6279  0.0936
 4618TIP3    H235414   1.356   0.281   1.336 -0.6909 -0.4827  1.9746
 4619TIP3   OH235415   6.609   2.597   1.983 -0.1302  0.4473  0.1573
 4619TIP3    H135416   6.629   2.504   1.978 -1.4303  0.1921 -0.6859
 4619TIP3    H235417   6.628   2.621   2.074  2.7887  0.0140 -0.2449
 4620TIP3   OH235418   5.977   5.293   2.209  0.2776 -0.0334 -0.0095
 4620TIP3    H135419   5.907   5.268   2.149  0.1391  2.2662 -0.9272
 4620TIP3    H235420   5.932   5.332   2.284  0.4333  3.0161 -1.3314
 4621TIP3   OH235421   4.283   2.561   7.257  0.1830  0.2792 -0.0084
 4621TIP3    H135422   4.210   2.507   7.286  1.5088 -0.7665  1.6070
 4621TIP3    H235423   4.263   2.584   7.166 -1.3137 -1.3841 -0.1349
 4622TIP3   OH235424   0.860   2.725   0.918 -0.0558  0.2225  0.1884
 4622TIP3    H135425   0.865   2.653   0.981  0.4807  0.3810  0.3246
 4622TIP3    H235426   0.949   2.734   0.884 -0.4193 -0.1500 -0.9155
 4623TIP3   OH235427   6.577   3.666   1.642 -0.3091 -0.0567  0.4491
 4623TIP3    H135428   6.608   3.736   1.584  1.6417 -0.6494  0.7291
 4623TIP3    H235429   6.482   3.668   1.632 -0.3119  2.4725  0.2485
 4624TIP3   OH235430   2.853   1.735   0.055  0.2311  0.5002 -0.3305
 4624TIP3    H135431   2.784   1.801   0.051  1.7910  2.1352 -2.1581
 4624TIP3    H235432   2.845   1.685  -0.026  0.3401 -0.2381  0.0979
 4625TIP3   OH235433   1.783   4.720   0.443  0.4863 -0.0770 -0.7130
 4625TIP3    H135434   1.828   4.763   0.370  0.4437  1.3542  0.0632
 4625TIP3    H235435   1.703   4.771   0.456  0.3110 -0.5339  0.1002
 4626TIP3   OH235436   5.333   3.295   1.576 -0.6191 -0.0429  0.0416
 4626TIP3    H135437   5.279   3.322   1.650  2.5192  2.7849  1.6156
 4626TIP3    H235438   5.400   3.363   1.570  0.3104 -1.0273 -4.4159
 4627TIP3   OH235439   6.406   6.001   8.653 -0.0415 -0.4601  0.2089
 4627TIP3    H135440   6.413   6.054   8.732  1.4543 -0.4320  0.0697
 4627TIP3    H235441   6.412   6.063   8.581  0.4647 -0.6917  0.0546
 4628TIP3   OH235442   4.762   4.970   2.049  0.3657  0.5156 -0.4943
 4628TIP3    H135443   4.827   4.972   2.119  1.1256  1.4451 -1.2010
 4628TIP3    H235444   4.678   4.985   2.094  0.3089 -2.6065  0.6993
 4629TIP3   OH235445   4.862   2.331   8.127  0.3511 -0.3920 -0.5286
 4629TIP3    H135446   4.891   2.279   8.053 -1.1102 -1.7749 -0.1969
 4629TIP3    H235447   4.889   2.281   8.204  1.0604  0.5750 -0.1250
 4630TIP3   OH235448   2.118   0.569   0.796 -0.0836  0.2343  0.5158
 4630TIP3    H135449   2.164   0.594   0.876  0.2820  0.8885  0.1019
 4630TIP3    H235450   2.050   0.636   0.785 -2.4117 -1.6668  2.1169
 4631TIP3   OH235451   2.630   5.890   0.608 -0.2039  0.1503 -0.3904
 4631TIP3    H135452   2.721   5.868   0.591 -0.2583  1.0289 -2.1208
 4631TIP3    H235453   2.584   5.867   0.527 -0.9657  2.4138 -0.6998
 4632TIP3   OH235454   3.834   3.590   8.346 -0.6748  0.5346 -0.3691
 4632TIP3    H135455   3.890   3.592   8.268  0.7708  0.3650  0.6300
 4632TIP3    H235456   3.894   3.579   8.419 -1.9830  0.8800  0.8115
 4633TIP3   OH235457   1.416   5.178   1.256  1.0444 -1.0516  0.1579
 4633TIP3    H135458   1.433   5.107   1.318 -0.1893 -0.9322  0.6598
 4633TIP3    H235459   1.377   5.247   1.310  1.6570 -0.2225 -0.4362
 4634TIP3   OH235460   5.609   5.001   8.710  1.1032  0.2836 -0.3449
 4634TIP3    H135461   5.552   4.939   8.664 -0.0122  2.1257 -1.5604
 4634TIP3    H235462   5.688   5.006   8.656  1.6742 -0.8757  0.3518
 4635TIP3   OH235463   5.938   0.396   7.201  0.2893  0.1225  0.1675
 4635TIP3    H135464   6.002   0.464   7.178  0.4542 -0.1895 -0.3157
 4635TIP3    H235465   5.921   0.410   7.294  0.5169  0.6624  0.1349
 4636TIP3   OH235466   0.174   2.393   2.358  0.1086  0.3120 -0.0631
 4636TIP3    H135467   0.185   2.438   2.442 -1.3083  1.7493 -0.5916
 4636TIP3    H235468   0.255   2.344   2.346  1.3952  2.0424  1.0056
 4637TIP3   OH235469   5.291   0.077   2.850  0.4273 -0.2744 -0.2946
 4637TIP3    H135470   5.303   0.096   2.757  2.0122  2.9785  0.4143
 4637TIP3    H235471   5.379   0.053   2.881 -0.1880 -1.8537  0.3013
 4638TIP3   OH235472   6.412   0.138   1.240 -0.3926 -0.1313  0.5427
 4638TIP3    H135473   6.357   0.142   1.318 -0.5952 -1.4895  0.4939
 4638TIP3    H235474   6.350   0.136   1.167 -0.2071  0.9972  0.3266
 4639TIP3   OH235475   0.897   1.392   7.122  0.0305  0.5920  0.0649
 4639TIP3    H135476   0.854   1.326   7.067 -1.1943 -0.0340  1.6983
 4639TIP3    H235477   0.982   1.354   7.144 -0.5409 -0.3411  0.7378
 4640TIP3   OH235478   6.751   1.647   2.749  0.6072 -1.2391 -0.3683
 4640TIP3    H135479   6.681   1.684   2.694  0.5671 -1.0679 -0.2016
 4640TIP3    H235480   6.708   1.625   2.831  0.6653 -1.5129 -0.4103
 4641TIP3   OH235481   5.639   2.173   1.094  0.2034  0.3966  0.5988
 4641TIP3    H135482   5.624   2.225   1.173 -1.2940  1.7790 -0.5263
 4641TIP3    H235483   5.732   2.188   1.073  0.3481  0.8377  1.5150
 4642TIP3   OH235484   6.307   3.778   1.809 -0.4306  0.1960  0.2148
 4642TIP3    H135485   6.308   3.715   1.737 -1.2617 -2.3616  2.2916
 4642TIP3    H235486   6.399   3.788   1.834 -0.0308  1.7719 -1.6197
 4643TIP3   OH235487   5.664   2.341   7.892  0.1750 -0.5600  0.1237
 4643TIP3    H135488   5.634   2.291   7.816 -0.3175 -0.1939  0.0700
 4643TIP3    H235489   5.756   2.360   7.874 -0.8076  2.8101 -2.2373
 4644TIP3   OH235490   1.951   6.289   7.763 -0.7925 -0.0473 -0.2462
 4644TIP3    H135491   1.942   6.383   7.751 -0.1882 -0.0238 -0.5235
 4644TIP3    H235492   1.869   6.263   7.804 -1.1908  0.5137 -0.6652
 4645TIP3   OH235493   6.371   2.538   8.403 -0.0638  0.0969  0.1421
 4645TIP3    H135494   6.390   2.592   8.326 -1.3135  0.3684  0.0031
 4645TIP3    H235495   6.370   2.449   8.370 -2.5724  0.3460 -0.6154
 4646TIP3   OH235496   5.951   4.249   1.597 -0.1493 -0.4854  0.4523
 4646TIP3    H135497   5.997   4.166   1.587 -0.3079 -0.5772  0.4905
 4646TIP3    H235498   5.958   4.290   1.511  0.1920 -0.4022  0.5165
 4647TIP3   OH235499   3.148   5.977   0.286 -0.0777 -0.6652  0.0313
 4647TIP3    H135500   3.242   5.993   0.290  0.0245 -1.2577  0.0394
 4647TIP3    H235501   3.136   5.921   0.210 -0.2609 -1.6946  0.8050
 4648TIP3   OH235502   6.524   5.627   8.346  0.0025  0.1299  0.0659
 4648TIP3    H135503   6.528   5.577   8.427 -1.7441 -0.2568 -0.0432
 4648TIP3    H235504   6.546   5.717   8.372  1.0907 -0.2849  0.6389
 4649TIP3   OH235505   1.362   3.550   1.061  0.5381  0.0337  0.9704
 4649TIP3    H135506   1.398   3.637   1.044  0.8152 -0.4996 -1.6863
 4649TIP3    H235507   1.280   3.566   1.108 -0.7957  1.9740 -1.7651
 4650TIP3   OH235508   2.829   0.942   2.432  0.7201  0.3916  0.1930
 4650TIP3    H135509   2.777   0.938   2.352  0.5742  1.2186  0.2313
 4650TIP3    H235510   2.902   0.882   2.417  2.1535  2.4318 -1.6391
 4651TIP3   OH235511   5.988   2.895   0.614 -0.3289  0.2761 -0.5428
 4651TIP3    H135512   6.016   2.814   0.656  0.4472  0.6028 -0.4071
 4651TIP3    H235513   6.041   2.901   0.535  0.6779  1.3475  0.1635
 4652TIP3   OH235514   2.453   0.261   8.059 -0.1168  0.1662 -0.5510
 4652TIP3    H135515   2.470   0.196   8.127 -2.2604  1.2828  1.1882
 4652TIP3    H235516   2.433   0.209   7.981 -0.1986 -1.2426  0.3724
 4653TIP3   OH235517   0.839   1.088   1.185  0.7706  0.8096  0.5394
 4653TIP3    H135518   0.868   1.078   1.094 -1.0148  1.5104 -0.1496
 4653TIP3    H235519   0.757   1.038   1.189  0.1457  1.8626  1.3776
 4654TIP3   OH235520   3.930   2.958   2.049 -0.0048  0.2366  0.5140
 4654TIP3    H135521   3.996   2.904   2.092 -0.1611 -0.0641  0.3757
 4654TIP3    H235522   3.980   3.030   2.010  0.2381  0.0339  0.4502
 4655TIP3   OH235523   0.955   1.429   2.471 -0.5840  0.0785  0.2946
 4655TIP3    H135524   0.954   1.339   2.505 -0.9207  0.7814  2.2950
 4655TIP3    H235525   0.959   1.419   2.376 -1.5743 -2.0617  0.4157
 4656TIP3   OH235526   1.706   3.918   1.782  0.0222  0.1232  0.1814
 4656TIP3    H135527   1.798   3.942   1.773  0.0406 -0.0567 -0.1158
 4656TIP3    H235528   1.669   3.929   1.695  0.1991 -1.5927 -0.1541
 4657TIP3   OH235529   2.200   0.676   0.435  0.8393 -0.3110  0.0425
 4657TIP3    H135530   2.289   0.673   0.470  0.3920  0.2448  1.2805
 4657TIP3    H235531   2.177   0.585   0.419  1.8571 -0.4185 -0.9310
 4658TIP3   OH235532   2.217   6.467   0.603  0.0161 -1.0391  0.0313
 4658TIP3    H135533   2.280   6.502   0.539 -1.4124 -0.0391 -0.8842
 4658TIP3    H235534   2.271   6.415   0.663  1.6245 -0.7459 -1.0783
 4659TIP3   OH235535   6.582   1.203   1.025 -0.1415  0.6079 -0.7684
 4659TIP3    H135536   6.595   1.165   0.938  0.2875  3.0010 -1.8240
 4659TIP3    H235537   6.487   1.210   1.035 -0.2014  2.1697 -1.9776
 4660TIP3   OH235538   3.791   2.738   6.803  0.3356  0.4154  0.2557
 4660TIP3    H135539   3.703   2.721   6.769  0.5216 -1.8513  0.7073
 4660TIP3    H235540   3.847   2.742   6.726  0.2704 -1.4474  0.0495
 4661TIP3   OH235541   1.306   1.286   1.874 -0.1789 -0.2849  0.8379
 4661TIP3    H135542   1.235   1.350   1.875  1.2396  1.3887  0.2263
 4661TIP3    H235543   1.379   1.331   1.831  0.6970 -2.5625 -0.2608
 4662TIP3   OH235544   6.361   3.186   1.795 -0.3248 -0.0589 -0.0134
 4662TIP3    H135545   6.417   3.194   1.717 -2.0012  3.1613 -1.0670
 4662TIP3    H235546   6.421   3.193   1.869  1.0757 -1.1779 -0.9871
 4663TIP3   OH235547   6.150   2.520   8.056 -0.6348  0.0451  0.2222
 4663TIP3    H135548   6.189   2.603   8.027 -1.8498  0.2199 -0.9929
 4663TIP3    H235549   6.115   2.540   8.143 -0.4443  0.6531  0.1685
 4664TIP3   OH235550   4.156   6.240   8.326  0.6592  0.1862 -0.1284
 4664TIP3    H135551   4.201   6.164   8.289  2.8327  0.1193  2.3497
 4664TIP3    H235552   4.226   6.301   8.347 -0.8988  2.2162 -0.5685
 4665TIP3   OH235553   6.135   0.038   8.157  0.5763  0.0105 -0.0485
 4665TIP3    H135554   6.077  -0.015   8.103 -0.6803  1.8601 -0.5820
 4665TIP3    H235555   6.131  -0.004   8.243  0.5038 -1.3947 -0.7080
 4666TIP3   OH235556   0.664   3.009   0.764  0.2603 -0.3934 -0.0802
 4666TIP3    H135557   0.744   2.956   0.773  1.0150  0.1775 -2.5428
 4666TIP3    H235558   0.596   2.958   0.809  1.9466 -0.9233  2.0545
 4667TIP3   OH235559   5.975   6.440   2.108  0.3448 -0.4650 -0.0926
 4667TIP3    H135560   5.923   6.404   2.180  1.0372 -0.2740  0.5200
 4667TIP3    H235561   5.949   6.532   2.103  0.2812 -0.4834 -0.1014
 4668TIP3   OH235562   0.468   2.755   0.140  0.5274 -0.5652  0.3971
 4668TIP3    H135563   0.547   2.770   0.192  0.2336 -1.7953  1.2556
 4668TIP3    H235564   0.498   2.706   0.064  0.7938  0.2761 -0.0539
 4669TIP3   OH235565   3.635   6.616   7.967 -0.4554 -0.3622  0.9358
 4669TIP3    H135566   3.671   6.528   7.969  0.7391  0.0794 -0.2942
 4669TIP3    H235567   3.620   6.638   8.060  0.9775 -1.1456  1.3710
 4670TIP3   OH235568   4.764   6.110   7.537  0.6179 -0.3438  0.1867
 4670TIP3    H135569   4.730   6.082   7.452  1.5287  0.3771 -0.4201
 4670TIP3    H235570   4.697   6.168   7.572  0.6585  0.0833 -0.4478
 4671TIP3   OH235571   3.259   2.426   7.265 -0.5439  0.3117  0.1504
 4671TIP3    H135572   3.203   2.398   7.193  1.1271 -3.2330  0.0366
 4671TIP3    H235573   3.336   2.463   7.223 -0.1851 -0.4453  0.1323
 4672TIP3   OH235574   0.020   5.302   8.051  0.1832 -0.1174 -0.1951
 4672TIP3    H135575   0.001   5.325   7.961 -0.1246  0.1108 -0.0741
 4672TIP3    H235576  -0.019   5.373   8.103 -1.6754 -1.3744  0.2385
 4673TIP3   OH235577   1.917   4.382   0.170 -0.4414  0.1669  0.2897
 4673TIP3    H135578   1.998   4.340   0.198 -0.2901 -0.2247 -0.7156
 4673TIP3    H235579   1.860   4.310   0.143 -0.0131  0.5666 -1.8857
 4674TIP3   OH235580   4.693   4.572   1.135  0.1396  0.1943 -0.2520
 4674TIP3    H135581   4.623   4.633   1.161 -1.2065 -1.0222 -0.8970
 4674TIP3    H235582   4.728   4.540   1.218 -1.2482 -0.4638  0.1031
 4675TIP3   OH235583   5.633   1.819   7.820 -0.1685 -0.7202  0.1512
 4675TIP3    H135584   5.667   1.736   7.786  2.8153  0.6734 -0.5710
 4675TIP3    H235585   5.538   1.811   7.810  0.1297 -3.1728 -1.9556
 4676TIP3   OH235586   0.984   1.523   0.029 -0.4781  0.3269 -0.1357
 4676TIP3    H135587   0.935   1.602   0.008 -1.0752  0.6728  2.2835
 4676TIP3    H235588   0.920   1.466   0.072  0.3431 -0.7702 -0.3223
 4677TIP3   OH235589   5.145   2.356   7.381 -0.2139  0.1200 -0.4987
 4677TIP3    H135590   5.096   2.372   7.301  1.1750  0.1069 -1.3920
 4677TIP3    H235591   5.207   2.429   7.386 -0.2878  0.1260  0.5717
 4678TIP3   OH235592   4.574   0.275   3.150  0.2396 -0.3311 -0.1480
 4678TIP3    H135593   4.639   0.299   3.217  0.5937 -0.3502 -0.4806
 4678TIP3    H235594   4.514   0.349   3.146 -0.2177 -0.6391  0.7158
 4679TIP3   OH235595   0.713   4.551   2.098  0.1196 -0.0176  0.1927
 4679TIP3    H135596   0.710   4.646   2.108  1.7883  0.0797 -0.0884
 4679TIP3    H235597   0.690   4.517   2.185 -0.8895  0.6120  0.1875
 4680TIP3   OH235598   0.024   5.572   8.460  0.3307  0.2110  0.3072
 4680TIP3    H135599   0.024   5.502   8.526 -0.1816  0.5040  0.6313
 4680TIP3    H235600   0.005   5.651   8.510  1.5995  0.6931  0.0459
 4681TIP3   OH235601   1.986   2.971   8.092 -0.2900 -0.1155  0.8251
 4681TIP3    H135602   1.949   2.971   8.181 -1.7068 -0.1166  0.2560
 4681TIP3    H235603   1.928   2.915   8.042  0.8127 -0.5439 -0.0012
 4682TIP3   OH235604   5.815   0.085   3.224 -0.0127 -0.8454 -0.3781
 4682TIP3    H135605   5.822   0.159   3.164 -0.0876 -1.0978 -0.7054
 4682TIP3    H235606   5.795   0.124   3.309 -0.8785 -0.5423 -0.7081
 4683TIP3   OH235607   6.255   1.268   7.198  0.0603 -0.0096 -0.7143
 4683TIP3    H135608   6.235   1.210   7.124 -1.3537 -0.8662  0.2837
 4683TIP3    H235609   6.199   1.344   7.185 -0.2938 -0.2242 -0.4642
 4684TIP3   OH235610   3.995   3.029   8.503 -0.2368 -0.1134  0.5117
 4684TIP3    H135611   3.974   3.092   8.433 -1.4790 -0.5493  0.4831
 4684TIP3    H235612   3.944   3.058   8.578 -2.5517 -2.2729 -0.1089
 4685TIP3   OH235613   3.486   5.518   2.346  0.2189  0.1149 -0.0468
 4685TIP3    H135614   3.446   5.433   2.331 -1.6030  0.9216  0.0241
 4685TIP3    H235615   3.422   5.567   2.397  1.1200  1.6179 -0.2790
 4686TIP3   OH235616   0.773   4.087   0.223  0.4006  0.0239 -0.0909
 4686TIP3    H135617   0.735   4.003   0.252 -0.2589  0.0394 -0.8671
 4686TIP3    H235618   0.814   4.066   0.138  1.6991  0.1288  0.4887
 4687TIP3   OH235619   0.742   5.880   2.893 -0.0041  0.3928 -0.1291
 4687TIP3    H135620   0.711   5.792   2.872  0.0197  0.4265 -0.3141
 4687TIP3    H235621   0.662   5.931   2.907 -0.0173  0.3376 -0.0114
 4688TIP3   OH235622   6.661   1.120   1.491 -0.3191  0.9705 -0.4165
 4688TIP3    H135623   6.652   1.047   1.430  0.7007  0.7477 -0.3189
 4688TIP3    H235624   6.698   1.080   1.570 -0.8575  1.3937  0.0509
 4689TIP3   OH235625   6.363   1.490   1.588 -0.0741 -0.1379  0.3119
 4689TIP3    H135626   6.417   1.525   1.518 -0.7965 -1.0839 -0.7661
 4689TIP3    H235627   6.362   1.396   1.572 -2.5295 -0.1115 -0.1303
 4690TIP3   OH235628   2.600   0.039   1.152  0.7747 -0.5227  0.3987
 4690TIP3    H135629   2.605   0.046   1.057 -2.7951 -0.7385  0.0583
 4690TIP3    H235630   2.545   0.113   1.179 -0.9151 -2.1989  1.8549
 4691TIP3   OH235631   6.720   4.381   1.613 -0.1044  0.3731  0.8136
 4691TIP3    H135632   6.676   4.396   1.529 -0.2473 -0.2392  0.7698
 4691TIP3    H235633   6.714   4.464   1.659  1.1544  1.1391 -0.3266
 4692TIP3   OH235634   2.475   5.693   8.460  0.0495  0.0383 -0.4622
 4692TIP3    H135635   2.426   5.615   8.484  2.2154 -1.6574 -1.2052
 4692TIP3    H235636   2.515   5.672   8.375  1.7948  1.3999 -0.0560
 4693TIP3   OH235637   4.369   2.064   0.060  0.1406 -0.2505 -0.6874
 4693TIP3    H135638   4.337   2.027  -0.023 -1.6765 -1.5353  0.5191
 4693TIP3    H235639   4.301   2.125   0.087 -0.7588 -1.9707  1.2132
 4694TIP3   OH235640   1.429   1.934   2.347  0.1496 -0.0954 -0.0348
 4694TIP3    H135641   1.386   1.851   2.368  0.4599  0.4878  3.6864
 4694TIP3    H235642   1.367   2.000   2.377  0.2162  1.0440 -2.2793
 4695TIP3   OH235643   2.028   2.633   1.864  0.2747 -0.1422  0.2632
 4695TIP3    H135644   2.058   2.550   1.825 -0.7261 -0.3115 -0.1681
 4695TIP3    H235645   2.104   2.665   1.912  1.2100 -0.4832 -0.9172
 4696TIP3   OH235646   0.571   5.522   0.735  0.2277 -0.2322  0.4886
 4696TIP3    H135647   0.524   5.535   0.818 -0.9266 -1.6336  0.0932
 4696TIP3    H235648   0.507   5.542   0.668  1.7070  2.8648 -0.1814
 4697TIP3   OH235649   5.012   0.754   1.002  1.0172 -0.3851  0.4405
 4697TIP3    H135650   4.932   0.786   1.044  0.4356 -1.2820  0.0619
 4697TIP3    H235651   5.036   0.823   0.941 -0.9488 -1.1345 -1.3100
 4698TIP3   OH235652   3.465   2.227   8.057  0.0367 -0.0214  0.1434
 4698TIP3    H135653   3.557   2.214   8.079 -0.0610 -0.8135  0.0969
 4698TIP3    H235654   3.447   2.318   8.083  1.7180  1.3741 -2.9655
 4699TIP3   OH235655   4.435   5.780   1.217  0.3058 -0.4349 -0.3076
 4699TIP3    H135656   4.421   5.754   1.308 -0.1823 -0.2264 -0.3149
 4699TIP3    H235657   4.444   5.876   1.221 -0.3936 -0.3549 -0.5484
 4700TIP3   OH235658   4.994   4.154   3.110 -0.8057  0.1301  0.2639
 4700TIP3    H135659   4.989   4.059   3.101 -1.2062  0.0965  0.7834
 4700TIP3    H235660   5.049   4.182   3.037 -3.2659 -0.1725 -1.8372
 4701TIP3   OH235661   6.360   1.824   1.340  0.6946 -0.8147 -0.4370
 4701TIP3    H135662   6.393   1.734   1.328  1.0233 -0.7249 -0.2277
 4701TIP3    H235663   6.432   1.880   1.312  1.1500 -0.6062  1.0666
 4702TIP3   OH235664   5.259   6.508   1.681 -0.2932  0.1722  0.8057
 4702TIP3    H135665   5.222   6.595   1.672 -1.1091 -0.1105  1.3018
 4702TIP3    H235666   5.236   6.481   1.770 -0.2926 -0.6534  0.5666
 4703TIP3   OH235667   1.994   0.033   7.795  0.0178 -0.1851 -0.3985
 4703TIP3    H135668   1.936  -0.040   7.815  2.1400 -1.7581  0.3258
 4703TIP3    H235669   1.959   0.106   7.846 -1.3458 -1.0505 -0.0457
 4704TIP3   OH235670   4.199   2.702   8.590  0.3710  0.2768  0.0211
 4704TIP3    H135671   4.112   2.707   8.551 -0.3621 -0.2940  1.5027
 4704TIP3    H235672   4.246   2.777   8.553 -0.8047  0.7164 -0.6407
 4705TIP3   OH235673   3.028   0.145   0.747  0.6591  0.1949 -0.5982
 4705TIP3    H135674   2.944   0.172   0.709 -0.0650 -1.3723 -0.1896
 4705TIP3    H235675   3.015   0.155   0.842  0.3836 -1.4328 -0.4342
 4706TIP3   OH235676   3.527   1.682   7.624 -0.4195 -0.6934 -0.3520
 4706TIP3    H135677   3.462   1.732   7.672  0.7651  1.9833 -1.3064
 4706TIP3    H235678   3.521   1.715   7.534  2.4342 -0.0102 -0.4024
 4707TIP3   OH235679   0.500   2.562   7.023 -0.2002  0.6623  0.3149
 4707TIP3    H135680   0.468   2.498   7.087 -0.7489  0.4766 -0.1392
 4707TIP3    H235681   0.560   2.512   6.967  0.9943  1.0294  1.2185
 4708TIP3   OH235682   4.928   4.461   2.771 -0.2084  0.3491  0.3907
 4708TIP3    H135683   4.910   4.407   2.848 -0.5186 -0.9940 -0.5957
 4708TIP3    H235684   4.921   4.551   2.804 -0.5286 -0.1806  1.8848
 4709TIP3   OH235685   1.975   3.198   2.420  0.3434  0.1906 -0.4551
 4709TIP3    H135686   2.023   3.201   2.503 -1.9097  1.1894  0.9314
 4709TIP3    H235687   1.896   3.148   2.441 -0.7060  1.2582 -1.7263
 4710TIP3   OH235688   4.166   5.123   1.325  0.0121 -0.2668  0.4680
 4710TIP3    H135689   4.261   5.127   1.334 -0.0748  1.1110  0.9624
 4710TIP3    H235690   4.131   5.171   1.400 -1.1104 -1.3243  0.6668
 4711TIP3   OH235691   2.470   2.652   7.464  0.0928 -0.1702 -0.0754
 4711TIP3    H135692   2.481   2.576   7.521  0.6112 -0.3914 -0.4615
 4711TIP3    H235693   2.550   2.655   7.412 -0.4435 -0.0875 -0.9303
 4712TIP3   OH235694   0.345   5.039   7.789  0.8267 -0.4190 -0.0977
 4712TIP3    H135695   0.406   4.995   7.730 -0.2986  1.0989 -2.5916
 4712TIP3    H235696   0.313   5.114   7.739 -2.7120 -0.8392  1.1854
 4713TIP3   OH235697   0.707   0.398   1.364 -0.0447  0.5774 -0.2411
 4713TIP3    H135698   0.731   0.475   1.415  0.0055  0.4530 -0.0756
 4713TIP3    H235699   0.617   0.414   1.335  0.3511  1.2060 -1.1585
 4714TIP3   OH235700   3.248   1.779   8.715  1.1914 -0.0042  0.4247
 4714TIP3    H135701   3.167   1.811   8.674  1.3638 -0.7325 -0.4976
 4714TIP3    H235702   3.218   1.715   8.779  1.0367 -0.3595  0.0015
 4715TIP3   OH235703   5.220   2.831   8.372  0.4571 -0.3536  0.0673
 4715TIP3    H135704   5.289   2.887   8.408 -0.2762 -0.7466  2.2017
 4715TIP3    H235705   5.169   2.804   8.448 -2.9355  1.0053 -1.5123
 4716TIP3   OH235706   0.612   4.157   1.484 -0.7057  1.0666  0.2536
 4716TIP3    H135707   0.604   4.180   1.576  1.0600 -1.2134  1.0790
 4716TIP3    H235708   0.658   4.232   1.444  3.3929  0.0506  2.4452
 4717TIP3   OH235709   5.262   6.559   3.399  0.1142  0.3151  0.1205
 4717TIP3    H135710   5.171   6.538   3.420  0.6043 -2.7815 -0.3054
 4717TIP3    H235711   5.260   6.584   3.307 -0.1482 -1.3318 -0.3444
 4718TIP3   OH235712   5.489   2.742   3.007  0.2627 -0.3283 -0.2901
 4718TIP3    H135713   5.419   2.728   2.943 -1.0895  2.4425  0.4509
 4718TIP3    H235714   5.565   2.768   2.954 -0.3654  0.3074 -0.9055
 4719TIP3   OH235715   3.479   5.256   1.724 -0.1209 -0.2396 -0.1533
 4719TIP3    H135716   3.526   5.301   1.795  0.7714 -0.9509 -0.2672
 4719TIP3    H235717   3.530   5.177   1.709 -1.4795 -1.1410 -0.1694
 4720TIP3   OH235718   6.696   3.429   2.064 -0.4422 -0.2391 -0.4258
 4720TIP3    H135719   6.683   3.507   2.011  0.5763 -0.1647 -0.5713
 4720TIP3    H235720   6.760   3.455   2.130 -0.4648 -0.8133 -0.1702
 4721TIP3   OH235721   4.437   2.360   0.425 -0.7263  0.4263  0.1123
 4721TIP3    H135722   4.488   2.378   0.504  0.5231  0.7004 -0.7245
 4721TIP3    H235723   4.437   2.265   0.417  0.9580  0.4446 -0.6522
 4722TIP3   OH235724   2.912   5.495   2.229 -0.5313  0.0550  0.1907
 4722TIP3    H135725   2.898   5.463   2.318 -1.5466 -3.6751 -1.0977
 4722TIP3    H235726   3.006   5.488   2.216 -0.0758  2.6527  1.5253
 4723TIP3   OH235727   2.266   2.706   0.586  0.0017  0.3176  0.0778
 4723TIP3    H135728   2.258   2.797   0.558 -1.0974 -0.1600 -1.3396
 4723TIP3    H235729   2.291   2.711   0.678  0.7721  2.0329 -0.1872
 4724TIP3   OH235730   0.334   0.141   8.124  0.2415 -0.4012 -0.5444
 4724TIP3    H135731   0.301   0.053   8.106  1.4014 -0.9251 -0.2001
 4724TIP3    H235732   0.360   0.139   8.216  1.1994 -0.0030 -0.7960
 4725TIP3   OH235733   4.250   5.466   0.705  0.0723  0.3200  0.1025
 4725TIP3    H135734   4.184   5.403   0.674  0.5821 -0.2451  0.1565
 4725TIP3    H235735   4.235   5.472   0.799  1.1714 -1.0944  0.3921
 4726TIP3   OH235736   6.131   5.524   7.635  0.0199  0.0338 -0.3372
 4726TIP3    H135737   6.066   5.462   7.602 -0.4871 -0.0846  0.8258
 4726TIP3    H235738   6.167   5.565   7.556 -2.2204  0.8587 -1.0094
 4727TIP3   OH235739   6.533   5.545   7.527  0.4815  0.8555 -0.3529
 4727TIP3    H135740   6.613   5.494   7.514  0.0399  0.0173  0.1251
 4727TIP3    H235741   6.531   5.562   7.621 -0.6098 -0.3685 -0.1202
 4728TIP3   OH235742   2.236   3.913   7.323 -0.0226  0.4937 -0.0498
 4728TIP3    H135743   2.310   3.871   7.281 -1.2857 -1.3590 -0.5310
 4728TIP3    H235744   2.173   3.843   7.338 -1.4287  1.8807  0.9338
 4729TIP3   OH235745   6.331   5.727   0.464 -0.3926 -0.4742 -0.1008
 4729TIP3    H135746   6.396   5.675   0.417 -0.2456 -0.1890 -0.2132
 4729TIP3    H235747   6.382   5.790   0.514 -0.5651 -0.5323  0.1508
 4730TIP3   OH235748   2.105   3.017   6.328  0.7059 -0.2283  0.2782
 4730TIP3    H135749   2.052   2.951   6.372 -0.1257  0.6814  0.6864
 4730TIP3    H235750   2.083   3.099   6.372  0.2414  0.6388 -1.4537
 4731TIP3   OH235751   3.296   4.853   7.829 -0.2609  0.1115 -0.5106
 4731TIP3    H135752   3.201   4.845   7.823 -0.2801  1.1986 -2.7551
 4731TIP3    H235753   3.329   4.796   7.760  0.7193 -0.1375  0.1529
 4732TIP3   OH235754   1.984   6.040   2.457 -0.2634  0.0782 -0.1469
 4732TIP3    H135755   1.978   5.958   2.408  2.4382 -0.3247  0.0105
 4732TIP3    H235756   2.037   6.098   2.401  1.0092  0.3776  1.2718
 4733TIP3   OH235757   4.702   3.931   8.078  0.3762  0.5464  0.3667
 4733TIP3    H135758   4.645   3.930   8.001  0.1371 -0.8688  0.5288
 4733TIP3    H235759   4.651   3.978   8.144 -0.0157  0.5249  0.0876
 4734TIP3   OH235760   1.771   6.727   2.337  0.0727 -0.3279  0.5077
 4734TIP3    H135761   1.791   6.746   2.429  2.2901 -0.5986  0.1394
 4734TIP3    H235762   1.721   6.803   2.307 -0.0214  0.1195  1.7216
 4735TIP3   OH235763   2.236   2.861   8.136  0.2678 -0.1453 -0.4102
 4735TIP3    H135764   2.305   2.904   8.086  0.1764 -0.7026 -1.0233
 4735TIP3    H235765   2.159   2.917   8.124  0.8552  1.0948  1.1929
 4736TIP3   OH235766   6.084   1.693   8.280  0.2316 -0.2336  0.4152
 4736TIP3    H135767   6.032   1.614   8.294 -1.3978  1.2085  3.4513
 4736TIP3    H235768   6.138   1.701   8.359  0.9421  1.2852 -0.1767
 4737TIP3   OH235769   6.400   6.161   7.511 -0.4234  0.0160  0.1844
 4737TIP3    H135770   6.386   6.252   7.539 -3.0684  0.0135 -0.8682
 4737TIP3    H235771   6.312   6.128   7.492  0.5703 -2.4640 -0.4317
 4738TIP3   OH235772   1.524   5.072   7.815 -0.2378 -0.4562 -0.0854
 4738TIP3    H135773   1.473   5.147   7.784 -0.3071 -1.8473 -3.8608
 4738TIP3    H235774   1.458   5.012   7.850 -0.7939 -0.6262 -1.3558
 4739TIP3   OH235775   1.907   0.385   2.438  0.7268  0.5037  0.1778
 4739TIP3    H135776   1.888   0.298   2.472 -0.2766  0.1242 -1.2525
 4739TIP3    H235777   1.904   0.442   2.514  0.8143 -0.6214  1.0502
 4740TIP3   OH235778   4.557   3.817   2.334 -0.3878 -0.9594  0.3476
 4740TIP3    H135779   4.480   3.761   2.336 -0.1330 -1.3547 -0.6271
 4740TIP3    H235780   4.627   3.761   2.301 -0.1648 -0.0280 -0.8326
 4741TIP3   OH235781   6.097   3.657   8.221 -0.1212 -0.1996 -0.0991
 4741TIP3    H135782   6.032   3.594   8.251  0.5960 -0.7633  0.2916
 4741TIP3    H235783   6.179   3.627   8.259  0.1991  1.0879  0.2547
 4742TIP3   OH235784   1.277   3.531   0.177  0.0409  0.1949  0.5418
 4742TIP3    H135785   1.270   3.624   0.197  2.6683  0.8294 -0.9392
 4742TIP3    H235786   1.310   3.491   0.258  0.6277  0.8860  0.6496
 4743TIP3   OH235787   0.643   3.601   1.620  0.2551  0.0428  0.2746
 4743TIP3    H135788   0.712   3.544   1.655  0.7045 -0.3531 -1.1764
 4743TIP3    H235789   0.691   3.674   1.580 -0.0854 -0.5468 -1.2984
 4744TIP3   OH235790   5.799   4.471   2.181 -0.0507 -0.2840 -0.6479
 4744TIP3    H135791   5.843   4.458   2.097  1.4021 -0.1690  0.0526
 4744TIP3    H235792   5.743   4.547   2.168  0.2811 -0.1656 -1.4575
 4745TIP3   OH235793   4.385   5.839   6.644 -0.0367  0.7747 -0.9284
 4745TIP3    H135794   4.387   5.897   6.568 -2.8265  0.2596 -1.4941
 4745TIP3    H235795   4.350   5.893   6.714 -3.3851 -0.1910 -1.6393
 4746TIP3   OH235796   5.265   3.171   8.614  0.1923 -0.1695  0.3990
 4746TIP3    H135797   5.274   3.207   8.702 -1.1046  0.5106  0.2867
 4746TIP3    H235798   5.173   3.187   8.591 -0.3229 -2.9976  0.0709
 4747TIP3   OH235799   1.566   0.294   0.940  0.0274  0.1760 -0.8423
 4747TIP3    H135800   1.627   0.320   1.010 -1.5069  0.9844  0.2488
 4747TIP3    H235801   1.596   0.342   0.863  1.6651 -0.6232 -0.7638
 4748TIP3   OH235802   4.945   5.870   7.260  0.0442 -0.0044 -0.3176
 4748TIP3    H135803   4.873   5.835   7.208  0.7557 -0.0987 -1.2485
 4748TIP3    H235804   5.008   5.902   7.196  1.0478 -0.3569  0.4767
 4749TIP3   OH235805   0.894   1.176   1.845  0.7091 -0.4606 -0.6655
 4749TIP3    H135806   0.866   1.203   1.758 -1.0154  2.4103  0.6483
 4749TIP3    H235807   0.845   1.095   1.862 -1.9810  0.9799 -0.9782
 4750TIP3   OH235808   4.031   6.682   2.810 -0.7023 -0.5978 -0.1900
 4750TIP3    H135809   3.943   6.720   2.808 -0.4447 -0.0076 -0.6134
 4750TIP3    H235810   4.049   6.670   2.903 -0.5107  1.0085  0.0148
 4751TIP3   OH235811   5.957   2.746   2.134  0.1668  0.9233  0.1116
 4751TIP3    H135812   5.946   2.837   2.161 -0.6398  1.0376 -0.5623
 4751TIP3    H235813   5.917   2.694   2.203  0.3076  1.0925  0.3211
 4752TIP3   OH235814   6.449   5.437   1.987  0.1223  0.2077 -0.5140
 4752TIP3    H135815   6.424   5.394   2.068  0.0347  3.7470  1.5261
 4752TIP3    H235816   6.537   5.404   1.968 -0.3040 -1.5084  0.3397
 4753TIP3   OH235817   0.868   3.463   1.767 -0.2744 -0.0397  0.3129
 4753TIP3    H135818   0.949   3.425   1.732 -0.3552 -0.3523  0.4654
 4753TIP3    H235819   0.896   3.545   1.807 -0.2904  0.7540 -1.2007
 4754TIP3   OH235820   1.476   0.818   2.197  0.6381 -0.4109  0.2338
 4754TIP3    H135821   1.498   0.843   2.107 -1.4514 -1.4057 -0.6117
 4754TIP3    H235822   1.534   0.744   2.216 -0.4040 -1.6324 -1.1541
 4755TIP3   OH235823   5.497   2.670   2.167  0.1316 -0.7246  0.1677
 4755TIP3    H135824   5.516   2.604   2.100  1.3084 -1.5682  1.2955
 4755TIP3    H235825   5.487   2.752   2.117  0.9951 -1.3191 -1.0353
 4756TIP3   OH235826   4.215   5.677   8.149 -0.0889  0.3460 -0.3624
 4756TIP3    H135827   4.215   5.584   8.128 -0.2570 -0.2287  1.9149
 4756TIP3    H235828   4.140   5.688   8.208  2.5715  0.9060  3.2109
 4757TIP3   OH235829   0.736   5.627   1.770 -0.0712 -0.7511 -0.2683
 4757TIP3    H135830   0.723   5.652   1.678  1.2376 -2.5065 -0.9860
 4757TIP3    H235831   0.712   5.705   1.819 -1.0563  0.1603 -2.0772
 4758TIP3   OH235832   2.935   3.587   1.379  0.5298 -0.3097 -0.5844
 4758TIP3    H135833   2.905   3.597   1.288 -0.8727 -0.1648 -0.1406
 4758TIP3    H235834   2.867   3.533   1.420  1.4023 -0.7909  0.2617
 4759TIP3   OH235835   0.238   5.044   0.486  0.3010  0.1130  0.5586
 4759TIP3    H135836   0.318   5.042   0.434  0.3751  0.2446  0.6691
 4759TIP3    H235837   0.170   5.071   0.423  0.5399  1.1308  0.7224
 4760TIP3   OH235838   2.734   4.561   1.986 -0.4248  0.3421 -0.1895
 4760TIP3    H135839   2.646   4.582   1.955 -0.4952  1.7307  0.8614
 4760TIP3    H235840   2.724   4.475   2.028 -1.3077  0.5149 -0.0160
 4761TIP3   OH235841   0.584   0.889   2.522 -0.1895  0.0262 -0.0173
 4761TIP3    H135842   0.607   0.941   2.446  0.6888 -0.1439  0.1190
 4761TIP3    H235843   0.658   0.900   2.582  0.4976 -2.0987 -0.3702
 4762TIP3   OH235844   0.158   6.104   0.530 -0.0087  0.1370  0.3047
 4762TIP3    H135845   0.066   6.128   0.517  0.2716  0.5751 -0.9028
 4762TIP3    H235846   0.192   6.172   0.590 -0.3337  0.2721  0.3388
 4763TIP3   OH235847   3.146   2.553   0.640 -0.4191  0.3275 -0.4551
 4763TIP3    H135848   3.144   2.552   0.736 -0.1648  1.1862 -0.4359
 4763TIP3    H235849   3.122   2.642   0.616 -2.9027 -0.4694 -1.2687
 4764TIP3   OH235850   2.445   2.923   7.504 -0.5459  0.4551 -0.1329
 4764TIP3    H135851   2.436   2.829   7.519  1.6884  0.3397  0.9680
 4764TIP3    H235852   2.479   2.930   7.415 -2.0367  0.3498 -0.7397
 4765TIP3   OH235853   3.460   1.831   1.059 -0.7357 -0.1313  0.2088
 4765TIP3    H135854   3.444   1.815   0.966 -0.3088 -0.4425  0.1879
 4765TIP3    H235855   3.542   1.882   1.060 -1.6804  1.4530  0.3112
 4766TIP3   OH235856   6.115   6.691   1.359 -0.1016  0.3858  0.7105
 4766TIP3    H135857   6.191   6.705   1.302 -0.0146 -0.6606  0.5575
 4766TIP3    H235858   6.051   6.756   1.328  1.1570  2.1910  1.7036
 4767TIP3   OH235859   0.651   5.815   2.482  0.2580 -0.5143 -0.0962
 4767TIP3    H135860   0.614   5.870   2.551 -0.5290 -1.2308  0.0842
 4767TIP3    H235861   0.736   5.854   2.463 -0.5732  1.1879 -0.5124
 4768TIP3   OH235862   3.542   2.588   0.452  0.5576 -0.5244  0.3236
 4768TIP3    H135863   3.625   2.627   0.425  0.8128 -2.1078 -1.3770
 4768TIP3    H235864   3.476   2.656   0.436  1.3666  0.3138  0.5210
 4769TIP3   OH235865   5.150   6.706   1.438  0.8772 -0.1742 -0.2080
 4769TIP3    H135866   5.106   6.641   1.493  0.9923  0.2066  0.3398
 4769TIP3    H235867   5.084   6.773   1.423  0.9832 -0.0609 -0.1670
 4770TIP3   OH235868   2.818   5.019   7.065 -0.1825 -0.4122 -0.4228
 4770TIP3    H135869   2.858   5.106   7.068  1.5493 -1.1981  1.3127
 4770TIP3    H235870   2.883   4.964   7.023 -0.2185 -1.3309  0.6612
 4771TIP3   OH235871   0.714   1.153   7.966  0.0223 -0.0398 -0.6746
 4771TIP3    H135872   0.794   1.138   8.015  0.7024  0.2725 -1.6546
 4771TIP3    H235873   0.739   1.142   7.874 -0.6451  1.7849 -1.1247
 4772TIP3   OH235874   2.243   5.834   7.013 -0.6496 -0.1599 -0.1253
 4772TIP3    H135875   2.196   5.783   6.946  1.5305  0.3896 -2.1948
 4772TIP3    H235876   2.266   5.770   7.080 -0.9710 -1.1847 -0.9635
 4773TIP3   OH235877   1.436   2.245   2.096  0.4456 -0.3072 -0.5533
 4773TIP3    H135878   1.369   2.313   2.105  2.5827  1.7108  1.7048
 4773TIP3    H235879   1.413   2.199   2.015 -2.4325  1.5956 -0.9647
 4774TIP3   OH235880   4.806   4.657   7.735 -0.0909 -0.4400 -0.0548
 4774TIP3    H135881   4.836   4.606   7.660 -2.2776 -1.2624 -0.4493
 4774TIP3    H235882   4.776   4.740   7.696  0.0350 -0.3235  0.0960
 4775TIP3   OH235883   3.236   3.291   0.800  0.7452  0.0036 -0.0302
 4775TIP3    H135884   3.262   3.302   0.708  1.0047 -0.6518 -0.0410
 4775TIP3    H235885   3.319   3.279   0.847  0.5454 -0.8340  0.1180
 4776TIP3   OH235886   3.771   2.720   7.715 -0.7517  0.0515  0.3248
 4776TIP3    H135887   3.683   2.697   7.687 -0.0176 -0.6032 -1.5850
 4776TIP3    H235888   3.828   2.660   7.668  0.6243 -1.5623  3.7280
 4777TIP3   OH235889   5.300   4.771   1.768  0.1653  0.2107  0.2540
 4777TIP3    H135890   5.374   4.731   1.814  1.3978  0.8220 -1.1206
 4777TIP3    H235891   5.264   4.701   1.714 -2.3344 -0.9895  3.1941
 4778TIP3   OH235892   0.873   4.047   1.747 -0.2655  0.5590  0.6544
 4778TIP3    H135893   0.962   4.082   1.753  0.3395 -0.7799 -0.0047
 4778TIP3    H235894   0.821   4.119   1.711  0.4866  1.4339  1.2685
 4779TIP3   OH235895   2.538   1.287   8.362 -0.0654 -0.3124  1.1078
 4779TIP3    H135896   2.482   1.210   8.355  0.0110 -0.3501  0.9099
 4779TIP3    H235897   2.525   1.318   8.452 -1.1669  0.2641  0.7623
 4780TIP3   OH235898   1.065   3.651   2.943 -0.1633  0.2752  0.1046
 4780TIP3    H135899   1.075   3.731   2.891 -2.5952  1.0838  0.7671
 4780TIP3    H235900   1.144   3.647   2.997  0.0381  2.2167  0.0220
 4781TIP3   OH235901   4.620   2.040   8.131 -0.0905 -0.1203 -0.4267
 4781TIP3    H135902   4.655   1.993   8.056  1.0870  0.0827 -0.0156
 4781TIP3    H235903   4.692   2.043   8.194 -0.6236  0.9108  0.1629
 4782TIP3   OH235904   0.467   4.593   8.191  0.3271  0.0826  0.1096
 4782TIP3    H135905   0.404   4.528   8.222  0.8951 -0.5888 -0.1084
 4782TIP3    H235906   0.440   4.610   8.100  0.1652  0.1641  0.1730
 4783TIP3   OH235907   5.609   6.128   7.827  0.1196  0.2555  0.5446
 4783TIP3    H135908   5.665   6.126   7.749  1.1572 -2.6735  1.2173
 4783TIP3    H235909   5.532   6.178   7.801  0.5983 -0.3144 -2.2347
 4784TIP3   OH235910   3.383   6.683   7.912 -0.5047 -0.0375 -0.0640
 4784TIP3    H135911   3.344   6.651   7.994 -2.2520 -0.4132 -0.9827
 4784TIP3    H235912   3.476   6.661   7.919 -0.4199  0.7291  2.1782
 4785TIP3   OH235913   2.701   2.097   8.581  0.8568 -0.8944  0.1117
 4785TIP3    H135914   2.748   2.129   8.658 -1.0893  1.1650  0.5289
 4785TIP3    H235915   2.745   2.138   8.506  0.8742 -0.4876  0.3468
 4786TIP3   OH235916   0.433   2.438   0.709  0.2385  0.3902  0.0051
 4786TIP3    H135917   0.377   2.369   0.743  1.3755 -0.9852 -0.8244
 4786TIP3    H235918   0.393   2.463   0.625 -0.6538  1.3901  0.6973
 4787TIP3   OH235919   3.734   4.767   3.019  0.3053  1.0401  0.3474
 4787TIP3    H135920   3.732   4.674   2.998 -1.5980  1.4699 -1.7909
 4787TIP3    H235921   3.827   4.790   3.014  0.7575 -0.6499  0.4652
 4788TIP3   OH235922   5.310   1.165   2.198 -0.5121 -0.3331 -0.0860
 4788TIP3    H135923   5.379   1.225   2.168 -0.4309 -0.3516  0.0629
 4788TIP3    H235924   5.254   1.153   2.121 -0.3786 -0.2769 -0.1937
 4789TIP3   OH235925   3.647   1.711   0.417 -0.6841 -0.2579 -0.3879
 4789TIP3    H135926   3.574   1.765   0.389 -0.5323  0.1921  0.0566
 4789TIP3    H235927   3.625   1.686   0.507 -0.3800 -0.2690 -0.3153
 4790TIP3   OH235928   1.983   4.408   2.370 -0.1313 -0.3159  0.3596
 4790TIP3    H135929   1.895   4.413   2.407  0.1618  0.9535  0.9736
 4790TIP3    H235930   1.977   4.456   2.287  0.0936  0.2774  0.6775
 4791TIP3   OH235931   1.313   4.469   0.151  0.1926 -0.2065 -0.0510
 4791TIP3    H135932   1.359   4.397   0.108 -0.3268 -0.4351 -0.2226
 4791TIP3    H235933   1.362   4.484   0.232  0.6469 -0.3603 -0.2957
 4792TIP3   OH235934   0.754   0.578   0.838 -0.0119 -0.4015  0.3498
 4792TIP3    H135935   0.708   0.507   0.881 -0.6519 -1.3991 -1.8336
 4792TIP3    H235936   0.686   0.626   0.790  0.7438  0.2308 -0.1209
 4793TIP3   OH235937   6.393   5.754   0.841 -0.7189 -0.0932  0.3642
 4793TIP3    H135938   6.392   5.698   0.763  2.5143 -1.3177  1.0602
 4793TIP3    H235939   6.428   5.837   0.811  0.3526 -0.5063  0.4162
 4794TIP3   OH235940   2.656   3.297   7.672 -0.4428 -0.3977  0.3171
 4794TIP3    H135941   2.623   3.367   7.616  1.4977  0.8907  0.6943
 4794TIP3    H235942   2.715   3.246   7.616 -0.7606 -0.8868  0.4206
 4795TIP3   OH235943   6.686   1.581   7.625 -0.0907 -0.0090 -0.1707
 4795TIP3    H135944   6.768   1.532   7.620 -1.0023 -1.6007 -0.1228
 4795TIP3    H235945   6.618   1.514   7.628 -1.4390  1.2807 -0.7579
 4796TIP3   OH235946   4.873   3.949   7.589 -0.1707  0.0212 -0.7810
 4796TIP3    H135947   4.870   3.990   7.503 -2.9545  1.7068 -0.0067
 4796TIP3    H235948   4.868   3.855   7.571  0.7568  0.2487 -2.4498
 4797TIP3   OH235949   2.529   4.792   1.620  0.0501  0.8734  0.4777
 4797TIP3    H135950   2.478   4.863   1.659  0.7192  1.2376  0.7068
 4797TIP3    H235951   2.542   4.730   1.691 -0.1081  0.7613  0.4087
 4798TIP3   OH235952   1.111   3.966   6.816  0.1577  0.0713 -0.7379
 4798TIP3    H135953   1.040   3.906   6.795 -1.6879  1.5498  0.8765
 4798TIP3    H235954   1.107   3.976   6.911  2.1912  0.6285 -0.6626
 4799TIP3   OH235955   6.230   4.666   2.169 -0.4526  0.4221  0.1452
 4799TIP3    H135956   6.166   4.673   2.239 -1.9268  2.4029 -1.2726
 4799TIP3    H235957   6.193   4.602   2.109 -1.1556  1.5299 -0.6493
 4800TIP3   OH235958   1.071   1.577   7.821 -0.4116  0.6470  0.3336
 4800TIP3    H135959   1.128   1.654   7.822 -1.4290  1.4218  0.2464
 4800TIP3    H235960   1.125   1.508   7.784  0.2575  1.5422 -0.4189
 4801TIP3   OH235961   2.304   2.267   6.895  0.3207  0.0642 -0.1284
 4801TIP3    H135962   2.218   2.236   6.926 -0.5365  0.9855 -1.5151
 4801TIP3    H235963   2.288   2.355   6.863  2.3198  1.2937  1.8943
 4802TIP3   OH235964   2.004   6.585   3.114 -0.1413  0.1450  0.0771
 4802TIP3    H135965   1.939   6.540   3.168  0.1339 -2.4448 -1.5813
 4802TIP3    H235966   2.086   6.538   3.130  0.3048  0.4035 -1.2901
 4803TIP3   OH235967   0.642   4.237   0.559 -0.0136 -0.3947 -0.5683
 4803TIP3    H135968   0.580   4.185   0.610  1.1276 -1.5665 -0.3171
 4803TIP3    H235969   0.588   4.288   0.500 -1.2090 -1.4910 -0.4583
 4804TIP3   OH235970   5.428   0.810   0.496 -0.1930 -0.0666 -0.1337
 4804TIP3    H135971   5.519   0.807   0.465 -0.1220 -0.4691  0.1023
 4804TIP3    H235972   5.399   0.899   0.478  0.3293  0.1354  0.0183
 4805TIP3   OH235973   3.398   2.572   7.876  0.8323  0.2828 -0.1147
 4805TIP3    H135974   3.352   2.652   7.901  1.1337  0.8392 -1.2827
 4805TIP3    H235975   3.333   2.520   7.829  0.5919 -0.2385  0.7831
 4806TIP3   OH235976   2.045   3.034   7.794  0.5548 -0.1799 -0.0056
 4806TIP3    H135977   2.013   2.949   7.823  2.3578  0.0695  3.0927
 4806TIP3    H235978   2.078   3.019   7.705 -1.4835 -2.0408 -0.5226
 4807TIP3   OH235979   2.354   2.868   7.209 -0.1972 -0.2921  0.3994
 4807TIP3    H135980   2.380   2.778   7.193  0.1160 -0.5390  2.0572
 4807TIP3    H235981   2.266   2.861   7.247  0.0209  0.0579  0.9788
 4808TIP3   OH235982   2.834   1.263   2.958  0.1025  0.6451 -0.3924
 4808TIP3    H135983   2.845   1.357   2.948  1.0731  0.6069  0.2125
 4808TIP3    H235984   2.742   1.252   2.983 -0.5978  1.2426 -2.5117
 4809TIP3   OH235985   0.297   2.713   1.453  0.3964  0.8363  0.0912
 4809TIP3    H135986   0.273   2.710   1.545  0.3977  0.9426  0.0950
 4809TIP3    H235987   0.290   2.806   1.429  2.3778  1.1413  0.4963
 4810TIP3   OH235988   2.358   1.840   1.144 -0.4601 -0.3554  0.4712
 4810TIP3    H135989   2.419   1.788   1.091 -0.5408 -0.5448  0.5649
 4810TIP3    H235990   2.409   1.866   1.220  0.0870  1.0831 -0.3465
 4811TIP3   OH235991   4.111   2.615   1.148 -0.1882 -0.0498  0.3415
 4811TIP3    H135992   4.023   2.623   1.187  0.2897  0.7307  1.2986
 4811TIP3    H235993   4.095   2.619   1.054 -1.0445  1.7980  0.5293
 4812TIP3   OH235994   0.625   1.874   2.957  0.0525 -0.3922  0.0703
 4812TIP3    H135995   0.573   1.955   2.950  0.0987 -0.3543  0.1659
 4812TIP3    H235996   0.579   1.822   3.023  0.9142  0.2373  1.2234
 4813TIP3   OH235997   0.215   1.847   0.566  0.2530 -0.6265 -0.6126
 4813TIP3    H135998   0.216   1.758   0.530  0.0174  0.0727 -2.4705
 4813TIP3    H235999   0.198   1.835   0.659  0.9085 -2.5583 -0.6917
 4814TIP3   OH236000   4.128   1.313   8.458  0.2834  0.5030 -0.1998
 4814TIP3    H136001   4.193   1.288   8.393 -0.4980 -0.8768 -0.4953
 4814TIP3    H236002   4.047   1.323   8.408 -0.1182  0.3613  0.4061
 4815TIP3   OH236003   4.792   0.691   1.788  0.2797  0.4791 -0.0970
 4815TIP3    H136004   4.787   0.637   1.709  0.3991 -1.0062  0.8709
 4815TIP3    H236005   4.701   0.718   1.805 -0.2377 -1.6588  0.8605
 4816TIP3   OH236006   5.318   4.778   7.791 -0.4336 -0.5045  0.3033
 4816TIP3    H136007   5.364   4.827   7.723  1.0257  1.1911  2.3942
 4816TIP3    H236008   5.226   4.799   7.778 -0.0492  0.8786 -0.3211
 4817TIP3   OH236009   1.696   6.704   1.740  0.6609 -0.6360 -0.6756
 4817TIP3    H136010   1.770   6.762   1.753 -0.2855  0.2221  1.2343
 4817TIP3    H236011   1.721   6.623   1.784  0.7848 -0.6502 -0.7694
 4818TIP3   OH236012   1.528   4.831   0.699 -0.4818  0.1595 -0.2566
 4818TIP3    H136013   1.552   4.839   0.792  0.0073 -0.0124 -0.3678
 4818TIP3    H236014   1.441   4.792   0.700 -0.2642 -0.3231  0.1175
 4819TIP3   OH236015   6.313   6.342   8.176  0.0403  0.0158  0.2444
 4819TIP3    H136016   6.287   6.422   8.129 -0.6244 -0.5586 -0.4007
 4819TIP3    H236017   6.235   6.316   8.225  0.1586 -0.3991  0.2187
 4820TIP3   OH236018   0.837   0.301   7.445 -0.3132  0.2408  0.4380
 4820TIP3    H136019   0.778   0.276   7.516 -2.0482  0.7474 -0.7654
 4820TIP3    H236020   0.836   0.226   7.385 -2.0160  1.3079 -0.9695
 4821TIP3   OH236021   1.634   6.552   1.494 -0.4976  0.4673  0.4837
 4821TIP3    H136022   1.697   6.578   1.428 -2.0485  1.4809 -0.6799
 4821TIP3    H236023   1.648   6.613   1.567  0.0953  0.4425  0.3895
 4822TIP3   OH236024   1.280   4.119   0.889 -0.3493 -0.0194  0.0008
 4822TIP3    H136025   1.374   4.108   0.900 -0.5577 -1.6834  0.4238
 4822TIP3    H236026   1.262   4.082   0.802 -0.6078  0.3562 -0.1085
 4823TIP3   OH236027   4.633   2.695   1.145  0.5483 -0.1602  0.0867
 4823TIP3    H136028   4.661   2.781   1.178  0.8633 -0.1216 -0.2691
 4823TIP3    H236029   4.539   2.694   1.160  0.5739  0.1573  0.3013
 4824TIP3   OH236030   5.082   4.591   1.352 -0.3530 -0.2583 -0.0133
 4824TIP3    H136031   5.107   4.683   1.351  0.2624 -0.4227 -1.1197
 4824TIP3    H236032   5.134   4.551   1.282 -0.0098 -1.6100  0.9673
 4825TIP3   OH236033   5.317   3.815   0.744  0.2765  0.0289  1.3588
 4825TIP3    H136034   5.351   3.901   0.769 -0.6237  1.1469 -1.0245
 4825TIP3    H236035   5.226   3.816   0.772  0.8652 -1.1939  3.5729
 4826TIP3   OH236036   1.692   1.348   8.094 -0.0872 -0.7114 -0.1195
 4826TIP3    H136037   1.739   1.333   8.176  1.5335  2.1729 -0.3871
 4826TIP3    H236038   1.652   1.434   8.104  0.0693 -0.3166 -2.2823
 4827TIP3   OH236039   2.620   4.374   0.557  0.0460  0.0899 -0.2486
 4827TIP3    H136040   2.639   4.327   0.638 -1.3876  0.3905  0.3008
 4827TIP3    H236041   2.550   4.323   0.516 -1.9788  1.9789  0.6542
 4828TIP3   OH236042   3.078   3.068   1.089  0.0971 -0.1773  0.0042
 4828TIP3    H136043   3.019   3.104   1.023 -0.4934  0.5399  0.8853
 4828TIP3    H236044   3.111   3.145   1.136  0.7376 -0.6494  0.3492
 4829TIP3   OH236045   2.697   4.783   0.719 -0.3494  0.3204 -0.0919
 4829TIP3    H136046   2.743   4.795   0.636 -0.3391  0.5877 -0.0487
 4829TIP3    H236047   2.647   4.863   0.730 -1.1563 -0.1350 -0.3433
 4830TIP3   OH236048   0.565   0.301   1.914  0.1547  0.0498  0.8774
 4830TIP3    H136049   0.620   0.267   1.984 -0.3824  0.4756  1.5228
 4830TIP3    H236050   0.533   0.223   1.868 -0.2860 -0.2873  1.7378
 4831TIP3   OH236051   3.616   4.024   7.706  0.5489  0.0579  0.0599
 4831TIP3    H136052   3.540   3.971   7.683  0.6368  0.0079 -0.1137
 4831TIP3    H236053   3.668   4.027   7.626  0.9591 -0.2992  0.3110
 4832TIP3   OH236054   6.014   4.033   0.271 -0.1728 -0.0003  0.0579
 4832TIP3    H136055   5.957   3.964   0.305  1.5516 -1.9991 -0.8639
 4832TIP3    H236056   6.096   3.988   0.249  0.5429  2.0732 -1.9650
 4833TIP3   OH236057   2.945   2.460   6.793 -0.0912  0.3862  0.5243
 4833TIP3    H136058   3.024   2.504   6.826 -0.6151  0.8186  1.2369
 4833TIP3    H236059   2.946   2.374   6.837 -0.8098  0.9761  1.7476
 4834TIP3   OH236060   2.360   2.488   8.000  0.6967  0.3813 -0.2054
 4834TIP3    H136061   2.385   2.578   7.981  0.4856  0.5342  0.2372
 4834TIP3    H236062   2.273   2.478   7.961  0.0148  0.8688  1.1443
 4835TIP3   OH236063   2.886   5.808   0.527  0.7941 -0.0306 -0.2188
 4835TIP3    H136064   2.964   5.754   0.516  2.3288  1.5986  1.8972
 4835TIP3    H236065   2.909   5.891   0.486  0.1643  0.4523  0.3954
 4836TIP3   OH236066   3.023   2.729   7.643 -0.2649 -0.6168 -0.2478
 4836TIP3    H136067   2.990   2.665   7.580  0.8714  1.6257 -3.4042
 4836TIP3    H236068   3.118   2.725   7.633 -0.1669  1.7528 -0.9174
 4837TIP3   OH236069   4.885   6.096   2.885  0.4345 -0.1028  0.0602
 4837TIP3    H136070   4.913   6.004   2.888 -2.2438 -0.9798  1.7861
 4837TIP3    H236071   4.832   6.107   2.964  0.3959  2.8746 -0.2800
 4838TIP3   OH236072   2.658   1.151   1.992  0.4403 -0.5576 -0.0590
 4838TIP3    H136073   2.619   1.077   1.945 -0.2695 -0.2237 -0.0107
 4838TIP3    H236074   2.695   1.207   1.923  0.8968 -0.9096 -0.1006
 4839TIP3   OH236075   2.172   0.623   7.489  0.8087 -0.2287  0.1734
 4839TIP3    H136076   2.107   0.669   7.436  0.4998  0.5882  1.2235
 4839TIP3    H236077   2.201   0.550   7.434 -1.7000 -1.2082  0.0159
 4840TIP3   OH236078   4.168   0.225   7.806 -0.4934  0.6485  0.4630
 4840TIP3    H136079   4.145   0.268   7.723 -1.0587  1.4962  1.0404
 4840TIP3    H236080   4.219   0.290   7.854 -0.4840  0.3030  0.9312
 4841TIP3   OH236081   3.737   2.172   8.211  0.0062  0.4922  0.6693
 4841TIP3    H136082   3.708   2.087   8.244 -0.5552  1.1230  1.8946
 4841TIP3    H236083   3.832   2.171   8.221 -0.2274  1.4974  4.7142
 4842TIP3   OH236084   5.822   1.237   0.869  0.1870  0.0519  0.3181
 4842TIP3    H136085   5.805   1.329   0.850  2.7005  0.6961  0.7296
 4842TIP3    H236086   5.756   1.189   0.819 -0.8603  2.0495 -0.3210
 4843TIP3   OH236087   4.858   3.407   1.625 -0.0438  0.2518 -0.4302
 4843TIP3    H136088   4.790   3.356   1.669  0.9580 -0.3925  0.4079
 4843TIP3    H236089   4.809   3.474   1.576 -1.2909 -0.3923 -0.1183
 4844TIP3   OH236090   6.036   2.781   0.014  0.0949  0.0424 -0.5563
 4844TIP3    H136091   6.031   2.871   0.044 -3.2246  0.0925 -0.7987
 4844TIP3    H236092   6.090   2.784  -0.065  1.7243  1.3981  0.5512
 4845TIP3   OH236093   1.165   0.805   7.614 -0.3470  0.3526 -0.2619
 4845TIP3    H136094   1.124   0.887   7.640 -2.0344 -0.3695 -0.4820
 4845TIP3    H236095   1.156   0.802   7.518  1.9333  1.0110 -0.5476
 4846TIP3   OH236096   6.274   6.021   0.330  0.6246  0.0685  0.2465
 4846TIP3    H136097   6.345   5.981   0.380  1.0623  0.4231 -0.0829
 4846TIP3    H236098   6.199   5.963   0.345  1.0495 -0.4631  0.3758
 4847TIP3   OH236099   6.643   5.739   0.640 -0.4565  0.1500  0.0701
 4847TIP3    H136100   6.726   5.772   0.675 -0.1476 -0.6321  0.0794
 4847TIP3    H236101   6.611   5.810   0.584  0.5011  0.2266 -0.3934
 4848TIP3   OH236102   4.085   4.486   1.167  0.0684  0.2840 -0.3302
 4848TIP3    H136103   4.128   4.559   1.124  0.2329  0.8893  0.8039
 4848TIP3    H236104   3.993   4.492   1.139 -0.1044  1.4583  0.3993
 4849TIP3   OH236105   4.649   2.210   8.487  0.1021 -0.0687 -0.9834
 4849TIP3    H136106   4.606   2.199   8.572  0.3015 -2.5133 -1.1484
 4849TIP3    H236107   4.740   2.229   8.508 -0.4183  2.4306 -0.6726
 4850TIP3   OH236108   3.878   5.440   0.385  0.3846  0.3342  0.0672
 4850TIP3    H136109   3.823   5.369   0.353 -1.2629  1.3810  0.4252
 4850TIP3    H236110   3.916   5.479   0.305 -0.2076  0.2177 -0.2764
 4851TIP3   OH236111   4.072   1.612   7.730 -0.2185 -0.0449  0.5014
 4851TIP3    H136112   4.100   1.647   7.815 -0.7027  1.0228  0.2357
 4851TIP3    H236113   3.977   1.613   7.734 -0.3064 -2.6584  0.9962
 4852TIP3   OH236114   3.277   0.973   1.964 -0.3685 -0.1227  0.0630
 4852TIP3    H136115   3.360   0.928   1.946 -1.5373 -1.8019 -1.4930
 4852TIP3    H236116   3.235   0.918   2.031 -0.6442  0.1731  0.1323
 4853TIP3   OH236117   4.747   1.862   0.620  1.0437  0.2907  0.2176
 4853TIP3    H136118   4.701   1.933   0.575  0.4946 -0.2076 -0.0152
 4853TIP3    H236119   4.701   1.782   0.593 -0.7256  0.1100  3.3531
 4854TIP3   OH236120   3.908   3.308   6.818 -0.1646 -0.3516  0.2922
 4854TIP3    H136121   3.815   3.288   6.817 -0.4931  1.1025 -1.1774
 4854TIP3    H236122   3.933   3.298   6.910 -1.9501  0.0357  0.8605
 4855TIP3   OH236123   0.781   5.315   7.704  0.8325 -0.0567 -0.3141
 4855TIP3    H136124   0.723   5.269   7.763 -0.7776  0.1977 -1.6311
 4855TIP3    H236125   0.723   5.365   7.647  2.2500 -0.6186 -2.3835
 4856TIP3   OH236126   4.790   6.131   7.191  0.1271  0.1964  0.3573
 4856TIP3    H136127   4.740   6.194   7.243 -2.7624 -2.1817  0.7326
 4856TIP3    H236128   4.743   6.048   7.202  2.5015 -1.5966 -1.7847
 4857TIP3   OH236129   2.415   0.386   0.460  0.4840 -0.4315 -0.0521
 4857TIP3    H136130   2.503   0.422   0.466  0.4600  0.2559 -2.5685
 4857TIP3    H236131   2.374   0.408   0.544  1.6306  2.3120 -0.1102
 4858TIP3   OH236132   0.620   5.124   0.870  0.8695  0.2184 -0.1204
 4858TIP3    H136133   0.572   5.126   0.787 -0.3708 -0.5575  0.5542
 4858TIP3    H236134   0.658   5.212   0.878  0.1192  0.6370 -0.9858
 4859TIP3   OH236135   1.855   2.101   8.347 -0.5241 -0.5932  0.6128
 4859TIP3    H136136   1.795   2.051   8.403 -0.2291  1.1613  2.6262
 4859TIP3    H236137   1.864   2.185   8.391  2.6879 -0.4304 -0.1363
 4860TIP3   OH236138   2.859   2.058   1.969  0.4910 -0.1247 -0.1253
 4860TIP3    H136139   2.874   2.096   2.056  1.2975  0.8610 -0.6724
 4860TIP3    H236140   2.812   2.126   1.920  1.3347 -0.0809 -0.9034
 4861TIP3   OH236141   4.585   0.440   8.540 -0.1417 -0.3926  0.0372
 4861TIP3    H136142   4.667   0.430   8.588  0.7304  2.4868 -0.6387
 4861TIP3    H236143   4.519   0.456   8.608  0.6758  1.3928  0.4835
 4862TIP3   OH236144   3.703   4.164   1.732  0.0024  0.2206 -0.2195
 4862TIP3    H136145   3.624   4.217   1.720  0.0082  0.0753 -0.9351
 4862TIP3    H236146   3.681   4.105   1.804 -0.7886 -0.2641 -0.8417
 4863TIP3   OH236147   5.100   3.112   1.796  0.0728  0.1780 -0.1391
 4863TIP3    H136148   5.068   3.136   1.709  1.1203  4.0151  0.3640
 4863TIP3    H236149   5.030   3.139   1.856  0.3053 -0.2941  0.3510
 4864TIP3   OH236150   2.260   2.668   2.017  0.1982 -0.3877 -0.2631
 4864TIP3    H136151   2.335   2.611   2.033  0.0006 -0.8627 -1.0148
 4864TIP3    H236152   2.271   2.740   2.080  0.0711 -1.6002  1.1985
 4865TIP3   OH236153   3.182   1.562   7.483 -0.3782  0.2125 -0.4620
 4865TIP3    H136154   3.096   1.573   7.525 -1.4842  0.9770 -2.7868
 4865TIP3    H236155   3.214   1.651   7.471  0.4377 -0.0443 -0.2400
 4866TIP3   OH236156   5.991   2.906   7.198 -0.1470  0.1925  0.1267
 4866TIP3    H136157   5.981   2.817   7.232 -1.1131 -0.1085 -0.8816
 4866TIP3    H236158   5.939   2.907   7.118  1.2816  1.1578 -0.8438
 4867TIP3   OH236159   6.780   3.895   0.100 -0.3373 -0.1826 -0.1293
 4867TIP3    H136160   6.731   3.842   0.036  0.5487 -0.0144 -0.9601
 4867TIP3    H236161   6.728   3.975   0.108  0.1905  0.3465 -1.6315
 4868TIP3   OH236162   6.620   1.758   8.603  0.5463  0.3348  0.0690
 4868TIP3    H136163   6.622   1.664   8.625  0.4293  0.3373  0.0923
 4868TIP3    H236164   6.615   1.802   8.688  1.8613  0.4128  0.1375
 4869TIP3   OH236165   5.824   1.064   7.211  0.4489 -0.3192 -0.1036
 4869TIP3    H136166   5.833   1.067   7.116  0.9345  1.7086 -0.0500
 4869TIP3    H236167   5.828   1.156   7.238  1.3221 -0.9069  1.9565
 4870TIP3   OH236168   2.146   4.222   2.947  0.0584  0.1695  0.1626
 4870TIP3    H136169   2.081   4.215   2.877 -0.2688 -2.1994  0.6192
 4870TIP3    H236170   2.172   4.132   2.965  1.0407  0.8044  2.2500
 4871TIP3   OH236171   5.487   5.327   2.000 -0.3324  0.1923  0.4962
 4871TIP3    H136172   5.438   5.378   2.065 -0.6525 -0.3064  0.6531
 4871TIP3    H236173   5.428   5.322   1.925  0.6265  2.1037 -0.4801
 4872TIP3   OH236174   4.273   6.122   2.756 -0.9691 -0.6656  0.3528
 4872TIP3    H136175   4.291   6.173   2.835 -0.4552  0.7495 -0.6463
 4872TIP3    H236176   4.183   6.144   2.732 -1.1686 -1.1910  0.5911
 4873TIP3   OH236177   5.244   2.449   1.547 -0.6143  0.0908 -0.1814
 4873TIP3    H136178   5.213   2.359   1.541 -1.0865  0.2988 -1.1751
 4873TIP3    H236179   5.293   2.453   1.629 -1.0613 -0.9210  0.1479
 4874TIP3   OH236180   1.405   0.242   2.091 -0.4274 -0.2883  0.3253
 4874TIP3    H136181   1.465   0.202   2.153 -0.3760 -0.6323  0.0560
 4874TIP3    H236182   1.389   0.174   2.025 -2.2754 -0.7381  1.1847
 4875TIP3   OH236183   5.968   0.725   1.227 -0.8066 -0.4229  0.0823
 4875TIP3    H136184   5.928   0.812   1.236 -0.6900 -0.3456 -0.1341
 4875TIP3    H236185   5.960   0.686   1.314  2.1112  1.1001  1.1947
 4876TIP3   OH236186   4.157   2.708   0.105  0.1689  0.0612 -0.1114
 4876TIP3    H136187   4.164   2.724   0.011 -1.6064 -0.4504 -0.3779
 4876TIP3    H236188   4.210   2.777   0.145  0.4002  0.7139 -1.4679
 4877TIP3   OH236189   4.352   0.026   0.509  0.9880 -0.3545 -0.3314
 4877TIP3    H136190   4.266  -0.011   0.485  0.6803 -0.4079  0.8268
 4877TIP3    H236191   4.414  -0.026   0.458  0.3489 -0.4495 -1.0357
 4878TIP3   OH236192   2.463   5.924   0.855  0.4396 -0.9818  0.5921
 4878TIP3    H136193   2.384   5.870   0.851 -0.2271  0.0396 -1.2659
 4878TIP3    H236194   2.508   5.907   0.772  2.4894 -1.9333  1.8329
 4879TIP3   OH236195   6.789   1.394   8.121  0.0653  0.2216  1.0444
 4879TIP3    H136196   6.863   1.386   8.060  1.1691 -0.1292  2.3874
 4879TIP3    H236197   6.712   1.394   8.064  0.9078 -2.2821 -0.2670
 4880TIP3   OH236198   0.264   0.998   0.256  0.3467 -0.0664  0.0221
 4880TIP3    H136199   0.317   0.972   0.181  0.6365  1.2286 -0.2548
 4880TIP3    H236200   0.322   0.986   0.332  1.1824  1.5643 -0.3014
 4881TIP3   OH236201   4.186   0.846   1.950 -0.1092 -0.6924  0.0641
 4881TIP3    H136202   4.117   0.900   1.911  0.0301 -1.6886 -1.6419
 4881TIP3    H236203   4.212   0.786   1.880  2.0195 -0.8001  0.8830
 4882TIP3   OH236204   4.734   0.514   1.557  0.4133 -0.1416  0.6547
 4882TIP3    H136205   4.670   0.471   1.614 -0.2064  0.0522  0.1090
 4882TIP3    H236206   4.701   0.499   1.469  1.1179 -0.0301  0.3671
 4883TIP3   OH236207   5.970   0.679   7.477  0.5810 -0.2207 -0.2879
 4883TIP3    H136208   6.037   0.691   7.409  0.2431 -0.9422 -0.7718
 4883TIP3    H236209   5.947   0.586   7.470 -1.3187  0.2523 -0.9578
 4884TIP3   OH236210   4.539   4.961   1.122 -1.0690  0.3262  0.1929
 4884TIP3    H136211   4.452   4.982   1.156 -1.1093  1.1963 -0.4150
 4884TIP3    H236212   4.547   5.013   1.042 -0.2184 -0.1971 -0.0795
 4885TIP3   OH236213   2.959   0.640   1.158  0.0607  0.2735 -0.6582
 4885TIP3    H136214   2.909   0.678   1.086  0.4839  1.4042 -0.3775
 4885TIP3    H236215   2.893   0.599   1.214 -0.2209 -1.0843 -1.9278
 4886TIP3   OH236216   2.477   1.947   8.604 -0.0201  0.3173 -0.0891
 4886TIP3    H136217   2.551   2.008   8.603 -1.4972  2.2228  0.1050
 4886TIP3    H236218   2.401   2.002   8.583 -1.7821 -0.9680  2.4261
 4887TIP3   OH236219   5.567   4.243   1.689 -0.1518 -0.8965  0.5383
 4887TIP3    H136220   5.489   4.277   1.733 -0.6776 -0.1807 -0.8799
 4887TIP3    H236221   5.629   4.316   1.691 -0.2828 -0.7653 -0.1439
 4888TIP3   OH236222   5.321   0.336   2.081 -0.2611 -0.1851 -0.0252
 4888TIP3    H136223   5.344   0.377   1.998  1.1849 -1.0443 -0.0840
 4888TIP3    H236224   5.260   0.397   2.122  1.1903  1.6199 -0.4518
 4889TIP3   OH236225   6.579   3.039   0.194  0.2729 -0.5893 -0.4821
 4889TIP3    H136226   6.659   3.073   0.232  1.3702 -1.1532 -2.2002
 4889TIP3    H236227   6.509   3.070   0.253  1.6670  0.3759  0.7242
 4890TIP3   OH236228   1.076   0.403   1.364 -0.0973 -0.0069  0.3756
 4890TIP3    H136229   1.110   0.315   1.378  0.1732  0.3197  1.8998
 4890TIP3    H236230   0.981   0.390   1.351  0.3155 -0.8150 -2.9544
 4891TIP3   OH236231   6.398   6.803   8.190  0.1938 -0.0146 -0.2903
 4891TIP3    H136232   6.424   6.766   8.105 -1.8895  0.7380 -1.3256
 4891TIP3    H236233   6.303   6.800   8.189  0.1033  0.7004  1.7562
 4892TIP3   OH236234   6.046   0.151   7.574  0.2357 -0.3273 -0.1996
 4892TIP3    H136235   6.051   0.244   7.551 -1.3570 -0.2361 -0.3410
 4892TIP3    H236236   6.034   0.151   7.669  0.6005 -0.4112 -0.1529
 4893TIP3   OH236237   2.658   1.068   7.252 -0.0875  0.5730  0.0948
 4893TIP3    H136238   2.746   1.105   7.247  1.0468 -1.8655  0.7244
 4893TIP3    H236239   2.669   0.988   7.303 -1.9786 -1.8301 -3.0018
 4894TIP3   OH236240   4.087   6.352   7.961 -0.1470  1.1407  0.6036
 4894TIP3    H136241   4.152   6.420   7.974  1.1935  0.5526 -2.2280
 4894TIP3    H236242   4.129   6.272   7.993  0.3675  0.8557 -0.7107
 4895TIP3   OH236243   0.538   4.499   2.385  0.2685 -0.4168  0.4003
 4895TIP3    H136244   0.464   4.471   2.332 -0.5376  1.7612  0.2595
 4895TIP3    H236245   0.559   4.424   2.440  0.0165 -2.1507 -1.7550
 4896TIP3   OH236246   6.572   3.972   8.174 -0.3186  0.4417 -0.2966
 4896TIP3    H136247   6.499   3.949   8.231 -0.6596  2.1773  0.0280
 4896TIP3    H236248   6.549   3.935   8.089  0.9520 -3.6198  0.9172
 4897TIP3   OH236249   6.299   0.813   8.291  0.4771  0.1991 -0.2980
 4897TIP3    H136250   6.244   0.891   8.290  0.8237  0.4467 -0.3909
 4897TIP3    H236251   6.241   0.742   8.264  0.0983  0.3828  0.0234
 4898TIP3   OH236252   3.405   3.030   1.879  0.0187  0.2124  0.1639
 4898TIP3    H136253   3.493   2.992   1.876 -0.1507 -0.3185 -3.7570
 4898TIP3    H236254   3.419   3.121   1.906  1.6527 -0.0777  0.3895
 4899TIP3   OH236255   3.872   0.733   2.321 -0.2934 -0.1077  0.4509
 4899TIP3    H136256   3.945   0.685   2.281 -0.3753 -0.2378  0.4570
 4899TIP3    H236257   3.889   0.726   2.415  0.0140  0.3782  0.4349
 4900TIP3   OH236258   4.288   5.695   2.111  0.3303 -0.4090 -0.4641
 4900TIP3    H136259   4.279   5.713   2.205  0.5498 -1.5036 -0.2179
 4900TIP3    H236260   4.363   5.747   2.084  0.6543 -0.5710  0.1081
 4901TIP3   OH236261   0.777   1.980   2.756 -0.4441  0.5541  0.0206
 4901TIP3    H136262   0.835   2.024   2.819  1.7946 -0.7568 -0.9924
 4901TIP3    H236263   0.725   1.921   2.810  2.1746 -1.3466  0.7008
 4902TIP3   OH236264   2.734   2.176   8.125 -0.1969 -0.0581  0.1509
 4902TIP3    H136265   2.738   2.104   8.063  0.7271  1.5475 -1.7566
 4902TIP3    H236266   2.823   2.210   8.129 -0.2983  0.1190  2.1378
 4903TIP3   OH236267   0.589   5.294   1.582  0.3064  0.3680 -0.3147
 4903TIP3    H136268   0.665   5.244   1.609 -0.3507 -0.1288  0.6833
 4903TIP3    H236269   0.592   5.295   1.487  1.4790  0.2472 -0.2849
 4904TIP3   OH236270   5.661   2.715   0.002  0.3226  0.1741  0.1863
 4904TIP3    H136271   5.675   2.808  -0.014 -1.5659  0.7514  1.4503
 4904TIP3    H236272   5.585   2.692  -0.051 -0.9824  0.1230  1.9648
 4905TIP3   OH236273   1.201   0.432   8.371  0.1585 -0.4419  0.0157
 4905TIP3    H136274   1.280   0.380   8.383  1.2127  1.1331  0.2071
 4905TIP3    H236275   1.230   0.509   8.323 -1.0990  0.5858  0.8338
 4906TIP3   OH236276   5.677   3.710   8.423  0.5719 -0.2840 -0.0966
 4906TIP3    H136277   5.677   3.618   8.447 -1.6307 -0.2280  0.3010
 4906TIP3    H236278   5.692   3.710   8.328 -0.7431 -1.1713 -0.3352
 4907TIP3   OH236279   2.540   5.967   1.261 -0.1994 -0.0227  0.1140
 4907TIP3    H136280   2.502   6.054   1.250  0.5247  0.0502 -2.0488
 4907TIP3    H236281   2.470   5.907   1.232  0.2130 -0.0286 -0.8898
 4908TIP3   OH236282   0.244   5.082   8.208 -0.1164  0.0109 -0.4426
 4908TIP3    H136283   0.257   5.070   8.302 -0.6346  1.1258 -0.2037
 4908TIP3    H236284   0.289   5.008   8.167  1.8703  0.5836  0.5912
 4909TIP3   OH236285   3.156   2.343   1.510  0.5511 -0.0037 -0.9632
 4909TIP3    H136286   3.229   2.396   1.541  0.0096  1.0603 -1.4835
 4909TIP3    H236287   3.197   2.275   1.456  1.2669 -0.3150 -0.0445
 4910TIP3   OH236288   0.068   5.467   0.053  0.0766 -0.2514 -0.3282
 4910TIP3    H136289  -0.024   5.476   0.080  0.4087  0.4261  0.6324
 4910TIP3    H236290   0.110   5.547   0.085  1.0747 -0.7175 -0.4475
 4911TIP3   OH236291   0.583   0.903   7.438  0.5663 -0.3877 -0.4822
 4911TIP3    H136292   0.521   0.933   7.372  1.5417  1.2823 -0.6791
 4911TIP3    H236293   0.669   0.915   7.398  1.0853 -2.8214 -0.2789
 4912TIP3   OH236294   6.384   4.228   8.416 -0.0614  0.7914  0.6681
 4912TIP3    H136295   6.473   4.264   8.416 -0.4071  1.7022  1.6236
 4912TIP3    H236296   6.349   4.251   8.330  1.5255 -2.0230 -0.8898
 4913TIP3   OH236297   1.629   0.415   0.711 -0.4465 -0.2129  0.4263
 4913TIP3    H136298   1.717   0.449   0.694 -0.3592  0.0784  1.3997
 4913TIP3    H236299   1.580   0.491   0.742 -1.3907 -0.1041 -1.2345
 4914TIP3   OH236300   1.619   0.508   1.293  0.1313  0.3982 -0.1827
 4914TIP3    H136301   1.681   0.472   1.230 -0.0555  0.8269 -0.6188
 4914TIP3    H236302   1.543   0.449   1.288 -0.3447  1.0751 -1.2036
 4915TIP3   OH236303   6.821   3.828   8.400  0.1352  0.0047  0.3898
 4915TIP3    H136304   6.887   3.874   8.451  0.0050  1.2986 -0.5406
 4915TIP3    H236305   6.740   3.876   8.418 -0.5970 -1.5597  1.5259
 4916TIP3   OH236306   5.905   6.573   2.760 -0.0238 -0.6750  0.1247
 4916TIP3    H136307   5.973   6.528   2.710 -0.6896  0.0575 -1.5528
 4916TIP3    H236308   5.842   6.504   2.782  0.9779 -1.2666  1.2649
 4917TIP3   OH236309   2.972   2.423   1.326  0.4543 -0.5977 -0.1960
 4917TIP3    H136310   3.032   2.436   1.398 -0.8180  2.7907  0.4175
 4917TIP3    H236311   3.023   2.443   1.247  0.7122 -0.0336  0.1172
 4918TIP3   OH236312   6.208   4.459   0.689  0.3550 -0.1707 -0.1356
 4918TIP3    H136313   6.295   4.447   0.652 -0.3532 -1.3840 -1.4959
 4918TIP3    H236314   6.206   4.400   0.765  0.3407 -1.0189 -0.7858
 4919TIP3   OH236315   4.370   3.615   7.692  0.3122  0.1794  0.7742
 4919TIP3    H136316   4.389   3.691   7.747  2.0165  1.3253 -1.2126
 4919TIP3    H236317   4.456   3.583   7.665 -0.4320 -0.8135 -0.5174
 4920TIP3   OH236318   2.660   2.069   7.681 -0.3195  0.5303  0.3481
 4920TIP3    H136319   2.623   2.075   7.770 -5.4833 -1.3827 -1.2945
 4920TIP3    H236320   2.643   2.155   7.643 -2.2720  0.0582  0.0204
 4921TIP3   OH236321   2.210   0.687   1.022 -0.0217 -0.4409 -0.0269
 4921TIP3    H136322   2.169   0.773   1.014 -1.8071 -1.3283 -1.0230
 4921TIP3    H236323   2.192   0.660   1.112 -1.8875 -0.8780 -0.4811
 4922TIP3   OH236324   4.924   2.838   0.996 -0.0014 -0.4262  0.6913
 4922TIP3    H136325   4.932   2.765   1.056 -1.8228 -1.0807  0.1871
 4922TIP3    H236326   4.875   2.804   0.922 -0.7158  1.2400  0.3389
 4923TIP3   OH236327   4.650   6.326   0.527 -0.1715  0.2082 -0.1478
 4923TIP3    H136328   4.715   6.370   0.582  0.7864  0.8513 -1.7355
 4923TIP3    H236329   4.699   6.256   0.484 -0.3324  1.0924 -1.8428
 4924TIP3   OH236330   4.084   3.316   0.905 -0.5536  0.5801 -0.1745
 4924TIP3    H136331   4.070   3.264   0.985  0.9854  0.3240 -0.0450
 4924TIP3    H236332   4.170   3.289   0.874 -0.4606  1.8398 -1.0630
 4925TIP3   OH236333   4.768   6.024   3.111 -0.1572  0.1127 -0.3888
 4925TIP3    H136334   4.734   5.960   3.048  2.0956 -1.6799  0.0558
 4925TIP3    H236335   4.762   5.979   3.195  1.0543  0.6663  0.0107
 4926TIP3   OH236336   2.311   3.856   1.319 -0.7421 -0.3682 -0.0281
 4926TIP3    H136337   2.336   3.881   1.230 -0.2752 -1.1073 -0.1148
 4926TIP3    H236338   2.303   3.760   1.315  0.3122 -0.5181  0.9659
 4927TIP3   OH236339   5.592   3.703   1.536  0.0918  0.3266 -0.0774
 4927TIP3    H136340   5.506   3.731   1.567  0.3952 -0.2745  1.3618
 4927TIP3    H236341   5.653   3.765   1.576  0.5233 -0.7125  0.9037
 4928TIP3   OH236342   0.146   0.431   2.295 -0.1867 -0.4388  0.9103
 4928TIP3    H136343   0.139   0.335   2.297 -2.4127 -0.3216  1.2011
 4928TIP3    H236344   0.120   0.459   2.382 -0.8088  0.4860  0.4457
 4929TIP3   OH236345   1.952   2.308   1.541  0.2841 -0.1267  0.3640
 4929TIP3    H136346   1.941   2.311   1.636 -2.3213  1.8380  0.1325
 4929TIP3    H236347   1.900   2.233   1.513 -1.3744  0.9629  0.3559
 4930TIP3   OH236348   2.500   5.699   1.938 -0.0488 -0.1569  0.0183
 4930TIP3    H136349   2.580   5.717   1.987 -0.3210 -3.2722  1.8807
 4930TIP3    H236350   2.430   5.739   1.990 -0.0478 -0.9363  0.6419
 4931TIP3   OH236351   3.436   2.101   2.245  0.3521 -0.4883 -0.3374
 4931TIP3    H136352   3.501   2.090   2.314 -1.1827 -1.1935  1.0608
 4931TIP3    H236353   3.475   2.165   2.185  4.1022 -3.7677 -1.8132
 4932TIP3   OH236354   0.632   5.855   1.907  0.8735  0.7659  0.6493
 4932TIP3    H136355   0.542   5.837   1.881  1.4070 -2.7839  0.8419
 4932TIP3    H236356   0.661   5.925   1.848 -0.9281 -0.4362 -1.8018
 4933TIP3   OH236357   0.201   3.296   0.309 -0.1874 -0.0413 -0.4329
 4933TIP3    H136358   0.211   3.334   0.221  0.3459 -0.0228 -0.3674
 4933TIP3    H236359   0.247   3.213   0.305  2.0684  1.0713  0.5330
 4934TIP3   OH236360   5.759   6.373   2.235 -0.7661  0.4016  0.2458
 4934TIP3    H136361   5.698   6.438   2.267 -0.0782  1.0656  0.2332
 4934TIP3    H236362   5.725   6.290   2.268 -2.6946  0.5143 -1.2937
 4935TIP3   OH236363   5.891   0.039   0.049 -0.1535 -0.1870  0.0652
 4935TIP3    H136364   5.910  -0.037   0.105 -0.4386  0.8441  1.6159
 4935TIP3    H236365   5.878   0.111   0.110 -0.1584  1.0712 -1.3707
 4936TIP3   OH236366   1.131   4.936   0.755 -0.3137  0.1621 -0.0008
 4936TIP3    H136367   1.114   4.848   0.723 -1.4240 -0.5323  2.3448
 4936TIP3    H236368   1.225   4.949   0.740 -0.1482 -1.3598 -0.4536
 4937TIP3   OH236369   2.825   0.845   0.229  0.0076  0.4952 -0.1253
 4937TIP3    H136370   2.821   0.939   0.210  1.0378  0.7961  0.9989
 4937TIP3    H236371   2.763   0.833   0.301 -1.2113  0.0236 -1.2218
 4938TIP3   OH236372   2.407   1.108   8.690 -0.1038  0.2729  0.4246
 4938TIP3    H136373   2.336   1.118   8.753  0.5458 -0.7425  1.3565
 4938TIP3    H236374   2.449   1.194   8.687 -0.2178  0.3728  1.3018
 4939TIP3   OH236375   4.851   4.526   0.010 -0.0316 -0.1157  0.6597
 4939TIP3    H136376   4.859   4.452   0.070 -0.3561 -0.3127  0.4634
 4939TIP3    H236377   4.792   4.587   0.055  1.6114  0.8209  1.5996
 4940TIP3   OH236378   1.004   0.746   1.183  0.1093 -0.4686  0.5100
 4940TIP3    H136379   1.043   0.724   1.268  2.5668  1.9584  0.1752
 4940TIP3    H236380   0.966   0.833   1.196  0.2710 -0.1864 -0.7622
 4941TIP3   OH236381   5.530   3.176   2.080  0.5749 -0.0146  0.0118
 4941TIP3    H136382   5.573   3.244   2.029 -0.5735 -0.3089 -1.3897
 4941TIP3    H236383   5.457   3.220   2.123  0.9199  0.0087  0.5872
 4942TIP3   OH236384   6.580   6.175   0.232  0.5319 -0.3104 -0.3269
 4942TIP3    H136385   6.665   6.220   0.237  0.6192 -0.4559 -0.5068
 4942TIP3    H236386   6.568   6.138   0.320 -0.2476  1.3356  0.2958
 4943TIP3   OH236387   1.281   2.439   0.367  0.0859 -0.0860  0.7561
 4943TIP3    H136388   1.374   2.444   0.391  0.0159 -3.0060  2.1710
 4943TIP3    H236389   1.276   2.366   0.305 -1.3417 -0.5111  1.3207
 4944TIP3   OH236390   5.905   3.916   2.642 -0.0900  0.2366  0.4303
 4944TIP3    H136391   5.818   3.901   2.680  0.4223 -1.7802  0.9283
 4944TIP3    H236392   5.933   3.830   2.610  0.3259  1.4651 -2.9070
 4945TIP3   OH236393   2.722   5.466   7.612 -0.2754  0.0989 -0.2756
 4945TIP3    H136394   2.635   5.505   7.612 -0.2702  0.1496 -1.4995
 4945TIP3    H236395   2.758   5.487   7.526  0.5805 -0.7407 -0.1437
 4946TIP3   OH236396   2.717   5.593   1.567 -0.7288 -0.3167  0.0627
 4946TIP3    H136397   2.685   5.615   1.480 -3.2490  2.5377  1.5409
 4946TIP3    H236398   2.757   5.674   1.600  0.5493 -1.4358  1.4525
 4947TIP3   OH236399   0.101   3.697   0.530 -0.2060  1.0305  0.2758
 4947TIP3    H136400   0.117   3.747   0.609 -1.0509  2.1222 -0.2141
 4947TIP3    H236401   0.133   3.752   0.459  0.9749 -0.1377 -0.1320
 4948TIP3   OH236402   6.427   4.273   7.584  0.1711  0.1090 -0.9355
 4948TIP3    H136403   6.486   4.323   7.527  0.7093 -0.7327 -1.1427
 4948TIP3    H236404   6.480   4.199   7.614 -1.3108 -1.7959 -2.6986
 4949TIP3   OH236405   2.042   1.402   1.385 -0.0239  0.6478  0.4211
 4949TIP3    H136406   1.980   1.330   1.370 -1.3447  1.7046  0.5662
 4949TIP3    H236407   2.070   1.391   1.476  0.8664 -0.4561  0.0390
 4950TIP3   OH236408   1.207   2.627   1.912  0.4397 -0.2886  0.4939
 4950TIP3    H136409   1.295   2.595   1.932  0.7149 -0.9060 -1.4716
 4950TIP3    H236410   1.187   2.590   1.826 -2.3751 -1.4150  1.5052
 4951TIP3   OH236411   6.555   2.020   6.942 -0.2398 -0.0070  0.2271
 4951TIP3    H136412   6.649   2.006   6.944  0.1405  2.1177 -0.4656
 4951TIP3    H236413   6.518   1.932   6.932  1.7244 -0.7351 -1.2889
 4952TIP3   OH236414   5.423   2.356   8.023  0.2566  0.1580 -0.4712
 4952TIP3    H136415   5.514   2.358   7.993  1.0933  1.0762  1.8592
 4952TIP3    H236416   5.429   2.329   8.115 -1.7668  0.9479 -0.0550
 4953TIP3   OH236417   3.685   3.359   8.688  0.0649 -0.3953  0.1751
 4953TIP3    H136418   3.680   3.426   8.620 -0.9701 -0.6793 -0.0453
 4953TIP3    H236419   3.598   3.357   8.727  0.4003 -0.8497  0.9220
 4954TIP3   OH236420   4.471   5.203   2.426  0.2161 -0.9070  0.4383
 4954TIP3    H136421   4.462   5.201   2.521  0.4521 -0.1033  0.4918
 4954TIP3    H236422   4.566   5.209   2.412  0.1568 -0.6040  0.1665
 4955TIP3   OH236423   3.374   2.193   7.477 -0.2985  0.2153  0.0992
 4955TIP3    H136424   3.439   2.243   7.428 -0.0064  0.8662  1.1414
 4955TIP3    H236425   3.317   2.258   7.517 -0.6930 -0.3150  0.4209
 4956TIP3   OH236426   2.770   1.456   8.210  0.1325  0.3307 -0.1794
 4956TIP3    H136427   2.829   1.453   8.285 -0.8866 -0.4359  0.6173
 4956TIP3    H236428   2.716   1.378   8.219  0.3830 -0.0996 -2.0604
 4957TIP3   OH236429   1.799   0.152   8.700 -0.1842 -0.0804 -0.2026
 4957TIP3    H136430   1.848   0.198   8.767  1.9665 -1.0322 -1.0170
 4957TIP3    H236431   1.774   0.220   8.637 -0.9251  0.5857  0.7839
 4958TIP3   OH236432   1.437   0.761   0.956 -0.0623 -0.6311 -0.1492
 4958TIP3    H136433   1.491   0.816   1.012  1.0419  0.9898 -2.6792
 4958TIP3    H236434   1.388   0.706   1.018  1.8629  0.2523  2.3472
 4959TIP3   OH236435   0.496   2.005   0.104 -0.0325  0.4042 -0.4667
 4959TIP3    H136436   0.482   1.923   0.056 -0.5033  0.2280 -0.0415
 4959TIP3    H236437   0.421   2.010   0.164  0.1035  1.0432 -0.3475
 4960TIP3   OH236438   1.150   3.746   0.573 -0.1238  0.0732  0.0266
 4960TIP3    H136439   1.114   3.675   0.520  3.6301 -2.8675  0.8811
 4960TIP3    H236440   1.241   3.752   0.545  1.1197  0.7708  3.6282
 4961TIP3   OH236441   3.124   1.284   2.435 -0.0273 -0.1502 -0.3939
 4961TIP3    H136442   3.178   1.324   2.503  0.4570 -0.9319 -0.3072
 4961TIP3    H236443   3.057   1.349   2.416 -0.5215 -0.1411  1.2507
 4962TIP3   OH236444   6.609   6.364   2.097  0.0134 -0.0543  0.0595
 4962TIP3    H136445   6.609   6.452   2.136 -1.2134 -0.0010 -0.0295
 4962TIP3    H236446   6.543   6.316   2.147 -0.5182 -0.4313 -0.9824
 4963TIP3   OH236447   2.128   6.620   0.256 -0.5684  0.0994 -0.2146
 4963TIP3    H136448   2.053   6.619   0.196 -2.3324  1.7270  1.7882
 4963TIP3    H236449   2.142   6.713   0.274  1.1980 -0.2447  0.4003
 4964TIP3   OH236450   5.463   4.550   2.260 -0.4405 -0.3873  0.6220
 4964TIP3    H136451   5.498   4.463   2.243 -0.4106 -0.4631  1.0468
 4964TIP3    H236452   5.539   4.599   2.294  0.2583  0.6135 -2.1337
 4965TIP3   OH236453   1.194   0.220   1.802 -0.3685 -0.3648  0.2494
 4965TIP3    H136454   1.223   0.157   1.868  0.1549  1.9587  2.4065
 4965TIP3    H236455   1.099   0.220   1.809 -0.6564 -3.0547 -2.0078
 4966TIP3   OH236456   0.073   2.404   1.553  0.5384  0.3204 -0.6971
 4966TIP3    H136457   0.153   2.399   1.501 -0.0559 -1.1876 -1.5261
 4966TIP3    H236458   0.044   2.313   1.563 -1.1910  0.8327 -0.6105
 4967TIP3   OH236459   1.242   5.623   7.585  0.0484  0.2012  0.3616
 4967TIP3    H136460   1.336   5.634   7.603  0.1625  1.8286 -1.0187
 4967TIP3    H236461   1.232   5.530   7.566  1.7746  0.3274 -1.4280
 4968TIP3   OH236462   0.514   0.605   2.545 -0.0241 -0.1136 -0.4456
 4968TIP3    H136463   0.534   0.698   2.538  0.2818 -0.2531 -1.5422
 4968TIP3    H236464   0.545   0.567   2.463 -2.1753 -0.8249 -0.9957
 4969TIP3   OH236465   2.283   3.918   0.879 -0.0472  0.0180 -0.4685
 4969TIP3    H136466   2.224   3.921   0.804 -0.3057  0.2818 -0.2591
 4969TIP3    H236467   2.310   4.010   0.892 -0.5544  0.0797  0.1896
 4970TIP3   OH236468   3.833   1.355   8.482 -0.0368  0.6396 -0.0465
 4970TIP3    H136469   3.759   1.320   8.433  2.1370 -1.3834 -2.1440
 4970TIP3    H236470   3.851   1.289   8.549 -0.3721  1.3313  0.7362
 4971TIP3   OH236471   6.098   5.697   7.862  0.3404  0.5000  0.1590
 4971TIP3    H136472   6.127   5.658   7.779  1.8971  1.4743  0.2069
 4971TIP3    H236473   6.091   5.623   7.922  0.2379 -0.0829 -0.5462
 4972TIP3   OH236474   4.331   6.512   1.765 -0.1016 -0.4727 -0.3602
 4972TIP3    H136475   4.288   6.566   1.699 -0.2671  1.2033  1.0438
 4972TIP3    H236476   4.279   6.431   1.768 -2.1788  0.8038  0.0766
 4973TIP3   OH236477   5.503   3.091   0.149  0.0816  0.1740  0.5719
 4973TIP3    H136478   5.527   3.007   0.190 -1.6050 -1.3082 -1.2887
 4973TIP3    H236479   5.530   3.157   0.213  0.6073 -1.8139  2.5374
 4974TIP3   OH236480   3.022   4.153   8.091 -0.1771 -0.2656  0.2803
 4974TIP3    H136481   3.103   4.172   8.044 -0.0740 -0.6818  0.2805
 4974TIP3    H236482   3.043   4.170   8.183 -1.1652  3.1929 -0.0209
 4975TIP3   OH236483   6.181   2.914   0.415 -0.2223  0.5284 -0.4772
 4975TIP3    H136484   6.202   2.857   0.342  1.7406 -0.7012  0.9453
 4975TIP3    H236485   6.263   2.957   0.437 -0.5869  0.3677  1.3853
 4976TIP3   OH236486   0.023   3.971   1.499 -0.2660 -0.4581  0.9170
 4976TIP3    H136487   0.058   4.037   1.439  2.0758 -2.7030 -0.3602
 4976TIP3    H236488  -0.072   3.980   1.490 -0.0200  1.0974 -1.0572
 4977TIP3   OH236489   2.279   6.742   1.632  0.1336  0.0962  0.1659
 4977TIP3    H136490   2.364   6.699   1.617  1.2164  2.1184  0.2243
 4977TIP3    H236491   2.297   6.835   1.621 -2.2852  0.5319 -0.6669
 4978TIP3   OH236492   0.766   2.885   8.298  0.3703  0.0015  0.0802
 4978TIP3    H136493   0.747   2.965   8.250  0.6159  0.4390  0.6976
 4978TIP3    H236494   0.774   2.913   8.390 -0.5810 -0.8866  0.4550
 4979TIP3   OH236495   2.750   2.807   0.264 -0.3153  0.3496  0.3943
 4979TIP3    H136496   2.786   2.721   0.241  0.7009  0.4715  1.4560
 4979TIP3    H236497   2.688   2.826   0.193  0.3433 -0.7078 -0.5098
 4980TIP3   OH236498   2.623   4.317   8.482 -0.5941 -0.3678 -0.1083
 4980TIP3    H136499   2.698   4.348   8.534 -1.5454  2.0002 -0.0178
 4980TIP3    H236500   2.662   4.259   8.416  0.8036 -2.4971  2.3734
 4981TIP3   OH236501   4.912   2.518   7.514 -0.1507  0.1341  0.3187
 4981TIP3    H136502   4.983   2.581   7.519 -0.9394  1.4160 -2.5911
 4981TIP3    H236503   4.928   2.457   7.587  1.9008  2.3511  1.8483
 4982TIP3   OH236504   0.310   5.333   7.788 -0.3855  0.3712  0.4641
 4982TIP3    H136505   0.375   5.304   7.724  0.9166  0.3609  1.7225
 4982TIP3    H236506   0.237   5.273   7.777  1.3774 -2.1742  1.5923
 4983TIP3   OH236507   6.507   2.822   0.056 -0.2929 -0.2227 -0.4296
 4983TIP3    H136508   6.454   2.785   0.127  1.4005 -0.9903  0.5092
 4983TIP3    H236509   6.544   2.902   0.093  2.1995 -1.6220  0.4007
 4984TIP3   OH236510   1.841   3.576   1.864 -0.0066  0.7860 -0.3908
 4984TIP3    H136511   1.890   3.655   1.885  0.0909  1.3517 -2.4703
 4984TIP3    H236512   1.789   3.600   1.787  1.1759 -1.5601 -2.0676
 4985TIP3   OH236513   1.423   2.815   1.197  0.4043  0.6807  0.8170
 4985TIP3    H136514   1.404   2.725   1.221 -1.7581  0.3227 -1.7621
 4985TIP3    H236515   1.489   2.808   1.128 -1.9385  0.7212 -1.5696
 4986TIP3   OH236516   6.501   4.411   2.037 -0.3033 -0.0527  0.0047
 4986TIP3    H136517   6.464   4.491   2.076 -1.6761 -0.2764 -0.7951
 4986TIP3    H236518   6.595   4.417   2.057 -0.7493  0.4558  2.2431
 4987TIP3   OH236519   1.306   0.204   0.970  0.4291  0.0548 -0.3443
 4987TIP3    H136520   1.262   0.288   0.983  0.6169 -0.0746  1.3151
 4987TIP3    H236521   1.399   0.226   0.966  0.4205  0.0141 -0.8754
 4988TIP3   OH236522   5.610   1.128   3.186 -0.0774 -0.5093 -0.3516
 4988TIP3    H136523   5.643   1.216   3.171 -0.4215 -0.1714  0.7845
 4988TIP3    H236524   5.689   1.074   3.195  0.1961  0.1209  1.3798
 4989TIP3   OH236525   0.121   3.595   0.826 -0.7860 -0.6310 -0.2773
 4989TIP3    H136526   0.169   3.550   0.758 -0.7535 -1.5135  0.3182
 4989TIP3    H236527   0.159   3.564   0.908 -3.1499 -2.3504  0.2726
 4990TIP3   OH236528   2.486   1.592   8.030  0.1875  0.2863 -0.0568
 4990TIP3    H136529   2.450   1.649   8.098 -0.1243 -0.8678  0.7812
 4990TIP3    H236530   2.578   1.583   8.053  0.4280  1.0805 -0.6587
 4991TIP3   OH236531   5.922   0.994   1.255  0.0194 -0.1899  0.3494
 4991TIP3    H136532   5.877   0.986   1.339 -0.6015 -1.1412 -0.0579
 4991TIP3    H236533   5.905   1.084   1.227 -0.0562  0.0279  1.0696
 4992TIP3   OH236534   5.427   6.043   0.767 -0.2054 -0.6383  0.4772
 4992TIP3    H136535   5.456   5.957   0.736  1.5376  0.1141 -0.0959
 4992TIP3    H236536   5.339   6.027   0.801 -1.1844 -2.0895 -2.3451
 4993TIP3   OH236537   4.828   4.378   2.996  0.0797 -0.1808  0.0217
 4993TIP3    H136538   4.857   4.361   3.086 -1.6247  3.3147  1.4162
 4993TIP3    H236539   4.739   4.341   2.993  0.6980 -1.7035 -0.8446
 4994TIP3   OH236540   2.330   6.678   7.503  0.2814 -0.1172  0.0545
 4994TIP3    H136541   2.418   6.661   7.470  0.2317  0.2234 -0.2540
 4994TIP3    H236542   2.344   6.711   7.592  0.3857 -1.6931  0.6611
 4995TIP3   OH236543   6.323   2.109   0.433 -0.2729 -0.4414 -1.0942
 4995TIP3    H136544   6.247   2.108   0.376  0.8016  2.0818 -2.7983
 4995TIP3    H236545   6.397   2.092   0.374  0.7134  0.2997 -0.1101
 4996TIP3   OH236546   1.148   1.672   8.204 -0.4324  0.0785  0.0083
 4996TIP3    H136547   1.155   1.606   8.274  0.6620  1.3240  1.1364
 4996TIP3    H236548   1.224   1.729   8.218 -0.9565  1.1531 -1.3789
 4997TIP3   OH236549   4.782   2.561   2.860  0.3506  0.2973  0.3286
 4997TIP3    H136550   4.877   2.551   2.853  0.0968 -2.0070 -1.1297
 4997TIP3    H236551   4.752   2.561   2.769 -1.0730  0.7223  0.7879
 4998TIP3   OH236552   4.721   3.500   0.802  0.3955  0.3620 -0.3067
 4998TIP3    H136553   4.726   3.441   0.877  0.6093  1.1442  0.3017
 4998TIP3    H236554   4.753   3.584   0.834 -1.6774  1.3399 -0.6189
 4999TIP3   OH236555   6.327   3.513   0.544  0.2712 -0.0597 -0.3591
 4999TIP3    H136556   6.238   3.481   0.527  1.1481 -1.7350 -2.2212
 4999TIP3    H236557   6.351   3.473   0.627 -0.3801 -0.3914 -0.3218
 5000TIP3   OH236558   5.145   5.431   1.357  0.2046 -0.3528  0.0001
 5000TIP3    H136559   5.134   5.426   1.262  0.4422  0.3805 -0.0744
 5000TIP3    H236560   5.210   5.365   1.378  1.2317  0.4646 -0.5438
 5001TIP3   OH236561   1.186   1.405   0.449 -0.0466 -0.7558 -0.6905
 5001TIP3    H136562   1.247   1.466   0.409  0.8970 -1.5820 -0.5580
 5001TIP3    H236563   1.108   1.409   0.394 -1.1086  2.5367  0.8158
 5002TIP3   OH236564   6.546   0.666   7.615 -0.4343  0.2986  0.3369
 5002TIP3    H136565   6.463   0.684   7.571 -0.6464  0.3098  0.7318
 5002TIP3    H236566   6.543   0.572   7.635  1.3735 -0.6706 -3.1748
 5003TIP3   OH236567   3.832   0.375   2.955 -0.4907  0.3825 -0.4289
 5003TIP3    H136568   3.864   0.317   3.024 -0.3071  1.3334  0.2978
 5003TIP3    H236569   3.803   0.315   2.886  0.7570 -0.5503 -0.1783
 5004TIP3   OH236570   3.886   4.663   0.258 -0.9096  0.4655  0.2413
 5004TIP3    H136571   3.857   4.754   0.253 -1.9121  0.1216 -1.1582
 5004TIP3    H236572   3.915   4.643   0.169 -2.7245 -1.1620 -0.0716
 5005TIP3   OH236573   5.424   5.061   7.956  0.3928  0.3920 -0.6987
 5005TIP3    H136574   5.401   5.141   8.003  0.7655  0.3264 -0.3982
 5005TIP3    H236575   5.502   5.084   7.906  0.8423  0.0651 -0.1693
 5006TIP3   OH236576   2.293   5.064   0.625  0.7639 -0.4939 -0.2155
 5006TIP3    H136577   2.231   5.097   0.690  0.7212 -0.2572 -0.3765
 5006TIP3    H236578   2.248   5.074   0.541  0.6938 -1.0969 -0.2517
 5007TIP3   OH236579   4.101   4.739   2.003 -0.2837  0.7174  0.0929
 5007TIP3    H136580   4.032   4.794   1.969 -0.9987  0.2071  0.6874
 5007TIP3    H236581   4.061   4.693   2.077  0.0987 -1.0481 -0.7359
 5008TIP3   OH236582   1.344   4.074   1.990 -0.0293 -0.3474 -0.2854
 5008TIP3    H136583   1.328   4.096   2.081 -4.0974  1.6168 -1.2664
 5008TIP3    H236584   1.424   4.021   1.992  1.4099  1.5441  4.0711
 5009TIP3   OH236585   3.007   2.140   8.665 -0.6662  0.0860  0.0158
 5009TIP3    H136586   3.045   2.209   8.610 -1.0468  0.6435  0.4333
 5009TIP3    H236587   3.067   2.067   8.657  0.2057  0.7657  0.2354
 5010TIP3   OH236588   0.419   2.191   2.467 -0.0234  0.6348 -0.3233
 5010TIP3    H136589   0.393   2.118   2.523  1.4410 -0.6537 -1.2251
 5010TIP3    H236590   0.484   2.239   2.519 -1.2013  1.5111  0.3850
 5011TIP3   OH236591   4.962   0.599   2.224  0.6878 -0.1465 -0.3640
 5011TIP3    H136592   5.009   0.631   2.301 -0.7361  0.2306  0.3979
 5011TIP3    H236593   4.903   0.531   2.259 -0.6303  0.6653 -0.9486
 5012TIP3   OH236594   5.826   4.184   0.156  0.0512 -0.3976  0.0938
 5012TIP3    H136595   5.906   4.142   0.189  0.5154 -0.4053 -1.0061
 5012TIP3    H236596   5.769   4.111   0.132 -0.4181 -0.3944  1.1469
 5013TIP3   OH236597   5.766   3.522   0.581 -0.2827 -0.5438 -0.8418
 5013TIP3    H136598   5.844   3.534   0.636  1.0567 -2.0894 -2.2721
 5013TIP3    H236599   5.758   3.605   0.534 -1.0319  0.5379  1.1112
 5014TIP3   OH236600   2.005   6.310   1.370 -0.3218  0.0333 -0.1733
 5014TIP3    H136601   1.974   6.333   1.458  0.2949 -1.1660  0.3765
 5014TIP3    H236602   1.927   6.311   1.316 -0.8249  0.0861  0.5386
 5015TIP3   OH236603   6.314   4.667   8.381  0.2616 -0.8443  0.0107
 5015TIP3    H136604   6.404   4.667   8.350  0.7755  1.0374  1.3719
 5015TIP3    H236605   6.315   4.722   8.459 -2.1649 -0.3584 -0.2214
 5016TIP3   OH236606   6.694   2.816   0.410 -0.3339 -0.1937  0.2148
 5016TIP3    H136607   6.753   2.741   0.408  0.5985  0.1770  4.6087
 5016TIP3    H236608   6.747   2.889   0.379  1.0913 -0.2113  2.3826
 5017TIP3   OH236609   2.592   3.759   7.425  0.2238 -0.3190 -0.2101
 5017TIP3    H136610   2.583   3.787   7.334 -0.1560 -0.1335 -0.1176
 5017TIP3    H236611   2.573   3.665   7.423  1.1149 -0.5016 -0.4596
 5018TIP3   OH236612   3.862   5.154   7.850 -0.1395 -0.0753  0.3563
 5018TIP3    H136613   3.942   5.104   7.867  0.9942  1.4194 -0.2677
 5018TIP3    H236614   3.875   5.190   7.762 -1.3876  0.4193  0.3562
 5019TIP3   OH236615   1.735   2.890   0.717  0.0439 -0.0972  0.6213
 5019TIP3    H136616   1.702   2.809   0.677  1.0398  0.4142 -1.3292
 5019TIP3    H236617   1.761   2.864   0.805  0.4802 -1.9455 -0.0174
 5020TIP3   OH236618   1.570   3.914   2.019 -0.3025  0.1551  0.0981
 5020TIP3    H136619   1.608   3.868   2.093 -1.4155 -2.6513 -0.9259
 5020TIP3    H236620   1.627   3.893   1.945 -1.6902 -1.0720 -0.7064
 5021TIP3   OH236621   1.250   0.053   2.270  0.1517 -0.3397  0.1038
 5021TIP3    H136622   1.209   0.134   2.299  0.9651 -0.4738  1.7772
 5021TIP3    H236623   1.319   0.036   2.335  0.5488 -1.9252 -0.6675
 5022TIP3   OH236624   0.899   0.408   1.868 -0.0143 -0.2513 -0.2233
 5022TIP3    H136625   0.913   0.378   1.778  1.1740 -1.3602  0.3049
 5022TIP3    H236626   0.987   0.418   1.904 -0.4805  0.2115  0.8154
 5023TIP3   OH236627   1.888   5.970   0.953 -0.9253 -0.0682  0.2580
 5023TIP3    H136628   1.841   6.049   0.978 -2.8444 -0.1881 -2.4659
 5023TIP3    H236629   1.947   5.997   0.883  1.0522 -0.4700  1.6997
 5024TIP3   OH236630   4.130   3.275   2.223  0.4695  0.2906  0.0826
 5024TIP3    H136631   4.195   3.212   2.255  1.0865  1.6505  1.6645
 5024TIP3    H236632   4.174   3.321   2.151  0.0498 -0.9710 -1.0143
 5025TIP3   OH236633   5.251   0.756   0.057  0.3642  0.2465 -0.4935
 5025TIP3    H136634   5.249   0.846   0.091  1.6460 -0.3798  1.4099
 5025TIP3    H236635   5.303   0.708   0.121  1.0594 -1.5376 -2.3218
 5026TIP3   OH236636   0.892   2.906   7.967 -0.3824 -0.1569 -0.5168
 5026TIP3    H136637   0.817   2.942   7.919 -0.8820 -0.3078  0.1303
 5026TIP3    H236638   0.859   2.892   8.056  0.5794  0.2870 -0.0800
 5027TIP3   OH236639   3.443   5.105   2.868 -0.0844  0.2383  0.4311
 5027TIP3    H136640   3.445   5.191   2.826 -1.3997  0.4267  0.7171
 5027TIP3    H236641   3.519   5.059   2.832  0.3038  1.3123 -0.1632
 5028TIP3   OH236642   5.497   3.233   8.079  0.3483 -0.1117 -0.0299
 5028TIP3    H136643   5.502   3.323   8.112  2.0591 -0.4105  0.5998
 5028TIP3    H236644   5.462   3.183   8.152  0.7974 -0.1899  0.1361
 5029TIP3   OH236645   2.010   2.891   2.086  0.0421 -0.0351  0.5663
 5029TIP3    H136646   1.965   2.883   2.170  1.4024 -1.1410  1.2476
 5029TIP3    H236647   2.100   2.914   2.109  0.4084 -0.2346 -0.5901
 5030TIP3   OH236648   2.264   0.406   2.849  0.6960  0.3048 -0.1039
 5030TIP3    H136649   2.265   0.407   2.945 -0.4577  1.0187 -0.0764
 5030TIP3    H236650   2.336   0.348   2.825  1.2772  0.4522  1.1857
 5031TIP3   OH236651   2.267   6.497   1.877 -0.0996  0.4290 -0.0321
 5031TIP3    H136652   2.359   6.522   1.870 -0.3101  1.5383  0.9142
 5031TIP3    H236653   2.243   6.471   1.789  0.7127  1.6116 -0.6336
 5032TIP3   OH236654   0.994   3.001   1.669  0.2311 -0.2026 -0.1032
 5032TIP3    H136655   0.940   2.964   1.599  1.5858 -0.1326 -1.2447
 5032TIP3    H236656   1.047   2.927   1.700 -0.2989 -0.2113  0.8080
 5033TIP3   OH236657   4.504   2.514   1.366  0.3109 -0.2185 -0.0065
 5033TIP3    H136658   4.467   2.579   1.307  1.2055 -1.3613 -1.8980
 5033TIP3    H236659   4.434   2.450   1.380  0.0247  0.1733  0.3783
 5034TIP3   OH236660   1.963   5.707   8.749 -0.1055  0.0778  0.3709
 5034TIP3    H136661   1.901   5.641   8.779  1.1356 -0.5047  1.8065
 5034TIP3    H236662   1.989   5.678   8.661 -0.4036 -0.7420  0.5462
 5035TIP3   OH236663   6.482   5.663   8.072 -0.3579 -0.9734  0.2411
 5035TIP3    H136664   6.492   5.647   8.166  2.0896 -0.1241  0.1994
 5035TIP3    H236665   6.463   5.756   8.065  2.7393 -0.2756 -0.1534
 5036TIP3   OH236666   6.098   4.126   2.567  0.6843  0.0304  0.0939
 5036TIP3    H136667   6.011   4.100   2.600  0.5862 -0.5929 -0.6436
 5036TIP3    H236668   6.158   4.100   2.637  0.0805  3.0269  1.9551
 5037TIP3   OH236669   4.457   4.493   7.906 -0.4345 -0.2899  0.4304
 5037TIP3    H136670   4.494   4.512   7.820 -1.9458 -0.6935 -0.3247
 5037TIP3    H236671   4.468   4.574   7.955  1.8719 -0.5172  0.4380
 5038TIP3   OH236672   2.063   3.070   7.245  0.2744 -0.4401 -0.1103
 5038TIP3    H136673   2.074   3.070   7.150 -1.5096  0.0001 -0.3505
 5038TIP3    H236674   2.000   3.140   7.262 -0.2354 -1.1984  1.2883
 5039TIP3   OH236675   1.236   3.399   2.266 -0.0154  0.3976  0.1838
 5039TIP3    H136676   1.318   3.383   2.219 -0.6838 -0.1646 -0.8214
 5039TIP3    H236677   1.235   3.334   2.335 -1.2153 -2.0108 -1.9408
 5040TIP3   OH236678   4.187   2.950   7.903 -0.6618 -0.3594  0.0497
 5040TIP3    H136679   4.188   2.919   7.993 -1.2387  0.2939  0.2871
 5040TIP3    H236680   4.095   2.968   7.884 -0.4840  0.0277 -0.4840
 5041TIP3   OH236681   3.570   4.490   1.037  0.2243 -0.7186  0.0040
 5041TIP3    H136682   3.507   4.426   1.068  2.2161 -2.7960  0.0956
 5041TIP3    H236683   3.534   4.574   1.062 -1.5776 -1.9079  1.7095
 5042TIP3   OH236684   2.029   0.384   8.015 -0.4889 -0.3248  0.4685
 5042TIP3    H136685   2.047   0.310   8.073  2.2575  0.2006  0.4026
 5042TIP3    H236686   2.073   0.361   7.933 -0.5232  0.8938  0.0915
 5043TIP3   OH236687   6.457   5.394   2.935 -0.7508 -0.0407  0.4793
 5043TIP3    H136688   6.505   5.441   2.867  1.3498 -2.1457  0.3655
 5043TIP3    H236689   6.504   5.417   3.016 -1.8348  0.6729  0.9265
 5044TIP3   OH236690   5.725   3.894   0.906  0.3447  0.1188 -0.1779
 5044TIP3    H136691   5.752   3.838   0.979  0.4100 -0.3816 -0.5867
 5044TIP3    H236692   5.685   3.970   0.948 -0.1414 -0.4326  0.3641
 5045TIP3   OH236693   2.483   6.027   2.565 -0.3646  0.3730 -0.5530
 5045TIP3    H136694   2.481   6.104   2.509 -1.5950 -0.0313 -1.0992
 5045TIP3    H236695   2.394   6.019   2.600  0.1143  0.0407  0.6794
 5046TIP3   OH236696   0.913   3.932   0.582  0.2435  0.2787 -0.5502
 5046TIP3    H136697   0.825   3.902   0.606  0.7942  0.0049  1.2342
 5046TIP3    H236698   0.959   3.852   0.556 -0.2598  0.5343 -2.3431
 5047TIP3   OH236699   0.715   6.478   1.856 -0.2340 -0.0779 -0.4309
 5047TIP3    H136700   0.651   6.515   1.795 -0.2204 -0.3252 -0.5964
 5047TIP3    H236701   0.761   6.553   1.892 -1.0969  0.1547  0.2152
 5048TIP3   OH236702   1.356   5.098   2.457 -0.2209 -0.2053  0.4731
 5048TIP3    H136703   1.387   5.049   2.533 -0.5205  0.0012  0.7298
 5048TIP3    H236704   1.261   5.081   2.454 -0.5191  1.1713  1.1735
 5049TIP3   OH236705   4.907   2.615   1.157 -0.5801  0.4327 -0.2766
 5049TIP3    H136706   4.901   2.550   1.227  0.6442  0.8073  0.1918
 5049TIP3    H236707   4.816   2.630   1.131 -0.9095 -1.4761 -0.4189
 5050TIP3   OH236708   6.185   4.870   6.991 -0.4958  0.7007  0.0133
 5050TIP3    H136709   6.233   4.949   6.964 -1.7843  2.2520  1.9245
 5050TIP3    H236710   6.252   4.804   7.004  0.7232  1.7121 -0.8767
 5051TIP3   OH236711   5.736   2.858   7.408 -0.2776 -0.4319  0.1958
 5051TIP3    H136712   5.677   2.831   7.337 -0.8914 -2.4199  1.3846
 5051TIP3    H236713   5.768   2.776   7.445  1.2028  0.5823  1.2865
 5052TIP3   OH236714   3.645   0.102   2.098  0.3189  0.0114  0.1773
 5052TIP3    H136715   3.676   0.172   2.041  1.5357 -0.1885  0.5477
 5052TIP3    H236716   3.550   0.105   2.092  0.2193  2.8458  1.5296
 5053TIP3   OH236717   4.247   4.805   2.415 -0.0227 -0.0663  0.7116
 5053TIP3    H136718   4.213   4.893   2.430 -0.2278  0.6681 -3.0533
 5053TIP3    H236719   4.184   4.747   2.456 -0.9919  1.4858  1.5046
 5054TIP3   OH236720   4.518   4.970   0.277 -0.0450 -0.3416 -0.0168
 5054TIP3    H136721   4.512   5.019   0.359 -0.6754 -1.2039  0.4655
 5054TIP3    H236722   4.611   4.973   0.254 -0.1696  1.7271 -0.4319
 5055TIP3   OH236723   5.836   2.435   8.600 -0.2696 -0.2145  0.2731
 5055TIP3    H136724   5.856   2.449   8.692 -1.5156 -1.3244  0.7455
 5055TIP3    H236725   5.849   2.342   8.586 -0.7724 -0.1794 -0.4863
 5056TIP3   OH236726   0.917   5.841   2.486 -0.4351  0.7499 -0.0004
 5056TIP3    H136727   0.950   5.904   2.422 -0.1887 -1.6958 -2.4774
 5056TIP3    H236728   0.976   5.766   2.477 -2.2098 -0.8209  0.9242
 5057TIP3   OH236729   6.583   2.478   7.496  0.2289  0.3669 -0.2480
 5057TIP3    H136730   6.677   2.458   7.495 -0.2909 -2.5384  0.5693
 5057TIP3    H236731   6.554   2.460   7.407 -0.0160 -1.5738  0.1907
 5058TIP3   OH236732   4.922   2.925   7.479 -1.0898 -0.1516  0.2855
 5058TIP3    H136733   4.836   2.942   7.516 -1.8981 -2.2166 -0.4984
 5058TIP3    H236734   4.950   2.842   7.519 -0.3551 -0.5040 -0.8830
 5059TIP3   OH236735   3.811   3.117   6.463  0.1779  0.3162  0.1680
 5059TIP3    H136736   3.809   3.136   6.557  1.2317 -0.6271  0.3970
 5059TIP3    H236737   3.774   3.029   6.456 -0.5505  0.6571 -0.3895
 5060TIP3   OH236738   4.380   0.015   2.225 -0.5445 -0.0787 -0.2467
 5060TIP3    H136739   4.424  -0.030   2.297 -0.8859  1.5147  1.0355
 5060TIP3    H236740   4.386   0.108   2.249 -1.2919  0.4360 -1.9370
 5061TIP3   OH236741   1.926   0.699   2.062  0.0246  0.2785  0.4471
 5061TIP3    H136742   1.909   0.662   2.148  0.4911  0.0758  0.4578
 5061TIP3    H236743   1.904   0.629   2.000  2.0094 -0.4857  0.5134
 5062TIP3   OH236744   4.203   3.289   8.328  0.0373  0.5644 -0.2616
 5062TIP3    H136745   4.233   3.338   8.405 -0.3797 -0.2352  0.4371
 5062TIP3    H236746   4.114   3.320   8.312  0.3022  1.0832 -0.7258
 5063TIP3   OH236747   3.419   0.178   1.043 -0.4902 -0.3755 -0.0773
 5063TIP3    H136748   3.432   0.265   1.007 -0.1756  0.1108  1.1697
 5063TIP3    H236749   3.445   0.119   0.972 -1.2242  0.5157 -1.1272
 5064TIP3   OH236750   2.227   1.529   1.763  0.4018 -0.0848  0.6089
 5064TIP3    H136751   2.219   1.521   1.858  1.7782  0.0054  0.7384
 5064TIP3    H236752   2.208   1.621   1.745 -2.9286 -0.6562  0.4184
 5065TIP3   OH236753   3.557   3.579   8.364  0.1128  0.3809  0.3297
 5065TIP3    H136754   3.634   3.530   8.392  1.7629  2.2506 -0.7115
 5065TIP3    H236755   3.584   3.623   8.283 -2.2046  0.7618 -0.3344
 5066TIP3   OH236756   3.336   2.430   0.320 -0.0392 -0.1673 -0.6052
 5066TIP3    H136757   3.421   2.425   0.365 -0.7213 -0.5004  0.6802
 5066TIP3    H236758   3.340   2.513   0.272  0.2495  0.8483  1.0753
 5067TIP3   OH236759   6.316   4.064   2.338  0.0430  0.2124 -0.1644
 5067TIP3    H136760   6.236   4.089   2.384 -0.3143  0.7300 -1.0411
 5067TIP3    H236761   6.359   4.002   2.397 -1.3215 -0.5794  0.0398
 5068TIP3   OH236762   3.443   4.584   2.235 -0.5269  0.5652  0.0232
 5068TIP3    H136763   3.414   4.624   2.153  0.8006  0.3005 -0.6059
 5068TIP3    H236764   3.379   4.514   2.252  0.1130 -0.5255 -1.7476
 5069TIP3   OH236765   0.958   4.722   0.431  0.5176  0.0499  0.0910
 5069TIP3    H136766   0.877   4.721   0.481  0.0827  0.8732 -0.5586
 5069TIP3    H236767   1.026   4.698   0.494 -0.2980 -1.3291  0.4880
 5070TIP3   OH236768   1.288   6.045   2.280 -0.4492  0.1760  0.6555
 5070TIP3    H136769   1.308   6.133   2.248 -0.4850  0.5894  1.7353
 5070TIP3    H236770   1.286   6.053   2.376 -1.6616 -0.7313  0.7372
 5071TIP3   OH236771   1.738   2.699   0.072  0.0754 -0.0054 -0.3031
 5071TIP3    H136772   1.709   2.759   0.140 -0.0249 -0.6230  0.2118
 5071TIP3    H236773   1.718   2.612   0.107 -1.5512 -0.3077 -1.8013
 5072TIP3   OH236774   1.660   4.533   7.476 -0.5170  0.1071 -0.4437
 5072TIP3    H136775   1.568   4.546   7.453 -0.9040 -0.6980  0.5413
 5072TIP3    H236776   1.661   4.447   7.518  0.3351  0.9439  1.3525
 5073TIP3   OH236777   0.776   2.300   8.657 -0.5994  0.0901 -0.3013
 5073TIP3    H136778   0.727   2.329   8.734  0.2730  0.7764  0.0050
 5073TIP3    H236779   0.708   2.284   8.591 -1.4787 -1.7188  0.9558
 5074TIP3   OH236780   5.708   4.000   0.634  0.2491 -0.4054 -0.5121
 5074TIP3    H136781   5.707   3.959   0.721  0.2691 -1.3344 -0.9368
 5074TIP3    H236782   5.799   3.990   0.605 -0.4372 -3.0977 -1.9995
 5075TIP3   OH236783   6.399   5.372   1.682  0.1075 -0.5878  0.1444
 5075TIP3    H136784   6.456   5.336   1.614  1.5370  2.1403 -0.2253
 5075TIP3    H236785   6.310   5.359   1.648  0.6916 -1.2033 -1.2124
 5076TIP3   OH236786   5.800   0.406   0.711 -0.3680 -0.3618  0.2799
 5076TIP3    H136787   5.775   0.387   0.620 -0.6347 -0.0452  0.2853
 5076TIP3    H236788   5.739   0.475   0.738  0.9654  0.9696  0.0493
 5077TIP3   OH236789   4.397   0.145   0.755 -0.3097  0.0828 -0.0381
 5077TIP3    H136790   4.392   0.102   0.669  1.7214 -0.6720  0.1574
 5077TIP3    H236791   4.488   0.131   0.783 -0.4292  1.8871  1.4332
 5078TIP3   OH236792   2.006   2.298   0.982 -0.0822 -0.3077 -0.4364
 5078TIP3    H136793   2.027   2.228   0.920 -0.2139  0.4061 -1.3240
 5078TIP3    H236794   2.074   2.293   1.049 -0.4952 -1.7265 -0.0919
 5079TIP3   OH236795   2.341   3.050   1.904  0.1231  0.1403  0.2974
 5079TIP3    H136796   2.326   2.996   1.981 -0.6967  0.4188  0.3463
 5079TIP3    H236797   2.409   3.005   1.855  1.4507  0.5145  1.7101
 5080TIP3   OH236798   5.650   2.074   2.360 -0.4394  0.6845 -0.1955
 5080TIP3    H136799   5.603   2.057   2.441  1.0080  0.5783  0.6543
 5080TIP3    H236800   5.742   2.080   2.386  0.0440  0.8032 -1.8058
 5081TIP3   OH236801   4.185   1.673   7.484  0.5910 -0.4629  0.1136
 5081TIP3    H136802   4.273   1.634   7.486  0.4454 -0.8268  2.2424
 5081TIP3    H236803   4.143   1.640   7.563 -1.5888 -0.4953 -0.9820
 5082TIP3   OH236804   3.038   2.800   2.174  0.1689  0.6493 -0.2525
 5082TIP3    H136805   3.023   2.727   2.114  1.6280 -0.2554  0.4255
 5082TIP3    H236806   2.966   2.795   2.237 -0.3427  0.4773 -0.8421
 5083TIP3   OH236807   4.992   3.754   0.462  0.1280 -0.0319  0.7268
 5083TIP3    H136808   5.034   3.791   0.384 -2.6329  1.0596 -0.3587
 5083TIP3    H236809   4.963   3.830   0.512  0.1496 -0.7451  1.8510
 5084TIP3   OH236810   4.266   2.475   1.569  0.1386 -0.6651 -0.7175
 5084TIP3    H136811   4.325   2.547   1.590 -1.3829  0.1473  0.9837
 5084TIP3    H236812   4.275   2.414   1.642 -0.8873 -0.6705 -0.5786
 5085TIP3   OH236813   5.411   1.206   0.662  0.1000  0.2004 -0.4246
 5085TIP3    H136814   5.359   1.143   0.611  0.3987 -1.4252  1.1818
 5085TIP3    H236815   5.459   1.152   0.724  1.4184  1.9404  0.1345
 5086TIP3   OH236816   1.109   5.618   2.211 -0.2208 -0.3990 -0.0271
 5086TIP3    H136817   1.070   5.706   2.217 -3.0791 -1.6056  0.7888
 5086TIP3    H236818   1.180   5.619   2.274  0.2462  1.5206 -0.5195
 5087TIP3   OH236819   4.351   0.684   0.181 -0.3832  0.4413  0.7815
 5087TIP3    H136820   4.439   0.716   0.158 -0.5542  0.1073 -0.3753
 5087TIP3    H236821   4.296   0.762   0.179 -0.5090  0.3329 -0.5538
 5088TIP3   OH236822   5.282   4.259   0.741  0.4215 -0.6978 -0.0226
 5088TIP3    H136823   5.375   4.255   0.764  0.3602  2.4144  1.2816
 5088TIP3    H236824   5.238   4.272   0.825 -0.8973  0.5729 -0.8747
 5089TIP3   OH236825   4.107   0.229   0.340 -0.3456 -0.1331 -0.5187
 5089TIP3    H136826   4.109   0.297   0.274  1.4385  0.3443 -0.0231
 5089TIP3    H236827   4.197   0.221   0.370 -0.6417 -2.1485  0.0192
 5090TIP3   OH236828   2.180   0.543   6.858 -0.3690 -0.4349  0.0711
 5090TIP3    H136829   2.113   0.611   6.858 -0.8280 -0.8792 -0.4399
 5090TIP3    H236830   2.259   0.587   6.890 -0.0413  0.9618 -2.4650
 5091TIP3   OH236831   5.078   5.602   2.139 -0.5192 -0.5060 -0.4690
 5091TIP3    H136832   5.151   5.584   2.080 -0.8231  0.1038 -1.0416
 5091TIP3    H236833   5.010   5.638   2.083 -1.6031 -1.8913 -0.0966
 5092TIP3   OH236834   4.174   5.358   7.722 -0.2758 -0.8048 -0.1117
 5092TIP3    H136835   4.190   5.445   7.686  0.9519 -0.9575  0.0320
 5092TIP3    H236836   4.101   5.323   7.670  0.5215 -0.4670 -1.5152
 5093TIP3   OH236837   5.022   1.719   8.650  0.4672  0.1430  0.1273
 5093TIP3    H136838   5.055   1.809   8.652  0.7224  0.1079 -1.3589
 5093TIP3    H236839   4.931   1.727   8.623  0.6660 -0.0648 -0.6428
 5094TIP3   OH236840   2.874   6.688   2.113  0.0929 -0.7193 -0.0299
 5094TIP3    H136841   2.857   6.774   2.075  1.0370 -0.8393 -0.7607
 5094TIP3    H236842   2.880   6.629   2.038  0.1667 -1.2975  0.4219
 5095TIP3   OH236843   0.871   0.838   0.639  0.6419 -0.5513 -0.3997
 5095TIP3    H136844   0.967   0.833   0.642  0.7246  0.9771 -0.0738
 5095TIP3    H236845   0.850   0.831   0.545  1.2539  1.5012 -0.7310
 5096TIP3   OH236846   5.629   6.758   7.881 -0.4436  0.5192  0.3044
 5096TIP3    H136847   5.634   6.817   7.806 -0.2755  1.1296  0.7898
 5096TIP3    H236848   5.538   6.727   7.881  0.0472 -1.0969 -1.3453
 5097TIP3   OH236849   1.811   6.489   1.899 -0.9464  0.0266  0.0099
 5097TIP3    H136850   1.831   6.407   1.945 -0.5223 -0.6684 -1.3640
 5097TIP3    H236851   1.891   6.542   1.908  0.7147 -1.6454 -3.1061
 5098TIP3   OH236852   4.105   1.508   6.795 -0.7355  0.2859  0.4418
 5098TIP3    H136853   4.120   1.439   6.860 -2.2065 -0.3081  0.1953
 5098TIP3    H236854   4.111   1.464   6.711 -0.8077  0.6367  0.2491
 5099TIP3   OH236855   6.368   1.416   8.610  0.5856  0.1161 -0.2521
 5099TIP3    H136856   6.359   1.508   8.636  0.6948  0.4097 -1.1832
 5099TIP3    H236857   6.398   1.421   8.519  0.7583 -0.8470 -0.2522
 5100TIP3   OH236858   2.774   4.485   1.665  0.1854 -0.0240 -0.1809
 5100TIP3    H136859   2.785   4.559   1.726  0.2299  1.3470 -1.7792
 5100TIP3    H236860   2.862   4.453   1.651  0.7287  2.1529 -2.4163
 5101TIP3   OH236861   0.524   6.479   2.394  0.2117  0.2105  0.3733
 5101TIP3    H136862   0.532   6.396   2.441  0.9889 -0.5221 -0.9780
 5101TIP3    H236863   0.488   6.454   2.309  1.8326  1.0262 -0.6046
 5102TIP3   OH236864   0.077   6.712   0.972 -0.0821 -0.1136 -0.6865
 5102TIP3    H136865   0.067   6.732   0.879  0.4695 -0.4821 -0.8283
 5102TIP3    H236866   0.169   6.687   0.981 -0.0537  0.2466  0.0230
 5103TIP3   OH236867   0.090   2.824   8.330 -0.3117  0.4752  0.0579
 5103TIP3    H136868  -0.001   2.845   8.348 -0.1592  0.4157  0.9787
 5103TIP3    H236869   0.119   2.776   8.408  0.5294  0.5732 -0.1820
 5104TIP3   OH236870   2.902   1.084   7.454 -0.1107 -0.0653 -0.3362
 5104TIP3    H136871   2.894   1.152   7.386 -0.8631  0.1160 -0.0745
 5104TIP3    H236872   2.834   1.021   7.433 -0.7916  0.3243  0.6113
 5105TIP3   OH236873   3.939   1.039   8.259  0.5490 -0.2682 -0.5794
 5105TIP3    H136874   3.913   1.020   8.349  0.9612 -0.5903 -0.5257
 5105TIP3    H236875   3.910   0.964   8.208 -0.0425  0.0934 -0.7885
 5106TIP3   OH236876   1.187   3.806   7.406 -0.3005  0.6558  0.2305
 5106TIP3    H136877   1.112   3.855   7.373  1.1640  1.1456 -2.7194
 5106TIP3    H236878   1.263   3.847   7.363  1.1811 -3.0462 -1.0993
 5107TIP3   OH236879   5.793   3.774   7.600  0.1977 -0.2921 -0.2488
 5107TIP3    H136880   5.809   3.755   7.507 -0.8867 -1.5575 -0.2108
 5107TIP3    H236881   5.703   3.746   7.615  0.2460  0.2141  1.1128
 5108TIP3   OH236882   2.850   4.223   1.786 -0.0002 -0.2869 -0.0324
 5108TIP3    H136883   2.791   4.180   1.849 -0.9268 -0.0586 -0.7322
 5108TIP3    H236884   2.844   4.316   1.808 -1.7464  0.0262 -1.5641
 5109TIP3   OH236885   5.983   3.540   8.672 -0.5247  0.3631  0.0357
 5109TIP3    H136886   6.000   3.494   8.590  0.4311 -0.3865  0.6269
 5109TIP3    H236887   5.898   3.508   8.701  0.6303 -2.0103  1.0310
 5110TIP3   OH236888   0.414   4.900   8.022 -0.2068 -0.1156  0.0718
 5110TIP3    H136889   0.378   4.818   7.989 -1.2395 -0.2020  1.3063
 5110TIP3    H236890   0.403   4.962   7.950 -0.3676 -0.8024 -0.5062
 5111TIP3   OH236891   4.684   0.383   2.590 -0.2348 -0.0932 -0.7544
 5111TIP3    H136892   4.771   0.346   2.574  1.1858  2.4015  0.4619
 5111TIP3    H236893   4.677   0.386   2.686 -0.9942  1.1023 -0.8294
 5112TIP3   OH236894   4.942   4.219   7.173  0.6399 -0.1099  0.4491
 5112TIP3    H136895   4.993   4.265   7.106  0.6219  0.9960  1.1559
 5112TIP3    H236896   4.936   4.282   7.245 -0.9807 -0.5378  0.7347
 5113TIP3   OH236897   4.675   0.545   7.505 -0.0388  0.4305  0.1626
 5113TIP3    H136898   4.632   0.624   7.472  1.6394  0.5180 -1.9706
 5113TIP3    H236899   4.766   0.571   7.519  0.4132 -0.9659 -0.0073
 5114TIP3   OH236900   3.672   3.036   8.423  0.3637  0.0714  0.6026
 5114TIP3    H136901   3.749   3.002   8.468  0.3901 -0.9650 -0.1847
 5114TIP3    H236902   3.625   2.958   8.393  0.7494  0.6632 -1.8058
 5115TIP3   OH236903   5.123   5.104   8.250 -0.1012  0.5294  0.3737
 5115TIP3    H136904   5.140   5.025   8.302 -3.9405 -1.0148 -0.3223
 5115TIP3    H236905   5.156   5.084   8.163  1.3929  0.8535  0.8516
 5116TIP3   OH236906   6.222   4.956   1.741 -0.9878 -0.2474 -0.1539
 5116TIP3    H136907   6.141   5.005   1.728 -1.2237 -0.3605  0.8045
 5116TIP3    H236908   6.269   4.966   1.659 -1.0094  1.6203  0.0179
 5117TIP3   OH236909   4.834   2.619   7.903 -0.5791  0.0676 -0.4521
 5117TIP3    H136910   4.881   2.558   7.960 -1.1622  0.4040  0.4100
 5117TIP3    H236911   4.827   2.699   7.955 -1.3831  0.2896 -0.8915
 5118TIP3   OH236912   0.897   1.972   0.276 -0.2715  0.1335 -0.0783
 5118TIP3    H136913   0.834   2.044   0.279 -0.0819  0.3127 -0.3414
 5118TIP3    H236914   0.938   1.972   0.362 -0.0734  0.5207 -0.1719
 5119TIP3   OH236915   4.080   3.989   1.955 -0.1189 -0.2808 -0.3378
 5119TIP3    H136916   4.134   3.934   1.898 -0.0697 -0.3491 -0.2259
 5119TIP3    H236917   3.990   3.969   1.929 -0.1644 -1.5790  0.7608
 5120TIP3   OH236918   6.074   4.422   1.396  0.0671  0.0379 -0.4959
 5120TIP3    H136919   6.145   4.455   1.450  1.1188  0.2375 -1.9398
 5120TIP3    H236920   6.088   4.462   1.310 -0.3107 -1.8784 -1.5084
 5121TIP3   OH236921   6.557   5.892   8.360 -0.0059  0.5916  0.1000
 5121TIP3    H136922   6.549   5.889   8.265 -0.6518 -0.7071  0.1618
 5121TIP3    H236923   6.522   5.978   8.385 -0.9210  0.4913 -0.7644
 5122TIP3   OH236924   4.730   2.614   0.228 -0.0730  0.2260 -0.0528
 5122TIP3    H136925   4.806   2.586   0.278  0.6451 -1.3134 -1.9177
 5122TIP3    H236926   4.747   2.706   0.208  1.5216 -0.1982 -0.7906
 5123TIP3   OH236927   3.161   1.028   0.722  0.6698  0.0912 -1.0367
 5123TIP3    H136928   3.198   0.985   0.644  1.9059  1.3022 -1.1716
 5123TIP3    H236929   3.102   1.095   0.686  1.3208  0.7205 -0.9597
 5124TIP3   OH236930   0.926   2.158   1.846 -0.2317  0.0346  0.1420
 5124TIP3    H136931   0.963   2.119   1.767  1.5573  0.8763  0.4984
 5124TIP3    H236932   0.993   2.142   1.913 -0.4354  1.7383  0.8051
 5125TIP3   OH236933   2.650   5.564   1.091 -0.0642  0.5377 -0.7721
 5125TIP3    H136934   2.558   5.561   1.117 -0.3235 -0.4365 -1.7064
 5125TIP3    H236935   2.659   5.493   1.028  1.7027 -0.3607  0.4190
 5126TIP3   OH236936   3.020   5.810   8.003 -0.9694 -0.1511  0.2652
 5126TIP3    H136937   2.934   5.769   7.998 -0.6492 -0.8956  0.6105
 5126TIP3    H236938   3.082   5.737   7.995 -0.3395  0.5306 -1.4418
 5127TIP3   OH236939   4.255   1.360   2.076 -0.0955 -0.3675  0.0949
 5127TIP3    H136940   4.262   1.358   2.171 -1.1535 -1.8717  0.1753
 5127TIP3    H236941   4.181   1.418   2.058  0.9219  0.9854  0.0884
 5128TIP3   OH236942   5.688   5.475   8.064 -0.3392  0.2020 -0.6387
 5128TIP3    H136943   5.660   5.397   8.014  0.9148 -0.2821 -0.6059
 5128TIP3    H236944   5.682   5.448   8.155  2.2109 -0.6641 -0.6523
 5129TIP3   OH236945   5.503   2.639   8.542  0.0133  0.2552 -0.5749
 5129TIP3    H136946   5.529   2.549   8.523  0.4981  0.0188  1.0578
 5129TIP3    H236947   5.412   2.645   8.513 -0.8127 -1.4950  1.4240
 5130TIP3   OH236948   5.079   5.879   2.691 -0.1724  0.8659 -0.1445
 5130TIP3    H136949   5.104   5.790   2.664 -1.3612  0.6115 -0.4549
 5130TIP3    H236950   5.017   5.866   2.762 -1.3568  1.4096 -1.0604
 5131TIP3   OH236951   2.916   4.747   7.508  0.0056 -0.1314 -0.3159
 5131TIP3    H136952   3.000   4.731   7.552  0.5526  0.1737 -1.2105
 5131TIP3    H236953   2.931   4.719   7.417 -1.1022 -0.7655 -0.3127
 5132TIP3   OH236954   0.197   3.414   1.610 -0.1740  0.1594 -0.4649
 5132TIP3    H136955   0.148   3.387   1.687 -1.2234  0.5502 -0.9698
 5132TIP3    H236956   0.278   3.451   1.645  0.0339 -1.0230  0.3562
 5133TIP3   OH236957   1.095   1.297   1.175  0.0050 -0.2363 -0.4776
 5133TIP3    H136958   1.110   1.324   1.266  1.0885  0.0402 -0.7246
 5133TIP3    H236959   1.033   1.225   1.182 -0.3190  0.1052  0.4457
 5134TIP3   OH236960   2.424   0.492   8.212  0.2526 -0.0709  0.0856
 5134TIP3    H136961   2.392   0.424   8.152  0.7056 -0.0209 -0.2165
 5134TIP3    H236962   2.399   0.460   8.299  0.6173 -0.7150 -0.0359
 5135TIP3   OH236963   0.413   2.254   2.204 -0.3896 -0.1944 -0.5603
 5135TIP3    H136964   0.460   2.334   2.182  0.0369  0.0329  1.0676
 5135TIP3    H236965   0.415   2.250   2.299 -1.4756 -1.5109 -0.5574
 5136TIP3   OH236966   3.603   1.273   8.398  0.6014  0.0897  0.2685
 5136TIP3    H136967   3.568   1.197   8.445 -0.4055 -0.1462 -0.8277
 5136TIP3    H236968   3.545   1.285   8.323  2.2715  0.3329 -1.0649
 5137TIP3   OH236969   2.268   2.459   7.185  0.7518  0.6789 -0.0951
 5137TIP3    H136970   2.223   2.471   7.268  1.6303  0.2384  0.4467
 5137TIP3    H236971   2.263   2.365   7.167  2.1756  0.4942  0.3927
 5138TIP3   OH236972   0.287   2.763   7.732  0.2996  0.3268 -0.6773
 5138TIP3    H136973   0.336   2.845   7.742 -1.0086  1.1844 -0.9064
 5138TIP3    H236974   0.218   2.786   7.670 -0.1878 -0.9225 -0.6073
 5139TIP3   OH236975   3.326   0.136   0.326  0.3591 -0.0740  0.0827
 5139TIP3    H136976   3.406   0.094   0.295  0.1559 -2.9254  2.9417
 5139TIP3    H236977   3.352   0.186   0.403 -0.2441  1.0568 -0.4209
 5140TIP3   OH236978   0.968   5.069   0.917  0.7208 -0.2081 -0.1018
 5140TIP3    H136979   0.888   5.071   0.865  0.1464 -1.9756  0.6106
 5140TIP3    H236980   1.030   5.020   0.864  0.8805 -0.0423 -0.0689
 5141TIP3   OH236981   3.906   2.182   7.334  0.6164 -0.3304  0.1551
 5141TIP3    H136982   3.897   2.214   7.423 -1.3025 -1.5528  0.4726
 5141TIP3    H236983   3.861   2.248   7.280  0.3488 -0.3966  0.2960
 5142TIP3   OH236984   3.030   3.221   1.327 -0.5471 -0.6474  0.1920
 5142TIP3    H136985   2.983   3.281   1.268 -1.0025 -1.7337 -0.6054
 5142TIP3    H236986   2.964   3.196   1.392 -0.9449 -1.6943 -0.5694
 5143TIP3   OH236987   3.328   5.630   0.189  0.6585  0.0737 -0.3538
 5143TIP3    H136988   3.343   5.723   0.208  2.0266 -0.1661 -0.1331
 5143TIP3    H236989   3.335   5.624   0.093  0.8054  0.1619 -0.3493
 5144TIP3   OH236990   1.563   5.947   8.273 -0.1012 -0.1320 -0.0856
 5144TIP3    H136991   1.607   5.874   8.228 -0.3893 -1.3222  1.4562
 5144TIP3    H236992   1.475   5.949   8.236  0.0520 -0.2887 -0.4597
 5145TIP3   OH236993   5.602   6.122   1.717 -0.5289 -0.5349 -0.1006
 5145TIP3    H136994   5.552   6.202   1.703  1.9175  0.7302 -2.6963
 5145TIP3    H236995   5.669   6.146   1.782 -1.4551 -1.3974  1.2452
 5146TIP3   OH236996   4.465   1.373   0.951 -0.6074  0.6964  0.9463
 5146TIP3    H136997   4.483   1.427   1.028  1.1796 -0.3239  1.2939
 5146TIP3    H236998   4.462   1.284   0.985  0.2299  0.2297 -0.1740
 5147TIP3   OH236999   3.923   2.519   6.288 -0.2200  0.0512 -0.7292
 5147TIP3    H137000   3.978   2.513   6.366 -1.2219 -0.5354 -0.0347
 5147TIP3    H237001   3.840   2.480   6.315 -0.9636  0.8739 -1.7527
 5148TIP3   OH237002   4.018   2.731   6.614  0.0850 -0.6421  0.1654
 5148TIP3    H137003   4.024   2.640   6.583  0.6466 -0.9282  1.0710
 5148TIP3    H237004   4.108   2.757   6.630 -0.0092  0.3778 -0.8754
 5149TIP3   OH237005   6.493   1.830   0.132  0.2882 -0.8337  0.2202
 5149TIP3    H137006   6.489   1.779   0.213  2.5203 -1.8832 -0.2865
 5149TIP3    H237007   6.504   1.921   0.162 -1.9779 -0.7657  1.0791
 5150TIP3   OH237008   2.708   4.931   7.319  0.0332 -0.0003 -0.0344
 5150TIP3    H137009   2.728   4.930   7.226 -0.8756 -0.0415 -0.2416
 5150TIP3    H237010   2.691   5.023   7.339  1.3406  0.1828  0.3608
 5151TIP3   OH237011   5.757   2.330   2.862  0.5232 -0.2044  0.2126
 5151TIP3    H137012   5.690   2.292   2.918  0.9185 -1.2061  0.0387
 5151TIP3    H237013   5.826   2.358   2.923 -0.6154  2.1275  0.5156
 5152TIP3   OH237014   3.737   3.337   8.253  0.6318  0.0944 -0.1172
 5152TIP3    H137015   3.766   3.427   8.238 -0.2317  0.6152  1.1491
 5152TIP3    H237016   3.793   3.306   8.325  0.5304 -0.1859 -0.1570
 5153TIP3   OH237017   2.799   0.778   7.662 -0.5194  0.4104  0.2070
 5153TIP3    H137018   2.768   0.867   7.649  1.5355  1.0194 -1.0253
 5153TIP3    H237019   2.854   0.782   7.740  2.6218  1.2030 -1.8638
 5154TIP3   OH237020   6.073   0.914   1.665  0.0979 -0.0234 -0.3964
 5154TIP3    H137021   6.142   0.853   1.638  1.4983  1.1530  0.3834
 5154TIP3    H237022   5.992   0.863   1.658  0.7573 -0.8229 -3.3231
 5155TIP3   OH237023   2.766   6.811   1.352  0.2481  0.3058 -0.3041
 5155TIP3    H137024   2.720   6.836   1.272 -2.5697  0.6098  1.2866
 5155TIP3    H237025   2.798   6.894   1.388 -0.2185  0.4247 -0.1510
 5156TIP3   OH237026   4.433   2.856   0.248  0.4428 -0.1073  0.2961
 5156TIP3    H137027   4.433   2.764   0.273  0.4679 -0.2413 -0.1964
 5156TIP3    H237028   4.506   2.894   0.298  0.6826 -0.4351  0.1999
 5157TIP3   OH237029   1.344   5.725   2.366 -0.2435 -0.1472 -0.3565
 5157TIP3    H137030   1.265   5.772   2.393 -0.4148 -1.1914  1.1180
 5157TIP3    H237031   1.412   5.756   2.427  0.2102 -0.1076 -0.8730
 5158TIP3   OH237032   2.137   6.508   8.490 -0.0892 -0.1143 -0.0290
 5158TIP3    H137033   2.116   6.414   8.493 -1.0640  0.1227  1.4531
 5158TIP3    H237034   2.151   6.526   8.397  0.1999 -1.7400 -0.3307
 5159TIP3   OH237035   1.130   4.855   2.222 -0.3531 -0.1261 -0.2289
 5159TIP3    H137036   1.054   4.881   2.170  1.7900  2.2260 -2.4856
 5159TIP3    H237037   1.121   4.906   2.303 -0.5431  1.1441 -1.0257
 5160TIP3   OH237038   3.887   0.814   1.578  0.0478  0.3620  0.2848
 5160TIP3    H137039   3.920   0.746   1.520 -0.1862 -1.7554  2.4563
 5160TIP3    H237040   3.792   0.814   1.564 -0.0622 -0.4903  0.9785
 5161TIP3   OH237041   2.421   1.084   1.434 -0.3496 -0.4554  0.1324
 5161TIP3    H137042   2.502   1.134   1.424 -0.6679 -0.1266 -0.9124
 5161TIP3    H237043   2.353   1.143   1.402 -0.9985 -0.7698  0.9035
 5162TIP3   OH237044   1.887   4.506   8.622  0.2001  0.0410 -0.3140
 5162TIP3    H137045   1.888   4.602   8.627 -0.3857  0.1381 -1.8067
 5162TIP3    H237046   1.825   4.485   8.553 -0.8646 -1.4981  1.0321
 5163TIP3   OH237047   2.063   1.726   8.335  0.9930 -0.4555 -0.0510
 5163TIP3    H137048   2.149   1.710   8.374  1.4082 -0.5681 -0.9992
 5163TIP3    H237049   2.068   1.689   8.247 -0.5626 -1.8955  0.4126
 5164TIP3   OH237050   5.624   1.281   8.607 -0.1826 -0.3174 -0.0657
 5164TIP3    H137051   5.713   1.297   8.638 -0.2574  0.4506 -0.2203
 5164TIP3    H237052   5.612   1.343   8.535 -1.1173  0.1805  0.4877
 5165TIP3   OH237053   2.074   3.198   2.159  0.2870 -0.0386  0.0575
 5165TIP3    H137054   2.163   3.191   2.193  0.1997  1.2941  0.6235
 5165TIP3    H237055   2.019   3.202   2.237 -0.1459  0.4678 -0.2684
 5166TIP3   OH237056   5.319   6.453   0.657 -0.1042 -0.5935 -0.1474
 5166TIP3    H137057   5.263   6.379   0.631 -1.5824  0.7297 -0.9781
 5166TIP3    H237058   5.286   6.526   0.604  0.7158  0.8626  1.2854
 5167TIP3   OH237059   1.607   0.398   1.988 -0.4271  0.4333 -0.0774
 5167TIP3    H137060   1.559   0.323   2.020  2.8802 -1.5374  0.7748
 5167TIP3    H237061   1.621   0.453   2.065  0.9255 -0.4172  0.3311
 5168TIP3   OH237062   5.343   2.180   2.542 -0.2130  0.6738 -0.4303
 5168TIP3    H137063   5.291   2.243   2.592  0.3066  0.0742  0.9052
 5168TIP3    H237064   5.280   2.142   2.480 -0.6568  2.0956 -0.9067
 5169TIP3   OH237065   2.896   1.761   0.663  0.4209 -0.5712 -0.5275
 5169TIP3    H137066   2.940   1.688   0.706  0.3809 -1.0124 -1.2116
 5169TIP3    H237067   2.961   1.796   0.602  0.2447 -0.4156 -0.6303
 5170TIP3   OH237068   5.872   0.096   2.516  0.1046 -0.1102 -0.0261
 5170TIP3    H137069   5.920   0.014   2.510  0.7495  0.1318  1.4614
 5170TIP3    H237070   5.938   0.162   2.540 -0.7544  0.4117  1.0290
 5171TIP3   OH237071   4.291   6.323   2.518  0.3096 -0.2020  0.2407
 5171TIP3    H137072   4.197   6.317   2.501  0.1983 -0.8938  1.0056
 5171TIP3    H237073   4.297   6.360   2.606  0.8375  2.3348 -0.7828
 5172TIP3   OH237074   4.168   2.916   6.370 -0.5043 -0.6850 -0.2564
 5172TIP3    H137075   4.093   2.888   6.318  0.2321 -0.5843 -1.4091
 5172TIP3    H237076   4.235   2.849   6.354  0.2205  0.1016 -0.5966
 5173TIP3   OH237077   0.100   3.885   3.093 -0.2036 -0.2649  0.0030
 5173TIP3    H137078   0.087   3.979   3.080 -3.4800 -0.8106 -1.7667
 5173TIP3    H237079   0.192   3.876   3.117  0.3400  3.3215 -0.2720
 5174TIP3   OH237080   5.450   5.673   2.375 -0.4355  0.8986 -0.7300
 5174TIP3    H137081   5.417   5.584   2.366 -0.0737  0.6440  0.3154
 5174TIP3    H237082   5.372   5.727   2.388 -0.5393  0.4064  0.9677
 5175TIP3   OH237083   6.277   5.795   2.022  0.5737  0.2079  0.3523
 5175TIP3    H137084   6.217   5.733   2.063  0.6910  0.1920  0.5026
 5175TIP3    H237085   6.220   5.862   1.985  0.4815  0.5056  1.0084
 5176TIP3   OH237086   2.373   4.829   7.129 -0.0872  0.3400 -0.2595
 5176TIP3    H137087   2.338   4.749   7.167  1.5654 -1.0267 -1.4671
 5176TIP3    H237088   2.327   4.838   7.045  0.0681  0.3853 -0.3402
 5177TIP3   OH237089   6.708   3.137   8.719  0.1211 -0.0300 -0.5553
 5177TIP3    H137090   6.661   3.113   8.799  0.1717 -0.4472 -0.6444
 5177TIP3    H237091   6.665   3.086   8.650  1.5734 -1.5132 -0.4330
 5178TIP3   OH237092   0.214   1.731   0.847  0.2330 -0.1100  0.0345
 5178TIP3    H137093   0.303   1.714   0.877  0.0867  0.9765  1.1511
 5178TIP3    H237094   0.159   1.676   0.902  0.1890 -0.8378 -0.7047
 5179TIP3   OH237095   1.425   5.823   8.492 -0.2309  0.0670 -0.3125
 5179TIP3    H137096   1.497   5.837   8.430 -0.2471  0.7988 -0.1751
 5179TIP3    H237097   1.461   5.848   8.577  0.0957 -1.8591  0.1499
 5180TIP3   OH237098   3.049   6.336   7.463 -0.2518 -0.5332  0.4993
 5180TIP3    H137099   2.954   6.346   7.474  0.0530  3.8932  0.7171
 5180TIP3    H237100   3.059   6.299   7.375 -2.1505 -0.7128  0.3173
 5181TIP3   OH237101   0.564   6.570   8.094 -0.0280  0.3009  0.3926
 5181TIP3    H137102   0.516   6.522   8.027 -0.5983  0.5361  0.6210
 5181TIP3    H237103   0.656   6.558   8.072 -0.2155  0.9699 -0.8532
 5182TIP3   OH237104   0.480   6.214   2.026  0.4849 -0.3373  0.2545
 5182TIP3    H137105   0.571   6.207   1.999  1.0012  0.4759  1.7114
 5182TIP3    H237106   0.459   6.127   2.062 -0.7435 -2.0587 -3.9995
 5183TIP3   OH237107   3.965   3.849   0.078 -0.3481 -0.3100 -0.5073
 5183TIP3    H137108   4.036   3.913   0.071 -1.5282  0.9432 -1.8181
 5183TIP3    H237109   3.907   3.884   0.146  0.5359 -1.6277  0.9719
 5184TIP3   OH237110   0.678   5.425   1.968  0.5095 -0.4916 -0.5661
 5184TIP3    H137111   0.688   5.472   1.885  0.7887 -0.8829 -0.7600
 5184TIP3    H237112   0.653   5.492   2.031 -1.9814 -0.5262 -1.4206
 5185TIP3   OH237113   4.891   2.318   8.525  0.1510  0.0674  0.6005
 5185TIP3    H137114   4.963   2.289   8.581  0.6070  0.2483  0.1076
 5185TIP3    H237115   4.924   2.395   8.479 -0.8405  1.0190  1.4218
 5186TIP3   OH237116   4.624   2.070   2.547 -0.4391 -0.1461  0.6239
 5186TIP3    H137117   4.553   2.073   2.483 -1.0649  1.1918  1.3346
 5186TIP3    H237118   4.581   2.082   2.632  0.4961 -0.7475  1.2084
 5187TIP3   OH237119   6.217   3.300   1.987  0.3216 -0.1809 -0.1365
 5187TIP3    H137120   6.239   3.269   1.899  0.4869  1.7158 -0.8288
 5187TIP3    H237121   6.283   3.368   2.005 -0.6421  0.5329  0.8095
 5188TIP3   OH237122   6.389   5.391   7.273 -0.7203  0.3207  0.7690
 5188TIP3    H137123   6.454   5.459   7.264  0.7600 -1.2269 -1.1843
 5188TIP3    H237124   6.332   5.401   7.196 -0.1967 -0.8719  0.1950
 5189TIP3   OH237125   1.379   2.018   0.383 -0.2710 -0.1916  0.0559
 5189TIP3    H137126   1.365   2.056   0.470  0.1172 -0.3996  0.2114
 5189TIP3    H237127   1.349   2.085   0.322  0.9475  0.6064  0.3098
 5190TIP3   OH237128   4.437   5.350   0.075  0.4154  0.6351  0.2130
 5190TIP3    H137129   4.354   5.397   0.071 -1.6038 -2.6222 -0.3382
 5190TIP3    H237130   4.453   5.335   0.168 -0.0471  0.5833  0.2829
 5191TIP3   OH237131   0.635   5.948   7.179  0.5182 -0.0760 -0.1763
 5191TIP3    H137132   0.675   5.862   7.165 -0.5402 -0.6950  0.5109
 5191TIP3    H237133   0.542   5.930   7.190  0.2778  1.1680 -0.0073
 5192TIP3   OH237134   5.040   5.627   8.273  0.2855 -0.6168 -0.0778
 5192TIP3    H137135   5.038   5.621   8.368  0.3713 -1.2499 -0.1151
 5192TIP3    H237136   4.998   5.547   8.242  2.3561 -1.5906 -0.5881
 5193TIP3   OH237137   0.811   4.866   1.878  0.6010 -0.3635  0.0703
 5193TIP3    H137138   0.832   4.959   1.887  1.6631 -0.6580  0.7212
 5193TIP3    H237139   0.882   4.820   1.921 -2.2056 -1.4044  4.1629
 5194TIP3   OH237140   0.838   3.097   7.329 -0.1721 -0.5296  0.3421
 5194TIP3    H137141   0.787   3.106   7.409  0.1053  1.0621  0.3756
 5194TIP3    H237142   0.919   3.054   7.357 -0.0704  0.0289  0.9300
 5195TIP3   OH237143   5.980   1.461   0.162 -0.3843 -0.1302 -0.7036
 5195TIP3    H137144   5.913   1.525   0.139 -0.0826 -0.1121 -1.6035
 5195TIP3    H237145   5.996   1.414   0.080  0.1606 -0.6349 -0.3114
 5196TIP3   OH237146   0.457   3.855   0.110  0.0325 -0.2815  0.2852
 5196TIP3    H137147   0.546   3.856   0.074  0.5933 -1.0011  1.5658
 5196TIP3    H237148   0.420   3.939   0.085  1.8053  0.9046  1.4092
 5197TIP3   OH237149   1.901   1.328   7.894 -0.2617  0.5787  0.4017
 5197TIP3    H137150   1.915   1.421   7.880  0.7759  0.1714 -1.6395
 5197TIP3    H237151   1.845   1.324   7.971  0.1137  2.8511  0.8698
 5198TIP3   OH237152   6.524   4.646   2.278  0.4111  0.6811 -0.1580
 5198TIP3    H137153   6.585   4.718   2.296 -1.2342  2.2852 -0.7237
 5198TIP3    H237154   6.443   4.689   2.250 -0.6580 -1.4052 -0.4822
 5199TIP3   OH237155   3.611   0.317   0.783 -0.4034  0.0901 -0.1955
 5199TIP3    H137156   3.597   0.345   0.692 -0.1388  2.5773  0.4467
 5199TIP3    H237157   3.554   0.374   0.834 -0.1980 -0.9590  1.2564
 5200TIP3   OH237158   6.579   5.576   1.045 -0.5485 -0.1079 -0.3143
 5200TIP3    H137159   6.500   5.534   1.078 -0.4195 -0.2750 -0.2145
 5200TIP3    H237160   6.578   5.664   1.083  0.3019 -0.7396  1.2948
 5201TIP3   OH237161   2.876   5.176   1.158 -0.3871  0.5363  0.1755
 5201TIP3    H137162   2.933   5.195   1.233 -0.6573  1.0622  0.2570
 5201TIP3    H237163   2.788   5.175   1.195 -0.3570 -1.6048  0.2927
 5202TIP3   OH237164   5.662   1.368   7.854  0.5719  0.5187 -0.2660
 5202TIP3    H137165   5.705   1.450   7.877 -0.6784  0.9594  0.6398
 5202TIP3    H237166   5.695   1.304   7.917 -0.7231  1.0687  1.0358
 5203TIP3   OH237167   6.666   5.900   7.836  0.2358  0.4175  0.3165
 5203TIP3    H137168   6.664   5.815   7.880 -1.9966  0.7414  0.9829
 5203TIP3    H237169   6.711   5.883   7.754  0.7496 -1.1673  0.8794
 5204TIP3   OH237170   5.194   2.747   2.152 -0.1684  0.0145 -0.2145
 5204TIP3    H137171   5.245   2.825   2.130  1.0672 -0.3289  1.2140
 5204TIP3    H237172   5.245   2.675   2.116 -0.9159 -0.1965 -0.8709
 5205TIP3   OH237173   0.799   4.964   8.105  0.2267  0.2822  0.2408
 5205TIP3    H137174   0.789   4.874   8.136  0.0584  0.4784  0.7624
 5205TIP3    H237175   0.880   4.962   8.053 -1.0241 -0.6916 -1.7682
 5206TIP3   OH237176   0.630   1.757   7.345  0.0725  0.3870 -0.0978
 5206TIP3    H137177   0.565   1.712   7.291 -1.9068  2.0615  0.7329
 5206TIP3    H237178   0.581   1.826   7.389  2.0261  0.4197  2.2480
 5207TIP3   OH237179   3.053   5.609   0.643 -0.3831 -0.0601  0.3532
 5207TIP3    H137180   3.044   5.583   0.735  2.4037  1.8268  1.3037
 5207TIP3    H237181   3.115   5.545   0.607  0.2028  0.4492  0.4347
 5208TIP3   OH237182   2.037   0.665   8.269 -0.2521 -0.0671 -0.2598
 5208TIP3    H137183   2.088   0.648   8.190 -0.6501 -0.8342 -0.3644
 5208TIP3    H237184   2.002   0.754   8.257 -0.1460 -0.1028 -0.8561
 5209TIP3   OH237185   0.966   5.090   0.616 -0.1236  0.3025 -0.0267
 5209TIP3    H137186   0.975   5.069   0.523 -0.8685  2.4020 -0.6137
 5209TIP3    H237187   1.027   5.030   0.660  0.9867 -0.0602 -1.9511
 5210TIP3   OH237188   4.601   5.539   8.737 -0.3436 -0.0824  0.4177
 5210TIP3    H137189   4.660   5.517   8.665 -0.1775  0.8165  0.2722
 5210TIP3    H237190   4.553   5.458   8.753 -0.6161 -0.2232 -0.9264
 5211TIP3   OH237191   3.836   5.049   2.041 -0.9843  0.1736  0.3969
 5211TIP3    H137192   3.798   4.980   2.094  0.2864 -0.1065  0.9746
 5211TIP3    H237193   3.906   5.086   2.095  2.1123 -1.7833 -1.8571
 5212TIP3   OH237194   2.624   6.741   0.531  0.8883  0.3269  0.2112
 5212TIP3    H137195   2.566   6.725   0.605 -0.2576  1.1957 -0.4485
 5212TIP3    H237196   2.659   6.655   0.508 -1.2098 -0.4784 -0.1858
 5213TIP3   OH237197   2.885   2.646   8.177  0.6166  0.1861 -0.0155
 5213TIP3    H137198   2.966   2.697   8.175  1.0896 -0.5432  0.2412
 5213TIP3    H237199   2.914   2.555   8.182 -0.1833 -0.2237 -1.7811
 5214TIP3   OH237200   2.193   2.425   7.443 -0.0313  0.1870 -0.4905
 5214TIP3    H137201   2.107   2.390   7.467  0.5913 -2.9352 -2.3095
 5214TIP3    H237202   2.255   2.365   7.484  1.1363 -0.1237 -2.5837
 5215TIP3   OH237203   3.898   3.299   8.464 -0.0435  0.0552 -0.7198
 5215TIP3    H137204   3.882   3.234   8.532  0.6347 -0.9896 -1.5304
 5215TIP3    H237205   3.921   3.379   8.512  0.4807 -0.6688  0.2807
 5216TIP3   OH237206   0.880   4.394   0.242 -0.0862 -0.5273  0.4367
 5216TIP3    H137207   0.912   4.309   0.274 -1.5392 -1.3230 -0.0738
 5216TIP3    H237208   0.788   4.377   0.221  0.2952  0.4105 -2.3928
 5217TIP3   OH237209   5.079   3.279   0.446  0.2272  0.2846  0.0237
 5217TIP3    H137210   5.130   3.200   0.430  2.4021  1.4446  0.8775
 5217TIP3    H237211   5.052   3.272   0.538  1.0009  0.8455  0.2955
 5218TIP3   OH237212   5.128   6.110   3.248  0.9958  0.1331 -0.3636
 5218TIP3    H137213   5.127   6.042   3.181  0.5411 -1.2609  1.0009
 5218TIP3    H237214   5.201   6.088   3.305  1.7756  1.6653 -0.7104
 5219TIP3   OH237215   3.633   0.991   7.837 -0.0443  0.1250 -0.3017
 5219TIP3    H137216   3.549   1.033   7.819 -1.1878 -1.3482  1.2936
 5219TIP3    H237217   3.668   0.970   7.750 -1.8869 -0.2673 -0.9863
 5220TIP3   OH237218   5.971   3.697   0.779  0.1829  0.4541 -0.2819
 5220TIP3    H137219   6.044   3.687   0.840  0.9861 -1.0240 -1.4076
 5220TIP3    H237220   5.907   3.751   0.826  1.9208  1.6753  0.7923
 5221TIP3   OH237221   1.511   5.263   8.633  0.0899 -0.0098 -0.8101
 5221TIP3    H137222   1.415   5.257   8.631 -0.0221  1.3838 -1.1437
 5221TIP3    H237223   1.529   5.357   8.621  1.4076  0.2470  2.1869
 5222TIP3   OH237224   1.948   0.687   7.307  0.3138  0.4515  0.1190
 5222TIP3    H137225   1.859   0.660   7.286  0.4101 -0.9251  1.3607
 5222TIP3    H237226   1.941   0.782   7.322 -1.5521  0.0103  2.9233
 5223TIP3   OH237227   1.941   3.305   6.728 -0.4758  0.3582  0.4448
 5223TIP3    H137228   2.020   3.341   6.769  1.4704 -2.9568  0.0260
 5223TIP3    H237229   1.891   3.267   6.800  0.0074 -0.3692  0.4123
 5224TIP3   OH237230   4.624   3.466   8.438  0.2697  0.1947 -0.5818
 5224TIP3    H137231   4.618   3.561   8.439  0.1872  0.2006 -1.3510
 5224TIP3    H237232   4.554   3.438   8.379 -0.1186 -0.3796  0.1285
 5225TIP3   OH237233   4.192   0.523   0.328  0.2671 -0.3454 -0.2261
 5225TIP3    H137234   4.167   0.572   0.407 -0.9668 -0.2302 -0.6667
 5225TIP3    H237235   4.253   0.580   0.282 -2.4682  1.6468 -1.6261
 5226TIP3   OH237236   0.314   3.211   7.219  0.0164 -0.6142 -0.0149
 5226TIP3    H137237   0.288   3.144   7.282 -3.3800  1.2463  0.7814
 5226TIP3    H237238   0.248   3.206   7.150 -0.9120  2.3873  0.5179
 5227TIP3   OH237239   6.376   6.460   0.985 -0.0515  0.2829  0.1833
 5227TIP3    H137240   6.439   6.388   0.993  0.7459  0.8276 -0.9777
 5227TIP3    H237241   6.321   6.435   0.910  1.7118  1.9298 -1.7524
 5228TIP3   OH237242   5.681   3.112   1.837 -0.2496  0.1625  0.0674
 5228TIP3    H137243   5.620   3.114   1.764 -0.4213 -0.6036  0.1847
 5228TIP3    H237244   5.632   3.149   1.911 -0.3078  0.2819 -0.0310
 5229TIP3   OH237245   0.850   3.363   2.879 -0.0010 -0.0808  0.1453
 5229TIP3    H137246   0.759   3.337   2.890  0.2445 -1.2988 -0.5005
 5229TIP3    H237247   0.901   3.290   2.915  0.7224  0.3766  0.0803
 5230TIP3   OH237248   3.784   5.191   2.393 -0.2884  0.1447  0.4796
 5230TIP3    H137249   3.774   5.232   2.479  0.4292  0.4242  0.4415
 5230TIP3    H237250   3.731   5.244   2.334  0.7284  1.1040  0.4104
 5231TIP3   OH237251   1.859   2.788   0.931 -0.2121 -0.2631  0.1355
 5231TIP3    H137252   1.904   2.729   0.991 -0.1689 -1.1357 -0.7225
 5231TIP3    H237253   1.929   2.842   0.895 -0.0396 -0.6447 -0.1183
 5232TIP3   OH237254   2.391   1.269   7.910 -0.2577  0.1416  0.2866
 5232TIP3    H137255   2.419   1.358   7.928  0.3440  0.0214 -0.0103
 5232TIP3    H237256   2.378   1.266   7.815 -2.0645  0.3997  0.4896
 5233TIP3   OH237257   0.416   3.328   1.199 -0.0144  0.0998 -0.7180
 5233TIP3    H137258   0.376   3.394   1.142  0.0060 -0.2187 -1.1115
 5233TIP3    H237259   0.464   3.271   1.139  0.2272 -0.0898 -0.3497
 5234TIP3   OH237260   3.659   2.753   1.071 -0.2316 -0.3535  0.7105
 5234TIP3    H137261   3.664   2.829   1.013  1.6520 -0.1218  1.1377
 5234TIP3    H237262   3.690   2.680   1.018 -0.8551 -0.6058  0.6851
 5235TIP3   OH237263   0.021   4.977   0.730  0.4930  0.4763  0.3741
 5235TIP3    H137264  -0.060   4.987   0.681  0.2160 -1.2005  0.4117
 5235TIP3    H237265  -0.004   4.989   0.822  0.3098  0.1199  0.3722
 5236TIP3   OH237266   2.328   5.969   7.254  0.8320  0.1621 -0.2153
 5236TIP3    H137267   2.240   5.934   7.263  1.4345 -2.0936 -1.8960
 5236TIP3    H237268   2.342   5.975   7.159  2.2607  1.0771  0.0155
 5237TIP3   OH237269   6.076   2.153   8.073  0.4317  0.4606  0.3352
 5237TIP3    H137270   6.002   2.142   8.012 -0.1470  2.3150  0.6398
 5237TIP3    H237271   6.138   2.084   8.048 -1.4337 -1.2666  0.1545
 5238TIP3   OH237272   0.782   4.836   8.748  0.1486 -0.0901 -0.3549
 5238TIP3    H137273   0.871   4.831   8.784 -0.1251  1.1166  0.5744
 5238TIP3    H237274   0.779   4.768   8.681  2.7542  1.7197 -2.5282
 5239TIP3   OH237275   0.382   5.366   2.688 -0.2334  0.3917  0.0236
 5239TIP3    H137276   0.373   5.318   2.770  3.2381  1.2978  1.0803
 5239TIP3    H237277   0.336   5.449   2.703 -1.4621 -0.2887  0.1957
 5240TIP3   OH237278   3.120   3.059   0.658  0.4181  0.4693  0.2795
 5240TIP3    H137279   3.211   3.028   0.651  0.2180  0.0222 -0.3825
 5240TIP3    H237280   3.129   3.153   0.675  1.0271  0.1765  1.8080
 5241TIP3   OH237281   5.823   6.404   8.448  0.2922 -0.0928  0.1809
 5241TIP3    H137282   5.746   6.384   8.395  0.3954 -0.0925  0.0297
 5241TIP3    H237283   5.796   6.476   8.504 -0.0652 -0.6149  0.6903
 5242TIP3   OH237284   3.134   5.255   0.979 -0.3513 -0.1489 -0.3418
 5242TIP3    H137285   3.132   5.251   1.074 -0.8994  0.1590 -0.3369
 5242TIP3    H237286   3.044   5.233   0.952  0.3805 -2.8109 -0.9038
 5243TIP3   OH237287   0.461   1.620   1.579 -0.2867  0.8473  0.5291
 5243TIP3    H137288   0.390   1.629   1.515  1.7957  2.0368 -1.8107
 5243TIP3    H237289   0.487   1.528   1.574 -0.5681  0.7886  0.1102
 5244TIP3   OH237290   6.373   1.467   2.967 -0.0112  0.0963 -0.1138
 5244TIP3    H137291   6.307   1.500   3.028  0.2754  1.4138 -0.4659
 5244TIP3    H237292   6.376   1.373   2.983 -1.0385  0.1950  0.8153
 5245TIP3   OH237293   5.193   0.458   1.340 -0.0322 -0.1709  0.4519
 5245TIP3    H137294   5.186   0.363   1.338 -1.1100 -0.2320  3.0617
 5245TIP3    H237295   5.116   0.489   1.293 -0.9586 -0.6589  1.5868
 5246TIP3   OH237296   1.332   1.353   0.736 -0.1218 -0.7971 -0.0580
 5246TIP3    H137297   1.340   1.318   0.647  2.8983 -0.1239 -0.1607
 5246TIP3    H237298   1.325   1.447   0.724  0.8197 -0.6591  0.3985
 5247TIP3   OH237299   6.744   5.857   7.569 -0.4230 -0.2685  0.3042
 5247TIP3    H137300   6.791   5.913   7.508  0.6177  0.7725  1.9817
 5247TIP3    H237301   6.697   5.794   7.513  2.7879 -1.2618 -1.5111
 5248TIP3   OH237302   4.381   6.497   2.056  0.4266 -0.0800  0.2557
 5248TIP3    H137303   4.379   6.478   1.962  0.5103  0.3208  0.1718
 5248TIP3    H237304   4.297   6.463   2.088  1.1077 -1.7436  0.3451
 5249TIP3   OH237305   0.655   3.633   8.463 -0.0190  0.2533 -0.1772
 5249TIP3    H137306   0.676   3.663   8.551  0.3775  0.5178 -0.3562
 5249TIP3    H237307   0.635   3.540   8.472 -0.0619  0.3011  0.2010
 5250TIP3   OH237308   6.739   5.247   1.113  0.2203 -0.0179  0.2689
 5250TIP3    H137309   6.720   5.316   1.177  2.6319 -0.5703  1.6846
 5250TIP3    H237310   6.726   5.289   1.028 -0.4707  1.5314  1.1004
 5251TIP3   OH237311   3.624   5.133   8.670 -0.3608  0.4822 -0.0294
 5251TIP3    H137312   3.688   5.075   8.713 -0.8860  0.0287  0.1522
 5251TIP3    H237313   3.587   5.080   8.600 -0.5383  0.7430 -0.1334
 5252TIP3   OH237314   1.100   3.025   7.429 -0.4358 -0.2525  0.2142
 5252TIP3    H137315   1.152   2.992   7.356 -0.3102  0.1666  0.1087
 5252TIP3    H237316   1.129   2.973   7.504  0.3246  0.1401  0.2076
 5253TIP3   OH237317   4.794   5.772   8.683  0.0037 -0.5515 -0.2687
 5253TIP3    H137318   4.707   5.733   8.689  0.7275 -2.1300  1.1092
 5253TIP3    H237319   4.789   5.852   8.735 -0.9195  0.0329 -1.2267
 5254TIP3   OH237320   4.020   3.021   2.933  0.0788 -0.3465  0.1978
 5254TIP3    H137321   3.972   3.027   2.850  0.3989 -1.7503 -0.1199
 5254TIP3    H237322   3.962   2.970   2.990  0.1502  0.0391  0.6173
 5255TIP3   OH237323   6.453   1.577   8.399  0.0796 -0.5475 -0.1325
 5255TIP3    H137324   6.470   1.661   8.441  0.6139 -0.4334 -0.5577
 5255TIP3    H237325   6.536   1.554   8.357  0.3613 -1.9426  1.0901
 5256TIP3   OH237326   0.890   4.052   7.963  0.2336  0.0984  0.3307
 5256TIP3    H137327   0.877   3.962   7.992  1.1746  0.1416  0.9443
 5256TIP3    H237328   0.950   4.090   8.028 -0.6618  1.3690  0.4656
 5257TIP3   OH237329   6.735   5.964   1.603 -0.6757  0.4527  0.0757
 5257TIP3    H137330   6.788   5.899   1.557  1.4807  0.7969  1.9147
 5257TIP3    H237331   6.662   5.914   1.640 -1.2070 -0.1891 -1.7322
 5258TIP3   OH237332   2.501   3.277   1.759 -0.0202 -0.2229  0.2546
 5258TIP3    H137333   2.444   3.210   1.797 -0.9091  1.3363  1.7937
 5258TIP3    H237334   2.589   3.255   1.790 -0.2682 -0.7847  0.5682
 5259TIP3   OH237335   4.282   3.096   0.851  0.1303 -0.3960 -0.0999
 5259TIP3    H137336   4.246   3.062   0.769 -1.0769 -1.2322  0.7366
 5259TIP3    H237337   4.372   3.120   0.830 -0.8558  1.7556 -2.2757
 5260TIP3   OH237338   5.440   4.090   1.506 -0.1551 -0.1161 -0.8833
 5260TIP3    H137339   5.485   4.120   1.585 -1.1081  0.2525 -0.4729
 5260TIP3    H237340   5.384   4.163   1.481 -1.1164 -0.8498 -0.9378
 5261TIP3   OH237341   6.688   5.472   1.819 -0.6305 -0.1097 -0.5422
 5261TIP3    H137342   6.720   5.465   1.730  0.7188 -1.4621  0.0119
 5261TIP3    H237343   6.764   5.454   1.874 -1.7459 -0.7998  0.8604
 5262TIP3   OH237344   5.607   4.814   1.374  0.0648 -0.2807  0.5186
 5262TIP3    H137345   5.546   4.745   1.348 -0.1926  0.4240 -0.8493
 5262TIP3    H237346   5.636   4.789   1.462 -1.2036 -1.3053  0.6739
 5263TIP3   OH237347   5.227   1.278   7.020  0.0221 -0.1626  0.1312
 5263TIP3    H137348   5.257   1.189   7.037  1.8413 -0.1466 -2.4764
 5263TIP3    H237349   5.290   1.333   7.068 -0.3161 -0.2323  0.6666
 5264TIP3   OH237350   5.868   5.452   2.409 -0.0636 -0.3049  0.3077
 5264TIP3    H137351   5.827   5.538   2.414 -2.0883 -1.2121  0.4900
 5264TIP3    H237352   5.797   5.391   2.427  1.3527 -2.0202  0.3497
 5265TIP3   OH237353   6.673   1.406   1.454 -0.1372 -0.4134  0.1164
 5265TIP3    H137354   6.650   1.317   1.429  0.8533 -0.5022 -0.5355
 5265TIP3    H237355   6.753   1.425   1.404  0.8242  0.1004  1.7570
 5266TIP3   OH237356   0.979   6.272   1.136 -0.3067 -0.1241  0.6243
 5266TIP3    H137357   0.989   6.334   1.063  0.5624 -0.6295  0.3107
 5266TIP3    H237358   0.928   6.200   1.099  0.4094 -0.5324  0.4083
 5267TIP3   OH237359   5.412   2.492   1.332 -0.6104  0.2779 -0.4915
 5267TIP3    H137360   5.493   2.467   1.376 -1.4584 -2.2756 -0.2336
 5267TIP3    H237361   5.347   2.497   1.402 -0.9426  1.0925 -0.8478
 5268TIP3   OH237362   0.844   4.581   8.638 -0.1358  0.5506  0.8739
 5268TIP3    H137363   0.927   4.625   8.620  0.0794 -0.5950 -1.2286
 5268TIP3    H237364   0.862   4.526   8.714  1.0666  0.2529  0.4004
 5269TIP3   OH237365   1.923   6.538   0.627 -0.3362 -0.4820  0.1999
 5269TIP3    H137366   1.925   6.611   0.689 -1.8442 -0.0775 -0.1781
 5269TIP3    H237367   2.012   6.505   0.626 -0.1727 -0.2655  2.3010
 5270TIP3   OH237368   3.710   6.163   0.774 -0.3721 -0.4952 -0.0732
 5270TIP3    H137369   3.702   6.258   0.785  2.1250 -0.3542  1.2727
 5270TIP3    H237370   3.667   6.144   0.691 -1.0604  1.7819 -0.2881
 5271TIP3   OH237371   6.383   3.618   8.142  0.1762 -0.2290  0.5250
 5271TIP3    H137372   6.468   3.574   8.146  0.7861  0.9318  0.8784
 5271TIP3    H237373   6.361   3.620   8.049  0.6307 -0.3400  0.4153
 5272TIP3   OH237374   2.413   5.118   7.985 -0.0400 -0.3526 -0.1506
 5272TIP3    H137375   2.397   5.027   7.961  0.6259 -0.6463  0.4918
 5272TIP3    H237376   2.507   5.124   7.999 -0.0792  0.4255 -0.1358
 5273TIP3   OH237377   6.319   0.556   0.817  0.1592  0.3008  0.5586
 5273TIP3    H137378   6.322   0.634   0.762 -1.4803  1.3329  1.7955
 5273TIP3    H237379   6.373   0.578   0.893  2.8408 -1.3094 -0.7644
 5274TIP3   OH237380   3.638   6.639   7.553 -0.1187  0.3045  0.0778
 5274TIP3    H137381   3.592   6.581   7.614 -0.6554 -0.1337 -0.7210
 5274TIP3    H237382   3.575   6.655   7.483  0.8093  0.0122 -0.8496
 5275TIP3   OH237383   0.028   0.719   0.909  0.1535  0.0517  0.0568
 5275TIP3    H137384   0.064   0.798   0.948 -0.7617 -0.1094  1.2654
 5275TIP3    H237385   0.087   0.700   0.835 -0.9525  3.1481 -1.7832
 5276TIP3   OH237386   0.406   5.320   2.347 -1.1257  0.4716 -0.2120
 5276TIP3    H137387   0.415   5.225   2.342  1.8172  0.7013 -0.7720
 5276TIP3    H237388   0.400   5.348   2.256 -0.3779  0.9259 -0.1262
 5277TIP3   OH237389   5.055   0.903   7.001  0.2240  0.3084 -0.2972
 5277TIP3    H137390   5.108   0.837   6.955 -0.2847  0.5530 -1.2593
 5277TIP3    H237391   5.111   0.980   7.005  0.3350  0.2308 -0.3558
 5278TIP3   OH237392   6.559   2.519   0.662 -0.1365 -0.1156  0.1278
 5278TIP3    H137393   6.561   2.471   0.579  0.5165 -2.7570  1.5588
 5278TIP3    H237394   6.651   2.533   0.685 -0.2819 -0.3566  0.8983
 5279TIP3   OH237395   3.468   2.202   0.720  0.1131  0.4511  0.0189
 5279TIP3    H137396   3.446   2.295   0.710 -0.0138  0.2868 -1.3448
 5279TIP3    H237397   3.545   2.202   0.776  1.5346  1.5573 -1.8276
 5280TIP3   OH237398   0.333   6.654   2.584 -0.2702  1.1267  0.1147
 5280TIP3    H137399   0.375   6.688   2.663  3.1671  2.1800 -1.9502
 5280TIP3    H237400   0.341   6.559   2.591  1.8559  1.2683  0.2168
 5281TIP3   OH237401   1.936   4.859   0.764 -0.4895  0.0386  0.9141
 5281TIP3    H137402   1.850   4.895   0.743 -0.6010 -0.8031 -0.1585
 5281TIP3    H237403   1.998   4.915   0.718 -0.6790 -1.2257 -1.0005
 5282TIP3   OH237404   2.133   3.479   0.070  0.1176  0.1772  0.1566
 5282TIP3    H137405   2.042   3.456   0.086 -0.2266  1.1710 -0.3042
 5282TIP3    H237406   2.139   3.491  -0.025  1.1510 -1.5699 -0.0481
 5283TIP3   OH237407   1.183   0.493   1.900  0.5144  0.2819 -0.7058
 5283TIP3    H137408   1.131   0.571   1.880 -2.1087 -1.2651 -0.3903
 5283TIP3    H237409   1.255   0.496   1.837 -0.1286  2.3476 -1.4400
 5284TIP3   OH237410   4.093   0.380   1.638  0.0649 -0.5449  0.8819
 5284TIP3    H137411   4.098   0.370   1.733  1.8652 -1.5009  0.7263
 5284TIP3    H237412   4.075   0.291   1.605 -0.0367 -0.3200  0.3151
 5285TIP3   OH237413   2.240   2.137   7.893 -0.0452  0.5758  0.0825
 5285TIP3    H137414   2.199   2.051   7.887 -2.0564  1.4517  0.5268
 5285TIP3    H237415   2.188   2.193   7.835  2.6974  1.0473 -2.1494
 5286TIP3   OH237416   5.229   2.223   2.849  0.1027  0.0885 -0.7197
 5286TIP3    H137417   5.140   2.256   2.839 -0.2072 -0.5662 -0.1739
 5286TIP3    H237418   5.258   2.253   2.935  0.1629 -0.2566 -0.6163
 5287TIP3   OH237419   6.115   3.148   2.262 -0.5364 -0.3392  0.3480
 5287TIP3    H137420   6.190   3.207   2.258  0.3063 -1.4355 -0.9446
 5287TIP3    H237421   6.106   3.126   2.355  1.3200 -0.8733  0.4469
 5288TIP3   OH237422   6.033   5.896   3.590  0.2915 -0.2046  0.0682
 5288TIP3    H137423   6.121   5.928   3.571 -0.1748  1.2720  0.2931
 5288TIP3    H237424   6.029   5.810   3.548  1.7614 -0.1991 -0.1182
 5289TIP3   OH237425   4.489   3.412   1.095 -0.1326 -0.4841 -0.1359
 5289TIP3    H137426   4.411   3.373   1.135 -0.2852 -0.3250 -0.2817
 5289TIP3    H237427   4.470   3.506   1.093  0.2566 -0.3927  0.2632
 5290TIP3   OH237428   4.215   5.490   1.880  0.1297  0.4289 -0.6897
 5290TIP3    H137429   4.217   5.566   1.937  0.1333  0.6046 -0.9202
 5290TIP3    H237430   4.181   5.419   1.934 -2.2021  1.1500 -1.1192
 5291TIP3   OH237431   1.487   4.712   1.860 -0.3504 -0.0093 -0.6185
 5291TIP3    H137432   1.437   4.632   1.850  0.0259 -0.3185 -0.0397
 5291TIP3    H237433   1.454   4.770   1.791 -2.2703  0.1990  0.4092
 5292TIP3   OH237434   4.731   0.122   6.632 -0.4839  0.0719 -0.6083
 5292TIP3    H137435   4.738   0.067   6.553 -1.0197 -1.4037  0.3304
 5292TIP3    H237436   4.822   0.135   6.659 -0.3685 -2.1143  0.2793
 5293TIP3   OH237437   1.922   0.069   0.230  0.0612 -0.0267  0.2811
 5293TIP3    H137438   1.912   0.163   0.217 -0.9059 -0.2317 -0.6297
 5293TIP3    H237439   2.016   0.054   0.229  0.2094  0.8514 -0.2650
 5294TIP3   OH237440   0.859   2.129   0.638  0.5907 -0.8886  0.2315
 5294TIP3    H137441   0.809   2.048   0.626  1.9852 -1.7878  0.1415
 5294TIP3    H237442   0.871   2.135   0.733 -0.7219  0.0045  0.3549
 5295TIP3   OH237443   5.293   4.298   2.120 -0.6470  0.1826  0.0803
 5295TIP3    H137444   5.224   4.274   2.058 -0.6428 -0.1707  0.2145
 5295TIP3    H237445   5.249   4.304   2.204 -0.9752  2.1749 -0.1748
 5296TIP3   OH237446   1.685   0.828   8.648  0.0349  0.8943  0.3384
 5296TIP3    H137447   1.697   0.743   8.689  0.8326  1.8329  2.2128
 5296TIP3    H237448   1.683   0.810   8.554  2.8693 -0.9390  0.4999
 5297TIP3   OH237449   3.777   5.901   1.115 -0.5867 -0.0450  0.1373
 5297TIP3    H137450   3.844   5.837   1.141  0.4181  1.0906  0.4356
 5297TIP3    H237451   3.737   5.929   1.197  1.3528  2.2110  0.4068
 5298TIP3   OH237452   0.493   1.335   1.612  0.3363 -0.2783  0.5107
 5298TIP3    H137453   0.400   1.319   1.623  0.3526 -0.5709  0.2361
 5298TIP3    H237454   0.534   1.297   1.690  0.2001  0.1292  0.7844
 5299TIP3   OH237455   6.420   6.155   8.431  0.3358  0.0511  0.3696
 5299TIP3    H137456   6.481   6.213   8.386 -1.5207 -0.5589 -3.3265
 5299TIP3    H237457   6.338   6.204   8.434 -0.3604 -1.0809  0.3658
 5300TIP3   OH237458   3.694   6.677   1.940 -0.1971 -0.3307 -0.2775
 5300TIP3    H137459   3.659   6.765   1.929 -0.6236 -0.3782  0.6505
 5300TIP3    H237460   3.755   6.666   1.866 -0.2719  0.6659 -0.4954
 5301TIP3   OH237461   6.281   4.522   1.544  0.1252 -0.3500 -0.0871
 5301TIP3    H137462   6.323   4.608   1.538 -0.5665 -0.0556 -0.9262
 5301TIP3    H237463   6.304   4.490   1.631  0.9036  0.4170 -0.0004
 5302TIP3   OH237464   1.353   6.754   1.361 -0.2576 -0.3148  0.4675
 5302TIP3    H137465   1.311   6.674   1.393 -0.0336  0.0720  1.7502
 5302TIP3    H237466   1.298   6.781   1.287  0.8464 -2.8019 -1.4234
 5303TIP3   OH237467   3.526   2.325   2.078  0.7386 -0.1265  0.4850
 5303TIP3    H137468   3.477   2.350   2.000 -0.6653 -0.2087  1.3121
 5303TIP3    H237469   3.613   2.363   2.065 -0.1446  1.8626 -0.0827
 5304TIP3   OH237470   3.624   6.586   1.502  0.2236 -0.2551  0.0848
 5304TIP3    H137471   3.625   6.566   1.596 -1.6144 -0.9458 -0.0107
 5304TIP3    H237472   3.555   6.651   1.491 -0.0133 -0.6507 -0.8749
 5305TIP3   OH237473   3.309   5.309   7.819  0.1127 -0.0536 -0.2904
 5305TIP3    H137474   3.219   5.280   7.832  0.7520 -2.5729 -0.9972
 5305TIP3    H237475   3.356   5.231   7.788  2.8455  0.7997  1.3206
 5306TIP3   OH237476   4.874   4.658   0.688 -0.3502  0.7870 -0.0415
 5306TIP3    H137477   4.837   4.637   0.602 -1.9371  0.7956  0.6066
 5306TIP3    H237478   4.850   4.584   0.743  0.9596  0.6165  0.3325
 5307TIP3   OH237479   4.875   3.490   8.551 -0.3903 -0.0977  0.1331
 5307TIP3    H137480   4.784   3.471   8.531  0.1878 -0.4341 -2.5289
 5307TIP3    H237481   4.882   3.586   8.544 -0.3773 -0.1438 -0.6327
 5308TIP3   OH237482   6.047   3.998   7.604 -0.0636  0.2809  0.2873
 5308TIP3    H137483   5.961   3.991   7.562 -0.1678 -0.7639  0.6529
 5308TIP3    H237484   6.080   4.083   7.576 -1.0816  0.5610 -0.1150
 5309TIP3   OH237485   5.418   1.757   0.603  0.1140 -0.0408 -0.0925
 5309TIP3    H137486   5.365   1.800   0.670  2.0173  1.7599  0.3631
 5309TIP3    H237487   5.488   1.714   0.652  1.1255  0.6907 -0.8598
 5310TIP3   OH237488   6.421   1.206   1.544 -0.0894 -0.1277  0.2320
 5310TIP3    H137489   6.370   1.179   1.469 -0.8851  0.5284  0.5144
 5310TIP3    H237490   6.509   1.171   1.529 -0.0007  0.7281 -1.4260
 5311TIP3   OH237491   4.306   5.375   1.200  0.0325  0.3788  0.0062
 5311TIP3    H137492   4.370   5.439   1.170  1.1418 -1.0357 -0.8152
 5311TIP3    H237493   4.356   5.315   1.256 -1.2646  0.9613  1.8914
 5312TIP3   OH237494   2.842   2.133   0.668  0.0460  0.2203 -0.1762
 5312TIP3    H137495   2.878   2.139   0.579  0.2334  4.2836 -0.0226
 5312TIP3    H237496   2.750   2.159   0.658 -0.4579 -1.1513  0.6267
 5313TIP3   OH237497   5.853   2.220   2.059  0.2207 -0.1121  0.2661
 5313TIP3    H137498   5.916   2.148   2.056  2.8377  1.8558  2.3798
 5313TIP3    H237499   5.864   2.264   1.975 -2.1948 -2.5763 -1.5267
 5314TIP3   OH237500   0.596   6.423   7.317 -0.1143 -0.1205 -0.2014
 5314TIP3    H137501   0.626   6.346   7.269 -0.7706 -1.5289  1.5421
 5314TIP3    H237502   0.521   6.455   7.267  1.4508  0.7376 -2.1135
 5315TIP3   OH237503   3.159   4.371   8.296 -0.3635  0.6106  0.3475
 5315TIP3    H137504   3.099   4.443   8.280 -0.7878  0.4770  1.2942
 5315TIP3    H237505   3.131   4.334   8.380  0.3022 -0.1932  0.2302
 5316TIP3   OH237506   4.057   6.649   0.636 -0.6224  0.4431 -0.5796
 5316TIP3    H137507   4.056   6.711   0.564 -3.1904 -0.9982 -1.9154
 5316TIP3    H237508   4.059   6.563   0.594 -0.6002 -0.4299  1.1033
 5317TIP3   OH237509   4.210   5.084   2.427 -0.1452  0.9234 -0.1229
 5317TIP3    H137510   4.186   5.135   2.505 -0.4690  0.5836  0.0101
 5317TIP3    H237511   4.300   5.108   2.409 -0.0602  0.9948  0.3729
 5318TIP3   OH237512   5.659   3.342   0.844  0.0542 -0.2778 -0.4708
 5318TIP3    H137513   5.718   3.274   0.814  1.4780  1.4716 -1.8847
 5318TIP3    H237514   5.708   3.387   0.913 -0.0423  0.5194 -0.9072
 5319TIP3   OH237515   6.648   3.642   8.262 -0.5545 -0.1962 -1.2827
 5319TIP3    H137516   6.720   3.702   8.285 -1.3730  0.4708 -0.3760
 5319TIP3    H237517   6.680   3.596   8.185  1.5513 -1.1301  0.0542
 5320TIP3   OH237518   3.786   2.289   1.262 -0.2501  0.4934 -0.9692
 5320TIP3    H137519   3.699   2.278   1.224 -0.9239  0.9740  0.3535
 5320TIP3    H237520   3.793   2.383   1.280 -0.3991  0.1666  0.9986
 5321TIP3   OH237521   2.137   6.090   7.030 -0.0861 -0.3635  0.2803
 5321TIP3    H137522   2.172   6.002   7.042  0.2003 -0.4624 -1.1262
 5321TIP3    H237523   2.045   6.084   7.056 -0.1234 -1.1393 -0.0198
 5322TIP3   OH237524   4.367   2.706   1.215  0.2905 -0.3100  0.5616
 5322TIP3    H137525   4.365   2.796   1.247  1.1977 -0.0646 -0.0329
 5322TIP3    H237526   4.275   2.681   1.207 -0.0128  1.0679 -0.6407
 5323TIP3   OH237527   0.757   6.336   0.762 -0.0909  0.3479  0.3751
 5323TIP3    H137528   0.816   6.331   0.836  1.5742 -2.9889 -0.9286
 5323TIP3    H237529   0.812   6.316   0.686 -2.3804 -0.2858 -1.2476
 5324TIP3   OH237530   6.509   1.457   0.769  0.3163 -0.3323  0.5519
 5324TIP3    H137531   6.559   1.439   0.689  0.3472 -1.5912  0.8268
 5324TIP3    H237532   6.434   1.397   0.765 -0.9932  1.2377  0.3440
 5325TIP3   OH237533   0.186   5.064   3.047  0.7043 -0.0046 -0.2701
 5325TIP3    H137534   0.182   5.008   2.970  0.8458 -0.1814 -0.1495
 5325TIP3    H237535   0.220   5.008   3.116  0.7110  0.1911 -0.1125
 5326TIP3   OH237536   2.605   5.242   1.253 -0.4828 -0.2350 -0.4165
 5326TIP3    H137537   2.536   5.277   1.197 -0.7664 -1.7208 -1.0267
 5326TIP3    H237538   2.606   5.300   1.329 -0.7896  1.2035 -1.4669
 5327TIP3   OH237539   2.667   3.703   2.072  0.5875  0.0755 -0.1091
 5327TIP3    H137540   2.662   3.764   2.146 -1.1160 -1.7028  1.3444
 5327TIP3    H237541   2.612   3.744   2.005  0.2641  0.6308  0.4707
 5328TIP3   OH237542   1.348   5.252   8.372  0.0888  0.1308  0.1159
 5328TIP3    H137543   1.254   5.268   8.377  0.0967 -0.3412  3.1327
 5328TIP3    H237544   1.388   5.339   8.378 -0.1371  0.1900  0.8314
 5329TIP3   OH237545   1.626   0.631   8.104 -0.4206 -0.7581 -0.7190
 5329TIP3    H137546   1.678   0.606   8.028  0.7686 -0.1565 -0.1170
 5329TIP3    H237547   1.599   0.721   8.087  0.8834 -0.1922  0.1083
 5330TIP3   OH237548   1.023   5.061   0.344 -0.1855  0.1806 -0.1894
 5330TIP3    H137549   0.994   5.132   0.287 -1.0504 -0.2055 -0.2470
 5330TIP3    H237550   1.020   4.982   0.289 -0.0334 -0.0323  0.1013
 5331TIP3   OH237551   2.261   2.091   8.490 -0.5710  0.7564  0.3362
 5331TIP3    H137552   2.175   2.047   8.492 -0.2327  0.0685  0.0440
 5331TIP3    H237553   2.265   2.132   8.404 -1.0971  1.8143  0.7952
 5332TIP3   OH237554   6.337   1.724   7.584 -0.2694 -0.4242 -0.2629
 5332TIP3    H137555   6.380   1.661   7.527  1.7728  0.1855  0.5189
 5332TIP3    H237556   6.377   1.808   7.562 -0.5573  0.0685  0.9674
 5333TIP3   OH237557   1.183   1.571   7.367  0.5473  0.3692 -0.4389
 5333TIP3    H137558   1.243   1.498   7.351 -0.5730 -0.6406 -0.1070
 5333TIP3    H237559   1.231   1.629   7.427  0.8218 -0.9137  0.6187
 5334TIP3   OH237560   4.594   5.576   2.029 -0.2513 -0.9738 -0.4805
 5334TIP3    H137561   4.520   5.516   2.016 -0.6376 -0.8718  1.0738
 5334TIP3    H237562   4.653   5.529   2.088  1.2391 -1.2783 -2.1329
 5335TIP3   OH237563   1.440   6.780   2.481  0.4959  0.6370  0.3251
 5335TIP3    H137564   1.528   6.805   2.506  0.4733  3.1788 -1.7441
 5335TIP3    H237565   1.383   6.830   2.539  0.4681  2.2033 -0.9860
 5336TIP3   OH237566   6.795   0.355   0.782  0.4721  0.5414 -0.5137
 5336TIP3    H137567   6.887   0.357   0.754  0.8349 -0.3882  0.5531
 5336TIP3    H237568   6.770   0.263   0.774  0.1218  0.5178  0.6978
 5337TIP3   OH237569   1.091   4.205   2.966  0.2414 -0.1372  0.1684
 5337TIP3    H137570   1.154   4.134   2.951 -1.2454 -1.6760  0.9298
 5337TIP3    H237571   1.006   4.167   2.944 -0.4959  1.8012 -0.5581
 5338TIP3   OH237572   0.146   6.034   1.727 -0.0688  0.0527 -0.1293
 5338TIP3    H137573   0.056   6.000   1.723 -0.4053  1.0119 -1.0678
 5338TIP3    H237574   0.136   6.122   1.763  0.6633 -0.3238  1.0623
 5339TIP3   OH237575   4.841   2.090   1.420  0.3055  0.0026 -0.7030
 5339TIP3    H137576   4.821   2.045   1.503  1.1170 -0.1305 -0.5699
 5339TIP3    H237577   4.769   2.065   1.362 -0.3294  0.1809 -0.0106
 5340TIP3   OH237578   5.109   2.285   8.672 -0.5711  0.1287 -0.1285
 5340TIP3    H137579   5.169   2.285   8.597 -1.1063 -1.3698 -0.5939
 5340TIP3    H237580   5.153   2.339   8.738  0.2113  0.9533 -1.2819
 5341TIP3   OH237581   4.063   6.268   7.511 -0.2054 -0.2976  0.2258
 5341TIP3    H137582   4.158   6.269   7.523 -0.1626 -0.3991 -0.0873
 5341TIP3    H237583   4.028   6.242   7.596  0.0222  0.2235  0.4842
 5342TIP3   OH237584   2.828   2.815   8.434  0.0342 -0.3783  0.2728
 5342TIP3    H137585   2.839   2.795   8.341  0.6894 -0.0531  0.2757
 5342TIP3    H237586   2.733   2.823   8.445 -0.2813 -3.2281  0.2326
 5343TIP3   OH237587   0.433   6.353   0.663  0.6314  0.1357  0.1260
 5343TIP3    H137588   0.380   6.379   0.587  2.6319  1.5637 -0.8893
 5343TIP3    H237589   0.385   6.280   0.702 -0.7482 -0.3379 -2.2242
 5344TIP3   OH237590   5.264   1.909   1.559 -0.1782 -0.5324  0.0260
 5344TIP3    H137591   5.168   1.909   1.550 -0.4609 -0.0661  2.3874
 5344TIP3    H237592   5.289   1.818   1.546 -0.8492 -0.5642 -1.2090
 5345TIP3   OH237593   3.568   2.342   1.485  0.2091  0.0525 -0.1212
 5345TIP3    H137594   3.617   2.407   1.535  0.4124  0.3503 -0.6945
 5345TIP3    H237595   3.569   2.263   1.540  2.0565 -0.2083 -0.4784
 5346TIP3   OH237596   1.694   3.585   2.570 -0.3822 -0.1343 -0.3628
 5346TIP3    H137597   1.725   3.531   2.497  0.3035  1.0173 -0.9463
 5346TIP3    H237598   1.736   3.670   2.557  0.1862 -0.0445  1.6681
 5347TIP3   OH237599   0.501   1.759   0.618 -0.0142 -0.1826 -0.1922
 5347TIP3    H137600   0.474   1.668   0.627  1.0133 -0.4319  0.7220
 5347TIP3    H237601   0.514   1.772   0.524  0.2111 -1.1024 -0.2938
 5348TIP3   OH237602   3.068   0.789   2.469 -0.1264 -0.5482  0.2068
 5348TIP3    H137603   3.042   0.799   2.561 -0.0732 -0.6306  0.2314
 5348TIP3    H237604   3.145   0.845   2.460  1.2815 -2.2825  0.8162
 5349TIP3   OH237605   6.150   4.639   1.053  0.4434 -0.1680  0.5317
 5349TIP3    H137606   6.179   4.549   1.037  2.1503  0.3186  0.7041
 5349TIP3    H237607   6.179   4.687   0.975 -0.0314  0.3270  0.6591
 5350TIP3   OH237608   0.492   2.617   7.655 -0.4446  0.0040  0.1780
 5350TIP3    H137609   0.406   2.658   7.645 -0.3769  0.3524  0.9818
 5350TIP3    H237610   0.494   2.550   7.586 -0.8955  0.7608 -0.5956
 5351TIP3   OH237611   4.469   3.976   1.733 -0.3330  0.4151  0.3378
 5351TIP3    H137612   4.413   4.027   1.791  1.2229  3.2188 -0.4130
 5351TIP3    H237613   4.409   3.924   1.680 -2.2230  2.6367  0.1366
 5352TIP3   OH237614   4.723   4.013   2.223  0.1796  0.3983 -0.0617
 5352TIP3    H137615   4.650   3.982   2.275  0.0791 -1.3339 -1.1520
 5352TIP3    H237616   4.682   4.053   2.146  0.3543 -0.7132 -0.7478
 5353TIP3   OH237617   0.686   6.543   0.578  0.0638 -0.3970  0.2239
 5353TIP3    H137618   0.669   6.466   0.632 -0.2646 -0.3196  0.2310
 5353TIP3    H237619   0.671   6.514   0.488 -0.3801 -0.2567  0.2500
 5354TIP3   OH237620   0.720   0.527   0.435 -0.2929  0.4258  0.3333
 5354TIP3    H137621   0.648   0.589   0.447 -0.1661  0.7397 -0.4495
 5354TIP3    H237622   0.770   0.563   0.362  0.4127 -0.0187  0.5867
 5355TIP3   OH237623   3.458   1.213   0.578 -0.1305  0.1498 -0.1509
 5355TIP3    H137624   3.475   1.127   0.540 -0.5236 -0.0353  0.0872
 5355TIP3    H237625   3.521   1.221   0.649 -2.3116 -1.4299  2.1303
 5356TIP3   OH237626   0.340   3.156   0.916  0.5169 -0.0956 -0.2443
 5356TIP3    H137627   0.431   3.186   0.913  0.7654 -0.8579 -0.6083
 5356TIP3    H237628   0.297   3.202   0.844  0.8485 -0.4512 -0.6804
 5357TIP3   OH237629   0.866   1.937   3.102  0.1623 -0.1662 -0.2448
 5357TIP3    H137630   0.781   1.902   3.074 -0.1800  0.1256  0.3902
 5357TIP3    H237631   0.930   1.878   3.064 -0.2993 -0.0416 -1.2432
 5358TIP3   OH237632   0.470   6.705   0.262 -0.3418 -0.0164  0.1767
 5358TIP3    H137633   0.455   6.665   0.348  0.1193  0.2429  0.3809
 5358TIP3    H237634   0.468   6.799   0.279 -0.8195  0.0475 -0.1982
 5359TIP3   OH237635   2.839   1.799   8.261  0.1070  0.2015 -0.0890
 5359TIP3    H137636   2.836   1.739   8.187  0.7649  0.6810 -0.5127
 5359TIP3    H237637   2.928   1.834   8.260 -0.0953  0.7509  0.5010
 5360TIP3   OH237638   3.939   1.027   8.562  0.3373  0.3204  0.3859
 5360TIP3    H137639   3.852   1.067   8.558 -1.1392 -2.5867  0.7155
 5360TIP3    H237640   3.944   0.989   8.650  0.2302 -2.8410 -0.8250
 5361TIP3   OH237641   1.876   0.565   0.305 -0.4108 -0.0232  0.4124
 5361TIP3    H137642   1.938   0.503   0.345 -2.0701 -0.8130  1.8816
 5361TIP3    H237643   1.862   0.631   0.372 -1.1879  0.1262  0.1096
 5362TIP3   OH237644   5.108   4.443   8.713 -0.4665  0.0155 -0.0442
 5362TIP3    H137645   5.036   4.502   8.736 -1.0562 -0.7125  0.0161
 5362TIP3    H237646   5.086   4.412   8.626  1.0802  1.7263 -1.1312
 5363TIP3   OH237647   1.537   6.132   1.263  0.4230  0.2489  0.2320
 5363TIP3    H137648   1.608   6.189   1.293  0.3206  0.2563  0.4612
 5363TIP3    H237649   1.582   6.053   1.232  0.5946  0.6397 -0.5238
 5364TIP3   OH237650   1.404   2.920   1.469 -0.5285  0.4825  0.4532
 5364TIP3    H137651   1.385   3.013   1.454 -1.6596  0.0576 -0.9717
 5364TIP3    H237652   1.413   2.884   1.381 -0.1843 -0.7867  0.9936
 5365TIP3   OH237653   1.778   5.853   8.544 -0.0082 -0.3885  0.0152
 5365TIP3    H137654   1.821   5.869   8.629 -1.6651  0.3127  0.7675
 5365TIP3    H237655   1.850   5.851   8.481  1.1550  0.3384  1.2595
 5366TIP3   OH237656   4.964   0.896   7.395 -0.1739 -0.0418 -0.4235
 5366TIP3    H137657   4.951   0.875   7.488  2.1412 -3.5246 -0.6613
 5366TIP3    H237658   5.052   0.933   7.391 -0.8114  1.4580 -1.1293
 5367TIP3   OH237659   4.551   4.785   8.375  0.0124  0.5656 -0.0725
 5367TIP3    H137660   4.566   4.702   8.420 -1.2873  0.2460 -0.1870
 5367TIP3    H237661   4.618   4.787   8.306 -1.0965 -1.3042 -1.2921
 5368TIP3   OH237662   3.450   3.151   8.745 -0.5308  0.1321  0.1971
 5368TIP3    H137663   3.482   3.086   8.808 -1.6840 -1.5540 -0.8503
 5368TIP3    H237664   3.362   3.121   8.724 -0.0172  0.3337 -2.5650
 5369TIP3   OH237665   0.055   6.726   0.682  0.2442 -0.0246 -0.4779
 5369TIP3    H137666   0.038   6.638   0.648 -1.6889 -0.2486  0.8880
 5369TIP3    H237667   0.112   6.766   0.617  1.3377 -2.3361 -1.0648
 5370TIP3   OH237668   2.507   1.367   1.202  0.4128 -0.6000  0.3011
 5370TIP3    H137669   2.420   1.331   1.217  0.7204 -1.1798  0.7011
 5370TIP3    H237670   2.555   1.350   1.283  0.6354  0.5118  0.4168
 5371TIP3   OH237671   5.754   4.441   8.726  0.4436  0.0798  0.5668
 5371TIP3    H137672   5.738   4.435   8.820  0.8352  1.5132  0.7429
 5371TIP3    H237673   5.827   4.381   8.710  1.0305  0.5747  1.3447
 5372TIP3   OH237674   2.701   3.662   2.631  0.0550  0.6500  0.0993
 5372TIP3    H137675   2.698   3.700   2.544  0.4492 -1.3611 -0.8615
 5372TIP3    H237676   2.758   3.720   2.681 -1.0035  2.3966 -0.6566
 5373TIP3   OH237677   1.721   0.544   0.010  0.3336  0.0738  0.4621
 5373TIP3    H137678   1.670   0.534   0.090  1.0856  0.4021  0.9889
 5373TIP3    H237679   1.805   0.579   0.038 -0.4739  3.4217 -0.7418
 5374TIP3   OH237680   1.624   4.065   6.799  0.2466 -0.9056  0.0516
 5374TIP3    H137681   1.592   4.139   6.850  1.8421 -0.4150  0.4057
 5374TIP3    H237682   1.569   4.063   6.721  0.4185  0.9005 -0.1473
 5375TIP3   OH237683   3.021   4.872   0.219 -0.2306  0.0645  0.3187
 5375TIP3    H137684   3.115   4.854   0.230 -0.2228 -0.4921 -0.5289
 5375TIP3    H237685   2.996   4.920   0.298  0.1446 -2.2783  1.9822
 5376TIP3   OH237686   5.238   2.642   0.053 -0.2963  0.0619  0.2807
 5376TIP3    H137687   5.265   2.597  -0.027 -2.6327 -0.9543 -0.0276
 5376TIP3    H237688   5.277   2.590   0.124 -0.1754 -0.4630 -0.1608
 5377TIP3   OH237689   4.787   0.810   8.166  0.3243  0.0178  0.2150
 5377TIP3    H137690   4.734   0.730   8.157 -0.1635  0.3835 -0.1801
 5377TIP3    H237691   4.814   0.810   8.258  0.8345 -0.9166  0.0861
 5378TIP3   OH237692   2.749   2.142   6.892 -0.3374  0.1473 -0.7133
 5378TIP3    H137693   2.844   2.149   6.879 -0.2454 -0.1872 -0.2208
 5378TIP3    H237694   2.722   2.231   6.914  0.2905 -0.2423  1.8685
 5379TIP3   OH237695   0.644   5.415   1.329  0.4803  0.1809 -0.1101
 5379TIP3    H137696   0.735   5.412   1.356  0.2052 -2.4846  0.7533
 5379TIP3    H237697   0.640   5.363   1.248 -0.5747 -1.7573  1.1076
 5380TIP3   OH237698   2.428   2.630   1.342 -0.3168  0.0323  0.2505
 5380TIP3    H137699   2.442   2.541   1.309  0.2851  0.7616 -1.6140
 5380TIP3    H237700   2.340   2.629   1.378 -0.5356 -1.1771 -0.2793
 5381TIP3   OH237701   4.689   5.529   8.361 -0.0491 -0.4590  0.3909
 5381TIP3    H137702   4.724   5.607   8.316  1.0722 -0.7729  0.6809
 5381TIP3    H237703   4.764   5.495   8.411 -0.8844 -0.9644  1.3259
 5382TIP3   OH237704   4.929   0.447   1.246 -0.2400 -0.1264 -0.2653
 5382TIP3    H137705   4.893   0.536   1.250  1.6368  0.6732  0.0552
 5382TIP3    H237706   4.856   0.391   1.273 -1.3859  1.3286 -0.1580
 5383TIP3   OH237707   5.103   2.001   7.265  0.1241 -0.5832  0.0394
 5383TIP3    H137708   5.051   1.972   7.190 -1.2379  1.1439  0.2573
 5383TIP3    H237709   5.192   1.969   7.247 -1.0075 -4.0151 -0.1315
 5384TIP3   OH237710   4.186   5.193   0.415 -0.4495 -0.5286 -0.5696
 5384TIP3    H137711   4.254   5.131   0.442 -2.4034 -3.0188 -0.9260
 5384TIP3    H237712   4.151   5.226   0.498 -0.6309 -1.4063 -0.2765
 5385TIP3   OH237713   5.299   3.929   8.292 -0.1214  0.0217  0.3965
 5385TIP3    H137714   5.321   3.922   8.199  0.7275 -1.9430  0.7046
 5385TIP3    H237715   5.377   3.967   8.332 -0.3011  0.3948  0.4038
 5386TIP3   OH237716   2.078   0.181   8.192  0.1672  0.8608  0.0171
 5386TIP3    H137717   2.147   0.136   8.144 -0.8263  0.3020 -0.9381
 5386TIP3    H237718   2.023   0.110   8.226  0.3760  1.2739  1.2712
 5387TIP3   OH237719   3.360   1.558   0.808  0.3907 -0.2957 -0.3028
 5387TIP3    H137720   3.427   1.557   0.876 -0.0727  0.2628  0.1720
 5387TIP3    H237721   3.288   1.506   0.844 -0.9187  2.1314  0.7694
 5388TIP3   OH237722   5.275   2.856   8.115 -0.4259  0.4804  0.3632
 5388TIP3    H137723   5.257   2.869   8.208  1.0186 -0.2959  0.7822
 5388TIP3    H237724   5.368   2.876   8.106 -0.4513  0.1164 -0.8342
 5389TIP3   OH237725   4.189   2.476   2.257  0.2744  0.8601  0.0335
 5389TIP3    H137726   4.228   2.522   2.182  1.0343  2.5561  1.3830
 5389TIP3    H237727   4.199   2.537   2.330 -2.1551  0.0724  1.1432
 5390TIP3   OH237728   0.872   0.527   0.173  1.1770 -0.3235  0.5728
 5390TIP3    H137729   0.834   0.497   0.090 -1.2447 -0.5351  1.6677
 5390TIP3    H237730   0.948   0.580   0.147  1.1472 -1.2852 -1.7043
 5391TIP3   OH237731   1.278   5.464   0.969  0.0548 -0.2085  0.1384
 5391TIP3    H137732   1.185   5.448   0.987 -0.1290 -0.4766 -0.9102
 5391TIP3    H237733   1.278   5.503   0.881  0.9392 -0.3459  0.0728
 5392TIP3   OH237734   1.088   5.611   1.923  0.1765 -0.2209 -0.6827
 5392TIP3    H137735   1.167   5.665   1.922  1.1170 -1.5207  0.1292
 5392TIP3    H237736   1.078   5.585   2.014 -0.8616 -0.5491 -0.8823
 5393TIP3   OH237737   1.519   3.829   7.177 -0.0328 -0.0206 -0.6294
 5393TIP3    H137738   1.485   3.885   7.107 -0.5568 -0.2847 -0.5907
 5393TIP3    H237739   1.493   3.874   7.257  1.8674  1.0787 -0.5695
 5394TIP3   OH237740   2.834   6.029   1.135 -0.4277  0.2803 -0.7039
 5394TIP3    H137741   2.852   6.087   1.061  1.6008 -0.5289 -0.8955
 5394TIP3    H237742   2.801   5.949   1.095  0.9414 -0.2624 -0.7931
 5395TIP3   OH237743   2.465   6.445   1.453  1.0673 -0.2585  0.5060
 5395TIP3    H137744   2.446   6.539   1.441  1.4236 -0.2883 -0.3497
 5395TIP3    H237745   2.400   6.416   1.517 -0.8315  0.0027 -1.1854
 5396TIP3   OH237746   5.453   0.337   0.985  0.5594  0.5260 -0.0737
 5396TIP3    H137747   5.367   0.379   0.982 -0.5823 -1.6953  0.0246
 5396TIP3    H237748   5.514   0.409   1.001 -1.1823  2.2661 -0.8828
 5397TIP3   OH237749   3.268   0.488   7.977 -0.5944 -0.2493  0.9193
 5397TIP3    H137750   3.346   0.433   7.979 -0.3191  0.1139  0.4358
 5397TIP3    H237751   3.281   0.546   7.902 -0.9334  0.3932  1.3444
 5398TIP3   OH237752   6.744   6.207   0.565 -0.2517 -0.5588  0.2668
 5398TIP3    H137753   6.679   6.142   0.538  1.0802 -1.7403 -0.2298
 5398TIP3    H237754   6.735   6.212   0.660  0.8821 -2.9663  0.5874
 5399TIP3   OH237755   4.789   0.510   3.149 -0.6105 -0.4035  0.0637
 5399TIP3    H137756   4.813   0.454   3.224 -1.0084 -0.9600 -0.2132
 5399TIP3    H237757   4.694   0.519   3.157 -0.4046  1.4318  0.9161
 5400TIP3   OH237758   6.091   0.430   8.696 -0.4703  0.5240 -0.0113
 5400TIP3    H137759   6.104   0.440   8.602  0.2055 -0.2934 -0.0202
 5400TIP3    H237760   5.996   0.435   8.708 -1.0570 -3.4902 -1.3318
 5401TIP3   OH237761   6.476   0.435   0.517 -0.1868  0.4503  0.2474
 5401TIP3    H137762   6.545   0.480   0.565  0.9098 -0.7844 -0.0984
 5401TIP3    H237763   6.516   0.415   0.432 -0.9381 -0.3809  0.0764
 5402TIP3   OH237764   5.750   1.084   2.340 -0.3174  0.6412 -0.0867
 5402TIP3    H137765   5.725   1.176   2.334 -1.1772  0.3550 -1.0166
 5402TIP3    H237766   5.671   1.035   2.320 -0.3133 -0.3505  1.9948
 5403TIP3   OH237767   0.933   0.283   7.137  0.4422  0.1595 -0.0447
 5403TIP3    H137768   0.995   0.218   7.102 -0.6441 -1.3315  0.6931
 5403TIP3    H237769   0.886   0.236   7.206 -1.4462  1.2675 -0.5250
 5404TIP3   OH237770   2.655   3.979   7.590  0.5978 -0.4647 -0.1955
 5404TIP3    H137771   2.567   4.012   7.606  0.6772 -1.7728  4.1746
 5404TIP3    H237772   2.642   3.901   7.535 -0.7952  0.0418 -0.6114
 5405TIP3   OH237773   2.685   4.005   0.253  0.1357  0.1085 -0.2380
 5405TIP3    H137774   2.636   4.065   0.197  1.0184  1.8985  0.8200
 5405TIP3    H237775   2.620   3.941   0.282 -0.3733 -0.9019 -3.2129
 5406TIP3   OH237776   0.252   3.189   7.967  0.1762  0.5478  0.3388
 5406TIP3    H137777   0.157   3.192   7.958  0.2022  1.6842  0.2927
 5406TIP3    H237778   0.268   3.122   8.034 -0.7349  1.3314  1.3810
 5407TIP3   OH237779   6.351   3.038   0.717  0.6340 -0.3004  0.5697
 5407TIP3    H137780   6.379   3.056   0.807  0.0283 -2.4002  1.2238
 5407TIP3    H237781   6.400   2.960   0.692 -0.9027 -1.0847 -0.0840
 5408TIP3   OH237782   0.549   2.914   8.101  0.9036 -0.1390 -0.1094
 5408TIP3    H137783   0.547   3.010   8.097  1.5698 -0.1606 -2.8308
 5408TIP3    H237784   0.478   2.891   8.162 -0.1549  2.0386 -0.4283
 5409TIP3   OH237785   4.054   6.751   0.020 -0.1110 -0.1103  0.7085
 5409TIP3    H137786   4.140   6.752  -0.021 -1.1741 -0.7650 -1.7167
 5409TIP3    H237787   4.000   6.806  -0.037 -1.5614 -0.6508  1.5179
 5410TIP3   OH237788   1.525   6.743   8.074  0.7625 -0.0538  0.1242
 5410TIP3    H137789   1.546   6.783   8.158 -1.9836 -1.2985  1.5408
 5410TIP3    H237790   1.489   6.816   8.022  1.8646  0.5903  0.2356
 5411TIP3   OH237791   1.122   4.877   1.848 -0.1541  0.2151 -1.0535
 5411TIP3    H137792   1.078   4.874   1.764 -2.9981  0.3853  0.3151
 5411TIP3    H237793   1.118   4.787   1.881 -1.8604  0.6903  0.1643
 5412TIP3   OH237794   3.446   0.810   7.332 -0.1835  0.1219  0.3775
 5412TIP3    H137795   3.419   0.783   7.244 -1.3111  2.9546 -0.2714
 5412TIP3    H237796   3.534   0.846   7.320  0.0903 -0.4445  0.6429
 5413TIP3   OH237797   5.592   6.518   0.648 -0.4514 -0.2021  0.4208
 5413TIP3    H137798   5.625   6.570   0.721 -1.7825 -0.3480  1.1684
 5413TIP3    H237799   5.506   6.487   0.678 -0.0344 -2.2230 -0.2795
 5414TIP3   OH237800   5.659   1.684   1.581  0.2833  0.3561  0.3709
 5414TIP3    H137801   5.697   1.746   1.643  0.3607  0.2176  0.4594
 5414TIP3    H237802   5.586   1.644   1.628  0.5462  0.0098  0.4870
 5415TIP3   OH237803   0.723   1.205   2.771  0.6907 -0.5799  0.2112
 5415TIP3    H137804   0.806   1.237   2.806  1.5445 -3.8700  1.5107
 5415TIP3    H237805   0.660   1.219   2.841  0.6585 -0.2305  0.1158
 5416TIP3   OH237806   4.550   5.281   2.007 -0.0012 -0.1478  0.7234
 5416TIP3    H137807   4.578   5.333   2.082 -1.7090  2.7127 -0.4526
 5416TIP3    H237808   4.632   5.245   1.971  1.3716  2.0085  1.4803
 5417TIP3   OH237809   5.223   5.819   7.650 -0.1114 -0.2156 -0.6466
 5417TIP3    H137810   5.143   5.844   7.604 -0.2390  0.2217 -0.2019
 5417TIP3    H237811   5.294   5.848   7.592 -0.2718 -0.0694 -0.7720
 5418TIP3   OH237812   0.243   3.220   2.030  0.1350 -0.4037  0.1387
 5418TIP3    H137813   0.155   3.230   2.067 -0.3217  1.1498 -1.2460
 5418TIP3    H237814   0.271   3.132   2.057 -0.7609  0.0340  2.7897
 5419TIP3   OH237815   4.394   1.738   8.298  0.4053  0.2150  0.4409
 5419TIP3    H137816   4.354   1.785   8.225  2.6316  0.0679 -0.9645
 5419TIP3    H237817   4.441   1.805   8.348 -0.3086  0.1648  1.2034
 5420TIP3   OH237818   1.714   6.499   2.624 -0.3694  0.2989 -0.3071
 5420TIP3    H137819   1.699   6.585   2.585  1.3861 -0.1490 -2.1784
 5420TIP3    H237820   1.770   6.517   2.700 -2.8074  1.0654  1.4244
 5421TIP3   OH237821   3.968   4.321   2.957 -0.2941  0.0780  0.4353
 5421TIP3    H137822   4.031   4.363   2.898  1.0263  2.7757  3.4530
 5421TIP3    H237823   4.015   4.246   2.992  0.0003  0.1554  0.2110
 5422TIP3   OH237824   0.713   6.604   0.900  0.4137 -0.2641  0.3932
 5422TIP3    H137825   0.749   6.691   0.917 -0.5132  0.4973 -1.2874
 5422TIP3    H237826   0.790   6.548   0.887  1.0886  1.0643 -1.8912
 5423TIP3   OH237827   4.501   4.892   8.752 -0.4245  0.4137 -0.0383
 5423TIP3    H137828   4.483   4.916   8.843 -1.6587  2.3480 -0.7403
 5423TIP3    H237829   4.546   4.968   8.715  0.1780 -0.3986 -1.0329
 5424TIP3   OH237830   1.454   6.000   1.631  0.1079 -0.6880  0.2794
 5424TIP3    H137831   1.419   5.919   1.668 -1.8735 -1.0010 -2.0238
 5424TIP3    H237832   1.377   6.056   1.619  1.1965  0.8592  0.1776
 5425TIP3   OH237833   4.061   4.914   8.144 -0.3535  0.0728  0.3491
 5425TIP3    H137834   4.148   4.909   8.183  0.5281 -0.6607 -1.5721
 5425TIP3    H237835   4.072   4.973   8.069 -1.1314 -1.1368 -0.7627
 5426TIP3   OH237836   3.113   0.488   2.365 -0.1762 -0.2048  0.2461
 5426TIP3    H137837   3.187   0.481   2.305 -1.4456  0.1023 -1.4524
 5426TIP3    H237838   3.098   0.582   2.373 -0.9422 -0.2797 -0.1937
 5427TIP3   OH237839   5.422   3.717   8.511 -0.0799  0.4260 -0.7066
 5427TIP3    H137840   5.427   3.639   8.566 -0.8451  0.0624 -1.1226
 5427TIP3    H237841   5.511   3.730   8.479  0.4618  0.9027  0.9352
 5428TIP3   OH237842   4.729   3.493   2.042 -0.3316 -0.0355  0.1685
 5428TIP3    H137843   4.726   3.530   2.130  1.6886 -0.5003  0.4899
 5428TIP3    H237844   4.728   3.398   2.056 -3.2840 -0.2022 -0.5333
 5429TIP3   OH237845   0.914   1.077   0.269  0.5681 -0.1796  0.1626
 5429TIP3    H137846   0.958   1.094   0.352 -0.7700  2.8300  0.4029
 5429TIP3    H237847   0.862   0.999   0.285  1.1136 -0.2364  1.8348
 5430TIP3   OH237848   1.115   4.381   3.171 -0.0139 -0.0885  0.5027
 5430TIP3    H137849   1.027   4.398   3.206 -0.2890 -0.8526  0.2007
 5430TIP3    H237850   1.100   4.318   3.100  0.5856  1.0050 -0.6302
 5431TIP3   OH237851   1.890   3.790   8.226  0.3613 -0.2082 -0.1694
 5431TIP3    H137852   1.901   3.715   8.168  2.9231 -0.8286  0.9544
 5431TIP3    H237853   1.933   3.862   8.180  0.8624 -0.2830  0.1670
 5432TIP3   OH237854   1.854   3.921   7.657 -0.5718 -0.2336 -0.5013
 5432TIP3    H137855   1.791   3.849   7.653 -0.8982 -0.0225  0.6182
 5432TIP3    H237856   1.898   3.910   7.741 -1.8759  1.8724  0.5554
 5433TIP3   OH237857   3.491   1.093   7.358 -0.3146  0.0507 -0.4501
 5433TIP3    H137858   3.468   1.049   7.276 -0.0691 -2.1699  0.5949
 5433TIP3    H237859   3.416   1.078   7.415  0.6990 -1.0259  0.6601
 5434TIP3   OH237860   3.552   0.549   8.055  0.4858 -0.4601  0.9901
 5434TIP3    H137861   3.611   0.547   8.130 -0.0862 -1.1229  1.4265
 5434TIP3    H237862   3.533   0.642   8.042  0.3020 -0.3689  1.8855
 5435TIP3   OH237863   5.247   1.337   2.465 -0.0742 -0.2657  0.0622
 5435TIP3    H137864   5.257   1.387   2.384 -0.1546 -2.2044 -1.2218
 5435TIP3    H237865   5.314   1.372   2.523  0.5547  0.6055 -1.1385
 5436TIP3   OH237866   1.102   4.656   0.710 -0.1338  0.8499  0.6879
 5436TIP3    H137867   1.032   4.620   0.765  0.2139  0.3745  0.8197
 5436TIP3    H237868   1.157   4.581   0.689 -0.5515  0.9206 -0.7573
 5437TIP3   OH237869   5.589   0.926   8.420 -0.2175 -0.1740  0.3702
 5437TIP3    H137870   5.630   0.850   8.379 -0.3453 -0.4490  0.7428
 5437TIP3    H237871   5.661   0.971   8.464  0.1617  0.8627 -1.2431
 5438TIP3   OH237872   5.894   5.486   2.716  0.0965  0.0351  0.4430
 5438TIP3    H137873   5.827   5.425   2.746 -0.2732  1.0733  1.8756
 5438TIP3    H237874   5.846   5.549   2.662  0.0591  0.3132  0.7970
 5439TIP3   OH237875   6.015   4.157   8.626  0.1337 -0.4886 -0.0053
 5439TIP3    H137876   6.090   4.197   8.670 -0.8613  0.8460  0.5791
 5439TIP3    H237877   6.011   4.069   8.662  0.6685 -0.1526  0.9267
 5440TIP3   OH237878   2.742   5.185   7.419  0.7208 -0.3497  0.6804
 5440TIP3    H137879   2.831   5.164   7.390  1.1184  0.8977  0.9413
 5440TIP3    H237880   2.749   5.274   7.454 -0.5793 -0.3430  0.9545
 5441TIP3   OH237881   5.393   3.154   1.334  0.0836 -0.3279  0.3786
 5441TIP3    H137882   5.335   3.081   1.354  0.8806 -0.5742  1.8917
 5441TIP3    H237883   5.374   3.220   1.401  2.0057 -0.6993  1.3411
 5442TIP3   OH237884   6.505   6.465   0.337  0.3505  0.1333  0.4154
 5442TIP3    H137885   6.561   6.471   0.259  0.4815 -0.3410  0.4711
 5442TIP3    H237886   6.416   6.466   0.303  0.3956  0.6534  0.3091
 5443TIP3   OH237887   4.783   6.282   8.214 -0.4402 -0.2703 -0.2688
 5443TIP3    H137888   4.724   6.206   8.214  1.5109 -1.8957  0.6521
 5443TIP3    H237889   4.871   6.243   8.212  0.6708  2.0348 -3.4732
 5444TIP3   OH237890   3.428   3.225   0.282 -0.1424 -0.2928  0.5983
 5444TIP3    H137891   3.371   3.251   0.210 -0.2565 -0.0229  0.7886
 5444TIP3    H237892   3.418   3.130   0.287 -0.8610 -0.2042  0.8771
 5445TIP3   OH237893   5.240   5.479   3.144 -0.2121 -0.1290  0.3664
 5445TIP3    H137894   5.267   5.557   3.096  1.9573 -1.0959 -0.1181
 5445TIP3    H237895   5.147   5.470   3.125 -0.7977  2.8501  1.2568
 5446TIP3   OH237896   0.878   2.048   8.258 -0.0733  0.3128 -0.0871
 5446TIP3    H137897   0.897   2.137   8.227 -0.4225  0.6603  0.6799
 5446TIP3    H237898   0.902   2.048   8.350 -2.0769  0.2596  0.4812
 5447TIP3   OH237899   4.050   4.125   8.062  0.5225  0.0159 -0.1176
 5447TIP3    H137900   4.097   4.142   8.143 -1.4776  2.0790  0.7212
 5447TIP3    H237901   3.974   4.183   8.066 -0.5287 -1.0394 -2.7172
 5448TIP3   OH237902   4.344   5.849   7.937  0.1185 -0.3527  0.2397
 5448TIP3    H137903   4.333   5.814   8.025 -0.0545  0.9295  0.7526
 5448TIP3    H237904   4.255   5.859   7.903  0.0591  1.2840  0.8118
 5449TIP3   OH237905   0.878   4.279   8.648  0.3103 -0.2810  0.6699
 5449TIP3    H137906   0.906   4.195   8.686 -0.3958 -0.3827  1.0008
 5449TIP3    H237907   0.959   4.323   8.624  0.7865 -0.2851  2.1609
 5450TIP3   OH237908   4.095   6.417   2.034 -0.5891 -0.0240 -0.3137
 5450TIP3    H137909   4.067   6.331   2.005  3.2999 -1.6277  0.2038
 5450TIP3    H237910   4.074   6.418   2.128  1.2852 -1.3566  0.1613
 5451TIP3   OH237911   4.300   1.417   2.344 -0.0706 -0.0696  0.6573
 5451TIP3    H137912   4.289   1.511   2.361 -1.6183 -0.3668  1.5078
 5451TIP3    H237913   4.362   1.388   2.410  3.3972  0.9423 -1.8334
 5452TIP3   OH237914   1.018   1.169   0.515  0.0951  0.2719 -0.0155
 5452TIP3    H137915   0.943   1.182   0.573  0.7802  0.9709  0.7224
 5452TIP3    H237916   1.067   1.251   0.518  1.2914 -0.4125  0.0965
 5453TIP3   OH237917   0.139   0.535   0.090 -0.1841 -0.1832  0.0349
 5453TIP3    H137918   0.103   0.590   0.159 -0.4927 -0.9389  0.4898
 5453TIP3    H237919   0.066   0.519   0.031  0.3537  1.4182 -1.1306
 5454TIP3   OH237920   6.158   6.491   8.643 -0.0109 -0.4728  0.3722
 5454TIP3    H137921   6.091   6.535   8.591 -1.4858 -1.6945  1.1490
 5454TIP3    H237922   6.123   6.403   8.659  1.2673 -0.7839  1.7606
 5455TIP3   OH237923   5.898   0.355   7.743 -0.4229 -0.8797 -0.7622
 5455TIP3    H137924   5.937   0.311   7.818  1.7004 -0.5668 -1.6376
 5455TIP3    H237925   5.833   0.293   7.709  1.7874 -2.9728 -1.3566
 5456TIP3   OH237926   6.118   0.224   1.328 -0.0911 -0.1422  0.0643
 5456TIP3    H137927   6.045   0.163   1.338 -0.0883  0.1499  2.3525
 5456TIP3    H237928   6.115   0.251   1.236 -1.3392 -1.9928 -0.4886
 5457TIP3   OH237929   4.259   4.299   8.706 -0.2570 -0.4169  0.3820
 5457TIP3    H137930   4.289   4.358   8.775 -1.7361 -1.6742  2.2238
 5457TIP3    H237931   4.195   4.350   8.656  1.1092  0.6287 -0.3616
 5458TIP3   OH237932   0.123   3.101   1.517  0.0267 -0.0272 -0.1665
 5458TIP3    H137933   0.030   3.081   1.504 -0.1054 -1.0036  1.8606
 5458TIP3    H237934   0.169   3.042   1.457 -0.6406  0.3762 -1.0943
 5459TIP3   OH237935   4.696   6.488   8.076 -0.3988 -0.2969  0.3025
 5459TIP3    H137936   4.719   6.407   8.123  2.8263  0.8407  0.9322
 5459TIP3    H237937   4.770   6.502   8.016 -1.3802  1.6625 -0.5219
 5460TIP3   OH237938   5.215   3.706   7.347 -0.0934  0.3328  0.1207
 5460TIP3    H137939   5.272   3.772   7.308  0.2102 -0.3715 -0.6596
 5460TIP3    H237940   5.160   3.676   7.274 -0.9742  0.4857  0.7019
 5461TIP3   OH237941   6.016   1.740   0.758 -0.7639  0.4158  0.6118
 5461TIP3    H137942   5.968   1.740   0.841 -0.8773  0.2421  0.5465
 5461TIP3    H237943   5.959   1.693   0.698 -0.5696  0.3273  0.4976
 5462TIP3   OH237944   3.162   1.875   0.568  0.1617 -0.2836  0.4513
 5462TIP3    H137945   3.241   1.853   0.518  0.0048  1.3836 -0.6364
 5462TIP3    H237946   3.195   1.918   0.647  0.3735  0.1010  0.1610
 5463TIP3   OH237947   4.533   0.463   0.242 -0.0555  0.3273 -0.7636
 5463TIP3    H137948   4.620   0.485   0.276  0.0290  0.3567 -0.9988
 5463TIP3    H237949   4.498   0.546   0.212 -1.3024  0.8651  1.8656
 5464TIP3   OH237950   1.591   2.857   1.841  0.7964  0.3064  0.1851
 5464TIP3    H137951   1.686   2.871   1.845  0.8584  0.0915 -0.4128
 5464TIP3    H237952   1.576   2.816   1.755  0.3706 -1.2677  0.9576
 5465TIP3   OH237953   3.524   6.733   3.042 -0.2922  0.5043 -0.1903
 5465TIP3    H137954   3.453   6.798   3.039 -0.6341  0.1161 -0.6531
 5465TIP3    H237955   3.601   6.783   3.069 -0.8623  0.8180  0.8802
 5466TIP3   OH237956   2.245   6.361   8.072 -0.3190 -0.2155  0.0229
 5466TIP3    H137957   2.338   6.361   8.051 -0.5871 -1.9842 -1.4126
 5466TIP3    H237958   2.215   6.273   8.049 -2.3181  0.2582  0.5937
 5467TIP3   OH237959   3.045   5.105   0.017 -0.2489  0.1957 -0.3478
 5467TIP3    H137960   3.054   5.116   0.112  0.4955 -0.5514 -0.3232
 5467TIP3    H237961   3.113   5.162  -0.020  1.1187 -1.3502 -0.3335
 5468TIP3   OH237962   6.066   6.631   0.907 -0.0724  0.8771  0.1810
 5468TIP3    H137963   6.111   6.712   0.931  0.6199 -0.0064  2.1474
 5468TIP3    H237964   6.043   6.591   0.991 -1.1685 -0.5490 -0.7477
 5469TIP3   OH237965   4.549   1.508   1.500 -0.4697 -0.2323  0.0437
 5469TIP3    H137966   4.603   1.438   1.537  0.3256  0.1225 -0.4254
 5469TIP3    H237967   4.510   1.550   1.577  1.7586  0.9856  0.6013
 5470TIP3   OH237968   3.562   6.582   8.215  0.0657 -0.3970  0.0773
 5470TIP3    H137969   3.571   6.554   8.306 -0.0050  0.8368  0.4888
 5470TIP3    H237970   3.520   6.508   8.171 -1.9197 -0.2010  1.5218
 5471TIP3   OH237971   2.756   0.481   8.457 -0.1419  0.3624  0.0034
 5471TIP3    H137972   2.680   0.443   8.500  0.4590 -1.4925 -0.4823
 5471TIP3    H237973   2.818   0.499   8.528  0.2772 -1.3285  0.0990
 5472TIP3   OH237974   2.318   2.576   1.017 -0.0048  0.5026  0.2294
 5472TIP3    H137975   2.311   2.618   1.103  0.6215  0.0393  0.5090
 5472TIP3    H237976   2.277   2.491   1.029 -0.5540  0.7149 -0.1252
 5473TIP3   OH237977   4.084   5.355   8.478 -0.3064 -0.5756 -0.4843
 5473TIP3    H137978   4.072   5.340   8.384  0.0811  0.6037 -0.7428
 5473TIP3    H237979   4.078   5.450   8.488 -1.5142 -0.7704  0.8656
 5474TIP3   OH237980   2.504   2.898   8.077 -0.4527 -0.2450  0.2389
 5474TIP3    H137981   2.553   2.823   8.045  1.7429  0.8528  0.8051
 5474TIP3    H237982   2.514   2.965   8.009  0.7267  0.7115  1.2979
 5475TIP3   OH237983   5.199   6.664   2.825 -0.0186 -0.5050  0.4663
 5475TIP3    H137984   5.208   6.758   2.841 -2.1715 -0.2781  0.6560
 5475TIP3    H237985   5.143   6.633   2.896  2.8874 -2.5573  2.1105
 5476TIP3   OH237986   4.638   6.755   1.379 -0.0177 -0.1772 -0.4583
 5476TIP3    H137987   4.650   6.665   1.409 -0.3475 -0.5620 -1.4109
 5476TIP3    H237988   4.606   6.802   1.456  1.2405 -0.6020  0.3549
 5477TIP3   OH237989   0.758   5.954   0.237  0.5010 -0.4872  0.1052
 5477TIP3    H137990   0.708   5.975   0.158 -0.4842 -0.8355  0.6230
 5477TIP3    H237991   0.792   6.039   0.267 -0.2423 -0.1655  0.0568
 5478TIP3   OH237992   5.154   3.560   0.345  0.6689  0.6235 -0.2608
 5478TIP3    H137993   5.110   3.626   0.399 -2.4711  0.0027 -1.7889
 5478TIP3    H237994   5.126   3.476   0.383  2.3582  0.1560 -0.0022
 5479TIP3   OH237995   1.705   5.752   8.117  0.5859  0.0321  0.4461
 5479TIP3    H137996   1.793   5.758   8.079  0.4648  0.1715  0.1863
 5479TIP3    H237997   1.647   5.747   8.041  0.1580  2.4587  0.5351
 5480TIP3   OH237998   0.691   0.226   2.139 -0.1113 -0.0073 -0.0312
 5480TIP3    H137999   0.656   0.178   2.215 -0.1806  0.5964  0.3323
 5480TIP3    H238000   0.780   0.249   2.165  0.0422 -0.2439 -0.3476
 5481TIP3   OH238001   4.062   2.389   7.419  0.0112 -0.2137  0.0991
 5481TIP3    H138002   4.023   2.398   7.331  2.3472  0.6770 -0.9315
 5481TIP3    H238003   4.078   2.295   7.429 -0.7302 -0.3805 -0.2118
 5482TIP3   OH238004   2.403   5.253   8.259 -0.1977 -0.0603  0.2624
 5482TIP3    H138005   2.411   5.193   8.185  0.8906 -0.6462  0.8420
 5482TIP3    H238006   2.445   5.334   8.229  1.9915 -0.9074  0.8681
 5483TIP3   OH238007   0.884   1.095   7.328 -0.1826  0.4992 -0.2215
 5483TIP3    H138008   0.932   1.154   7.270 -1.8656 -0.0461 -2.3208
 5483TIP3    H238009   0.798   1.136   7.339 -1.5276 -1.5863 -2.0124
 5484TIP3   OH238010   2.334   1.148   0.485 -0.2081  0.1379 -0.0508
 5484TIP3    H138011   2.304   1.064   0.451  3.2861 -1.1131 -0.4701
 5484TIP3    H238012   2.338   1.136   0.580 -0.5123  0.1506 -0.0352
 5485TIP3   OH238013   1.183   0.425   8.077 -0.0265  0.0051 -0.2362
 5485TIP3    H138014   1.217   0.356   8.134  0.8024  0.9181  0.4214
 5485TIP3    H238015   1.197   0.392   7.989  0.1366 -0.7649  0.0659
 5486TIP3   OH238016   5.815   4.024   1.418 -0.0542 -0.2405 -0.1874
 5486TIP3    H138017   5.787   3.933   1.411 -0.5477  0.0191 -2.5015
 5486TIP3    H238018   5.900   4.026   1.374 -0.3673  0.5130 -0.7849
 5487TIP3   OH238019   0.407   4.804   2.094  0.0083  0.2299 -0.5208
 5487TIP3    H138020   0.378   4.741   2.029 -0.3140 -0.0794 -0.0812
 5487TIP3    H238021   0.448   4.874   2.043 -0.5238  0.1416 -1.0730
 5488TIP3   OH238022   4.276   6.752   8.204  0.1037  0.1511  0.4402
 5488TIP3    H138023   4.339   6.692   8.244  0.0713  0.2910  0.7078
 5488TIP3    H238024   4.271   6.725   8.112  0.6936  0.2683  0.3763
 5489TIP3   OH238025   0.439   6.453   7.874  0.2272  0.2341  0.0253
 5489TIP3    H138026   0.435   6.369   7.828 -0.7000 -0.3162  1.0774
 5489TIP3    H238027   0.431   6.518   7.804 -0.2505 -0.5757 -0.6955
 5490TIP3   OH238028   5.087   4.813   1.974  0.0835 -0.0932 -0.6923
 5490TIP3    H138029   5.053   4.725   1.989 -1.6592  0.6388 -0.0348
 5490TIP3    H238030   5.154   4.802   1.907 -2.0337 -1.5818 -2.7482
 5491TIP3   OH238031   5.763   5.943   0.485  0.7259  0.5515 -0.2374
 5491TIP3    H138032   5.760   5.953   0.580  1.3164  2.6479 -0.3819
 5491TIP3    H238033   5.677   5.910   0.461  0.5224  0.1442  1.0187
 5492TIP3   OH238034   6.607   6.608   0.565 -0.2057  0.1654 -0.1977
 5492TIP3    H138035   6.562   6.562   0.495 -0.7102 -0.6717  0.6513
 5492TIP3    H238036   6.700   6.592   0.549 -0.2534  0.8939 -1.2767
 5493TIP3   OH238037   0.319   2.246   1.637  0.3908  0.5524 -0.0290
 5493TIP3    H138038   0.335   2.194   1.715  0.5310 -0.6278 -0.8248
 5493TIP3    H238039   0.292   2.332   1.670  2.3304  0.6843  1.3051
 5494TIP3   OH238040   6.390   2.641   7.905 -0.1929  0.0249  0.2257
 5494TIP3    H138041   6.468   2.609   7.859 -0.2555  0.5838 -0.2866
 5494TIP3    H238042   6.401   2.736   7.907 -0.8526  0.1046  0.1562
 5495TIP3   OH238043   5.381   5.971   7.470 -0.4532 -0.0968  0.0691
 5495TIP3    H138044   5.475   5.985   7.464 -0.3289 -1.0443 -0.3405
 5495TIP3    H238045   5.351   5.965   7.379 -1.1445  1.5888  0.1483
 5496TIP3   OH238046   5.600   5.594   1.818  0.5240 -0.2445  0.0479
 5496TIP3    H138047   5.682   5.576   1.771  0.4144  0.1071 -0.2799
 5496TIP3    H238048   5.544   5.519   1.798 -0.0060  0.5143 -1.4811
 5497TIP3   OH238049   6.060   3.719   0.114 -0.2803 -0.2789 -0.0371
 5497TIP3    H138050   6.051   3.642   0.058 -0.1542 -1.4204  1.4228
 5497TIP3    H238051   5.993   3.707   0.182 -0.0900  0.7772  0.3614
 5498TIP3   OH238052   6.308   2.608   0.152  0.2308 -0.0687 -0.3942
 5498TIP3    H138053   6.329   2.535   0.095 -1.0257 -1.4881  0.8676
 5498TIP3    H238054   6.373   2.604   0.222  1.9270  1.8193 -1.7361
 5499TIP3   OH238055   0.951   6.469   0.965  0.4956  0.2573 -0.4191
 5499TIP3    H138056   1.016   6.520   0.916  1.8643 -0.6674  0.3541
 5499TIP3    H238057   0.931   6.523   1.041  0.0240  0.7297 -0.8689
 5500TIP3   OH238058   4.383   2.959   8.733  0.4500 -0.1453  0.0629
 5500TIP3    H138059   4.449   3.028   8.732  1.6226 -1.2100 -1.7759
 5500TIP3    H238060   4.390   2.921   8.821  1.1739  0.7847  0.4284
 5501TIP3   OH238061   1.701   5.382   7.407 -0.0730  0.4674  0.6372
 5501TIP3    H138062   1.630   5.433   7.368  0.8510  1.8451  0.7021
 5501TIP3    H238063   1.746   5.341   7.333 -0.0789  0.7294  0.4915
 5502TIP3   OH238064   1.732   4.324   6.788 -0.0032 -0.1919  0.2101
 5502TIP3    H138065   1.729   4.277   6.705 -0.8158  2.8654 -1.6684
 5502TIP3    H238066   1.796   4.277   6.841  2.4076 -0.9192 -3.0564
 5503TIP3   OH238067   3.466   0.700   0.155  0.1192 -0.6484  0.6877
 5503TIP3    H138068   3.472   0.792   0.130 -0.8294 -0.4559  1.1264
 5503TIP3    H238069   3.393   0.666   0.104  1.0127 -1.4001 -0.1372
 5504TIP3   OH238070   0.514   6.810   3.166  0.3765  0.4049  0.1443
 5504TIP3    H138071   0.498   6.722   3.132 -0.6010  0.9057 -0.7689
 5504TIP3    H238072   0.548   6.859   3.091  2.0934  0.5039  0.9612
 5505TIP3   OH238073   5.940   6.618   2.460  0.0033  0.1796  0.1104
 5505TIP3    H138074   5.860   6.612   2.511 -1.0010 -0.2403 -1.4601
 5505TIP3    H238075   6.008   6.582   2.517 -1.3064 -1.5264  0.6750
 5506TIP3   OH238076   4.466   4.248   8.021  0.3522  0.0960 -0.0849
 5506TIP3    H138077   4.529   4.268   8.091 -1.6984  2.2859  1.2592
 5506TIP3    H238078   4.482   4.315   7.955  1.5854 -1.3603 -1.3480
 5507TIP3   OH238079   4.691   2.401   0.055  0.0404  0.2453 -0.1930
 5507TIP3    H138080   4.692   2.479   0.110  0.0245  0.2565 -0.2088
 5507TIP3    H238081   4.759   2.417  -0.011 -0.0519  0.3013 -0.2741
 5508TIP3   OH238082   4.124   2.612   0.865 -0.3808  0.4324  0.8933
 5508TIP3    H138083   4.196   2.579   0.811 -0.5327 -0.4233  1.2107
 5508TIP3    H238084   4.045   2.581   0.821 -0.6037  1.8911  0.1981
 5509TIP3   OH238085   0.492   6.684   8.730  0.7376  0.1221 -0.6442
 5509TIP3    H138086   0.556   6.721   8.670 -0.0623  2.1087 -0.3464
 5509TIP3    H238087   0.501   6.737   8.810  0.2554 -1.0171  0.1877
 5510TIP3   OH238088   0.276   4.922   2.628  0.1083  0.5538 -0.3725
 5510TIP3    H138089   0.261   4.870   2.549  0.3682 -0.2311  0.0838
 5510TIP3    H238090   0.317   4.861   2.689 -1.4722  0.7173  0.9249
 5511TIP3   OH238091   6.689   1.470   8.589 -0.3857  0.3493  0.6790
 5511TIP3    H138092   6.671   1.427   8.672  1.3712 -1.1606  0.3472
 5511TIP3    H238093   6.703   1.398   8.527 -2.4987  1.4137 -1.1785
 5512TIP3   OH238094   2.930   5.863   8.344 -0.2384 -0.6652  0.1834
 5512TIP3    H138095   2.897   5.816   8.267 -0.0472 -1.9953  0.8840
 5512TIP3    H238096   2.939   5.796   8.411 -1.3130  0.6280  1.6955
 5513TIP3   OH238097   1.788   5.040   7.766 -0.0051  0.3829  0.0243
 5513TIP3    H138098   1.698   5.043   7.796  0.1315  3.6302  0.4444
 5513TIP3    H238099   1.794   5.110   7.701  1.4981 -1.8073 -2.3813
 5514TIP3   OH238100   5.161   2.565   7.848 -0.0070 -0.3235 -0.0427
 5514TIP3    H138101   5.220   2.516   7.792  0.2092  0.8266 -0.8465
 5514TIP3    H238102   5.117   2.626   7.789  2.0878  2.7436  1.3144
 5515TIP3   OH238103   5.354   0.084   3.388  0.3394  0.1210  0.0630
 5515TIP3    H138104   5.310   0.016   3.336  1.3390 -1.5364  1.2704
 5515TIP3    H238105   5.286   0.117   3.447 -0.6411  1.5809 -1.7869
 5516TIP3   OH238106   3.745   0.159   0.940 -0.0173 -0.3874 -0.6335
 5516TIP3    H138107   3.744   0.217   0.864 -1.7369  0.9385  0.3147
 5516TIP3    H238108   3.764   0.073   0.904  0.4456  0.3982 -2.3933
 5517TIP3   OH238109   5.173   4.073   6.865  0.5129 -1.0470 -0.5450
 5517TIP3    H138110   5.159   4.152   6.917  1.9312 -2.0956  1.5324
 5517TIP3    H238111   5.209   4.105   6.782 -1.0559  0.6083 -0.6502
 5518TIP3   OH238112   1.558   3.106   2.040 -0.7269 -0.7427 -0.2825
 5518TIP3    H138113   1.501   3.181   2.028 -0.0023 -0.6078 -5.0099
 5518TIP3    H238114   1.646   3.143   2.048 -0.5971 -1.0013 -0.4616
 5519TIP3   OH238115   0.749   1.142   7.048  0.1136  0.4896  0.0878
 5519TIP3    H138116   0.695   1.159   7.126 -0.0747 -1.6958  0.4906
 5519TIP3    H238117   0.691   1.163   6.974 -0.6224  0.0268  0.5274
 5520TIP3   OH238118   0.343   0.576   8.373  0.2522  0.0436  0.0066
 5520TIP3    H138119   0.327   0.491   8.332 -1.2348  1.0735 -1.6763
 5520TIP3    H238120   0.396   0.623   8.309 -1.5569  1.4479 -0.5482
 5521TIP3   OH238121   6.005   4.983   7.651 -0.0774  0.2491 -0.1992
 5521TIP3    H138122   6.077   4.992   7.588 -1.0377  0.2014 -1.3334
 5521TIP3    H238123   5.947   5.056   7.631 -0.1279  0.5684  1.0323
 5522TIP3   OH238124   5.765   4.777   7.200 -0.2544  0.2486  0.2190
 5522TIP3    H138125   5.773   4.689   7.236  0.3498  0.1198 -0.2180
 5522TIP3    H238126   5.844   4.822   7.230  1.7113 -0.6483 -3.1101
 5523TIP3   OH238127   3.818   6.739   0.824 -0.1764 -0.1237 -0.4562
 5523TIP3    H138128   3.849   6.693   0.746 -0.3245 -1.9545  0.5213
 5523TIP3    H238129   3.892   6.736   0.885  0.0474  1.5654 -0.5832
 5524TIP3   OH238130   4.761   1.880   7.934  0.1515 -0.2962 -0.0026
 5524TIP3    H138131   4.745   1.908   7.844  2.9606  2.1270  0.0956
 5524TIP3    H238132   4.824   1.808   7.926 -0.7346 -1.0818  0.0033
 5525TIP3   OH238133   6.667   5.262   0.742 -0.4802  0.1585 -0.1359
 5525TIP3    H138134   6.630   5.346   0.770  0.0191  0.8679 -1.5266
 5525TIP3    H238135   6.761   5.273   0.751 -0.4388 -0.5393  0.4021
 5526TIP3   OH238136   6.024   1.260   7.774 -0.4668  0.2434  0.2958
 5526TIP3    H138137   5.970   1.186   7.801 -2.5545  0.6737 -2.2460
 5526TIP3    H238138   6.024   1.255   7.678  1.9153  1.8089  0.1407
 5527TIP3   OH238139   2.165   6.780   8.042 -0.5864  0.5659  0.1526
 5527TIP3    H138140   2.155   6.788   7.947 -1.7867 -1.5224  0.0572
 5527TIP3    H238141   2.083   6.740   8.072  0.1015  0.4296  1.9728
 5528TIP3   OH238142   2.256   5.810   2.210  0.0423 -0.2584  0.7750
 5528TIP3    H138143   2.247   5.719   2.183 -0.3010  0.6766 -2.7074
 5528TIP3    H238144   2.166   5.844   2.210  0.4154  0.9241 -1.6759
 5529TIP3   OH238145   0.035   3.971   0.400 -0.6704 -0.2166 -0.5132
 5529TIP3    H138146  -0.053   3.942   0.423 -2.0059  1.6443 -2.8015
 5529TIP3    H238147   0.047   3.943   0.309 -0.2158  2.1891 -1.2787
 5530TIP3   OH238148   3.034   0.231   8.060  0.1927 -0.2437  0.2140
 5530TIP3    H138149   3.036   0.137   8.078 -0.4287 -0.7114 -1.8583
 5530TIP3    H238150   3.106   0.244   7.997 -0.5756  0.3823 -0.5616
 5531TIP3   OH238151   2.628   2.452   0.323  0.0814  0.4149 -0.1617
 5531TIP3    H138152   2.567   2.486   0.388 -0.7109 -0.6301 -0.3428
 5531TIP3    H238153   2.596   2.487   0.239 -1.9355 -2.2437 -0.6231
 5532TIP3   OH238154   0.666   1.335   7.282 -0.0686  0.0224 -0.2846
 5532TIP3    H138155   0.590   1.389   7.301  0.2156  0.1646  0.4505
 5532TIP3    H238156   0.711   1.382   7.211  0.4797  1.0549  0.7219
 5533TIP3   OH238157   5.691   6.111   2.052 -0.3286 -0.8384  0.4663
 5533TIP3    H138158   5.654   6.193   2.018 -0.1715 -1.3831 -1.1067
 5533TIP3    H238159   5.617   6.064   2.089 -0.7017 -0.6900 -0.0875
 5534TIP3   OH238160   4.259   3.405   7.818  0.2058 -0.2229  0.2184
 5534TIP3    H138161   4.297   3.477   7.767 -1.7491  0.8109  0.1648
 5534TIP3    H238162   4.282   3.425   7.908  0.7070 -0.1950  0.0882
 5535TIP3   OH238163   4.219   3.649   8.621 -0.2958 -0.1559 -0.0162
 5535TIP3    H138164   4.237   3.567   8.575  4.3348  0.9787 -0.7009
 5535TIP3    H238165   4.194   3.711   8.553 -0.0556 -0.0743 -0.0289
 5536TIP3   OH238166   0.732   3.845   8.313  0.2877  0.1130 -0.2792
 5536TIP3    H138167   0.691   3.761   8.336 -1.4602  0.7540 -0.9241
 5536TIP3    H238168   0.669   3.888   8.255  0.8625  2.1672  0.5371
 5537TIP3   OH238169   3.139   0.163   7.754  0.3960  0.8700  0.0468
 5537TIP3    H138170   3.225   0.121   7.760  0.2062  0.0030 -2.3224
 5537TIP3    H238171   3.114   0.153   7.662 -2.1751  1.2453  0.6441
 5538TIP3   OH238172   5.871   5.296   0.105 -0.6743  0.4875  0.8766
 5538TIP3    H138173   5.919   5.350   0.042  2.2258  0.7084  3.0725
 5538TIP3    H238174   5.888   5.206   0.077 -1.4636  0.5944 -0.0044
 5539TIP3   OH238175   6.060   0.940   0.586 -0.1675  0.4389  0.2435
 5539TIP3    H138176   6.015   1.024   0.588  0.5958  0.8484  0.3707
 5539TIP3    H238177   6.127   0.949   0.519 -0.7705 -0.4336 -0.5013
 5540TIP3   OH238178   2.649   4.855   0.173  0.0072  0.3815 -0.1196
 5540TIP3    H138179   2.704   4.780   0.196 -1.2811 -0.5578  0.0102
 5540TIP3    H238180   2.654   4.913   0.250  0.6974  0.2499 -0.0604
 5541TIP3   OH238181   1.257   2.085   1.053  0.1077  0.6230 -0.7503
 5541TIP3    H138182   1.241   2.094   0.959  0.2056 -2.0700 -1.0877
 5541TIP3    H238183   1.323   2.017   1.059 -2.2201 -1.6454  1.3489
 5542TIP3   OH238184   4.772   5.248   0.894  0.1282  0.5223 -0.4997
 5542TIP3    H138185   4.771   5.177   0.958  0.0118  1.9510  1.1500
 5542TIP3    H238186   4.865   5.263   0.876  0.1718  0.2915 -0.4746
 5543TIP3   OH238187   6.145   4.990   2.008  0.2005 -0.4674  0.2491
 5543TIP3    H138188   6.184   5.008   2.094  1.2906 -1.1179 -0.0902
 5543TIP3    H238189   6.199   5.041   1.947  0.3163 -1.1133 -0.1944
 5544TIP3   OH238190   1.475   6.174   0.688 -0.1651 -0.6213  0.4486
 5544TIP3    H138191   1.532   6.110   0.646 -0.5255 -0.1740 -0.7502
 5544TIP3    H238192   1.524   6.256   0.684 -0.6670 -0.3471 -0.1002
 5545TIP3   OH238193   6.104   5.462   2.536 -0.2442 -0.0963  0.3872
 5545TIP3    H138194   6.051   5.459   2.456 -0.4904 -1.0461  0.5748
 5545TIP3    H238195   6.040   5.463   2.607 -0.0179  0.0587  0.5909
 5546TIP3   OH238196   4.223   0.201   0.963 -0.4285  0.7257 -0.0045
 5546TIP3    H138197   4.284   0.162   0.900  0.5180  1.4645  0.4311
 5546TIP3    H238198   4.168   0.259   0.910  0.9391  2.0236 -0.0643
 5547TIP3   OH238199   0.526   2.793   8.398  0.0837 -0.4195  0.2214
 5547TIP3    H138200   0.580   2.818   8.323  0.4189 -1.3991  0.1186
 5547TIP3    H238201   0.496   2.876   8.435  0.2321  0.0849 -0.7645
 5548TIP3   OH238202   4.722   6.608   8.724  0.0070  0.0971  0.4052
 5548TIP3    H138203   4.802   6.556   8.730 -0.8870 -1.3730  0.2795
 5548TIP3    H238204   4.748   6.696   8.748  1.7305 -0.2695 -0.0047
 5549TIP3   OH238205   1.660   3.359   0.039  0.1258  0.2047 -0.5278
 5549TIP3    H138206   1.729   3.390  -0.021  1.0613 -0.3381  0.2306
 5549TIP3    H238207   1.610   3.296  -0.012  1.8721 -1.4288 -0.3097
 5550TIP3   OH238208   5.123   1.953   8.713  0.5018 -0.2351 -0.2044
 5550TIP3    H138209   5.044   1.968   8.766  0.1940 -0.5191 -0.5738
 5550TIP3    H238210   5.144   2.039   8.677  0.8630  0.0120  0.5777
 5551TIP3   OH238211   0.419   3.658   8.292  0.8230 -0.5188  0.2546
 5551TIP3    H138212   0.491   3.604   8.325  1.0657 -0.3253  0.0437
 5551TIP3    H238213   0.455   3.701   8.214  1.1062  1.0129  1.1768
 5552TIP3   OH238214   2.081   4.750   0.410 -0.5602  0.1176  0.0315
 5552TIP3    H138215   2.060   4.839   0.438  1.7700  0.2548  1.6480
 5552TIP3    H238216   2.172   4.738   0.436 -0.7512 -2.6864 -0.3302
 5553TIP3   OH238217   2.146   3.384   0.378  0.1587 -0.3971  0.4988
 5553TIP3    H138218   2.119   3.440   0.306  1.5088  0.9341  0.9918
 5553TIP3    H238219   2.199   3.316   0.337  0.6901  0.1944  0.1962
 5554TIP3   OH238220   1.463   3.454   2.682  0.1728  0.2537 -0.0451
 5554TIP3    H138221   1.551   3.487   2.665 -0.4293  1.8635 -0.2630
 5554TIP3    H238222   1.465   3.363   2.653  1.3099  0.7362 -1.6104
 5555TIP3   OH238223   3.170   0.933   2.892 -0.2206  0.7942 -0.8194
 5555TIP3    H138224   3.130   0.994   2.954 -1.8866  0.1103 -1.1741
 5555TIP3    H238225   3.258   0.968   2.877 -0.9421  2.8265 -0.6216
 5556TIP3   OH238226   5.299   5.744   7.941  0.6250 -0.0270  0.2141
 5556TIP3    H138227   5.309   5.758   7.846 -1.5479  0.7309  0.0241
 5556TIP3    H238228   5.215   5.786   7.962  1.6428  0.9493  2.7308
 5557TIP3   OH238229   0.033   4.686   8.052  0.1656  0.6323  0.5114
 5557TIP3    H138230   0.089   4.633   7.995 -0.0969  1.9934 -1.1229
 5557TIP3    H238231  -0.030   4.624   8.089  0.3901 -0.3381 -0.6649
 5558TIP3   OH238232   3.511   2.762   8.259 -0.4296  0.5005 -0.1536
 5558TIP3    H138233   3.445   2.695   8.242  0.9572 -0.6715 -1.2311
 5558TIP3    H238234   3.485   2.835   8.202 -1.3763  0.4852  0.2416
 5559TIP3   OH238235   2.451   2.500   0.524  0.6320  0.1535 -0.2984
 5559TIP3    H138236   2.401   2.569   0.479  0.5762 -1.0956 -2.3007
 5559TIP3    H238237   2.451   2.526   0.616 -1.8847  1.3038 -0.5407
 5560TIP3   OH238238   1.694   6.413   1.126  0.3390 -0.5897  0.2637
 5560TIP3    H138239   1.605   6.377   1.125 -0.1393  0.5329  0.4044
 5560TIP3    H238240   1.685   6.496   1.172  1.4614 -0.4240  0.2111
 5561TIP3   OH238241   5.568   3.416   2.288  0.7134  0.5644 -0.0090
 5561TIP3    H138242   5.574   3.328   2.325 -2.2225 -0.8441 -2.4593
 5561TIP3    H238243   5.612   3.472   2.352 -0.7315 -2.1247  3.6812
 5562TIP3   OH238244   6.129   4.521   8.672  0.6262  0.3843  0.3615
 5562TIP3    H138245   6.102   4.527   8.763 -0.4834 -0.3125  0.1028
 5562TIP3    H238246   6.184   4.443   8.668  0.3778  0.2055  0.3778
 5563TIP3   OH238247   1.645   4.812   0.944  0.4513  0.4406  0.0479
 5563TIP3    H138248   1.664   4.722   0.968  2.1899  0.5684 -0.7227
 5563TIP3    H238249   1.666   4.863   1.022 -2.3931  0.0613  1.1690
 5564TIP3   OH238250   2.153   6.538   2.356 -0.4438  0.8562 -0.8453
 5564TIP3    H138251   2.090   6.515   2.424 -1.3620  0.6261 -1.7530
 5564TIP3    H238252   2.211   6.462   2.351  0.5452  1.4704  0.6765
 5565TIP3   OH238253   6.246   6.392   0.262 -0.2827 -0.9615 -0.3674
 5565TIP3    H138254   6.220   6.310   0.220 -1.1967 -1.6616  1.4528
 5565TIP3    H238255   6.167   6.423   0.305  0.4290  0.1246  0.2022
 5566TIP3   OH238256   0.798   2.361   2.742  0.2300  0.0871  0.2973
 5566TIP3    H138257   0.705   2.359   2.719  0.4069 -0.8972 -0.3886
 5566TIP3    H238258   0.824   2.269   2.745  0.8555  0.2760  1.8895
 5567TIP3   OH238259   0.428   5.174   1.383 -0.0274  0.3211 -0.1532
 5567TIP3    H138260   0.345   5.216   1.402 -0.4673 -0.9366  0.8703
 5567TIP3    H238261   0.477   5.238   1.332 -1.7778  0.9152 -1.1526
 5568TIP3   OH238262   3.371   1.360   0.241 -0.3777 -0.0545  0.0758
 5568TIP3    H138263   3.371   1.336   0.148 -0.2943  0.5611 -0.0907
 5568TIP3    H238264   3.327   1.287   0.285 -2.1316  0.4744 -0.6888
 5569TIP3   OH238265   3.428   5.769   0.585 -0.4929  0.1365 -0.3582
 5569TIP3    H138266   3.333   5.759   0.599 -0.5084  2.1354  1.5156
 5569TIP3    H238267   3.435   5.833   0.514 -0.6110  1.1265  0.4934
 5570TIP3   OH238268   3.079   0.837   2.150 -0.1454 -0.2031 -0.1536
 5570TIP3    H138269   2.989   0.863   2.131  0.2116  0.9815 -0.3306
 5570TIP3    H238270   3.082   0.831   2.246 -0.7995 -1.8165 -0.2030
 5571TIP3   OH238271   4.867   4.919   0.653  0.3797 -0.7126 -0.9086
 5571TIP3    H138272   4.838   4.834   0.686  0.0774 -0.8076 -1.4050
 5571TIP3    H238273   4.890   4.903   0.561  1.1830 -0.4478 -0.7621
 5572TIP3   OH238274   4.426   3.672   7.003 -0.1614  0.4051 -0.5783
 5572TIP3    H138275   4.446   3.608   6.934 -2.5071  0.0369 -0.9865
 5572TIP3    H238276   4.443   3.757   6.962 -1.9232  0.2093 -1.8131
 5573TIP3   OH238277   2.644   6.338   8.475 -0.0714  0.2799  0.4638
 5573TIP3    H138278   2.551   6.317   8.479  0.6149 -3.6118 -0.2304
 5573TIP3    H238279   2.664   6.374   8.561 -1.6941 -1.5100  1.6644
 5574TIP3   OH238280   2.148   0.601   1.277 -0.1533 -0.6968  0.1241
 5574TIP3    H138281   2.119   0.668   1.339  0.1127 -0.9227  0.4971
 5574TIP3    H238282   2.118   0.518   1.314 -1.1650 -0.7305 -0.7369
 5575TIP3   OH238283   3.540   5.154   8.146 -0.0158 -0.5727  0.1713
 5575TIP3    H138284   3.540   5.108   8.062  0.0217  1.4937 -1.0245
 5575TIP3    H238285   3.631   5.179   8.159  0.2131 -1.9664  1.5075
 5576TIP3   OH238286   2.151   0.653   8.014 -0.5296  0.1167  0.0144
 5576TIP3    H138287   2.216   0.584   8.003 -0.1878  0.5434 -0.7248
 5576TIP3    H238288   2.082   0.632   7.951 -0.6282  0.2198  0.0865
 5577TIP3   OH238289   3.929   5.261   7.584 -0.0762  0.7851  0.3432
 5577TIP3    H138290   3.983   5.295   7.512 -2.2027  2.8688 -0.3911
 5577TIP3    H238291   3.874   5.194   7.543 -1.8271  2.5068 -0.2301
 5578TIP3   OH238292   5.631   2.051   7.973  0.1722 -0.2035 -0.1281
 5578TIP3    H138293   5.600   1.964   7.948 -0.8970  0.0310  0.3359
 5578TIP3    H238294   5.679   2.083   7.897 -1.2108 -0.3546 -1.0957
 5579TIP3   OH238295   6.747   5.577   7.041  0.3840  0.2124  0.3476
 5579TIP3    H138296   6.838   5.590   7.066  0.4548 -0.4704  0.4472
 5579TIP3    H238297   6.748   5.501   6.983 -0.1785 -0.0504  0.6780
 5580TIP3   OH238298   5.098   2.558   2.353  0.3475  0.4579 -0.3233
 5580TIP3    H138299   5.155   2.482   2.345 -0.2728 -0.0956  0.3815
 5580TIP3    H238300   5.143   2.627   2.304  1.7865  0.1244  0.4557
 5581TIP3   OH238301   0.844   3.026   0.237 -0.2254 -0.5267 -0.4797
 5581TIP3    H138302   0.905   3.009   0.309  1.1444 -0.7765 -1.6581
 5581TIP3    H238303   0.789   2.947   0.234  0.3186 -0.9230 -0.2998
 5582TIP3   OH238304   4.774   5.398   7.834 -0.0153  0.0468  0.4048
 5582TIP3    H138305   4.736   5.459   7.897 -0.1835  1.1714 -0.7426
 5582TIP3    H238306   4.869   5.411   7.842  0.0061 -0.5050  1.0854
 5583TIP3   OH238307   4.085   4.780   1.256 -0.3802  0.0560  0.7594
 5583TIP3    H138308   4.142   4.829   1.196 -1.6243  1.0374  0.3229
 5583TIP3    H238309   4.129   4.785   1.340  1.9578 -2.2375 -0.1858
 5584TIP3   OH238310   2.681   5.319   1.871  0.8068 -0.1575  0.3167
 5584TIP3    H138311   2.722   5.390   1.922 -0.2850 -0.7003  2.0067
 5584TIP3    H238312   2.604   5.360   1.831  0.5350 -0.2262  0.7665
 5585TIP3   OH238313   4.178   2.057   2.435 -0.5814  0.1403 -0.0340
 5585TIP3    H138314   4.092   2.020   2.455  0.6581 -1.9787  1.7967
 5585TIP3    H238315   4.196   2.028   2.346 -1.1977 -0.5567  0.0567
 5586TIP3   OH238316   1.633   0.675   0.800  0.1183 -0.1713 -0.3497
 5586TIP3    H138317   1.551   0.701   0.843 -0.1291 -1.6093  0.0924
 5586TIP3    H238318   1.699   0.683   0.868  0.1920  0.0817 -0.4482
 5587TIP3   OH238319   0.821   2.436   8.344 -0.4637  0.0587  0.3151
 5587TIP3    H138320   0.730   2.424   8.371 -0.3182 -0.4370  0.6116
 5587TIP3    H238321   0.872   2.402   8.417 -0.0380 -5.0883 -1.8974
 5588TIP3   OH238322   4.634   5.511   7.019  0.6966 -0.3421  0.1452
 5588TIP3    H138323   4.639   5.533   6.926  1.4638  0.1984  0.3017
 5588TIP3    H238324   4.694   5.437   7.029  0.6794 -0.3450  0.2261
 5589TIP3   OH238325   5.518   3.132   0.656  0.0011  0.1377  0.1951
 5589TIP3    H138326   5.487   3.218   0.630  0.7938  0.2676 -0.3579
 5589TIP3    H238327   5.610   3.131   0.630 -0.7347 -2.0420 -2.7584
 5590TIP3   OH238328   4.015   4.804   0.964  0.4322  0.3591  0.3631
 5590TIP3    H138329   3.938   4.811   1.021 -0.9476  1.7247 -1.5546
 5590TIP3    H238330   3.994   4.732   0.904  0.4375  1.0329 -0.4590
 5591TIP3   OH238331   5.713   1.821   0.474  0.4399  0.0548  0.3344
 5591TIP3    H138332   5.629   1.867   0.470  0.5162  0.1144 -0.7108
 5591TIP3    H238333   5.770   1.868   0.413  0.7456 -0.9558 -0.1762
 5592TIP3   OH238334   5.316   1.622   1.489  0.1220  0.0614 -0.2989
 5592TIP3    H138335   5.363   1.614   1.406  0.9808  0.7446  0.1020
 5592TIP3    H238336   5.224   1.610   1.467  0.3390  0.3038 -1.3538
 5593TIP3   OH238337   2.769   1.821   8.523 -0.1398 -0.2883 -0.0708
 5593TIP3    H138338   2.790   1.824   8.430  0.4880  1.0769  0.0979
 5593TIP3    H238339   2.714   1.898   8.538 -1.9403 -1.5716  0.3241
 5594TIP3   OH238340   0.802   3.059   1.209 -0.2175 -0.1690 -0.2933
 5594TIP3    H138341   0.761   3.144   1.228  0.9343  0.2452  0.4116
 5594TIP3    H238342   0.849   3.074   1.127  4.5545  1.6681  2.3779
 5595TIP3   OH238343   1.791   4.535   1.059 -0.1459  0.0142 -0.1852
 5595TIP3    H138344   1.793   4.441   1.037  0.1748 -0.1652  0.5964
 5595TIP3    H238345   1.738   4.540   1.139 -1.2427  0.6569 -0.9265
 5596TIP3   OH238346   0.846   4.961   8.381 -0.1478  0.6876 -0.5530
 5596TIP3    H138347   0.825   4.956   8.288 -2.1611  1.1093 -0.1583
 5596TIP3    H238348   0.815   4.878   8.417 -0.1567  0.8809 -0.1130
 5597TIP3   OH238349   5.002   1.751   0.603 -0.1417  0.4326 -0.2515
 5597TIP3    H138350   5.019   1.750   0.508  0.7535  0.9598 -0.1070
 5597TIP3    H238351   4.916   1.793   0.611 -0.0731  0.6930 -0.8095
 5598TIP3   OH238352   3.036   2.176   8.178  0.0793 -0.0162 -0.0843
 5598TIP3    H138353   3.026   2.111   8.109  0.2373  0.4580 -0.5569
 5598TIP3    H238354   3.113   2.148   8.226  2.6083  1.9255 -2.6744
 5599TIP3   OH238355   3.897   5.587   0.872 -0.1477 -0.1503  0.0548
 5599TIP3    H138356   3.898   5.577   0.777 -1.4900  1.1476 -0.1308
 5599TIP3    H238357   3.825   5.647   0.889  1.1308  1.0103  1.7634
 5600TIP3   OH238358   4.814   6.789   1.195 -0.1839 -0.1633 -0.1320
 5600TIP3    H138359   4.875   6.838   1.250  0.3355 -0.6563 -0.2549
 5600TIP3    H238360   4.733   6.787   1.245 -0.4092  1.3667 -0.4152
 5601TIP3   OH238361   4.591   3.480   7.395  0.4488  0.2794  0.4064
 5601TIP3    H138362   4.644   3.472   7.474 -1.3462  0.7051  1.7179
 5601TIP3    H238363   4.606   3.570   7.365 -2.0497  1.6510  2.7836
 5602TIP3   OH238364   1.108   4.948   2.991 -0.4517 -0.0876 -0.6606
 5602TIP3    H138365   1.140   4.877   2.935 -2.2225 -2.0120  0.5914
 5602TIP3    H238366   1.187   4.981   3.035  0.3870 -1.7797 -0.7896
 5603TIP3   OH238367   4.098   1.748   8.534 -0.4648 -0.6881  0.3445
 5603TIP3    H138368   4.020   1.753   8.590 -0.6251  1.4433  0.0087
 5603TIP3    H238369   4.143   1.668   8.563 -2.6807 -1.9372  0.6283
 5604TIP3   OH238370   0.253   5.579   8.092  0.6017 -0.1370  0.1771
 5604TIP3    H138371   0.282   5.496   8.054  1.4682  0.1658  0.1765
 5604TIP3    H238372   0.237   5.557   8.184 -2.4435 -1.1124 -0.4561
 5605TIP3   OH238373   3.893   6.679   2.451 -0.0359  0.4500  0.5185
 5605TIP3    H138374   3.896   6.684   2.355  1.0701 -0.8834  0.4695
 5605TIP3    H238375   3.799   6.686   2.471 -0.4627 -0.8601 -0.7783
 5606TIP3   OH238376   3.078   0.523   0.909 -0.1109  0.0478 -0.4839
 5606TIP3    H138377   3.136   0.598   0.908 -1.3366  1.0527  0.4467
 5606TIP3    H238378   3.016   0.541   0.980 -2.5422 -0.2148 -2.3929
 5607TIP3   OH238379   1.458   1.708   2.849  0.1346  0.1082  0.0149
 5607TIP3    H138380   1.534   1.699   2.793  1.6345  0.3748  1.9036
 5607TIP3    H238381   1.473   1.789   2.898 -0.6703 -0.5469  1.4187
 5608TIP3   OH238382   2.123   2.943   7.553 -0.7932 -0.6019 -0.6493
 5608TIP3    H138383   2.091   2.988   7.475  2.6530  1.6432 -0.9940
 5608TIP3    H238384   2.180   2.874   7.519 -0.3182 -0.4660 -0.1372
 5609TIP3   OH238385   4.437   0.202   1.458 -0.7370  0.2998 -0.1101
 5609TIP3    H138386   4.395   0.139   1.516 -1.3584  0.5186 -0.3112
 5609TIP3    H238387   4.365   0.257   1.426 -0.1877  1.2190  0.2001
 5610TIP3   OH238388   3.735   6.044   0.253  0.2672 -0.0748  0.2241
 5610TIP3    H138389   3.735   5.966   0.198  2.0762  0.6117 -0.8480
 5610TIP3    H238390   3.827   6.073   0.253 -0.4991  2.5949 -0.2169
 5611TIP3   OH238391   1.260   0.988   0.514 -0.1229  0.4828 -0.3264
 5611TIP3    H138392   1.174   1.026   0.494  0.2841  0.4543 -2.2939
 5611TIP3    H238393   1.241   0.897   0.537 -0.6299  0.4527 -0.8336
 5612TIP3   OH238394   3.406   4.782   0.548  0.0877  0.3671  0.3362
 5612TIP3    H138395   3.396   4.798   0.641 -1.5337 -0.2757  0.3056
 5612TIP3    H238396   3.459   4.703   0.543  1.6143  1.3340  0.6438
 5613TIP3   OH238397   2.670   3.168   8.463  0.3464  0.4446 -0.3786
 5613TIP3    H138398   2.621   3.088   8.441  1.8835 -0.2340 -1.4610
 5613TIP3    H238399   2.721   3.188   8.385  0.1488  2.4117 -0.0556
 5614TIP3   OH238400   1.969   0.708   7.824 -0.0840  0.2848 -1.1934
 5614TIP3    H138401   2.052   0.734   7.784  0.8370  0.4510  0.7242
 5614TIP3    H238402   1.919   0.790   7.829  0.6636  0.6882 -0.0599
 5615TIP3   OH238403   0.149   4.567   7.415  0.2295 -0.7688  0.0596
 5615TIP3    H138404   0.177   4.610   7.335  1.8178 -2.8031 -0.5742
 5615TIP3    H238405   0.071   4.615   7.443  1.0886  1.5533 -1.3039
 5616TIP3   OH238406   6.584   4.927   0.608 -0.2240 -0.1845  0.5939
 5616TIP3    H138407   6.550   5.007   0.567  3.2716  0.8110 -0.6946
 5616TIP3    H238408   6.570   4.858   0.543  0.4674  0.2706 -0.0498
 5617TIP3   OH238409   3.101   4.911   8.135  0.2022 -0.4273 -0.3893
 5617TIP3    H138410   3.176   4.889   8.191  0.0296 -1.1046 -0.4210
 5617TIP3    H238411   3.037   4.949   8.195  0.1181 -0.9153 -0.1652
 5618TIP3   OH238412   3.637   3.857   0.744 -0.3135  0.0999 -1.2556
 5618TIP3    H138413   3.579   3.906   0.686 -1.3145  0.6647  0.1621
 5618TIP3    H238414   3.630   3.767   0.714 -1.0651  0.3349 -1.8244
 5619TIP3   OH238415   4.711   6.020   1.819 -0.7133  0.1480 -0.0679
 5619TIP3    H138416   4.770   5.965   1.870 -1.2699 -0.6454 -0.2736
 5619TIP3    H238417   4.732   6.109   1.847  0.4393 -0.1334  0.0072
 5620TIP3   OH238418   5.127   2.163   6.975 -1.0933 -0.6177  0.3431
 5620TIP3    H138419   5.140   2.069   6.988  0.6534 -0.3593  0.7068
 5620TIP3    H238420   5.036   2.179   7.000 -1.6121 -2.3033 -0.3389
 5621TIP3   OH238421   4.947   5.834   2.197 -0.2313 -0.4080  0.1758
 5621TIP3    H138422   4.945   5.898   2.268 -2.3373 -1.5004  1.2048
 5621TIP3    H238423   4.994   5.760   2.233  0.3413 -0.2647 -0.2623
 5622TIP3   OH238424   5.687   2.572   0.677  0.1311  0.3991 -0.1634
 5622TIP3    H138425   5.751   2.529   0.619  0.4095  0.2914  0.2183
 5622TIP3    H238426   5.639   2.499   0.716 -0.1174  0.4755 -0.3251
 5623TIP3   OH238427   5.972   0.663   0.798 -0.4562  0.5663 -0.1791
 5623TIP3    H138428   5.973   0.735   0.862  1.7536 -0.6233  1.2592
 5623TIP3    H238429   5.905   0.603   0.830 -1.1657  1.1641 -0.4856
 5624TIP3   OH238430   2.738   3.074   7.516 -0.6299  0.5993  0.1465
 5624TIP3    H138431   2.642   3.064   7.519 -0.5655  0.1265  0.9447
 5624TIP3    H238432   2.756   3.101   7.426 -1.4515  0.0126 -0.2101
 5625TIP3   OH238433   0.876   3.371   0.680 -0.2946 -0.0389  0.2197
 5625TIP3    H138434   0.936   3.423   0.734 -0.0304  2.2457 -2.0354
 5625TIP3    H238435   0.909   3.282   0.686  1.0018  0.4974  2.0470
 5626TIP3   OH238436   3.927   1.131   3.108  0.8673 -0.0428 -0.2161
 5626TIP3    H138437   3.929   1.081   3.026 -0.4243 -2.5791  1.1666
 5626TIP3    H238438   3.847   1.183   3.102  0.4278 -0.7168 -0.3329
 5627TIP3   OH238439   6.245   2.536   0.482  0.2303 -0.4989  0.2163
 5627TIP3    H138440   6.284   2.534   0.569  0.2472 -2.0235  0.2009
 5627TIP3    H238441   6.159   2.578   0.495  0.5472 -0.0125  0.8113
 5628TIP3   OH238442   5.337   5.948   8.293 -0.0949 -0.6979 -0.0755
 5628TIP3    H138443   5.390   5.869   8.304 -0.2511 -0.9455 -1.0057
 5628TIP3    H238444   5.355   5.977   8.204 -1.3529 -0.6547 -0.3370
 5629TIP3   OH238445   1.027   3.636   1.903 -0.0712 -0.6034  0.4455
 5629TIP3    H138446   1.109   3.686   1.896  0.5693 -1.4845  1.2416
 5629TIP3    H238447   1.033   3.593   1.988 -1.2296 -0.9422  0.3742
 5630TIP3   OH238448   4.724   5.172   8.040 -0.8407  0.0340  0.2178
 5630TIP3    H138449   4.747   5.110   7.971 -0.1554  0.4954  0.0339
 5630TIP3    H238450   4.716   5.256   7.996  1.5679  0.7374  0.9620
 5631TIP3   OH238451   5.740   5.564   2.063  0.0521 -0.6247  0.4581
 5631TIP3    H138452   5.704   5.583   1.976  0.6719  0.4027  0.4090
 5631TIP3    H238453   5.758   5.471   2.062 -0.6269 -0.7617 -0.2592
 5632TIP3   OH238454   3.257   4.105   1.631 -0.8384 -0.5007  0.3062
 5632TIP3    H138455   3.341   4.112   1.676 -0.6339  0.3358 -0.1808
 5632TIP3    H238456   3.213   4.030   1.672 -0.5381  0.0545  1.6794
 5633TIP3   OH238457   0.636   4.632   0.926  0.0388  0.3637 -0.0278
 5633TIP3    H138458   0.679   4.667   1.003 -0.8373  0.6061  0.3634
 5633TIP3    H238459   0.608   4.709   0.876 -0.7012  0.2196  0.1574
 5634TIP3   OH238460   2.126   4.962   7.837  0.4682  0.5059  0.3240
 5634TIP3    H138461   2.162   4.993   7.754 -0.7640 -0.7027 -0.7208
 5634TIP3    H238462   2.063   5.030   7.863 -0.3782  0.1277 -0.6467
 5635TIP3   OH238463   5.664   4.686   2.370 -0.4802 -0.6835 -0.3180
 5635TIP3    H138464   5.660   4.776   2.403  0.7739 -0.6052 -0.3421
 5635TIP3    H238465   5.694   4.635   2.445  1.3803 -0.6627 -1.0001
 5636TIP3   OH238466   2.727   1.757   1.132  0.5131  0.0254  0.0747
 5636TIP3    H138467   2.640   1.727   1.161  0.0575  1.8109  0.6705
 5636TIP3    H238468   2.757   1.815   1.201  1.2194  1.1655 -1.1486
 5637TIP3   OH238469   3.534   0.886   1.160  0.4176  0.1874 -0.0306
 5637TIP3    H138470   3.550   0.882   1.254 -2.7033 -0.6831  0.5885
 5637TIP3    H238471   3.595   0.953   1.128  1.5033  0.5911  2.5895
 5638TIP3   OH238472   0.556   6.749   2.024 -0.4694  0.3958  0.2760
 5638TIP3    H138473   0.528   6.798   1.947  0.2073  0.6931  0.2164
 5638TIP3    H238474   0.644   6.718   2.003  0.2743  1.6367  1.4463
 5639TIP3   OH238475   1.562   3.092   1.676  0.2863  0.1177 -0.0787
 5639TIP3    H138476   1.511   3.120   1.600  0.0783  3.3810  1.0960
 5639TIP3    H238477   1.653   3.106   1.650  0.5282 -2.4768 -0.9678
 5640TIP3   OH238478   3.553   1.907   7.999 -0.1061  0.4414 -0.2616
 5640TIP3    H138479   3.565   1.875   8.088  1.0874 -0.7577 -0.8106
 5640TIP3    H238480   3.462   1.937   7.996  0.0191  1.1481  1.5299
 5641TIP3   OH238481   5.999   6.639   0.175 -0.0389 -0.4524  0.3672
 5641TIP3    H138482   6.012   6.595   0.259  0.3532  1.8920  1.6417
 5641TIP3    H238483   6.082   6.684   0.159 -0.7831  0.7767 -0.2168
 5642TIP3   OH238484   4.249   1.726   1.639  0.1396 -0.0431  0.1425
 5642TIP3    H138485   4.293   1.780   1.573  1.8229  0.0978  1.3249
 5642TIP3    H238486   4.158   1.723   1.610  0.0733  2.9401 -0.3074
 5643TIP3   OH238487   1.234   3.827   1.826  0.5608 -0.1690 -0.5891
 5643TIP3    H138488   1.183   3.907   1.814  1.1063  0.4218  0.7060
 5643TIP3    H238489   1.274   3.810   1.741  2.1758  2.2109 -0.4213
 5644TIP3   OH238490   1.309   1.032   7.246 -0.0191 -0.2258 -0.0955
 5644TIP3    H138491   1.344   0.959   7.196 -0.4319 -1.6621  1.6295
 5644TIP3    H238492   1.378   1.055   7.308  0.0783  0.8372 -0.5617
 5645TIP3   OH238493   5.627   5.269   7.796  0.1413 -0.5415  0.2091
 5645TIP3    H138494   5.594   5.341   7.743  1.7596  0.1699  0.0927
 5645TIP3    H238495   5.666   5.209   7.733  1.2212 -0.1601  0.4913
 5646TIP3   OH238496   2.476   1.698   0.946 -0.2585  0.3457  0.3878
 5646TIP3    H138497   2.536   1.625   0.959 -1.3917 -0.1957  3.4088
 5646TIP3    H238498   2.478   1.714   0.851  1.7278 -2.0781 -0.0910
 5647TIP3   OH238499   4.659   2.718   7.494 -0.1185 -0.3502 -0.0258
 5647TIP3    H138500   4.721   2.650   7.521 -0.4953 -0.6380  0.1284
 5647TIP3    H238501   4.593   2.672   7.443  1.9014  0.5288 -3.7776
 5648TIP3   OH238502   4.290   4.468   2.141 -0.0180  0.1969  0.8655
 5648TIP3    H138503   4.343   4.507   2.211  0.5300  1.2990 -0.1065
 5648TIP3    H238504   4.308   4.524   2.065 -0.9709 -0.6740 -0.0247
 5649TIP3   OH238505   1.952   5.113   0.114 -0.0819  0.1721  0.2238
 5649TIP3    H138506   1.891   5.187   0.105 -1.9012 -1.1941  0.7640
 5649TIP3    H238507   1.965   5.083   0.024 -1.5884 -0.5502  0.2145
 5650TIP3   OH238508   6.514   2.033   7.785 -0.2270  0.0590 -0.3367
 5650TIP3    H138509   6.579   2.087   7.740 -0.9441  0.6133 -0.7084
 5650TIP3    H238510   6.549   1.944   7.778  0.3198  0.3029 -0.8413
 5651TIP3   OH238511   1.896   0.956   7.709 -0.2035  0.0630  0.9719
 5651TIP3    H138512   1.930   0.946   7.620  0.3788  0.6482  1.1273
 5651TIP3    H238513   1.826   1.021   7.701 -1.0368 -0.8292  0.7281
 5652TIP3   OH238514   4.763   2.482   6.848 -0.4171  0.5746  0.4210
 5652TIP3    H138515   4.830   2.536   6.890 -1.1649  1.3940  0.5868
 5652TIP3    H238516   4.811   2.408   6.812  0.6668  1.4594 -0.0015
 5653TIP3   OH238517   0.406   4.334   1.416  0.4736  0.2980  0.4001
 5653TIP3    H138518   0.367   4.273   1.354  1.7384  0.1130 -0.2627
 5653TIP3    H238519   0.476   4.284   1.459 -0.4031  0.4040  2.0456
 5654TIP3   OH238520   1.217   2.236   0.824 -0.1477  0.2211  0.0929
 5654TIP3    H138521   1.141   2.250   0.881  0.2473  0.1366  0.6465
 5654TIP3    H238522   1.226   2.319   0.777  1.3646  1.4662  2.3936
 5655TIP3   OH238523   1.720   4.188   2.589  0.1399  0.3232 -0.0755
 5655TIP3    H138524   1.661   4.149   2.653  0.5954  1.0923  0.8290
 5655TIP3    H238525   1.718   4.127   2.515 -3.5262  1.3801 -1.0665
 5656TIP3   OH238526   4.066   1.186   1.045  0.3110  0.1005 -0.0664
 5656TIP3    H138527   3.986   1.176   1.097 -0.0116 -1.2587 -0.7589
 5656TIP3    H238528   4.043   1.251   0.979 -0.1505 -0.0978 -0.1098
 5657TIP3   OH238529   0.603   5.376   2.958  0.6414 -0.4053 -0.0232
 5657TIP3    H138530   0.532   5.313   2.948  0.0766  0.1393  0.4630
 5657TIP3    H238531   0.563   5.450   3.004  1.2000  0.4591 -0.8989
 5658TIP3   OH238532   3.430   3.314   8.260 -0.0621 -0.5493  0.8238
 5658TIP3    H138533   3.438   3.277   8.347  3.4015 -3.3873 -0.4521
 5658TIP3    H238534   3.521   3.325   8.230 -1.0860  0.0483 -2.4968
 5659TIP3   OH238535   5.012   6.387   7.366  0.0935 -0.3001 -0.6679
 5659TIP3    H138536   5.070   6.329   7.415  1.6565 -0.1837 -2.2731
 5659TIP3    H238537   4.997   6.462   7.425  1.4033 -0.4438 -0.1280
 5660TIP3   OH238538   5.481   5.690   8.404  0.0820  0.6146  0.1436
 5660TIP3    H138539   5.489   5.688   8.309 -0.5463  0.6229  0.0857
 5660TIP3    H238540   5.406   5.633   8.423  1.2155 -0.7625  0.7611
 5661TIP3   OH238541   6.686   4.980   8.030 -0.3711 -0.2247  0.3963
 5661TIP3    H138542   6.605   5.027   8.010  0.0002 -0.0161 -0.7308
 5661TIP3    H238543   6.662   4.887   8.021  0.0226 -0.1410 -2.3276
 5662TIP3   OH238544   4.174   3.732   1.846  0.3610 -0.3639  0.8778
 5662TIP3    H138545   4.198   3.692   1.929  0.1564 -0.5596  0.8440
 5662TIP3    H238546   4.099   3.681   1.815  0.4211 -0.2805  0.5843
 5663TIP3   OH238547   4.611   3.717   2.776  0.1805  0.0692  0.3077
 5663TIP3    H138548   4.675   3.719   2.705 -0.3151 -0.0034 -0.1533
 5663TIP3    H238549   4.606   3.625   2.802 -2.6023 -0.7416 -2.3767
 5664TIP3   OH238550   4.663   6.255   2.485 -0.0487 -0.0348 -0.3617
 5664TIP3    H138551   4.656   6.298   2.399  0.2022  1.4859  0.3465
 5664TIP3    H238552   4.754   6.226   2.489  0.1365  0.5350 -0.3292
 5665TIP3   OH238553   4.138   6.326   8.624 -0.4198  0.3590 -0.2867
 5665TIP3    H138554   4.054   6.298   8.659  0.1168 -1.9128 -0.6851
 5665TIP3    H238555   4.117   6.365   8.539 -0.9385 -1.9367 -1.2715
 5666TIP3   OH238556   5.946   1.044   8.167  0.4419  0.6607 -0.6546
 5666TIP3    H138557   6.030   1.066   8.208  0.6284  0.7605 -1.0872
 5666TIP3    H238558   5.892   1.122   8.180 -0.5029 -0.3114  1.9436
 5667TIP3   OH238559   3.974   2.507   1.583  0.5500  0.5344 -0.4010
 5667TIP3    H138560   4.026   2.546   1.653  0.5661  1.6905 -1.0347
 5667TIP3    H238561   4.037   2.487   1.514  0.3414  0.7365 -0.6544
 5668TIP3   OH238562   5.139   1.705   0.999 -0.2622  0.0013 -0.3011
 5668TIP3    H138563   5.155   1.683   1.091 -0.3739  0.8338 -0.0764
 5668TIP3    H238564   5.144   1.801   0.996  0.5453 -0.0540 -1.3076
 5669TIP3   OH238565   4.809   6.592   0.998 -0.4957  0.5225  0.0703
 5669TIP3    H138566   4.892   6.543   0.999 -1.2225 -0.8588 -1.5292
 5669TIP3    H238567   4.795   6.618   1.089  0.9495 -0.5061  0.6307
 5670TIP3   OH238568   6.725   3.414   0.701  0.3893  0.0866 -0.4803
 5670TIP3    H138569   6.789   3.478   0.734  0.3000  0.2679 -0.6569
 5670TIP3    H238570   6.714   3.436   0.609  1.5967 -1.2155 -0.9776
 5671TIP3   OH238571   1.032   0.117   2.556 -0.0823  0.3788  0.3793
 5671TIP3    H138572   1.122   0.115   2.588 -0.1916  2.4829  1.0147
 5671TIP3    H238573   0.991   0.040   2.594  1.2768 -0.2791  0.5789
 5672TIP3   OH238574   5.635   4.469   1.245 -0.2010 -0.0921 -0.1779
 5672TIP3    H138575   5.560   4.413   1.225  0.3478 -0.8709 -0.1076
 5672TIP3    H238576   5.688   4.417   1.305  0.6415  0.2400 -0.6162
 5673TIP3   OH238577   4.529   4.938   1.470 -0.0670  0.2732  0.1271
 5673TIP3    H138578   4.530   4.847   1.440  0.8323  0.4588 -0.4499
 5673TIP3    H238579   4.620   4.959   1.488 -0.2845  1.0044  0.4428
 5674TIP3   OH238580   5.188   2.269   7.900 -0.0217  0.5161 -0.0054
 5674TIP3    H138581   5.150   2.265   7.812 -2.3702 -1.2926  0.9825
 5674TIP3    H238582   5.274   2.310   7.887 -0.6428  1.1489 -2.9785
 5675TIP3   OH238583   2.206   1.795   1.690  0.4102 -0.3363  0.9104
 5675TIP3    H138584   2.213   1.762   1.601 -0.6214 -1.3537  1.1803
 5675TIP3    H238585   2.116   1.825   1.697  1.1505  2.0982  0.8604
 5676TIP3   OH238586   6.493   3.788   1.264  0.3962 -0.0645 -0.3214
 5676TIP3    H138587   6.417   3.733   1.247  1.0542 -0.3443 -2.8462
 5676TIP3    H238588   6.496   3.848   1.189  3.6553 -1.3078 -1.3572
 5677TIP3   OH238589   6.551   3.327   7.517  0.2805  0.2120  0.5287
 5677TIP3    H138590   6.500   3.247   7.502  1.7432 -0.7822  0.6963
 5677TIP3    H238591   6.485   3.394   7.532 -0.9952 -0.9796  0.4730
 5678TIP3   OH238592   0.283   1.702   8.385  0.2126 -0.3447 -0.2418
 5678TIP3    H138593   0.208   1.694   8.327 -0.0041  0.3888 -0.0793
 5678TIP3    H238594   0.297   1.614   8.420 -0.9576 -0.3616  0.2125
 5679TIP3   OH238595   4.106   0.331   7.481 -0.5323  0.3554 -0.1760
 5679TIP3    H138596   4.038   0.395   7.457 -0.7156 -0.1190 -0.9681
 5679TIP3    H238597   4.064   0.246   7.466  0.5195  0.0467 -1.5506
 5680TIP3   OH238598   2.251   3.829   7.018  0.2478 -0.3105  0.5172
 5680TIP3    H138599   2.250   3.904   6.959  0.3467  1.3261  2.4684
 5680TIP3    H238600   2.161   3.823   7.051 -0.0004 -1.7006 -0.3344
 5681TIP3   OH238601   2.685   6.188   2.289 -0.1409 -0.0804 -0.1687
 5681TIP3    H138602   2.770   6.144   2.297 -0.5793 -0.6357  2.6932
 5681TIP3    H238603   2.628   6.124   2.246  0.5323 -0.2328 -0.8523
 5682TIP3   OH238604   0.120   6.679   8.369 -0.5984 -0.0250  0.5884
 5682TIP3    H138605   0.158   6.592   8.382 -2.1122 -0.6929  0.8114
 5682TIP3    H238606   0.040   6.662   8.319 -0.5764  1.3210  0.0693
 5683TIP3   OH238607   5.550   3.364   0.270  0.2218 -0.2689  0.0842
 5683TIP3    H138608   5.484   3.413   0.221  1.5356  0.6346 -0.8581
 5683TIP3    H238609   5.626   3.422   0.273 -0.1184  0.2803  4.3323
 5684TIP3   OH238610   4.419   6.765   1.940  0.3687  0.3911 -0.0948
 5684TIP3    H138611   4.398   6.673   1.926 -1.0322  0.7034 -0.1904
 5684TIP3    H238612   4.397   6.781   2.032  0.2860  0.7113 -0.1689
 5685TIP3   OH238613   4.594   1.341   8.258  0.1211  0.1112  0.5318
 5685TIP3    H138614   4.590   1.388   8.175  0.8552  0.9810  0.9694
 5685TIP3    H238615   4.585   1.249   8.234  1.8346  0.2088 -0.6904
 5686TIP3   OH238616   1.167   0.283   7.303 -0.1217  0.1297  0.1840
 5686TIP3    H138617   1.135   0.240   7.224 -0.7535  2.5566 -0.9755
 5686TIP3    H238618   1.162   0.215   7.371 -0.6908 -1.6847 -1.5649
 5687TIP3   OH238619   3.919   3.861   1.498  0.3011 -0.1915  0.1223
 5687TIP3    H138620   3.912   3.859   1.403  0.7722 -1.2742  0.0979
 5687TIP3    H238621   3.964   3.780   1.521  0.5214  0.2254  1.2437
 5688TIP3   OH238622   4.879   5.030   1.797  0.0464 -0.1218  0.1008
 5688TIP3    H138623   4.895   5.040   1.891  0.4022 -0.2673  0.0564
 5688TIP3    H238624   4.832   5.110   1.772  0.7876  0.3533  0.2154
 5689TIP3   OH238625   4.389   4.186   7.668 -0.0264  0.3557 -0.2673
 5689TIP3    H138626   4.348   4.135   7.738  1.0364  0.1530  0.2379
 5689TIP3    H238627   4.481   4.159   7.670  0.7138  2.6388  0.3772
 5690TIP3   OH238628   3.260   1.601   0.258  0.3227 -0.3869 -0.3942
 5690TIP3    H138629   3.190   1.602   0.194 -1.5855  0.8648  1.5835
 5690TIP3    H238630   3.278   1.508   0.272  0.4059 -0.6852 -2.2845
 5691TIP3   OH238631   4.483   1.130   0.165  0.3867 -0.4548 -0.2775
 5691TIP3    H138632   4.505   1.165   0.252 -1.2745 -1.2927  0.5168
 5691TIP3    H238633   4.443   1.045   0.182 -0.6245 -0.3252 -1.8289
 5692TIP3   OH238634   5.374   3.760   1.045  0.1574 -0.1800 -0.2403
 5692TIP3    H138635   5.350   3.846   1.011  1.5973  0.1972 -0.3694
 5692TIP3    H238636   5.353   3.699   0.973  0.0198  0.1789 -0.5046
 5693TIP3   OH238637   3.946   1.768   1.248  0.6216  0.3139  0.3373
 5693TIP3    H138638   3.896   1.697   1.208 -1.1075  1.5001  0.3239
 5693TIP3    H238639   3.995   1.807   1.176  0.9967 -0.3544  0.2164
 5694TIP3   OH238640   3.111   3.675   8.076  0.1008 -1.3083 -0.4702
 5694TIP3    H138641   3.202   3.647   8.083  0.2783 -0.3387  1.7846
 5694TIP3    H238642   3.114   3.753   8.021  0.7924 -0.6905  0.4201
 5695TIP3   OH238643   4.915   0.787   2.031 -0.0603 -0.0839 -0.0212
 5695TIP3    H138644   4.936   0.728   2.104 -1.8649 -0.1732  0.4765
 5695TIP3    H238645   4.972   0.759   1.960 -0.2475 -1.8712  0.4888
 5696TIP3   OH238646   3.777   2.081   1.960  0.2404  0.4587  0.0240
 5696TIP3    H138647   3.841   2.088   1.889 -0.4235 -1.5897 -0.8455
 5696TIP3    H238648   3.711   2.019   1.928 -0.9229  0.6634  1.8306
 5697TIP3   OH238649   2.307   5.095   1.749 -0.1828  0.3315  0.1645
 5697TIP3    H138650   2.380   5.153   1.729 -0.9296  1.0360 -0.5714
 5697TIP3    H238651   2.332   5.053   1.832  0.7958  0.9762  0.2085
 5698TIP3   OH238652   5.693   0.086   2.947  0.4203  0.2330 -0.4640
 5698TIP3    H138653   5.661   0.165   2.904  0.1481 -0.4221 -1.5009
 5698TIP3    H238654   5.657   0.091   3.036 -1.0222  0.4547 -1.0283
 5699TIP3   OH238655   3.829   0.529   2.092 -0.2677  0.3450 -0.7023
 5699TIP3    H138656   3.832   0.456   2.154 -2.3851  1.2621  0.5711
 5699TIP3    H238657   3.899   0.588   2.120 -0.4739  0.2111  0.1043
 5700TIP3   OH238658   6.334   0.035   8.676  0.4603  0.0469 -0.1241
 5700TIP3    H138659   6.422   0.003   8.694 -0.2549 -0.3639  3.3511
 5700TIP3    H238660   6.328   0.117   8.724 -1.1915 -0.1743  0.1115
 5701TIP3   OH238661   5.578   6.653   0.315 -0.5280  0.8839  0.3017
 5701TIP3    H138662   5.539   6.566   0.318  0.9170  0.1064 -1.3382
 5701TIP3    H238663   5.663   6.642   0.358  1.2571  0.4613 -3.0017
 5702TIP3   OH238664   6.042   6.528   0.432 -0.6074 -0.3541  0.1260
 5702TIP3    H138665   6.065   6.488   0.516  0.8405  0.2075  0.0262
 5702TIP3    H238666   5.955   6.565   0.447 -1.3661 -2.2132  0.6540
 5703TIP3   OH238667   1.064   5.908   7.813 -0.3634  0.3758 -0.0692
 5703TIP3    H138668   1.046   5.905   7.907  0.9490  2.1566  0.2972
 5703TIP3    H238669   1.159   5.917   7.808 -0.2358 -1.3420 -1.6538
 5704TIP3   OH238670   3.405   4.652   1.194  0.0956 -0.2918  0.7772
 5704TIP3    H138671   3.334   4.717   1.199  0.4042  0.2815 -1.4042
 5704TIP3    H238672   3.384   4.588   1.262 -1.4115  0.9195  1.5161
 5705TIP3   OH238673   3.595   6.100   0.503  0.3407 -0.1803 -0.4516
 5705TIP3    H138674   3.508   6.140   0.498  0.6885  0.5129 -1.2802
 5705TIP3    H238675   3.625   6.096   0.412  2.2935  2.1950 -0.0347
 5706TIP3   OH238676   2.503   0.965   1.875  0.2169 -0.5841 -0.3060
 5706TIP3    H138677   2.498   0.881   1.828 -3.2271 -1.2522  0.9642
 5706TIP3    H238678   2.432   1.017   1.838  0.6713  0.8137  0.7154
 5707TIP3   OH238679   3.058   5.124   2.634 -0.1513 -0.0734 -0.1557
 5707TIP3    H138680   3.091   5.035   2.643 -1.2930 -0.6561 -1.4290
 5707TIP3    H238681   3.134   5.174   2.604  0.7203 -0.4015  1.3969
 5708TIP3   OH238682   1.665   3.294   7.388  0.2045 -0.6158  0.3293
 5708TIP3    H138683   1.744   3.254   7.424  1.4683  1.8426  0.4641
 5708TIP3    H238684   1.675   3.286   7.293  0.4844 -0.5784  0.3544
 5709TIP3   OH238685   0.726   1.764   0.245 -0.1911  0.3636  0.1119
 5709TIP3    H138686   0.745   1.857   0.261  3.0748 -0.1808  0.1073
 5709TIP3    H238687   0.782   1.741   0.171  0.3138 -1.9354  1.1100
 5710TIP3   OH238688   4.631   5.855   1.556 -0.2435 -0.4101  0.0296
 5710TIP3    H138689   4.598   5.864   1.645 -1.8199 -1.3089 -0.4434
 5710TIP3    H238690   4.579   5.785   1.517  1.3129 -0.9465 -1.1928
 5711TIP3   OH238691   0.754   6.650   7.364 -0.6826  0.1192  0.5697
 5711TIP3    H138692   0.841   6.629   7.330 -0.1361  2.4482  0.3345
 5711TIP3    H238693   0.699   6.576   7.339  1.2009 -1.3523  0.6235
 5712TIP3   OH238694   3.612   3.744   2.808 -0.0361 -1.0924 -0.1653
 5712TIP3    H138695   3.603   3.831   2.846  1.3056 -1.2592  0.6247
 5712TIP3    H238696   3.628   3.760   2.715  0.9024 -0.4424  0.0926
 5713TIP3   OH238697   5.557   4.351   7.826  0.0511  0.3054 -0.1108
 5713TIP3    H138698   5.523   4.430   7.868  0.6224 -0.0311  1.0331
 5713TIP3    H238699   5.583   4.380   7.738  1.0372  1.6153  0.5654
 5714TIP3   OH238700   4.732   4.673   2.301  0.3488 -0.0644 -0.0854
 5714TIP3    H138701   4.643   4.646   2.281  0.4284  0.0431 -0.6068
 5714TIP3    H238702   4.729   4.769   2.301  0.5387 -0.0573 -0.4595
 5715TIP3   OH238703   5.185   6.226   0.576 -0.5544 -0.3214  0.0165
 5715TIP3    H138704   5.105   6.199   0.623 -0.3319 -0.7166  0.1753
 5715TIP3    H238705   5.250   6.160   0.600 -1.1227 -2.1682 -2.9799
 5716TIP3   OH238706   6.438   4.450   1.313 -0.4803  0.0364 -0.4265
 5716TIP3    H138707   6.506   4.516   1.327 -1.2938  0.6391  0.8233
 5716TIP3    H238708   6.378   4.461   1.386 -0.5418 -2.2491 -0.0684
 5717TIP3   OH238709   0.434   5.263   0.408 -0.4182 -0.0622  0.2030
 5717TIP3    H138710   0.455   5.182   0.363  0.4542  0.1559  0.1965
 5717TIP3    H238711   0.492   5.328   0.369 -0.5930  0.4088  0.7092
 5718TIP3   OH238712   6.281   1.779   8.072  0.0261 -0.0813 -0.3553
 5718TIP3    H138713   6.321   1.693   8.071 -2.9077 -1.6266  0.9134
 5718TIP3    H238714   6.203   1.769   8.128 -1.6055  2.8260 -1.8352
 5719TIP3   OH238715   2.333   3.822   1.872  0.0279 -0.0192 -0.2689
 5719TIP3    H138716   2.274   3.854   1.804  0.7421  0.0901 -0.8434
 5719TIP3    H238717   2.343   3.728   1.853 -1.1924 -0.3845  0.7619
 5720TIP3   OH238718   3.145   4.686   0.545 -0.2236 -0.3515  0.3811
 5720TIP3    H138719   3.121   4.635   0.468 -1.1571 -0.7132  0.8834
 5720TIP3    H238720   3.230   4.724   0.525 -0.0434 -1.1883 -0.4522
 5721TIP3   OH238721   1.087   5.458   8.618 -0.1638 -0.1864 -0.0396
 5721TIP3    H138722   1.171   5.504   8.615 -1.0082  1.3922 -0.4272
 5721TIP3    H238723   1.024   5.520   8.582 -1.6584 -1.0094  1.0240
 5722TIP3   OH238724   3.383   4.204   8.482 -0.0230 -0.2439 -0.1015
 5722TIP3    H138725   3.449   4.263   8.519  1.8218 -2.0605 -0.3041
 5722TIP3    H238726   3.301   4.253   8.487  1.0813  1.5703  1.4814
 5723TIP3   OH238727   6.166   0.369   3.035  0.4756  0.6565 -0.2479
 5723TIP3    H138728   6.194   0.285   3.073  3.0722  0.2908 -2.6838
 5723TIP3    H238729   6.144   0.423   3.111  1.8354 -1.1994  1.5787
 5724TIP3   OH238730   2.025   6.257   0.599  0.1437  0.0047  0.1314
 5724TIP3    H138731   1.991   6.298   0.520  0.9641 -2.1991 -1.4496
 5724TIP3    H238732   2.099   6.312   0.625  0.4145  0.2765 -1.1614
 5725TIP3   OH238733   2.130   1.418   2.073  0.1387 -0.0581 -0.0561
 5725TIP3    H138734   2.133   1.358   2.148  1.2332 -1.1843 -0.9579
 5725TIP3    H238735   2.038   1.445   2.068 -0.2188 -1.0194  0.8702
 5726TIP3   OH238736   5.138   6.744   0.904 -0.2119 -0.2735 -0.6350
 5726TIP3    H138737   5.131   6.649   0.898 -0.3306 -0.2695 -0.5633
 5726TIP3    H238738   5.224   6.760   0.942  0.6568 -0.2991 -2.4935
 5727TIP3   OH238739   1.236   0.092   8.743 -0.0019 -0.0146 -0.4315
 5727TIP3    H138740   1.298   0.160   8.769 -0.4628 -0.2555  1.5118
 5727TIP3    H238741   1.279   0.010   8.769 -0.0083 -0.3803 -1.5417
 5728TIP3   OH238742   0.827   2.409   1.909 -0.6681  0.4329 -0.5125
 5728TIP3    H138743   0.875   2.329   1.891  0.2995  0.8989 -0.1130
 5728TIP3    H238744   0.821   2.453   1.824 -0.4483  0.3375 -0.5784
 5729TIP3   OH238745   6.316   3.158   2.588 -0.0287  0.1446  0.0013
 5729TIP3    H138746   6.408   3.135   2.570  0.2141  0.8646  0.3022
 5729TIP3    H238747   6.315   3.178   2.681 -1.1196 -2.8145  0.7439
 5730TIP3   OH238748   6.815   3.360   7.606 -0.1315 -0.2586 -0.4036
 5730TIP3    H138749   6.742   3.332   7.552  0.1979 -0.8590 -0.5489
 5730TIP3    H238750   6.876   3.286   7.606  1.1872  0.7671 -1.5412
 5731TIP3   OH238751   1.517   1.987   1.866 -0.5545 -0.4383  0.1209
 5731TIP3    H138752   1.452   1.955   1.929 -0.9781 -0.5527 -0.3660
 5731TIP3    H238753   1.595   2.005   1.919 -0.1607 -2.6331  0.3953
 5732TIP3   OH238754   0.774   0.301   8.739 -0.5688  0.0702 -0.0658
 5732TIP3    H138755   0.830   0.224   8.739 -0.8977 -0.1708 -0.1420
 5732TIP3    H238756   0.741   0.308   8.649 -0.1521  0.5859 -0.1840
 5733TIP3   OH238757   0.916   5.626   0.838  0.1639  0.1941 -0.1547
 5733TIP3    H138758   0.990   5.685   0.846  0.3184 -0.1232  0.9806
 5733TIP3    H238759   0.949   5.551   0.788  0.3499  0.4590 -0.4251
 5734TIP3   OH238760   2.883   3.478   7.845 -0.4834  0.5096  0.7638
 5734TIP3    H138761   2.890   3.387   7.815 -1.0053  0.4106  0.9342
 5734TIP3    H238762   2.823   3.519   7.782 -0.2604  0.7312  0.6955
 5735TIP3   OH238763   5.992   5.199   8.512 -0.2685 -0.0903  0.4507
 5735TIP3    H138764   5.936   5.260   8.463 -0.9096 -0.2097  1.0261
 5735TIP3    H238765   6.076   5.245   8.519 -1.2824  1.5864  2.5091
 5736TIP3   OH238766   2.084   3.409   1.719  0.5924 -0.6919 -0.1151
 5736TIP3    H138767   2.097   3.326   1.763 -0.3638 -0.5966  0.3920
 5736TIP3    H238768   2.001   3.442   1.755  0.3034 -0.1328 -1.2473
 5737TIP3   OH238769   6.652   4.355   7.416  0.1242 -0.4755  0.2192
 5737TIP3    H138770   6.720   4.406   7.459  1.3058 -0.0516 -2.0165
 5737TIP3    H238771   6.678   4.264   7.430 -0.2239 -0.4127  1.4322
 5738TIP3   OH238772   6.493   1.000   7.095  0.2908  0.5434  0.3984
 5738TIP3    H138773   6.458   0.951   7.170  1.3394 -0.3176  0.3506
 5738TIP3    H238774   6.415   1.025   7.045 -0.3610  0.1805  1.1927
 5739TIP3   OH238775   1.037   3.483   1.400  0.1699 -0.3243  0.4466
 5739TIP3    H138776   0.986   3.539   1.342  0.0519 -1.4107 -0.5241
 5739TIP3    H238777   1.060   3.407   1.347 -0.0945 -1.4391  1.8537
 5740TIP3   OH238778   1.121   5.216   7.303 -0.9191  0.4567  0.5656
 5740TIP3    H138779   1.155   5.161   7.232  0.1974  0.1211  1.3355
 5740TIP3    H238780   1.164   5.300   7.290 -1.7680  0.8211  0.0493
 5741TIP3   OH238781   0.364   6.185   1.155  0.2952  0.2087  0.2980
 5741TIP3    H138782   0.378   6.272   1.190  0.3979  0.3111  0.0065
 5741TIP3    H238783   0.427   6.177   1.083 -0.2821  0.2108 -0.2168
 5742TIP3   OH238784   2.747   0.280   8.257  0.1241 -0.0252 -0.2114
 5742TIP3    H138785   2.754   0.340   8.332 -1.0516  0.8175 -0.7460
 5742TIP3    H238786   2.743   0.193   8.296 -1.1741  0.4415  0.7800
 5743TIP3   OH238787   3.220   6.236   7.669  0.3518  0.6183 -0.6635
 5743TIP3    H138788   3.244   6.156   7.622 -0.5026 -0.5395  0.7853
 5743TIP3    H238789   3.150   6.275   7.616  0.8444  0.4812 -1.4277
 5744TIP3   OH238790   6.144   1.188   1.707 -0.2976 -0.4966  0.4089
 5744TIP3    H138791   6.107   1.107   1.673  0.8811 -0.6016 -0.6970
 5744TIP3    H238792   6.235   1.188   1.678  0.2474  0.3496  1.9736
 5745TIP3   OH238793   0.873   2.425   0.559 -0.2242  0.6827  0.1405
 5745TIP3    H138794   0.903   2.334   0.560 -2.2646 -0.0755 -1.2618
 5745TIP3    H238795   0.954   2.476   0.557  0.9837 -1.1250 -0.1257
 5746TIP3   OH238796   3.242   0.992   2.587  0.0681 -0.1019  0.3879
 5746TIP3    H138797   3.224   1.071   2.536  0.0296 -0.8106 -0.7415
 5746TIP3    H238798   3.269   1.024   2.673 -0.7305  1.1135  0.2089
 5747TIP3   OH238799   1.630   2.490   1.461 -0.4345 -0.2070 -0.2735
 5747TIP3    H138800   1.635   2.405   1.416 -1.9258 -0.0518 -0.7819
 5747TIP3    H238801   1.687   2.547   1.409 -0.7689 -0.4737 -0.9478
 5748TIP3   OH238802   5.584   1.594   2.425  0.2164 -0.6743 -0.0581
 5748TIP3    H138803   5.648   1.582   2.495  1.4078  2.5034 -0.3907
 5748TIP3    H238804   5.499   1.584   2.467  0.9182 -0.8935  1.3618
 5749TIP3   OH238805   3.778   0.074   1.209 -0.1306 -0.1724 -0.4491
 5749TIP3    H138806   3.747  -0.016   1.212 -0.2292 -0.1806 -1.6169
 5749TIP3    H238807   3.758   0.105   1.121  1.2424  0.5076 -0.5567
 5750TIP3   OH238808   3.029   0.769   8.207  0.1256  0.6190  0.2453
 5750TIP3    H138809   3.031   0.807   8.119 -0.5449  0.1689  0.0303
 5750TIP3    H238810   2.981   0.687   8.197  0.2214  0.4640  0.9948
 5751TIP3   OH238811   3.987   2.628   2.019  0.0497  0.5804 -0.0191
 5751TIP3    H138812   3.922   2.560   2.003 -0.1533  0.7646  0.0163
 5751TIP3    H238813   3.973   2.653   2.110  0.9792 -0.2308  0.3702
 5752TIP3   OH238814   5.908   5.327   7.755  0.8172 -0.1911 -0.6272
 5752TIP3    H138815   5.896   5.269   7.680  1.1270 -1.3391  0.1880
 5752TIP3    H238816   5.819   5.339   7.791  1.0434 -2.6413  0.9737
 5753TIP3   OH238817   0.655   6.026   1.661  0.3990  0.2962 -0.0690
 5753TIP3    H138818   0.666   6.120   1.648 -0.8318  0.4233 -0.3022
 5753TIP3    H238819   0.563   6.010   1.644  0.7046 -1.0551 -0.5862
 5754TIP3   OH238820   3.190   0.636   1.977  0.7366 -0.4664 -0.4635
 5754TIP3    H138821   3.144   0.691   2.040  1.0612  3.1174 -3.0082
 5754TIP3    H238822   3.281   0.635   2.008  1.0730  1.9639 -1.1212
 5755TIP3   OH238823   6.556   5.667   1.591  0.1817  0.3084 -0.3213
 5755TIP3    H138824   6.651   5.655   1.603 -0.1349 -3.2803 -0.1568
 5755TIP3    H238825   6.544   5.670   1.496  0.4839  1.1869 -0.3349
 5756TIP3   OH238826   5.058   0.718   1.798  0.7048  0.4885  0.3048
 5756TIP3    H138827   4.963   0.715   1.803  0.6573  0.6323 -0.4601
 5756TIP3    H238828   5.078   0.692   1.708  1.4749 -1.5787  1.0037
 5757TIP3   OH238829   2.515   1.908   6.538 -0.4328 -0.5471 -0.1200
 5757TIP3    H138830   2.467   1.960   6.604  0.5826 -0.7081  0.7754
 5757TIP3    H238831   2.602   1.948   6.536 -0.1619 -1.1699 -0.6562
 5758TIP3   OH238832   2.848   3.943   8.263 -0.5194 -0.2916  0.2652
 5758TIP3    H138833   2.882   3.942   8.174  0.3012 -1.9875  0.5655
 5758TIP3    H238834   2.879   3.862   8.302 -2.6320 -0.6194  1.4355
 5759TIP3   OH238835   1.675   0.679   0.514 -0.6460 -0.4877 -0.3802
 5759TIP3    H138836   1.740   0.749   0.523 -0.9798  0.1261 -2.1795
 5759TIP3    H238837   1.623   0.683   0.594 -0.0325  0.6795 -0.0199
 5760TIP3   OH238838   5.451   6.447   7.109 -0.3712 -0.5652  0.3696
 5760TIP3    H138839   5.441   6.516   7.175 -1.9296  2.3639 -2.6015
 5760TIP3    H238840   5.540   6.458   7.076 -0.8244  0.5579 -0.5416
 5761TIP3   OH238841   5.928   1.948   1.619  0.0982  0.2032  0.1076
 5761TIP3    H138842   5.960   1.885   1.684  0.0574  0.6293  0.5512
 5761TIP3    H238843   5.992   1.945   1.549 -0.0817 -0.5783 -0.0347
 5762TIP3   OH238844   2.208   2.670   1.493 -0.2093 -0.2546  0.0196
 5762TIP3    H138845   2.123   2.706   1.516 -0.2364 -0.2141 -0.1432
 5762TIP3    H238846   2.268   2.744   1.499  0.0275 -0.5292  1.2905
 5763TIP3   OH238847   2.271   2.664   8.615  0.0831  0.1608 -0.1329
 5763TIP3    H138848   2.217   2.708   8.681 -0.9524 -0.6995 -0.3737
 5763TIP3    H238849   2.227   2.580   8.601  1.1554 -0.3019 -0.8042
 5764TIP3   OH238850   1.300   2.707   2.286  0.3045  0.4533  0.5371
 5764TIP3    H138851   1.219   2.736   2.329 -0.5523 -0.5900 -0.3029
 5764TIP3    H238852   1.275   2.626   2.242  1.1264  1.4557 -1.9204
 5765TIP3   OH238853   1.774   6.572   0.895 -0.3343  0.0598 -0.1132
 5765TIP3    H138854   1.826   6.641   0.936 -1.0840  0.0595  0.8777
 5765TIP3    H238855   1.734   6.526   0.968  1.0408 -2.1867 -0.6786
 5766TIP3   OH238856   5.925   2.277   0.826  0.2735  1.0448  0.1582
 5766TIP3    H138857   5.936   2.185   0.849  1.4234  1.3034  0.7795
 5766TIP3    H238858   5.839   2.283   0.786  1.0764 -0.6961 -1.9797
 5767TIP3   OH238859   1.831   3.871   0.351 -0.1424 -0.4190  0.3541
 5767TIP3    H138860   1.895   3.929   0.309 -0.3152 -1.8000 -1.9971
 5767TIP3    H238861   1.884   3.803   0.392 -0.0239  0.3470  1.5448
 5768TIP3   OH238862   5.821   0.377   0.113 -0.1187 -0.0771  0.0035
 5768TIP3    H138863   5.775   0.456   0.083  0.1225 -0.1101 -0.4689
 5768TIP3    H238864   5.888   0.410   0.173 -2.3760 -0.2242  2.7813
 5769TIP3   OH238865   5.433   1.699   1.213  0.1995  0.1394  0.4433
 5769TIP3    H138866   5.419   1.793   1.211 -0.1240  0.1491  1.9396
 5769TIP3    H238867   5.375   1.664   1.145  2.0771  1.1592 -1.8324
 5770TIP3   OH238868   0.627   3.886   1.363  0.6770  0.1166  0.3121
 5770TIP3    H138869   0.622   3.950   1.434  1.6527  0.2351  0.2806
 5770TIP3    H238870   0.537   3.854   1.354 -0.0296  2.0928 -0.2268
 5771TIP3   OH238871   4.000   1.476   2.038 -0.5774 -0.3681  0.6130
 5771TIP3    H138872   3.931   1.429   2.084 -0.7844 -0.1392  0.5354
 5771TIP3    H238873   3.958   1.510   1.960 -0.6609  0.7086  1.1105
 5772TIP3   OH238874   5.274   0.800   2.635  0.2969  0.4828 -0.3639
 5772TIP3    H138875   5.281   0.888   2.599  2.2244  1.1409  1.4015
 5772TIP3    H238876   5.357   0.758   2.610 -0.0871 -0.4122 -0.1592
 5773TIP3   OH238877   2.945   3.392   0.619  0.7878  0.0069  0.1747
 5773TIP3    H138878   2.909   3.393   0.708  0.2454  0.5531 -0.0423
 5773TIP3    H238879   3.026   3.442   0.625  1.6303 -1.3505  0.6978
 5774TIP3   OH238880   6.521   0.786   0.087 -0.1263  0.3420  0.2044
 5774TIP3    H138881   6.489   0.874   0.066  0.3032  0.5754  0.5139
 5774TIP3    H238882   6.611   0.784   0.054 -0.0428  0.1132  0.4407
 5775TIP3   OH238883   6.009   4.887   8.356  0.4392 -0.0825  0.1974
 5775TIP3    H138884   5.968   4.871   8.271 -1.3559  1.2094  0.7570
 5775TIP3    H238885   5.939   4.872   8.419  1.8263 -1.3523  1.5146
 5776TIP3   OH238886   1.923   0.206   1.708 -0.4038  0.2438  0.7391
 5776TIP3    H138887   1.952   0.276   1.650  0.2447 -0.5922  0.0323
 5776TIP3    H238888   1.867   0.150   1.654  1.0735 -1.1389  0.5655
 5777TIP3   OH238889   5.322   4.646   0.474  0.3308 -0.4335  0.3231
 5777TIP3    H138890   5.314   4.590   0.397 -1.3119 -0.4375  0.4706
 5777TIP3    H238891   5.239   4.636   0.520  1.1309 -0.1136  1.8908
 5778TIP3   OH238892   3.036   0.234   8.358 -0.2316  0.0403  0.1471
 5778TIP3    H138893   2.949   0.220   8.395 -0.1126  1.6646  1.1127
 5778TIP3    H238894   3.022   0.233   8.264 -1.3200  0.3806  0.2893
 5779TIP3   OH238895   5.134   3.785   2.049  0.4125  0.0131 -0.2289
 5779TIP3    H138896   5.078   3.742   1.984  0.8941 -0.3259 -0.4276
 5779TIP3    H238897   5.095   3.872   2.060 -0.4042 -0.3680 -0.0407
 5780TIP3   OH238898   0.387   3.593   1.710 -0.1505  0.4905 -0.5283
 5780TIP3    H138899   0.482   3.591   1.702 -0.1549 -0.6001 -0.4357
 5780TIP3    H238900   0.363   3.684   1.692  0.6674  0.2382 -3.2879
 5781TIP3   OH238901   1.271   3.745   0.841 -0.0776 -0.0004  0.5234
 5781TIP3    H138902   1.209   3.733   0.914 -0.1090 -1.1726  0.3192
 5781TIP3    H238903   1.252   3.832   0.808  0.5054  0.9063  2.4524
 5782TIP3   OH238904   5.401   4.676   0.728  0.1648 -0.2299 -0.2473
 5782TIP3    H138905   5.396   4.681   0.632 -0.9072  0.4367 -0.1806
 5782TIP3    H238906   5.313   4.699   0.757  0.1084 -1.7265  0.8709
 5783TIP3   OH238907   4.139   1.291   7.514 -0.3997 -0.3797 -0.3310
 5783TIP3    H138908   4.128   1.206   7.471 -1.6991 -0.2120 -0.3687
 5783TIP3    H238909   4.155   1.352   7.443 -3.0169 -0.0220 -0.6864
 5784TIP3   OH238910   4.864   3.504   8.061  0.3255  0.3684 -0.4142
 5784TIP3    H138911   4.912   3.494   8.143 -0.5681  1.2523  0.2373
 5784TIP3    H238912   4.789   3.445   8.069  0.9465 -0.5654 -1.1858
 5785TIP3   OH238913   5.429   5.354   2.577  0.3850 -0.2766  0.0728
 5785TIP3    H138914   5.464   5.270   2.605  0.0288 -0.0973  1.0881
 5785TIP3    H238915   5.344   5.332   2.537  0.6762 -0.4784 -0.4518
 5786TIP3   OH238916   0.553   3.016   0.504  0.4266 -0.0822 -0.5032
 5786TIP3    H138917   0.509   2.932   0.490  0.9650 -0.1000 -2.5339
 5786TIP3    H238918   0.593   3.009   0.591 -1.5066 -0.9853  0.3555
 5787TIP3   OH238919   5.662   5.926   8.035  0.3592  0.5674 -0.4700
 5787TIP3    H138920   5.665   5.998   8.098 -1.9470 -0.9777  1.6149
 5787TIP3    H238921   5.663   5.969   7.950  0.3212  2.9921  0.6577
 5788TIP3   OH238922   1.694   5.803   0.156 -0.2445  0.3986 -0.1048
 5788TIP3    H138923   1.736   5.888   0.167 -0.6466  0.5913 -0.0487
 5788TIP3    H238924   1.757   5.741   0.192  0.6603  0.5210 -1.4148
 5789TIP3   OH238925   2.525   5.814   3.206  0.1448  0.1072  0.0194
 5789TIP3    H138926   2.464   5.858   3.146 -0.7297  2.7245  2.6134
 5789TIP3    H238927   2.604   5.867   3.202 -0.0133  0.4668  1.2997
 5790TIP3   OH238928   4.694   6.507   1.460  0.5944  0.5233 -0.8907
 5790TIP3    H138929   4.785   6.479   1.449  0.6999  1.1696 -1.7189
 5790TIP3    H238930   4.642   6.444   1.410  0.3046 -1.3050  1.4720
 5791TIP3   OH238931   1.186   6.823   1.180 -0.3724 -0.5741 -0.1428
 5791TIP3    H138932   1.093   6.846   1.183  0.0596  1.1910  1.3810
 5791TIP3    H238933   1.221   6.876   1.108 -0.2742 -0.0068  0.3109
 5792TIP3   OH238934   1.315   0.448   0.662 -0.5046  0.0734 -0.1949
 5792TIP3    H138935   1.247   0.514   0.674 -0.2523  0.0810  1.4704
 5792TIP3    H238936   1.302   0.387   0.734 -0.0581 -1.1054 -1.0861
 5793TIP3   OH238937   5.608   3.914   7.405 -0.0933 -0.2334  0.2188
 5793TIP3    H138938   5.668   3.847   7.375  0.4240 -0.1305  0.9837
 5793TIP3    H238939   5.564   3.875   7.481  0.9131  0.6098  1.2726
 5794TIP3   OH238940   5.055   0.558   0.011  0.5625  0.1883  0.4577
 5794TIP3    H138941   5.096   0.472   0.012  0.4687  0.0794 -1.5280
 5794TIP3    H238942   5.128   0.620   0.009  0.6306  0.1939  2.0167
 5795TIP3   OH238943   6.473   3.762   8.472  0.4433  0.4363  0.0979
 5795TIP3    H138944   6.415   3.816   8.418  1.2210  0.3103 -0.9048
 5795TIP3    H238945   6.518   3.706   8.409  2.9205  1.7190  0.6108
 5796TIP3   OH238946   1.546   4.099   7.592 -0.5261  0.4498  0.3803
 5796TIP3    H138947   1.515   4.082   7.681  1.1918  1.6966  1.2877
 5796TIP3    H238948   1.610   4.030   7.576 -2.4254 -1.1386 -0.8458
 5797TIP3   OH238949   5.785   6.655   0.485  0.7373  0.1874 -0.0326
 5797TIP3    H138950   5.819   6.723   0.542  0.6704 -0.8365  1.2934
 5797TIP3    H238951   5.716   6.613   0.537 -0.5092  0.3080 -1.5338
 5798TIP3   OH238952   2.110   4.384   0.930  0.1147 -0.2022  0.2937
 5798TIP3    H138953   2.075   4.467   0.962  0.0776  0.1086 -0.5138
 5798TIP3    H238954   2.187   4.409   0.879 -0.2620 -0.5890 -0.4912
 5799TIP3   OH238955   2.225   1.440   2.426  0.0674  0.3142 -1.0113
 5799TIP3    H138956   2.169   1.502   2.472  0.8337 -0.3212  0.9106
 5799TIP3    H238957   2.205   1.355   2.467  1.9797 -0.0191 -0.6697
 5800TIP3   OH238958   3.252   4.226   7.451  0.0592  0.2553  0.3624
 5800TIP3    H138959   3.346   4.230   7.438 -0.0815  0.6761 -0.5700
 5800TIP3    H238960   3.214   4.261   7.371 -0.9177 -0.8796  0.2941
 5801TIP3   OH238961   4.039   3.132   1.421  0.5825 -0.7433  0.3720
 5801TIP3    H138962   4.055   3.120   1.514  1.1913 -0.1559  0.3512
 5801TIP3    H238963   4.096   3.067   1.378  3.3686  1.5431  0.2852
 5802TIP3   OH238964   3.354   2.815   0.411  0.1033  0.7103  0.2702
 5802TIP3    H138965   3.345   2.856   0.496 -0.3742 -0.1084  0.6277
 5802TIP3    H238966   3.270   2.771   0.396  0.2707  0.6407 -0.5027
 5803TIP3   OH238967   5.823   1.061   7.830  0.1731 -0.1387  0.0318
 5803TIP3    H138968   5.763   1.026   7.896 -0.5766  0.3912 -0.3479
 5803TIP3    H238969   5.823   0.995   7.760  2.5421 -1.6907  1.3862
 5804TIP3   OH238970   2.612   2.861   0.048  0.4004 -0.3177  0.3670
 5804TIP3    H138971   2.593   2.951   0.022  2.1046 -0.0143  0.0577
 5804TIP3    H238972   2.598   2.810  -0.032 -1.7433 -0.5609  0.8330
 5805TIP3   OH238973   3.984   2.261   1.830  0.0201  0.5704 -0.0392
 5805TIP3    H138974   3.951   2.292   1.746 -0.8067  1.5273  0.6205
 5805TIP3    H238975   4.078   2.277   1.827 -0.2374  2.1559 -0.1388
 5806TIP3   OH238976   3.292   4.151   0.711  0.0236 -0.0007  0.0701
 5806TIP3    H138977   3.291   4.148   0.806 -0.0566  1.5802  0.1464
 5806TIP3    H238978   3.200   4.164   0.686  0.0909 -0.0408 -0.2035
 5807TIP3   OH238979   1.678   6.202   0.372 -0.2656 -0.4518  0.5234
 5807TIP3    H138980   1.693   6.292   0.399  1.0807 -0.2798 -0.6806
 5807TIP3    H238981   1.744   6.151   0.419 -0.6645 -0.7385  0.7780
 5808TIP3   OH238982   3.672   2.046   0.325  0.3126 -0.1280 -0.0485
 5808TIP3    H138983   3.708   2.118   0.274 -2.3072  0.6356 -0.9844
 5808TIP3    H238984   3.681   1.969   0.268  3.4923 -0.7623  1.1136
 5809TIP3   OH238985   5.112   6.484   2.300  0.1760  0.3201 -0.2852
 5809TIP3    H138986   5.052   6.420   2.261 -1.9809  1.6513  0.6770
 5809TIP3    H238987   5.182   6.431   2.336 -2.3515 -1.7814  1.9813
 5810TIP3   OH238988   2.311   2.470   1.688  0.4053 -0.2057  0.0809
 5810TIP3    H138989   2.274   2.523   1.617  0.4588  2.1329  1.6675
 5810TIP3    H238990   2.236   2.423   1.724  0.0472 -0.0329 -0.4146
 5811TIP3   OH238991   5.280   6.352   0.069  0.5785  0.7599 -0.0815
 5811TIP3    H138992   5.374   6.345   0.053  0.6887 -0.3202  0.8343
 5811TIP3    H238993   5.271   6.329   0.162 -0.5435  1.2757 -0.0570
 5812TIP3   OH238994   1.950   4.899   1.833  0.3624 -0.5605 -0.2148
 5812TIP3    H138995   1.980   4.925   1.920 -2.6895  0.1958  0.7416
 5812TIP3    H238996   1.871   4.847   1.849 -1.0372  0.6774 -2.5138
 5813TIP3   OH238997   5.158   6.119   7.827 -0.1120 -0.2779  0.1139
 5813TIP3    H138998   5.223   6.094   7.761  0.1097  1.2741 -0.2854
 5813TIP3    H238999   5.140   6.038   7.874  1.1141 -1.0237 -0.6438
 5814TIP3   OH239000   6.541   2.341   8.252 -0.1962 -0.5217 -0.3422
 5814TIP3    H139001   6.482   2.300   8.189 -0.5139 -0.9549  0.2343
 5814TIP3    H239002   6.601   2.271   8.279 -1.1204 -0.7849  1.0993
 5815TIP3   OH239003   2.199   0.023   0.614  0.2194  0.1090  0.5566
 5815TIP3    H139004   2.283   0.020   0.568 -0.6244 -2.4165 -1.0537
 5815TIP3    H239005   2.205  -0.048   0.678 -0.6319 -0.0034  0.5166
 5816TIP3   OH239006   1.704   2.944   0.424  0.5652 -0.1747  0.0570
 5816TIP3    H139007   1.773   2.894   0.380  0.9705  1.7557 -1.6287
 5816TIP3    H239008   1.734   2.951   0.515  2.7475  0.7845 -0.6718
 5817TIP3   OH239009   4.301   3.182   6.672  0.2935 -0.4022  0.0025
 5817TIP3    H139010   4.344   3.239   6.736  0.8930 -0.5420 -0.2696
 5817TIP3    H239011   4.304   3.232   6.590 -1.7597  0.4051  0.3520
 5818TIP3   OH239012   6.055   3.048   2.548 -0.1287  0.1258  0.0672
 5818TIP3    H139013   6.124   3.099   2.590 -0.2443 -0.3679  0.8680
 5818TIP3    H239014   5.977   3.063   2.602 -0.6065  0.5024 -0.7025
 5819TIP3   OH239015   4.876   4.472   7.936 -0.3610  0.8225  0.1241
 5819TIP3    H139016   4.811   4.403   7.933  1.1827 -0.8438 -4.7936
 5819TIP3    H239017   4.836   4.546   7.890 -0.2261  1.3816  0.8753
 5820TIP3   OH239018   2.548   2.829   2.578  0.5424 -0.1962  0.3238
 5820TIP3    H139019   2.477   2.861   2.522 -0.7669 -2.7077  0.4067
 5820TIP3    H239020   2.509   2.827   2.666  0.7434 -1.4143  0.3983
 5821TIP3   OH239021   4.713   5.033   8.634  0.1452  0.3251  0.2820
 5821TIP3    H139022   4.797   5.076   8.620 -0.1146  0.0325 -2.8788
 5821TIP3    H239023   4.698   4.982   8.555 -2.7621 -0.0783  0.9602
 5822TIP3   OH239024   1.303   6.253   1.213  0.1219  0.0725  0.0080
 5822TIP3    H139025   1.268   6.205   1.138 -0.5565  0.8807 -0.2118
 5822TIP3    H239026   1.391   6.218   1.225 -0.0009 -0.5253 -0.7528
 5823TIP3   OH239027   3.992   1.728   0.160 -0.2536 -0.5754  0.5133
 5823TIP3    H139028   4.031   1.699   0.078  0.8718 -1.3240  1.2872
 5823TIP3    H239029   3.974   1.647   0.208  0.2718 -0.1194  1.5107
 5824TIP3   OH239030   3.132   1.135   0.979  0.4284  0.0915  0.4967
 5824TIP3    H139031   3.149   1.090   0.896  0.2549  1.9173 -0.5933
 5824TIP3    H239032   3.178   1.083   1.045  1.7170 -0.6700 -0.9451
 5825TIP3   OH239033   3.234   0.473   8.268 -0.2997  0.4922 -0.2474
 5825TIP3    H139034   3.184   0.414   8.324  1.2439 -1.2678 -0.6249
 5825TIP3    H239035   3.186   0.472   8.184 -1.2569  1.2137  0.2698
 5826TIP3   OH239036   5.259   0.317   7.272  0.4103  0.2758  0.1457
 5826TIP3    H139037   5.275   0.292   7.181  0.8087 -0.6892  0.4690
 5826TIP3    H239038   5.190   0.257   7.302 -0.5572  1.3584  0.1435
 5827TIP3   OH239039   5.088   3.285   1.187 -0.2591  0.4006 -0.2967
 5827TIP3    H139040   5.019   3.219   1.196  0.0418  0.2259  0.8538
 5827TIP3    H239041   5.169   3.238   1.204 -0.0388  1.0549  0.5362
 5828TIP3   OH239042   4.760   1.866   1.894  0.1811  0.4781  0.2540
 5828TIP3    H139043   4.686   1.927   1.888  1.3367  1.9926  0.8050
 5828TIP3    H239044   4.837   1.920   1.878  1.2416 -0.9043  0.5017
 5829TIP3   OH239045   0.637   2.580   0.488 -0.1215  0.0319 -0.0316
 5829TIP3    H139046   0.711   2.527   0.519  0.1949  0.8471  0.6362
 5829TIP3    H239047   0.579   2.517   0.446 -1.7010 -1.6068  4.1382
 5830TIP3   OH239048   5.288   3.505   7.528 -0.4361 -0.0669  0.1110
 5830TIP3    H139049   5.276   3.428   7.473  0.8127 -0.3575  0.2019
 5830TIP3    H239050   5.256   3.578   7.474 -0.4929 -0.5067 -0.4578
 5831TIP3   OH239051   1.892   0.438   8.302 -0.6844  0.2500 -0.7144
 5831TIP3    H139052   1.942   0.520   8.300 -0.8589  0.3521 -1.0769
 5831TIP3    H239053   1.937   0.380   8.241 -0.1774 -0.1611  0.0347
 5832TIP3   OH239054   1.163   3.290   7.331 -0.1000  0.3657 -0.2574
 5832TIP3    H139055   1.133   3.211   7.374 -0.3039  0.1175 -0.8443
 5832TIP3    H239056   1.243   3.315   7.378  0.8255 -1.0342 -1.0122
 5833TIP3   OH239057   3.317   1.226   2.028 -0.3939 -0.0208 -0.1690
 5833TIP3    H139058   3.289   1.135   2.014 -2.7256  0.2034  2.4106
 5833TIP3    H239059   3.264   1.277   1.967  0.0154 -0.2381 -0.7216
 5834TIP3   OH239060   2.391   6.189   0.905 -0.6458 -0.1279 -0.1076
 5834TIP3    H139061   2.413   6.096   0.902  0.0322  0.0437 -1.2130
 5834TIP3    H239062   2.302   6.191   0.941 -1.1975 -1.3128 -1.2882
 5835TIP3   OH239063   3.643   5.510   1.215  0.1979 -0.6299 -0.3872
 5835TIP3    H139064   3.699   5.588   1.219 -0.8027  0.2239 -2.0996
 5835TIP3    H239065   3.684   5.454   1.150 -0.4292 -0.3910 -1.0038
 5836TIP3   OH239066   3.626   1.438   1.079 -0.4636 -0.2844 -0.2877
 5836TIP3    H139067   3.581   1.493   1.143 -0.4293 -0.2791 -0.2684
 5836TIP3    H239068   3.571   1.361   1.070 -0.8570  0.0495 -0.8055
 5837TIP3   OH239069   0.435   5.006   0.282  0.4995  0.9210  0.2337
 5837TIP3    H139070   0.512   4.951   0.300  0.6062  1.0212  0.0787
 5837TIP3    H239071   0.394   4.965   0.206  0.9882  1.4817 -0.3413
 5838TIP3   OH239072   3.424   0.300   8.351 -0.4473 -0.0053  0.3317
 5838TIP3    H139073   3.364   0.370   8.325 -1.0169  0.3376  2.3537
 5838TIP3    H239074   3.388   0.221   8.310  0.8813  0.9517 -2.9712
 5839TIP3   OH239075   2.146   6.171   1.051 -0.0859 -0.3044  0.3055
 5839TIP3    H139076   2.109   6.193   1.136  1.2657 -1.5557  1.2637
 5839TIP3    H239077   2.137   6.076   1.046  0.1818 -0.2823 -0.8051
 5840TIP3   OH239078   5.132   0.751   1.271  0.5354 -0.4141  0.4119
 5840TIP3    H139079   5.069   0.739   1.200  0.5781  0.4511  0.2138
 5840TIP3    H239080   5.183   0.828   1.245  1.6695 -1.0995  0.5732
 5841TIP3   OH239081   0.147   2.666   1.181 -0.0745  0.0823  0.3322
 5841TIP3    H139082   0.147   2.753   1.141 -0.9904  0.3828  0.9279
 5841TIP3    H239083   0.195   2.678   1.263  0.0388 -0.0371  0.2826
 5842TIP3   OH239084   6.299   3.916   3.112 -0.6084 -0.2313  0.0270
 5842TIP3    H139085   6.353   3.848   3.152 -0.9130 -1.1197 -1.0179
 5842TIP3    H239086   6.301   3.989   3.174 -0.3783 -1.2435  1.2339
 5843TIP3   OH239087   3.324   4.478   1.380 -0.3332  0.0966  0.3209
 5843TIP3    H139088   3.319   4.529   1.461 -1.1204  0.4878  0.0306
 5843TIP3    H239089   3.285   4.394   1.402  0.5749 -0.2480  0.6790
 5844TIP3   OH239090   6.401   4.059   1.647  0.1382 -0.5733 -0.2136
 5844TIP3    H139091   6.331   4.064   1.712  0.6581  1.9191  0.2633
 5844TIP3    H239092   6.476   4.101   1.689  0.9181 -0.1713 -1.9108
 5845TIP3   OH239093   3.318   5.063   0.504  0.5035  0.3396 -0.4942
 5845TIP3    H139094   3.373   4.990   0.474  1.4787  0.3373  1.1676
 5845TIP3    H239095   3.378   5.138   0.509 -0.2392  0.9900 -1.1012
 5846TIP3   OH239096   5.798   2.546   8.358  0.0320 -0.2698 -0.5249
 5846TIP3    H139097   5.793   2.461   8.314 -1.4500  0.0778 -1.0994
 5846TIP3    H239098   5.849   2.529   8.437  0.0260 -1.6328 -0.7890
 5847TIP3   OH239099   2.566   4.611   8.099 -0.8907  0.4712 -0.6161
 5847TIP3    H139100   2.511   4.618   8.021 -2.5845  1.8498  0.6395
 5847TIP3    H239101   2.506   4.586   8.169  0.7131 -1.4619  0.1746
 5848TIP3   OH239102   5.946   0.018   1.206  0.0958 -0.3973  0.7528
 5848TIP3    H139103   5.892  -0.019   1.137  1.0679 -0.9338  0.2627
 5848TIP3    H239104   5.889   0.019   1.283 -0.0267 -2.8604  0.7759
 5849TIP3   OH239105   3.567   5.929   1.928  0.5116  0.0992  0.4174
 5849TIP3    H139106   3.596   5.993   1.863 -0.0885  0.2998  0.3403
 5849TIP3    H239107   3.473   5.945   1.936  0.3700 -0.7245  0.4535
 5850TIP3   OH239108   1.509   2.770   0.308  0.1407  0.5850 -0.4650
 5850TIP3    H139109   1.430   2.783   0.361  0.5123 -1.1039  0.5607
 5850TIP3    H239110   1.574   2.829   0.347 -0.3107  1.2639 -0.7083
 5851TIP3   OH239111   5.090   6.377   8.466 -0.5347 -0.6620 -0.6605
 5851TIP3    H139112   5.147   6.302   8.451 -0.1567 -0.4533 -0.2805
 5851TIP3    H239113   5.002   6.344   8.449 -0.2184 -0.6652 -2.4823
 5852TIP3   OH239114   3.019   5.198   2.263  0.3415  0.9846  0.0040
 5852TIP3    H139115   3.005   5.166   2.174 -1.7454  2.2912 -0.2029
 5852TIP3    H239116   3.021   5.119   2.317 -1.2850  0.2913 -0.8800
 5853TIP3   OH239117   6.439   4.481   7.277  0.0521  0.3220 -0.6250
 5853TIP3    H139118   6.477   4.538   7.343 -1.5405 -0.0455  0.6934
 5853TIP3    H239119   6.503   4.411   7.264  0.7529  0.8661 -0.1185
 5854TIP3   OH239120   3.091   1.607   1.661  0.0013 -0.4037  0.3940
 5854TIP3    H139121   3.159   1.653   1.710 -0.9259  0.9078  0.4815
 5854TIP3    H239122   3.074   1.528   1.712  0.6373 -0.1733  0.9756
 5855TIP3   OH239123   4.488   5.361   0.377 -0.0485  0.1826  0.0240
 5855TIP3    H139124   4.473   5.342   0.470  0.4329 -1.7983 -0.2544
 5855TIP3    H239125   4.574   5.323   0.358  0.5920  1.9690 -0.8888
 5856TIP3   OH239126   4.893   2.869   0.153  0.3803 -0.4291  0.3297
 5856TIP3    H139127   4.873   2.947   0.206  0.5468  0.7750 -1.3131
 5856TIP3    H239128   4.988   2.866   0.149  0.3960 -1.2085  1.0584
 5857TIP3   OH239129   2.749   5.496   7.340  0.2324 -0.7818 -0.1672
 5857TIP3    H139130   2.813   5.463   7.277  0.1710 -0.7515 -0.2445
 5857TIP3    H239131   2.672   5.516   7.288 -0.5156 -2.5961  0.1762
 5858TIP3   OH239132   5.782   2.106   8.250 -0.3449 -0.4820  0.7039
 5858TIP3    H139133   5.764   2.072   8.162 -0.5637 -0.0848  0.5934
 5858TIP3    H239134   5.803   2.198   8.237  2.2359 -0.9743  0.7718
 5859TIP3   OH239135   0.890   0.823   8.336  0.0023  0.4533  0.2404
 5859TIP3    H139136   0.936   0.905   8.354 -0.6913  1.1567 -1.0218
 5859TIP3    H239137   0.938   0.784   8.263 -0.5243  0.4869 -0.1367
 5860TIP3   OH239138   2.813   6.467   7.575 -0.3127  0.2949  0.2525
 5860TIP3    H139139   2.759   6.389   7.559 -0.6679  0.6176 -0.1309
 5860TIP3    H239140   2.833   6.463   7.669 -0.0837 -0.4111  0.1852
 5861TIP3   OH239141   4.760   2.990   2.218 -0.0298 -0.1029 -0.3395
 5861TIP3    H139142   4.779   2.919   2.157  1.1396  1.4159 -1.8243
 5861TIP3    H239143   4.824   2.979   2.288 -0.3161 -0.8945 -0.1834
 5862TIP3   OH239144   0.400   0.981   8.323  0.4946  0.0638 -0.3185
 5862TIP3    H139145   0.410   0.961   8.416 -0.2068 -0.4572 -0.3439
 5862TIP3    H239146   0.463   0.925   8.279  1.0981  0.5858 -0.1415
 5863TIP3   OH239147   1.739   5.720   7.355  0.2486 -0.1199  0.3612
 5863TIP3    H139148   1.737   5.810   7.323  0.8709  0.0525  0.8077
 5863TIP3    H239149   1.794   5.723   7.433 -0.9119 -0.6155  1.2327
 5864TIP3   OH239150   5.423   2.120   0.559  0.2651 -0.1917 -0.0529
 5864TIP3    H139151   5.433   2.142   0.652 -0.6417 -0.6056  0.1530
 5864TIP3    H239152   5.368   2.042   0.559  0.0215 -0.0262 -0.9528
 5865TIP3   OH239153   1.141   2.487   7.990 -0.1378 -0.0953  0.3866
 5865TIP3    H139154   1.149   2.574   7.950 -1.3639  0.0817  0.5026
 5865TIP3    H239155   1.162   2.427   7.919  1.6034  0.2894  0.5307
 5866TIP3   OH239156   2.861   1.380   0.742 -0.5269 -0.1868 -0.1534
 5866TIP3    H139157   2.898   1.308   0.691 -1.0358  0.0593 -0.8679
 5866TIP3    H239158   2.930   1.447   0.743 -0.2964 -0.4250 -0.0212
 5867TIP3   OH239159   4.585   1.675   1.747 -0.0744 -0.2219  0.6196
 5867TIP3    H139160   4.497   1.656   1.779  0.5590 -1.3424  1.7576
 5867TIP3    H239161   4.623   1.730   1.815  0.2487 -0.0686  0.3152
 5868TIP3   OH239162   6.235   1.188   8.562  0.8385 -0.5926 -0.2286
 5868TIP3    H139163   6.295   1.260   8.580  0.3383 -0.4428  1.0009
 5868TIP3    H239164   6.150   1.231   8.547  1.3149 -0.6399 -4.0254
 5869TIP3   OH239165   0.496   5.856   0.603 -0.0122  0.0497  0.2985
 5869TIP3    H139166   0.589   5.857   0.623 -0.0845 -0.1670  0.6667
 5869TIP3    H239167   0.491   5.874   0.509  0.4766 -1.2065  0.0140
 5870TIP3   OH239168   5.892   2.680   1.874 -0.1305  0.3675 -0.6743
 5870TIP3    H139169   5.846   2.756   1.837 -1.6190  0.3410  0.9984
 5870TIP3    H239170   5.926   2.711   1.958  0.5541 -0.4024 -0.6618
 5871TIP3   OH239171   1.984   2.515   1.320 -0.1050 -0.1777 -0.7172
 5871TIP3    H139172   2.023   2.561   1.395  2.2526 -0.3640 -1.7448
 5871TIP3    H239173   1.980   2.423   1.347 -2.4076  0.1654  0.3628
 5872TIP3   OH239174   0.125   4.991   7.942 -0.0120 -0.3884 -0.1114
 5872TIP3    H139175   0.196   4.993   7.878 -0.3373 -2.3378 -0.5753
 5872TIP3    H239176   0.060   4.931   7.906 -1.1790  0.0873  1.0762
 5873TIP3   OH239177   5.288   5.339   7.463  0.2822  0.7434 -0.2999
 5873TIP3    H139178   5.318   5.259   7.420  1.4986  0.9381  0.1379
 5873TIP3    H239179   5.243   5.308   7.542 -0.6754  0.4428 -0.9574
 5874TIP3   OH239180   1.002   2.453   0.016  0.1572 -0.7175  0.3436
 5874TIP3    H139181   0.928   2.402  -0.016  0.6483 -1.1235 -0.1582
 5874TIP3    H239182   1.074   2.390   0.023  1.1418  0.1124 -1.5206
 5875TIP3   OH239183   6.638   2.700   1.208  0.2743  0.4327 -0.0369
 5875TIP3    H139184   6.678   2.677   1.292  1.0523  1.2601 -0.1604
 5875TIP3    H239185   6.675   2.637   1.146 -1.6527 -1.3217  0.5133
 5876TIP3   OH239186   4.256   6.717   1.506  0.5132 -0.9650 -0.5093
 5876TIP3    H139187   4.288   6.677   1.425  0.1864 -0.6014 -0.8214
 5876TIP3    H239188   4.163   6.731   1.490  0.2480 -1.7505  0.2867
 5877TIP3   OH239189   2.380   3.113   0.807  0.2148  0.3002  0.7305
 5877TIP3    H139190   2.402   3.064   0.886  0.8386  1.0231  1.0140
 5877TIP3    H239191   2.455   3.101   0.749 -0.8575 -1.4977 -0.4201
 5878TIP3   OH239192   2.457   5.547   2.252  0.0101 -1.0281  0.4408
 5878TIP3    H139193   2.508   5.610   2.303  0.1853  0.4105 -1.3718
 5878TIP3    H239194   2.366   5.574   2.265 -0.1235 -1.9554  1.5834
 5879TIP3   OH239195   2.637   0.157   0.879 -0.1412 -0.1160  0.5424
 5879TIP3    H139196   2.675   0.240   0.907 -1.4065  0.5492  0.3218
 5879TIP3    H239197   2.546   0.177   0.859 -0.0516 -1.1909 -1.1704
 5880TIP3   OH239198   0.806   0.777   7.647 -0.1955  0.1341  0.1651
 5880TIP3    H139199   0.871   0.714   7.617 -0.5969 -0.1684 -0.0873
 5880TIP3    H239200   0.779   0.743   7.733  0.3045  0.5098  0.4771
 5881TIP3   OH239201   4.906   2.147   2.431  0.2021  0.0169  0.2817
 5881TIP3    H139202   4.811   2.140   2.446  0.1118 -2.4554 -0.8708
 5881TIP3    H239203   4.945   2.119   2.514 -0.1477 -1.5285 -0.0422
 5882TIP3   OH239204   6.164   3.369   8.113  0.3881 -0.0098  0.0316
 5882TIP3    H139205   6.086   3.398   8.066  0.2992 -0.0970  0.1241
 5882TIP3    H239206   6.228   3.439   8.099 -0.4256  1.1489  1.8124
 5883TIP3   OH239207   1.558   2.230   7.605  0.5526  0.1085  0.6190
 5883TIP3    H139208   1.524   2.254   7.519 -0.3611 -0.3653  0.8284
 5883TIP3    H239209   1.579   2.137   7.597  1.1461  0.2315  0.7061
 5884TIP3   OH239210   2.480   5.122   0.823  0.2203  0.6586 -0.4323
 5884TIP3    H139211   2.552   5.111   0.761 -0.6062  0.1469 -1.3291
 5884TIP3    H239212   2.401   5.117   0.769 -0.5636 -0.8956  0.7927
 5885TIP3   OH239213   6.083   3.386   0.182 -0.0368  0.1611 -0.3934
 5885TIP3    H139214   6.028   3.320   0.139 -0.0229  0.2300 -0.5163
 5885TIP3    H239215   6.151   3.405   0.118 -0.2030  0.5040 -0.4711
 5886TIP3   OH239216   1.037   6.181   2.674 -0.2540 -0.7749 -0.0604
 5886TIP3    H139217   1.030   6.091   2.706  0.5978 -0.5939  0.6535
 5886TIP3    H239218   1.115   6.182   2.619  0.5462 -0.1664  1.0430
 5887TIP3   OH239219   2.248   1.117   7.337 -0.1813 -0.7284  0.2481
 5887TIP3    H139220   2.199   1.164   7.269  0.3339 -0.9507 -0.2755
 5887TIP3    H239221   2.297   1.186   7.383 -2.7648 -0.1144  2.3620
 5888TIP3   OH239222   1.124   3.271   0.100  0.2557  0.1412 -0.6518
 5888TIP3    H139223   1.160   3.350   0.139 -0.5899  0.4982 -0.5683
 5888TIP3    H239224   1.067   3.303   0.030 -1.9665 -0.2532  0.8980
 5889TIP3   OH239225   5.995   5.515   8.085  0.0314 -0.0323  0.2318
 5889TIP3    H139226   5.916   5.465   8.103  0.3476 -0.4375  0.5137
 5889TIP3    H239227   5.988   5.593   8.139 -0.6059  0.3829 -0.4325
 5890TIP3   OH239228   5.366   5.289   8.105 -0.3236  0.2996  0.1806
 5890TIP3    H139229   5.322   5.292   8.020  2.3391 -0.4999 -1.3548
 5890TIP3    H239230   5.339   5.370   8.149 -0.9038  1.3182 -1.9087
 5891TIP3   OH239231   5.679   0.672   8.314 -0.1209 -0.8346  0.4298
 5891TIP3    H139232   5.684   0.576   8.314 -1.2344 -0.9558 -1.7083
 5891TIP3    H239233   5.766   0.701   8.341  0.8639 -2.4761 -0.7972
 5892TIP3   OH239234   2.124   3.386   6.962  0.1941 -0.2611  0.1138
 5892TIP3    H139235   2.102   3.448   7.032 -1.1639 -1.0134  0.3712
 5892TIP3    H239236   2.194   3.430   6.913 -0.8825  1.5734  0.1567
 5893TIP3   OH239237   1.897   0.004   0.528 -0.4759  0.6323 -0.2456
 5893TIP3    H139238   1.953   0.009   0.451  0.0742  2.0635  0.2203
 5893TIP3    H239239   1.946  -0.049   0.591 -1.1378 -0.9606 -1.0097
 5894TIP3   OH239240   2.117   6.576   7.363 -0.1227 -0.3915  0.1855
 5894TIP3    H139241   2.168   6.644   7.406 -0.3785  0.3032 -0.5889
 5894TIP3    H239242   2.050   6.623   7.313  1.5340 -0.9368 -2.8430
 5895TIP3   OH239243   2.165   3.992   0.637  0.2723 -0.0074 -0.3966
 5895TIP3    H139244   2.109   3.991   0.714  0.8153  0.6701  0.0208
 5895TIP3    H239245   2.186   4.085   0.623  1.8583 -0.2886 -0.1068
 5896TIP3   OH239246   5.275   0.419   7.860 -0.6553  0.0234 -0.2623
 5896TIP3    H139247   5.368   0.398   7.870 -0.2004  2.3606  1.2486
 5896TIP3    H239248   5.236   0.339   7.824  1.7091 -1.4222  0.1593
 5897TIP3   OH239249   1.806   5.118   2.011  0.2251 -0.0442 -0.0693
 5897TIP3    H139250   1.775   5.205   2.034  0.6197 -0.1437  0.8748
 5897TIP3    H239251   1.727   5.065   2.002  0.0017  0.3386 -0.3565
 5898TIP3   OH239252   1.098   1.852   1.466 -0.0012  0.4915  0.1159
 5898TIP3    H139253   1.184   1.867   1.426 -0.2703  1.7901 -0.0086
 5898TIP3    H239254   1.077   1.761   1.443  1.1223  0.3078 -0.2589
 5899TIP3   OH239255   1.638   5.167   0.096 -1.0232  0.6653  0.0290
 5899TIP3    H139256   1.604   5.207   0.017 -2.8090  1.0903  0.9624
 5899TIP3    H239257   1.654   5.075   0.072 -0.5287  1.0299 -1.0800
 5900TIP3   OH239258   5.592   0.661   1.784  0.6878  0.4409 -0.8882
 5900TIP3    H139259   5.580   0.755   1.771  2.9077  0.9242  0.0141
 5900TIP3    H239260   5.623   0.629   1.699  1.8890  0.9503 -0.6649
 5901TIP3   OH239261   6.372   2.008   0.678  0.3661 -0.4556  0.3216
 5901TIP3    H139262   6.430   2.057   0.736  0.4164 -0.0691 -0.0475
 5901TIP3    H239263   6.375   2.056   0.595 -1.3940  0.2732  0.6261
 5902TIP3   OH239264   1.382   3.206   1.494 -0.3390 -0.2749 -0.2588
 5902TIP3    H139265   1.391   3.264   1.419  1.8363 -0.3920 -0.1424
 5902TIP3    H239266   1.317   3.249   1.550 -2.5986 -0.5600 -2.4608
 5903TIP3   OH239267   4.899   0.674   7.945 -0.2457 -0.3470 -0.1147
 5903TIP3    H139268   4.864   0.743   8.000 -0.8268  0.7465 -1.8042
 5903TIP3    H239269   4.963   0.718   7.888  0.2540 -1.4199 -0.4178
 5904TIP3   OH239270   1.730   1.425   0.863 -0.0754 -0.4175  0.2455
 5904TIP3    H139271   1.734   1.514   0.897  0.4595 -0.8481  1.3550
 5904TIP3    H239272   1.801   1.379   0.908 -1.9682 -2.0803  1.6722
 5905TIP3   OH239273   2.369   6.238   8.388  0.3378  0.6880 -0.3219
 5905TIP3    H139274   2.278   6.211   8.402  0.8311 -0.6960  0.4363
 5905TIP3    H239275   2.415   6.157   8.366  1.3333  1.4270 -1.0441
 5906TIP3   OH239276   3.484   0.281   0.130  0.0542  0.3562  0.0789
 5906TIP3    H139277   3.491   0.186   0.128  1.9881  0.4154  1.5093
 5906TIP3    H239278   3.536   0.310   0.055 -2.7759  0.2964 -2.0528
 5907TIP3   OH239279   1.130   6.289   0.765 -0.0501 -0.0104 -0.1911
 5907TIP3    H139280   1.067   6.298   0.694 -1.8712  0.2472  1.3514
 5907TIP3    H239281   1.156   6.379   0.786  0.4184 -0.0792 -0.4635
 5908TIP3   OH239282   6.487   2.062   1.487 -0.4632 -0.0311  0.5352
 5908TIP3    H139283   6.510   2.005   1.560  0.2990 -1.1476 -0.5216
 5908TIP3    H239284   6.568   2.072   1.438 -1.2594 -0.5562 -0.9675
 5909TIP3   OH239285   3.243   6.346   8.356 -0.6500  0.1944  0.1978
 5909TIP3    H139286   3.234   6.289   8.432  1.7108  1.0615  1.2018
 5909TIP3    H239287   3.245   6.435   8.392  1.1389  0.5862 -0.7607
 5910TIP3   OH239288   5.362   3.776   0.117  0.1506  0.0966  0.4962
 5910TIP3    H139289   5.339   3.797   0.208  0.7880 -1.0768  0.9552
 5910TIP3    H239290   5.278   3.771   0.072 -0.1438  1.2405  0.8867
 5911TIP3   OH239291   2.723   0.405   0.937  0.1119  0.0705 -0.4744
 5911TIP3    H139292   2.732   0.396   1.031 -0.2678 -0.9463 -0.5278
 5911TIP3    H239293   2.660   0.477   0.925  2.6293  2.5065 -0.0307
 5912TIP3   OH239294   0.222   5.262   0.976 -0.1903 -0.1777 -1.3028
 5912TIP3    H139295   0.226   5.358   0.986  0.0859 -0.2345 -0.8407
 5912TIP3    H239296   0.218   5.248   0.881 -0.4272  0.2974 -1.3692
 5913TIP3   OH239297   0.988   3.124   0.685  0.1118  0.0473  0.4680
 5913TIP3    H139298   1.052   3.088   0.746  0.5417 -2.2719 -1.2172
 5913TIP3    H239299   0.992   3.066   0.609 -1.2825  2.0675 -1.2710
 5914TIP3   OH239300   4.985   2.114   0.574 -0.0640  0.1668 -0.3127
 5914TIP3    H139301   5.069   2.091   0.532  0.3374  2.2305 -0.7581
 5914TIP3    H239302   4.919   2.071   0.520  0.6854 -1.3060 -0.0930
 5915TIP3   OH239303   1.436   2.429   1.662  0.2950  0.0078 -0.0026
 5915TIP3    H139304   1.424   2.472   1.747 -3.4912  0.1748 -0.4220
 5915TIP3    H239305   1.502   2.482   1.617  2.2861 -0.0075  2.6785
 5916TIP3   OH239306   4.970   5.834   0.585  0.4712 -0.4994  0.2402
 5916TIP3    H139307   5.027   5.761   0.612 -0.8813 -1.5218  0.4331
 5916TIP3    H239308   4.943   5.811   0.496 -0.1959 -0.3902  0.4117
 5917TIP3   OH239309   0.503   2.169   1.440 -0.1522 -0.2095  0.2250
 5917TIP3    H139310   0.450   2.234   1.486  1.8233  1.6597  0.0099
 5917TIP3    H239311   0.493   2.089   1.492 -2.8761  0.1107  0.3441
 5918TIP3   OH239312   0.410   3.191   8.335  0.2784 -0.3076  0.0806
 5918TIP3    H139313   0.315   3.203   8.330  0.5089  1.7978 -0.1875
 5918TIP3    H239314   0.442   3.209   8.247  1.0010  0.0430  0.3992
 5919TIP3   OH239315   3.028   4.963   2.388 -0.3863 -0.0838  0.1010
 5919TIP3    H139316   3.105   4.946   2.334 -0.6168  0.1303 -0.3078
 5919TIP3    H239317   3.049   4.926   2.473  0.5764  0.8627  0.2955
 5920TIP3   OH239318   6.746   4.952   6.919 -0.0707  0.2503  0.4821
 5920TIP3    H139319   6.795   4.987   6.994  1.5984  0.4062 -0.6183
 5920TIP3    H239320   6.723   4.863   6.945 -1.9783  1.1748  2.2404
 5921TIP3   OH239321   2.837   3.943   1.524 -0.0655 -0.1371  0.4882
 5921TIP3    H139322   2.749   3.907   1.510  0.1345 -0.3992 -0.1191
 5921TIP3    H239323   2.878   3.882   1.585  0.2431 -0.9294 -0.4683
 5922TIP3   OH239324   0.110   0.981   8.360 -0.2281 -0.1523 -0.3255
 5922TIP3    H139325   0.200   0.968   8.330  0.5945 -0.0969  1.9493
 5922TIP3    H239326   0.062   1.009   8.282  1.3393 -1.7834 -1.9698
 5923TIP3   OH239327   1.354   5.348   0.167  0.0130 -0.8460 -0.2005
 5923TIP3    H139328   1.433   5.367   0.116 -1.4592 -0.5475 -2.5489
 5923TIP3    H239329   1.309   5.281   0.116 -1.9931  0.1205  0.2056
 5924TIP3   OH239330   5.710   1.912   1.415 -0.6490  0.0049 -0.1921
 5924TIP3    H139331   5.665   1.990   1.447 -0.4126  1.0937 -2.3298
 5924TIP3    H239332   5.650   1.840   1.435 -1.1407  0.7733  1.2735
 5925TIP3   OH239333   6.443   1.072   7.854 -0.2275 -0.7975 -0.3948
 5925TIP3    H139334   6.486   1.036   7.932  2.6511  0.2832 -1.3571
 5925TIP3    H239335   6.379   1.134   7.889  2.0378  0.8212  1.2240
 5926TIP3   OH239336   1.928   4.270   8.277  0.6081 -0.5573  0.0441
 5926TIP3    H139337   1.898   4.245   8.364  0.7499 -0.9649 -0.0234
 5926TIP3    H239338   2.016   4.233   8.270  1.1378  0.6227  0.2422
 5927TIP3   OH239339   5.546   4.396   8.194 -0.0012 -0.3014  0.0038
 5927TIP3    H139340   5.476   4.403   8.259 -0.3458 -0.2627 -0.3678
 5927TIP3    H239341   5.511   4.337   8.127  0.3012 -0.2389 -0.2120
 5928TIP3   OH239342   2.770   1.172   8.270 -0.0372  0.2351 -0.0112
 5928TIP3    H139343   2.792   1.185   8.178 -0.8063 -0.6556 -0.3423
 5928TIP3    H239344   2.675   1.174   8.272 -0.0282  0.1393  0.7485
 5929TIP3   OH239345   6.720   2.306   8.752  0.4151  0.0380 -0.5202
 5929TIP3    H139346   6.645   2.276   8.702  1.1524 -0.5179 -1.3185
 5929TIP3    H239347   6.686   2.377   8.807 -0.3826  0.7637 -1.9059
 5930TIP3   OH239348   3.394   3.572   7.699 -0.0889 -0.3595 -0.0947
 5930TIP3    H139349   3.453   3.500   7.675  0.4495 -0.3777  1.1815
 5930TIP3    H239350   3.320   3.529   7.741 -0.0728 -0.2152  0.0811
 5931TIP3   OH239351   6.513   4.802   7.846  0.3360 -0.5656 -0.4317
 5931TIP3    H139352   6.423   4.830   7.865  0.7027  0.3041  0.0242
 5931TIP3    H239353   6.502   4.731   7.781 -0.6267  0.2790 -1.2310
 5932TIP3   OH239354   5.992   5.668   8.329 -0.0973  0.0739  0.3740
 5932TIP3    H139355   6.078   5.695   8.361  0.2443 -0.2977 -0.2185
 5932TIP3    H239356   5.946   5.750   8.314  0.0516  0.2708  0.9587
 5933TIP3   OH239357   2.311   1.582   2.195 -0.2619  0.3835 -0.4015
 5933TIP3    H139358   2.289   1.563   2.287  0.0526  0.5837 -0.2827
 5933TIP3    H239359   2.298   1.499   2.150  0.2886  0.0971 -0.0402
 5934TIP3   OH239360   5.836   2.709   1.106  0.4158  0.3032 -0.0054
 5934TIP3    H139361   5.861   2.620   1.082  1.2840  0.6154 -0.2846
 5934TIP3    H239362   5.822   2.753   1.022 -2.2949 -0.1589  0.1098
 5935TIP3   OH239363   1.504   4.727   7.295 -0.1010 -0.0737 -0.4464
 5935TIP3    H139364   1.448   4.788   7.246 -0.3960 -0.3693 -0.4866
 5935TIP3    H239365   1.454   4.708   7.374  0.5192  0.6535  0.1293
 5936TIP3   OH239366   0.451   0.931   8.060  0.1322  1.0701 -0.6006
 5936TIP3    H139367   0.527   0.975   8.099  1.7269  0.1622 -2.5028
 5936TIP3    H239368   0.405   1.001   8.013  0.2602  1.4810 -0.1222
 5937TIP3   OH239369   3.601   3.606   1.464  0.9576 -0.3139  0.0317
 5937TIP3    H139370   3.673   3.555   1.426  1.3514  0.5438 -0.3997
 5937TIP3    H239371   3.528   3.591   1.405  1.1256 -0.2336 -0.2001
 5938TIP3   OH239372   4.160   0.696   1.009 -0.4740  0.1665 -0.5958
 5938TIP3    H139373   4.070   0.716   1.037 -0.0618  0.9399  0.2590
 5938TIP3    H239374   4.193   0.779   0.974  0.1081  0.0663 -0.2998
 5939TIP3   OH239375   4.889   6.734   0.607  0.3559 -0.2741 -0.3315
 5939TIP3    H139376   4.834   6.767   0.678  0.7854 -0.5543  0.1505
 5939TIP3    H239377   4.902   6.809   0.549  0.4969  0.1309  0.2132
 5940TIP3   OH239378   0.028   6.716   8.624  0.1683 -0.4253  0.1031
 5940TIP3    H139379   0.076   6.784   8.670 -0.2906 -0.5495  0.7931
 5940TIP3    H239380   0.058   6.721   8.534  0.5689  0.2991  0.2725
 5941TIP3   OH239381   5.818   1.840   7.563 -0.0034 -0.1558  0.3192
 5941TIP3    H139382   5.807   1.745   7.552 -1.2268 -0.1008  0.9753
 5941TIP3    H239383   5.837   1.851   7.656  0.5208  0.2208  0.1714
 5942TIP3   OH239384   5.204   2.716   1.646 -0.4910  0.1117  0.0131
 5942TIP3    H139385   5.141   2.646   1.627  1.7112 -1.7102 -0.9264
 5942TIP3    H239386   5.268   2.711   1.575  1.2651  1.2399  1.4366
 5943TIP3   OH239387   4.066   6.769   0.384  0.4316 -0.4047 -0.2669
 5943TIP3    H139388   4.025   6.851   0.358 -0.2359 -1.0710 -1.3869
 5943TIP3    H239389   4.044   6.707   0.314  1.0991 -1.4864  0.4410
 5944TIP3   OH239390   3.160   4.401   7.261 -0.3893  0.1635 -0.4419
 5944TIP3    H139391   3.238   4.451   7.239 -0.5380  0.5796 -0.0321
 5944TIP3    H239392   3.151   4.338   7.190  0.6328 -0.2599 -0.2140
 5945TIP3   OH239393   3.362   3.761   7.354 -0.0626 -0.1143  0.4044
 5945TIP3    H139394   3.416   3.840   7.344  0.3001 -0.5634 -1.5542
 5945TIP3    H239395   3.408   3.694   7.303 -1.8381 -0.8405 -0.3129
 5946TIP3   OH239396   3.457   3.304   7.654 -0.6788 -0.1365 -0.3896
 5946TIP3    H139397   3.434   3.273   7.742 -0.8852  0.3441 -0.2720
 5946TIP3    H239398   3.458   3.225   7.601 -0.6040 -0.4266  0.0347
 5947TIP3   OH239399   3.416   4.950   1.793 -0.3608 -0.0101 -0.4007
 5947TIP3    H139400   3.356   4.946   1.718 -1.2333  0.0341  0.2805
 5947TIP3    H239401   3.365   4.992   1.862  0.3796 -0.2046  0.2789
 5948TIP3   OH239402   5.273   0.210   6.999 -0.0328 -0.3822 -0.0843
 5948TIP3    H139403   5.368   0.200   7.006  0.3608  2.6370  0.5622
 5948TIP3    H239404   5.239   0.121   6.990  2.9267 -1.4905 -1.4295
 5949TIP3   OH239405   3.430   4.701   1.882  0.1486 -0.2602 -0.5435
 5949TIP3    H139406   3.515   4.673   1.849 -0.0211 -0.0982 -1.1318
 5949TIP3    H239407   3.428   4.796   1.868  0.0926 -0.1792 -0.0150
 5950TIP3   OH239408   5.692   4.739   2.085  0.6153 -0.1700  0.7176
 5950TIP3    H139409   5.652   4.771   2.167 -0.5509  0.2141  0.0198
 5950TIP3    H239410   5.769   4.794   2.073  0.6044 -0.0001  1.3764
 5951TIP3   OH239411   1.277   1.285   7.442 -0.2334  0.3539 -0.3292
 5951TIP3    H139412   1.213   1.214   7.435 -0.6881  0.8467 -1.5434
 5951TIP3    H239413   1.346   1.262   7.379  0.0286  0.5839 -0.1326
 5952TIP3   OH239414   4.340   2.918   7.182 -0.2435 -1.2179  0.3271
 5952TIP3    H139415   4.388   2.969   7.117 -0.3500 -1.3221  0.1660
 5952TIP3    H239416   4.257   2.896   7.140  0.3592 -2.7187 -0.1436
 5953TIP3   OH239417   4.277   5.069   0.773  0.2234 -0.3514 -0.6527
 5953TIP3    H139418   4.322   5.017   0.840 -1.1226 -0.2871  0.3524
 5953TIP3    H239419   4.303   5.030   0.690  2.1464 -0.2820 -0.1354
 5954TIP3   OH239420   6.661   4.736   8.644 -0.0832  0.4551 -0.0202
 5954TIP3    H139421   6.582   4.745   8.591  0.6975  0.8352 -1.1562
 5954TIP3    H239422   6.643   4.787   8.723 -0.6879  1.1583 -0.6016
 5955TIP3   OH239423   3.719   0.886   7.300  0.2268  0.0745 -0.2467
 5955TIP3    H139424   3.740   0.971   7.261  1.6118 -0.0591  0.1778
 5955TIP3    H239425   3.753   0.822   7.237  0.7177 -0.1473  0.2370
 5956TIP3   OH239426   6.741   4.750   7.542 -0.1611 -0.2762  0.5723
 5956TIP3    H139427   6.654   4.712   7.525  0.4648 -2.1435  1.3300
 5956TIP3    H239428   6.758   4.806   7.466 -2.0236  0.1603  0.4245
 5957TIP3   OH239429   1.471   0.074   1.611 -0.1667  0.0439 -0.1003
 5957TIP3    H139430   1.533   0.017   1.656 -1.3587 -0.5162  0.9155
 5957TIP3    H239431   1.435   0.020   1.540 -0.2752  0.0028 -0.0144
 5958TIP3   OH239432   5.577   2.911   1.148  0.6694 -0.1944  0.1514
 5958TIP3    H139433   5.639   2.895   1.077  0.5778  0.0576  0.0140
 5958TIP3    H239434   5.495   2.872   1.118  1.0644 -1.6632  0.8654
 5959TIP3   OH239435   4.430   2.131   7.542 -0.2076 -0.2999  0.1539
 5959TIP3    H139436   4.337   2.151   7.533  0.1893  0.8310 -2.5336
 5959TIP3    H239437   4.452   2.085   7.461  1.4179 -1.2970  1.1180
 5960TIP3   OH239438   0.007   4.646   1.563  0.3338  0.0739  0.4540
 5960TIP3    H139439  -0.020   4.660   1.654  1.3589  0.4965  0.7081
 5960TIP3    H239440   0.102   4.660   1.564  0.1567  1.6550 -0.9799
 5961TIP3   OH239441   5.337   1.339   1.101 -0.1528 -0.1069  0.1783
 5961TIP3    H139442   5.321   1.409   1.038  0.4611  1.3389  1.5456
 5961TIP3    H239443   5.254   1.330   1.148  0.3827  1.3312  1.4925
 5962TIP3   OH239444   2.792   1.342   8.704  0.5902  0.0941  0.3019
 5962TIP3    H139445   2.698   1.350   8.685  0.3136 -2.8029 -0.0813
 5962TIP3    H239446   2.829   1.426   8.678 -1.5424  0.4740 -1.8852
 5963TIP3   OH239447   3.950   3.329   2.620 -0.0971 -0.6904  0.0303
 5963TIP3    H139448   3.858   3.308   2.608 -0.0048 -1.6512  0.8178
 5963TIP3    H239449   3.951   3.407   2.675 -0.4394 -1.0152  0.5007
 5964TIP3   OH239450   2.074   3.915   8.570 -0.5509  0.3730 -0.1963
 5964TIP3    H139451   2.059   3.893   8.662  0.0982 -0.9451 -0.3786
 5964TIP3    H239452   2.074   3.831   8.525  2.1806  0.6734 -0.9458
 5965TIP3   OH239453   0.909   1.864   2.300 -0.2771  0.3385  0.3552
 5965TIP3    H139454   0.902   1.834   2.391  0.4747  0.3868  0.4413
 5965TIP3    H239455   0.883   1.956   2.303 -1.6332 -0.0172  0.2614
 5966TIP3   OH239456   4.798   0.173   0.610  0.1277  0.1810 -0.0724
 5966TIP3    H139457   4.768   0.259   0.642  0.7454 -0.0883  1.3173
 5966TIP3    H239458   4.893   0.179   0.610  0.1613 -0.2847 -0.6262
 5967TIP3   OH239459   2.665   0.824   7.391  0.1425  0.4324  0.5743
 5967TIP3    H139460   2.699   0.744   7.431  2.3684  0.0289 -1.8058
 5967TIP3    H239461   2.573   0.806   7.374  0.2051 -0.9830  1.5859
 5968TIP3   OH239462   2.889   0.097   1.938 -0.1326 -0.1135  0.0145
 5968TIP3    H139463   2.895   0.112   1.844 -0.9780  2.3664  0.2905
 5968TIP3    H239464   2.798   0.116   1.960  0.3386  0.6018  1.5091
 5969TIP3   OH239465   2.447   5.390   1.710  0.0706  0.3795  0.5673
 5969TIP3    H139466   2.498   5.370   1.632  0.1451 -2.6161  1.2855
 5969TIP3    H239467   2.397   5.469   1.686  1.7172  0.8304 -1.6742
 5970TIP3   OH239468   4.407   2.480   8.704 -1.0948 -0.3546 -0.1546
 5970TIP3    H139469   4.345   2.545   8.672 -2.2565 -0.6186  1.4228
 5970TIP3    H239470   4.388   2.472   8.797  2.0434  0.3076  0.6574
 5971TIP3   OH239471   3.368   2.753   1.162  0.1279  0.3821  0.2650
 5971TIP3    H139472   3.460   2.774   1.177  0.0025  1.0063  0.1595
 5971TIP3    H239473   3.366   2.657   1.160  0.7469  0.3611  0.4326
 5972TIP3   OH239474   0.046   1.188   1.143  0.0076  0.0131 -0.1301
 5972TIP3    H139475   0.030   1.243   1.220  1.4634 -0.4076  0.5194
 5972TIP3    H239476  -0.041   1.159   1.115 -0.6275  1.1243  0.6481
 5973TIP3   OH239477   6.638   4.998   8.400  0.2606 -0.2514 -0.4665
 5973TIP3    H139478   6.717   5.049   8.421  0.0134 -0.9683  2.6956
 5973TIP3    H239479   6.589   4.994   8.482 -2.9745 -0.1385 -2.2243
 5974TIP3   OH239480   6.820   1.923   6.926  0.2966  0.2708  0.1477
 5974TIP3    H139481   6.881   1.874   6.982  1.1317  1.8384  0.6682
 5974TIP3    H239482   6.816   1.872   6.845  2.8428  0.4321 -0.1687
 5975TIP3   OH239483   0.493   1.215   6.931 -0.5389 -0.1066 -0.3103
 5975TIP3    H139484   0.435   1.140   6.942 -1.3217  0.4395 -0.6462
 5975TIP3    H239485   0.444   1.289   6.967 -0.6062  0.5959 -1.7653
 5976TIP3   OH239486   5.617   3.706   0.092  0.1465  0.1115  0.4086
 5976TIP3    H139487   5.536   3.740   0.131  0.8488  0.0737  1.9918
 5976TIP3    H239488   5.587   3.651   0.019 -1.2836 -0.1325  1.1382
 5977TIP3   OH239489   0.248   6.593   7.497  0.0243  0.0960 -0.1941
 5977TIP3    H139490   0.198   6.517   7.467 -1.3310 -0.0641  2.2297
 5977TIP3    H239491   0.198   6.669   7.464  0.7846 -0.0015 -1.6800
 5978TIP3   OH239492   2.628   1.597   0.715  0.1131 -0.0003  0.2394
 5978TIP3    H139493   2.693   1.547   0.765  1.1143 -0.3410 -1.3450
 5978TIP3    H239494   2.662   1.686   0.714  1.0581 -0.3377 -1.3015
 5979TIP3   OH239495   1.423   3.346   1.280 -0.1033 -0.8224 -0.1269
 5979TIP3    H139496   1.449   3.356   1.188 -0.7764 -0.9421 -0.3397
 5979TIP3    H239497   1.434   3.433   1.318  1.2140 -1.0157 -0.0377
 5980TIP3   OH239498   1.743   4.384   2.042  0.0862  0.0142  0.3431
 5980TIP3    H139499   1.785   4.445   2.104  2.4899 -1.6440  0.5320
 5980TIP3    H239500   1.816   4.330   2.011 -1.4722 -0.8073 -2.1045
 5981TIP3   OH239501   2.359   4.219   1.901 -0.0335  0.0056  0.1610
 5981TIP3    H139502   2.267   4.192   1.897 -0.1394  0.3251  0.3644
 5981TIP3    H239503   2.358   4.299   1.954  0.3988 -0.1556  0.4214
 5982TIP3   OH239504   2.092   5.969   1.923 -0.4314  0.0579  0.0331
 5982TIP3    H139505   2.133   5.883   1.932 -0.8625 -0.0457  1.2006
 5982TIP3    H239506   2.165   6.031   1.935 -0.2066 -0.1339 -0.3174
 5983TIP3   OH239507   2.342   0.450   0.700  0.5048 -0.0154 -0.1318
 5983TIP3    H139508   2.251   0.476   0.719 -0.1001 -0.4689 -2.1812
 5983TIP3    H239509   2.390   0.474   0.780 -0.6118  4.1418 -0.4315
 5984TIP3   OH239510   3.855   6.160   1.004  0.6071 -0.1638  0.1315
 5984TIP3    H139511   3.867   6.069   1.032  0.6306  0.4805  2.4200
 5984TIP3    H239512   3.824   6.153   0.914 -0.0799 -2.4702  0.4666
 5985TIP3   OH239513   4.977   0.301   1.572  0.3732  0.2824  0.4415
 5985TIP3    H139514   4.912   0.362   1.537 -0.2843 -1.4479 -1.5536
 5985TIP3    H239515   4.934   0.262   1.648  0.0744  0.9344  0.6143
 5986TIP3   OH239516   1.660   2.101   0.416  0.3303  0.0147 -0.2366
 5986TIP3    H139517   1.710   2.021   0.401 -0.1598 -0.0734 -1.5543
 5986TIP3    H239518   1.568   2.073   0.408  0.1083  0.4567  0.6368
 5987TIP3   OH239519   3.999   2.924   1.222 -0.7101  0.5697 -0.1790
 5987TIP3    H139520   4.068   2.860   1.205 -0.4721  0.5250  0.9003
 5987TIP3    H239521   3.954   2.891   1.299 -2.1553  0.4447 -1.0429
 5988TIP3   OH239522   0.375   3.132   6.909 -0.0049  0.1884 -0.1403
 5988TIP3    H139523   0.359   3.090   6.824 -0.0628  0.2088 -0.1401
 5988TIP3    H239524   0.292   3.120   6.957  0.7539 -1.9181  0.7999
 5989TIP3   OH239525   6.076   6.462   0.712 -0.4172 -0.4089 -0.1865
 5989TIP3    H139526   6.139   6.391   0.726  1.2831  1.0209 -0.1973
 5989TIP3    H239527   6.100   6.528   0.777 -1.4580  0.4820 -0.6838
 5990TIP3   OH239528   5.367   5.443   0.677 -0.3464  0.3357  0.5182
 5990TIP3    H139529   5.441   5.487   0.635  1.2026 -0.7375  1.9693
 5990TIP3    H239530   5.339   5.377   0.614  2.0138 -1.3294  1.0610
 5991TIP3   OH239531   6.496   0.416   2.176  0.1045 -0.2163 -0.0228
 5991TIP3    H139532   6.425   0.477   2.155 -0.1943 -0.3260  0.6464
 5991TIP3    H239533   6.532   0.392   2.091  0.2912  0.9650 -0.2938
 5992TIP3   OH239534   4.012   6.231   7.058 -0.0267  0.3492 -0.2953
 5992TIP3    H139535   4.031   6.324   7.056  1.7312  0.0207 -0.4459
 5992TIP3    H239536   4.014   6.203   6.967  1.7709 -0.2276 -0.1184
 5993TIP3   OH239537   5.743   0.072   8.360  0.3916 -0.2162 -0.4215
 5993TIP3    H139538   5.665   0.099   8.409  0.4064 -1.9441  0.6484
 5993TIP3    H239539   5.708   0.021   8.286  0.4825 -1.2031  0.1964
 5994TIP3   OH239540   5.932   5.137   8.211 -0.1603  0.3019 -0.4583
 5994TIP3    H139541   5.976   5.110   8.291  0.3188 -0.8627 -1.1015
 5994TIP3    H239542   5.875   5.210   8.239 -1.1049 -1.0020  1.2250
 5995TIP3   OH239543   3.631   0.454   3.137 -0.4029  0.5052  0.2908
 5995TIP3    H139544   3.692   0.453   3.063 -0.3926  1.7276  0.2565
 5995TIP3    H239545   3.615   0.547   3.153 -1.2077  0.2289  1.1716
 5996TIP3   OH239546   5.433   1.975   1.193  0.0930  0.0518 -0.3030
 5996TIP3    H139547   5.427   2.050   1.252  3.3796  0.6024 -0.4915
 5996TIP3    H239548   5.480   2.008   1.117 -1.3846 -1.4210 -1.9589
 5997TIP3   OH239549   0.364   4.612   1.873 -0.6795 -0.1321 -0.1141
 5997TIP3    H139550   0.446   4.581   1.835 -1.1065  0.5525 -1.7003
 5997TIP3    H239551   0.346   4.695   1.827 -2.8086 -0.8327 -0.6772
 5998TIP3   OH239552   4.860   0.444   8.064  0.0718  0.2390  0.7964
 5998TIP3    H139553   4.868   0.536   8.038 -1.1566 -0.1844 -1.3701
 5998TIP3    H239554   4.950   0.415   8.078  0.5039  1.6452  1.0920
 5999TIP3   OH239555   4.754   6.088   0.406 -0.1763 -0.3987 -0.1209
 5999TIP3    H139556   4.850   6.090   0.404 -0.1735  1.6346 -0.4448
 5999TIP3    H239557   4.733   6.010   0.457  1.7021 -0.0532  1.3258
 6000TIP3   OH239558   0.508   3.207   7.474  0.5177 -0.1957  0.5317
 6000TIP3    H139559   0.444   3.276   7.492  0.7925  0.2656 -0.2508
 6000TIP3    H239560   0.592   3.244   7.502  0.6935 -0.1342 -0.0666
 6001TIP3   OH239561   3.862   1.596   1.049 -0.2488  0.2806  0.0523
 6001TIP3    H139562   3.790   1.539   1.074 -0.3638  1.0172  1.5212
 6001TIP3    H239563   3.821   1.671   1.008 -0.1180 -0.4929 -1.5702
 6002TIP3   OH239564   0.454   1.929   1.550 -0.3892  0.3387  0.0653
 6002TIP3    H139565   0.467   1.836   1.530  0.3099  0.2515  0.9140
 6002TIP3    H239566   0.394   1.929   1.625 -1.4614  0.6261 -0.7503
 6003TIP3   OH239567   2.300   2.204   7.557  0.1396  0.0110  0.4502
 6003TIP3    H139568   2.313   2.118   7.598 -2.0584  0.7644  2.9082
 6003TIP3    H239569   2.217   2.235   7.591  0.2762  2.6350 -1.3504
 6004TIP3   OH239570   3.784   5.519   7.639  0.5809 -0.5869 -0.1453
 6004TIP3    H139571   3.778   5.427   7.612  1.6039 -0.5897 -0.3926
 6004TIP3    H239572   3.738   5.568   7.571  0.4633 -0.8676 -0.2680
 6005TIP3   OH239573   6.062   0.395   0.633  0.0073  0.6640  0.0833
 6005TIP3    H139574   5.977   0.405   0.676 -0.3714 -0.8187 -0.2465
 6005TIP3    H239575   6.111   0.472   0.659 -1.7076  1.9684 -0.3694
 6006TIP3   OH239576   5.703   2.777   0.882  0.2200 -0.2173  0.2531
 6006TIP3    H139577   5.611   2.758   0.899  0.9232 -2.0150  2.4808
 6006TIP3    H239578   5.722   2.733   0.799 -0.9795  0.5037 -0.4370
 6007TIP3   OH239579   3.569   4.681   2.455  0.2635 -0.2332  0.0699
 6007TIP3    H139580   3.630   4.749   2.426  1.4733 -1.5106 -0.4650
 6007TIP3    H239581   3.529   4.648   2.375  0.1503 -0.5797  0.2658
 6008TIP3   OH239582   4.371   6.443   7.453 -0.3562 -0.5106 -0.9889
 6008TIP3    H139583   4.368   6.510   7.384 -0.1839 -0.0663 -0.5730
 6008TIP3    H239584   4.352   6.491   7.534  1.1507 -0.6881 -0.4982
 6009TIP3   OH239585   6.360   5.874   1.364 -0.7452 -0.1226 -0.1768
 6009TIP3    H139586   6.366   5.901   1.456  2.9730 -1.0856  0.0471
 6009TIP3    H239587   6.317   5.947   1.320 -0.1604  1.6168  1.9276
 6010TIP3   OH239588   0.109   2.639   2.558 -0.3667  0.1628  0.1388
 6010TIP3    H139589   0.172   2.570   2.576 -0.5261  0.3124  1.3067
 6010TIP3    H239590   0.023   2.599   2.575 -0.5024  0.4148  0.0591
 6011TIP3   OH239591   4.153   1.336   7.012  0.7198 -0.4544  0.2408
 6011TIP3    H139592   4.074   1.306   7.056 -0.1655 -0.4367 -1.2816
 6011TIP3    H239593   4.187   1.259   6.966  1.2718 -0.3239  0.4147
 6012TIP3   OH239594   4.941   6.026   2.425 -0.0920 -0.2560 -0.4037
 6012TIP3    H139595   4.983   6.032   2.511  0.5462  2.1401 -0.8004
 6012TIP3    H239596   4.859   5.979   2.441 -0.2972  0.6936  1.6776
 6013TIP3   OH239597   5.026   2.295   7.661 -0.3708 -0.1279 -0.1980
 6013TIP3    H139598   5.020   2.258   7.573  1.7481 -2.0133  0.3475
 6013TIP3    H239599   4.942   2.274   7.701 -1.5542  1.1608 -1.8427
 6014TIP3   OH239600   5.199   1.703   3.018 -0.2662 -0.4064 -0.4498
 6014TIP3    H139601   5.280   1.731   3.060  0.6859 -1.8281 -1.2364
 6014TIP3    H239602   5.227   1.672   2.931 -1.6920 -0.6647 -0.8331
 6015TIP3   OH239603   3.633   0.610   2.331 -0.3193 -0.0447  0.2587
 6015TIP3    H139604   3.713   0.661   2.324 -1.3178  1.6638  0.8052
 6015TIP3    H239605   3.656   0.538   2.390  1.4255 -0.9713 -1.4447
 6016TIP3   OH239606   2.422   6.680   0.707  0.5829 -0.1271 -0.6045
 6016TIP3    H139607   2.384   6.602   0.749 -0.9938  1.4806  1.1483
 6016TIP3    H239608   2.487   6.712   0.770  1.4844 -0.1749 -1.4778
 6017TIP3   OH239609   0.396   2.229   7.921 -0.2497 -0.1742  0.1006
 6017TIP3    H139610   0.489   2.248   7.930 -0.2273 -0.3127  0.1581
 6017TIP3    H239611   0.359   2.307   7.880 -0.1163 -0.1007  0.1218
 6018TIP3   OH239612   4.677   6.267   7.865  0.0808 -0.4774 -0.2028
 6018TIP3    H139613   4.609   6.199   7.863  0.0720 -0.6081  1.8193
 6018TIP3    H239614   4.754   6.224   7.827 -0.2547 -1.2326 -0.0580
 6019TIP3   OH239615   6.367   5.471   2.458  0.2742  0.1030 -0.2590
 6019TIP3    H139616   6.384   5.458   2.365  0.0332  3.0357 -0.8069
 6019TIP3    H239617   6.277   5.443   2.470 -0.8011  2.5801 -1.7035
 6020TIP3   OH239618   5.709   1.029   2.733  0.3196  0.0313 -0.4074
 6020TIP3    H139619   5.749   0.950   2.768  1.1601  0.6931  0.1753
 6020TIP3    H239620   5.641   0.998   2.673 -0.8963 -1.1437  1.4768
 6021TIP3   OH239621   4.017   5.142   2.252 -0.0006 -0.3334 -0.2722
 6021TIP3    H139622   3.947   5.134   2.316 -0.4324 -1.2656 -0.8559
 6021TIP3    H239623   4.097   5.127   2.302 -0.1489  1.1812  0.4877
 6022TIP3   OH239624   1.872   2.490   0.708 -0.0113 -0.4794  0.1108
 6022TIP3    H139625   1.962   2.505   0.736 -0.4636  0.6255  1.1078
 6022TIP3    H239626   1.825   2.470   0.789 -1.3498  2.7417  0.3064
 6023TIP3   OH239627   2.497   1.214   0.751  0.0833  0.5888 -0.1547
 6023TIP3    H139628   2.437   1.232   0.823  0.0034 -0.1788 -0.0195
 6023TIP3    H239629   2.520   1.122   0.762  1.0883  0.8030 -0.3541
 6024TIP3   OH239630   0.833   4.636   2.475  0.6159 -0.7145 -0.5784
 6024TIP3    H139631   0.872   4.570   2.417 -1.5839 -2.0731 -0.6391
 6024TIP3    H239632   0.738   4.620   2.468  0.1207  1.3301  0.7838
 6025TIP3   OH239633   3.216   2.182   1.009  0.3398  0.1332 -0.1054
 6025TIP3    H139634   3.196   2.267   1.048  0.9753  0.3832 -0.3177
 6025TIP3    H239635   3.163   2.179   0.929 -0.9454 -0.3687  0.7289
 6026TIP3   OH239636   1.565   6.806   2.034  0.1064 -0.2360 -0.5346
 6026TIP3    H139637   1.622   6.822   1.959  0.6763 -0.4170 -0.1473
 6026TIP3    H239638   1.605   6.854   2.106 -1.1359  0.9897 -0.6308
 6027TIP3   OH239639   2.468   3.835   0.312 -0.1628 -0.2155 -0.2553
 6027TIP3    H139640   2.397   3.857   0.372 -0.2193 -0.3490 -0.2738
 6027TIP3    H239641   2.448   3.746   0.282  0.0271 -0.2636 -0.2387
 6028TIP3   OH239642   2.784   3.711   0.809  0.2075  0.0825 -0.8079
 6028TIP3    H139643   2.726   3.704   0.733  1.1808  0.5269 -1.6218
 6028TIP3    H239644   2.771   3.800   0.841 -0.6665 -0.3048 -0.0500
 6029TIP3   OH239645   3.007   4.761   2.105 -0.6779 -0.6703  0.1247
 6029TIP3    H139646   3.036   4.685   2.055  2.1978 -0.6871  1.5832
 6029TIP3    H239647   3.023   4.835   2.047  0.2125 -0.8913  0.0717
 6030TIP3   OH239648   0.739   4.139   3.128  0.0620  0.2080  0.2121
 6030TIP3    H139649   0.754   4.045   3.121 -0.7799  0.1422 -0.9140
 6030TIP3    H239650   0.779   4.176   3.049 -1.7992  0.4784 -0.6765
 6031TIP3   OH239651   0.067   6.195   0.013 -0.1367 -0.6086 -0.2439
 6031TIP3    H139652   0.148   6.163  -0.025  0.9746  2.5412 -0.8187
 6031TIP3    H239653   0.086   6.210   0.106  0.4494  1.3146 -0.6188
 6032TIP3   OH239654   6.268   6.733   0.388  0.4893  0.3485  0.1443
 6032TIP3    H139655   6.193   6.681   0.416 -1.4188  3.0263  0.4416
 6032TIP3    H239656   6.281   6.709   0.297  0.7912 -1.7753  0.6892
 6033TIP3   OH239657   1.422   6.167   2.987  0.4314 -0.5679 -0.0590
 6033TIP3    H139658   1.351   6.230   2.998 -1.0467 -2.4483  1.9118
 6033TIP3    H239659   1.478   6.180   3.063  1.1337 -0.4674 -0.5776
 6034TIP3   OH239660   0.383   6.007   2.230 -0.4185  0.1106 -0.2617
 6034TIP3    H139661   0.309   6.012   2.169  0.4252 -1.7128 -1.5301
 6034TIP3    H239662   0.383   5.917   2.261  1.2815  0.0435 -0.3548
 6035TIP3   OH239663   1.595   2.365   8.510  0.5496 -0.4800 -0.0351
 6035TIP3    H139664   1.542   2.444   8.500  1.5658  0.2588  0.1909
 6035TIP3    H239665   1.534   2.293   8.497 -0.6299  0.3290  0.7875
 6036TIP3   OH239666   1.694   1.373   0.546  0.0637 -0.3297 -0.4691
 6036TIP3    H139667   1.655   1.357   0.632 -0.5896 -0.8102 -0.8486
 6036TIP3    H239668   1.672   1.296   0.495  1.1929 -0.4286 -0.8185
 6037TIP3   OH239669   2.849   3.080   7.129 -0.0649 -0.5047  0.1599
 6037TIP3    H139670   2.806   3.133   7.197 -0.9848  0.2621 -0.9852
 6037TIP3    H239671   2.930   3.127   7.111 -0.1748 -0.2983  0.1964
 6038TIP3   OH239672   1.036   2.086   1.602 -0.0614  0.1059 -0.0274
 6038TIP3    H139673   1.100   2.151   1.576 -0.3315  1.3883  2.2442
 6038TIP3    H239674   1.049   2.013   1.542  2.9898  0.6184 -0.1113
 6039TIP3   OH239675   1.262   3.691   1.560 -0.0580  0.1606 -0.8439
 6039TIP3    H139676   1.188   3.639   1.528 -0.4000 -0.6375  1.1237
 6039TIP3    H239677   1.278   3.755   1.490 -2.1988 -0.0471 -1.6002
 6040TIP3   OH239678   6.748   0.481   7.881  0.0436  0.2564  0.7398
 6040TIP3    H139679   6.841   0.490   7.905  0.3414 -1.1565  0.1964
 6040TIP3    H239680   6.749   0.427   7.802 -1.1721  1.4648 -0.1328
 6041TIP3   OH239681   5.719   2.923   0.649 -0.0494  0.0770 -0.6216
 6041TIP3    H139682   5.813   2.930   0.633  0.2566  0.9189  1.2569
 6041TIP3    H239683   5.711   2.912   0.743 -1.8325 -0.5310 -0.7961
 6042TIP3   OH239684   5.342   4.334   1.785  0.1461  0.2642 -0.4878
 6042TIP3    H139685   5.328   4.409   1.843  1.4150 -1.1273  1.8016
 6042TIP3    H239686   5.255   4.299   1.768 -0.3036  1.0641  0.1090
 6043TIP3   OH239687   1.686   4.785   2.403 -0.0869  0.2500  0.1861
 6043TIP3    H139688   1.608   4.732   2.387  0.3059 -0.4532  0.5903
 6043TIP3    H239689   1.678   4.857   2.340 -0.2533 -0.6797 -0.9008
 6044TIP3   OH239690   4.809   4.710   2.567  0.0389 -0.3801 -0.3433
 6044TIP3    H139691   4.739   4.649   2.591 -1.3339  0.7813 -1.1880
 6044TIP3    H239692   4.824   4.695   2.474  0.9022 -0.5740 -0.1856
 6045TIP3   OH239693   3.538   4.992   7.219  0.3161  0.1225 -0.1252
 6045TIP3    H139694   3.536   4.906   7.261 -1.2236 -0.4009 -1.1448
 6045TIP3    H239695   3.631   5.011   7.207  0.7243 -0.6509  1.5627
 6046TIP3   OH239696   0.674   0.752   7.889 -0.2760  0.1591 -0.2114
 6046TIP3    H139697   0.602   0.746   7.827 -0.6743 -1.9099  0.3836
 6046TIP3    H239698   0.642   0.810   7.958 -2.0018 -1.7983  0.7448
 6047TIP3   OH239699   2.205   0.705   1.772  0.6593  0.2259  0.4151
 6047TIP3    H139700   2.299   0.720   1.769  0.5813  1.3647  2.2115
 6047TIP3    H239701   2.168   0.774   1.717  0.7550  1.6483  2.0640
 6048TIP3   OH239702   4.945   0.381   7.765  0.1291 -0.1245 -0.2622
 6048TIP3    H139703   4.927   0.394   7.858 -1.7323  0.2625 -0.6418
 6048TIP3    H239704   4.867   0.337   7.731  1.4957 -1.8821 -1.3253
 6049TIP3   OH239705   3.096   0.343   0.374  0.5815 -0.6686  0.1172
 6049TIP3    H139706   3.110   0.292   0.294 -1.1960 -1.0013 -0.0215
 6049TIP3    H239707   3.096   0.434   0.344  2.0485 -0.6357  0.1090
 6050TIP3   OH239708   4.353   3.520   8.043  0.0490  0.6969  0.4156
 6050TIP3    H139709   4.397   3.439   8.071  0.9305  0.3839 -1.7163
 6050TIP3    H239710   4.398   3.590   8.090  0.0197  0.0611  1.4287
 6051TIP3   OH239711   4.860   0.591   2.685 -0.3707 -0.3115  0.0446
 6051TIP3    H139712   4.882   0.598   2.778 -0.7780  1.3161  0.0518
 6051TIP3    H239713   4.765   0.599   2.682 -0.4028 -0.8004 -0.4968
 6052TIP3   OH239714   2.916   3.961   1.241  0.0432 -0.9200  0.2169
 6052TIP3    H139715   2.920   3.955   1.337  0.1811 -1.6638  0.1709
 6052TIP3    H239716   2.896   3.872   1.213  0.8609 -0.8870 -0.5005
 6053TIP3   OH239717   6.329   1.233   7.484 -0.0854  0.0443 -0.7948
 6053TIP3    H139718   6.315   1.242   7.389  0.0404  0.2293 -0.7966
 6053TIP3    H239719   6.335   1.139   7.498 -0.2931  0.0065 -0.9441
 6054TIP3   OH239720   5.310   1.303   7.889  0.1014  0.2083 -0.2732
 6054TIP3    H139721   5.404   1.288   7.899  0.2982  1.3286 -0.2518
 6054TIP3    H239722   5.269   1.235   7.942  0.8673 -0.9576 -1.1439
 6055TIP3   OH239723   5.990   1.911   8.624 -0.1797  0.3596 -0.2794
 6055TIP3    H139724   6.027   1.823   8.612 -1.6496 -0.4269  0.6822
 6055TIP3    H239725   5.901   1.905   8.588  0.3574  2.0723 -2.0961
 6056TIP3   OH239726   5.438   3.493   8.131 -0.3110 -0.3327  0.1451
 6056TIP3    H139727   5.450   3.537   8.048 -1.9536 -0.1595 -0.0431
 6056TIP3    H239728   5.362   3.536   8.171 -0.3549 -1.2620  1.1367
 6057TIP3   OH239729   3.540   1.531   1.836 -0.2992 -0.2479 -0.0161
 6057TIP3    H139730   3.500   1.515   1.922 -0.6831 -1.9236 -0.4783
 6057TIP3    H239731   3.623   1.483   1.840 -0.3814 -0.4456 -0.6135
 6058TIP3   OH239732   6.260   0.288   8.157  0.6336 -0.1380  0.2432
 6058TIP3    H139733   6.258   0.335   8.074 -0.7279  0.1642  0.4191
 6058TIP3    H239734   6.218   0.204   8.138  0.1817 -0.0090  0.6401
 6059TIP3   OH239735   0.974   0.086   8.118  0.3593  0.2156  0.6048
 6059TIP3    H139736   0.950   0.137   8.195 -1.5273  1.2238 -0.5716
 6059TIP3    H239737   0.892   0.046   8.088  0.9642  0.1026 -1.0389
 6060TIP3   OH239738   2.157   0.947   2.179 -0.5779  0.0279  0.0357
 6060TIP3    H139739   2.153   1.037   2.212 -0.4578 -0.1759  0.6179
 6060TIP3    H239740   2.118   0.952   2.091 -0.7599  0.6071  0.1436
 6061TIP3   OH239741   3.079   4.715   1.056  0.2321  0.7743  0.6806
 6061TIP3    H139742   3.141   4.781   1.026  1.1437  0.5938  2.0660
 6061TIP3    H239743   2.995   4.742   1.020  1.3248  0.1163 -2.6808
 6062TIP3   OH239744   5.922   2.067   1.296  0.2303 -0.1204 -0.0585
 6062TIP3    H139745   5.905   2.158   1.323  1.3902  0.5125 -1.3684
 6062TIP3    H239746   5.892   2.015   1.370 -0.7750  1.3082  0.5920
 6063TIP3   OH239747   5.707   0.992   0.302 -0.3434  0.5746  0.5762
 6063TIP3    H139748   5.693   1.086   0.301 -0.4315  0.5588 -0.4858
 6063TIP3    H239749   5.801   0.981   0.288 -0.7672  0.4711 -3.1754
 6064TIP3   OH239750   3.101   2.782   8.377  0.3296 -0.5243  0.2731
 6064TIP3    H139751   3.163   2.850   8.405  1.2617  0.8299 -4.2245
 6064TIP3    H239752   3.015   2.822   8.389  0.8138  1.0808 -1.1464
 6065TIP3   OH239753   0.102   6.421   7.780 -0.0740  0.0518  0.1690
 6065TIP3    H139754   0.111   6.465   7.695 -0.7441 -0.1270  0.0000
 6065TIP3    H239755   0.108   6.328   7.760  0.0706  0.0176  0.3634
 6066TIP3   OH239756   2.698   1.717   7.183  0.3854 -0.0939 -0.1057
 6066TIP3    H139757   2.708   1.622   7.185  0.5612 -0.0670  1.1630
 6066TIP3    H239758   2.695   1.743   7.275 -0.3735  1.0620 -0.4371
 6067TIP3   OH239759   1.245   6.575   0.792 -0.4003 -0.1184 -0.3670
 6067TIP3    H139760   1.217   6.659   0.829  1.7665  1.5969 -2.2561
 6067TIP3    H239761   1.308   6.540   0.855  0.3623  0.8382 -0.5696
 6068TIP3   OH239762   5.302   6.197   8.429  0.1578  0.4990  0.2218
 6068TIP3    H139763   5.359   6.169   8.500  0.5849  1.0718  0.1145
 6068TIP3    H239764   5.317   6.133   8.359 -0.3094 -0.1014  0.6597
 6069TIP3   OH239765   2.785   5.575   8.679 -0.0360  0.2390 -0.2893
 6069TIP3    H139766   2.838   5.578   8.759  1.6353  0.1277 -1.3408
 6069TIP3    H239767   2.817   5.649   8.626 -0.9122  0.1441 -0.9718
 6070TIP3   OH239768   3.495   6.262   7.120  0.7202  0.1527 -0.4082
 6070TIP3    H139769   3.582   6.303   7.117  0.5130  0.7117  0.7495
 6070TIP3    H239770   3.468   6.257   7.028  2.3360 -0.8467 -0.8625
 6071TIP3   OH239771   3.006   0.536   7.971  0.5329 -0.2528  0.6079
 6071TIP3    H139772   2.989   0.622   7.932 -0.4345 -0.1462  1.2432
 6071TIP3    H239773   3.095   0.514   7.942 -0.0793 -0.1274 -1.5330
 6072TIP3   OH239774   2.388   1.747   0.671 -0.1150 -0.6778  0.3550
 6072TIP3    H139775   2.338   1.760   0.590  1.1807 -0.3399 -0.4096
 6072TIP3    H239776   2.471   1.791   0.656  0.6305 -1.6558  1.4055
 6073TIP3   OH239777   1.449   3.369   6.291 -0.1590  0.3248  0.4833
 6073TIP3    H139778   1.497   3.425   6.230 -0.5233  0.2100  0.0831
 6073TIP3    H239779   1.395   3.430   6.341  0.0284  0.4054  0.5882
 6074TIP3   OH239780   4.500   4.709   8.058  0.1094 -0.2955 -0.4895
 6074TIP3    H139781   4.482   4.764   7.982  1.1395  0.6103 -0.1040
 6074TIP3    H239782   4.580   4.745   8.096 -1.7753  1.0728  2.6078
 6075TIP3   OH239783   3.801   4.952   0.073  0.1764  0.5957  0.1979
 6075TIP3    H139784   3.858   4.956  -0.004  0.9499  0.8423  0.7688
 6075TIP3    H239785   3.858   4.977   0.146  0.5312 -3.2074  1.4690
 6076TIP3   OH239786   4.304   5.908   1.444 -0.1126  0.2669 -0.4556
 6076TIP3    H139787   4.340   5.928   1.530  2.4066  2.1277 -1.8114
 6076TIP3    H239788   4.233   5.846   1.462  0.4612  0.3696  2.8906
 6077TIP3   OH239789   3.552   3.358   7.926  0.2284  0.3860  0.3660
 6077TIP3    H139790   3.594   3.282   7.967 -0.5067 -0.6000 -0.6477
 6077TIP3    H239791   3.624   3.411   7.894  0.7545 -0.7877 -0.4923
 6078TIP3   OH239792   3.759   2.938   2.443 -0.5365 -0.1144 -0.2747
 6078TIP3    H139793   3.723   2.878   2.377  1.1877 -0.3199 -1.0875
 6078TIP3    H239794   3.813   2.999   2.392 -0.2384  0.5542  0.8197
 6079TIP3   OH239795   1.423   0.987   3.008 -0.2638  0.3255  0.4566
 6079TIP3    H139796   1.493   0.988   2.942 -0.4334  0.0795  0.2712
 6079TIP3    H239797   1.386   0.899   3.002  0.1244  0.0976  1.3207
 6080TIP3   OH239798   0.438   2.505   1.316  0.1973 -0.3142 -1.0601
 6080TIP3    H139799   0.411   2.559   1.391 -1.3702 -0.2102 -1.6466
 6080TIP3    H239800   0.528   2.532   1.298  0.2991  0.2928  0.2296
 6081TIP3   OH239801   6.763   2.265   2.352  0.2033 -0.0551 -0.6132
 6081TIP3    H139802   6.704   2.298   2.420 -1.5769 -2.1353 -1.0414
 6081TIP3    H239803   6.850   2.297   2.379 -0.6794  0.6691  1.6490
 6082TIP3   OH239804   0.816   5.433   0.477  0.0332  0.2221 -0.0803
 6082TIP3    H139805   0.852   5.425   0.389 -0.6681  1.1465 -0.4715
 6082TIP3    H239806   0.750   5.363   0.482  0.5283 -0.2483 -0.0439
 6083TIP3   OH239807   2.567   3.826   2.422 -0.0751  0.0407  0.3303
 6083TIP3    H139808   2.520   3.900   2.460 -1.7912  0.3548 -2.1135
 6083TIP3    H239809   2.655   3.859   2.404  0.2320  0.3833  2.3343
 6084TIP3   OH239810   5.115   0.294   0.037  0.3202 -0.4958  0.2387
 6084TIP3    H139811   5.167   0.233  -0.017  0.3806 -0.2740  0.0457
 6084TIP3    H239812   5.050   0.238   0.080  1.6046 -1.0137  1.6108
 6085TIP3   OH239813   0.804   3.136   8.195  0.1743 -0.1392 -0.1585
 6085TIP3    H139814   0.829   3.161   8.106 -0.6936  0.4139 -0.2548
 6085TIP3    H239815   0.883   3.149   8.247 -0.0987  2.4739 -0.2811
 6086TIP3   OH239816   4.850   2.843   8.070  0.5700  0.3228 -0.0931
 6086TIP3    H139817   4.799   2.837   8.151  1.4289 -0.5448  0.4097
 6086TIP3    H239818   4.933   2.882   8.097  0.7430  0.3126 -0.6121
 6087TIP3   OH239819   3.870   3.575   0.125  0.7999 -0.3645  0.2089
 6087TIP3    H139820   3.915   3.655   0.153 -1.3287  0.5887  1.1931
 6087TIP3    H239821   3.785   3.606   0.093  0.5319 -2.1166 -0.8991
 6088TIP3   OH239822   4.753   3.167   7.936 -0.0292 -0.7208  0.1540
 6088TIP3    H139823   4.725   3.220   8.011  3.2887  2.0804 -0.3277
 6088TIP3    H239824   4.831   3.121   7.968  0.4757 -0.7750 -1.1138
 6089TIP3   OH239825   2.396   1.921   7.608 -0.4109 -0.0551 -0.0611
 6089TIP3    H139826   2.405   1.889   7.697  2.1234  1.3286  0.2619
 6089TIP3    H239827   2.306   1.899   7.584 -2.1770  1.9899  3.8324
 6090TIP3   OH239828   0.380   3.449   7.037  0.4357  0.1182 -0.2915
 6090TIP3    H139829   0.374   3.543   7.019 -0.0648  0.4895  1.6072
 6090TIP3    H239830   0.300   3.428   7.085  0.8693 -1.1338 -0.0745
 6091TIP3   OH239831   5.958   3.748   7.073 -0.2748 -0.3238  0.3550
 6091TIP3    H139832   5.985   3.677   7.131 -1.8185 -1.3257 -0.0821
 6091TIP3    H239833   6.025   3.751   7.005  0.0593 -1.0335  0.6475
 6092TIP3   OH239834   5.044   2.434   0.996  0.0687  0.8378 -0.4449
 6092TIP3    H139835   5.010   2.506   1.050 -1.4711 -0.2213  0.0804
 6092TIP3    H239836   4.967   2.399   0.952  0.7777 -0.4965 -0.6738
 6093TIP3   OH239837   3.908   3.828   0.441  0.3873 -0.3148 -0.2456
 6093TIP3    H139838   3.838   3.882   0.405  0.6749  0.2071 -0.0248
 6093TIP3    H239839   3.864   3.748   0.469  0.1212 -0.6605 -1.5675
 6094TIP3   OH239840   4.209   4.344   1.764 -0.2811 -0.1134  0.3519
 6094TIP3    H139841   4.125   4.357   1.720 -0.1803 -2.3169 -0.6018
 6094TIP3    H239842   4.267   4.409   1.725 -1.1031  0.3037 -0.2078
 6095TIP3   OH239843   3.498   1.621   1.249  0.4219 -0.2334  0.5367
 6095TIP3    H139844   3.472   1.693   1.192 -1.0780 -0.4430  0.8950
 6095TIP3    H239845   3.506   1.661   1.336 -0.4009 -0.4687  0.7341
 6096TIP3   OH239846   1.997   2.565   1.059  0.0940  0.1579  0.3851
 6096TIP3    H139847   2.000   2.482   1.012 -2.1103  0.9306 -1.3339
 6096TIP3    H239848   2.013   2.543   1.150 -0.7329 -2.1999  0.0150
 6097TIP3   OH239849   2.184   0.239   7.521  1.1126  1.0347  0.0998
 6097TIP3    H139850   2.107   0.184   7.503  0.4788  1.2385  2.0052
 6097TIP3    H239851   2.155   0.328   7.499  0.4177  1.2491  1.6961
 6098TIP3   OH239852   1.813   1.040   1.610  0.0843 -0.5183 -0.2680
 6098TIP3    H139853   1.782   0.955   1.641 -1.2835 -0.0367 -0.2598
 6098TIP3    H239854   1.785   1.102   1.678 -1.8228  0.3820 -1.7861
 6099TIP3   OH239855   2.831   2.379   0.480 -0.5369 -0.4898 -0.2961
 6099TIP3    H139856   2.744   2.404   0.447 -0.7132 -0.2221  0.3536
 6099TIP3    H239857   2.827   2.399   0.574  0.0357 -1.0205 -0.1588
 6100TIP3   OH239858   5.413   2.912   2.031 -0.1037 -0.2322 -0.1819
 6100TIP3    H139859   5.454   2.996   2.055 -0.7701  0.5007 -1.4735
 6100TIP3    H239860   5.363   2.932   1.952  0.3986 -2.0622 -1.0069
 6101TIP3   OH239861   0.121   5.919   2.012  0.3895  0.1551  0.6660
 6101TIP3    H139862   0.081   5.965   1.938 -2.5052 -3.0459 -0.0112
 6101TIP3    H239863   0.070   5.948   2.088  0.9354  0.6777  0.8430
 6102TIP3   OH239864   6.671   4.737   7.104  0.0922 -0.1044 -0.2991
 6102TIP3    H139865   6.723   4.657   7.091  0.0979 -0.1554  0.0123
 6102TIP3    H239866   6.722   4.788   7.168 -0.4810 -0.3847  0.3956
 6103TIP3   OH239867   2.437   5.390   7.894  0.8108 -0.1504  0.4337
 6103TIP3    H139868   2.455   5.437   7.975  1.5859  2.4744 -1.1701
 6103TIP3    H239869   2.517   5.341   7.876  0.5352 -0.9735  1.3442
 6104TIP3   OH239870   6.239   0.765   0.027  0.1046  0.0060  0.0955
 6104TIP3    H139871   6.207   0.697   0.086  0.8624  0.6752  1.2974
 6104TIP3    H239872   6.329   0.781   0.054  0.1733  0.9734 -0.6456
 6105TIP3   OH239873   5.187   5.290   2.500  0.2701  0.0292  0.0238
 6105TIP3    H139874   5.118   5.227   2.522  0.7682  0.0125  1.7120
 6105TIP3    H239875   5.145   5.376   2.505  0.2859 -0.0005  0.7595
 6106TIP3   OH239876   4.394   5.247   7.629  0.2341 -0.1368 -0.4100
 6106TIP3    H139877   4.332   5.289   7.689  0.8534 -1.4987  1.3027
 6106TIP3    H239878   4.353   5.162   7.609 -0.0337  0.3623 -2.0931
 6107TIP3   OH239879   5.264   3.370   2.421 -0.4729 -0.0035 -0.0087
 6107TIP3    H139880   5.346   3.326   2.445 -0.1861 -0.2490 -1.3970
 6107TIP3    H239881   5.206   3.352   2.495  0.4464 -0.5316  0.6191
 6108TIP3   OH239882   0.639   3.482   8.138 -0.0811 -0.2646  0.0518
 6108TIP3    H139883   0.733   3.500   8.131 -0.4015  1.8740  0.7625
 6108TIP3    H239884   0.630   3.431   8.219  0.2791  1.3848  1.1776
 6109TIP3   OH239885   5.937   1.667   1.269 -0.4718  0.2898 -0.3830
 6109TIP3    H139886   6.000   1.733   1.298 -0.2843  0.3180 -0.8382
 6109TIP3    H239887   5.865   1.673   1.331  0.0234  0.1825  0.2120
 6110TIP3   OH239888   0.480   1.566   0.081  0.3931  0.2683  0.0105
 6110TIP3    H139889   0.438   1.641   0.041  0.0398  0.2286  0.3019
 6110TIP3    H239890   0.409   1.504   0.097  0.6866 -0.1494 -0.2732
 6111TIP3   OH239891   0.925   1.870   0.526  0.0181 -0.1076  0.3531
 6111TIP3    H139892   0.900   1.876   0.618  0.4815  1.5798  0.3927
 6111TIP3    H239893   1.017   1.843   0.528  0.3730  1.0459  0.4474
 6112TIP3   OH239894   5.473   0.047   0.921  0.4258  0.0391  0.3076
 6112TIP3    H139895   5.435   0.013   0.841 -0.8759 -0.4465  1.0931
 6112TIP3    H239896   5.460   0.142   0.915  0.3883  0.0113 -0.0840
 6113TIP3   OH239897   3.876   0.242   7.757 -0.4083  0.2380  0.0037
 6113TIP3    H139898   3.875   0.337   7.766  1.1314  0.4717 -1.5717
 6113TIP3    H239899   3.957   0.215   7.800 -1.8230 -0.6559  2.2632
 6114TIP3   OH239900   5.820   3.088   0.953  0.5089  0.9023 -0.5626
 6114TIP3    H139901   5.905   3.052   0.976  0.2970  0.8210  0.1252
 6114TIP3    H239902   5.827   3.110   0.860  0.6266 -0.9645 -1.0302
 6115TIP3   OH239903   6.629   6.795   0.207  0.0471  0.1478 -0.0868
 6115TIP3    H139904   6.673   6.873   0.171 -0.0371  0.4804  0.5259
 6115TIP3    H239905   6.545   6.793   0.161 -1.3056  2.2264  2.0600
 6116TIP3   OH239906   0.492   0.108   2.506  0.2501 -1.1266  0.2438
 6116TIP3    H139907   0.409   0.077   2.541  0.1954 -2.3283 -0.8611
 6116TIP3    H239908   0.546   0.029   2.499  0.0560 -1.0845 -2.8452
 6117TIP3   OH239909   4.852   4.168   1.346  0.3879 -0.6203  0.0355
 6117TIP3    H139910   4.795   4.171   1.423 -0.5059  1.4573 -0.6375
 6117TIP3    H239911   4.931   4.124   1.376  0.6213  1.3062  2.5515
 6118TIP3   OH239912   2.468   0.617   7.490 -0.3132  0.3491 -0.4193
 6118TIP3    H139913   2.509   0.672   7.556 -0.6468 -1.5665  1.5337
 6118TIP3    H239914   2.374   0.635   7.499 -0.5453 -1.3131  1.1215
 6119TIP3   OH239915   4.013   3.758   2.262 -0.3899 -0.3698  0.0195
 6119TIP3    H139916   4.042   3.694   2.327 -2.0658 -2.3627 -1.0596
 6119TIP3    H239917   3.921   3.774   2.282  0.2200  2.5707  0.8507
 6120TIP3   OH239918   3.816   6.546   7.312 -0.2824  0.7230 -0.2187
 6120TIP3    H139919   3.746   6.607   7.339  0.5360  1.2611  0.7681
 6120TIP3    H239920   3.855   6.587   7.235  0.1671  1.3975  0.3534
 6121TIP3   OH239921   1.947   1.118   6.962  0.0016 -0.8113  0.2846
 6121TIP3    H139922   2.030   1.077   6.984 -0.2780 -0.2900  2.6572
 6121TIP3    H239923   1.971   1.195   6.910  0.9841 -0.8353  0.6796
 6122TIP3   OH239924   3.642   5.752   1.603 -0.1665 -0.5407 -0.3037
 6122TIP3    H139925   3.676   5.668   1.573 -0.2375 -1.2455  1.4542
 6122TIP3    H239926   3.584   5.730   1.676 -1.2777  0.9410 -0.6887
 6123TIP3   OH239927   1.393   5.457   2.394  0.3358  0.4882 -0.2113
 6123TIP3    H139928   1.380   5.545   2.359  0.0200  0.4882 -0.0965
 6123TIP3    H239929   1.362   5.463   2.485  2.3190  0.8279  0.4922
 6124TIP3   OH239930   3.561   6.184   1.811 -0.1288  0.3719 -0.1727
 6124TIP3    H139931   3.558   6.235   1.891  1.1576 -2.4794  1.8840
 6124TIP3    H239932   3.470   6.181   1.780 -0.5867  1.8216  0.9322
 6125TIP3   OH239933   4.891   6.462   0.623 -0.3209 -0.6699  0.4045
 6125TIP3    H139934   4.924   6.455   0.712 -2.5315 -0.1610  1.3551
 6125TIP3    H239935   4.875   6.556   0.611 -0.8509 -0.8276 -0.1853
 6126TIP3   OH239936   2.199   2.215   0.123 -0.1228  0.2649  0.4118
 6126TIP3    H139937   2.241   2.255   0.047 -0.6799 -1.8688 -1.1213
 6126TIP3    H239938   2.201   2.283   0.190  2.4905  1.4611 -0.7428
 6127TIP3   OH239939   6.184   1.071   8.284  0.4309  0.2380  0.0401
 6127TIP3    H139940   6.224   1.105   8.365  1.8027 -0.8262 -0.1483
 6127TIP3    H239941   6.226   1.122   8.215  0.4177  0.0813 -0.0828
 6128TIP3   OH239942   6.076   2.814   1.224  0.1051  0.5834  0.1684
 6128TIP3    H139943   6.143   2.748   1.211 -0.0674  0.4643 -0.1259
 6128TIP3    H239944   5.995   2.773   1.194 -0.3702  0.2033  1.8896
 6129TIP3   OH239945   5.929   6.112   7.977  0.4627 -0.3610 -0.3809
 6129TIP3    H139946   5.973   6.197   7.984 -2.6416  1.3085  0.8485
 6129TIP3    H239947   5.904   6.090   8.067  1.3247 -2.7218 -0.6453
 6130TIP3   OH239948   3.043   3.034   7.624  0.4775 -0.0082 -0.4632
 6130TIP3    H139949   3.016   2.943   7.638  3.0422 -0.4051  2.8678
 6130TIP3    H239950   3.039   3.045   7.529 -3.9942 -2.1463 -0.8160
 6131TIP3   OH239951   6.604   5.144   2.790 -0.1711 -0.3556  0.1377
 6131TIP3    H139952   6.582   5.235   2.812  0.2816 -0.4778  1.1297
 6131TIP3    H239953   6.684   5.126   2.839  0.5003 -0.8748 -1.1060
 6132TIP3   OH239954   5.900   0.208   0.933  0.1885 -0.0406  0.1746
 6132TIP3    H139955   5.854   0.273   0.880 -0.2692  0.9634  1.7412
 6132TIP3    H239956   5.836   0.138   0.946 -0.2294  0.4299  0.6845
 6133TIP3   OH239957   1.229   0.027   1.997 -0.3036 -0.6179 -0.1675
 6133TIP3    H139958   1.237   0.030   2.092 -2.1255 -1.2122  0.0528
 6133TIP3    H239959   1.254  -0.062   1.974 -0.5782 -0.6997 -0.1522
 6134TIP3   OH239960   6.360   6.534   1.978  0.1725  0.3620  0.3330
 6134TIP3    H139961   6.368   6.557   2.071 -0.8773 -0.3557  0.6215
 6134TIP3    H239962   6.450   6.533   1.946  0.5313  0.8329  1.2904
 6135TIP3   OH239963   1.688   4.927   8.720 -0.6322 -0.0346 -0.1898
 6135TIP3    H139964   1.656   4.914   8.631 -0.0078 -0.1542 -0.4019
 6135TIP3    H239965   1.749   4.855   8.735  0.5379  0.8998 -0.2794
 6136TIP3   OH239966   4.936   3.763   7.891  0.1343 -0.3187 -0.0909
 6136TIP3    H139967   4.977   3.742   7.808 -1.3607 -1.7837 -0.5298
 6136TIP3    H239968   4.848   3.792   7.868 -0.6408 -1.6709  0.9751
 6137TIP3   OH239969   4.190   4.702   7.564  1.0798  0.3811 -0.4400
 6137TIP3    H139970   4.257   4.672   7.625  0.0452 -1.3933 -0.1184
 6137TIP3    H239971   4.196   4.642   7.490  0.1974  0.5253 -0.6417
 6138TIP3   OH239972   1.092   3.300   1.180 -0.2440  0.0555  0.6210
 6138TIP3    H139973   1.152   3.374   1.180  0.1404 -0.2485  1.5924
 6138TIP3    H239974   1.148   3.223   1.171 -0.5825 -0.1730  0.4136
 6139TIP3   OH239975   3.541   6.779   0.171 -0.1788  0.3022  0.1594
 6139TIP3    H139976   3.634   6.800   0.176 -0.1724  0.2867  0.1140
 6139TIP3    H239977   3.525   6.723   0.247 -0.2810  0.7932  0.5064
 6140TIP3   OH239978   1.970   5.184   2.877  0.3457  0.0256  0.3745
 6140TIP3    H139979   1.944   5.217   2.791  0.7047 -1.5635 -0.3766
 6140TIP3    H239980   2.064   5.202   2.882  0.1700  0.8695  0.8026
 6141TIP3   OH239981   5.330   0.048   2.105 -0.1483 -0.4634 -0.4150
 6141TIP3    H139982   5.275   0.081   2.176 -0.5992 -0.4033 -0.7857
 6141TIP3    H239983   5.319   0.111   2.035  0.5932 -0.3243 -0.4122
 6142TIP3   OH239984   3.155   3.456   7.786 -0.1898  0.3132 -0.0080
 6142TIP3    H139985   3.170   3.416   7.872  0.9910  0.6061 -0.0687
 6142TIP3    H239986   3.073   3.504   7.797 -0.6145 -0.5097  0.6350
 6143TIP3   OH239987   0.743   5.756   0.615 -0.4298 -0.0172 -0.4570
 6143TIP3    H139988   0.748   5.706   0.697 -2.1499  0.2837 -0.1293
 6143TIP3    H239989   0.796   5.705   0.553  0.7628 -0.3496  0.7699
 6144TIP3   OH239990   2.778   0.554   7.499  0.3483 -1.0598 -0.7266
 6144TIP3    H139991   2.857   0.536   7.447  0.6031  2.4858 -1.8603
 6144TIP3    H239992   2.808   0.611   7.569 -0.5868 -3.1528  1.5160
 6145TIP3   OH239993   5.793   5.493   0.982  0.0337 -0.0710  0.2753
 6145TIP3    H139994   5.829   5.580   0.969 -0.6154 -0.0545 -1.8627
 6145TIP3    H239995   5.861   5.433   0.952 -0.0984 -0.2295  0.2842
 6146TIP3   OH239996   2.315   0.200   1.682  0.4246 -0.5924  0.5591
 6146TIP3    H139997   2.257   0.273   1.704  0.1677 -1.2468  2.2862
 6146TIP3    H239998   2.360   0.227   1.603 -0.8948  0.7180  0.2202
 6147TIP3   OH239999   1.926   1.681   0.245 -0.0346  0.0954 -0.0883
 6147TIP3    H140000   1.914   1.595   0.204  1.0709 -1.0050  1.7409
 6147TIP3    H240001   1.978   1.663   0.323 -1.9170  2.0738  1.7685
 6148TIP3   OH240002   5.225   0.306   8.328  0.0786 -0.4843 -0.3247
 6148TIP3    H140003   5.265   0.346   8.406  1.4534 -0.5739 -0.9508
 6148TIP3    H240004   5.137   0.281   8.357 -0.2526  1.4764  0.5550
 6149TIP3   OH240005   4.308   1.776   0.853 -0.0928 -0.3827 -0.2090
 6149TIP3    H140006   4.283   1.860   0.891 -1.3718 -1.2231  0.9050
 6149TIP3    H240007   4.390   1.753   0.898 -0.6309 -0.5074  0.7234
 6150TIP3   OH240008   3.463   3.060   7.511  0.2576  0.0420  0.2989
 6150TIP3    H140009   3.499   3.004   7.442 -0.9467 -0.4632  0.0660
 6150TIP3    H240010   3.397   3.006   7.553 -1.2889  1.4348 -0.2443
 6151TIP3   OH240011   1.852   6.057   1.842 -0.0647 -0.0726 -0.4455
 6151TIP3    H140012   1.804   5.978   1.866  0.0591 -0.0010  0.0381
 6151TIP3    H240013   1.944   6.035   1.858 -0.1426  0.7307  1.3534
 6152TIP3   OH240014   5.743   0.301   8.029 -0.0024  0.2633  0.2340
 6152TIP3    H140015   5.781   0.219   8.059 -0.4824  0.3090  0.9968
 6152TIP3    H240016   5.700   0.337   8.107  0.5901  1.4563  0.0222
 6153TIP3   OH240017   5.737   4.641   0.741 -0.0986 -0.2622  0.3896
 6153TIP3    H140018   5.780   4.557   0.757 -1.8898 -1.3685 -0.3056
 6153TIP3    H240019   5.746   4.655   0.646  3.5282  2.3178  0.9100
 6154TIP3   OH240020   4.380   6.529   2.376 -0.3520  0.0168 -0.1128
 6154TIP3    H140021   4.353   6.445   2.412 -2.8030  0.6611 -0.2743
 6154TIP3    H240022   4.300   6.582   2.375  1.2597  2.7133  0.9042
 6155TIP3   OH240023   1.136   3.166   8.057 -0.0978 -0.1381 -0.1262
 6155TIP3    H140024   1.067   3.190   7.995 -0.5571 -0.4804  0.2455
 6155TIP3    H240025   1.108   3.204   8.140  0.4858  0.2706 -0.1157
 6156TIP3   OH240026   5.152   2.222   1.160 -0.1263 -0.0389 -0.3897
 6156TIP3    H140027   5.144   2.305   1.112 -0.5524  1.3726  1.9392
 6156TIP3    H240028   5.072   2.174   1.137 -0.3376  0.6145 -1.0663
 6157TIP3   OH240029   2.765   3.160   8.183 -0.0074 -0.1458  0.2329
 6157TIP3    H140030   2.736   3.229   8.125  0.4854  0.7996  1.0879
 6157TIP3    H240031   2.687   3.104   8.194 -0.9588  1.2606  0.9392
 6158TIP3   OH240032   3.030   6.672   2.365  0.0722 -0.7610 -0.1105
 6158TIP3    H140033   2.980   6.656   2.285 -0.2832 -0.4864  0.0532
 6158TIP3    H240034   3.061   6.762   2.356  1.7036 -1.3578 -0.8351
 6159TIP3   OH240035   1.382   3.995   8.275  0.5625 -0.3613  0.4698
 6159TIP3    H140036   1.363   4.001   8.182  1.2844 -2.1920  0.1786
 6159TIP3    H240037   1.477   3.995   8.281  0.5447  0.8282  1.3267
 6160TIP3   OH240038   1.271   3.350   7.029 -0.1431 -0.2196 -0.4650
 6160TIP3    H140039   1.238   3.289   7.095  1.0143 -0.5341 -0.1685
 6160TIP3    H240040   1.195   3.405   7.008 -0.3759  0.3324  1.6085
 6161TIP3   OH240041   0.656   0.857   1.189 -0.7361 -0.1332 -0.2866
 6161TIP3    H140042   0.579   0.821   1.144 -0.1672 -1.3590 -0.3253
 6161TIP3    H240043   0.717   0.784   1.193  0.3183  0.7482  0.0127
 6162TIP3   OH240044   4.975   2.025   1.957 -0.6769 -0.1588  0.2022
 6162TIP3    H140045   4.969   2.003   2.050 -0.9899  0.3228  0.3038
 6162TIP3    H240046   5.042   1.967   1.922 -1.0741 -0.8529  0.5758
 6163TIP3   OH240047   0.682   3.352   8.394 -0.2615 -0.1431 -0.1333
 6163TIP3    H140048   0.702   3.341   8.487  1.8913  0.1181 -0.5278
 6163TIP3    H240049   0.664   3.263   8.363  0.9186 -0.4961  0.1459
 6164TIP3   OH240050   2.747   3.459   1.563  0.1700 -0.3741 -0.2530
 6164TIP3    H140051   2.773   3.472   1.654  1.5004  1.0796 -0.7838
 6164TIP3    H240052   2.654   3.439   1.567  0.0665  0.3032  1.3984
 6165TIP3   OH240053   4.500   1.179   0.427 -0.3525  0.0097 -0.4373
 6165TIP3    H140054   4.406   1.195   0.428 -0.4064 -0.2166  1.4168
 6165TIP3    H240055   4.508   1.084   0.425 -0.1143  0.0345 -2.4462
 6166TIP3   OH240056   3.059   5.206   7.814  0.5217  0.6321  0.1819
 6166TIP3    H140057   3.083   5.175   7.727  1.8960  1.0654  0.3832
 6166TIP3    H240058   2.977   5.162   7.833  0.8541 -0.4691 -0.8044
 6167TIP3   OH240059   4.650   0.731   2.114 -0.5250  0.2301  0.5770
 6167TIP3    H140060   4.731   0.755   2.069  0.1693 -0.8697  1.1778
 6167TIP3    H240061   4.657   0.771   2.200 -2.1013  2.7972 -0.3783
 6168TIP3   OH240062   6.035   5.999   8.468 -0.6277 -0.4612  0.5198
 6168TIP3    H140063   5.978   6.034   8.536 -1.1043  0.0614 -0.1407
 6168TIP3    H240064   5.995   6.027   8.385  0.0493 -0.9132  0.0240
 6169TIP3   OH240065   0.425   3.491   2.691  0.1827 -0.0929  0.3109
 6169TIP3    H140066   0.346   3.544   2.676 -0.5070 -0.9633  0.7988
 6169TIP3    H240067   0.490   3.529   2.632 -1.1673 -0.6380 -1.6249
 6170TIP3   OH240068   1.743   3.803   1.499 -0.2445 -0.1956 -0.0717
 6170TIP3    H140069   1.817   3.746   1.476 -0.7404 -0.9604  0.2017
 6170TIP3    H240070   1.783   3.889   1.511  0.6885 -0.6903  0.5203
 6171TIP3   OH240071   3.385   0.985   0.137 -0.0705  0.2805 -0.1602
 6171TIP3    H140072   3.378   1.059   0.077 -1.6334  0.0008 -0.3571
 6171TIP3    H240073   3.296   0.970   0.168  0.2036 -1.5425 -0.1498
 6172TIP3   OH240074   0.675   0.223   0.788 -0.1518  0.3887 -0.3377
 6172TIP3    H140075   0.599   0.266   0.828 -1.5787 -0.9725 -1.4768
 6172TIP3    H240076   0.653   0.216   0.695  1.2724 -0.2427 -0.6577
 6173TIP3   OH240077   5.518   5.860   0.376  0.5607  0.4986  0.0933
 6173TIP3    H140078   5.463   5.783   0.393  0.8200  0.6883  1.9924
 6173TIP3    H240079   5.459   5.922   0.332  0.2921 -0.6658 -1.2647
 6174TIP3   OH240080   1.070   1.806   7.297  0.3181 -0.0159 -0.2201
 6174TIP3    H140081   1.163   1.803   7.273  0.1260  0.9208 -1.1597
 6174TIP3    H240082   1.053   1.720   7.335  1.6670 -0.0499  0.3760
 6175TIP3   OH240083   3.074   2.155   0.781 -0.7073 -0.2260  0.1782
 6175TIP3    H140084   2.990   2.133   0.742 -0.3553  0.2526 -0.9036
 6175TIP3    H240085   3.113   2.217   0.719  0.8562 -1.1715  0.1704
 6176TIP3   OH240086   6.147   1.735   1.712  0.3712 -0.3888 -0.6412
 6176TIP3    H140087   6.139   1.639   1.719  0.4426 -0.3004  1.1669
 6176TIP3    H240088   6.147   1.752   1.618  3.0063 -2.3923 -1.1134
 6177TIP3   OH240089   4.652   5.519   8.061 -0.6575  0.8591  0.0492
 6177TIP3    H140090   4.595   5.556   8.128  0.4015 -0.1008  1.5565
 6177TIP3    H240091   4.728   5.578   8.060  0.5575 -0.5525  1.7148
 6178TIP3   OH240092   3.689   3.925   1.009 -0.2747 -0.1216 -0.1848
 6178TIP3    H140093   3.601   3.911   1.045  0.0298  1.0663  1.1055
 6178TIP3    H240094   3.678   3.915   0.914 -2.3199  2.2735 -0.3012
 6179TIP3   OH240095   3.055   1.458   0.448 -0.4965  0.4436  0.0047
 6179TIP3    H140096   3.001   1.531   0.419 -0.5433  1.4329  2.3703
 6179TIP3    H240097   3.102   1.492   0.525  2.8812 -0.6179 -1.3950
 6180TIP3   OH240098   1.383   3.880   1.388 -0.0072  0.2161 -0.4093
 6180TIP3    H140099   1.421   3.968   1.392 -0.5954  0.5345 -1.5261
 6180TIP3    H240100   1.412   3.845   1.303 -1.3269  0.0526 -0.8035
 6181TIP3   OH240101   3.951   5.847   0.467  0.5180 -0.1971 -0.2134
 6181TIP3    H140102   3.982   5.895   0.390  1.3117 -0.4257 -0.0423
 6181TIP3    H240103   3.995   5.888   0.541 -0.4904  0.2269  0.1663
 6182TIP3   OH240104   4.517   0.556   3.153 -0.3928 -0.0484 -0.0913
 6182TIP3    H140105   4.549   0.636   3.114 -0.4653  0.7310  1.3741
 6182TIP3    H240106   4.422   0.569   3.162 -0.1607  0.5647  1.9482
 6183TIP3   OH240107   5.367   1.463   0.655  0.3721  0.5791 -0.0829
 6183TIP3    H140108   5.279   1.461   0.692  0.1677  0.9784 -0.5344
 6183TIP3    H240109   5.400   1.373   0.666 -0.3282  0.2665 -0.4810
 6184TIP3   OH240110   2.579   3.126   0.099 -0.1577 -0.0998  0.0846
 6184TIP3    H140111   2.666   3.155   0.073  0.1940 -0.7120  0.5611
 6184TIP3    H240112   2.520   3.188   0.057  0.5299  0.7392  0.3230
 6185TIP3   OH240113   0.098   0.778   1.337  0.3118  0.5852  0.7906
 6185TIP3    H140114   0.114   0.709   1.273 -2.1245  0.5752  0.0936
 6185TIP3    H240115   0.076   0.731   1.418 -0.6230  0.5346  0.5142
 6186TIP3   OH240116   1.089   4.993   1.443 -0.0171  0.1293 -0.2957
 6186TIP3    H140117   1.030   4.935   1.491  0.1753 -1.3106 -1.7046
 6186TIP3    H240118   1.044   5.077   1.441 -1.0628 -0.3916  0.4495
 6187TIP3   OH240119   4.402   0.512   8.349  0.2026  0.1023  0.3298
 6187TIP3    H140120   4.487   0.484   8.384 -0.1778 -0.1898  1.0639
 6187TIP3    H240121   4.402   0.607   8.360  0.2552  0.0565  0.7711
 6188TIP3   OH240122   3.165   3.601   2.580 -0.1044 -0.5033  0.2867
 6188TIP3    H140123   3.104   3.626   2.650  0.5025 -0.1320  0.6952
 6188TIP3    H240124   3.247   3.582   2.626  0.7083  1.0708 -0.4208
 6189TIP3   OH240125   4.669   6.347   0.995  0.4498  0.4295  0.2523
 6189TIP3    H140126   4.617   6.324   1.072  1.3401 -1.1405  0.4380
 6189TIP3    H240127   4.699   6.437   1.011  0.2647  0.2723  1.5327
 6190TIP3   OH240128   3.004   1.220   2.100 -0.3343  0.0207 -0.5083
 6190TIP3    H140129   2.954   1.301   2.095 -0.2728  0.1097  0.1609
 6190TIP3    H240130   3.063   1.233   2.174  0.6683 -0.0966 -1.2684
 6191TIP3   OH240131   0.882   5.656   8.211 -0.3244 -0.1940 -0.3042
 6191TIP3    H140132   0.951   5.642   8.146  0.8770  0.0352  0.8927
 6191TIP3    H240133   0.802   5.627   8.166  0.4009  0.3099 -2.0085
 6192TIP3   OH240134   4.780   2.212   7.790  0.0727  0.1280  0.0162
 6192TIP3    H140135   4.754   2.129   7.751  0.7715 -1.4165  2.6611
 6192TIP3    H240136   4.700   2.266   7.786 -0.8265 -1.1842 -0.3874
 6193TIP3   OH240137   1.217   4.232   2.482  0.0542 -0.4190  0.1612
 6193TIP3    H140138   1.190   4.170   2.550 -0.7414 -0.3446 -0.0733
 6193TIP3    H240139   1.311   4.221   2.475 -0.1146 -1.8034 -0.0820
 6194TIP3   OH240140   4.976   3.170   7.706 -0.0773 -0.1258  0.3237
 6194TIP3    H140141   4.930   3.248   7.736 -1.8314 -1.7401  2.1055
 6194TIP3    H240142   4.907   3.113   7.672  1.1968 -0.7950 -1.2796
 6195TIP3   OH240143   1.224   2.749   1.000  0.4227 -0.1058 -0.0681
 6195TIP3    H140144   1.228   2.654   1.013  0.7079 -0.2207 -0.9499
 6195TIP3    H240145   1.281   2.785   1.069  0.2779 -0.5627  0.3008
 6196TIP3   OH240146   1.195   0.862   8.312 -0.9985  0.1043 -0.2457
 6196TIP3    H140147   1.276   0.817   8.290 -0.7371 -0.0401  0.9512
 6196TIP3    H240148   1.127   0.811   8.269 -0.5370 -0.3314 -0.4648
 6197TIP3   OH240149   1.940   3.361   0.915 -0.1553  0.0098 -0.1282
 6197TIP3    H140150   1.898   3.276   0.901 -0.2722  0.1055 -0.3500
 6197TIP3    H240151   2.034   3.342   0.913 -0.1095  0.2777 -2.7296
 6198TIP3   OH240152   4.821   0.358   7.339 -0.0633 -0.0696  0.3814
 6198TIP3    H140153   4.777   0.408   7.408 -0.0762  0.3836  0.0466
 6198TIP3    H240154   4.751   0.310   7.295 -0.1346  0.1089  0.2988
 6199TIP3   OH240155   1.549   1.840   2.127  0.0284  0.4736  0.3833
 6199TIP3    H140156   1.491   1.862   2.054  0.1311  0.4531  0.2955
 6199TIP3    H240157   1.523   1.900   2.197  0.5871  1.1666  0.0098
 6200TIP3   OH240158   3.505   6.649   0.426  0.1188 -0.1725 -0.0775
 6200TIP3    H140159   3.536   6.666   0.515  1.3251 -2.4183  0.0119
 6200TIP3    H240160   3.485   6.555   0.425 -3.0612  0.4025 -1.2880
 6201TIP3   OH240161   1.980   3.091   0.009 -0.5727 -0.3998 -0.7791
 6201TIP3    H140162   2.066   3.121  -0.022 -0.9335  0.6731 -0.8001
 6201TIP3    H240163   1.995   3.071   0.102 -0.4702  0.5839 -0.5675
 6202TIP3   OH240164   2.213   2.135   8.186 -0.3104  0.1774  0.7046
 6202TIP3    H140165   2.215   2.135   8.091  1.0192 -0.8170  0.7148
 6202TIP3    H240166   2.137   2.081   8.209 -0.3990  0.0928  0.2153
 6203TIP3   OH240167   2.069   2.038   0.861 -0.7494 -0.1159 -0.1966
 6203TIP3    H140168   2.044   1.974   0.794 -1.2832 -0.1630  0.0477
 6203TIP3    H240169   2.162   2.056   0.843  0.1044 -2.6840  1.1439
 6204TIP3   OH240170   3.912   0.040   6.921 -0.0075 -0.1535 -0.3013
 6204TIP3    H140171   3.885   0.125   6.956 -0.2058 -0.2092 -0.3183
 6204TIP3    H240172   3.843   0.015   6.860 -0.9294 -1.2006  1.0964
 6205TIP3   OH240173   0.700   0.622   3.209  0.4222 -0.5000  0.2253
 6205TIP3    H140174   0.637   0.634   3.138 -1.0206  2.3230  1.7909
 6205TIP3    H240175   0.766   0.690   3.194  1.4857 -1.5115  0.2387
 6206TIP3   OH240176   5.441   2.680   7.907  0.1662 -0.0894  0.2185
 6206TIP3    H140177   5.357   2.641   7.886  1.0434 -1.6285 -0.6280
 6206TIP3    H240178   5.468   2.636   7.988  0.2440  0.2826  0.3997
 6207TIP3   OH240179   5.449   5.976   3.086  0.2976 -0.6422  0.0821
 6207TIP3    H140180   5.453   6.002   3.178 -0.2663 -1.4570  0.3505
 6207TIP3    H240181   5.537   5.947   3.065  0.1717 -1.5383  0.7155
 6208TIP3   OH240182   5.352   2.340   0.394 -0.3242  0.2857 -0.0143
 6208TIP3    H140183   5.280   2.387   0.437 -1.1990  1.1100 -2.2136
 6208TIP3    H240184   5.385   2.280   0.461 -3.2863 -0.3790  1.0377
 6209TIP3   OH240185   1.283   3.099   0.486 -0.0612  0.3206  0.2993
 6209TIP3    H140186   1.201   3.087   0.437  0.5997 -1.3349 -0.4973
 6209TIP3    H240187   1.300   3.014   0.526  0.8786  0.8613  1.1039
 6210TIP3   OH240188   5.043   3.563   1.354 -0.4696 -0.0204  0.0086
 6210TIP3    H140189   5.097   3.591   1.428  0.7861  2.8611 -1.7981
 6210TIP3    H240190   5.086   3.484   1.321 -1.1249 -1.4379  2.3035
 6211TIP3   OH240191   0.295   4.199   1.788 -0.1283  0.3283  0.2334
 6211TIP3    H140192   0.218   4.145   1.805 -1.9747  2.3654 -1.0441
 6211TIP3    H240193   0.260   4.278   1.746  2.4620  2.1815  1.2642
 6212TIP3   OH240194   3.479   1.633   8.005  0.5850  0.3445  0.1851
 6212TIP3    H140195   3.495   1.669   8.092  0.5315  0.1490  0.2742
 6212TIP3    H240196   3.543   1.678   7.949  0.9991  0.0537  0.4226
 6213TIP3   OH240197   4.222   6.046   7.330  0.4331 -0.2111 -0.2051
 6213TIP3    H140198   4.223   5.986   7.256  2.7308  0.3769 -0.7239
 6213TIP3    H240199   4.189   6.128   7.294  1.4438  0.0427 -0.5851
 6214TIP3   OH240200   4.944   5.723   7.826  0.0333  0.4117 -0.2401
 6214TIP3    H140201   4.971   5.641   7.866  1.2502  0.3718 -1.0829
 6214TIP3    H240202   4.950   5.706   7.732  0.5889  1.5499 -0.4229
 6215TIP3   OH240203   3.786   5.162   0.389 -0.2232  1.1982  0.1567
 6215TIP3    H140204   3.863   5.114   0.357  0.5995  2.3602  0.3491
 6215TIP3    H240205   3.796   5.161   0.484 -1.1312  0.2706  0.2612
 6216TIP3   OH240206   1.821   1.611   1.654  0.0801  0.3601  0.8064
 6216TIP3    H140207   1.776   1.659   1.723 -0.5105  0.9223  0.0503
 6216TIP3    H240208   1.820   1.670   1.579  0.0869 -0.5072  0.1089
 6217TIP3   OH240209   1.468   1.086   2.499  0.0281 -0.2981 -0.5442
 6217TIP3    H140210   1.423   1.010   2.463  2.8698 -1.9354 -0.9439
 6217TIP3    H240211   1.512   1.126   2.424  1.6467 -0.5520  0.2332
 6218TIP3   OH240212   1.467   4.330   1.139 -0.0938  0.0217 -0.3420
 6218TIP3    H140213   1.526   4.391   1.184  0.8661  0.0484 -1.5821
 6218TIP3    H240214   1.484   4.344   1.046 -1.9382 -0.1299 -0.7386
 6219TIP3   OH240215   2.681   0.248   1.689 -0.2173  0.7525  0.0793
 6219TIP3    H140216   2.678   0.153   1.680 -0.3918  0.5887  1.5363
 6219TIP3    H240217   2.762   0.265   1.738 -0.3069  1.3222  0.0453
 6220TIP3   OH240218   4.228   2.583   2.905  0.5253  0.8882  0.0858
 6220TIP3    H140219   4.318   2.554   2.921  0.2843 -0.7869 -1.3561
 6220TIP3    H240220   4.227   2.610   2.813 -0.1247  2.2603  0.4748
 6221TIP3   OH240221   1.467   4.924   0.447 -0.1019 -0.2528  0.0477
 6221TIP3    H140222   1.496   4.894   0.533 -0.6402  0.2926  0.4279
 6221TIP3    H240223   1.384   4.969   0.464  0.2460  0.6775 -0.6258
 6222TIP3   OH240224   4.606   1.001   8.350 -0.1517  0.1066  0.2916
 6222TIP3    H140225   4.653   1.015   8.268 -0.3520 -1.1351 -0.0541
 6222TIP3    H240226   4.674   0.991   8.416  0.0262  0.3588  0.1450
 6223TIP3   OH240227   2.706   0.990   1.151  0.1969  0.5153 -0.0982
 6223TIP3    H140228   2.710   1.083   1.129 -2.1167  0.8883  0.8524
 6223TIP3    H240229   2.735   0.985   1.242 -1.2366  0.5707  0.3864
 6224TIP3   OH240230   2.755   4.717   1.373 -0.2422 -0.1963 -0.2792
 6224TIP3    H140231   2.788   4.645   1.319 -0.5279 -4.0425  4.0623
 6224TIP3    H240232   2.832   4.772   1.389  0.1532  0.2175 -3.0539
 6225TIP3   OH240233   2.824   4.433   8.182 -0.4507 -0.6870 -0.5796
 6225TIP3    H140234   2.875   4.458   8.258  1.7391 -0.3111 -2.0837
 6225TIP3    H240235   2.748   4.492   8.184 -0.4281 -0.6569  1.2398
 6226TIP3   OH240236   6.736   0.763   7.857  0.1773  0.0768  0.5062
 6226TIP3    H140237   6.812   0.722   7.815 -0.4519 -0.7481  0.1374
 6226TIP3    H240238   6.662   0.741   7.800 -0.4890  0.0672  1.3507
 6227TIP3   OH240239   2.504   2.521   0.073  0.2449  0.0821 -0.5724
 6227TIP3    H140240   2.534   2.564  -0.007 -0.2429  0.2636 -0.6584
 6227TIP3    H240241   2.422   2.478   0.048  0.6231 -0.7457 -0.4413
 6228TIP3   OH240242   5.224   1.820   7.977  0.2667 -0.0142 -0.2995
 6228TIP3    H140243   5.134   1.848   7.989 -0.0910 -1.6867  1.3968
 6228TIP3    H240244   5.252   1.863   7.895 -2.3441 -0.2126 -1.3972
 6229TIP3   OH240245   4.970   5.022   6.871 -0.1813 -0.3408 -0.1112
 6229TIP3    H140246   4.943   5.090   6.809  0.2351  2.8127  2.8199
 6229TIP3    H240247   4.898   5.015   6.933  0.9010 -0.4804  1.1979
 6230TIP3   OH240248   5.803   4.128   8.284  0.0166  0.5471  0.0624
 6230TIP3    H140249   5.803   4.141   8.189  0.5277  2.1043  0.2419
 6230TIP3    H240250   5.810   4.216   8.320  0.3298 -0.0506  1.5463
 6231TIP3   OH240251   5.628   1.918   0.058  0.7030  0.1912  0.0983
 6231TIP3    H140252   5.574   1.880   0.127 -0.2086  1.9198  0.4070
 6231TIP3    H240253   5.573   1.915  -0.020  0.3495  1.3953  0.2739
 6232TIP3   OH240254   5.048   5.143   0.647  0.4168  0.4660  0.8616
 6232TIP3    H140255   4.992   5.214   0.618  1.5654  0.2158 -2.3138
 6232TIP3    H240256   4.992   5.066   0.648  0.1585  0.6421  0.0297
 6233TIP3   OH240257   1.818   3.437   2.365  0.2177  0.0331  0.1252
 6233TIP3    H140258   1.855   3.349   2.367  0.5553  0.1360 -0.9194
 6233TIP3    H240259   1.778   3.444   2.278  0.6913  1.1025 -0.0247
 6234TIP3   OH240260   3.715   5.750   7.960 -0.5113 -0.8842  0.0305
 6234TIP3    H140261   3.711   5.760   8.055 -1.3056  2.3376 -0.2113
 6234TIP3    H240262   3.624   5.758   7.931  0.0003  1.7850 -1.1410
 6235TIP3   OH240263   2.147   0.581   2.672  0.4925  0.3820 -0.0298
 6235TIP3    H140264   2.062   0.540   2.685 -0.4766  2.1713 -0.4287
 6235TIP3    H240265   2.207   0.532   2.729 -1.5259  1.4749  3.2869
 6236TIP3   OH240266   1.555   4.702   7.762  0.1069 -0.2091 -0.2940
 6236TIP3    H140267   1.636   4.751   7.750 -0.1565  0.4731  0.5853
 6236TIP3    H240268   1.572   4.644   7.837 -0.7249  1.1303  0.9819
 6237TIP3   OH240269   4.008   0.523   1.192  0.3641 -0.0453 -0.1047
 6237TIP3    H140270   3.976   0.476   1.115  0.8884  2.2211 -1.8108
 6237TIP3    H240271   4.086   0.569   1.161  0.2020  1.4932  1.6163
 6238TIP3   OH240272   0.452   3.705   0.529 -0.2341 -0.6319  0.1431
 6238TIP3    H140273   0.474   3.612   0.523 -0.0186 -0.6190  0.7142
 6238TIP3    H240274   0.420   3.717   0.618 -4.7284 -1.1013 -1.1756
 6239TIP3   OH240275   5.594   6.279   2.494  0.4437 -0.3835  0.4908
 6239TIP3    H140276   5.689   6.286   2.502  0.7059 -0.5810 -1.7357
 6239TIP3    H240277   5.572   6.339   2.423 -1.0599 -0.5969  0.7453
 6240TIP3   OH240278   5.328   5.478   6.928  0.0182 -0.1146  0.6285
 6240TIP3    H140279   5.403   5.418   6.932  0.5237  0.4044 -0.5834
 6240TIP3    H240280   5.365   5.563   6.951 -0.1294  0.1901 -0.2203
 6241TIP3   OH240281   6.721   1.791   1.926 -0.2723 -0.1047  0.4538
 6241TIP3    H140282   6.640   1.763   1.885  0.5298  0.3435 -1.5188
 6241TIP3    H240283   6.745   1.872   1.881  2.7847 -1.7422 -1.1962
 6242TIP3   OH240284   2.562   2.060   0.409  0.7295 -0.3970  0.3716
 6242TIP3    H140285   2.501   2.115   0.457  1.0536  0.1828  0.1342
 6242TIP3    H240286   2.636   2.118   0.388  0.4090 -0.5050 -1.1986
 6243TIP3   OH240287   5.373   1.580   0.936 -0.0387  0.5253 -0.3108
 6243TIP3    H140288   5.285   1.614   0.922 -0.0675  0.1214 -1.1973
 6243TIP3    H240289   5.399   1.546   0.850  0.5402 -0.3737  0.2048
 6244TIP3   OH240290   6.813   6.596   0.306  0.4867 -0.7194 -0.0251
 6244TIP3    H140291   6.836   6.567   0.218 -1.8979  0.7326 -1.2554
 6244TIP3    H240292   6.744   6.661   0.292  0.2061 -0.2385  2.9264
 6245TIP3   OH240293   0.871   0.446   2.184  0.5431 -0.5742 -0.1552
 6245TIP3    H140294   0.813   0.463   2.110  0.8591 -2.1637 -0.8065
 6245TIP3    H240295   0.940   0.390   2.148  1.2241 -0.6007  1.1311
 6246TIP3   OH240296   6.348   5.438   0.411  0.1789 -0.2214  0.1105
 6246TIP3    H140297   6.328   5.440   0.317 -1.8383 -3.9411  0.2959
 6246TIP3    H240298   6.433   5.395   0.417 -1.2567 -3.3012 -0.0218
 6247TIP3   OH240299   0.935   3.203   7.676 -0.3172  0.5193  0.3170
 6247TIP3    H140300   0.918   3.146   7.601  2.3347 -0.4804  0.3672
 6247TIP3    H240301   1.000   3.265   7.644  0.6739  0.2219  1.6900
 6248TIP3   OH240302   4.621   5.690   0.273  0.2053  0.3004  0.2285
 6248TIP3    H140303   4.569   5.764   0.304 -0.1393  0.4960 -0.7800
 6248TIP3    H240304   4.578   5.662   0.193  1.0736 -0.1834 -0.0871
 6249TIP3   OH240305   4.630   5.861   8.458  0.1388  0.7247  0.3810
 6249TIP3    H140306   4.589   5.927   8.514 -0.2012 -0.9711  2.2372
 6249TIP3    H240307   4.679   5.805   8.518  0.3122 -0.7898 -1.0989
 6250TIP3   OH240308   6.738   5.345   7.447  0.1175  0.4224  0.0257
 6250TIP3    H140309   6.828   5.376   7.444  0.7492 -1.3585 -0.4942
 6250TIP3    H240310   6.741   5.257   7.410 -1.8984  0.4441 -0.3262
 6251TIP3   OH240311   4.454   5.922   1.875 -0.4349  0.5833  0.3478
 6251TIP3    H140312   4.512   5.992   1.843  0.3646  0.6946  1.9487
 6251TIP3    H240313   4.412   5.960   1.952  0.1060 -0.7457  1.3156
 6252TIP3   OH240314   0.891   0.613   6.812  0.2083 -1.2225  0.0707
 6252TIP3    H140315   0.941   0.660   6.879 -1.3531 -0.6726  0.9118
 6252TIP3    H240316   0.873   0.527   6.850  1.2877 -1.7791 -0.6216
 6253TIP3   OH240317   2.800   3.580   8.558  0.3861 -0.0095 -0.2696
 6253TIP3    H140318   2.854   3.537   8.624 -0.3696 -0.4422  0.0775
 6253TIP3    H240319   2.772   3.509   8.500 -0.7144  0.0195  0.1989
 6254TIP3   OH240320   3.915   1.076   7.517  0.0199  0.0330 -0.4959
 6254TIP3    H140321   3.986   1.055   7.457 -0.6581  0.0480 -1.3177
 6254TIP3    H240322   3.879   1.158   7.484 -1.4555 -0.8196 -1.0926
 6255TIP3   OH240323   5.126   3.028   0.387  0.0349  0.1378 -0.3881
 6255TIP3    H140324   5.196   2.992   0.442 -1.2152  0.4980  1.5298
 6255TIP3    H240325   5.149   3.000   0.298  1.3455 -1.7498  0.4754
 6256TIP3   OH240326   4.700   4.497   0.452  0.4709  0.6392  0.1132
 6256TIP3    H140327   4.619   4.453   0.478  0.5602  0.7293  0.5397
 6256TIP3    H240328   4.770   4.437   0.480  0.5420  0.3228 -0.7003
 6257TIP3   OH240329   3.088   5.731   1.986 -0.2860  0.2298 -0.4818
 6257TIP3    H140330   3.092   5.671   1.911 -1.1371 -2.6075  1.5677
 6257TIP3    H240331   2.996   5.757   1.991 -0.8156 -1.6862  0.9790
 6258TIP3   OH240332   4.989   2.725   7.687 -0.7144  0.3616  0.3574
 6258TIP3    H140333   5.047   2.786   7.732 -0.2854 -1.1760  1.9730
 6258TIP3    H240334   4.925   2.699   7.753  0.2148 -2.3375  0.2800
 6259TIP3   OH240335   6.115   0.264   1.064 -0.4026 -0.5205  0.3865
 6259TIP3    H140336   6.026   0.239   1.041 -1.1402  1.6300  0.6551
 6259TIP3    H240337   6.114   0.360   1.062  1.8440 -0.4378  0.6434
 6260TIP3   OH240338   6.688   4.392   0.149  0.3248 -0.1330 -0.0576
 6260TIP3    H140339   6.776   4.384   0.188 -0.2662 -0.3154  1.2908
 6260TIP3    H240340   6.647   4.464   0.198 -0.1960  0.1113 -0.8434
 6261TIP3   OH240341   0.222   5.692   1.613 -0.6952 -0.6083 -0.1174
 6261TIP3    H140342   0.254   5.781   1.625  0.5966 -0.7661 -1.9975
 6261TIP3    H240343   0.301   5.637   1.613 -1.3284 -1.5585 -0.5353
 6262TIP3   OH240344   3.491   3.916   0.057  0.1891 -0.3038  0.6742
 6262TIP3    H140345   3.466   3.915   0.150  0.7844  0.0722  0.8421
 6262TIP3    H240346   3.483   4.008   0.032 -0.6949 -0.5096  0.1445
 6263TIP3   OH240347   1.303   1.956   2.047  0.2959  0.6594 -0.5606
 6263TIP3    H140348   1.272   1.957   2.138  0.8384  0.7234 -0.3758
 6263TIP3    H240349   1.224   1.973   1.995  0.2207  1.9905 -0.0380
 6264TIP3   OH240350   1.338   1.990   1.368 -0.2300  0.3593  0.2121
 6264TIP3    H140351   1.337   2.077   1.409 -0.9095  1.0830 -1.2614
 6264TIP3    H240352   1.408   1.943   1.413  1.2302  2.1957 -0.0121
 6265TIP3   OH240353   0.444   5.647   0.079  0.8863 -0.1435  0.1891
 6265TIP3    H140354   0.461   5.723   0.133 -0.7175 -0.4411  1.1644
 6265TIP3    H240355   0.485   5.574   0.126  0.7103 -0.1898  0.2690
 6266TIP3   OH240356   6.042   2.943   7.741  0.0214 -0.3385  0.3014
 6266TIP3    H140357   6.061   3.005   7.811  1.4500 -0.0539 -0.3053
 6266TIP3    H240358   6.125   2.933   7.694 -0.5295 -1.6486 -0.4563
 6267TIP3   OH240359   3.653   6.821   2.578 -0.0487  0.1917 -1.0162
 6267TIP3    H140360   3.563   6.825   2.609 -0.0653 -1.9643 -0.5921
 6267TIP3    H240361   3.703   6.788   2.653  1.1040  1.2461 -1.2764
 6268TIP3   OH240362   2.944   5.848   1.661  0.7119  0.9201  0.4960
 6268TIP3    H140363   2.886   5.864   1.735 -0.4082 -2.5156  0.5350
 6268TIP3    H240364   3.013   5.792   1.696 -0.0828 -1.1462 -1.0173
 6269TIP3   OH240365   1.206   1.300   8.402 -0.0977  0.5252 -0.3534
 6269TIP3    H140366   1.283   1.271   8.353 -0.5860  0.5755 -1.1667
 6269TIP3    H240367   1.189   1.229   8.464 -1.0168 -0.7798 -2.0181
 6270TIP3   OH240368   1.380   2.553   7.757  0.2713 -0.1723  0.4582
 6270TIP3    H140369   1.432   2.629   7.784  0.7651 -0.6464  0.8605
 6270TIP3    H240370   1.388   2.492   7.830 -1.6093  0.1057  0.9562
 6271TIP3   OH240371   0.848   6.089   0.973  0.1400 -0.0727 -0.2208
 6271TIP3    H140372   0.824   6.094   0.880 -0.1100  1.4001 -0.0972
 6271TIP3    H240373   0.767   6.061   1.016 -0.5369  1.8110 -0.1733
 6272TIP3   OH240374   2.487   2.045   7.947  0.2409  1.0624  0.0902
 6272TIP3    H140375   2.408   2.098   7.938  0.0574  0.6356 -0.9970
 6272TIP3    H240376   2.460   1.957   7.920  1.5008  1.2933 -2.2327
 6273TIP3   OH240377   2.926   6.002   2.358 -0.1415  0.2212  0.0290
 6273TIP3    H140378   2.943   6.018   2.451  0.0690 -1.8346  0.3762
 6273TIP3    H240379   2.914   5.907   2.351 -2.6556  0.5435 -1.6352
 6274TIP3   OH240380   0.943   6.768   8.735 -0.1000  1.1580 -0.2576
 6274TIP3    H140381   1.031   6.732   8.724 -0.7931  0.0124 -2.8230
 6274TIP3    H240382   0.954   6.863   8.722  0.7542  1.0357 -0.4651
 6275TIP3   OH240383   5.403   0.926   1.939 -0.8754  0.2684 -0.3211
 6275TIP3    H140384   5.317   0.969   1.936 -1.0684 -0.1616 -1.2226
 6275TIP3    H240385   5.382   0.834   1.957 -0.4454  0.5646  2.0516
 6276TIP3   OH240386   1.115   5.014   8.337 -0.0233  0.1587 -0.4650
 6276TIP3    H140387   1.021   5.014   8.356  0.1802 -0.4425  0.6465
 6276TIP3    H240388   1.156   5.037   8.421  0.7937  1.3810 -1.1779
 6277TIP3   OH240389   3.296   4.658   8.296  0.8383 -0.1463 -0.0188
 6277TIP3    H140390   3.373   4.655   8.240  0.9454 -0.7439  0.1513
 6277TIP3    H240391   3.328   4.691   8.380  0.8230  0.0344 -0.0845
 6278TIP3   OH240392   5.979   2.608   0.366 -0.1332 -0.3941 -0.6910
 6278TIP3    H140393   5.959   2.700   0.379 -1.8412 -0.3588 -2.9156
 6278TIP3    H240394   5.924   2.562   0.429 -0.0470  0.0575 -0.2783
 6279TIP3   OH240395   4.030   4.296   1.388  0.4050  0.6315 -0.5051
 6279TIP3    H140396   3.943   4.267   1.360 -0.9585  3.2199  0.7648
 6279TIP3    H240397   4.045   4.378   1.341  2.4306  0.0226 -1.0550
 6280TIP3   OH240398   5.155   3.041   1.376  0.6664 -0.3923 -0.2694
 6280TIP3    H140399   5.079   3.018   1.322  0.5651 -1.9162  0.4771
 6280TIP3    H240400   5.118   3.087   1.451  0.8026  1.6888 -1.4184
 6281TIP3   OH240401   3.889   2.803   1.458  0.3526  0.0560  0.1274
 6281TIP3    H140402   3.946   2.765   1.524 -0.1479  1.0301  1.1610
 6281TIP3    H240403   3.823   2.850   1.508 -0.5825  0.0554 -1.0667
 6282TIP3   OH240404   5.236   6.086   2.274  0.8063  0.1472  0.6273
 6282TIP3    H140405   5.210   6.018   2.335 -0.4164  0.7511  0.8188
 6282TIP3    H240406   5.260   6.160   2.330  1.1724  0.2001  0.4018
 6283TIP3   OH240407   3.748   0.421   8.619 -0.3462 -0.1260 -0.0398
 6283TIP3    H140408   3.697   0.482   8.566 -0.2075 -0.7990 -0.9816
 6283TIP3    H240409   3.826   0.470   8.645 -0.5352  0.2877 -0.2470
 6284TIP3   OH240410   4.067   6.535   7.441  0.7493 -0.0594 -0.6626
 6284TIP3    H140411   3.988   6.589   7.434  0.0227 -0.6980  1.9079
 6284TIP3    H240412   4.037   6.446   7.427  1.4997 -0.1148 -2.1780
 6285TIP3   OH240413   1.701   6.282   1.422  0.6828  0.4072  0.3061
 6285TIP3    H140414   1.717   6.262   1.514  1.2563  0.5145  0.2331
 6285TIP3    H240415   1.693   6.378   1.420 -0.4156  0.3353  0.4034
 6286TIP3   OH240416   6.780   0.359   1.662  0.2348 -0.0866 -0.3616
 6286TIP3    H140417   6.805   0.267   1.669 -2.6431 -0.8415  1.7791
 6286TIP3    H240418   6.716   0.362   1.590  1.0551  0.4891 -1.0988
 6287TIP3   OH240419   4.351   4.971   0.512  0.2475 -0.3443 -0.6082
 6287TIP3    H140420   4.421   4.912   0.541 -1.2622 -1.6552  0.4961
 6287TIP3    H240421   4.271   4.919   0.520 -0.7553  0.6522 -3.1419
 6288TIP3   OH240422   0.684   4.768   7.241  0.3282  0.0182  0.0171
 6288TIP3    H140423   0.769   4.724   7.253  1.0335  1.5549  1.1197
 6288TIP3    H240424   0.622   4.698   7.225  1.8517 -1.1365 -1.0839
 6289TIP3   OH240425   1.124   4.670   7.830  0.0639  0.5270  0.7832
 6289TIP3    H140426   1.148   4.583   7.798  0.0051  0.3873  1.1091
 6289TIP3    H240427   1.086   4.653   7.916 -1.1531  0.7406  0.3050
 6290TIP3   OH240428   3.444   6.363   8.125  0.1730  0.7287  0.2596
 6290TIP3    H140429   3.415   6.322   8.207  0.3656 -1.0983 -0.5337
 6290TIP3    H240430   3.385   6.327   8.059  1.9121 -0.2626 -0.8441
 6291TIP3   OH240431   1.599   1.265   1.273 -0.1822  0.4034 -0.3961
 6291TIP3    H140432   1.669   1.209   1.307 -0.9750  0.6565  1.8371
 6291TIP3    H240433   1.630   1.293   1.187  1.7036 -0.8144 -0.1705
 6292TIP3   OH240434   6.187   4.850   8.103  0.1212  0.3997 -0.2409
 6292TIP3    H140435   6.153   4.894   8.025  1.5519 -0.4727 -1.4360
 6292TIP3    H240436   6.259   4.905   8.132 -0.4644  0.7661  0.5381
 6293TIP3   OH240437   5.688   2.206   0.012 -0.0873 -0.5904  0.3821
 6293TIP3    H140438   5.656   2.259   0.086  1.3685 -0.9636  1.3077
 6293TIP3    H240439   5.670   2.116   0.038  1.6283 -0.8094  0.9199
 6294TIP3   OH240440   1.062   1.749   3.042  0.0245 -0.1088  0.7139
 6294TIP3    H140441   1.100   1.723   2.958  1.0008 -2.0608  1.6940
 6294TIP3    H240442   1.025   1.668   3.078 -2.3061  1.1136  1.2474
 6295TIP3   OH240443   4.859   1.696   0.149  0.5326 -0.2751  0.4498
 6295TIP3    H140444   4.770   1.678   0.180  0.7828 -2.3969  0.0558
 6295TIP3    H240445   4.859   1.790   0.132 -1.5241 -0.1540  0.8089
 6296TIP3   OH240446   4.526   5.016   2.204 -0.0063  0.0152  0.0092
 6296TIP3    H140447   4.450   4.958   2.198 -1.7026  2.0975  0.1976
 6296TIP3    H240448   4.502   5.093   2.152  2.0733  0.6503 -0.0904
 6297TIP3   OH240449   0.119   1.241   0.315  0.0475  0.1048 -0.1208
 6297TIP3    H140450   0.026   1.229   0.297 -0.1191  1.8514 -0.6084
 6297TIP3    H240451   0.160   1.161   0.284 -1.3749 -1.0777  0.9191
 6298TIP3   OH240452   2.108   2.267   0.601 -0.6347 -0.2178 -0.0084
 6298TIP3    H140453   2.030   2.320   0.619 -0.3509 -0.0173  0.6669
 6298TIP3    H240454   2.077   2.176   0.604 -1.1197 -0.1013 -1.1528
 6299TIP3   OH240455   3.123   1.412   0.931  0.1689 -0.3414  0.5142
 6299TIP3    H140456   3.043   1.464   0.944  0.0009 -0.3770 -0.3375
 6299TIP3    H240457   3.100   1.325   0.964  0.1297 -0.1451  1.0231
 6300TIP3   OH240458   3.424   2.895   2.197 -0.3350 -0.1297 -0.1346
 6300TIP3    H140459   3.419   2.968   2.259 -1.0167  0.7670 -1.2211
 6300TIP3    H240460   3.517   2.873   2.195  0.0232  1.2823 -0.4123
 6301TIP3   OH240461   4.164   0.125   2.780  0.1182  0.2759  0.1031
 6301TIP3    H140462   4.170   0.042   2.827 -1.0272 -0.3955 -0.8840
 6301TIP3    H240463   4.134   0.101   2.693  0.0367  1.7144 -0.2870
 6302TIP3   OH240464   1.231   2.873   7.237 -0.2062  0.3541  0.1946
 6302TIP3    H140465   1.162   2.927   7.197 -0.7873  1.2170  2.2121
 6302TIP3    H240466   1.229   2.792   7.188 -2.7173  0.3508  0.1628
 6303TIP3   OH240467   0.694   5.828   2.198 -0.4509  0.2139 -0.5108
 6303TIP3    H140468   0.648   5.849   2.117 -0.7368  1.4862 -0.0383
 6303TIP3    H240469   0.752   5.903   2.213  0.4995 -0.5608 -0.1702
 6304TIP3   OH240470   5.281   1.469   0.370  0.3549  0.8222  0.3534
 6304TIP3    H140471   5.303   1.500   0.458  0.5487 -0.4759  0.7745
 6304TIP3    H240472   5.230   1.390   0.384 -0.0107  0.8565 -0.7089
 6305TIP3   OH240473   1.911   4.584   8.245  0.1926 -0.1616  0.1939
 6305TIP3    H140474   1.961   4.504   8.261  1.4652  0.2787 -1.4007
 6305TIP3    H240475   1.945   4.618   8.163 -1.0643  1.4745  0.3032
 6306TIP3   OH240476   4.182   4.883   0.259 -0.3335  0.7008 -0.7616
 6306TIP3    H140477   4.113   4.947   0.277  0.3320  1.1273  0.3472
 6306TIP3    H240478   4.263   4.926   0.285  0.0554 -0.8946  0.9166
 6307TIP3   OH240479   0.401   0.481   0.083 -0.5439 -0.2458 -0.2355
 6307TIP3    H140480   0.319   0.530   0.075 -1.1402 -1.1472  0.1099
 6307TIP3    H240481   0.379   0.394   0.049  0.4812 -0.2808 -0.8286
 6308TIP3   OH240482   2.024   4.679   1.259  0.7876 -0.1263  0.4607
 6308TIP3    H140483   1.975   4.758   1.284 -2.9285 -1.6404 -1.2860
 6308TIP3    H240484   2.027   4.682   1.164 -0.8283 -2.7008  0.2275
 6309TIP3   OH240485   2.049   4.415   1.319  0.1495  0.1415 -0.2586
 6309TIP3    H140486   2.139   4.387   1.298  0.5359  0.3274  1.0582
 6309TIP3    H240487   2.049   4.509   1.302  0.1647  0.1211 -0.3738
 6310TIP3   OH240488   2.451   6.727   1.375 -0.3399 -0.4297  0.1580
 6310TIP3    H140489   2.538   6.758   1.350 -0.5013  0.0566  0.1814
 6310TIP3    H240490   2.417   6.683   1.298  0.4585 -1.8165  0.5727
 6311TIP3   OH240491   5.743   2.801   1.403  0.1359  0.2062  0.1646
 6311TIP3    H140492   5.754   2.896   1.401 -4.0760  0.9204  1.5486
 6311TIP3    H240493   5.759   2.773   1.313 -1.5513  2.7518 -1.0532
 6312TIP3   OH240494   3.442   5.696   8.364  0.0188 -0.3425  0.0798
 6312TIP3    H140495   3.402   5.617   8.402 -1.2177 -0.3923 -1.2510
 6312TIP3    H240496   3.390   5.768   8.400 -0.5086 -0.3265 -0.6852
 6313TIP3   OH240497   4.364   0.816   1.356 -0.9542  0.3837  0.4596
 6313TIP3    H140498   4.442   0.812   1.301  0.6705 -1.1232  2.7102
 6313TIP3    H240499   4.333   0.725   1.361 -0.1935  0.1761  3.0562
 6314TIP3   OH240500   2.236   6.280   2.642 -0.1377  0.1350  0.2945
 6314TIP3    H140501   2.233   6.341   2.716  2.1788 -0.4039  0.9412
 6314TIP3    H240502   2.196   6.200   2.675 -0.3034  0.3171  0.5324
 6315TIP3   OH240503   4.513   0.513   2.431 -0.5446 -0.5170 -0.2815
 6315TIP3    H140504   4.475   0.581   2.486 -0.4664 -0.2977 -0.4957
 6315TIP3    H240505   4.578   0.471   2.487 -1.0836 -0.8788  0.0756
 6316TIP3   OH240506   4.141   5.401   7.433 -0.2817 -0.0307  0.0696
 6316TIP3    H140507   4.225   5.436   7.462 -0.6756 -1.0971  2.7681
 6316TIP3    H240508   4.162   5.353   7.352  1.5155  0.4530  0.2071
 6317TIP3   OH240509   1.475   2.191   8.242  0.3086 -0.4591  0.0327
 6317TIP3    H140510   1.484   2.281   8.210  1.0218 -0.6344 -0.2809
 6317TIP3    H240511   1.384   2.168   8.224 -0.6988  1.1387  2.6027
 6318TIP3   OH240512   2.900   0.819   7.909 -0.1598  0.0382  0.0939
 6318TIP3    H140513   2.822   0.837   7.961 -0.8996  1.0787 -1.3172
 6318TIP3    H240514   2.932   0.905   7.882 -0.4760 -0.4553 -2.0934
 6319TIP3   OH240515   2.942   4.133   0.755 -0.4886 -0.6550  0.7164
 6319TIP3    H140516   3.013   4.145   0.818  1.9837  0.4930 -2.0349
 6319TIP3    H240517   2.954   4.045   0.722  0.8084  0.0977 -0.9410
 6320TIP3   OH240518   2.689   0.567   0.288 -0.4698  0.1869  0.3586
 6320TIP3    H140519   2.623   0.631   0.317 -0.0597  0.7659  0.0434
 6320TIP3    H240520   2.695   0.505   0.361 -0.8279  0.5497  0.7085
 6321TIP3   OH240521   4.708   0.305   7.686 -0.2629 -0.8042  0.2701
 6321TIP3    H140522   4.667   0.267   7.764  1.2697 -1.3832  0.8113
 6321TIP3    H240523   4.634   0.344   7.638 -1.1705  0.0970  2.2773
 6322TIP3   OH240524   4.453   2.983   8.178  0.1136 -0.0776 -0.1185
 6322TIP3    H140525   4.498   2.985   8.263  0.9672 -1.3271 -0.5017
 6322TIP3    H240526   4.386   2.916   8.188  0.0126 -0.0084 -0.3314
 6323TIP3   OH240527   5.173   2.032   2.356 -0.7342  0.4624  1.0644
 6323TIP3    H140528   5.102   2.000   2.301 -0.3956 -1.0696  1.4728
 6323TIP3    H240529   5.143   2.015   2.446 -0.6395  1.5474  1.3188
 6324TIP3   OH240530   3.055   1.289   1.332  0.1152  0.2007  0.1276
 6324TIP3    H140531   3.143   1.255   1.348 -0.4831 -2.6026 -1.7395
 6324TIP3    H240532   3.068   1.374   1.290  2.0583 -0.9277 -1.7336
 6325TIP3   OH240533   1.639   6.390   0.751  0.7880  1.1352 -0.0151
 6325TIP3    H140534   1.626   6.429   0.665 -0.8298  2.7324  0.8620
 6325TIP3    H240535   1.672   6.462   0.805 -1.1262  1.0695  1.3726
 6326TIP3   OH240536   1.205   1.716   2.736  0.0986 -0.5041  0.2285
 6326TIP3    H140537   1.275   1.720   2.800 -0.9264  1.4546  1.3338
 6326TIP3    H240538   1.153   1.640   2.761 -1.5262  1.3886  3.2354
 6327TIP3   OH240539   1.138   5.795   0.856 -0.0960 -0.1184  0.3030
 6327TIP3    H140540   1.133   5.890   0.872 -0.5707 -0.2198  0.7686
 6327TIP3    H240541   1.212   5.785   0.796  0.5661  0.4636  0.9906
 6328TIP3   OH240542   2.938   3.707   1.126  0.2107  0.7358  0.5320
 6328TIP3    H140543   2.980   3.644   1.067 -0.9925 -0.2069  0.6384
 6328TIP3    H240544   2.847   3.711   1.096  0.0631  1.7795  1.0717
 6329TIP3   OH240545   6.481   4.392   0.589  0.0821 -0.0409 -0.5680
 6329TIP3    H140546   6.519   4.338   0.519 -0.9448  0.8990 -1.9138
 6329TIP3    H240547   6.539   4.378   0.664  1.0810 -1.2947 -1.5156
 6330TIP3   OH240548   0.215   1.259   1.562 -0.2308  0.4900 -0.9654
 6330TIP3    H140549   0.202   1.274   1.656  1.6636  0.7219 -0.7104
 6330TIP3    H240550   0.151   1.191   1.540  0.9054 -1.3704  1.0729
 6331TIP3   OH240551   6.728   6.571   8.262  0.3552 -0.1185  0.2183
 6331TIP3    H140552   6.644   6.609   8.289 -0.3079 -0.9228 -0.6087
 6331TIP3    H240553   6.731   6.586   8.167 -0.8374 -3.6231 -0.5358
 6332TIP3   OH240554   0.394   2.719   2.184 -0.6267 -0.1194  0.3716
 6332TIP3    H140555   0.399   2.814   2.171 -0.7331  0.1465  2.1417
 6332TIP3    H240556   0.301   2.699   2.185 -0.6156 -0.1660  0.5120
 6333TIP3   OH240557   0.655   1.042   0.661 -0.3625  0.5550 -0.0728
 6333TIP3    H140558   0.727   0.990   0.627 -1.1215 -0.1900 -0.5845
 6333TIP3    H240559   0.644   1.012   0.751  0.4521  1.2180  0.2579
 6334TIP3   OH240560   4.222   3.614   6.571  0.7584  0.5510 -0.2950
 6334TIP3    H140561   4.269   3.535   6.543  1.5414  0.6521  0.6921
 6334TIP3    H240562   4.131   3.584   6.584  0.3983  0.4373 -2.5788
 6335TIP3   OH240563   1.515   2.481   1.040  0.1245 -0.2789 -0.4831
 6335TIP3    H140564   1.419   2.481   1.050  0.1115 -1.5915 -0.4851
 6335TIP3    H240565   1.533   2.408   0.981  1.1102  0.1689 -0.7470
 6336TIP3   OH240566   3.815   3.128   8.676  0.0265  0.2141 -0.2112
 6336TIP3    H140567   3.777   3.051   8.720 -0.1682 -0.6777 -1.8609
 6336TIP3    H240568   3.770   3.203   8.716 -1.8350 -0.6917 -0.5105
 6337TIP3   OH240569   3.420   1.434   2.387  0.5265 -0.1211 -0.1511
 6337TIP3    H140570   3.482   1.504   2.371 -0.0813  0.2582 -0.9350
 6337TIP3    H240571   3.334   1.476   2.381  0.1526 -0.9470 -0.7918
 6338TIP3   OH240572   1.141   1.650   1.027 -0.2404 -0.6851  0.1778
 6338TIP3    H140573   1.228   1.631   1.064  0.2834 -0.2023 -0.7785
 6338TIP3    H240574   1.110   1.725   1.077  1.1935  1.0577 -1.4054
 6339TIP3   OH240575   3.366   5.563   2.056 -0.3877 -0.1444 -0.1115
 6339TIP3    H140576   3.395   5.586   2.144 -0.1565  0.1126 -0.2496
 6339TIP3    H240577   3.279   5.526   2.068  0.4127 -1.9380  0.4246
 6340TIP3   OH240578   4.765   0.418   0.727 -0.3796  0.9837 -0.4338
 6340TIP3    H140579   4.790   0.509   0.714  0.5646  0.5481 -1.9408
 6340TIP3    H240580   4.787   0.399   0.818  0.3530  1.9733 -0.3950
 6341TIP3   OH240581   4.419   4.394   1.107 -0.7291  0.3837 -0.1763
 6341TIP3    H140582   4.419   4.328   1.038 -1.7883 -0.7055  0.8075
 6341TIP3    H240583   4.405   4.477   1.061 -0.8278 -0.2360 -1.3092
 6342TIP3   OH240584   5.889   2.949   0.323  0.0105  0.0660 -0.2164
 6342TIP3    H140585   5.919   3.006   0.253 -0.2173 -0.3808 -0.6884
 6342TIP3    H240586   5.842   3.006   0.383  0.5638  0.5232 -0.2123
 6343TIP3   OH240587   0.568   5.061   8.199  0.4409  0.1497 -0.2496
 6343TIP3    H140588   0.515   4.987   8.169 -0.4946 -0.3511  2.3592
 6343TIP3    H240589   0.651   5.051   8.153  0.6720 -3.1098  0.6185
 6344TIP3   OH240590   2.981   6.239   1.263 -0.2055  0.4296  0.4116
 6344TIP3    H140591   3.034   6.202   1.333  1.8763  0.3702 -1.0872
 6344TIP3    H240592   2.919   6.170   1.240 -1.1451  0.5783  2.3497
 6345TIP3   OH240593   4.981   5.613   0.101 -0.5234 -0.4576 -0.2267
 6345TIP3    H140594   5.067   5.645   0.074  0.6329 -2.4509  0.8248
 6345TIP3    H240595   4.919   5.659   0.044  1.1850  1.2809 -0.7992
 6346TIP3   OH240596   0.118   3.909   1.859  0.1198 -0.2785 -0.0591
 6346TIP3    H140597   0.116   3.869   1.772  1.3437  0.5869 -0.5067
 6346TIP3    H240598   0.205   3.890   1.893  0.3099  0.9819  0.2117
 6347TIP3   OH240599   5.634   2.875   0.246 -0.6268  0.5209 -0.0112
 6347TIP3    H140600   5.642   2.855   0.340 -0.8374  1.7482  0.2830
 6347TIP3    H240601   5.722   2.902   0.220 -0.4205 -0.4332 -0.3260
 6348TIP3   OH240602   5.703   3.079   2.265 -0.1188 -0.1851  0.1126
 6348TIP3    H140603   5.773   3.052   2.207  2.3068  1.5143  2.0604
 6348TIP3    H240604   5.633   3.109   2.207  1.1141 -0.9881 -1.8745
 6349TIP3   OH240605   6.720   2.470   2.610 -0.2655 -0.1132  0.1510
 6349TIP3    H140606   6.754   2.382   2.628 -1.1465 -0.3963  0.4806
 6349TIP3    H240607   6.684   2.500   2.693 -0.1372  0.4898 -0.0052
 6350TIP3   OH240608   6.728   5.312   2.521 -0.5470 -0.2601  0.3829
 6350TIP3    H140609   6.785   5.334   2.447 -1.9022  1.0614 -0.3260
 6350TIP3    H240610   6.756   5.224   2.547  1.5870  0.2008 -0.1205
 6351TIP3   OH240611   2.425   0.611   6.947 -0.4057 -0.2987 -0.3341
 6351TIP3    H140612   2.505   0.563   6.927 -0.8520 -0.7631 -1.0650
 6351TIP3    H240613   2.383   0.559   7.017 -0.8534 -0.9539 -1.0739
 6352TIP3   OH240614   3.784   0.915   1.301 -0.7807 -0.6455  0.3287
 6352TIP3    H140615   3.809   0.822   1.301  1.0265 -0.1796  0.6502
 6352TIP3    H240616   3.844   0.956   1.239 -0.4814  0.5885  1.3975
 6353TIP3   OH240617   2.646   4.981   2.677 -0.0835  0.1156  0.0267
 6353TIP3    H140618   2.724   4.944   2.717 -0.4378 -0.3313  0.3115
 6353TIP3    H240619   2.607   4.909   2.628  0.1011  0.5400 -0.7570
 6354TIP3   OH240620   3.790   3.153   1.297  0.0685  0.2689 -0.4840
 6354TIP3    H140621   3.775   3.063   1.269 -2.0070 -0.2760  2.0122
 6354TIP3    H240622   3.875   3.152   1.339  0.0823 -0.5124 -0.5187
 6355TIP3   OH240623   3.137   3.469   2.331 -0.6236 -0.3573  0.7114
 6355TIP3    H140624   3.167   3.534   2.395  0.7135 -2.2965  2.1942
 6355TIP3    H240625   3.163   3.385   2.369  1.1720 -1.6181 -2.8497
 6356TIP3   OH240626   6.498   0.584   7.956 -0.1428  0.1183 -0.6297
 6356TIP3    H140627   6.444   0.524   7.903 -1.4624  1.2827 -0.6628
 6356TIP3    H240628   6.588   0.561   7.934 -0.5518 -2.4275 -0.0251
 6357TIP3   OH240629   0.809   1.093   2.317 -0.2074  0.2478 -0.1733
 6357TIP3    H140630   0.745   1.049   2.261 -0.3061  1.0280 -0.6917
 6357TIP3    H240631   0.879   1.030   2.327 -1.5318 -1.0551  1.3201
 6358TIP3   OH240632   6.235   0.267   1.917 -0.2218  0.4583 -0.8085
 6358TIP3    H140633   6.164   0.326   1.944 -1.1183 -0.6512 -0.6555
 6358TIP3    H240634   6.284   0.249   1.997 -2.2759 -2.0290  0.0264
 6359TIP3   OH240635   6.534   3.365   8.331 -0.6466 -0.3968  0.1962
 6359TIP3    H140636   6.566   3.340   8.244  0.8103 -0.3062  0.6872
 6359TIP3    H240637   6.611   3.397   8.377 -1.0936 -1.7470  2.0074
 6360TIP3   OH240638   1.952   4.230   2.745  0.2821  0.5443 -0.3532
 6360TIP3    H140639   2.030   4.251   2.693  0.4707  2.1306  0.5204
 6360TIP3    H240640   1.880   4.235   2.682  0.5346  2.2118 -0.5389
 6361TIP3   OH240641   4.855   6.036   6.765  0.5179 -0.1237 -0.1107
 6361TIP3    H140642   4.775   6.002   6.807  1.0922 -0.6071  0.6164
 6361TIP3    H240643   4.917   5.963   6.770  1.4315  0.6802  0.4968
 6362TIP3   OH240644   1.527   4.687   1.491 -0.5040  0.3169  0.1987
 6362TIP3    H140645   1.574   4.760   1.531 -1.3733  2.6232 -2.6503
 6362TIP3    H240646   1.574   4.609   1.521  1.4903  2.1029  2.0725
 6363TIP3   OH240647   3.028   0.629   0.244 -0.8295  0.7782 -0.4756
 6363TIP3    H140648   2.943   0.638   0.202 -0.9875  0.9131 -0.1299
 6363TIP3    H240649   3.012   0.647   0.337 -0.5116  0.3513 -0.3279
 6364TIP3   OH240650   3.018   5.979   8.572  0.1170  0.4281 -0.2059
 6364TIP3    H140651   2.951   6.041   8.599  0.9264  1.6329 -0.8876
 6364TIP3    H240652   2.991   5.952   8.484 -0.1803 -0.1229  0.0499
 6365TIP3   OH240653   1.629   3.319   1.027  0.1055  0.3683 -0.7645
 6365TIP3    H140654   1.706   3.279   0.987 -0.0133  1.0398 -1.6748
 6365TIP3    H240655   1.558   3.256   1.010 -0.0267  0.8262 -1.9723
 6366TIP3   OH240656   2.305   4.894   1.131 -0.2407  0.1498 -0.3857
 6366TIP3    H140657   2.269   4.854   1.211  1.7403 -1.2709 -0.1322
 6366TIP3    H240658   2.305   4.824   1.067  1.3426  0.2840 -0.5756
 6367TIP3   OH240659   5.771   4.749   0.422  0.3672  0.2912 -0.0940
 6367TIP3    H140660   5.737   4.832   0.390  1.0175 -0.2279 -2.3709
 6367TIP3    H240661   5.719   4.683   0.376 -1.7718 -0.7117  3.4361
 6368TIP3   OH240662   0.774   2.753   0.658 -0.4618 -0.2480 -0.3449
 6368TIP3    H140663   0.772   2.708   0.743 -0.0932 -1.6424 -1.0346
 6368TIP3    H240664   0.713   2.703   0.603 -0.4843  0.4608 -0.9868
 6369TIP3   OH240665   4.266   6.630   8.599  0.3682 -0.0894  0.2685
 6369TIP3    H140666   4.319   6.699   8.559 -0.1801 -0.4331 -1.1141
 6369TIP3    H240667   4.306   6.615   8.685  1.8232  0.4312 -0.2873
 6370TIP3   OH240668   1.176   0.218   0.271 -0.3246  0.2413 -0.0509
 6370TIP3    H140669   1.081   0.211   0.275 -0.2210 -0.8721  1.2670
 6370TIP3    H240670   1.208   0.143   0.322  1.2918 -0.8147 -2.4356
 6371TIP3   OH240671   1.559   1.597   7.950  0.0029  0.0266  0.4733
 6371TIP3    H140672   1.507   1.677   7.937 -1.0214 -0.5402  0.9535
 6371TIP3    H240673   1.577   1.596   8.044 -0.4119 -0.5520  0.5506
 6372TIP3   OH240674   4.587   6.413   0.266 -0.0721  0.4474  0.5042
 6372TIP3    H140675   4.664   6.406   0.209 -0.4650 -0.1575  0.0321
 6372TIP3    H240676   4.609   6.359   0.342  0.3678  1.0868  0.8426
 6373TIP3   OH240677   1.089   6.801   3.072 -0.3224  0.4258  0.0716
 6373TIP3    H140678   1.113   6.894   3.074  1.0845  0.1274 -1.2656
 6373TIP3    H240679   1.003   6.800   3.030 -0.5034  1.1580  0.4138
 6374TIP3   OH240680   2.477   6.069   8.177  0.1836  0.4016 -0.1443
 6374TIP3    H140681   2.405   6.022   8.136  0.4551 -0.8684  0.7453
 6374TIP3    H240682   2.544   6.002   8.191  0.3848  0.9099  1.6728
 6375TIP3   OH240683   3.302   2.075   7.239 -0.0430  0.0838  0.0922
 6375TIP3    H140684   3.324   2.054   7.330  0.0328  0.6097  0.1963
 6375TIP3    H240685   3.315   2.169   7.232 -1.4095  0.2737 -0.0926
 6376TIP3   OH240686   2.173   4.973   8.193 -0.6059  0.2158  0.4759
 6376TIP3    H140687   2.166   4.944   8.284 -1.7134 -1.5367 -0.1249
 6376TIP3    H240688   2.266   4.961   8.173 -0.5412 -0.4212  1.0722
 6377TIP3   OH240689   3.782   2.405   1.974 -0.1612 -0.1740 -0.0949
 6377TIP3    H140690   3.848   2.357   1.924  0.6993  1.0010 -0.1529
 6377TIP3    H240691   3.808   2.394   2.066  1.3687  1.8916 -0.1881
 6378TIP3   OH240692   1.893   4.500   1.576  0.1049 -0.6853 -0.0383
 6378TIP3    H140693   1.955   4.472   1.509  1.0058  0.0410  0.4778
 6378TIP3    H240694   1.943   4.557   1.634 -1.3752  1.0407 -0.3692
 6379TIP3   OH240695   2.630   0.451   0.030 -0.3126  0.2070 -0.6079
 6379TIP3    H140696   2.537   0.443   0.050 -0.3463  0.6125 -0.5856
 6379TIP3    H240697   2.665   0.503   0.102 -0.5341  2.1577 -1.8314
 6380TIP3   OH240698   0.879   6.605   8.341  0.3921  0.7791  0.2701
 6380TIP3    H140699   0.811   6.671   8.351  0.5024  1.0395 -0.5944
 6380TIP3    H240700   0.961   6.655   8.333  0.7373  0.4634  1.5337
 6381TIP3   OH240701   2.496   1.389   8.612 -0.2624 -0.2709  0.7576
 6381TIP3    H140702   2.518   1.473   8.572  0.1592  0.1790  1.8963
 6381TIP3    H240703   2.450   1.413   8.693  1.6970 -1.0692  2.1632
 6382TIP3   OH240704   1.224   4.420   7.713  0.0319  0.3705  0.3420
 6382TIP3    H140705   1.287   4.392   7.647  0.0882  2.0577 -0.3479
 6382TIP3    H240706   1.178   4.340   7.737  1.8459 -0.7551  0.2492
 6383TIP3   OH240707   1.247   0.965   1.185 -0.0053  0.3111 -0.2659
 6383TIP3    H140708   1.233   0.977   1.091 -0.3535  2.4711  0.0107
 6383TIP3    H240709   1.276   0.875   1.194 -0.5213 -0.1051 -2.3846
 6384TIP3   OH240710   4.979   3.013   2.409  0.3466  0.4337  0.1368
 6384TIP3    H140711   5.016   3.032   2.323 -0.5178  0.2791 -0.2886
 6384TIP3    H240712   5.003   2.922   2.426 -0.0083  0.2686 -0.2301
 6385TIP3   OH240713   0.748   4.453   7.946  0.5927  0.1920 -0.1384
 6385TIP3    H140714   0.754   4.534   7.896  1.9795  0.0490 -0.2549
 6385TIP3    H240715   0.838   4.435   7.973  0.4077 -1.5910 -0.5821
 6386TIP3   OH240716   2.061   6.130   7.397  0.0924  0.5872  0.1824
 6386TIP3    H140717   2.063   6.045   7.352 -1.9734  0.7986 -0.4323
 6386TIP3    H240718   2.094   6.112   7.484  1.2216 -0.5071 -0.4384
 6387TIP3   OH240719   4.548   3.859   2.002  0.6700  0.3478  0.4447
 6387TIP3    H140720   4.603   3.843   2.079  2.2070  1.4788 -0.3543
 6387TIP3    H240721   4.571   3.947   1.974 -1.0374  0.5664 -0.4038
 6388TIP3   OH240722   4.671   0.843   2.375 -0.3903 -0.1833  0.2326
 6388TIP3    H140723   4.596   0.847   2.434  0.1364  3.0998  0.8931
 6388TIP3    H240724   4.746   0.863   2.431  0.7181 -1.2771 -0.7997
 6389TIP3   OH240725   3.846   1.004   2.313 -0.1764  0.4553 -0.2925
 6389TIP3    H140726   3.832   0.991   2.219 -1.1711 -0.6852 -0.0224
 6389TIP3    H240727   3.884   0.921   2.343  0.5406  0.9698  0.2448
 6390TIP3   OH240728   2.362   5.650   1.691 -0.6001  0.0828 -0.3180
 6390TIP3    H140729   2.348   5.737   1.654 -1.4259 -0.3852 -1.1427
 6390TIP3    H240730   2.419   5.665   1.766  0.0021  1.2238 -0.9767
 6391TIP3   OH240731   0.739   4.355   1.335  0.1968 -0.1748 -0.2020
 6391TIP3    H140732   0.826   4.344   1.296  0.4888  1.4034 -0.0590
 6391TIP3    H240733   0.683   4.383   1.263  0.3262  0.9511  0.1080
 6392TIP3   OH240734   1.873   6.048   0.502 -0.0342 -0.1282 -0.4478
 6392TIP3    H140735   1.921   6.106   0.561 -0.3355 -0.2658 -0.0613
 6392TIP3    H240736   1.929   5.970   0.494  0.2688  0.1206 -0.7956
 6393TIP3   OH240737   5.043   0.389   3.376 -0.0502 -0.4468  0.2334
 6393TIP3    H140738   5.088   0.306   3.393  0.3141 -0.0805  1.1695
 6393TIP3    H240739   5.114   0.451   3.361 -0.2068  0.1402  1.7272
 6394TIP3   OH240740   3.764   4.280   2.187  0.7585 -0.1140 -0.2658
 6394TIP3    H140741   3.746   4.370   2.213 -0.8960 -0.7504  0.9933
 6394TIP3    H240742   3.785   4.285   2.094 -0.6117  1.4269 -0.5216
 6395TIP3   OH240743   2.184   1.464   0.654  0.1658 -0.4687  0.3180
 6395TIP3    H140744   2.186   1.498   0.744  0.7820  2.5377 -0.7267
 6395TIP3    H240745   2.275   1.461   0.627 -0.1350  1.0103 -0.9740
 6396TIP3   OH240746   3.589   6.712   0.674 -0.4901  0.1656  0.2889
 6396TIP3    H140747   3.516   6.675   0.723 -0.2766  1.5865  1.8064
 6396TIP3    H240748   3.661   6.715   0.738  0.5869 -0.2506 -0.8701
 6397TIP3   OH240749   4.946   4.256   2.466  0.4380  0.1768 -0.2018
 6397TIP3    H140750   4.899   4.291   2.390 -0.7982  1.5337  1.1245
 6397TIP3    H240751   5.034   4.293   2.460  0.0310  1.1280 -0.4166
 6398TIP3   OH240752   6.059   2.986   1.012 -0.5922 -0.0133  0.1845
 6398TIP3    H140753   6.052   2.937   1.094 -0.3246 -0.1703  0.1170
 6398TIP3    H240754   6.145   2.961   0.976 -0.0441  1.1920  0.5950
 6399TIP3   OH240755   4.422   1.493   7.497 -0.6221  0.4063  0.1705
 6399TIP3    H140756   4.472   1.414   7.476  0.2692  0.7611  0.9118
 6399TIP3    H240757   4.411   1.491   7.592  3.4400  3.3729  0.9996
 6400TIP3   OH240758   4.791   6.622   2.188  0.5807 -0.3872  0.7126
 6400TIP3    H140759   4.741   6.546   2.218 -0.1871 -0.3890 -0.5093
 6400TIP3    H240760   4.841   6.590   2.113  1.7765 -0.1629  1.3999
 6401TIP3   OH240761   2.135   4.119   7.706 -0.1068  0.0625  0.1369
 6401TIP3    H140762   2.062   4.076   7.663 -0.0448 -0.9003  0.9716
 6401TIP3    H240763   2.175   4.052   7.761  0.4616  0.9754  0.8885
 6402TIP3   OH240764   4.432   3.751   0.444 -0.0430 -0.4455  0.1735
 6402TIP3    H140765   4.474   3.695   0.510  0.0932 -2.6223 -1.6555
 6402TIP3    H240766   4.503   3.803   0.408 -0.2991  1.7174  2.4789
 6403TIP3   OH240767   4.800   0.004   7.678 -0.1017  0.0731 -0.1577
 6403TIP3    H140768   4.715  -0.008   7.720 -0.1077 -2.5665 -0.7471
 6403TIP3    H240769   4.780   0.006   7.585  0.5235 -2.2933 -0.4166
 6404TIP3   OH240770   6.627   3.477   1.073  0.0350 -0.4074 -0.1317
 6404TIP3    H140771   6.629   3.460   1.167  0.2811  0.5995  0.0611
 6404TIP3    H240772   6.687   3.412   1.036 -0.4832 -1.1728  0.3321
 6405TIP3   OH240773   4.784   0.679   1.261 -0.2240 -0.2483  0.3704
 6405TIP3    H140774   4.795   0.743   1.332  0.5690  0.2924 -0.2295
 6405TIP3    H240775   4.711   0.713   1.209 -0.3833 -0.3027  0.5574
 6406TIP3   OH240776   4.438   0.494   7.064  0.1482 -0.0679  0.0502
 6406TIP3    H140777   4.469   0.410   7.030  0.1574 -0.2748  0.5554
 6406TIP3    H240778   4.454   0.556   6.993 -0.3332 -0.5870 -0.5232
 6407TIP3   OH240779   0.240   3.524   1.114  0.2482 -0.3117  0.6328
 6407TIP3    H140780   0.235   3.616   1.089  3.4740 -0.3182 -0.4951
 6407TIP3    H240781   0.208   3.522   1.204 -0.5551  1.7587  0.4520
 6408TIP3   OH240782   4.460   3.937   0.109  0.1727  0.0841  0.1327
 6408TIP3    H140783   4.475   3.847   0.079 -1.2774 -0.0911 -0.1445
 6408TIP3    H240784   4.513   3.945   0.189 -0.9115 -1.5760  1.0855
 6409TIP3   OH240785   2.415   4.402   0.916 -0.1840  0.6651  0.0334
 6409TIP3    H140786   2.369   4.483   0.935  0.1273  1.3982 -2.0747
 6409TIP3    H240787   2.473   4.424   0.843 -0.6762 -1.6372 -1.1472
 6410TIP3   OH240788   1.141   6.391   2.394 -0.2916 -0.6909  0.6668
 6410TIP3    H140789   1.061   6.339   2.403 -1.5740  1.4791  3.3875
 6410TIP3    H240790   1.118   6.459   2.331 -0.2295 -0.6688  0.6681
 6411TIP3   OH240791   1.091   1.087   7.499 -0.4465  0.0692  0.0873
 6411TIP3    H140792   1.013   1.123   7.456  0.0139  0.5706 -0.3263
 6411TIP3    H240793   1.102   1.001   7.458  0.0556  0.5870 -0.9066
 6412TIP3   OH240794   3.748   4.500   2.931 -0.5400 -0.5392  0.1274
 6412TIP3    H140795   3.814   4.435   2.956 -0.8605 -1.1149 -0.4804
 6412TIP3    H240796   3.668   4.449   2.921 -0.7867 -0.0535 -0.4165
 6413TIP3   OH240797   5.173   1.191   2.871 -0.1090 -0.3068 -0.0662
 6413TIP3    H140798   5.151   1.282   2.893  0.1488 -0.1196 -0.5554
 6413TIP3    H240799   5.134   1.139   2.941  0.0295  0.2072  0.3990
 6414TIP3   OH240800   6.718   5.456   8.260  0.3185 -0.6011  0.1314
 6414TIP3    H140801   6.767   5.498   8.332 -1.1517  1.3882  0.0338
 6414TIP3    H240802   6.637   5.506   8.254 -0.0146 -1.3297 -2.3115
 6415TIP3   OH240803   0.279   0.417   1.840  0.1655  0.2775  0.7573
 6415TIP3    H140804   0.338   0.408   1.915 -0.4019  0.2652  1.2060
 6415TIP3    H240805   0.325   0.478   1.781  0.9930 -0.3693  0.7230
 6416TIP3   OH240806   4.692   1.316   1.630  0.0428  0.2477 -0.1778
 6416TIP3    H140807   4.698   1.238   1.576  0.4318 -0.0682  0.3103
 6416TIP3    H240808   4.746   1.297   1.707 -1.4986  0.1838  0.9395
 6417TIP3   OH240809   4.597   1.580   8.015  0.2397  0.2544 -0.0719
 6417TIP3    H140810   4.559   1.652   7.965  2.5850  1.3012 -0.4937
 6417TIP3    H240811   4.599   1.612   8.105 -1.0169 -0.3406  0.1915
 6418TIP3   OH240812   1.499   4.812   8.176  0.7596  0.3657  0.1141
 6418TIP3    H140813   1.592   4.827   8.157  1.2207 -0.7657  1.3511
 6418TIP3    H240814   1.459   4.899   8.168  1.7272  0.7216 -1.3332
 6419TIP3   OH240815   0.486   5.887   7.707  1.4128 -0.2569  0.3914
 6419TIP3    H140816   0.405   5.918   7.746  1.7284  2.1280 -0.6863
 6419TIP3    H240817   0.490   5.794   7.730 -1.4928 -0.3986  0.6563
 6420TIP3   OH240818   0.094   6.323   1.733 -0.4276  0.3770  0.2934
 6420TIP3    H140819   0.074   6.413   1.757  1.5803  1.9342 -3.0611
 6420TIP3    H240820   0.049   6.310   1.649  1.0782 -0.8989 -0.3811
 6421TIP3   OH240821   4.606   4.275   0.168  0.1292 -0.1346  0.1911
 6421TIP3    H140822   4.607   4.244   0.078  2.5283 -1.7187  0.6812
 6421TIP3    H240823   4.690   4.318   0.180  1.1284 -2.4086  2.3720
 6422TIP3   OH240824   3.869   0.494   7.833 -0.0924  0.0166  0.0380
 6422TIP3    H140825   3.906   0.486   7.922 -1.3136 -1.6017  0.4520
 6422TIP3    H240826   3.832   0.582   7.831  0.2361  0.1991  1.0285
 6423TIP3   OH240827   2.622   4.062   2.235 -0.2374 -0.0901 -0.3289
 6423TIP3    H140828   2.553   4.009   2.196 -0.6075 -0.4690  0.8165
 6423TIP3    H240829   2.584   4.096   2.316  0.3817  1.0109 -0.4735
 6424TIP3   OH240830   5.623   5.828   1.474 -0.1300 -0.3903  0.9831
 6424TIP3    H140831   5.677   5.905   1.459 -0.9560  0.0210  0.1187
 6424TIP3    H240832   5.576   5.847   1.555  0.8044 -0.6580  1.6221
 6425TIP3   OH240833   5.413   6.731   7.023 -0.2947  0.3235 -0.1429
 6425TIP3    H140834   5.440   6.644   6.992 -2.2713 -0.3765 -0.0215
 6425TIP3    H240835   5.326   6.744   6.987 -1.3648  0.8698  2.4110
 6426TIP3   OH240836   2.773   6.375   0.041 -0.2427 -0.1413 -0.0035
 6426TIP3    H140837   2.865   6.354   0.058 -0.2780  0.0781  0.4785
 6426TIP3    H240838   2.738   6.400   0.127 -0.4829  0.7770 -0.3561
 6427TIP3   OH240839   4.015   4.122   0.272 -0.4673 -0.1699  0.3961
 6427TIP3    H140840   4.079   4.082   0.213 -1.7616 -0.0931 -1.1298
 6427TIP3    H240841   4.067   4.153   0.346  1.7217  2.1900 -1.9033
 6428TIP3   OH240842   5.456   0.707   8.583  0.4434  0.3330 -0.3127
 6428TIP3    H140843   5.460   0.768   8.510  1.0497  0.2523 -0.3522
 6428TIP3    H240844   5.406   0.753   8.650 -1.7563 -0.2916 -1.4250
 6429TIP3   OH240845   3.701   2.636   7.224  0.5046 -0.2529  0.0267
 6429TIP3    H140846   3.725   2.582   7.299  0.7157  0.2957  0.3597
 6429TIP3    H240847   3.777   2.629   7.165  0.1837 -0.9794 -0.3088
 6430TIP3   OH240848   6.042   3.259   1.672  0.4611 -0.3730  0.0970
 6430TIP3    H140849   6.084   3.173   1.673 -2.2465 -1.8346  1.8072
 6430TIP3    H240850   5.984   3.255   1.596  1.0730  0.3687 -0.4136
 6431TIP3   OH240851   6.326   2.205   8.441 -0.1528 -0.4450 -0.1873
 6431TIP3    H140852   6.247   2.211   8.387  0.8678 -1.7908 -1.9472
 6431TIP3    H240853   6.383   2.145   8.393  0.7521 -1.9525  2.5376
 6432TIP3   OH240854   5.630   6.534   1.251 -0.1003 -0.1781 -0.1286
 6432TIP3    H140855   5.545   6.548   1.292  0.2024 -0.2235  0.5158
 6432TIP3    H240856   5.690   6.592   1.299  0.8659 -2.4004  1.4983
 6433TIP3   OH240857   5.666   4.250   1.421  0.1646 -0.2004  0.1598
 6433TIP3    H140858   5.612   4.245   1.499 -2.1271  0.7023 -1.2754
 6433TIP3    H240859   5.727   4.177   1.430 -1.0879 -1.1017  2.0159
 6434TIP3   OH240860   5.671   0.712   6.975 -0.2004  0.5011 -0.3142
 6434TIP3    H140861   5.601   0.755   7.025  0.9615  0.9449  0.9949
 6434TIP3    H240862   5.655   0.618   6.988  0.9229  0.5821  2.2372
 6435TIP3   OH240863   4.430   0.251   2.565 -0.0918 -0.1434  0.1585
 6435TIP3    H140864   4.518   0.281   2.587 -1.1015  0.5853  3.9902
 6435TIP3    H240865   4.373   0.301   2.623 -2.8425 -2.1499 -0.6306
 6436TIP3   OH240866   4.304   1.825   1.361 -0.5452 -0.1888  0.0024
 6436TIP3    H140867   4.233   1.769   1.330  0.0064  0.0201 -1.7181
 6436TIP3    H240868   4.337   1.869   1.283  1.1213  0.1436  0.8302
 6437TIP3   OH240869   0.307   6.105   8.648  0.7143 -0.2461 -0.5248
 6437TIP3    H140870   0.352   6.167   8.591  0.5605  0.0700 -0.3044
 6437TIP3    H240871   0.241   6.064   8.592  1.2736 -0.7153 -0.8489
 6438TIP3   OH240872   2.055   4.734   8.046  0.4003  0.4006  0.8482
 6438TIP3    H140873   2.137   4.723   8.093  0.2666  1.0907  1.2476
 6438TIP3    H240874   2.064   4.817   8.000 -1.1572  2.0336  3.2411
 6439TIP3   OH240875   5.639   3.863   7.117 -0.2463  0.7443  0.1037
 6439TIP3    H140876   5.678   3.930   7.060 -1.4060  0.1678 -1.4653
 6439TIP3    H240877   5.571   3.823   7.062  0.0409 -1.3439  1.1852
 6440TIP3   OH240878   1.962   3.823   1.144 -0.0189 -0.7643  0.2652
 6440TIP3    H140879   2.010   3.904   1.159 -0.5572 -0.3960  0.0251
 6440TIP3    H240880   1.899   3.845   1.076  0.5030 -1.6550 -0.5303
 6441TIP3   OH240881   0.441   3.391   0.522  0.2159  0.6005  0.2003
 6441TIP3    H140882   0.495   3.329   0.571  2.1718  1.4804 -0.7506
 6441TIP3    H240883   0.353   3.381   0.560  1.2587 -0.0196  2.6248
 6442TIP3   OH240884   0.915   0.563   7.473  0.4171 -0.4128 -0.1568
 6442TIP3    H140885   0.883   0.474   7.458  1.8572 -1.2234  1.2771
 6442TIP3    H240886   0.959   0.587   7.392 -1.1197 -0.4619 -1.0408
 6443TIP3   OH240887   2.155   6.802   1.864  0.3037 -0.3088  0.0196
 6443TIP3    H140888   2.185   6.726   1.814  0.4964 -0.5805  0.5453
 6443TIP3    H240889   2.181   6.878   1.811 -2.2787 -0.6062 -1.9065
 6444TIP3   OH240890   6.793   3.068   1.936  0.0537  0.2597 -0.0552
 6444TIP3    H140891   6.727   3.136   1.951 -0.3751 -0.0624 -0.4367
 6444TIP3    H240892   6.788   3.012   2.012 -0.7308 -0.2573 -0.4777
 6445TIP3   OH240893   4.798   0.272   0.146  0.1140 -0.2445 -0.3588
 6445TIP3    H140894   4.743   0.204   0.186 -1.3651 -0.4471 -2.5541
 6445TIP3    H240895   4.774   0.352   0.192 -0.9341 -0.6046 -0.2329
 6446TIP3   OH240896   5.942   6.464   3.122  0.1040  0.1286 -0.1513
 6446TIP3    H140897   5.910   6.423   3.042 -2.3500 -0.6971  1.1456
 6446TIP3    H240898   5.875   6.528   3.145  1.1595  0.9261  0.8119
 6447TIP3   OH240899   3.211   3.463   1.861  0.0609  0.7229  0.7213
 6447TIP3    H140900   3.248   3.535   1.811  0.0274  0.4514  0.3042
 6447TIP3    H240901   3.147   3.504   1.919 -0.6613  0.9105 -0.1930
 6448TIP3   OH240902   0.313   2.167   1.895  0.5300 -0.5544 -0.0915
 6448TIP3    H140903   0.227   2.199   1.924  0.7591 -1.4907  1.8118
 6448TIP3    H240904   0.374   2.233   1.925  0.4558  0.4828 -2.1022
 6449TIP3   OH240905   6.200   4.028   1.823  0.0595 -0.0231 -0.1962
 6449TIP3    H140906   6.182   4.062   1.911  0.0744  0.6024 -0.4289
 6449TIP3    H240907   6.238   3.942   1.838  1.6334  0.7403  0.4935
 6450TIP3   OH240908   2.080   2.286   7.696 -0.0624  0.5279  0.6123
 6450TIP3    H140909   2.011   2.246   7.749 -0.5722  0.4012 -0.1152
 6450TIP3    H240910   2.078   2.379   7.719 -2.8560  1.2179 -1.8039
 6451TIP3   OH240911   4.300   3.839   2.124  0.0954 -0.0487 -0.1214
 6451TIP3    H140912   4.299   3.753   2.166  0.1350  0.8659  1.8461
 6451TIP3    H240913   4.380   3.838   2.071  1.9106 -0.1142  2.4521
 6452TIP3   OH240914   0.179   2.984   2.878 -0.4092  0.1248  0.2065
 6452TIP3    H140915   0.169   2.966   2.972 -2.3825 -0.0615  0.0046
 6452TIP3    H240916   0.171   2.898   2.837 -0.4741  0.3254 -0.1969
 6453TIP3   OH240917   5.524   4.217   0.863 -0.1892  0.1035  0.0134
 6453TIP3    H140918   5.525   4.265   0.946  0.2973  0.4007 -0.1587
 6453TIP3    H240919   5.569   4.275   0.801  2.4467 -1.4741  0.2970
 6454TIP3   OH240920   3.417   4.834   8.073 -0.3861  0.0669 -0.0748
 6454TIP3    H140921   3.372   4.840   7.989  0.5495  1.8087 -0.5037
 6454TIP3    H240922   3.377   4.901   8.127  1.5574  1.6577 -0.4641
 6455TIP3   OH240923   2.448   4.181   0.428  0.1532 -0.1401 -0.4178
 6455TIP3    H140924   2.493   4.102   0.458 -0.4193 -0.4790 -0.4434
 6455TIP3    H240925   2.469   4.187   0.335 -0.9859 -1.0792 -0.7541
 6456TIP3   OH240926   6.370   3.543   7.523  0.2806 -0.1259 -0.4399
 6456TIP3    H140927   6.396   3.610   7.460  0.3937  0.2172 -0.0325
 6456TIP3    H240928   6.285   3.573   7.556  1.3431  1.0403  1.4246
 6457TIP3   OH240929   5.277   0.766   0.989 -0.8292 -0.5854  0.7048
 6457TIP3    H140930   5.260   0.857   0.964 -2.3850 -1.4931 -1.9119
 6457TIP3    H240931   5.197   0.739   1.035 -1.1251 -1.1206 -0.1063
 6458TIP3   OH240932   0.320   0.173   8.403 -0.3845  0.1501 -0.3569
 6458TIP3    H140933   0.228   0.195   8.414  0.1743  3.4747 -1.3708
 6458TIP3    H240934   0.356   0.174   8.491 -1.1987 -0.8265  0.0090
 6459TIP3   OH240935   1.728   3.578   0.898 -0.2521  0.4656 -0.3325
 6459TIP3    H140936   1.818   3.561   0.869  0.5771  1.8097  1.2493
 6459TIP3    H240937   1.707   3.502   0.953  0.6323  0.9594  0.7394
 6460TIP3   OH240938   3.836   3.363   2.277 -0.0222 -0.2716 -0.1328
 6460TIP3    H140939   3.821   3.425   2.349 -2.4898 -0.5775 -0.2876
 6460TIP3    H240940   3.931   3.348   2.278  0.4679  2.3511  0.8267
 6461TIP3   OH240941   2.356   0.292   0.217 -0.4479 -0.4676 -0.1085
 6461TIP3    H140942   2.342   0.365   0.158  0.2053 -0.1881  0.0694
 6461TIP3    H240943   2.348   0.330   0.305 -0.9100 -0.7762 -0.0121
 6462TIP3   OH240944   3.424   0.608   2.122 -0.3090  0.0789  0.3758
 6462TIP3    H140945   3.498   0.621   2.181  1.0914 -0.8039 -1.1043
 6462TIP3    H240946   3.390   0.522   2.145  0.5224 -0.4626 -0.3637
 6463TIP3   OH240947   1.327   5.592   8.619  0.4730 -0.3424  0.0216
 6463TIP3    H140948   1.348   5.616   8.709 -1.4354  1.5692  0.0531
 6463TIP3    H240949   1.357   5.667   8.566 -1.0903 -0.0611 -0.5229
 6464TIP3   OH240950   5.393   4.961   0.514  0.2390  0.7739  0.0918
 6464TIP3    H140951   5.471   4.925   0.555  0.4217  0.5529 -0.4452
 6464TIP3    H240952   5.359   4.890   0.460  0.2495  1.1919 -0.4826
 6465TIP3   OH240953   4.223   4.758   8.746  0.0198 -0.5026  0.2578
 6465TIP3    H140954   4.215   4.779   8.839 -0.0198 -0.1884  0.1832
 6465TIP3    H240955   4.312   4.785   8.722 -0.6293  1.2581 -0.2644
 6466TIP3   OH240956   3.324   6.698   0.979  0.0430 -0.0657  0.4342
 6466TIP3    H140957   3.417   6.682   0.963  0.0871  0.0463  0.5703
 6466TIP3    H240958   3.324   6.768   1.045 -0.1384  0.7905 -0.4420
 6467TIP3   OH240959   4.257   2.604   1.987  0.5812 -0.2785  0.0475
 6467TIP3    H140960   4.280   2.686   1.944 -0.0178 -0.5111 -0.7353
 6467TIP3    H240961   4.167   2.616   2.017  1.1881  0.1134  1.8367
 6468TIP3   OH240962   1.590   1.344   8.530 -0.4960  0.1128  0.0312
 6468TIP3    H140963   1.534   1.329   8.454  0.7817  2.5152 -1.4891
 6468TIP3    H240964   1.678   1.349   8.494  0.0600  2.1433  1.5148
 6469TIP3   OH240965   5.076   6.182   0.990  0.0503 -0.2906 -0.2072
 6469TIP3    H140966   4.982   6.166   0.985 -0.4533  2.1262  0.2484
 6469TIP3    H240967   5.116   6.096   0.976 -2.1643 -1.1419 -1.9009
 6470TIP3   OH240968   6.058   4.037   8.328  0.0239  0.2637  0.4696
 6470TIP3    H140969   6.075   4.036   8.422  0.8494  1.5087  0.3676
 6470TIP3    H240970   5.974   4.081   8.319 -0.7328 -1.0872  0.6801
 6471TIP3   OH240971   2.427   5.460   0.704  0.2269 -0.9184  0.4756
 6471TIP3    H140972   2.520   5.438   0.712  0.5029 -0.3535 -0.9348
 6471TIP3    H240973   2.400   5.419   0.622 -1.4481 -3.1787  2.0234
 6472TIP3   OH240974   2.316   6.806   0.972  0.2867  0.5912  0.2226
 6472TIP3    H140975   2.226   6.831   0.993  0.2399 -0.4187  1.3304
 6472TIP3    H240976   2.347   6.875   0.913 -2.7156 -1.3164 -4.1092
 6473TIP3   OH240977   3.747   3.417   7.133  0.1593  0.4199 -0.4782
 6473TIP3    H140978   3.808   3.353   7.170  0.6941  0.1916 -1.7103
 6473TIP3    H240979   3.717   3.377   7.052 -1.0288  0.8869 -0.2836
 6474TIP3   OH240980   6.127   0.633   8.185 -0.0854 -0.2470 -0.0134
 6474TIP3    H140981   6.077   0.601   8.110 -0.3731  1.2538 -0.5062
 6474TIP3    H240982   6.060   0.661   8.248  0.0572  1.8888 -0.7266
 6475TIP3   OH240983   6.803   4.951   2.831  1.1157 -0.2669  0.2587
 6475TIP3    H140984   6.847   4.877   2.872 -0.1231 -2.5653 -2.2567
 6475TIP3    H240985   6.711   4.926   2.829  0.2887  2.3443  1.1856
 6476TIP3   OH240986   3.032   6.371   0.192 -1.1242 -0.4517  0.0888
 6476TIP3    H140987   3.005   6.357   0.282 -1.2902  1.1962  0.3237
 6476TIP3    H240988   3.127   6.385   0.197 -1.0432 -0.9393 -0.0672
 6477TIP3   OH240989   0.589   3.498   2.095 -0.2576 -0.2427 -0.8258
 6477TIP3    H140990   0.636   3.574   2.059 -1.0072  0.5490 -0.2053
 6477TIP3    H240991   0.529   3.472   2.026  0.0795 -0.3429 -1.0837
 6478TIP3   OH240992   0.192   4.701   7.672 -0.4433  0.2686  0.3659
 6478TIP3    H140993   0.215   4.633   7.609 -0.7221  0.1036  0.4393
 6478TIP3    H240994   0.214   4.783   7.629  0.6416  0.1058  0.5761
 6479TIP3   OH240995   1.703   5.959   2.130  0.3120 -0.4936  0.5236
 6479TIP3    H140996   1.635   5.990   2.071 -1.1296 -0.2933  2.1993
 6479TIP3    H240997   1.698   5.864   2.125 -0.8401 -0.5067  1.3708
 6480TIP3   OH240998   3.477   1.069   8.534  0.3645 -0.6262 -0.9884
 6480TIP3    H140999   3.530   0.998   8.570 -1.8369 -1.0654  1.7446
 6480TIP3    H241000   3.389   1.051   8.566  0.1316  5.0789  3.0156
 6481TIP3   OH241001   2.944   4.324   7.811 -0.1706 -0.1184  0.2316
 6481TIP3    H141002   3.039   4.325   7.824  0.1346 -3.3642 -0.8366
 6481TIP3    H241003   2.933   4.303   7.718 -1.9753  0.5186  0.2665
 6482TIP3   OH241004   0.494   1.731   2.116  0.6956  0.3620  1.2440
 6482TIP3    H141005   0.561   1.714   2.050 -0.5497  2.0157 -0.5583
 6482TIP3    H241006   0.471   1.823   2.103 -1.9733 -0.1708  1.7522
 6483TIP3   OH241007   5.832   3.744   1.971  0.1722 -0.1230  0.4323
 6483TIP3    H141008   5.817   3.834   2.001 -4.4767  0.9509 -3.7627
 6483TIP3    H241009   5.752   3.698   1.994  1.2320 -2.3798 -0.1661
 6484TIP3   OH241010   2.427   2.158   1.472  0.0411  0.2644  0.1942
 6484TIP3    H141011   2.460   2.108   1.547  0.6528  2.7559  1.7092
 6484TIP3    H241012   2.332   2.152   1.480  0.1031 -0.4281  0.4962
 6485TIP3   OH241013   3.649   3.618   6.904  0.2888  0.0428  0.0889
 6485TIP3    H141014   3.664   3.527   6.928 -1.3612 -0.2451  0.1157
 6485TIP3    H241015   3.732   3.646   6.864  0.8087 -1.4663  0.0524
 6486TIP3   OH241016   2.370   5.156   0.274  0.2139 -0.4199  0.1199
 6486TIP3    H141017   2.361   5.124   0.184  1.0016  1.8989 -0.8902
 6486TIP3    H241018   2.281   5.181   0.300  0.4661  3.3673 -1.9646
 6487TIP3   OH241019   0.445   5.549   2.485  0.9811 -0.3260 -0.0089
 6487TIP3    H141020   0.449   5.505   2.570 -0.8367  0.0981  0.3395
 6487TIP3    H241021   0.418   5.480   2.423 -2.5164  0.2487  0.6435
 6488TIP3   OH241022   3.423   3.449   8.704 -0.2062 -0.5072  0.0047
 6488TIP3    H141023   3.405   3.466   8.796  0.7345 -0.1116  0.1336
 6488TIP3    H241024   3.390   3.360   8.688  0.6158 -1.0245  1.0274
 6489TIP3   OH241025   3.425   4.478   2.603  0.5501 -0.2965  0.2184
 6489TIP3    H141026   3.383   4.521   2.677  0.2526  1.8251 -1.1091
 6489TIP3    H241027   3.473   4.548   2.559  1.6980 -1.7480 -0.9385
 6490TIP3   OH241028   2.689   5.349   8.540 -0.3284 -0.3387  0.8671
 6490TIP3    H141029   2.747   5.337   8.465  1.2555 -1.1916  2.1654
 6490TIP3    H241030   2.720   5.429   8.582  0.0537 -0.8900  1.6653
 6491TIP3   OH241031   5.736   3.391   8.751 -0.0289 -0.0524 -0.0145
 6491TIP3    H141032   5.730   3.427   8.840 -0.5063 -1.3574  0.5040
 6491TIP3    H241033   5.749   3.297   8.764 -1.4180 -0.4680 -1.3230
 6492TIP3   OH241034   6.572   0.071   1.802 -0.0969  0.7669  0.2266
 6492TIP3    H141035   6.620  -0.002   1.762 -0.5434 -1.1633  2.9501
 6492TIP3    H241036   6.499   0.087   1.742 -0.1213 -1.2092 -0.3405
 6493TIP3   OH241037   2.412   3.532   0.459  0.0242  0.0150  0.4207
 6493TIP3    H141038   2.336   3.478   0.483 -1.4546  1.6798 -0.2775
 6493TIP3    H241039   2.415   3.528   0.364 -1.2490  2.5132  0.1995
 6494TIP3   OH241040   2.009   3.785   1.428  0.0402 -0.2351 -0.0836
 6494TIP3    H141041   2.078   3.847   1.449 -0.7975  0.6780  0.0642
 6494TIP3    H241042   2.017   3.769   1.334 -0.2258  0.7432 -0.2899
 6495TIP3   OH241043   4.104   5.871   7.719 -0.2429 -0.0860  0.5081
 6495TIP3    H141044   4.114   5.938   7.652  1.6231 -1.0777 -0.2736
 6495TIP3    H241045   4.009   5.865   7.733 -0.5141  1.8198 -0.2634
 6496TIP3   OH241046   5.506   2.090   1.521 -0.0728 -0.2010  0.8943
 6496TIP3    H141047   5.465   2.174   1.499  0.7282  0.0431  0.2680
 6496TIP3    H241048   5.448   2.025   1.482  0.3781  0.1596 -0.4409
 6497TIP3   OH241049   5.199   1.082   1.646 -0.0277  0.5913  0.5579
 6497TIP3    H141050   5.272   1.102   1.705  1.0234 -0.0454 -0.4850
 6497TIP3    H241051   5.152   1.012   1.691 -1.0089  2.1116  2.0217
 6498TIP3   OH241052   2.895   2.322   7.550 -0.0268  0.1963  0.0158
 6498TIP3    H141053   2.880   2.405   7.505  0.7090  0.6381  0.5513
 6498TIP3    H241054   2.908   2.347   7.642  0.7952 -0.4386  0.0858
 6499TIP3   OH241055   5.428   5.383   1.202  0.3496 -0.3210  0.1111
 6499TIP3    H141056   5.333   5.373   1.205  0.5094 -1.8123  2.3110
 6499TIP3    H241057   5.447   5.405   1.110 -2.0946  0.1740 -0.3466
 6500TIP3   OH241058   0.870   4.913   2.151 -0.2264  0.2031 -0.1651
 6500TIP3    H141059   0.809   4.848   2.185  0.3573 -0.3381 -0.1315
 6500TIP3    H241060   0.821   4.959   2.083 -0.4179 -0.7825 -0.7169
 6501TIP3   OH241061   5.394   2.716   1.087 -0.4180  0.2509 -0.4676
 6501TIP3    H141062   5.463   2.682   1.144  1.1005  3.7538  0.0333
 6501TIP3    H241063   5.314   2.709   1.138  0.0183 -1.2716  0.0580
 6502TIP3   OH241064   6.194   0.975   2.617  0.1741 -0.6567  0.5366
 6502TIP3    H141065   6.202   0.991   2.711 -1.1436  1.2488  0.3721
 6502TIP3    H241066   6.111   1.015   2.593  1.2296  0.3339 -1.7108
 6503TIP3   OH241067   1.840   0.675   1.173  0.3385  0.0211 -0.4255
 6503TIP3    H141068   1.825   0.585   1.146 -0.2687  0.3387 -1.1903
 6503TIP3    H241069   1.933   0.678   1.197  0.1279 -1.0412  0.6100
 6504TIP3   OH241070   1.169   4.609   2.358  0.3104 -0.2029  0.5553
 6504TIP3    H141071   1.152   4.689   2.308  0.8932 -0.4166 -0.0024
 6504TIP3    H241072   1.142   4.538   2.300  0.8787 -0.4467  0.5782
 6505TIP3   OH241073   5.942   1.882   7.814  0.2608  0.0961 -0.7058
 6505TIP3    H141074   5.911   1.800   7.851 -0.1027 -0.0234 -1.2595
 6505TIP3    H241075   6.026   1.861   7.775  0.5365  0.1702 -0.1650
 6506TIP3   OH241076   3.234   6.185   1.960 -0.4312  0.3010  0.4229
 6506TIP3    H141077   3.227   6.178   1.865  0.3334 -1.0187  0.4430
 6506TIP3    H241078   3.303   6.250   1.973  0.0810 -0.1567  0.0541
 6507TIP3   OH241079   4.998   2.501   1.719  0.2744  0.0791  0.3239
 6507TIP3    H141080   4.948   2.481   1.799  1.8196  1.1368  1.6260
 6507TIP3    H241081   5.061   2.429   1.712 -0.2270 -0.3073 -0.2836
 6508TIP3   OH241082   3.552   3.406   2.610  0.0972  0.2814  0.1728
 6508TIP3    H141083   3.515   3.346   2.546 -1.7583  0.6773  0.8041
 6508TIP3    H241084   3.621   3.453   2.562 -0.8173  0.1363 -1.3596
 6509TIP3   OH241085   4.567   0.019   8.740  0.0968  0.4354 -0.1631
 6509TIP3    H141086   4.519   0.006   8.823  1.5933  0.3323  0.7175
 6509TIP3    H241087   4.538  -0.054   8.685  0.0319 -0.2374  0.7295
 6510TIP3   OH241088   4.218   1.529   8.231  0.6198 -0.0223  0.4783
 6510TIP3    H141089   4.272   1.605   8.255 -0.9288  1.4976 -0.6219
 6510TIP3    H241090   4.142   1.567   8.187 -0.3134 -2.2300  0.0815
 6511TIP3   OH241091   0.095   6.814   7.431  0.0264 -0.0076  0.1994
 6511TIP3    H141092   0.119   6.905   7.413 -0.5553 -0.0961 -1.1405
 6511TIP3    H241093   0.014   6.820   7.482  0.7996  0.2284  1.4351
 6512TIP3   OH241094   4.800   0.139   8.546 -0.0921 -0.1714  0.4684
 6512TIP3    H141095   4.824   0.228   8.572 -1.5365 -0.2190  2.1561
 6512TIP3    H241096   4.716   0.148   8.501 -1.7416 -0.8493  3.1589
 6513TIP3   OH241097   6.122   1.773   2.391 -0.2629  0.1399  0.5887
 6513TIP3    H141098   6.105   1.777   2.484 -0.9722 -0.6831  0.5039
 6513TIP3    H241099   6.217   1.787   2.383 -0.4310  1.9181  1.2762
 6514TIP3   OH241100   6.429   5.512   8.615  0.3260 -0.0268 -0.1287
 6514TIP3    H141101   6.449   5.434   8.667 -0.9660 -0.3955 -0.1491
 6514TIP3    H241102   6.465   5.585   8.665  2.4300 -0.6794 -0.5697
 6515TIP3   OH241103   2.483   3.859   7.193 -0.4424 -0.0473 -0.2225
 6515TIP3    H141104   2.547   3.929   7.184 -0.7247  0.2480  0.0543
 6515TIP3    H241105   2.439   3.855   7.108 -3.1378  2.7560  0.8514
 6516TIP3   OH241106   0.629   4.288   2.542  0.6790 -0.1398  0.4760
 6516TIP3    H141107   0.569   4.321   2.609 -0.4345 -2.4786  0.7066
 6516TIP3    H241108   0.650   4.200   2.571  3.1544  0.1098 -0.3635
 6517TIP3   OH241109   5.724   5.698   2.300  0.3618  0.2996 -0.8076
 6517TIP3    H141110   5.630   5.690   2.316  0.2393  1.3948 -0.9312
 6517TIP3    H241111   5.736   5.672   2.209  0.4449 -1.5560 -0.3177
 6518TIP3   OH241112   1.660   6.498   8.023  0.0775 -0.4092 -0.2692
 6518TIP3    H141113   1.697   6.498   8.112  0.0256  1.6818 -0.1958
 6518TIP3    H241114   1.587   6.559   8.028 -1.0728 -1.6524 -1.3364
 6519TIP3   OH241115   3.549   0.071   8.068 -0.3761  0.5373 -0.2596
 6519TIP3    H141116   3.457   0.051   8.088 -0.4384  1.7255  0.7859
 6519TIP3    H241117   3.590   0.083   8.154  0.8519 -0.2846 -0.6971
 6520TIP3   OH241118   5.584   4.009   1.806  0.2072  0.5736  0.4110
 6520TIP3    H141119   5.598   4.090   1.757 -1.4045 -0.5016 -2.0288
 6520TIP3    H241120   5.654   3.950   1.777  0.7344  0.7148  1.3544
 6521TIP3   OH241121   4.753   6.012   0.065 -0.3091 -0.2917 -0.0748
 6521TIP3    H141122   4.840   6.052   0.055 -0.1629 -0.7329 -0.6051
 6521TIP3    H241123   4.693   6.075   0.024 -0.2817  0.1466  0.5411
 6522TIP3   OH241124   5.499   0.586   2.433 -0.5056  0.0481  0.0265
 6522TIP3    H141125   5.575   0.563   2.380 -0.3636 -0.1467  0.3132
 6522TIP3    H241126   5.536   0.628   2.511 -0.7429  1.0273 -0.3648
 6523TIP3   OH241127   4.159   3.034   0.631  0.0838 -0.1217  0.9714
 6523TIP3    H141128   4.168   3.092   0.556  0.6614 -0.3728  0.8475
 6523TIP3    H241129   4.148   2.947   0.593  0.8757 -0.3155  1.1869
 6524TIP3   OH241130   5.162   1.537   0.061 -0.0721  0.1231  0.1826
 6524TIP3    H141131   5.133   1.622   0.027 -1.3101 -0.2888  0.1590
 6524TIP3    H241132   5.086   1.480   0.050  0.2529 -0.6105  1.5752
 6525TIP3   OH241133   0.064   1.679   8.207 -0.0275 -0.1910 -0.4184
 6525TIP3    H141134   0.084   1.712   8.119  1.4492  0.1943  0.0349
 6525TIP3    H241135   0.019   1.596   8.191 -3.0339  1.4791 -1.5662
 6526TIP3   OH241136   4.084   2.377   2.836  0.6205 -0.0951  0.2785
 6526TIP3    H141137   4.008   2.424   2.803 -0.2469 -0.2102  1.9984
 6526TIP3    H241138   4.131   2.440   2.890  0.4054 -0.6939  1.1866
 6527TIP3   OH241139   0.493   0.223   8.595  0.3636  0.4917  0.2168
 6527TIP3    H141140   0.525   0.174   8.671 -0.4823  1.3949  1.2093
 6527TIP3    H241141   0.561   0.213   8.529  1.2467 -0.1239  1.1816
 6528TIP3   OH241142   5.273   2.802   1.305 -0.0085  0.3410  0.5814
 6528TIP3    H141143   5.236   2.882   1.343 -1.0105  0.0964  0.1662
 6528TIP3    H241144   5.344   2.778   1.364  0.7063  1.8697  0.3737
 6529TIP3   OH241145   2.090   4.863   2.346 -0.1525 -0.2066 -0.4980
 6529TIP3    H141146   2.038   4.890   2.270  2.3810  2.7454 -1.3525
 6529TIP3    H241147   2.060   4.920   2.417  0.4677  0.0836 -0.4620
 6530TIP3   OH241148   2.365   3.722   7.729  0.1141  0.3713  0.5782
 6530TIP3    H141149   2.291   3.662   7.740 -0.2102  0.1138 -2.3552
 6530TIP3    H241150   2.442   3.669   7.749 -0.2331 -0.7978 -0.9920
 6531TIP3   OH241151   6.120   1.775   0.187  0.2380 -0.4162 -0.3840
 6531TIP3    H141152   6.028   1.749   0.186  0.1397 -0.7876  3.1149
 6531TIP3    H241153   6.142   1.790   0.095 -3.2147 -0.5183 -1.3899
 6532TIP3   OH241154   4.710   4.735   0.105  0.4580 -0.2796 -0.0487
 6532TIP3    H141155   4.663   4.703   0.182 -0.0284  1.8233  0.5925
 6532TIP3    H241156   4.648   4.795   0.062  1.8641  1.1001 -0.2436
 6533TIP3   OH241157   2.119   2.363   2.103 -0.6216  0.2260 -0.2269
 6533TIP3    H141158   2.115   2.447   2.148 -0.7307 -0.4256  1.0326
 6533TIP3    H241159   2.121   2.298   2.174  2.6277 -0.7445 -1.0347
 6534TIP3   OH241160   0.575   2.318   1.046 -0.3009 -0.4837  0.0726
 6534TIP3    H141161   0.480   2.312   1.058 -0.2064 -0.4403  0.9165
 6534TIP3    H241162   0.611   2.300   1.133  0.4025  1.2123  0.1737
 6535TIP3   OH241163   5.761   3.546   0.260 -0.2956  0.4662 -0.1404
 6535TIP3    H141164   5.723   3.613   0.203 -1.8013  0.0062  0.2758
 6535TIP3    H241165   5.839   3.587   0.298 -0.5126  1.5407 -0.8292
 6536TIP3   OH241166   3.765   5.232   1.539  0.0428 -0.2282 -0.2702
 6536TIP3    H141167   3.838   5.251   1.597  1.2653 -0.0411 -1.8124
 6536TIP3    H241168   3.725   5.153   1.576  0.4119  0.2136  1.1274
 6537TIP3   OH241169   0.062   2.863   0.806 -0.1083  0.1364  0.3354
 6537TIP3    H141170   0.070   2.778   0.762  2.1842  0.5160 -0.0712
 6537TIP3    H241171   0.032   2.923   0.738 -0.9744 -0.1512  0.4410
 6538TIP3   OH241172   3.331   2.869   2.829  0.0452  0.5643 -0.4421
 6538TIP3    H141173   3.257   2.923   2.802 -0.4382  0.2009  0.1337
 6538TIP3    H241174   3.292   2.796   2.876  0.7753  0.4270 -0.0294
 6539TIP3   OH241175   3.149   3.615   8.593 -0.1084 -0.2709 -0.6361
 6539TIP3    H141176   3.207   3.616   8.669 -1.6699  1.6964  0.6543
 6539TIP3    H241177   3.205   3.638   8.519  0.5649  3.5051  0.8371
 6540TIP3   OH241178   0.083   1.451   1.313  0.1744 -0.5599 -0.7131
 6540TIP3    H141179   0.122   1.526   1.357 -0.1759 -1.8470  1.9553
 6540TIP3    H241180   0.158   1.401   1.280  0.5727 -0.5944  0.2168
 6541TIP3   OH241181   3.081   4.361   0.663  0.3411 -0.3027  0.1917
 6541TIP3    H141182   3.008   4.299   0.660 -0.6743  0.8704 -0.5734
 6541TIP3    H241183   3.041   4.443   0.695  0.6381  1.1781 -2.8603
 6542TIP3   OH241184   3.891   0.771   1.043  0.2286  0.3138  0.7170
 6542TIP3    H141185   3.828   0.711   1.081  0.6041 -0.7773 -0.3223
 6542TIP3    H241186   3.838   0.831   0.990 -0.0329  0.1177  0.7555
 6543TIP3   OH241187   4.086   4.041   0.933 -0.5704 -0.1017 -0.0070
 6543TIP3    H141188   4.012   3.980   0.922 -1.3337  0.7268  0.4076
 6543TIP3    H241189   4.122   4.052   0.845 -0.6196 -0.8945 -0.1390
 6544TIP3   OH241190   4.009   4.649   2.254  1.1953  0.5636 -0.1240
 6544TIP3    H141191   4.024   4.693   2.338  0.6061  0.9913 -0.2392
 6544TIP3    H241192   3.917   4.622   2.257  1.4007 -0.1905 -0.2814
 6545TIP3   OH241193   1.971   5.767   7.981 -1.0588  0.1856 -0.0713
 6545TIP3    H141194   1.987   5.678   7.950 -0.9931  0.4443 -0.8124
 6545TIP3    H241195   1.987   5.822   7.904  1.9084  1.1363  1.0926
 6546TIP3   OH241196   3.983   1.494   7.281  0.0006 -0.3959 -0.1715
 6546TIP3    H141197   3.910   1.501   7.220 -2.2328 -1.3290  2.2331
 6546TIP3    H241198   4.006   1.401   7.281  0.2526 -0.3372  0.1197
 6547TIP3   OH241199   6.767   4.975   1.008  0.2254 -0.5417  0.1250
 6547TIP3    H141200   6.678   4.990   0.976  0.3361  0.0668  0.0851
 6547TIP3    H241201   6.765   5.005   1.099  0.3016 -0.8551  0.2326
 6548TIP3   OH241202   1.018   2.075   7.536 -0.1759 -0.0153 -0.4059
 6548TIP3    H141203   1.093   2.039   7.490 -1.3888 -0.8663 -1.8172
 6548TIP3    H241204   0.942   2.045   7.486 -1.6489 -1.5140  2.4888
 6549TIP3   OH241205   1.402   4.308   2.902 -0.0607 -0.5748 -0.2571
 6549TIP3    H141206   1.487   4.351   2.916 -0.0358 -1.1415  1.7416
 6549TIP3    H241207   1.422   4.231   2.850  0.5919 -0.4581 -0.1911
 6550TIP3   OH241208   3.304   3.713   6.513  0.0130  0.1671  0.0436
 6550TIP3    H141209   3.274   3.801   6.490  2.9307  0.8363 -1.5377
 6550TIP3    H241210   3.349   3.725   6.597 -0.9109 -0.1668  0.6078
 6551TIP3   OH241211   5.106   1.736   0.323 -0.4899  0.4665  0.1584
 6551TIP3    H141212   5.179   1.679   0.298 -0.3841  0.9550 -0.6975
 6551TIP3    H241213   5.029   1.697   0.281 -0.9455 -0.6715  1.9579
 6552TIP3   OH241214   1.067   2.083   8.653 -0.2330  0.1995 -0.1384
 6552TIP3    H141215   1.013   2.004   8.644  1.0493 -0.5971 -1.2231
 6552TIP3    H241216   1.128   2.062   8.724 -1.0223  0.9249  0.7794
 6553TIP3   OH241217   6.364   5.552   6.922 -0.0273  0.0453 -0.1511
 6553TIP3    H141218   6.288   5.508   6.959  0.0347 -0.3522 -0.4900
 6553TIP3    H241219   6.394   5.493   6.853  0.4398  0.3189 -0.1814
 6554TIP3   OH241220   1.533   2.000   0.828  0.5797 -0.2181  0.0145
 6554TIP3    H141221   1.614   1.961   0.796  0.0089 -1.1291 -0.3654
 6554TIP3    H241222   1.527   1.971   0.919  1.4056  1.0720  0.5103
 6555TIP3   OH241223   1.777   3.172   8.395  0.9443  0.0456  0.5433
 6555TIP3    H141224   1.810   3.087   8.421  0.9787 -0.2353 -0.3691
 6555TIP3    H241225   1.692   3.180   8.439  2.1462  0.7776  2.9061
 6556TIP3   OH241226   5.801   5.558   1.264 -0.2746 -0.0275  0.0829
 6556TIP3    H141227   5.816   5.563   1.170  0.2225  1.4270  0.2175
 6556TIP3    H241228   5.828   5.470   1.289 -2.3560 -1.1886 -1.4492
 6557TIP3   OH241229   2.292   5.161   2.550  0.2176  0.0133  0.7017
 6557TIP3    H141230   2.351   5.196   2.617  2.1863 -0.7401 -0.5533
 6557TIP3    H241231   2.245   5.091   2.594  0.3997  0.4931  1.6899
 6558TIP3   OH241232   1.456   6.190   0.944 -0.2323  0.4542 -0.0424
 6558TIP3    H141233   1.552   6.192   0.947 -0.1531 -0.9915 -1.0330
 6558TIP3    H241234   1.435   6.166   0.854 -1.5418  0.9353  0.1165
 6559TIP3   OH241235   4.959   2.535   0.372  0.1078  0.2221 -0.4049
 6559TIP3    H141236   4.956   2.516   0.466 -0.9529 -1.2407 -0.6810
 6559TIP3    H241237   5.041   2.582   0.359  0.1991  0.5875  1.2754
 6560TIP3   OH241238   1.960   3.652   0.518 -0.0597 -0.0123  0.8562
 6560TIP3    H141239   1.931   3.573   0.473  2.2363 -0.5592  0.2116
 6560TIP3    H241240   2.017   3.620   0.588  0.1047  1.0268  1.2150
 6561TIP3   OH241241   1.938   4.182   8.559 -0.1413  0.1377 -0.2642
 6561TIP3    H141242   1.997   4.107   8.555  0.5413  0.6922 -0.9531
 6561TIP3    H241243   1.992   4.254   8.592 -0.6028  0.4856 -0.2534
 6562TIP3   OH241244   1.057   5.070   0.049 -0.2258 -0.1892  0.7449
 6562TIP3    H141245   1.137   5.068   0.101  0.5154 -2.8320 -0.3461
 6562TIP3    H241246   0.997   5.012   0.095 -0.7903  0.1758  0.4726
 6563TIP3   OH241247   0.208   1.014   1.454 -0.1900 -0.3663 -0.5059
 6563TIP3    H141248   0.273   1.009   1.384 -1.1133 -1.5480 -1.3213
 6563TIP3    H241249   0.138   0.955   1.426 -1.0079 -0.1551  0.9834
 6564TIP3   OH241250   5.991   5.377   2.960 -0.0324  1.1637 -0.1039
 6564TIP3    H141251   5.911   5.325   2.963 -1.0866  2.8072  1.8341
 6564TIP3    H241252   5.975   5.442   2.891 -0.3457  1.4404  0.2273
 6565TIP3   OH241253   5.231   5.894   2.472  0.2422  0.5313  0.1120
 6565TIP3    H141254   5.317   5.936   2.474  0.0646  0.8824  0.5011
 6565TIP3    H241255   5.194   5.909   2.559  0.3490 -0.8166  0.4130
 6566TIP3   OH241256   0.784   1.627   0.526  0.0616  0.0224 -0.0584
 6566TIP3    H141257   0.818   1.709   0.491 -0.3482  1.0248  1.7485
 6566TIP3    H241258   0.778   1.569   0.450 -0.0484  1.7873 -1.4669
 6567TIP3   OH241259   4.361   5.164   1.815 -0.5528  0.1181  0.4758
 6567TIP3    H141260   4.386   5.218   1.741 -0.3750 -0.6241 -0.0069
 6567TIP3    H241261   4.398   5.210   1.891 -1.0275  1.0638  0.1579
 6568TIP3   OH241262   1.933   2.837   0.243  0.3986 -0.2944  0.1549
 6568TIP3    H141263   1.906   2.758   0.289 -0.9315  1.0463  1.7638
 6568TIP3    H241264   2.012   2.865   0.288  1.0568 -0.8271 -0.6210
 6569TIP3   OH241265   4.446   6.267   7.253 -0.5332 -0.0093  0.3197
 6569TIP3    H141266   4.420   6.333   7.317 -3.7215  0.0766 -0.8857
 6569TIP3    H241267   4.412   6.299   7.170  0.9779 -1.4935 -0.9433
 6570TIP3   OH241268   1.446   3.859   1.115  0.4623  0.8861  0.2379
 6570TIP3    H141269   1.471   3.930   1.057  0.6229 -0.8802 -1.9855
 6570TIP3    H241270   1.530   3.820   1.142  0.4525 -1.4486 -2.5939
 6571TIP3   OH241271   4.088   2.903   7.353 -0.2606  0.2929 -0.1226
 6571TIP3    H141272   4.040   2.925   7.273  1.0961 -1.0981 -1.3880
 6571TIP3    H241273   4.180   2.914   7.329  0.1443  1.0326  1.6471
 6572TIP3   OH241274   6.810   4.171   1.793 -0.1073 -0.0124 -0.2979
 6572TIP3    H141275   6.838   4.085   1.764  0.7712  0.2026 -0.1061
 6572TIP3    H241276   6.810   4.225   1.714  0.0261 -0.0093 -0.2949
 6573TIP3   OH241277   5.554   0.724   2.684 -0.3246 -0.2935  0.3357
 6573TIP3    H141278   5.537   0.631   2.699  2.0674 -1.1278 -1.6924
 6573TIP3    H241279   5.638   0.741   2.726 -1.4862  1.4674  2.1766
 6574TIP3   OH241280   4.708   4.463   0.788 -0.3707  0.2025  0.0666
 6574TIP3    H141281   4.635   4.519   0.812  0.5085  1.4708 -0.1453
 6574TIP3    H241282   4.667   4.382   0.757 -1.7031  1.1143 -0.6435
 6575TIP3   OH241283   4.287   6.206   7.758  0.1144 -0.1936 -0.2684
 6575TIP3    H141284   4.217   6.225   7.821  0.4340 -1.5382  0.5281
 6575TIP3    H241285   4.259   6.126   7.714  0.0692  0.5283 -1.6267
 6576TIP3   OH241286   3.931   4.329   1.678  0.6115  0.6566 -0.2777
 6576TIP3    H141287   3.931   4.344   1.584 -0.8906  1.2477 -0.2220
 6576TIP3    H241288   3.857   4.270   1.693  1.7665 -0.6842  0.3883
 6577TIP3   OH241289   2.753   5.799   0.997  0.5041  0.1747 -0.0118
 6577TIP3    H141290   2.721   5.713   1.024  0.9609 -0.3079 -0.9491
 6577TIP3    H241291   2.674   5.849   0.979  0.2422 -0.3110 -0.2297
 6578TIP3   OH241292   6.128   1.152   0.832 -0.0420 -0.2799 -0.0638
 6578TIP3    H141293   6.088   1.073   0.869  0.0050  0.5964  2.0389
 6578TIP3    H241294   6.060   1.190   0.776 -1.4916  0.1156  1.8468
 6579TIP3   OH241295   4.162   3.135   1.088 -0.3592 -0.3489 -0.5271
 6579TIP3    H141296   4.146   3.047   1.121 -0.9892  0.0243  0.2037
 6579TIP3    H241297   4.220   3.123   1.013 -1.9639 -1.5641 -1.6437
 6580TIP3   OH241298   3.332   4.692   0.819  0.6473 -0.3185  0.1521
 6580TIP3    H141299   3.268   4.760   0.840  1.7090  0.9553 -0.5658
 6580TIP3    H241300   3.299   4.614   0.861 -0.0297  0.9109  2.0141
 6581TIP3   OH241301   2.302   3.957   8.401  0.6288  0.4301  0.9112
 6581TIP3    H141302   2.331   3.869   8.378 -2.0378  0.1207 -2.1135
 6581TIP3    H241303   2.238   3.944   8.471  0.2193 -0.1025  0.4518
 6582TIP3   OH241304   0.431   3.242   1.476  0.3931 -0.3938  0.4317
 6582TIP3    H141305   0.340   3.238   1.508 -0.2097 -0.0435 -1.1408
 6582TIP3    H241306   0.422   3.260   1.382  2.0840 -1.0041  0.1251
 6583TIP3   OH241307   5.186   6.689   0.572  1.1461 -0.1276  0.2027
 6583TIP3    H141308   5.133   6.690   0.652  0.6246  0.4743 -0.1394
 6583TIP3    H241309   5.236   6.771   0.576  1.9795 -0.6346  0.4653
 6584TIP3   OH241310   3.902   5.443   7.041  0.4757 -0.8015  0.0754
 6584TIP3    H141311   3.964   5.474   6.975 -0.2743 -0.0096 -0.2731
 6584TIP3    H241312   3.840   5.388   6.992 -0.5507  0.4328 -0.0493
 6585TIP3   OH241313   2.925   3.136   0.860  0.2241  0.4750  0.0477
 6585TIP3    H141314   2.872   3.212   0.835  1.3468  0.8457 -1.3600
 6585TIP3    H241315   2.995   3.133   0.794  1.8516 -0.0999  1.7211
 6586TIP3   OH241316   4.792   2.559   2.338  0.3893  0.0077  0.4222
 6586TIP3    H141317   4.741   2.628   2.296 -0.4093 -0.4825  0.5761
 6586TIP3    H241318   4.881   2.595   2.342 -0.0912  1.2003  0.8875
 6587TIP3   OH241319   4.847   1.768   3.274 -0.4704 -0.1848 -0.2650
 6587TIP3    H141320   4.903   1.707   3.225  0.2579  0.1152  0.1785
 6587TIP3    H241321   4.909   1.823   3.323 -1.1737 -0.4624  0.9786
 6588TIP3   OH241322   4.669   2.118   0.489  0.3316  0.6132  0.4570
 6588TIP3    H141323   4.730   2.167   0.434  0.7222  1.2202  1.4099
 6588TIP3    H241324   4.609   2.076   0.427  1.0413  0.9039 -0.4436
 6589TIP3   OH241325   0.304   4.399   8.291 -0.4450  0.0400 -0.4916
 6589TIP3    H141326   0.215   4.373   8.314 -0.7624 -0.9948 -2.6814
 6589TIP3    H241327   0.354   4.317   8.293  0.1899  0.4202 -0.5031
 6590TIP3   OH241328   2.098   1.851   1.237  0.1538  0.3946 -0.6213
 6590TIP3    H141329   2.158   1.912   1.281  1.0704 -1.0370  0.2125
 6590TIP3    H241330   2.149   1.816   1.164 -0.0079 -0.1185 -0.4905
 6591TIP3   OH241331   4.950   3.049   1.209  0.3970  0.2367 -0.2222
 6591TIP3    H141332   4.941   3.006   1.123  0.1616 -1.1957  0.4875
 6591TIP3    H241333   4.870   3.025   1.256  1.3337 -0.4951  1.0261
 6592TIP3   OH241334   2.045   4.662   0.169 -0.1463  0.1638  0.6438
 6592TIP3    H141335   1.999   4.580   0.180 -0.5393  0.2800 -0.0857
 6592TIP3    H241336   2.060   4.694   0.258 -1.9658  0.3926  0.9006
 6593TIP3   OH241337   5.248   3.246   0.123 -0.6546  0.4890 -0.3934
 6593TIP3    H141338   5.279   3.336   0.131 -2.0285  0.8754  1.2560
 6593TIP3    H241339   5.306   3.195   0.179 -0.3058  0.4680 -0.7744
 6594TIP3   OH241340   6.572   6.334   8.247 -0.0491 -0.3385  0.3389
 6594TIP3    H141341   6.592   6.421   8.281  0.0219  0.3260 -1.2906
 6594TIP3    H241342   6.485   6.342   8.209  0.1161 -0.8542 -0.1772
 6595TIP3   OH241343   6.215   2.363   2.186 -0.7502 -0.1899  0.2162
 6595TIP3    H141344   6.170   2.424   2.244  3.7977  2.5893  1.3818
 6595TIP3    H241345   6.198   2.398   2.098 -1.2772  0.4548  0.5620
 6596TIP3   OH241346   3.339   1.453   1.676  0.1849  0.0862  0.3500
 6596TIP3    H141347   3.416   1.469   1.732  1.7963 -3.7217 -0.4631
 6596TIP3    H241348   3.266   1.445   1.737  0.6983  1.9541  1.2962
 6597TIP3   OH241349   3.423   3.955   8.371  0.2955 -0.4892  0.4446
 6597TIP3    H141350   3.409   4.039   8.414 -1.0617 -0.8171  0.7294
 6597TIP3    H241351   3.518   3.945   8.365  0.4671  1.0029  0.4958
 6598TIP3   OH241352   1.923   6.417   2.467  0.2045 -0.3495 -0.2962
 6598TIP3    H141353   1.845   6.461   2.501  0.9488  1.2475 -0.5612
 6598TIP3    H241354   1.891   6.332   2.437 -1.2103 -0.2014  0.6809
 6599TIP3   OH241355   1.319   5.812   1.765 -0.5145 -0.3182  0.5318
 6599TIP3    H141356   1.330   5.863   1.846  0.1360  0.6840 -0.1574
 6599TIP3    H241357   1.225   5.819   1.745 -1.0175 -2.0169  2.0867
 6600TIP3   OH241358   2.308   6.153   1.966  0.0395 -0.1349  0.1558
 6600TIP3    H141359   2.295   6.162   1.871 -2.0552  0.8940  0.4984
 6600TIP3    H241360   2.403   6.159   1.977  0.2503  0.9625 -1.7755
 6601TIP3   OH241361   2.272   1.477   0.923 -0.1608  0.0561  0.0210
 6601TIP3    H141362   2.353   1.526   0.938 -1.0776  1.6111  0.1567
 6601TIP3    H241363   2.284   1.395   0.971  1.2773  0.3047  0.1298
 6602TIP3   OH241364   6.210   4.386   2.341  0.2429  0.2956  0.2017
 6602TIP3    H141365   6.183   4.438   2.265 -2.5659 -0.0632  0.8627
 6602TIP3    H241366   6.261   4.314   2.304 -1.3476 -0.0691 -1.4268
 6603TIP3   OH241367   4.839   2.095   2.738  0.0700 -0.1106  0.7629
 6603TIP3    H141368   4.758   2.132   2.703  1.3288  2.1183 -0.0183
 6603TIP3    H241369   4.834   2.109   2.832 -0.3644  0.1808  0.6968
 6604TIP3   OH241370   0.415   0.869   1.030 -0.4516 -0.2031  0.0464
 6604TIP3    H141371   0.319   0.877   1.027 -0.3239  1.3537 -1.0443
 6604TIP3    H241372   0.444   0.893   0.942  1.0111  0.6284  0.7196
 6605TIP3   OH241373   2.960   6.060   0.450  0.0054  0.6469  0.1014
 6605TIP3    H141374   3.038   6.049   0.396 -1.2836 -2.5092 -1.3619
 6605TIP3    H241375   2.889   6.071   0.387 -1.0876  0.5663  1.2807
 6606TIP3   OH241376   1.892   5.039   2.324  0.2042 -0.0575  0.4867
 6606TIP3    H141377   1.801   5.031   2.353 -0.3366 -0.7607 -1.2579
 6606TIP3    H241378   1.902   5.132   2.304 -0.2078 -0.0142  0.4679
 6607TIP3   OH241379   4.705   1.531   0.402  0.1558 -0.0839 -0.1196
 6607TIP3    H141380   4.734   1.501   0.488  0.2409  0.1248 -0.0733
 6607TIP3    H241381   4.639   1.598   0.421 -0.1339 -0.3386 -0.2222
 6608TIP3   OH241382   4.099   2.463   6.496 -0.3759  0.0645  0.1558
 6608TIP3    H141383   4.098   2.367   6.489  0.1164  0.0682 -0.0015
 6608TIP3    H241384   4.171   2.482   6.557 -0.0643  0.3602 -0.2966
 6609TIP3   OH241385   0.646   0.100   2.938 -0.0404  0.1962  0.1041
 6609TIP3    H141386   0.664   0.181   2.987  0.4453  0.1421  0.0237
 6609TIP3    H241387   0.733   0.067   2.916 -0.1738 -1.1992  1.5108
 6610TIP3   OH241388   5.661   6.579   2.556 -0.1965  0.8209 -0.6220
 6610TIP3    H141389   5.595   6.542   2.497 -0.5809  0.4152  0.0395
 6610TIP3    H241390   5.612   6.595   2.638  0.5298  0.4767 -0.1099
 6611TIP3   OH241391   4.479   1.758   1.076 -0.5012 -0.7063 -0.2485
 6611TIP3    H141392   4.469   1.665   1.097 -0.6864 -1.0864 -1.8900
 6611TIP3    H241393   4.563   1.763   1.031 -0.0640  0.0945  0.6211
 6612TIP3   OH241394   4.759   1.731   8.529  0.1992 -0.0993  0.0465
 6612TIP3    H141395   4.736   1.802   8.469 -1.8711 -0.7155  0.0305
 6612TIP3    H241396   4.702   1.659   8.504  0.2149 -0.8186  1.8982
 6613TIP3   OH241397   3.882   5.530   7.906 -0.1804 -0.0922 -0.4544
 6613TIP3    H141398   3.850   5.620   7.899  0.7520  0.2517 -0.5110
 6613TIP3    H241399   3.854   5.488   7.825 -0.7188  0.1179 -0.3764
 6614TIP3   OH241400   2.677   5.598   2.599 -0.4151  0.7327  0.1188
 6614TIP3    H141401   2.708   5.570   2.685  1.4332  1.1301 -0.3707
 6614TIP3    H241402   2.752   5.643   2.560 -1.8271  2.2811 -0.9363
 6615TIP3   OH241403   2.995   0.182   1.007 -0.2482 -0.3346  0.8104
 6615TIP3    H141404   3.038   0.166   1.091 -0.7362 -1.7369  0.8233
 6615TIP3    H241405   2.995   0.277   0.998  0.7077 -0.2074  1.9227
 6616TIP3   OH241406   1.075   5.331   2.179 -0.1719  0.3788 -0.2591
 6616TIP3    H141407   0.995   5.313   2.228  0.7340 -0.9539  0.8268
 6616TIP3    H241408   1.088   5.425   2.188 -0.7638  0.3653  0.9219
 6617TIP3   OH241409   6.732   2.096   8.324 -0.2638  0.5485  0.2493
 6617TIP3    H141410   6.792   2.150   8.272 -0.0949  0.7210  0.6192
 6617TIP3    H241411   6.768   2.008   8.318  0.2990  0.7253  0.8492
 6618TIP3   OH241412   3.330   0.610   0.500 -0.0800 -0.2802  0.1259
 6618TIP3    H141413   3.294   0.591   0.413  2.0966  0.4102 -0.9839
 6618TIP3    H241414   3.311   0.532   0.551 -2.4499 -0.2567 -0.5661
 6619TIP3   OH241415   5.839   5.963   2.258 -0.4997  0.2411  0.3818
 6619TIP3    H141416   5.819   5.875   2.290 -1.8281  0.4216  0.1014
 6619TIP3    H241417   5.782   5.975   2.182 -0.2240  1.2884  0.3183
 6620TIP3   OH241418   2.884   1.790   6.861 -0.1033 -0.3422  0.3018
 6620TIP3    H141419   2.966   1.758   6.899  0.3259  0.6134  0.1952
 6620TIP3    H241420   2.908   1.819   6.773  0.0256  2.3482  1.1411
 6621TIP3   OH241421   6.670   2.619   8.193 -0.1151  0.6665  0.1934
 6621TIP3    H141422   6.664   2.524   8.183 -1.0366  0.8824 -1.9587
 6621TIP3    H241423   6.702   2.633   8.282  1.4157 -1.6725  0.0693
 6622TIP3   OH241424   4.861   5.252   2.058 -0.1220 -0.3326 -0.4014
 6622TIP3    H141425   4.829   5.308   2.128 -1.3440  0.2641 -1.4034
 6622TIP3    H241426   4.859   5.164   2.095 -1.6004 -0.1365  0.0486
 6623TIP3   OH241427   3.439   5.950   1.075  0.2917  0.3204 -0.4816
 6623TIP3    H141428   3.381   5.882   1.040  1.0536 -0.4332 -0.3078
 6623TIP3    H241429   3.437   5.935   1.170  0.9229  0.1723 -0.4934
 6624TIP3   OH241430   3.346   2.443   1.809  0.8693  0.1270 -0.1344
 6624TIP3    H141431   3.353   2.373   1.744 -2.4312  0.6301 -1.1853
 6624TIP3    H241432   3.407   2.511   1.778  0.3465 -0.1925 -1.9777
 6625TIP3   OH241433   1.505   3.597   1.389 -0.1003 -0.2102 -0.7153
 6625TIP3    H141434   1.446   3.672   1.402 -1.7873 -1.6738  0.4626
 6625TIP3    H241435   1.588   3.626   1.427 -0.0932  1.7593 -2.0522
 6626TIP3   OH241436   4.211   2.264   7.806 -0.3762  0.1115  0.0535
 6626TIP3    H141437   4.202   2.274   7.901 -0.2058  1.2477 -0.0351
 6626TIP3    H241438   4.167   2.181   7.787 -0.7951  0.0771  1.0647
 6627TIP3   OH241439   1.555   1.014   1.104  0.8985 -0.4565  0.1339
 6627TIP3    H141440   1.558   1.099   1.060  1.6794 -0.4941  0.1153
 6627TIP3    H241441   1.532   1.035   1.194 -0.4980 -0.3602 -0.2204
 6628TIP3   OH241442   3.587   0.083   1.802  0.0836 -0.4485  0.3105
 6628TIP3    H141443   3.552   0.063   1.715 -0.1172 -1.1731  0.5563
 6628TIP3    H241444   3.533   0.155   1.833  1.8843  1.7648 -1.2782
 6629TIP3   OH241445   5.641   2.062   7.141  0.4194  0.4880  0.0263
 6629TIP3    H141446   5.732   2.090   7.132  0.1539  1.0666 -0.9809
 6629TIP3    H241447   5.638   2.019   7.226  1.9815 -0.9559 -0.6017
 6630TIP3   OH241448   0.315   1.350   0.135 -1.0529 -0.3827 -0.1281
 6630TIP3    H141449   0.243   1.332   0.196 -0.7803  2.9418  1.3899
 6630TIP3    H241450   0.394   1.325   0.182 -1.0136 -0.7211 -0.3727
 6631TIP3   OH241451   0.837   1.584   7.355 -0.4295  0.2468  0.2402
 6631TIP3    H141452   0.813   1.551   7.268 -2.7147 -1.5529  1.4192
 6631TIP3    H241453   0.771   1.651   7.374  1.3295  2.1899 -0.1864
 6632TIP3   OH241454   3.748   6.755   2.828 -0.4081  0.4221  0.3717
 6632TIP3    H141455   3.710   6.834   2.866  1.5191  1.5372  0.1534
 6632TIP3    H241456   3.686   6.686   2.849 -1.1787  1.6322  2.3848
 6633TIP3   OH241457   1.368   0.719   0.146 -0.3731 -0.3938 -0.0286
 6633TIP3    H141458   1.345   0.627   0.137 -0.9408 -0.1263 -1.6244
 6633TIP3    H241459   1.358   0.755   0.058 -1.3784  1.4821  0.7960
 6634TIP3   OH241460   4.524   2.472   1.756 -0.1109  0.0645  0.2961
 6634TIP3    H141461   4.510   2.378   1.755 -0.8124  0.1274 -2.3348
 6634TIP3    H241462   4.592   2.487   1.691 -0.2850  1.4209  0.3925
 6635TIP3   OH241463   2.856   1.637   0.339  0.1052  0.1254  0.1205
 6635TIP3    H141464   2.795   1.706   0.365  0.1863 -0.0798  0.8817
 6635TIP3    H241465   2.858   1.642   0.243 -2.3887 -0.9401 -0.0703
 6636TIP3   OH241466   2.324   2.092   0.975  0.1301 -0.3222 -0.3721
 6636TIP3    H141467   2.415   2.091   1.004  0.5944 -1.4119 -1.7708
 6636TIP3    H241468   2.288   2.009   1.006  0.2662 -0.9030 -1.6862
 6637TIP3   OH241469   2.735   0.642   1.336  0.2808  0.0806  0.3096
 6637TIP3    H141470   2.673   0.571   1.318  0.3085  0.3763 -1.0482
 6637TIP3    H241471   2.683   0.722   1.327  0.4209  0.2798  1.1205
 6638TIP3   OH241472   4.200   5.014   7.114 -0.1231 -0.1455 -0.0916
 6638TIP3    H141473   4.148   4.980   7.041 -0.0052  0.6811 -0.5752
 6638TIP3    H241474   4.262   4.943   7.134 -2.3111 -1.7316  1.4553
 6639TIP3   OH241475   2.047   2.068   6.811 -0.0445 -0.1987  0.7523
 6639TIP3    H141476   1.990   2.091   6.884 -0.3365  0.1192  0.4311
 6639TIP3    H241477   1.988   2.055   6.737  0.2306 -0.7478  0.6235
 6640TIP3   OH241478   2.806   0.701   8.749  0.0448  0.2434 -0.2937
 6640TIP3    H141479   2.813   0.750   8.831  1.9289 -0.1994 -0.1451
 6640TIP3    H241480   2.712   0.691   8.735 -0.3331 -0.1573  2.1077
 6641TIP3   OH241481   6.271   1.276   7.896  0.4708  0.5192 -0.3048
 6641TIP3    H141482   6.276   1.349   7.958  1.6550  1.0389 -0.9708
 6641TIP3    H241483   6.182   1.280   7.862  0.4894  1.6286 -0.2715
 6642TIP3   OH241484   0.240   0.396   8.167 -0.1459  0.0441 -0.7113
 6642TIP3    H141485   0.276   0.308   8.155  0.8517  0.5478 -1.5821
 6642TIP3    H241486   0.146   0.382   8.172  0.1179 -1.4156  2.5866
 6643TIP3   OH241487   3.673   2.954   1.579 -0.0512  0.1648  0.0317
 6643TIP3    H141488   3.664   2.981   1.670 -0.3021  0.1274  0.0174
 6643TIP3    H241489   3.650   3.032   1.528 -2.1709 -0.4549 -0.0345
 6644TIP3   OH241490   1.022   6.495   2.018  0.0055  0.0652 -0.1345
 6644TIP3    H141491   0.992   6.409   2.049 -0.4526  0.2487 -0.0685
 6644TIP3    H241492   1.042   6.543   2.098 -0.1807  0.1814 -0.1591
 6645TIP3   OH241493   3.236   6.330   0.373  0.2230  0.0988  0.0575
 6645TIP3    H141494   3.161   6.352   0.428  1.0725  1.4460  0.7576
 6645TIP3    H241495   3.274   6.252   0.413 -1.0852 -0.9316 -0.6321
 6646TIP3   OH241496   2.960   5.446   1.463  0.2364  0.2456  0.6735
 6646TIP3    H141497   3.039   5.499   1.457 -0.2366  0.8003 -1.5920
 6646TIP3    H241498   2.888   5.505   1.439 -0.6883 -0.6259  1.1835
 6647TIP3   OH241499   2.575   6.825   8.538 -0.2569  0.5190 -0.1741
 6647TIP3    H141500   2.538   6.794   8.621 -0.6288  1.2828 -0.0435
 6647TIP3    H241501   2.512   6.796   8.472  0.7232 -1.3141 -0.3870
 6648TIP3   OH241502   4.015   1.954   1.821 -0.1444 -0.0367  0.5825
 6648TIP3    H141503   4.079   1.930   1.888  0.0446  3.9845  2.1469
 6648TIP3    H241504   4.058   2.022   1.770 -1.6821 -0.3207 -1.1954
 6649TIP3   OH241505   0.001   3.108   7.887 -0.3909 -0.7406  0.3332
 6649TIP3    H141506  -0.032   3.028   7.845 -0.7301 -0.7621  0.6405
 6649TIP3    H241507  -0.032   3.179   7.832  1.6395 -0.8751 -1.1542
 6650TIP3   OH241508   0.465   5.959   8.323 -0.0781  0.4854  0.1837
 6650TIP3    H141509   0.465   5.874   8.366 -1.4033 -0.7073 -2.0445
 6650TIP3    H241510   0.377   5.967   8.285  1.4016  0.7065 -3.5970
 6651TIP3   OH241511   4.679   4.228   7.697 -0.2149  0.2238  0.0758
 6651TIP3    H141512   4.620   4.304   7.697  1.4395  1.6119  2.3246
 6651TIP3    H241513   4.704   4.218   7.605 -1.1075  1.8616 -0.3906
 6652TIP3   OH241514   4.503   5.843   7.536  0.0723 -0.7552 -0.0281
 6652TIP3    H141515   4.567   5.773   7.549  1.6613  0.5511 -0.5539
 6652TIP3    H241516   4.505   5.860   7.442 -1.2709 -0.8580 -0.1033
 6653TIP3   OH241517   3.731   2.765   0.311  0.1677  0.0767 -0.4886
 6653TIP3    H141518   3.742   2.859   0.301 -0.8213  0.4638  1.5141
 6653TIP3    H241519   3.750   2.729   0.225  0.2860  2.1322 -1.3688
 6654TIP3   OH241520   4.631   3.746   8.466  0.7011  0.2620  0.1914
 6654TIP3    H141521   4.707   3.803   8.457  0.2932  1.0603  1.4968
 6654TIP3    H241522   4.556   3.803   8.450  0.3238 -0.1548  0.4486
 6655TIP3   OH241523   5.559   4.633   0.317 -0.9502  0.0827 -0.4746
 6655TIP3    H141524   5.503   4.666   0.247 -0.2309  1.3396 -0.4807
 6655TIP3    H241525   5.514   4.659   0.398 -1.8839 -1.5427 -0.4319
 6656TIP3   OH241526   0.575   0.648   0.206 -0.2543 -0.4192  0.0070
 6656TIP3    H141527   0.521   0.571   0.188 -0.2021 -0.7138  1.0199
 6656TIP3    H241528   0.658   0.629   0.162  0.4847 -1.9065  1.8798
 6657TIP3   OH241529   4.277   6.349   1.025 -0.4879 -0.4041 -0.5874
 6657TIP3    H141530   4.320   6.396   0.954 -0.2106  1.5686  0.7957
 6657TIP3    H241531   4.349   6.309   1.074 -0.4419  0.4303  0.0459
 6658TIP3   OH241532   0.482   6.177   2.408 -0.0264 -0.5275  0.1920
 6658TIP3    H141533   0.453   6.132   2.486 -1.6130  1.6870  0.9930
 6658TIP3    H241534   0.448   6.125   2.335  0.3114 -1.8756  0.9633
 6659TIP3   OH241535   4.539   6.395   1.244 -0.0394  0.7472  0.5582
 6659TIP3    H141536   4.488   6.474   1.259 -2.3551 -0.6757  0.5718
 6659TIP3    H241537   4.489   6.325   1.285  1.3472 -0.9164 -0.4357
 6660TIP3   OH241538   3.026   3.500   2.094 -0.3504  0.2714  0.1799
 6660TIP3    H141539   3.096   3.487   2.158 -0.4759  0.2476  0.3127
 6660TIP3    H241540   2.968   3.425   2.106 -0.5636  0.4522  0.2849
 6661TIP3   OH241541   5.441   6.107   8.088 -0.0047  0.4740 -0.1537
 6661TIP3    H141542   5.467   6.098   7.996 -0.8628 -0.7761 -0.3050
 6661TIP3    H241543   5.391   6.188   8.091 -1.7945 -0.5027 -1.2861
 6662TIP3   OH241544   4.776   3.009   1.600  0.2230 -0.1420 -0.2623
 6662TIP3    H141545   4.718   3.020   1.675 -0.5597 -0.7549 -0.7515
 6662TIP3    H241546   4.814   2.922   1.611  0.5760  0.0118 -0.2599
 6663TIP3   OH241547   0.374   5.002   1.033 -0.3572 -0.7031 -0.1949
 6663TIP3    H141548   0.321   5.075   1.002 -0.9043 -1.3461 -0.8007
 6663TIP3    H241549   0.457   5.010   0.984 -0.7071 -0.9253 -0.8397
 6664TIP3   OH241550   4.674   0.049   2.988 -0.1716  0.1046 -0.0045
 6664TIP3    H141551   4.646  -0.035   3.025  0.9613 -0.1866  0.2332
 6664TIP3    H241552   4.614   0.113   3.026  0.1531 -0.3609  1.3342
 6665TIP3   OH241553   5.158   5.393   1.087  0.9891  0.5579 -0.6305
 6665TIP3    H141554   5.147   5.329   1.017  1.2675  0.2054 -0.3559
 6665TIP3    H241555   5.131   5.477   1.048 -0.1731  0.1468 -0.7376
 6666TIP3   OH241556   6.259   6.686   0.127 -0.3953 -0.2306 -0.0117
 6666TIP3    H141557   6.244   6.611   0.068 -0.7075  0.3636 -0.7094
 6666TIP3    H241558   6.287   6.756   0.068  0.8609 -0.0645  0.7532
 6667TIP3   OH241559   4.607   6.644   3.084  0.2427  0.0742  0.0670
 6667TIP3    H141560   4.674   6.595   3.037 -0.7775 -1.3669  0.0137
 6667TIP3    H241561   4.541   6.578   3.107 -1.2318  1.4395 -0.0209
 6668TIP3   OH241562   3.784   1.639   7.702  0.0481  0.3766 -0.5918
 6668TIP3    H141563   3.766   1.586   7.780 -2.5651 -2.3542 -2.7780
 6668TIP3    H241564   3.699   1.674   7.677  1.1118  2.5655 -1.3912
 6669TIP3   OH241565   0.237   1.351   1.023  0.0823 -0.2197  0.1343
 6669TIP3    H141566   0.210   1.287   1.089  1.1270  0.6983  1.5248
 6669TIP3    H241567   0.332   1.357   1.033  0.0286  1.4710  0.0101
 6670TIP3   OH241568   6.067   5.289   7.470  0.1079 -0.0895  0.1000
 6670TIP3    H141569   6.081   5.283   7.376 -1.6829 -1.7388 -0.1257
 6670TIP3    H241570   6.133   5.231   7.508  1.8027  1.6968  0.0338
 6671TIP3   OH241571   2.072   5.891   7.260 -0.3137  0.4386  0.1052
 6671TIP3    H141572   2.019   5.935   7.193  1.0120  0.2610 -1.1019
 6671TIP3    H241573   2.079   5.801   7.230 -0.1174  0.2268  0.7689
 6672TIP3   OH241574   3.203   0.887   0.485  0.0725 -0.0701 -0.3709
 6672TIP3    H141575   3.216   0.792   0.478 -0.7988 -0.2322  0.1330
 6672TIP3    H241576   3.108   0.898   0.487  0.1169  0.5548  2.5515
 6673TIP3   OH241577   4.491   1.742   0.137  0.2693 -0.1082  0.4607
 6673TIP3    H141578   4.450   1.816   0.093  1.3218  1.1767  1.5403
 6673TIP3    H241579   4.522   1.685   0.066 -0.4579  0.5270 -0.3867
 6674TIP3   OH241580   6.005   5.492   8.667 -0.2677  0.4132 -0.4878
 6674TIP3    H141581   6.060   5.550   8.613 -0.5938 -0.1448 -1.4371
 6674TIP3    H241582   5.919   5.496   8.626 -1.5564  2.7901  2.0738
 6675TIP3   OH241583   4.245   0.955   8.128  0.0739  0.3313  0.3251
 6675TIP3    H141584   4.332   0.984   8.098  0.0382  0.4887  0.3738
 6675TIP3    H241585   4.222   1.017   8.196 -0.0579  0.2602  0.3445
 6676TIP3   OH241586   5.402   4.830   2.181 -0.4200  0.0908  0.0980
 6676TIP3    H141587   5.379   4.738   2.195  1.4757 -0.0897  2.5356
 6676TIP3    H241588   5.348   4.878   2.243  0.3019  0.3827  0.5079
 6677TIP3   OH241589   4.329   5.114   7.976 -0.0718  0.9426  0.4857
 6677TIP3    H141590   4.351   5.207   7.991  2.4778  0.5784 -0.5220
 6677TIP3    H241591   4.375   5.068   8.046  0.8643  0.2682 -0.5473
 6678TIP3   OH241592   5.648   3.770   0.468  0.1472 -0.0022 -0.0563
 6678TIP3    H141593   5.656   3.815   0.552  0.7736 -3.1850  1.7561
 6678TIP3    H241594   5.560   3.731   0.470  0.4996 -0.8407 -0.4655
 6679TIP3   OH241595   4.054   2.089   2.820  0.6792  0.0735 -0.1670
 6679TIP3    H141596   4.145   2.093   2.849  0.9711  0.4574 -1.0791
 6679TIP3    H241597   4.022   2.179   2.829  0.1698 -0.1826  0.7750
 6680TIP3   OH241598   6.613   6.390   1.190 -0.3595 -0.0518 -0.2476
 6680TIP3    H141599   6.603   6.475   1.148 -1.8267  0.0333  0.2309
 6680TIP3    H241600   6.524   6.361   1.209  0.1202 -1.5849 -0.1641
 6681TIP3   OH241601   2.753   0.334   2.272 -0.4942 -0.3445  0.1259
 6681TIP3    H141602   2.736   0.419   2.231  1.1394 -0.9013 -1.8831
 6681TIP3    H241603   2.690   0.329   2.344 -1.8127  1.7921 -0.7783
 6682TIP3   OH241604   5.244   6.609   0.162  0.8551  0.5491 -0.2531
 6682TIP3    H141605   5.208   6.608   0.251  1.8425  2.2208  0.1950
 6682TIP3    H241606   5.236   6.518   0.133  1.8608 -0.3744  2.0973
 6683TIP3   OH241607   5.393   2.166   8.697  0.3749  0.4113 -0.1297
 6683TIP3    H141608   5.388   2.076   8.666 -2.6574  0.8466 -1.2740
 6683TIP3    H241609   5.368   2.219   8.621  2.1159  2.2492  0.5015
 6684TIP3   OH241610   6.647   0.577   2.426 -0.0684  0.3219  0.4615
 6684TIP3    H141611   6.613   0.576   2.337  0.7972 -1.4122  0.0995
 6684TIP3    H241612   6.648   0.670   2.450 -2.0039  0.6871 -0.6347
 6685TIP3   OH241613   1.833   0.371   7.675  0.4984 -0.4125 -0.3619
 6685TIP3    H141614   1.906   0.350   7.733  1.7303  1.2577 -1.2206
 6685TIP3    H241615   1.873   0.384   7.589 -0.9757 -0.5788 -1.1130
 6686TIP3   OH241616   2.070   1.259   0.530  0.3064 -0.0146  0.3174
 6686TIP3    H141617   2.141   1.198   0.514 -0.4779 -0.4213 -1.9903
 6686TIP3    H241618   2.108   1.326   0.587  1.9600 -1.1986  0.6777
 6687TIP3   OH241619   6.334   6.645   1.173  0.7826  0.0693  0.1471
 6687TIP3    H141620   6.340   6.588   1.097  1.4810 -1.8520  1.5703
 6687TIP3    H241621   6.382   6.724   1.148  1.4363 -0.7268 -1.2164
 6688TIP3   OH241622   6.412   5.397   8.028  0.3104 -0.0124 -0.2292
 6688TIP3    H141623   6.460   5.474   8.058  1.5402 -1.2192  1.1024
 6688TIP3    H241624   6.343   5.384   8.093 -0.4187  0.4025 -0.8979
 6689TIP3   OH241625   1.803   3.886   0.031  0.2310  0.2516 -0.1006
 6689TIP3    H141626   1.753   3.823   0.083 -0.7138 -1.1014 -2.4890
 6689TIP3    H241627   1.883   3.901   0.081  0.2956 -2.5326  0.7855
 6690TIP3   OH241628   3.178   3.973   7.539 -0.2419 -0.1262 -0.5582
 6690TIP3    H141629   3.129   3.916   7.480  0.8176 -0.4174 -1.1978
 6690TIP3    H241630   3.146   4.061   7.519  0.3470 -0.1783 -1.8586
 6691TIP3   OH241631   6.201   0.691   1.885  0.1081  0.4799  0.6019
 6691TIP3    H141632   6.211   0.659   1.796 -2.7249 -1.0564  0.7016
 6691TIP3    H241633   6.265   0.640   1.936  0.0254 -0.4700 -0.2108
 6692TIP3   OH241634   2.816   3.373   0.854  0.5905 -0.0570 -0.4164
 6692TIP3    H141635   2.892   3.394   0.908  1.0654 -2.1506 -0.1711
 6692TIP3    H241636   2.741   3.387   0.911  0.7543  1.9892 -0.6477
 6693TIP3   OH241637   2.992   4.151   8.405 -0.4300 -0.1410  0.3311
 6693TIP3    H141638   2.929   4.106   8.349 -0.4889  0.3416  0.0047
 6693TIP3    H241639   3.049   4.081   8.438  0.8376 -0.2597 -1.8594
 6694TIP3   OH241640   1.166   0.521   0.391 -0.2410 -0.0052 -0.1895
 6694TIP3    H141641   1.161   0.461   0.316  0.8011 -0.7645  0.3103
 6694TIP3    H241642   1.106   0.484   0.456 -1.8559  1.1624 -0.9410
 6695TIP3   OH241643   1.926   0.091   6.756 -0.4754  0.4244  0.2722
 6695TIP3    H141644   1.896   0.052   6.838 -0.4668 -0.1479  0.0077
 6695TIP3    H241645   1.879   0.043   6.688  0.7529 -0.2456 -0.1377
 6696TIP3   OH241646   1.824   3.209   7.835 -0.6171  0.6077  0.1509
 6696TIP3    H141647   1.891   3.141   7.845 -0.2827  0.5169 -2.1356
 6696TIP3    H241648   1.810   3.243   7.923  1.8330  0.0331  0.8290
 6697TIP3   OH241649   4.215   3.916   2.418  0.0559 -0.3348  0.0167
 6697TIP3    H141650   4.265   3.970   2.479  0.1681 -2.1691  1.6513
 6697TIP3    H241651   4.235   3.826   2.444 -3.9662 -1.1938  0.7378
 6698TIP3   OH241652   2.400   4.185   8.012 -0.0242  0.1536  0.4098
 6698TIP3    H141653   2.372   4.113   7.957 -0.4461 -0.0814  0.9242
 6698TIP3    H241654   2.345   4.259   7.985  0.6538  0.3882 -0.3638
 6699TIP3   OH241655   4.363   6.402   8.413  0.2165  0.4905 -0.5526
 6699TIP3    H141656   4.324   6.424   8.498 -0.0668 -2.3091  0.1506
 6699TIP3    H241657   4.457   6.417   8.425  0.0760  1.0069 -0.0694
 6700TIP3   OH241658   0.153   1.248   2.365 -0.1099  0.1691 -0.5153
 6700TIP3    H141659   0.182   1.296   2.443  0.7494 -0.5954 -0.3382
 6700TIP3    H241660   0.118   1.315   2.306 -2.6641  0.5721  1.2995
 6701TIP3   OH241661   4.131   2.188   0.082 -0.0923 -0.0028  0.0654
 6701TIP3    H141662   4.153   2.277   0.110  2.5385 -0.6882  0.5150
 6701TIP3    H241663   4.068   2.199   0.011  0.8275  2.2630 -0.4668
 6702TIP3   OH241664   0.823   1.435   0.699 -0.0050  0.4307  0.2427
 6702TIP3    H141665   0.893   1.451   0.762  0.0606 -0.3801  0.3925
 6702TIP3    H241666   0.804   1.521   0.662  2.4593  0.4393 -1.2834
 6703TIP3   OH241667   6.268   0.535   2.518 -0.1405 -0.3063 -0.5986
 6703TIP3    H141668   6.314   0.596   2.461  0.8613 -0.8189 -0.3554
 6703TIP3    H241669   6.181   0.528   2.480  0.3292 -0.1918 -1.7223
 6704TIP3   OH241670   6.148   5.603   2.150  0.1532 -0.3470  0.2884
 6704TIP3    H141671   6.072   5.571   2.101  0.1785  0.7496 -0.5042
 6704TIP3    H241672   6.217   5.539   2.131 -0.4518 -1.1438  0.7097
 6705TIP3   OH241673   6.726   6.193   0.843  0.1944 -0.4544 -0.3939
 6705TIP3    H141674   6.749   6.164   0.931 -0.7498 -1.4487 -0.4549
 6705TIP3    H241675   6.675   6.273   0.856 -1.5356 -1.5700  0.1234
 6706TIP3   OH241676   0.074   6.678   7.906  0.1423 -0.2524  0.0206
 6706TIP3    H141677   0.138   6.719   7.848  0.8806 -0.2467  0.8279
 6706TIP3    H241678   0.093   6.584   7.901 -1.0679 -0.4729 -1.2469
 6707TIP3   OH241679   3.575   2.688   6.615  0.0912 -0.1751  0.1414
 6707TIP3    H141680   3.490   2.647   6.600  0.2154 -0.3467 -0.1177
 6707TIP3    H241681   3.581   2.757   6.548 -0.0438  0.1537  0.4658
 6708TIP3   OH241682   6.589   0.854   2.450  0.1710 -0.1589 -1.0569
 6708TIP3    H141683   6.544   0.895   2.376 -0.2025  0.5155 -0.4679
 6708TIP3    H241684   6.676   0.894   2.452 -0.1804  0.5991 -0.5049
 6709TIP3   OH241685   2.398   1.041   8.271 -0.2378 -0.6227  0.3976
 6709TIP3    H141686   2.353   1.066   8.191  2.3194  1.5225 -0.5373
 6709TIP3    H241687   2.420   0.948   8.259 -1.1705 -0.7187 -0.6906
 6710TIP3   OH241688   3.747   6.356   7.103 -0.0846  0.0381  0.2432
 6710TIP3    H141689   3.771   6.444   7.132 -0.6785  0.3042 -0.0526
 6710TIP3    H241690   3.828   6.306   7.107 -0.5061 -0.8166  5.2354
 6711TIP3   OH241691   6.242   2.551   2.803  0.0390  0.2544  1.0876
 6711TIP3    H141692   6.307   2.540   2.733 -1.6843 -1.2062 -0.3842
 6711TIP3    H241693   6.258   2.639   2.837  2.5483  0.0674  0.5692
 6712TIP3   OH241694   5.979   2.477   1.023  0.3488 -0.6449  0.1386
 6712TIP3    H141695   6.039   2.411   1.060  1.7036 -1.0364 -2.5312
 6712TIP3    H241696   5.950   2.438   0.941  1.7078  2.2774 -1.8801
 6713TIP3   OH241697   6.162   5.104   7.971 -0.1126  0.0741 -0.1630
 6713TIP3    H141698   6.147   5.191   7.934 -0.7126 -0.5943 -1.5549
 6713TIP3    H241699   6.111   5.103   8.052 -3.5950 -0.3348 -2.1765
 6714TIP3   OH241700   5.844   1.731   0.133  0.7230 -0.2316 -0.1632
 6714TIP3    H141701   5.794   1.658   0.170  1.7112 -0.4789  0.7145
 6714TIP3    H241702   5.781   1.775   0.076  0.2722 -2.0973 -1.1966
 6715TIP3   OH241703   1.219   2.492   1.033  0.0217  0.4947 -0.2739
 6715TIP3    H141704   1.130   2.485   0.999  0.1558  1.7169 -0.9262
 6715TIP3    H241705   1.232   2.412   1.084 -1.5623  0.4567  0.1164
 6716TIP3   OH241706   4.010   1.687   1.502  0.2489 -0.1319  0.3772
 6716TIP3    H141707   3.971   1.603   1.527 -2.3131  1.2245  1.2627
 6716TIP3    H241708   4.009   1.686   1.406 -2.3355 -0.0725  0.3526
 6717TIP3   OH241709   5.799   2.102   7.761  0.0013 -0.6683 -0.4712
 6717TIP3    H141710   5.858   2.156   7.708  0.0828  2.2551  2.3300
 6717TIP3    H241711   5.846   2.019   7.772  1.9991  0.3107 -1.1610
 6718TIP3   OH241712   5.985   5.899   0.273  0.2246 -0.3798  0.2032
 6718TIP3    H141713   5.984   5.884   0.179 -0.8874  0.3111  0.0761
 6718TIP3    H241714   5.894   5.922   0.294  0.7201  0.8149  1.2042
 6719TIP3   OH241715   3.085   0.094   0.475  0.0123  0.0407  0.0557
 6719TIP3    H141716   3.114   0.097   0.567  1.3245 -2.2389 -0.2118
 6719TIP3    H241717   3.122   0.173   0.436 -0.7162  1.1529  1.5013
 6720TIP3   OH241718   0.017   4.664   2.165  0.6067  0.2056 -0.3013
 6720TIP3    H141719  -0.010   4.655   2.074 -1.7760 -0.5456  0.4176
 6720TIP3    H241720  -0.013   4.751   2.191  0.1918 -0.0508  0.0897
 6721TIP3   OH241721   2.974   3.895   0.613 -0.4109 -0.9222  0.5498
 6721TIP3    H141722   2.931   3.837   0.551  3.9265 -2.1788 -1.6239
 6721TIP3    H241723   3.024   3.837   0.670  1.0914  0.5153  0.7602
 6722TIP3   OH241724   0.095   5.127   2.661 -0.3992 -0.6722 -0.2263
 6722TIP3    H141725   0.038   5.070   2.713 -0.2968 -0.7806 -0.2341
 6722TIP3    H241726   0.165   5.070   2.631  0.3146 -0.3024  0.6944
 6723TIP3   OH241727   2.020   1.305   6.770 -0.2006  0.0219 -0.3120
 6723TIP3    H141728   2.079   1.368   6.812  0.2014 -1.0642  0.8072
 6723TIP3    H241729   2.067   1.276   6.692  0.2622 -0.0049 -0.0253
 6724TIP3   OH241730   6.445   3.414   0.782 -0.2120  0.7713  0.6789
 6724TIP3    H141731   6.417   3.358   0.854  0.0804 -0.2189  0.0456
 6724TIP3    H241732   6.540   3.423   0.793  0.1015 -0.7591 -0.4897
 6725TIP3   OH241733   0.808   2.675   2.716  0.2170 -0.4111  0.7425
 6725TIP3    H141734   0.755   2.634   2.648  0.7153 -0.0789  0.1509
 6725TIP3    H241735   0.858   2.743   2.670 -0.0241  0.3452  1.5652
 6726TIP3   OH241736   5.105   5.356   7.097 -0.4166 -0.4628  0.1036
 6726TIP3    H141737   5.181   5.315   7.138  0.3810  0.6060 -0.2401
 6726TIP3    H241738   5.139   5.393   7.015 -1.1483  0.5852  0.2489
 6727TIP3   OH241739   4.114   2.798   0.494  0.7363 -0.0329 -0.1811
 6727TIP3    H141740   4.044   2.815   0.430 -1.9567 -3.0055  1.7159
 6727TIP3    H241741   4.161   2.723   0.458  0.2622 -0.6659  0.4975
 6728TIP3   OH241742   2.888   4.873   8.416 -0.2112 -0.1016 -0.1945
 6728TIP3    H141743   2.865   4.965   8.430 -1.3911 -0.1974 -1.3068
 6728TIP3    H241744   2.921   4.843   8.501 -0.5961  1.1345  0.4093
 6729TIP3   OH241745   2.827   1.314   1.795  0.4675 -0.0906 -0.3182
 6729TIP3    H141746   2.821   1.355   1.709  1.6926  0.1909 -0.2833
 6729TIP3    H241747   2.775   1.370   1.852 -0.4718 -0.3550 -0.8809
 6730TIP3   OH241748   2.127   2.940   1.156 -0.2104 -0.1931  0.3602
 6730TIP3    H141749   2.034   2.963   1.158 -0.5859 -1.6265  0.9711
 6730TIP3    H241750   2.150   2.922   1.247  0.1557 -1.6516  0.0204
 6731TIP3   OH241751   5.941   3.690   7.833 -0.0808  0.3705  0.0720
 6731TIP3    H141752   5.896   3.712   7.751  1.2345  0.8003 -0.5621
 6731TIP3    H241753   5.914   3.600   7.851  0.4832 -0.1280 -1.4499
 6732TIP3   OH241754   1.835   4.248   1.341 -0.0327  0.0648  0.1284
 6732TIP3    H141755   1.847   4.198   1.260  0.5690  0.7504 -0.2183
 6732TIP3    H241756   1.907   4.310   1.342  0.8307 -0.8952  1.9564
 6733TIP3   OH241757   4.400   0.802   8.340 -0.1554 -0.1794  0.6274
 6733TIP3    H141758   4.481   0.845   8.368  0.8579 -0.7670 -1.2699
 6733TIP3    H241759   4.339   0.874   8.321  1.3761  0.5228 -2.0995
 6734TIP3   OH241760   1.519   6.291   7.229 -0.2898  0.4995  0.1738
 6734TIP3    H141761   1.606   6.261   7.202 -0.7206  0.8028 -1.6640
 6734TIP3    H241762   1.523   6.386   7.224 -0.7039  0.5213  0.1685
 6735TIP3   OH241763   4.386   5.727   8.410  0.3887  0.0056  0.1116
 6735TIP3    H141764   4.481   5.713   8.403  0.4674  0.9926 -1.1833
 6735TIP3    H241765   4.349   5.639   8.403  1.1494 -0.2613 -0.8469
 6736TIP3   OH241766   1.872   4.903   1.260  0.1049 -0.1064  0.1040
 6736TIP3    H141767   1.833   4.955   1.330  1.1271 -0.4437  0.9535
 6736TIP3    H241768   1.797   4.869   1.211 -0.6963 -0.7039  1.6564
 6737TIP3   OH241769   1.311   6.308   7.412 -0.2851  0.4522 -0.0355
 6737TIP3    H141770   1.359   6.301   7.330  0.0295 -0.0372  0.1890
 6737TIP3    H241771   1.225   6.271   7.393 -0.2579  0.4620 -0.1755
 6738TIP3   OH241772   4.971   4.007   8.101  0.0757  0.4445  0.0642
 6738TIP3    H141773   4.979   4.027   8.008  0.5533 -0.4291 -0.0964
 6738TIP3    H241774   4.901   3.942   8.106  0.9727 -0.5456  0.1368
 6739TIP3   OH241775   0.554   2.118   8.525 -0.2218 -0.4945  0.6421
 6739TIP3    H141776   0.531   2.161   8.608  0.9617 -0.0776  0.7740
 6739TIP3    H241777   0.551   2.188   8.460  1.2441 -0.2906  0.7737
 6740TIP3   OH241778   4.934   3.541   7.388 -0.2351 -0.0903 -0.2796
 6740TIP3    H141779   4.911   3.627   7.422  1.9997  0.5583 -0.2473
 6740TIP3    H241780   4.965   3.557   7.299  2.5662 -0.3799  0.5196
 6741TIP3   OH241781   0.807   4.736   1.113  0.1675 -0.0740  0.0617
 6741TIP3    H141782   0.851   4.690   1.184  0.0839  1.2672  1.0250
 6741TIP3    H241783   0.808   4.828   1.140 -2.6241  0.1232 -0.1553
 6742TIP3   OH241784   3.700   4.921   7.906 -0.2923  0.0636 -0.1156
 6742TIP3    H141785   3.613   4.960   7.898 -0.9847 -1.4381 -0.1225
 6742TIP3    H241786   3.756   4.978   7.854 -1.7818 -0.5052 -2.5014
 6743TIP3   OH241787   2.897   3.214   0.404 -0.3822  0.1595 -0.1931
 6743TIP3    H141788   2.900   3.279   0.474 -1.4867  0.3423 -0.2915
 6743TIP3    H241789   2.829   3.246   0.344 -0.7269 -0.9150 -0.4069
 6744TIP3   OH241790   3.020   3.184   8.393 -0.1121 -0.0631 -0.5749
 6744TIP3    H141791   3.055   3.271   8.373 -0.7683 -0.1729 -2.4270
 6744TIP3    H241792   2.935   3.182   8.347 -0.8511 -1.1138  0.7699
 6745TIP3   OH241793   4.245   3.637   0.763 -0.9067  0.6778  0.1607
 6745TIP3    H141794   4.278   3.726   0.767 -1.8443  0.9951  2.5666
 6745TIP3    H241795   4.172   3.636   0.825 -1.4251 -1.5667 -0.3978
 6746TIP3   OH241796   0.651   3.536   8.735 -0.3719  0.1111 -0.1711
 6746TIP3    H141797   0.743   3.511   8.745 -0.6331 -2.6599 -3.0231
 6746TIP3    H241798   0.608   3.502   8.813  0.7595 -0.1227  0.3648
 6747TIP3   OH241799   1.542   0.508   1.755  0.4294  0.3422  0.1433
 6747TIP3    H141800   1.489   0.442   1.710  1.1131  0.3772 -0.7545
 6747TIP3    H241801   1.548   0.477   1.845 -0.9967  0.2730  0.2326
 6748TIP3   OH241802   4.674   1.835   2.313  0.5612 -0.2134 -0.4807
 6748TIP3    H141803   4.590   1.849   2.357  1.0432  1.7249 -0.0659
 6748TIP3    H241804   4.664   1.753   2.266 -1.9852  0.5455 -1.3903
 6749TIP3   OH241805   0.373   1.748   7.836 -0.3418  0.0488  1.1060
 6749TIP3    H141806   0.373   1.828   7.782  0.1245 -0.7541 -0.1288
 6749TIP3    H241807   0.281   1.731   7.853 -0.5030  0.2840  0.5041
 6750TIP3   OH241808   1.629   2.807   8.160 -0.4885  0.1102 -0.2564
 6750TIP3    H141809   1.535   2.793   8.168 -0.6481  1.8101  1.6218
 6750TIP3    H241810   1.638   2.880   8.098 -0.3180 -0.8531 -1.3840
 6751TIP3   OH241811   6.362   5.133   2.639 -0.4601 -0.0667 -0.2842
 6751TIP3    H141812   6.429   5.135   2.707  0.3606  0.0317 -1.0713
 6751TIP3    H241813   6.289   5.184   2.675 -0.4071 -0.7753  0.8707
 6752TIP3   OH241814   0.053   3.734   2.422 -0.5079 -0.6486 -0.6432
 6752TIP3    H141815   0.075   3.751   2.330  1.1701 -0.3601 -0.2275
 6752TIP3    H241816  -0.031   3.689   2.419 -0.7393 -0.1760 -2.2923
 6753TIP3   OH241817   5.260   6.053   2.854 -0.1200 -0.2584  0.2309
 6753TIP3    H141818   5.227   5.971   2.816 -1.1395 -0.3818  1.3148
 6753TIP3    H241819   5.256   6.038   2.949  1.1276  0.5066  0.4295
 6754TIP3   OH241820   3.490   5.840   8.639  0.2288  0.1313  0.0973
 6754TIP3    H141821   3.446   5.906   8.585 -1.0914 -2.1256 -1.7358
 6754TIP3    H241822   3.438   5.761   8.628  2.5819 -1.6483  0.9809
 6755TIP3   OH241823   1.133   4.059   8.486  0.2921 -0.6412  0.1893
 6755TIP3    H141824   1.037   4.067   8.481  0.4035  0.5100 -0.2071
 6755TIP3    H241825   1.164   4.147   8.505  1.3629 -0.7502 -0.9667
 6756TIP3   OH241826   3.738   1.440   7.884 -0.4109 -0.2117  0.6157
 6756TIP3    H141827   3.751   1.364   7.940 -2.6526 -0.1754  1.2958
 6756TIP3    H241828   3.681   1.409   7.814 -2.2726  1.0103  1.4904
 6757TIP3   OH241829   1.467   6.045   0.265  0.2401  0.2847  1.0424
 6757TIP3    H141830   1.556   6.076   0.283  2.0389 -3.2371 -0.6060
 6757TIP3    H241831   1.410   6.105   0.312  3.5029  2.4483  2.5919
 6758TIP3   OH241832   4.316   1.869   8.071 -0.2207 -0.2490 -0.4566
 6758TIP3    H141833   4.407   1.868   8.041  0.4938  0.5088  1.5127
 6758TIP3    H241834   4.283   1.954   8.043  0.3976  0.3979  0.7016
 6759TIP3   OH241835   1.833   2.237   1.833  0.0844  0.2805  0.0128
 6759TIP3    H141836   1.790   2.176   1.773 -1.0599  4.3547 -3.7682
 6759TIP3    H241837   1.787   2.224   1.916 -2.0087 -2.0233 -1.3675
 6760TIP3   OH241838   3.308   6.610   2.716  0.3859 -0.2055  0.2373
 6760TIP3    H141839   3.300   6.705   2.717  0.1954 -0.2138  1.5035
 6760TIP3    H241840   3.396   6.593   2.751 -0.1324 -0.5161  1.4430
 6761TIP3   OH241841   6.441   2.242   1.103  0.0271  0.2595 -1.0154
 6761TIP3    H141842   6.370   2.183   1.129 -1.6169  2.5678 -0.0013
 6761TIP3    H241843   6.519   2.186   1.104 -1.4143 -1.8822 -0.0674
 6762TIP3   OH241844   3.046   2.496   6.527  0.1708  0.2933 -0.5166
 6762TIP3    H141845   2.970   2.520   6.474  0.3401 -0.0104 -0.9063
 6762TIP3    H241846   3.017   2.506   6.618  0.4262  2.5666 -0.6313
 6763TIP3   OH241847   2.998   2.037   7.947 -0.0717  0.4130  0.3106
 6763TIP3    H141848   2.909   2.005   7.936  1.0301 -2.5282 -1.0908
 6763TIP3    H241849   3.012   2.097   7.874 -0.5331 -0.0625 -0.1744
 6764TIP3   OH241850   4.073   3.763   8.420  0.1856  0.0425 -0.0153
 6764TIP3    H141851   4.022   3.778   8.340  1.4179  0.4369 -0.7688
 6764TIP3    H241852   4.074   3.847   8.465  2.1897  0.7774 -1.2723
 6765TIP3   OH241853   5.089   2.738   8.594  0.0933  0.3900  0.7633
 6765TIP3    H141854   5.094   2.733   8.689 -0.1061 -4.6532  0.7478
 6765TIP3    H241855   4.996   2.750   8.575  0.0042  0.4193  1.2066
 6766TIP3   OH241856   4.792   3.460   1.319  0.0367  0.3000 -0.1377
 6766TIP3    H141857   4.767   3.545   1.354 -0.2236  0.3765 -0.5063
 6766TIP3    H241858   4.888   3.458   1.326 -0.0504 -0.0441  1.3866
 6767TIP3   OH241859   6.091   4.006   1.583  0.4885  0.7142  0.3249
 6767TIP3    H141860   6.063   3.917   1.602  0.6503  0.2595 -1.3958
 6767TIP3    H241861   6.133   4.036   1.663  0.9574 -0.9648  0.7465
 6768TIP3   OH241862   5.106   3.728   8.107 -0.2031  0.0835  0.2233
 6768TIP3    H141863   5.109   3.806   8.163 -0.5264  0.8893 -0.8287
 6768TIP3    H241864   5.033   3.746   8.046 -1.9135 -2.1226  1.4835
 6769TIP3   OH241865   2.283   6.720   2.607  0.1929  0.0904 -0.9285
 6769TIP3    H141866   2.226   6.696   2.680  0.3379  0.3210 -0.7361
 6769TIP3    H241867   2.369   6.731   2.647  0.6955 -1.6867 -1.4524
 6770TIP3   OH241868   3.765   3.034   0.248 -0.3923 -0.3156  0.2925
 6770TIP3    H141869   3.857   3.059   0.255  0.0420 -1.0471 -1.8482
 6770TIP3    H241870   3.717   3.116   0.257  0.6473  0.4898 -1.0530
 6771TIP3   OH241871   6.621   4.698   0.771 -0.1234 -0.4077 -0.2034
 6771TIP3    H141872   6.608   4.740   0.856  1.5293 -0.7552  0.2725
 6771TIP3    H241873   6.589   4.761   0.707 -1.0353  0.0279  0.6637
 6772TIP3   OH241874   5.423   6.691   1.348  0.1069  0.0577  0.2327
 6772TIP3    H141875   5.465   6.777   1.357 -1.1893  0.8248 -0.6835
 6772TIP3    H241876   5.342   6.699   1.399 -0.3687 -0.3633 -0.4478
 6773TIP3   OH241877   5.201   0.467   0.915 -0.4169 -0.1735  0.5529
 6773TIP3    H141878   5.201   0.562   0.908  0.7492 -0.2401 -0.5862
 6773TIP3    H241879   5.110   0.444   0.932 -0.7548  1.1183  0.5519
 6774TIP3   OH241880   4.655   4.623   3.107 -0.4151  0.3740  0.4237
 6774TIP3    H141881   4.615   4.709   3.119  1.6802  1.1602  2.7721
 6774TIP3    H241882   4.749   4.641   3.103 -0.0318 -1.6086 -1.8909
 6775TIP3   OH241883   1.370   1.705   8.689 -0.3885 -0.2786  0.0173
 6775TIP3    H141884   1.456   1.684   8.726 -0.5765  1.9843  1.9904
 6775TIP3    H241885   1.318   1.625   8.702  0.8322 -0.9828  0.7275
 6776TIP3   OH241886   2.765   6.588   1.886  0.3133  0.6294  0.0849
 6776TIP3    H141887   2.690   6.563   1.941 -2.1053  2.2762 -2.2009
 6776TIP3    H241888   2.788   6.507   1.840  0.7745 -0.1724  1.6341
 6777TIP3   OH241889   5.912   6.166   1.714  0.2001 -0.0553 -0.0503
 6777TIP3    H141890   5.951   6.162   1.801 -0.1473  0.2606  0.1243
 6777TIP3    H241891   5.923   6.077   1.678  1.6084  0.1824 -0.2499
 6778TIP3   OH241892   5.288   6.718   7.918  0.0658 -0.4555 -0.1808
 6778TIP3    H141893   5.320   6.640   7.963  0.0221 -0.4339 -0.1115
 6778TIP3    H241894   5.261   6.777   7.989  2.4927  0.6754 -0.1032
 6779TIP3   OH241895   3.098   0.376   8.621 -0.3203  0.2373 -0.1721
 6779TIP3    H141896   3.126   0.314   8.553  1.2356  0.2376  0.4329
 6779TIP3    H241897   3.092   0.460   8.575 -0.0234  0.0939 -0.4834
 6780TIP3   OH241898   0.645   4.811   2.231  0.4016  0.0002 -0.2461
 6780TIP3    H141899   0.576   4.824   2.165  0.5484  2.5385  0.0098
 6780TIP3    H241900   0.598   4.799   2.313  0.2610 -0.2103 -0.3554
 6781TIP3   OH241901   3.016   3.980   1.797  0.3131 -0.1781 -0.6389
 6781TIP3    H141902   2.975   3.929   1.868 -0.0924  1.8632  0.6600
 6781TIP3    H241903   2.973   4.065   1.801 -0.1803 -0.1878 -3.8154
 6782TIP3   OH241904   2.983   5.735   1.405 -0.5253 -0.1403  0.0797
 6782TIP3    H141905   2.899   5.734   1.359  0.1102  2.4494 -1.3198
 6782TIP3    H241906   2.964   5.782   1.487 -0.4039  0.8972 -0.4608
 6783TIP3   OH241907   0.769   6.554   0.017 -0.1033 -0.5224  0.1867
 6783TIP3    H141908   0.826   6.627  -0.006 -0.0352 -0.4609  0.5473
 6783TIP3    H241909   0.683   6.578  -0.018 -0.1546 -0.1216  0.5741
 6784TIP3   OH241910   2.015   6.646   1.664 -0.3987 -0.1577  0.1283
 6784TIP3    H141911   1.963   6.673   1.588 -0.0976 -0.0539 -0.0425
 6784TIP3    H241912   2.098   6.694   1.655 -1.0071  1.2327  1.4486
 6785TIP3   OH241913   2.361   1.457   0.095 -0.2243  0.6087  0.5655
 6785TIP3    H141914   2.349   1.429   0.186  0.7388  2.1035  1.1810
 6785TIP3    H241915   2.379   1.550   0.100 -2.0694  1.1491 -1.3321
 6786TIP3   OH241916   0.500   1.141   2.316 -0.4369 -0.1719  0.2718
 6786TIP3    H141917   0.516   1.198   2.241  3.1521  0.0023  0.9890
 6786TIP3    H241918   0.434   1.078   2.284 -1.0611  1.5070 -2.0501
 6787TIP3   OH241919   0.773   1.448   8.558 -0.1957 -0.7680 -0.5865
 6787TIP3    H141920   0.799   1.439   8.467  1.3232  2.3233 -0.5696
 6787TIP3    H241921   0.829   1.386   8.605  1.1909 -0.2254 -1.4614
 6788TIP3   OH241922   2.552   3.640   7.904 -0.7031  0.3465 -0.5767
 6788TIP3    H141923   2.579   3.552   7.929 -0.2888  0.1728 -1.5969
 6788TIP3    H241924   2.500   3.671   7.978 -1.3735 -0.9889 -0.4603
 6789TIP3   OH241925   6.579   1.764   7.806  0.2272  0.6031 -0.2464
 6789TIP3    H141926   6.617   1.682   7.773 -0.4634  0.0199  0.3649
 6789TIP3    H241927   6.492   1.739   7.837  0.3097  1.4178  0.6720
 6790TIP3   OH241928   6.284   0.790   1.300  0.1584  0.4427 -0.1695
 6790TIP3    H141929   6.221   0.802   1.229 -0.2296 -0.2328  0.0594
 6790TIP3    H241930   6.356   0.850   1.279 -1.0126  2.0177  0.1061
 6791TIP3   OH241931   1.825   1.345   8.344  0.1935 -0.2288 -0.4778
 6791TIP3    H141932   1.851   1.436   8.332 -0.6520 -0.0116 -0.8188
 6791TIP3    H241933   1.904   1.294   8.326  0.5162  0.4113 -0.9116
 6792TIP3   OH241934   1.381   4.918   1.727 -0.2480 -0.1831 -0.0238
 6792TIP3    H141935   1.431   5.000   1.728 -0.0380 -0.3138  1.4320
 6792TIP3    H241936   1.302   4.937   1.778 -1.3573 -0.2252 -1.6177
 6793TIP3   OH241937   3.211   0.914   7.984 -0.3835 -0.1420  0.1104
 6793TIP3    H141938   3.284   0.897   8.044 -0.1586 -1.5816 -0.5066
 6793TIP3    H241939   3.253   0.945   7.904 -0.5901  0.6216  0.2928
 6794TIP3   OH241940   1.915   2.341   7.441 -0.1671  0.0922  0.4040
 6794TIP3    H141941   1.844   2.336   7.377  0.3160 -1.0136 -0.0794
 6794TIP3    H241942   1.916   2.255   7.483  0.9752  0.0333  0.2948
 6795TIP3   OH241943   3.001   4.848   1.406 -0.9207  0.0780 -0.1417
 6795TIP3    H141944   3.082   4.844   1.355 -0.6843 -0.7679  0.2889
 6795TIP3    H241945   2.992   4.940   1.428  0.2421  0.1077  0.2999
 6796TIP3   OH241946   3.972   0.673   1.833 -0.1661  0.3536  0.0882
 6796TIP3    H141947   3.902   0.643   1.776 -0.4333 -1.5670  1.3369
 6796TIP3    H241948   3.990   0.598   1.891  2.3566  1.0593  0.3316
 6797TIP3   OH241949   5.567   5.540   0.261 -0.3125 -0.6515  0.1539
 6797TIP3    H141950   5.477   5.572   0.248 -0.9904 -2.5070  0.0172
 6797TIP3    H241951   5.619   5.594   0.202 -1.7131 -1.1452 -1.6454
 6798TIP3   OH241952   6.455   2.251   8.679 -0.2963  0.0536  0.4143
 6798TIP3    H141953   6.395   2.221   8.611 -0.5229  1.1074  0.1250
 6798TIP3    H241954   6.465   2.345   8.661 -1.2138  0.5903  2.4860
 6799TIP3   OH241955   0.776   3.247   6.597  0.0128  0.2137  0.1100
 6799TIP3    H141956   0.829   3.294   6.661  0.8647 -0.3800 -0.1478
 6799TIP3    H241957   0.797   3.288   6.514 -0.4161  0.3902  0.0855
 6800TIP3   OH241958   0.458   4.149   1.993  0.6877  0.0024 -0.3731
 6800TIP3    H141959   0.402   4.094   2.047  1.5514 -0.6128 -0.1040
 6800TIP3    H241960   0.406   4.164   1.913  0.2732 -0.8463 -0.2717
 6801TIP3   OH241961   6.771   2.153   1.929 -0.2422 -0.0382 -0.1842
 6801TIP3    H141962   6.696   2.200   1.966 -0.2489 -1.3297  1.5204
 6801TIP3    H241963   6.844   2.173   1.987  0.2219 -0.5699 -0.5739
 6802TIP3   OH241964   4.161   2.357   8.070 -0.3618 -0.0622 -0.6989
 6802TIP3    H141965   4.085   2.372   8.126  0.0034  0.5007 -0.3381
 6802TIP3    H241966   4.204   2.442   8.065  0.6661 -0.5302 -0.2662
 6803TIP3   OH241967   4.433   5.427   8.319  0.0863  0.1746 -0.2822
 6803TIP3    H141968   4.438   5.383   8.404 -4.5575  0.3489  0.3234
 6803TIP3    H241969   4.516   5.473   8.311  0.8663 -0.0872  4.0412
 6804TIP3   OH241970   3.860   2.636   2.297  0.2980 -0.1461 -0.4651
 6804TIP3    H141971   3.812   2.588   2.365 -0.9631  2.6552  0.7573
 6804TIP3    H241972   3.927   2.685   2.344  0.4850  0.5841 -1.4493
 6805TIP3   OH241973   3.280   0.665   8.620  0.5329 -0.0133  0.1620
 6805TIP3    H141974   3.199   0.643   8.574  0.4981 -0.3039  0.3584
 6805TIP3    H241975   3.346   0.674   8.551 -0.2268  2.9902 -0.2914
 6806TIP3   OH241976   3.253   4.898   1.247  0.6748 -0.2012  0.3011
 6806TIP3    H141977   3.295   4.983   1.232 -0.1200 -0.0229 -1.1499
 6806TIP3    H241978   3.188   4.891   1.177 -0.3941 -1.3039  1.3563
 6807TIP3   OH241979   2.520   4.191   0.128 -0.2830  0.3738  0.0051
 6807TIP3    H141980   2.474   4.173   0.046  3.3963 -0.3499 -2.1159
 6807TIP3    H241981   2.515   4.286   0.138  0.2335  0.6384 -1.8153
 6808TIP3   OH241982   0.365   5.419   1.902  0.0789 -0.0772  0.4065
 6808TIP3    H141983   0.395   5.339   1.859  0.4316  0.5479 -0.5525
 6808TIP3    H241984   0.394   5.490   1.844 -1.0910  0.6932  0.7225
 6809TIP3   OH241985   2.921   1.828   1.800  0.0891  0.0920 -0.2228
 6809TIP3    H141986   3.000   1.785   1.831  1.2127  0.7935 -1.9779
 6809TIP3    H241987   2.915   1.908   1.853  0.4372 -0.0607  0.0510
 6810TIP3   OH241988   6.459   3.539   8.623 -0.0949  0.2148 -0.3262
 6810TIP3    H141989   6.515   3.487   8.565 -0.5176 -2.0928  1.2064
 6810TIP3    H241990   6.458   3.626   8.583  1.0734 -0.7864 -2.7485
 6811TIP3   OH241991   1.467   1.628   0.733 -0.4545 -0.6037 -0.4941
 6811TIP3    H141992   1.456   1.723   0.725  0.7654 -0.2536  1.4552
 6811TIP3    H241993   1.561   1.615   0.735 -0.6113 -1.7642  0.0995
 6812TIP3   OH241994   4.591   2.483   0.639 -0.5402  0.0532 -0.5558
 6812TIP3    H141995   4.614   2.571   0.608 -0.6524  0.1395 -0.3951
 6812TIP3    H241996   4.578   2.494   0.733 -0.8737 -0.0696 -0.5870
 6813TIP3   OH241997   1.965   2.753   1.621 -0.7656 -0.6363  0.0631
 6813TIP3    H141998   1.874   2.782   1.634 -0.8608 -0.5862 -0.6685
 6813TIP3    H241999   1.997   2.734   1.709 -1.3684 -0.2917  0.3639
 6814TIP3   OH242000   1.966   5.468   1.182  0.4096  0.4196  0.4668
 6814TIP3    H142001   1.920   5.551   1.195 -0.1761 -0.2126  2.7813
 6814TIP3    H242002   1.922   5.428   1.107 -0.8495  1.1531  0.7966
 6815TIP3   OH242003   5.996   0.394   0.328 -0.0088 -0.1352 -0.1389
 6815TIP3    H142004   6.058   0.337   0.375 -1.0562 -0.6112  0.7159
 6815TIP3    H242005   5.910   0.359   0.351 -0.8013  2.6162  1.5703
 6816TIP3   OH242006   3.776   3.314   1.882  0.2194 -0.9370 -0.1251
 6816TIP3    H142007   3.758   3.381   1.948 -0.4861 -2.3371  1.1855
 6816TIP3    H242008   3.733   3.346   1.802  2.4500  1.5655 -0.4498
 6817TIP3   OH242009   4.235   6.068   8.574  0.1032  0.0525  0.2154
 6817TIP3    H142010   4.211   6.155   8.607 -1.7726 -0.9201  1.5709
 6817TIP3    H242011   4.184   6.058   8.493  1.3890  0.7102 -0.7212
 6818TIP3   OH242012   0.926   5.198   1.335  0.3089 -0.1836 -0.2063
 6818TIP3    H142013   0.891   5.228   1.419 -0.2518 -1.8150  0.1795
 6818TIP3    H242014   0.969   5.275   1.298  0.5426  0.5754  1.5613
 6819TIP3   OH242015   5.081   4.046   1.537 -0.9081  0.0193  0.5384
 6819TIP3    H142016   5.026   4.088   1.603 -1.2241  1.6724 -0.7044
 6819TIP3    H242017   5.116   3.969   1.581 -1.4772  0.7902  2.4727
 6820TIP3   OH242018   4.950   2.111   7.463  0.0871 -0.4165 -0.0501
 6820TIP3    H142019   5.010   2.098   7.389 -0.7467 -1.4291 -0.5667
 6820TIP3    H242020   4.878   2.051   7.447  0.2150 -1.2059  1.9575
 6821TIP3   OH242021   4.111   1.905   0.503 -0.5292  0.3550  0.2172
 6821TIP3    H142022   4.042   1.840   0.513 -0.2809 -0.0187 -0.4226
 6821TIP3    H242023   4.094   1.946   0.418  0.6073 -0.4433 -0.4095
 6822TIP3   OH242024   3.595   4.674   7.856  0.9622 -0.0689  0.4811
 6822TIP3    H142025   3.568   4.715   7.774 -0.5045 -0.6891  0.6258
 6822TIP3    H242026   3.628   4.747   7.910 -1.2258  0.9254  0.5946
 6823TIP3   OH242027   6.336   2.297   8.053 -0.1397 -0.8117 -0.0012
 6823TIP3    H142028   6.266   2.247   8.096 -0.0764 -1.4680 -0.6395
 6823TIP3    H242029   6.293   2.378   8.026  0.0144 -0.0249  1.9806
 6824TIP3   OH242030   4.640   6.708   8.244 -0.1481  0.4594  0.1392
 6824TIP3    H142031   4.598   6.762   8.177 -0.1241 -1.6613 -1.7128
 6824TIP3    H242032   4.683   6.638   8.194  1.1764 -0.3574  2.3078
 6825TIP3   OH242033   0.558   1.254   8.172 -0.2585 -0.0942 -0.0486
 6825TIP3    H142034   0.473   1.216   8.192 -0.5641 -0.1617 -1.3650
 6825TIP3    H242035   0.586   1.208   8.092  1.0087 -0.0789  0.3679
 6826TIP3   OH242036   4.344   4.108   0.478  0.6267  0.1015 -0.1115
 6826TIP3    H142037   4.422   4.065   0.441  1.7747  0.3518  1.8588
 6826TIP3    H242038   4.349   4.197   0.445  1.7372  0.3758  0.7224
 6827TIP3   OH242039   0.475   3.007   8.528 -0.3233  0.5003  0.6921
 6827TIP3    H142040   0.424   3.073   8.481 -0.7121  0.4946  1.0963
 6827TIP3    H242041   0.433   3.001   8.614  0.9486  1.1777  1.3858
 6828TIP3   OH242042   3.682   0.121   0.479 -0.0792  0.6800 -0.3238
 6828TIP3    H142043   3.661   0.054   0.544 -1.5106  1.6427  0.2533
 6828TIP3    H242044   3.619   0.191   0.495  1.7491  2.4824 -0.4813
 6829TIP3   OH242045   6.415   0.492   8.726 -0.2938 -0.1083  0.0569
 6829TIP3    H142046   6.429   0.582   8.757 -2.3158  0.4289 -0.4318
 6829TIP3    H242047   6.321   0.479   8.735  0.1556 -2.8360  1.7862
 6830TIP3   OH242048   1.138   3.673   1.115 -0.5258 -0.0133  0.4147
 6830TIP3    H142049   1.128   3.692   1.209 -0.0328 -1.9694  0.8987
 6830TIP3    H242050   1.079   3.736   1.072  1.4430  2.9920  1.7669
 6831TIP3   OH242051   0.186   5.365   0.419 -0.0907  0.3881  0.3432
 6831TIP3    H142052   0.166   5.341   0.329  0.7484 -0.8221  0.4666
 6831TIP3    H242053   0.268   5.320   0.439  0.3982  1.6302  1.3149
 6832TIP3   OH242054   1.560   1.027   7.410 -0.4531  0.1407  0.2373
 6832TIP3    H142055   1.632   1.024   7.346 -1.6269 -0.9561 -1.1011
 6832TIP3    H242056   1.598   1.069   7.487  1.7917 -0.8838 -0.2211
 6833TIP3   OH242057   1.255   3.080   1.113  0.2940 -0.0363 -0.3519
 6833TIP3    H142058   1.301   3.151   1.067 -0.7835 -0.1532 -1.6528
 6833TIP3    H242059   1.323   3.037   1.164  1.4862  0.2874 -1.6106
 6834TIP3   OH242060   1.406   4.834   2.225  0.3608 -0.5748 -0.1265
 6834TIP3    H142061   1.310   4.839   2.227  0.3366 -0.5140  2.7913
 6834TIP3    H242062   1.430   4.800   2.311  2.9911 -0.1542 -0.6115
 6835TIP3   OH242063   6.615   2.478   0.222  0.5198  0.8786  0.1207
 6835TIP3    H142064   6.586   2.422   0.294  2.1473 -0.4624 -0.2110
 6835TIP3    H242065   6.690   2.525   0.258  0.5713  1.1363 -0.3226
 6836TIP3   OH242066   0.173   3.609   1.899 -0.4558  0.2842 -0.9992
 6836TIP3    H142067   0.258   3.606   1.856 -1.0221  0.7812 -2.2311
 6836TIP3    H242068   0.134   3.691   1.868 -1.7581 -0.3976 -1.2495
 6837TIP3   OH242069   1.961   0.959   0.204 -0.6647 -0.0664 -0.3303
 6837TIP3    H142070   1.912   1.001   0.133 -0.4449 -0.0278 -0.4619
 6837TIP3    H242071   1.911   0.978   0.283 -1.3762 -0.8450 -0.5802
 6838TIP3   OH242072   4.441   0.229   6.922 -0.8052  0.6373  0.3218
 6838TIP3    H142073   4.377   0.219   6.993 -1.0551  1.1319  0.1769
 6838TIP3    H242074   4.389   0.221   6.842 -0.8270  1.7302  0.2013
 6839TIP3   OH242075   5.862   6.688   2.199  0.6807 -0.4572  0.1879
 6839TIP3    H142076   5.883   6.687   2.293  1.6456 -1.3755 -0.0158
 6839TIP3    H242077   5.797   6.618   2.189 -0.7047  0.7556  0.4204
 6840TIP3   OH242078   5.333   4.367   8.374 -0.0990 -1.1285 -0.3486
 6840TIP3    H142079   5.251   4.418   8.378 -0.4502 -1.6990 -0.1372
 6840TIP3    H242080   5.304   4.276   8.379  0.7533 -1.3622  4.2324
 6841TIP3   OH242081   4.991   2.417   1.997 -0.0181 -0.3849 -0.0691
 6841TIP3    H142082   4.929   2.380   2.059  0.0137 -2.1242 -1.0239
 6841TIP3    H242083   5.077   2.404   2.037 -0.0875 -0.2200  0.1366
 6842TIP3   OH242084   5.505   5.491   0.942  0.5130  0.0973  0.0844
 6842TIP3    H142085   5.504   5.446   0.857 -0.2262  0.7049 -0.2493
 6842TIP3    H242086   5.591   5.472   0.978  0.0189 -2.0849  0.2517
 6843TIP3   OH242087   1.098   6.108   8.301 -0.1014  0.7730 -0.3254
 6843TIP3    H142088   1.060   6.042   8.243  0.7742 -1.8791  1.8824
 6843TIP3    H242089   1.024   6.144   8.349 -0.4063 -0.5191  0.2208
 6844TIP3   OH242090   2.159   3.126   6.983  0.1156 -0.0729  0.4852
 6844TIP3    H142091   2.157   3.220   6.962  1.3833  0.2643  1.7305
 6844TIP3    H242092   2.251   3.102   6.977 -0.0490 -0.9663  1.2862
 6845TIP3   OH242093   5.421   4.349   8.671 -0.1594  0.4385  0.2438
 6845TIP3    H142094   5.456   4.365   8.583  1.0801 -1.4898  0.3317
 6845TIP3    H242095   5.428   4.434   8.716 -1.5029  1.6631 -1.6907
 6846TIP3   OH242096   2.573   5.135   2.048  0.0706 -0.2436 -0.4666
 6846TIP3    H142097   2.480   5.148   2.031 -0.4747 -0.9367  1.6746
 6846TIP3    H242098   2.618   5.183   1.978 -1.8595  3.5319  0.6624
 6847TIP3   OH242099   2.077   1.961   0.271 -0.3044  0.2940  0.3134
 6847TIP3    H142100   1.984   1.970   0.292 -0.2712  1.7020 -0.0545
 6847TIP3    H242101   2.102   2.047   0.238  0.3819 -0.9113 -2.5705
 6848TIP3   OH242102   0.660   0.839   2.189  0.4096  0.2732 -0.4993
 6848TIP3    H142103   0.696   0.763   2.142 -0.9261 -0.0455 -1.0665
 6848TIP3    H242104   0.568   0.843   2.161  0.1667  1.4413  0.3812
 6849TIP3   OH242105   6.446   5.152   0.596  0.0961 -0.6203  0.4287
 6849TIP3    H142106   6.488   5.203   0.665 -0.4050  1.6697 -0.8763
 6849TIP3    H242107   6.353   5.151   0.619 -0.1640  0.6716 -0.4793
 6850TIP3   OH242108   6.265   4.055   1.387  0.2995 -0.1963  0.4703
 6850TIP3    H142109   6.181   4.039   1.430 -1.1774  2.6031 -1.1106
 6850TIP3    H242110   6.320   4.093   1.456 -0.9969  1.4041  0.6670
 6851TIP3   OH242111   3.925   6.022   7.999 -0.2898 -0.3051  0.2618
 6851TIP3    H142112   3.892   6.085   8.063 -1.1174  0.5328 -0.9681
 6851TIP3    H242113   3.916   5.937   8.043  0.6378  0.3772  1.8501
 6852TIP3   OH242114   1.233   5.244   8.651  0.2038 -0.0195  0.3720
 6852TIP3    H142115   1.202   5.326   8.611 -0.4802 -1.1867 -1.6928
 6852TIP3    H242116   1.153   5.199   8.678  0.3875 -0.9549 -0.5708
 6853TIP3   OH242117   3.722   6.416   1.955  0.6266 -0.3031  0.1664
 6853TIP3    H142118   3.773   6.379   1.883  2.5553 -1.4982  1.9889
 6853TIP3    H242119   3.729   6.511   1.944  0.5704 -0.4594 -1.3796
 6854TIP3   OH242120   4.498   4.330   1.540 -0.0613  0.1092  0.8509
 6854TIP3    H142121   4.429   4.338   1.473  1.9846  2.6245 -1.1944
 6854TIP3    H242122   4.536   4.244   1.524 -0.1800  0.3069 -0.7173
 6855TIP3   OH242123   1.291   2.820   0.501 -0.7803 -0.1527 -0.2754
 6855TIP3    H142124   1.215   2.776   0.464 -1.8697  0.5575  0.9943
 6855TIP3    H242125   1.317   2.766   0.576 -0.8336  0.2453  0.0407
 6856TIP3   OH242126   3.977   3.589   1.545 -0.3882  0.6515 -0.4269
 6856TIP3    H142127   3.938   3.515   1.497  1.8764 -0.1488 -1.1771
 6856TIP3    H242128   3.957   3.571   1.637 -0.9146 -0.2556 -0.7018
 6857TIP3   OH242129   3.118   4.187   7.067 -0.1830 -0.7440  0.4372
 6857TIP3    H142130   3.177   4.198   6.992  0.4417 -0.6011  0.9327
 6857TIP3    H242131   3.160   4.119   7.120  0.7000  0.8380  1.8736
 6858TIP3   OH242132   6.518   2.073   8.069 -0.2764  0.0188  0.4330
 6858TIP3    H142133   6.473   2.137   8.014 -0.1809 -0.2798  0.0026
 6858TIP3    H242134   6.596   2.050   8.019  0.6485  0.9358  1.4208
 6859TIP3   OH242135   4.059   0.149   1.199 -0.1605  0.5946 -0.1972
 6859TIP3    H142136   3.966   0.127   1.203 -0.3142  1.2265 -0.2346
 6859TIP3    H242137   4.076   0.166   1.106 -0.2690  1.5771 -0.0444
 6860TIP3   OH242138   0.963   5.940   8.136 -0.3063  0.1309 -0.0511
 6860TIP3    H142139   0.890   5.970   8.083  1.1054 -2.0395 -3.5508
 6860TIP3    H242140   0.927   5.870   8.191 -1.5564  1.6867  1.2124
 6861TIP3   OH242141   1.861   3.042   1.286 -0.6056  0.0081  0.4942
 6861TIP3    H142142   1.832   2.999   1.367 -1.7443 -1.7610 -0.7929
 6861TIP3    H242143   1.859   3.135   1.307  0.5582 -0.4323  2.9488
 6862TIP3   OH242144   0.020   1.089   8.672 -0.2429 -0.5168 -0.5672
 6862TIP3    H142145   0.098   1.140   8.694  0.3617 -2.1713  1.4917
 6862TIP3    H242146  -0.054   1.146   8.692  0.4187  0.4378 -0.8031
 6863TIP3   OH242147   5.677   4.192   0.449 -0.1895 -0.0560 -0.7929
 6863TIP3    H142148   5.676   4.137   0.528 -1.0583  1.3952  0.2677
 6863TIP3    H242149   5.656   4.133   0.378  0.9934 -1.4932  0.0108
 6864TIP3   OH242150   0.431   3.651   0.791  0.3640  0.1397  0.1749
 6864TIP3    H142151   0.395   3.682   0.874  0.5828  0.3655  0.1865
 6864TIP3    H242152   0.511   3.605   0.816  0.8804  0.9340  0.0188
 6865TIP3   OH242153   6.669   6.656   1.109  0.1752  0.0669  0.8352
 6865TIP3    H142154   6.748   6.658   1.055  0.9306 -2.1383  1.7358
 6865TIP3    H242155   6.632   6.744   1.101  1.0757  0.2953 -2.0179
 6866TIP3   OH242156   0.978   6.280   7.446  0.9125  0.0859 -0.2621
 6866TIP3    H142157   0.906   6.217   7.452 -0.5564  1.7044 -0.2318
 6866TIP3    H242158   1.017   6.263   7.360  1.3238 -1.6316  0.2344
 6867TIP3   OH242159   6.584   0.336   1.466 -0.1057 -0.2652  0.2779
 6867TIP3    H142160   6.493   0.363   1.454 -0.6343 -1.3609  1.5247
 6867TIP3    H242161   6.600   0.272   1.397 -0.1590  0.2145 -0.1801
 6868TIP3   OH242162   5.900   0.428   7.467  0.8101 -0.2954  0.4098
 6868TIP3    H142163   5.814   0.395   7.491  0.9794 -0.3927  0.8988
 6868TIP3    H242164   5.950   0.425   7.549  1.2711 -0.2315  0.1318
 6869TIP3   OH242165   2.833   3.559   1.830 -0.3730 -0.2317  0.3171
 6869TIP3    H142166   2.780   3.603   1.897  0.1425 -0.1626  0.6837
 6869TIP3    H242167   2.920   3.599   1.838 -0.0710 -0.8669  0.2171
 6870TIP3   OH242168   0.807   3.789   7.991  0.0906 -0.1379  0.4759
 6870TIP3    H142169   0.864   3.712   7.995  1.7206  1.0085  0.5168
 6870TIP3    H242170   0.788   3.799   7.897  1.3542  0.4097  0.2602
 6871TIP3   OH242171   2.997   0.228   2.165 -0.3392 -0.3114  0.2761
 6871TIP3    H142172   2.942   0.191   2.096 -1.6095  0.4751  0.8389
 6871TIP3    H242173   2.940   0.289   2.212  1.3476  1.5369  0.0749
 6872TIP3   OH242174   1.737   2.981   0.003  0.5189 -0.1223 -0.6947
 6872TIP3    H142175   1.827   3.012   0.003  1.0842 -1.6510  0.0560
 6872TIP3    H242176   1.743   2.889   0.028 -1.2584 -0.2482 -0.5683
 6873TIP3   OH242177   0.087   2.200   8.158  0.1222  0.0698 -0.8745
 6873TIP3    H142178   0.175   2.161   8.162  0.0474 -0.0986 -0.8327
 6873TIP3    H242179   0.043   2.151   8.088  0.0196  0.0643 -0.8053
 6874TIP3   OH242180   5.180   5.451   2.798  0.2435  0.9947 -0.3144
 6874TIP3    H142181   5.128   5.477   2.874  0.2561 -0.7176  0.3354
 6874TIP3    H242182   5.265   5.427   2.834 -0.1242 -1.0205 -0.6221
 6875TIP3   OH242183   1.918   0.325   0.125 -0.6360  0.4260  0.2456
 6875TIP3    H142184   1.884   0.367   0.204  0.4944 -0.4316  1.2193
 6875TIP3    H242185   1.956   0.396   0.074 -1.6694  1.0356  0.2988
 6876TIP3   OH242186   5.278   0.649   1.956 -0.4414 -0.7184  0.1354
 6876TIP3    H142187   5.314   0.572   1.911  1.1864 -0.7448  1.3899
 6876TIP3    H242188   5.214   0.684   1.895  2.0426 -0.4165 -2.5292
 6877TIP3   OH242189   2.545   5.853   0.332  1.0048 -0.7005  0.3228
 6877TIP3    H142190   2.515   5.762   0.331  0.5091 -0.6219 -3.0337
 6877TIP3    H242191   2.599   5.861   0.254  0.6316  2.0073  0.2569
 6878TIP3   OH242192   6.187   5.664   8.525  0.4645 -0.4561  0.2009
 6878TIP3    H142193   6.235   5.729   8.474  0.0510  0.3082  0.7645
 6878TIP3    H242194   6.253   5.622   8.580  0.4721  0.7268  1.1180
 6879TIP3   OH242195   4.010   4.473   7.970  0.2564 -0.3951 -0.0855
 6879TIP3    H142196   4.095   4.516   7.979 -0.1234  0.1227  1.5199
 6879TIP3    H242197   3.947   4.540   7.997 -0.4163 -1.6418  1.6710
 6880TIP3   OH242198   5.062   0.005   7.533 -0.4007  0.3221 -0.3190
 6880TIP3    H142199   4.974  -0.015   7.565  0.0054  1.7706  1.9443
 6880TIP3    H242200   5.049   0.079   7.474 -0.8008 -0.2715 -0.9993
 6881TIP3   OH242201   4.295   0.250   1.825  0.0068  0.1912 -0.0525
 6881TIP3    H142202   4.224   0.195   1.861  0.2851  0.3308  0.7378
 6881TIP3    H242203   4.325   0.202   1.748 -3.1038  1.6930 -2.4025
 6882TIP3   OH242204   5.055   3.418   8.223  0.0493  0.2447  0.0498
 6882TIP3    H142205   5.074   3.341   8.277 -1.9822  0.2731  0.9151
 6882TIP3    H242206   5.095   3.491   8.270  1.1250 -0.1428 -0.2477
 6883TIP3   OH242207   2.697   5.035   8.154 -0.0351 -0.3813 -0.2102
 6883TIP3    H142208   2.672   4.980   8.228 -0.7274 -0.3055 -0.3828
 6883TIP3    H242209   2.730   5.116   8.194  0.7951 -0.8375  0.0371
 6884TIP3   OH242210   5.569   2.739   0.502 -0.4379  0.2544  0.0619
 6884TIP3    H142211   5.618   2.794   0.563  1.1531  0.4453 -1.3294
 6884TIP3    H242212   5.545   2.662   0.554 -0.0201  0.8570  1.1979
 6885TIP3   OH242213   3.909   2.180   1.498 -0.2023 -0.0992  0.6561
 6885TIP3    H142214   3.831   2.138   1.535 -0.8488 -1.6140 -2.1398
 6885TIP3    H242215   3.877   2.222   1.419  1.9731 -1.8144 -1.2507
 6886TIP3   OH242216   3.009   5.658   8.523 -0.7412  0.3773  0.1034
 6886TIP3    H142217   3.101   5.631   8.521 -0.2156  1.6164  2.5806
 6886TIP3    H242218   2.960   5.576   8.518  0.5832 -0.5164  0.9236
 6887TIP3   OH242219   5.310   2.484   0.941 -0.5001 -0.2175 -1.2597
 6887TIP3    H142220   5.340   2.561   0.991 -0.4202 -1.9438  1.5584
 6887TIP3    H242221   5.215   2.483   0.953 -0.4220 -0.9468 -0.6294
 6888TIP3   OH242222   1.032   0.559   7.224  0.5051  0.2993 -0.5067
 6888TIP3    H142223   1.062   0.468   7.227 -1.9098 -0.6843 -2.6655
 6888TIP3    H242224   1.112   0.610   7.236  2.0022 -2.0526  0.4432
 6889TIP3   OH242225   6.310   0.363   1.461  0.0990 -0.2702 -0.2184
 6889TIP3    H142226   6.223   0.323   1.453 -0.0422 -0.1526  0.7016
 6889TIP3    H242227   6.307   0.437   1.399 -0.6924  0.1299  0.2803
 6890TIP3   OH242228   0.628   2.904   6.835  0.1654 -0.2771  0.5331
 6890TIP3    H142229   0.653   2.914   6.743  0.2223 -1.7807  0.3614
 6890TIP3    H242230   0.636   2.810   6.852 -0.7346 -0.1432  1.8281
 6891TIP3   OH242231   2.960   2.647   2.426  0.0578 -0.3111 -0.0572
 6891TIP3    H142232   2.894   2.714   2.444 -0.6407 -1.6694  2.8979
 6891TIP3    H242233   3.043   2.690   2.445 -0.2412  0.2601 -0.0070
 6892TIP3   OH242234   3.172   1.683   7.207  0.1972 -0.4354 -0.0937
 6892TIP3    H142235   3.111   1.704   7.278  0.2579 -0.9491  0.1110
 6892TIP3    H242236   3.137   1.603   7.168  0.4227 -0.4093 -0.3518
 6893TIP3   OH242237   2.720   2.253   1.805  0.1182 -0.2207  0.1693
 6893TIP3    H142238   2.627   2.278   1.807  0.1807 -0.0206  0.8393
 6893TIP3    H242239   2.752   2.289   1.722 -0.3057  0.0782  0.1289
 6894TIP3   OH242240   2.950   5.561   8.163 -0.6423 -0.1497  0.4182
 6894TIP3    H142241   2.975   5.565   8.255  0.0504  0.8790  0.2069
 6894TIP3    H242242   2.869   5.510   8.162  0.5283 -2.1246  1.3308
 6895TIP3   OH242243   6.180   5.062   0.268  0.0211 -0.1985  0.7728
 6895TIP3    H142244   6.143   5.001   0.205 -2.6669  1.4165  0.6044
 6895TIP3    H242245   6.169   5.148   0.227  2.2939  0.5575  1.6177
 6896TIP3   OH242246   3.164   3.067   0.320  0.6100  0.1481  0.8430
 6896TIP3    H142247   3.173   2.983   0.365 -0.0223 -0.3670  0.0579
 6896TIP3    H242248   3.085   3.106   0.357  0.1482 -0.2286  0.2806
 6897TIP3   OH242249   2.122   6.185   2.195 -0.1624  0.0137  0.1640
 6897TIP3    H142250   2.187   6.180   2.265 -0.3021 -0.0113  0.2922
 6897TIP3    H242251   2.170   6.162   2.115 -0.0270 -0.0584  0.2669
 6898TIP3   OH242252   5.089   6.163   8.177  0.2572 -0.0976  0.3065
 6898TIP3    H142253   5.034   6.092   8.209 -1.3715  0.9005 -0.1015
 6898TIP3    H242254   5.137   6.125   8.103 -1.8291 -0.4240 -0.9899
 6899TIP3   OH242255   2.450   3.682   0.949  0.1418  0.7190 -0.0418
 6899TIP3    H142256   2.414   3.763   0.914 -1.8901  0.7935  2.0248
 6899TIP3    H242257   2.374   3.634   0.983  1.1466 -2.3858 -1.6980
 6900TIP3   OH242258   6.489   0.041   0.536  0.1400 -0.2979 -0.1938
 6900TIP3    H142259   6.527  -0.047   0.544 -0.8300 -1.2456 -3.7739
 6900TIP3    H242260   6.419   0.030   0.471  1.5988  3.4872 -2.7653
 6901TIP3   OH242261   5.930   2.256   7.571  0.4517  0.1692  0.2394
 6901TIP3    H142262   5.946   2.316   7.498  1.0812 -0.7133 -0.3626
 6901TIP3    H242263   6.015   2.218   7.590  0.1531 -0.1510  0.9651
 6902TIP3   OH242264   1.488   1.355   0.218  0.2944  0.5223 -0.0533
 6902TIP3    H142265   1.571   1.312   0.235 -0.4462 -1.3091 -0.8484
 6902TIP3    H242266   1.426   1.284   0.204 -1.1821  1.8457 -0.5560
 6903TIP3   OH242267   3.143   6.572   8.696  0.4390  0.4287 -0.0010
 6903TIP3    H142268   3.155   6.591   8.789 -1.2367  0.9994  0.1220
 6903TIP3    H242269   3.102   6.650   8.661 -0.8809 -0.5890 -0.7861
 6904TIP3   OH242270   5.946   4.835   2.105  0.6474 -0.0709  0.0620
 6904TIP3    H142271   6.016   4.864   2.046  1.4688 -0.2770  0.9062
 6904TIP3    H242272   5.984   4.761   2.153  0.5515  0.9967  1.8895
 6905TIP3   OH242273   4.344   0.199   8.237 -0.0580  0.0519  0.3099
 6905TIP3    H142274   4.298   0.117   8.251  0.4535 -0.0556  1.5642
 6905TIP3    H242275   4.276   0.267   8.244 -0.7631 -0.2959 -2.3072
 6906TIP3   OH242276   4.859   1.265   1.849 -0.1063  0.5057  0.1975
 6906TIP3    H142277   4.863   1.185   1.901 -0.9576  2.1800  3.0912
 6906TIP3    H242278   4.888   1.334   1.909 -2.2794  2.7725 -1.1595
 6907TIP3   OH242279   3.508   3.283   0.871  0.1331 -0.2364 -0.0905
 6907TIP3    H142280   3.547   3.285   0.784  0.1029  1.7837 -0.0899
 6907TIP3    H242281   3.547   3.357   0.918  0.3126 -1.3889  1.7165
 6908TIP3   OH242282   5.613   0.092   2.428  0.6761  0.2171  0.0801
 6908TIP3    H142283   5.596   0.142   2.347  2.5167 -1.9842 -1.8191
 6908TIP3    H242284   5.706   0.108   2.446  0.7954 -0.9749  0.5588
 6909TIP3   OH242285   1.395   0.598   2.547  0.6000 -0.5883  0.0227
 6909TIP3    H142286   1.463   0.588   2.614 -1.4759  0.8776  2.5618
 6909TIP3    H242287   1.339   0.522   2.560 -0.3099  0.1641  0.6445
 6910TIP3   OH242288   6.640   0.225   1.019 -0.4348 -0.0283 -0.8984
 6910TIP3    H142289   6.673   0.202   0.932 -0.3200 -2.4719 -0.2933
 6910TIP3    H242290   6.570   0.162   1.035 -1.3869  1.2624  0.2523
 6911TIP3   OH242291   1.456   5.077   8.171  0.7102 -0.1115 -0.0858
 6911TIP3    H142292   1.434   5.137   8.243  0.5291  0.9407 -0.9840
 6911TIP3    H242293   1.551   5.087   8.160  0.9536 -1.2475  0.8349
 6912TIP3   OH242294   4.573   2.369   8.131  0.0251  0.4609 -0.1352
 6912TIP3    H142295   4.552   2.277   8.147  0.3917  0.4272  0.1579
 6912TIP3    H242296   4.668   2.374   8.139  0.0974  0.6994 -1.0117
 6913TIP3   OH242297   3.383   1.710   0.524 -0.4538  0.2300 -0.3815
 6913TIP3    H142298   3.368   1.622   0.489 -2.8696 -0.2751  1.6098
 6913TIP3    H242299   3.438   1.695   0.601 -1.3766  0.3469  0.3157
 6914TIP3   OH242300   4.696   5.525   0.518  0.1344 -0.0125  0.5825
 6914TIP3    H142301   4.621   5.474   0.551  0.2131  0.0770  0.8997
 6914TIP3    H242302   4.665   5.560   0.435 -0.9350  1.7314  1.6595
 6915TIP3   OH242303   5.295   6.325   8.155 -0.4678 -0.0329  0.4357
 6915TIP3    H142304   5.207   6.289   8.166 -0.1081 -0.4721  2.1890
 6915TIP3    H242305   5.328   6.337   8.244  1.5263 -0.5623 -0.1665
 6916TIP3   OH242306   5.700   5.304   2.780  0.5653  0.1659 -0.0012
 6916TIP3    H142307   5.665   5.247   2.711 -0.0658  0.0232  0.4181
 6916TIP3    H242308   5.735   5.244   2.846 -0.3321  0.2237  0.5631
 6917TIP3   OH242309   4.246   0.975   0.464  0.2532 -0.2530  0.3181
 6917TIP3    H142310   4.197   0.897   0.491  3.1540 -2.7271 -0.9156
 6917TIP3    H242311   4.256   0.965   0.370  3.2491 -0.0974  0.5266
 6918TIP3   OH242312   1.407   4.333   0.706 -0.1296 -0.0243 -0.7915
 6918TIP3    H142313   1.312   4.330   0.697 -0.0287 -0.6214 -1.8053
 6918TIP3    H242314   1.440   4.300   0.623  0.9662 -1.0063 -0.0008
 6919TIP3   OH242315   2.474   1.490   1.711 -0.2758 -0.4119 -0.9732
 6919TIP3    H142316   2.384   1.513   1.733  0.1877  0.6164 -0.0656
 6919TIP3    H242317   2.489   1.531   1.626 -0.0885  1.0334 -0.2702
 6920TIP3   OH242318   6.234   4.989   8.445 -0.1061  0.1794 -1.0081
 6920TIP3    H142319   6.155   4.952   8.406  1.0150 -2.7072 -0.7726
 6920TIP3    H242320   6.288   5.015   8.370 -0.2600 -0.1494 -1.2349
 6921TIP3   OH242321   6.495   4.972   0.868  0.3527  0.4481 -0.3303
 6921TIP3    H142322   6.531   4.958   0.780 -0.9856 -0.2876 -0.7990
 6921TIP3    H242323   6.403   4.994   0.853  0.0612  0.1593  0.8952
 6922TIP3   OH242324   5.691   4.105   1.106  0.2885  0.8491  0.4363
 6922TIP3    H142325   5.654   4.151   1.181  1.2812  1.2538  0.6889
 6922TIP3    H242326   5.777   4.144   1.094  0.6695 -0.1234 -0.0944
 6923TIP3   OH242327   6.609   0.774   0.791 -0.3897 -0.7065  0.5319
 6923TIP3    H142328   6.685   0.776   0.848 -0.0870  2.1878  0.1979
 6923TIP3    H242329   6.615   0.690   0.745  1.0872 -1.7028  2.4244
 6924TIP3   OH242330   3.278   5.489   1.004 -0.5804  0.4947  0.1874
 6924TIP3    H142331   3.215   5.419   1.024 -1.4005  1.0622 -0.3653
 6924TIP3    H242332   3.329   5.456   0.930 -0.7683  0.3658  0.1173
 6925TIP3   OH242333   3.738   0.066   3.087 -0.1653  0.4553  0.0393
 6925TIP3    H142334   3.831   0.087   3.097  0.2773 -1.7124  1.1490
 6925TIP3    H242335   3.696   0.109   3.161  0.0638  0.8134 -0.0341
 6926TIP3   OH242336   4.454   6.803   3.235  0.1618  0.4008 -0.0176
 6926TIP3    H142337   4.511   6.753   3.176  0.2706  1.0335 -0.4622
 6926TIP3    H242338   4.447   6.749   3.313  1.4791  0.3686  0.1052
 6927TIP3   OH242339   0.295   1.469   2.514  0.6282  0.2588 -0.2721
 6927TIP3    H142340   0.352   1.405   2.557 -0.5126 -0.8373 -0.3295
 6927TIP3    H242341   0.324   1.470   2.423  1.0892  0.3347 -0.1279
 6928TIP3   OH242342   3.478   3.548   1.238  0.5054  0.3285 -0.1437
 6928TIP3    H142343   3.404   3.555   1.177 -0.0905  1.2885  0.6560
 6928TIP3    H242344   3.520   3.465   1.216 -2.1663 -1.4144  0.8628
 6929TIP3   OH242345   2.777   3.413   8.320 -0.4447 -1.1838 -0.7750
 6929TIP3    H142346   2.693   3.376   8.293 -1.2414 -0.0308  0.0435
 6929TIP3    H242347   2.814   3.451   8.240 -1.1956 -0.7951 -0.9463
 6930TIP3   OH242348   3.540   0.859   8.107  0.0221 -0.2108  0.0293
 6930TIP3    H142349   3.531   0.947   8.070  2.1375  0.6623  1.3918
 6930TIP3    H242350   3.457   0.844   8.153 -0.0406  1.4393  0.5070
 6931TIP3   OH242351   6.103   4.442   2.053 -0.0599  0.0629  0.4308
 6931TIP3    H142352   6.104   4.471   1.962  0.3695 -1.0169  0.0810
 6931TIP3    H242353   6.051   4.362   2.052  1.8512 -1.2257  0.7124
 6932TIP3   OH242354   1.342   0.839   2.422  0.2657  0.2149  0.0357
 6932TIP3    H142355   1.380   0.826   2.335 -0.8216 -0.8681 -0.2961
 6932TIP3    H242356   1.346   0.753   2.463 -0.0539  0.5208  0.7286
 6933TIP3   OH242357   1.073   2.373   1.440  0.7418  0.4782 -0.3923
 6933TIP3    H142358   1.000   2.365   1.501  1.5168 -0.3519  0.4531
 6933TIP3    H242359   1.092   2.467   1.438 -0.1586  0.6756 -0.4206
 6934TIP3   OH242360   0.944   3.357   8.661  0.5189 -0.5095 -0.7976
 6934TIP3    H142361   0.869   3.304   8.633  0.0955  0.4856 -1.6071
 6934TIP3    H242362   0.963   3.413   8.587  2.4589 -1.1204 -0.8113
 6935TIP3   OH242363   5.924   3.006   1.842 -0.3670 -0.1082 -0.3227
 6935TIP3    H142364   5.847   3.057   1.817  1.8224  2.8626 -1.5980
 6935TIP3    H242365   5.992   3.034   1.782  2.2236 -1.2499  1.8592
 6936TIP3   OH242366   0.462   3.510   0.259 -0.1746 -0.3273 -0.3590
 6936TIP3    H142367   0.448   3.461   0.340 -0.2056 -0.1305 -0.2437
 6936TIP3    H242368   0.502   3.447   0.199 -1.8584 -1.0078 -0.8078
 6937TIP3   OH242369   4.896   6.251   2.656  0.0230 -0.0675 -0.1338
 6937TIP3    H142370   4.987   6.268   2.633 -0.1119  1.1625  0.1789
 6937TIP3    H242371   4.901   6.205   2.740  0.3903 -1.5949 -0.9467
 6938TIP3   OH242372   3.045   1.616   8.156 -0.0897  0.5827 -0.2447
 6938TIP3    H142373   3.066   1.525   8.177 -0.0719  0.9156  1.2719
 6938TIP3    H242374   3.026   1.615   8.062  1.5094 -0.6886 -0.6137
 6939TIP3   OH242375   5.109   3.308   2.642  0.0885  0.3491  0.2771
 6939TIP3    H142376   5.119   3.277   2.732  0.6511 -0.0340  0.0855
 6939TIP3    H242377   5.045   3.379   2.649 -1.4897 -1.0179  0.6900
 6940TIP3   OH242378   3.215   6.723   6.947  0.5380 -0.3400  0.1566
 6940TIP3    H142379   3.217   6.813   6.980  1.0073 -0.8400  1.5834
 6940TIP3    H242380   3.300   6.687   6.972 -0.3078 -1.7076  1.1885
 6941TIP3   OH242381   4.394   0.215   7.560  0.5061  0.0280  0.1554
 6941TIP3    H142382   4.323   0.249   7.505  0.1281  0.3536  0.8341
 6941TIP3    H242383   4.458   0.181   7.498 -0.6522 -1.1276 -0.4653
 6942TIP3   OH242384   2.523   5.817   7.405 -0.0726  0.7874  0.2054
 6942TIP3    H142385   2.489   5.737   7.364  2.0696  0.4109 -0.9613
 6942TIP3    H242386   2.504   5.886   7.342  1.0746  0.6106 -0.3522
 6943TIP3   OH242387   0.344   4.628   7.944  0.1216 -0.5877  0.7117
 6943TIP3    H142388   0.381   4.542   7.922 -0.9791 -1.1748  1.1031
 6943TIP3    H242389   0.285   4.648   7.872  0.0154 -0.3711  0.8584
 6944TIP3   OH242390   0.377   3.811   8.524  0.3119  0.5740 -0.0851
 6944TIP3    H142391   0.374   3.749   8.451  0.6232 -0.8284  1.0512
 6944TIP3    H242392   0.302   3.869   8.510  0.6753  0.6758 -1.7947
 6945TIP3   OH242393   2.672   2.870   1.453 -0.3087 -0.0937  0.2908
 6945TIP3    H142394   2.748   2.924   1.434 -0.6998 -0.0534 -1.2701
 6945TIP3    H242395   2.678   2.798   1.390 -2.8034  1.1665 -1.5414
 6946TIP3   OH242396   6.545   6.707   8.678 -0.2451  0.2903 -0.3617
 6946TIP3    H142397   6.639   6.706   8.661 -0.3590 -1.3442 -1.1315
 6946TIP3    H242398   6.525   6.617   8.703 -1.6136  0.6032 -0.2622
 6947TIP3   OH242399   2.899   2.370   7.830  1.2298  0.5694  0.1074
 6947TIP3    H142400   2.808   2.351   7.855  1.8981  0.8989  3.1022
 6947TIP3    H242401   2.897   2.462   7.802  0.4969  0.2603 -0.9527
 6948TIP3   OH242402   1.965   3.198   0.497  0.0468 -0.3769  0.3071
 6948TIP3    H142403   1.967   3.103   0.485  1.3111 -0.3044 -0.2036
 6948TIP3    H242404   2.032   3.232   0.438 -1.6883  1.0306 -0.9967
 6949TIP3   OH242405   2.752   4.255   1.070 -0.0194  0.1976  0.1598
 6949TIP3    H142406   2.755   4.298   1.156  3.0722 -1.1589  0.8767
 6949TIP3    H242407   2.734   4.163   1.089 -0.3395  0.0567 -0.7627
 6950TIP3   OH242408   3.412   4.792   8.524 -0.3880  0.1873 -0.1178
 6950TIP3    H142409   3.439   4.788   8.615 -2.0010 -0.9109  0.3540
 6950TIP3    H242410   3.480   4.843   8.480  0.9883 -0.2391  1.4677
 6951TIP3   OH242411   5.960   0.307   2.813  0.5233  0.4130 -0.2888
 6951TIP3    H142412   6.028   0.341   2.872  2.1671  0.6003 -2.1660
 6951TIP3    H242413   5.904   0.383   2.795  0.0046  0.3519  0.9782
 6952TIP3   OH242414   1.863   2.900   8.318 -0.3470  0.1460  0.4560
 6952TIP3    H142415   1.775   2.876   8.288  0.3030 -1.6093 -0.1919
 6952TIP3    H242416   1.895   2.821   8.362  1.1748  0.5085  0.0469
 6953TIP3   OH242417   3.100   0.974   0.212  0.4377  0.7185  0.3183
 6953TIP3    H142418   3.056   1.053   0.243  0.4797  0.6675  0.5120
 6953TIP3    H242419   3.040   0.902   0.234  0.8368  0.5950  1.0555
 6954TIP3   OH242420   1.982   5.624   8.270 -0.5174 -0.4917 -0.4353
 6954TIP3    H142421   2.036   5.553   8.235  1.3306 -0.1210  1.5083
 6954TIP3    H242422   2.027   5.704   8.243  1.2658 -0.1903  2.9537
 6955TIP3   OH242423   1.295   6.636   8.001 -0.0530  0.1390 -0.9480
 6955TIP3    H142424   1.264   6.723   7.977 -1.2548  0.4584  1.4470
 6955TIP3    H242425   1.384   6.650   8.034 -1.4690  1.2195  2.9176
 6956TIP3   OH242426   0.770   2.989   1.484  0.2876 -0.3422 -0.0387
 6956TIP3    H142427   0.815   3.014   1.403  1.5361 -0.9007  0.4476
 6956TIP3    H242428   0.768   2.893   1.481 -1.3293 -0.3204 -0.2652
 6957TIP3   OH242429   5.316   5.742   3.002  0.4470 -0.1266 -0.4269
 6957TIP3    H142430   5.325   5.735   2.907  0.3046  0.1553 -0.4618
 6957TIP3    H242431   5.377   5.811   3.027 -0.5793  0.8173 -0.4936
 6958TIP3   OH242432   0.657   4.548   3.174  0.3682  0.0119 -0.2467
 6958TIP3    H142433   0.719   4.492   3.222  0.0931  1.8348  2.4615
 6958TIP3    H242434   0.571   4.520   3.204 -0.0174 -0.6369 -1.8586
 6959TIP3   OH242435   5.216   4.240   7.980 -0.0259 -0.1354 -0.0925
 6959TIP3    H142436   5.151   4.178   7.945 -0.4917 -0.7583  1.7504
 6959TIP3    H242437   5.299   4.194   7.974 -0.1788 -0.4387  0.0637
 6960TIP3   OH242438   3.984   1.229   7.200  0.0682 -0.0229  1.4059
 6960TIP3    H142439   4.033   1.168   7.255  0.9346 -1.6119 -0.9747
 6960TIP3    H242440   3.892   1.208   7.215  0.3492 -2.2664  0.3692
 6961TIP3   OH242441   6.620   4.055   7.499 -0.1621 -0.3326  0.2289
 6961TIP3    H142442   6.549   3.992   7.500  0.0299 -0.5535  0.0640
 6961TIP3    H242443   6.642   4.066   7.406 -0.7433  0.6008  0.1861
 6962TIP3   OH242444   1.411   1.296   1.056 -0.4963 -0.0763 -0.2211
 6962TIP3    H142445   1.400   1.336   1.143 -1.9119 -1.5068  0.3201
 6962TIP3    H242446   1.331   1.321   1.009 -1.0510 -1.5757 -0.1247
 6963TIP3   OH242447   5.355   6.060   0.234 -0.5480 -0.2660  0.0446
 6963TIP3    H142448   5.271   6.020   0.213 -0.9930 -0.4351  1.9360
 6963TIP3    H242449   5.332   6.145   0.271  0.2623  0.6709 -1.4992
 6964TIP3   OH242450   1.904   2.477   2.451  0.1318  0.1610  0.0372
 6964TIP3    H142451   1.984   2.507   2.408 -1.1506 -0.2062 -2.8659
 6964TIP3    H242452   1.854   2.556   2.467  0.0178  0.1933 -0.4728
 6965TIP3   OH242453   2.738   6.807   1.648  0.3411 -0.1836 -0.3221
 6965TIP3    H142454   2.761   6.775   1.560  1.4032  2.1977 -1.0163
 6965TIP3    H242455   2.772   6.740   1.707  2.5605 -0.3498 -1.6467
 6966TIP3   OH242456   3.919   2.086   1.162 -0.3598  0.4053 -0.3950
 6966TIP3    H142457   3.903   2.178   1.181 -0.0496  0.2761  0.4949
 6966TIP3    H242458   3.970   2.054   1.236 -0.1794 -0.4036 -0.8574
 6967TIP3   OH242459   3.232   5.828   2.221 -0.2921 -0.0278 -0.8159
 6967TIP3    H142460   3.326   5.812   2.224 -0.5064 -1.3393  0.5370
 6967TIP3    H242461   3.203   5.784   2.141  0.1916  0.0774 -1.0539
 6968TIP3   OH242462   2.915   2.188   2.196 -0.4887 -0.2343  0.2839
 6968TIP3    H142463   2.900   2.240   2.275  2.0000  1.3041 -0.1335
 6968TIP3    H242464   3.010   2.193   2.182 -0.4443 -3.0896 -1.0738
 6969TIP3   OH242465   5.778   0.055   1.414 -0.0146  0.3547  0.1365
 6969TIP3    H142466   5.841   0.043   1.485  0.8170  0.8156 -0.5084
 6969TIP3    H242467   5.694   0.066   1.458  0.3099 -0.5203  0.9988
 6970TIP3   OH242468   4.692   1.460   2.428 -0.1445  0.0015  0.0680
 6970TIP3    H142469   4.605   1.495   2.444 -0.7696 -1.2064 -0.5369
 6970TIP3    H242470   4.728   1.517   2.360 -1.2171 -0.6056 -1.0480
 6971TIP3   OH242471   1.534   4.626   8.555  0.5972  0.3894 -0.3285
 6971TIP3    H142472   1.454   4.581   8.529  0.6593  0.3073 -0.3797
 6971TIP3    H242473   1.528   4.712   8.514  0.5762  0.3512 -0.4064
 6972TIP3   OH242474   1.008   0.227   2.094  0.5539  0.5223  0.0381
 6972TIP3    H142475   1.063   0.150   2.109  0.8463  0.5322 -0.9395
 6972TIP3    H242476   0.962   0.208   2.012  1.7418  1.9985 -1.0271
 6973TIP3   OH242477   4.196   1.267   1.688 -0.0513  0.2046  0.1666
 6973TIP3    H142478   4.248   1.188   1.700 -1.0522 -0.7840 -1.5834
 6973TIP3    H242479   4.146   1.275   1.769 -0.6041 -1.5057  0.0377
 6974TIP3   OH242480   5.527   0.314   7.850 -0.0360  0.0922  0.2251
 6974TIP3    H142481   5.590   0.351   7.912  0.0314  1.9745 -0.8717
 6974TIP3    H242482   5.580   0.255   7.796  0.2076 -0.4144  0.9986
 6975TIP3   OH242483   4.072   6.724   7.896  0.3025  0.6923  0.0288
 6975TIP3    H142484   4.100   6.814   7.915  0.1720  0.9608 -1.0032
 6975TIP3    H242485   4.153   6.673   7.900  0.6361  1.1294 -0.9624
 6976TIP3   OH242486   0.971   1.031   0.922  0.0974 -0.6944 -0.5327
 6976TIP3    H142487   1.003   1.107   0.874 -1.2112 -0.1015 -0.5169
 6976TIP3    H242488   1.050   0.984   0.949  0.9546  1.0026  0.0527
 6977TIP3   OH242489   3.922   2.819   1.764 -0.2759 -0.0602 -0.2063
 6977TIP3    H142490   3.965   2.792   1.845 -0.4465  0.4229  0.0514
 6977TIP3    H242491   3.830   2.799   1.777 -0.0292 -2.0424 -1.1560
 6978TIP3   OH242492   0.643   6.339   1.170 -0.3093 -0.2462 -0.0678
 6978TIP3    H142493   0.677   6.425   1.143  0.7315 -0.2807  1.0358
 6978TIP3    H242494   0.608   6.301   1.090  1.4835  0.1940 -1.1081
 6979TIP3   OH242495   0.731   5.149   0.212 -0.1355  0.1313  0.4274
 6979TIP3    H142496   0.775   5.232   0.233 -1.2464  0.7204  0.4731
 6979TIP3    H242497   0.735   5.099   0.294 -0.2561  0.5003  0.6610
 6980TIP3   OH242498   0.411   0.381   2.708  0.1196 -0.1351  0.3954
 6980TIP3    H142499   0.387   0.362   2.799 -0.5452  1.1661  0.5163
 6980TIP3    H242500   0.461   0.462   2.714 -2.1587  1.4485 -0.6242
 6981TIP3   OH242501   2.436   5.180   8.532 -0.2926  0.1086 -0.3834
 6981TIP3    H142502   2.421   5.181   8.438 -0.9295 -0.7155 -0.2943
 6981TIP3    H242503   2.517   5.231   8.543  0.3833 -0.6839 -1.4689
 6982TIP3   OH242504   0.538   6.618   1.282 -0.7371  0.6039  0.2596
 6982TIP3    H142505   0.513   6.582   1.197  0.5042  1.7743 -0.6237
 6982TIP3    H242506   0.527   6.544   1.343 -3.2087  0.1762 -0.5763
 6983TIP3   OH242507   4.576   5.979   7.303 -0.0040 -0.3996 -0.2526
 6983TIP3    H142508   4.515   6.053   7.309  0.1085 -0.2653 -0.7353
 6983TIP3    H242509   4.551   5.934   7.222  0.2126 -0.6406 -0.1869
 6984TIP3   OH242510   0.358   4.873   0.058 -0.7617  0.1301 -0.1192
 6984TIP3    H142511   0.393   4.797   0.011  0.1171 -0.0597  0.8108
 6984TIP3    H242512   0.420   4.943   0.040 -0.7651  0.2270  0.2354
 6985TIP3   OH242513   4.424   0.271   2.289  0.6115 -0.2128  0.1855
 6985TIP3    H142514   4.334   0.289   2.263  1.1462  0.9641 -0.9272
 6985TIP3    H242515   4.423   0.278   2.385 -0.2064  1.1232  0.0981
 6986TIP3   OH242516   1.588   5.503   1.852  0.1151  0.7838 -0.5872
 6986TIP3    H142517   1.560   5.454   1.929 -2.1880  2.0200 -0.5757
 6986TIP3    H242518   1.525   5.481   1.784  0.7442  1.5049 -1.4374
 6987TIP3   OH242519   4.208   4.511   0.424  0.1122  0.4320 -0.3504
 6987TIP3    H142520   4.146   4.468   0.482  0.1592  1.4339  0.4630
 6987TIP3    H242521   4.156   4.572   0.373  0.3705  1.0244  0.0881
 6988TIP3   OH242522   0.777   0.731   8.742 -0.4420  0.1099  0.0299
 6988TIP3    H142523   0.871   0.715   8.745 -0.5577 -0.4762  1.1563
 6988TIP3    H242524   0.752   0.709   8.653  0.5195  0.4921 -0.3479
 6989TIP3   OH242525   6.145   0.123   2.631  0.1266  0.6267 -0.1527
 6989TIP3    H142526   6.193   0.184   2.687 -0.2281  0.1362  0.6901
 6989TIP3    H242527   6.205   0.050   2.617 -0.5215 -0.2259  1.3190
 6990TIP3   OH242528   4.321   4.513   0.095 -0.8216  0.5489 -0.2207
 6990TIP3    H142529   4.254   4.572   0.060 -0.4393  1.5969  0.7637
 6990TIP3    H242530   4.381   4.570   0.143  0.9122 -0.3179 -1.2410
 6991TIP3   OH242531   1.270   6.204   2.531  0.5657  0.4852 -0.1954
 6991TIP3    H142532   1.242   6.266   2.464  1.5174  2.1399  0.8752
 6991TIP3    H242533   1.364   6.218   2.539  0.5970 -0.2156  0.9534
 6992TIP3   OH242534   4.995   3.240   8.555 -0.2702  0.1338  0.4292
 6992TIP3    H142535   4.930   3.198   8.498  0.2187 -0.6351  0.4305
 6992TIP3    H242536   4.965   3.331   8.561  0.4450  0.6448 -2.2556
 6993TIP3   OH242537   3.558   6.561   2.826 -0.2795  0.5332 -0.1011
 6993TIP3    H142538   3.555   6.468   2.848 -1.4267  0.3728 -0.8343
 6993TIP3    H242539   3.522   6.605   2.903  0.3799  0.3933  0.2948
 6994TIP3   OH242540   4.444   1.392   6.964 -0.5851  0.0273  0.3836
 6994TIP3    H142541   4.362   1.441   6.963 -0.0782  1.0379 -2.9168
 6994TIP3    H242542   4.512   1.459   6.965  0.3633 -0.7907  3.7595
 6995TIP3   OH242543   3.260   1.088   8.308  0.2110 -0.5318  0.4691
 6995TIP3    H142544   3.175   1.062   8.273 -0.5301  1.0452  1.0075
 6995TIP3    H242545   3.269   1.039   8.389 -1.5739  1.3722  1.9409
 6996TIP3   OH242546   3.527   3.177   1.473  0.2667 -0.4204  0.2631
 6996TIP3    H142547   3.598   3.241   1.474 -0.0264 -0.0018 -1.4645
 6996TIP3    H242548   3.460   3.214   1.530  0.5509  0.2833  0.1505
 6997TIP3   OH242549   1.535   3.335   7.115 -0.4413  0.5709 -0.5542
 6997TIP3    H142550   1.583   3.271   7.063  0.2683  0.5451  0.1237
 6997TIP3    H242551   1.444   3.306   7.109 -0.1247 -0.5767 -0.1756
 6998TIP3   OH242552   4.677   1.611   2.177 -0.2435  0.0797 -0.2115
 6998TIP3    H142553   4.601   1.571   2.135  0.4868 -2.3134  0.5911
 6998TIP3    H242554   4.745   1.610   2.110  0.1934 -1.4711  0.2020
 6999TIP3   OH242555   3.173   1.311   7.378  0.5397  0.1068 -0.3746
 6999TIP3    H142556   3.190   1.396   7.420  1.4702  0.9775 -2.4035
 6999TIP3    H242557   3.088   1.322   7.336  0.0015 -0.4823  0.5245
 7000TIP3   OH242558   4.576   4.642   1.411  0.0444  0.2792 -0.5037
 7000TIP3    H142559   4.670   4.622   1.407 -0.0092 -0.0844 -0.0379
 7000TIP3    H242560   4.533   4.557   1.405 -0.2414  0.4135 -0.3629
 7001TIP3   OH242561   0.546   5.497   8.170  0.2890  0.3042  0.0376
 7001TIP3    H142562   0.591   5.444   8.236 -0.4465 -0.0675  0.2540
 7001TIP3    H242563   0.478   5.439   8.136 -1.0320  1.3542  0.8277
 7002TIP3   OH242564   5.069   5.898   8.019  0.8574  0.6313 -0.0587
 7002TIP3    H142565   5.043   5.862   8.104  0.1077  0.8933 -0.1704
 7002TIP3    H242566   4.999   5.873   7.959  1.3178  0.5561 -0.5808
 7003TIP3   OH242567   1.841   3.114   0.941  0.3763  0.0587  0.1828
 7003TIP3    H142568   1.892   3.048   0.893 -0.3849 -1.0345  0.8342
 7003TIP3    H242569   1.845   3.086   1.033 -3.4258 -1.5690  0.0285
 7004TIP3   OH242570   3.214   4.172   2.296  0.5631  0.2001  0.4345
 7004TIP3    H142571   3.273   4.246   2.308  1.8187 -0.8780  1.1774
 7004TIP3    H242572   3.155   4.176   2.372  0.9544  0.1526  0.7453
 7005TIP3   OH242573   3.796   0.778   7.862  0.0204  0.6825 -0.5700
 7005TIP3    H142574   3.873   0.809   7.909 -0.6867  0.3514  0.8554
 7005TIP3    H242575   3.737   0.853   7.860  0.2751  0.8749 -1.4839
 7006TIP3   OH242576   5.823   5.209   1.750  0.3848  0.0037 -0.6266
 7006TIP3    H142577   5.732   5.185   1.732  0.3795 -1.0110  0.6050
 7006TIP3    H242578   5.872   5.127   1.742  1.0270  0.3410 -0.2967
 7007TIP3   OH242579   1.128   2.773   0.262  0.1175  0.3737  0.1548
 7007TIP3    H142580   1.163   2.852   0.222  0.3616 -0.0035 -0.3997
 7007TIP3    H242581   1.050   2.752   0.212  0.4789 -0.1580 -0.1966
 7008TIP3   OH242582   3.875   3.835   1.208 -0.1500  0.0823 -0.0150
 7008TIP3    H142583   3.804   3.857   1.148 -1.0977 -0.2575  0.9468
 7008TIP3    H242584   3.955   3.861   1.162 -0.5779 -2.6419 -2.6110
 7009TIP3   OH242585   3.181   2.055   1.625  0.2490 -0.0025  0.2345
 7009TIP3    H142586   3.164   1.976   1.574 -1.6679  0.7213 -0.3550
 7009TIP3    H242587   3.249   2.101   1.576 -1.1119  0.3728 -1.4028
 7010TIP3   OH242588   0.336   4.132   1.257 -0.2775  0.3217 -0.3751
 7010TIP3    H142589   0.388   4.079   1.197 -0.0182  0.9112 -0.6733
 7010TIP3    H242590   0.262   4.075   1.281  0.7838 -0.7303  0.5059
 7011TIP3   OH242591   0.502   5.982   2.980  0.5289  0.0452 -0.0183
 7011TIP3    H142592   0.449   5.990   3.059 -0.8530 -0.3014 -0.8823
 7011TIP3    H242593   0.478   6.058   2.926 -0.0555 -0.7765 -0.9551
 7012TIP3   OH242594   5.832   1.111   1.823  0.0580 -0.4183  0.9451
 7012TIP3    H142595   5.763   1.170   1.852  0.9205  0.9941  0.2670
 7012TIP3    H242596   5.875   1.158   1.751 -0.2445 -2.5836 -0.7683
 7013TIP3   OH242597   2.959   6.584   6.993  0.3040 -0.7432  0.3618
 7013TIP3    H142598   3.030   6.612   6.935  0.4339  0.7011  1.1553
 7013TIP3    H242599   2.993   6.508   7.039  1.5954  0.3114  1.1904
 7014TIP3   OH242600   4.834   0.943   2.612  0.2382  0.1010 -0.3013
 7014TIP3    H142601   4.837   0.854   2.647  1.9631 -0.0637 -0.7657
 7014TIP3    H242602   4.745   0.973   2.628 -0.1835 -1.4812  0.4318
 7015TIP3   OH242603   3.433   4.315   1.185  0.7260 -0.4115  0.0016
 7015TIP3    H142604   3.393   4.372   1.250  1.0638  0.3750 -0.4579
 7015TIP3    H242605   3.456   4.236   1.233  1.5892  0.4177  1.0058
 7016TIP3   OH242606   3.797   4.164   1.134 -0.3240 -0.4484 -0.2503
 7016TIP3    H142607   3.762   4.082   1.098  1.5176 -1.5901  0.3984
 7016TIP3    H242608   3.768   4.165   1.225  0.4410 -0.9017  0.0123
 7017TIP3   OH242609   4.555   0.634   7.845 -0.1955  0.3386 -0.6894
 7017TIP3    H142610   4.471   0.607   7.807 -0.7448  2.0132 -0.7501
 7017TIP3    H242611   4.620   0.600   7.784 -0.9377  0.6117 -1.6755
 7018TIP3   OH242612   5.756   1.369   2.338  0.5011  0.7268  0.4074
 7018TIP3    H142613   5.805   1.423   2.401 -0.2249  1.7968  0.0779
 7018TIP3    H242614   5.788   1.396   2.252 -1.0358  1.8696  0.1510
 7019TIP3   OH242615   0.785   6.773   7.989  0.5460 -0.3249  0.0257
 7019TIP3    H142616   0.696   6.784   7.955 -0.0566 -1.2911  1.2497
 7019TIP3    H242617   0.840   6.819   7.925 -0.7015 -0.6849 -1.3579
 7020TIP3   OH242618   4.563   5.983   7.799  0.1900 -0.2190 -0.0013
 7020TIP3    H142619   4.487   5.936   7.832 -2.1550  2.9455 -0.4976
 7020TIP3    H242620   4.563   5.966   7.705  0.4345 -0.6066  0.0639
 7021TIP3   OH242621   4.883   6.098   7.783  0.8363  0.3940 -0.0932
 7021TIP3    H142622   4.977   6.099   7.803  0.9321 -0.7738 -0.3966
 7021TIP3    H242623   4.879   6.093   7.688  0.4569  0.4265 -0.0806
 7022TIP3   OH242624   5.434   6.403   0.901 -0.0974  0.1232  0.4183
 7022TIP3    H142625   5.363   6.400   0.838 -0.1450 -1.8285  0.4994
 7022TIP3    H242626   5.487   6.326   0.881  2.1295  1.6080  0.2452
 7023TIP3   OH242627   5.027   5.130   7.731  0.7344  0.0671  0.1348
 7023TIP3    H142628   5.039   5.225   7.733 -0.3175  0.2505 -1.0216
 7023TIP3    H242629   4.953   5.117   7.671 -0.0040 -1.3902  1.3002
 7024TIP3   OH242630   5.753   6.626   3.225  0.1318 -0.0727  0.0579
 7024TIP3    H142631   5.675   6.632   3.280  0.7695  0.4629  0.9400
 7024TIP3    H242632   5.804   6.704   3.246  0.7677 -0.2552 -0.7282
 7025TIP3   OH242633   3.435   0.910   7.002  0.2140 -0.6657 -0.7224
 7025TIP3    H142634   3.519   0.927   6.959 -0.2672  0.4782 -1.2541
 7025TIP3    H242635   3.439   0.818   7.028  2.0840 -0.3576  0.2484
 7026TIP3   OH242636   3.766   4.841   7.164  0.2101 -0.5501  0.1934
 7026TIP3    H142637   3.701   4.786   7.209 -0.5731 -0.5654 -0.9149
 7026TIP3    H242638   3.847   4.790   7.169  0.1354 -0.5812  1.4967
 7027TIP3   OH242639   6.245   0.596   0.296  0.1716 -0.0505  0.0259
 7027TIP3    H142640   6.324   0.542   0.288 -0.0590 -0.2408 -1.0651
 7027TIP3    H242641   6.173   0.534   0.305  0.1485  0.1254  1.3747
 7028TIP3   OH242642   3.226   5.528   1.475 -0.4195  0.2739  0.1143
 7028TIP3    H142643   3.274   5.447   1.490 -1.0836 -0.0994  0.2383
 7028TIP3    H242644   3.263   5.563   1.394  1.6683  1.1804  1.3812
 7029TIP3   OH242645   2.869   6.382   2.129 -0.1170 -0.1866 -0.0865
 7029TIP3    H142646   2.904   6.351   2.212 -1.0402  0.2202  0.4731
 7029TIP3    H242647   2.785   6.336   2.120  0.5083 -1.1164 -1.3786
 7030TIP3   OH242648   6.297   1.300   0.487  0.3373 -0.2567 -0.2635
 7030TIP3    H142649   6.243   1.248   0.427 -1.3356 -0.4519  1.3158
 7030TIP3    H242650   6.238   1.368   0.519  1.2171 -0.1080  1.0948
 7031TIP3   OH242651   2.309   6.281   2.390 -0.1212  0.4807 -0.0818
 7031TIP3    H142652   2.379   6.346   2.403  0.8806 -0.6677  0.4807
 7031TIP3    H242653   2.264   6.277   2.474  1.1791 -1.0474  0.5999
 7032TIP3   OH242654   5.517   2.937   8.036  0.2250 -0.4764 -0.2244
 7032TIP3    H142655   5.522   2.853   7.990  2.4374  0.3775 -1.7085
 7032TIP3    H242656   5.500   3.001   7.967 -0.1627  0.4632  0.7103
 7033TIP3   OH242657   4.672   3.245   2.268 -0.1485  0.3101  0.1415
 7033TIP3    H142658   4.710   3.266   2.353 -0.4089 -1.4753  0.7431
 7033TIP3    H242659   4.698   3.154   2.251 -2.0206 -0.1466 -0.5896
 7034TIP3   OH242660   6.669   4.624   1.358  0.0405 -0.0157 -0.2780
 7034TIP3    H142661   6.720   4.641   1.438 -0.1748 -0.7532  0.0158
 7034TIP3    H242662   6.731   4.642   1.287  0.1354  0.9718  0.0374
 7035TIP3   OH242663   0.657   1.285   0.548  0.1205  0.2764  0.1012
 7035TIP3    H142664   0.725   1.339   0.589  1.4291 -0.9959 -0.3445
 7035TIP3    H242665   0.663   1.201   0.593  0.6700 -0.7203 -1.7689
 7036TIP3   OH242666   1.634   4.433   1.539  0.3083 -0.4194  0.4356
 7036TIP3    H142667   1.617   4.379   1.615  0.1745 -2.5183 -1.0132
 7036TIP3    H242668   1.726   4.458   1.547 -0.0774  0.6234  1.9867
 7037TIP3   OH242669   1.613   3.632   1.708  0.2809  0.4324  0.0379
 7037TIP3    H142670   1.608   3.706   1.646 -0.7376  0.8587  0.6034
 7037TIP3    H242671   1.646   3.559   1.655 -0.1546  0.9006 -0.9121
 7038TIP3   OH242672   0.252   0.423   1.416 -0.2829  0.1182 -0.0381
 7038TIP3    H142673   0.308   0.392   1.344 -0.3916  1.5985 -0.8052
 7038TIP3    H242674   0.184   0.356   1.424  0.5949 -0.8186 -0.2969
 7039TIP3   OH242675   1.626   1.323   1.605 -0.0492 -1.1887  0.0500
 7039TIP3    H142676   1.592   1.322   1.515 -0.8020 -2.4023  0.3257
 7039TIP3    H242677   1.576   1.256   1.650 -0.7796  0.4507  1.8089
 7040TIP3   OH242678   1.327   3.598   6.416 -0.6678  0.6070 -0.3461
 7040TIP3    H142679   1.381   3.655   6.470 -0.2047 -0.4677  0.3540
 7040TIP3    H242680   1.266   3.657   6.371 -1.0617  1.5429  1.3518
 7041TIP3   OH242681   5.584   2.026   1.792 -0.1761 -0.2547 -0.4984
 7041TIP3    H142682   5.588   2.120   1.809  1.5701 -0.1713 -1.1223
 7041TIP3    H242683   5.552   2.019   1.702 -0.9750 -0.2968 -0.2147
 7042TIP3   OH242684   4.977   3.227   0.083  0.9669 -0.0827  0.9148
 7042TIP3    H142685   4.991   3.266  -0.004  0.7090  0.5063  1.1287
 7042TIP3    H242686   5.062   3.190   0.106  0.6393 -1.6786 -0.2652
 7043TIP3   OH242687   6.526   3.078   2.259  0.4442  0.4317 -0.3520
 7043TIP3    H142688   6.544   3.082   2.353  0.4818  1.8363 -0.3994
 7043TIP3    H242689   6.483   2.994   2.247 -0.3514  0.5984  1.0734
 7044TIP3   OH242690   2.996   2.512   0.327  0.4005 -0.4900  0.0458
 7044TIP3    H142691   3.036   2.443   0.272 -2.0112 -1.4286 -0.6432
 7044TIP3    H242692   2.928   2.466   0.377 -0.5304  1.2129  0.3936
 7045TIP3   OH242693   2.529   2.366   7.513  0.2348  0.4541 -0.4174
 7045TIP3    H142694   2.551   2.375   7.420 -0.1476  0.0187 -0.5550
 7045TIP3    H242695   2.439   2.332   7.513 -0.6869  2.6852  0.1200
 7046TIP3   OH242696   3.695   5.743   0.363 -0.4424  0.6214  0.1470
 7046TIP3    H142697   3.782   5.772   0.390  0.0702 -1.2062  0.5799
 7046TIP3    H242698   3.686   5.655   0.401 -2.7015  0.9790  0.5926
 7047TIP3   OH242699   3.247   3.017   8.412  0.0051 -0.1440 -0.2130
 7047TIP3    H142700   3.179   3.071   8.452  0.7626 -0.2192  1.2283
 7047TIP3    H242701   3.329   3.063   8.429  0.4942 -0.9181 -0.4072
 7048TIP3   OH242702   0.888   5.897   1.583  0.1763  0.6053 -0.1478
 7048TIP3    H142703   0.811   5.942   1.620  0.1369  1.3806 -1.1288
 7048TIP3    H242704   0.873   5.896   1.489  0.6072 -0.7205 -0.2228
 7049TIP3   OH242705   4.929   6.827   7.945 -0.6403 -0.6724 -0.5433
 7049TIP3    H142706   4.885   6.745   7.920 -1.0424 -0.4432 -0.5948
 7049TIP3    H242707   4.937   6.876   7.864  0.4721 -1.0655 -0.6783
 7050TIP3   OH242708   5.711   4.965   7.794  0.1788  0.0015  0.2582
 7050TIP3    H142709   5.736   4.979   7.702 -0.3804  0.5204  0.1765
 7050TIP3    H242710   5.699   4.870   7.801 -1.1616  0.0778 -0.5869
 7051TIP3   OH242711   0.448   3.354   1.893  0.2945  0.5038  0.4548
 7051TIP3    H142712   0.371   3.314   1.933  0.7860 -0.4463  0.4653
 7051TIP3    H242713   0.421   3.372   1.802  0.4090 -0.8538  0.1373
 7052TIP3   OH242714   5.568   3.450   7.551 -0.2209 -0.2915 -0.1321
 7052TIP3    H142715   5.590   3.477   7.641 -0.0013 -0.4740 -0.1311
 7052TIP3    H242716   5.475   3.468   7.543 -0.3738 -0.8705  0.3438
 7053TIP3   OH242717   0.098   5.779   0.954  0.4109  0.6053 -0.2882
 7053TIP3    H142718   0.054   5.819   0.878 -0.0959  0.8851  0.1462
 7053TIP3    H242719   0.107   5.851   1.016 -0.2183  0.1247  0.3751
 7054TIP3   OH242720   1.729   1.064   2.086 -0.6481 -1.1726 -0.5817
 7054TIP3    H142721   1.686   1.098   2.164  1.6982 -2.9320  1.6810
 7054TIP3    H242722   1.761   1.141   2.040  1.1954 -0.0321  2.3154
 7055TIP3   OH242723   6.596   2.557   7.763 -0.2694  0.8694 -0.6640
 7055TIP3    H142724   6.584   2.544   7.669  0.7342 -2.3322 -0.4842
 7055TIP3    H242725   6.687   2.531   7.778 -0.8041  0.0283  1.3613
 7056TIP3   OH242726   2.821   0.144   8.513  0.1957  0.4859 -0.1718
 7056TIP3    H142727   2.730   0.114   8.507  0.9137 -1.7619 -0.4645
 7056TIP3    H242728   2.837   0.151   8.607 -0.1070  0.3561 -0.1079
 7057LIG     O142729   1.944   1.867   3.984  0.1224  0.5597 -0.0413
 7057LIG     O242730   2.003   1.965   3.770 -0.3050  0.6642  0.0684
 7057LIG     O342731   2.163   2.024   3.935 -0.5417 -0.2393 -0.1240
 7057LIG     O442732   1.668   1.850   3.802  0.3189  1.1128  0.0581
 7057LIG     O542733   1.642   2.076   3.986 -0.4473 -0.9462 -1.0693
 7057LIG     O642734   2.211   1.895   3.577 -0.1496 -0.3337 -0.0618
 7057LIG     O742735   2.120   2.171   3.613 -0.2177 -0.5337  0.2987
 7057LIG     O842736   2.297   2.329   3.754  0.0509  0.1749 -0.1157
 7057LIG     O942737   1.920   1.713   3.630 -0.0999 -0.3563  0.0933
 7057LIG    O1042738   2.012   2.024   4.188 -0.7159 -0.2532 -0.4135
 7057LIG    O1142739   2.317   2.325   4.039  0.0598 -0.1553 -0.3293
 7057LIG     C142740   1.924   1.872   3.839  0.6112 -0.2649 -0.0978
 7057LIG     C242741   1.780   1.940   3.824 -0.6354  1.0699 -0.2227
 7057LIG     C342742   1.770   2.017   3.957  0.0754  0.2848  0.4898
 7057LIG     C442743   1.835   1.926   4.060  0.1733  0.4152 -0.8232
 7057LIG     C542744   2.134   1.946   3.815 -0.0620  0.7045  0.9825
 7057LIG     C642745   2.238   1.966   3.696  0.0199 -1.0809 -0.2319
 7057LIG     C742746   2.242   2.116   3.659  0.2331  0.9462  0.4088
 7057LIG     C842747   2.292   2.190   3.784 -0.0567  1.1337 -0.2458
 7057LIG     C942748   2.203   2.159   3.903 -0.3573 -0.8152  0.0674
 7057LIG    C1042749   1.931   1.730   3.777 -0.1419  0.4580 -0.1389
 7057LIG    C1142750   1.877   1.985   4.190  0.1246 -0.0733  0.7832
 7057LIG    C1242751   2.264   2.199   4.038 -0.4381  0.2865 -0.1905
 7057LIG     H142752   1.786   2.003   3.734 -0.8876 -1.0947 -1.8512
 7057LIG     H242753   1.842   2.098   3.940 -0.7074  0.5379 -1.9970
 7057LIG     H342754   1.759   1.848   4.074 -0.8882  1.5685  0.0291
 7057LIG     H442755   2.157   1.838   3.831 -0.3560  0.2891 -1.0941
 7057LIG     H542756   2.338   1.936   3.733  1.5726  2.3746 -1.2635
 7057LIG     H642757   2.319   2.140   3.582 -0.4187  3.2728  0.4337
 7057LIG     H742758   2.389   2.142   3.811 -0.7703  0.2703  0.8779
 7057LIG     H842759   2.108   2.211   3.883  0.5572  1.4457  1.1663
 7057LIG     H942760   2.026   1.680   3.807 -0.0648  0.8124  0.2204
 7057LIG    H1042761   1.851   1.681   3.838  2.1893 -0.0589  2.7424
 7057LIG    H1142762   1.808   2.069   4.216  1.3673  1.0121  0.6938
 7057LIG    H1242763   1.877   1.911   4.273  1.1756  0.1001  0.9516
 7057LIG    H1342764   2.186   2.190   4.117 -1.6175  3.1085 -0.9117
 7057LIG    H1442765   2.350   2.130   4.053  2.4705  3.9908  1.8255
 7057LIG    H1542766   1.633   1.864   3.714  1.7162  0.7423 -0.6026
 7057LIG    H1642767   1.578   2.006   3.974 -0.0664 -1.4934 -0.0374
 7057LIG    H1742768   2.144   1.953   3.540 -0.5513 -0.8368 -0.1385
 7057LIG    H1842769   2.140   2.265   3.620 -1.2151 -0.3542  0.9707
 7057LIG    H1942770   2.306   2.369   3.841 -1.7332  0.1088  0.1207
 7057LIG    H2042771   1.980   1.643   3.603  2.0729  1.7273 -0.8873
 7057LIG    H2142772   2.047   1.970   4.116  0.1123  0.0045 -0.2146
 7057LIG    H2242773   2.322   2.349   4.132 -2.2633 -0.7854  0.0303
   6.82756   6.82756   8.75255
